ROOT
REMARK  Name = acitretin
REMARK                            x       y       z     vdW  Elec       q    Type
REMARK                         _______ _______ _______ _____ _____    ______ ____
ATOM      1  C   UNL     1       0.000   2.475   0.000  0.00  0.00    +0.000 C 
ATOM      2  O   UNL     1       0.715   2.062   0.000  0.00  0.00    +0.000 OA
ATOM      3  C   UNL     1       0.715   1.238   0.000  0.00  0.00    +0.000 A 
ATOM      4  C   UNL     1       1.429   0.825   0.000  0.00  0.00    +0.000 A 
ATOM      5  C   UNL     1       2.143   1.238   0.000  0.00  0.00    +0.000 C 
ATOM      6  C   UNL     1       1.429   0.000   0.000  0.00  0.00    +0.000 A 
ATOM      7  C   UNL     1       2.143  -0.412   0.000  0.00  0.00    +0.000 C 
ATOM      8  C   UNL     1       0.715  -0.412   0.000  0.00  0.00    +0.000 A 
ATOM      9  C   UNL     1       0.715  -1.238   0.000  0.00  0.00    +0.000 C 
ATOM     10  C   UNL     1       0.000  -1.650   0.000  0.00  0.00    +0.000 C 
ATOM     11  C   UNL     1       0.000  -2.475   0.000  0.00  0.00    +0.000 C 
ATOM     12  C   UNL     1       0.715  -2.888   0.000  0.00  0.00    +0.000 C 
ATOM     13  C   UNL     1      -0.715  -2.888   0.000  0.00  0.00    +0.000 C 
ATOM     14  C   UNL     1      -0.715  -3.712   0.000  0.00  0.00    +0.000 C 
ATOM     15  C   UNL     1      -1.429  -4.125   0.000  0.00  0.00    +0.000 C 
ATOM     16  C   UNL     1      -1.429  -4.950   0.000  0.00  0.00    +0.000 C 
ATOM     17  C   UNL     1      -0.715  -5.362   0.000  0.00  0.00    +0.000 C 
ATOM     18  C   UNL     1      -2.143  -5.362   0.000  0.00  0.00    +0.000 C 
ATOM     19  C   UNL     1      -2.143  -6.188   0.000  0.00  0.00    +0.000 C 
ATOM     20  O   UNL     1      -1.429  -6.600   0.000  0.00  0.00    +0.000 OA
ATOM     21  O   UNL     1      -2.858  -6.600   0.000  0.00  0.00    +0.000 OA
ATOM     22  C   UNL     1       0.000   0.000   0.000  0.00  0.00    +0.000 A 
ATOM     23  C   UNL     1      -0.715  -0.412   0.000  0.00  0.00    +0.000 C 
ATOM     24  C   UNL     1       0.000   0.825   0.000  0.00  0.00    +0.000 A 
ENDROOT
TORSDOF 0
