ROOT
REMARK  Name = acotiamide
REMARK                            x       y       z     vdW  Elec       q    Type
REMARK                         _______ _______ _______ _____ _____    ______ ____
ATOM      1  C   UNL     1      -7.913   8.871   0.000  0.00  0.00    +0.000 C 
ATOM      2  O   UNL     1      -7.160   9.207   0.000  0.00  0.00    +0.000 OA
ATOM      3  C   UNL     1      -6.492   8.722   0.000  0.00  0.00    +0.000 A 
ATOM      4  C   UNL     1      -5.739   9.057   0.000  0.00  0.00    +0.000 A 
ATOM      5  C   UNL     1      -5.071   8.572   0.000  0.00  0.00    +0.000 A 
ATOM      6  O   UNL     1      -4.318   8.908   0.000  0.00  0.00    +0.000 OA
ATOM      7  C   UNL     1      -5.157   7.752   0.000  0.00  0.00    +0.000 A 
ATOM      8  C   UNL     1      -5.911   7.416   0.000  0.00  0.00    +0.000 A 
ATOM      9  C   UNL     1      -6.579   7.901   0.000  0.00  0.00    +0.000 A 
ATOM     10  O   UNL     1      -7.332   7.566   0.000  0.00  0.00    +0.000 OA
ATOM     11  C   UNL     1      -8.000   8.051   0.000  0.00  0.00    +0.000 C 
ATOM     12  C   UNL     1      -4.490   7.267   0.000  0.00  0.00    +0.000 C 
ATOM     13  O   UNL     1      -4.576   6.447   0.000  0.00  0.00    +0.000 OA
ATOM     14  N   UNL     1      -3.736   7.603   0.000  0.00  0.00    +0.000 NA
ATOM     15  C   UNL     1      -3.069   7.118   0.000  0.00  0.00    +0.000 A 
ATOM     16  N   UNL     1      -2.284   7.373   0.000  0.00  0.00    +0.000 NA
ATOM     17  C   UNL     1      -1.799   6.705   0.000  0.00  0.00    +0.000 A 
ATOM     18  C   UNL     1      -2.284   6.038   0.000  0.00  0.00    +0.000 A 
ATOM     19  S   UNL     1      -3.069   6.293   0.000  0.00  0.00    +0.000 S 
ATOM     20  C   UNL     1      -0.974   6.705   0.000  0.00  0.00    +0.000 C 
ATOM     21  O   UNL     1      -0.562   7.420   0.000  0.00  0.00    +0.000 OA
ATOM     22  N   UNL     1      -0.562   5.991   0.000  0.00  0.00    +0.000 NA
ATOM     23  C   UNL     1       0.263   5.991   0.000  0.00  0.00    +0.000 C 
ATOM     24  C   UNL     1       0.676   5.276   0.000  0.00  0.00    +0.000 C 
ATOM     25  N   UNL     1       1.501   5.276   0.000  0.00  0.00    +0.000 NA
ATOM     26  C   UNL     1       1.913   4.562   0.000  0.00  0.00    +0.000 C 
ATOM     27  C   UNL     1       2.738   4.562   0.000  0.00  0.00    +0.000 C 
ATOM     28  C   UNL     1       1.501   3.847   0.000  0.00  0.00    +0.000 C 
ATOM     29  C   UNL     1       1.913   5.991   0.000  0.00  0.00    +0.000 C 
ATOM     30  C   UNL     1       1.501   6.705   0.000  0.00  0.00    +0.000 C 
ATOM     31  C   UNL     1       2.738   5.991   0.000  0.00  0.00    +0.000 C 
ENDROOT
TORSDOF 0
