ROOT
REMARK  Name = adefovir dipivoxil
REMARK                            x       y       z     vdW  Elec       q    Type
REMARK                         _______ _______ _______ _____ _____    ______ ____
ATOM      1  C   UNL     1      -6.445   1.392   0.000  0.00  0.00    +0.000 C 
ATOM      2  C   UNL     1      -5.661   1.647   0.000  0.00  0.00    +0.000 C 
ATOM      3  C   UNL     1      -5.406   0.862   0.000  0.00  0.00    +0.000 C 
ATOM      4  C   UNL     1      -5.916   2.431   0.000  0.00  0.00    +0.000 C 
ATOM      5  C   UNL     1      -4.876   1.902   0.000  0.00  0.00    +0.000 C 
ATOM      6  O   UNL     1      -4.263   1.350   0.000  0.00  0.00    +0.000 OA
ATOM      7  O   UNL     1      -4.705   2.709   0.000  0.00  0.00    +0.000 OA
ATOM      8  C   UNL     1      -3.920   2.963   0.000  0.00  0.00    +0.000 C 
ATOM      9  O   UNL     1      -3.307   2.412   0.000  0.00  0.00    +0.000 OA
ATOM     10  P   UNL     1      -2.522   2.666   0.000  0.00  0.00    +0.000 P 
ATOM     11  O   UNL     1      -1.738   2.921   0.000  0.00  0.00    +0.000 OA
ATOM     12  C   UNL     1      -2.267   1.882   0.000  0.00  0.00    +0.000 C 
ATOM     13  O   UNL     1      -1.460   1.710   0.000  0.00  0.00    +0.000 OA
ATOM     14  C   UNL     1      -1.205   0.926   0.000  0.00  0.00    +0.000 C 
ATOM     15  C   UNL     1      -0.398   0.754   0.000  0.00  0.00    +0.000 C 
ATOM     16  N   UNL     1      -0.143  -0.030   0.000  0.00  0.00    +0.000 N 
ATOM     17  C   UNL     1      -0.628  -0.698   0.000  0.00  0.00    +0.000 A 
ATOM     18  N   UNL     1      -0.143  -1.365   0.000  0.00  0.00    +0.000 NA
ATOM     19  C   UNL     1       0.641  -1.110   0.000  0.00  0.00    +0.000 A 
ATOM     20  C   UNL     1       0.641  -0.285   0.000  0.00  0.00    +0.000 A 
ATOM     21  N   UNL     1       1.356   0.127   0.000  0.00  0.00    +0.000 NA
ATOM     22  C   UNL     1       2.070  -0.285   0.000  0.00  0.00    +0.000 A 
ATOM     23  N   UNL     1       2.070  -1.110   0.000  0.00  0.00    +0.000 NA
ATOM     24  C   UNL     1       1.356  -1.523   0.000  0.00  0.00    +0.000 A 
ATOM     25  N   UNL     1       1.356  -2.348   0.000  0.00  0.00    +0.000 NA
ATOM     26  O   UNL     1      -2.777   3.451   0.000  0.00  0.00    +0.000 OA
ATOM     27  C   UNL     1      -2.225   4.064   0.000  0.00  0.00    +0.000 C 
ATOM     28  O   UNL     1      -2.480   4.849   0.000  0.00  0.00    +0.000 OA
ATOM     29  C   UNL     1      -1.928   5.462   0.000  0.00  0.00    +0.000 C 
ATOM     30  O   UNL     1      -2.183   6.247   0.000  0.00  0.00    +0.000 OA
ATOM     31  C   UNL     1      -1.121   5.290   0.000  0.00  0.00    +0.000 C 
ATOM     32  C   UNL     1      -1.293   4.483   0.000  0.00  0.00    +0.000 C 
ATOM     33  C   UNL     1      -0.950   6.097   0.000  0.00  0.00    +0.000 C 
ATOM     34  C   UNL     1      -0.314   5.119   0.000  0.00  0.00    +0.000 C 
ENDROOT
TORSDOF 0
