ROOT
REMARK  Name = ademetionine
REMARK                            x       y       z     vdW  Elec       q    Type
REMARK                         _______ _______ _______ _____ _____    ______ ____
ATOM      1  C   UNL     1      -3.703   0.546   0.000  0.00  0.00    +0.000 C 
ATOM      2  S   UNL     1      -3.703   1.371   0.000  0.00  0.00    +0.000 S 
ATOM      3  C   UNL     1      -4.417   1.783   0.000  0.00  0.00    +0.000 C 
ATOM      4  C   UNL     1      -5.132   1.371   0.000  0.00  0.00    +0.000 C 
ATOM      5  CA  UNL     1      -5.846   1.783   0.000  0.00  0.00    +0.000 C 
ATOM      6  N   UNL     1      -5.846   2.608   0.000  0.00  0.00    +0.000 NA
ATOM      7  C   UNL     1      -6.561   1.371   0.000  0.00  0.00    +0.000 C 
ATOM      8  O   UNL     1      -7.275   1.783   0.000  0.00  0.00    +0.000 OA
ATOM      9  OXT UNL     1      -6.561   0.546   0.000  0.00  0.00    +0.000 OA
ATOM     10  C   UNL     1      -2.988   1.783   0.000  0.00  0.00    +0.000 C 
ATOM     11  C   UNL     1      -2.274   1.371   0.000  0.00  0.00    +0.000 C 
ATOM     12  O   UNL     1      -1.520   1.706   0.000  0.00  0.00    +0.000 OA
ATOM     13  C   UNL     1      -0.968   1.093   0.000  0.00  0.00    +0.000 C 
ATOM     14  C   UNL     1      -1.381   0.379   0.000  0.00  0.00    +0.000 C 
ATOM     15  O   UNL     1      -1.045  -0.375   0.000  0.00  0.00    +0.000 OA
ATOM     16  C   UNL     1      -2.188   0.550   0.000  0.00  0.00    +0.000 C 
ATOM     17  O   UNL     1      -2.801  -0.002   0.000  0.00  0.00    +0.000 OA
ATOM     18  N   UNL     1      -0.148   1.179   0.000  0.00  0.00    +0.000 N 
ATOM     19  C   UNL     1       0.404   0.566   0.000  0.00  0.00    +0.000 A 
ATOM     20  N   UNL     1       1.158   0.902   0.000  0.00  0.00    +0.000 NA
ATOM     21  C   UNL     1       1.072   1.722   0.000  0.00  0.00    +0.000 A 
ATOM     22  C   UNL     1       0.265   1.894   0.000  0.00  0.00    +0.000 A 
ATOM     23  N   UNL     1       0.010   2.679   0.000  0.00  0.00    +0.000 NA
ATOM     24  C   UNL     1       0.562   3.292   0.000  0.00  0.00    +0.000 A 
ATOM     25  N   UNL     1       1.369   3.120   0.000  0.00  0.00    +0.000 NA
ATOM     26  C   UNL     1       1.624   2.335   0.000  0.00  0.00    +0.000 A 
ATOM     27  N   UNL     1       2.431   2.164   0.000  0.00  0.00    +0.000 NA
ENDROOT
TORSDOF 0
