ROOT
REMARK  Name = adenosine
REMARK                            x       y       z     vdW  Elec       q    Type
REMARK                         _______ _______ _______ _____ _____    ______ ____
ATOM      1  N6    A A   1       0.715  -1.238   0.000  0.00  0.00    +0.000 NA
ATOM      2  C6    A A   1       0.715  -0.412   0.000  0.00  0.00    +0.000 A 
ATOM      3  C5    A A   1       0.000   0.000   0.000  0.00  0.00    +0.000 A 
ATOM      4  N7    A A   1      -0.785  -0.255   0.000  0.00  0.00    +0.000 NA
ATOM      5  C8    A A   1      -1.270   0.412   0.000  0.00  0.00    +0.000 A 
ATOM      6  N9    A A   1      -0.785   1.080   0.000  0.00  0.00    +0.000 N 
ATOM      7  C1*   A A   1      -1.040   1.865   0.000  0.00  0.00    +0.000 C 
ATOM      8  O4*   A A   1      -1.824   2.119   0.000  0.00  0.00    +0.000 OA
ATOM      9  C4*   A A   1      -1.824   2.945   0.000  0.00  0.00    +0.000 C 
ATOM     10  C5*   A A   1      -2.492   3.429   0.000  0.00  0.00    +0.000 C 
ATOM     11  O5*   A A   1      -3.245   3.094   0.000  0.00  0.00    +0.000 OA
ATOM     12  C3*   A A   1      -1.040   3.199   0.000  0.00  0.00    +0.000 C 
ATOM     13  O3*   A A   1      -0.785   3.984   0.000  0.00  0.00    +0.000 OA
ATOM     14  C2*   A A   1      -0.555   2.532   0.000  0.00  0.00    +0.000 C 
ATOM     15  O2*   A A   1       0.270   2.532   0.000  0.00  0.00    +0.000 OA
ATOM     16  C4    A A   1       0.000   0.825   0.000  0.00  0.00    +0.000 A 
ATOM     17  N3    A A   1       0.715   1.238   0.000  0.00  0.00    +0.000 NA
ATOM     18  C2    A A   1       1.429   0.825   0.000  0.00  0.00    +0.000 A 
ATOM     19  N1    A A   1       1.429   0.000   0.000  0.00  0.00    +0.000 NA
ENDROOT
TORSDOF 0
