ROOT
REMARK  Name = adenosine phosphate
REMARK                            x       y       z     vdW  Elec       q    Type
REMARK                         _______ _______ _______ _____ _____    ______ ____
ATOM      1  N   UNL     1       3.279   2.062   0.000  0.00  0.00    +0.000 NA
ATOM      2  C   UNL     1       3.279   1.238   0.000  0.00  0.00    +0.000 A 
ATOM      3  N   UNL     1       3.993   0.825   0.000  0.00  0.00    +0.000 NA
ATOM      4  C   UNL     1       3.993   0.000   0.000  0.00  0.00    +0.000 A 
ATOM      5  N   UNL     1       3.279  -0.412   0.000  0.00  0.00    +0.000 NA
ATOM      6  C   UNL     1       2.564   0.000   0.000  0.00  0.00    +0.000 A 
ATOM      7  C   UNL     1       2.564   0.825   0.000  0.00  0.00    +0.000 A 
ATOM      8  N   UNL     1       1.780   1.080   0.000  0.00  0.00    +0.000 NA
ATOM      9  C   UNL     1       1.295   0.412   0.000  0.00  0.00    +0.000 A 
ATOM     10  N   UNL     1       1.780  -0.255   0.000  0.00  0.00    +0.000 N 
ATOM     11  C   UNL     1       1.525  -1.040   0.000  0.00  0.00    +0.000 C 
ATOM     12  O   UNL     1       2.010  -1.707   0.000  0.00  0.00    +0.000 OA
ATOM     13  C   UNL     1       1.525  -2.374   0.000  0.00  0.00    +0.000 C 
ATOM     14  C   UNL     1       1.780  -3.159   0.000  0.00  0.00    +0.000 C 
ATOM     15  O   UNL     1       1.228  -3.772   0.000  0.00  0.00    +0.000 OA
ATOM     16  P   UNL     1       1.483  -4.557   0.000  0.00  0.00    +0.000 P 
ATOM     17  O   UNL     1       1.738  -5.341   0.000  0.00  0.00    +0.000 OA
ATOM     18  O   UNL     1       0.698  -4.812   0.000  0.00  0.00    +0.000 OA
ATOM     19  O   UNL     1       2.267  -4.302   0.000  0.00  0.00    +0.000 OA
ATOM     20  C   UNL     1       0.740  -2.119   0.000  0.00  0.00    +0.000 C 
ATOM     21  O   UNL     1       0.073  -2.604   0.000  0.00  0.00    +0.000 OA
ATOM     22  C   UNL     1       0.740  -1.294   0.000  0.00  0.00    +0.000 C 
ATOM     23  O   UNL     1       0.073  -0.810   0.000  0.00  0.00    +0.000 OA
ENDROOT
TORSDOF 0
