ROOT
REMARK  Name = alatrofloxacin
REMARK                            x       y       z     vdW  Elec       q    Type
REMARK                         _______ _______ _______ _____ _____    ______ ____
ATOM      1  C   UNL     1       2.433  -5.529   0.000  0.00  0.00    +0.000 C 
ATOM      2  C   UNL     1       3.147  -5.942   0.000  0.00  0.00    +0.000 C 
ATOM      3  N   UNL     1       3.147  -6.767   0.000  0.00  0.00    +0.000 NA
ATOM      4  C   UNL     1       3.862  -5.529   0.000  0.00  0.00    +0.000 C 
ATOM      5  O   UNL     1       3.862  -4.705   0.000  0.00  0.00    +0.000 OA
ATOM      6  N   UNL     1       4.576  -5.942   0.000  0.00  0.00    +0.000 NA
ATOM      7  C   UNL     1       5.291  -5.529   0.000  0.00  0.00    +0.000 C 
ATOM      8  C   UNL     1       5.291  -4.705   0.000  0.00  0.00    +0.000 C 
ATOM      9  C   UNL     1       6.005  -5.942   0.000  0.00  0.00    +0.000 C 
ATOM     10  O   UNL     1       6.005  -6.767   0.000  0.00  0.00    +0.000 OA
ATOM     11  N   UNL     1       6.720  -5.529   0.000  0.00  0.00    +0.000 NA
ATOM     12  C   UNL     1       6.720  -4.705   0.000  0.00  0.00    +0.000 C 
ATOM     13  C   UNL     1       6.307  -3.990   0.000  0.00  0.00    +0.000 C 
ATOM     14  C   UNL     1       6.052  -3.205   0.000  0.00  0.00    +0.000 C 
ATOM     15  N   UNL     1       6.720  -2.720   0.000  0.00  0.00    +0.000 N 
ATOM     16  C   UNL     1       7.387  -3.205   0.000  0.00  0.00    +0.000 C 
ATOM     17  C   UNL     1       7.132  -3.990   0.000  0.00  0.00    +0.000 C 
ATOM     18  C   UNL     1       6.720  -1.895   0.000  0.00  0.00    +0.000 A 
ATOM     19  C   UNL     1       6.005  -1.483   0.000  0.00  0.00    +0.000 A 
ATOM     20  F   UNL     1       5.291  -1.895   0.000  0.00  0.00    +0.000 F 
ATOM     21  C   UNL     1       6.005  -0.658   0.000  0.00  0.00    +0.000 A 
ATOM     22  C   UNL     1       6.720  -0.245   0.000  0.00  0.00    +0.000 A 
ATOM     23  C   UNL     1       6.720   0.580   0.000  0.00  0.00    +0.000 A 
ATOM     24  O   UNL     1       6.005   0.992   0.000  0.00  0.00    +0.000 OA
ATOM     25  C   UNL     1       7.434   0.992   0.000  0.00  0.00    +0.000 A 
ATOM     26  C   UNL     1       8.148   0.580   0.000  0.00  0.00    +0.000 A 
ATOM     27  N   UNL     1       8.148  -0.245   0.000  0.00  0.00    +0.000 N 
ATOM     28  C   UNL     1       8.863  -0.658   0.000  0.00  0.00    +0.000 A 
ATOM     29  C   UNL     1       9.577  -0.245   0.000  0.00  0.00    +0.000 A 
ATOM     30  F   UNL     1       9.577   0.580   0.000  0.00  0.00    +0.000 F 
ATOM     31  C   UNL     1      10.292  -0.658   0.000  0.00  0.00    +0.000 A 
ATOM     32  C   UNL     1      10.292  -1.483   0.000  0.00  0.00    +0.000 A 
ATOM     33  F   UNL     1      11.006  -1.895   0.000  0.00  0.00    +0.000 F 
ATOM     34  C   UNL     1       9.577  -1.895   0.000  0.00  0.00    +0.000 A 
ATOM     35  C   UNL     1       8.863  -1.483   0.000  0.00  0.00    +0.000 A 
ATOM     36  C   UNL     1       7.434  -0.658   0.000  0.00  0.00    +0.000 A 
ATOM     37  N   UNL     1       7.434  -1.483   0.000  0.00  0.00    +0.000 NA
ATOM     38  C   UNL     1       7.434   1.817   0.000  0.00  0.00    +0.000 C 
ATOM     39  O   UNL     1       8.148   2.229   0.000  0.00  0.00    +0.000 OA
ATOM     40  O   UNL     1       6.720   2.229   0.000  0.00  0.00    +0.000 OA
ENDROOT
TORSDOF 0
