ROOT
REMARK  Name = alectinib
REMARK                            x       y       z     vdW  Elec       q    Type
REMARK                         _______ _______ _______ _____ _____    ______ ____
ATOM      1  C   UNL     1       6.558  -0.414   0.000  0.00  0.00    +0.000 C 
ATOM      2  C   UNL     1       5.776  -0.678   0.000  0.00  0.00    +0.000 C 
ATOM      3  C   UNL     1       5.157  -0.133   0.000  0.00  0.00    +0.000 A 
ATOM      4  C   UNL     1       4.375  -0.396   0.000  0.00  0.00    +0.000 A 
ATOM      5  C   UNL     1       3.756   0.149   0.000  0.00  0.00    +0.000 A 
ATOM      6  C   UNL     1       3.919   0.958   0.000  0.00  0.00    +0.000 A 
ATOM      7  C   UNL     1       4.701   1.221   0.000  0.00  0.00    +0.000 A 
ATOM      8  C   UNL     1       5.320   0.676   0.000  0.00  0.00    +0.000 A 
ATOM      9  N   UNL     1       6.101   0.940   0.000  0.00  0.00    +0.000 N 
ATOM     10  C   UNL     1       6.264   1.748   0.000  0.00  0.00    +0.000 C 
ATOM     11  C   UNL     1       7.046   2.012   0.000  0.00  0.00    +0.000 C 
ATOM     12  C   UNL     1       7.665   1.467   0.000  0.00  0.00    +0.000 C 
ATOM     13  C   UNL     1       7.502   0.658   0.000  0.00  0.00    +0.000 C 
ATOM     14  C   UNL     1       6.721   0.394   0.000  0.00  0.00    +0.000 C 
ATOM     15  N   UNL     1       8.447   1.730   0.000  0.00  0.00    +0.000 NA
ATOM     16  C   UNL     1       8.609   2.539   0.000  0.00  0.00    +0.000 C 
ATOM     17  C   UNL     1       9.391   2.803   0.000  0.00  0.00    +0.000 C 
ATOM     18  O   UNL     1      10.010   2.257   0.000  0.00  0.00    +0.000 OA
ATOM     19  C   UNL     1       9.848   1.449   0.000  0.00  0.00    +0.000 C 
ATOM     20  C   UNL     1       9.066   1.185   0.000  0.00  0.00    +0.000 C 
ATOM     21  C   UNL     1       3.300   1.503   0.000  0.00  0.00    +0.000 C 
ATOM     22  C   UNL     1       3.944   2.018   0.000  0.00  0.00    +0.000 C 
ATOM     23  C   UNL     1       2.904   2.227   0.000  0.00  0.00    +0.000 C 
ATOM     24  C   UNL     1       2.518   1.239   0.000  0.00  0.00    +0.000 C 
ATOM     25  C   UNL     1       2.355   0.431   0.000  0.00  0.00    +0.000 C 
ATOM     26  C   UNL     1       1.536   0.335   0.000  0.00  0.00    +0.000 C 
ATOM     27  C   UNL     1       1.058  -0.337   0.000  0.00  0.00    +0.000 C 
ATOM     28  C   UNL     1       0.237  -0.260   0.000  0.00  0.00    +0.000 C 
ATOM     29  C   UNL     1      -0.107   0.490   0.000  0.00  0.00    +0.000 C 
ATOM     30  C   UNL     1       0.371   1.162   0.000  0.00  0.00    +0.000 C 
ATOM     31  C   UNL     1       1.192   1.085   0.000  0.00  0.00    +0.000 C 
ATOM     32  N   UNL     1       1.799   1.644   0.000  0.00  0.00    +0.000 NA
ATOM     33  C   UNL     1      -0.928   0.567   0.000  0.00  0.00    +0.000 C 
ATOM     34  N   UNL     1      -1.750   0.644   0.000  0.00  0.00    +0.000 NA
ATOM     35  C   UNL     1       2.974  -0.115   0.000  0.00  0.00    +0.000 C 
ATOM     36  O   UNL     1       2.812  -0.923   0.000  0.00  0.00    +0.000 OA
ENDROOT
TORSDOF 0
