ROOT
REMARK  Name = alexidine
REMARK                            x       y       z     vdW  Elec       q    Type
REMARK                         _______ _______ _______ _____ _____    ______ ____
ATOM      1  C   UNL     1      13.421   8.574   0.000  0.00  0.00    +0.000 C 
ATOM      2  C   UNL     1      14.136   8.986   0.000  0.00  0.00    +0.000 C 
ATOM      3  C   UNL     1      14.850   8.574   0.000  0.00  0.00    +0.000 C 
ATOM      4  C   UNL     1      15.565   8.986   0.000  0.00  0.00    +0.000 C 
ATOM      5  C   UNL     1      16.279   8.574   0.000  0.00  0.00    +0.000 C 
ATOM      6  C   UNL     1      16.279   7.749   0.000  0.00  0.00    +0.000 C 
ATOM      7  C   UNL     1      16.993   7.336   0.000  0.00  0.00    +0.000 C 
ATOM      8  C   UNL     1      16.993   8.986   0.000  0.00  0.00    +0.000 C 
ATOM      9  N   UNL     1      17.708   8.574   0.000  0.00  0.00    +0.000 NA
ATOM     10  C   UNL     1      18.422   8.986   0.000  0.00  0.00    +0.000 C 
ATOM     11  N   UNL     1      18.422   9.811   0.000  0.00  0.00    +0.000 NA
ATOM     12  N   UNL     1      19.137   8.574   0.000  0.00  0.00    +0.000 NA
ATOM     13  C   UNL     1      19.851   8.986   0.000  0.00  0.00    +0.000 C 
ATOM     14  N   UNL     1      19.851   9.811   0.000  0.00  0.00    +0.000 NA
ATOM     15  N   UNL     1      20.566   8.574   0.000  0.00  0.00    +0.000 NA
ATOM     16  C   UNL     1      21.280   8.986   0.000  0.00  0.00    +0.000 C 
ATOM     17  C   UNL     1      21.995   8.574   0.000  0.00  0.00    +0.000 C 
ATOM     18  C   UNL     1      22.709   8.986   0.000  0.00  0.00    +0.000 C 
ATOM     19  C   UNL     1      23.424   8.574   0.000  0.00  0.00    +0.000 C 
ATOM     20  C   UNL     1      24.138   8.986   0.000  0.00  0.00    +0.000 C 
ATOM     21  C   UNL     1      24.853   8.574   0.000  0.00  0.00    +0.000 C 
ATOM     22  N   UNL     1      25.567   8.986   0.000  0.00  0.00    +0.000 NA
ATOM     23  C   UNL     1      26.282   8.574   0.000  0.00  0.00    +0.000 C 
ATOM     24  N   UNL     1      26.282   7.749   0.000  0.00  0.00    +0.000 NA
ATOM     25  N   UNL     1      26.996   8.986   0.000  0.00  0.00    +0.000 NA
ATOM     26  C   UNL     1      27.710   8.574   0.000  0.00  0.00    +0.000 C 
ATOM     27  N   UNL     1      27.710   7.749   0.000  0.00  0.00    +0.000 NA
ATOM     28  N   UNL     1      28.425   8.986   0.000  0.00  0.00    +0.000 NA
ATOM     29  C   UNL     1      29.139   8.574   0.000  0.00  0.00    +0.000 C 
ATOM     30  C   UNL     1      29.854   8.986   0.000  0.00  0.00    +0.000 C 
ATOM     31  C   UNL     1      29.854   9.811   0.000  0.00  0.00    +0.000 C 
ATOM     32  C   UNL     1      30.568  10.224   0.000  0.00  0.00    +0.000 C 
ATOM     33  C   UNL     1      30.568   8.574   0.000  0.00  0.00    +0.000 C 
ATOM     34  C   UNL     1      31.283   8.986   0.000  0.00  0.00    +0.000 C 
ATOM     35  C   UNL     1      31.997   8.574   0.000  0.00  0.00    +0.000 C 
ATOM     36  C   UNL     1      32.712   8.986   0.000  0.00  0.00    +0.000 C 
ENDROOT
TORSDOF 0
