ROOT
REMARK  Name = aliskiren
REMARK                            x       y       z     vdW  Elec       q    Type
REMARK                         _______ _______ _______ _____ _____    ______ ____
ATOM      1  C   UNL     1      14.549   8.068   0.000  0.00  0.00    +0.000 C 
ATOM      2  O   UNL     1      13.738   8.224   0.000  0.00  0.00    +0.000 OA
ATOM      3  C   UNL     1      13.198   7.601   0.000  0.00  0.00    +0.000 C 
ATOM      4  C   UNL     1      12.388   7.756   0.000  0.00  0.00    +0.000 C 
ATOM      5  C   UNL     1      11.848   7.133   0.000  0.00  0.00    +0.000 C 
ATOM      6  O   UNL     1      11.038   7.289   0.000  0.00  0.00    +0.000 OA
ATOM      7  C   UNL     1      10.498   6.665   0.000  0.00  0.00    +0.000 A 
ATOM      8  C   UNL     1      10.768   5.886   0.000  0.00  0.00    +0.000 A 
ATOM      9  O   UNL     1      11.578   5.730   0.000  0.00  0.00    +0.000 OA
ATOM     10  C   UNL     1      11.848   4.950   0.000  0.00  0.00    +0.000 C 
ATOM     11  C   UNL     1      10.228   5.262   0.000  0.00  0.00    +0.000 A 
ATOM     12  C   UNL     1       9.418   5.418   0.000  0.00  0.00    +0.000 A 
ATOM     13  C   UNL     1       9.148   6.197   0.000  0.00  0.00    +0.000 A 
ATOM     14  C   UNL     1       8.338   6.353   0.000  0.00  0.00    +0.000 C 
ATOM     15  C   UNL     1       7.797   5.730   0.000  0.00  0.00    +0.000 C 
ATOM     16  C   UNL     1       6.987   5.886   0.000  0.00  0.00    +0.000 C 
ATOM     17  C   UNL     1       6.447   5.262   0.000  0.00  0.00    +0.000 C 
ATOM     18  N   UNL     1       6.717   4.482   0.000  0.00  0.00    +0.000 NA
ATOM     19  C   UNL     1       5.637   5.418   0.000  0.00  0.00    +0.000 C 
ATOM     20  O   UNL     1       5.367   6.197   0.000  0.00  0.00    +0.000 OA
ATOM     21  C   UNL     1       5.097   4.794   0.000  0.00  0.00    +0.000 C 
ATOM     22  C   UNL     1       4.287   4.950   0.000  0.00  0.00    +0.000 C 
ATOM     23  C   UNL     1       4.017   5.730   0.000  0.00  0.00    +0.000 C 
ATOM     24  C   UNL     1       3.207   5.886   0.000  0.00  0.00    +0.000 C 
ATOM     25  C   UNL     1       4.557   6.353   0.000  0.00  0.00    +0.000 C 
ATOM     26  C   UNL     1       3.747   4.326   0.000  0.00  0.00    +0.000 C 
ATOM     27  O   UNL     1       2.937   4.482   0.000  0.00  0.00    +0.000 OA
ATOM     28  N   UNL     1       4.017   3.547   0.000  0.00  0.00    +0.000 NA
ATOM     29  C   UNL     1       4.827   3.391   0.000  0.00  0.00    +0.000 C 
ATOM     30  C   UNL     1       5.097   2.611   0.000  0.00  0.00    +0.000 C 
ATOM     31  C   UNL     1       4.317   2.341   0.000  0.00  0.00    +0.000 C 
ATOM     32  C   UNL     1       5.877   2.881   0.000  0.00  0.00    +0.000 C 
ATOM     33  C   UNL     1       5.367   1.832   0.000  0.00  0.00    +0.000 C 
ATOM     34  N   UNL     1       6.177   1.676   0.000  0.00  0.00    +0.000 NA
ATOM     35  O   UNL     1       4.827   1.208   0.000  0.00  0.00    +0.000 OA
ATOM     36  C   UNL     1       8.068   4.950   0.000  0.00  0.00    +0.000 C 
ATOM     37  C   UNL     1       8.878   4.794   0.000  0.00  0.00    +0.000 C 
ATOM     38  C   UNL     1       7.527   4.326   0.000  0.00  0.00    +0.000 C 
ATOM     39  C   UNL     1       9.688   6.821   0.000  0.00  0.00    +0.000 A 
ENDROOT
TORSDOF 0
