ROOT
REMARK  Name = almecillin
REMARK                            x       y       z     vdW  Elec       q    Type
REMARK                         _______ _______ _______ _____ _____    ______ ____
ATOM      1  C   UNL     1      -5.041   3.644   0.000  0.00  0.00    +0.000 C 
ATOM      2  C   UNL     1      -4.592   2.952   0.000  0.00  0.00    +0.000 C 
ATOM      3  C   UNL     1      -5.327   2.577   0.000  0.00  0.00    +0.000 C 
ATOM      4  S   UNL     1      -3.951   3.471   0.000  0.00  0.00    +0.000 S 
ATOM      5  C   UNL     1      -3.259   3.022   0.000  0.00  0.00    +0.000 C 
ATOM      6  CA  UNL     1      -2.462   2.808   0.000  0.00  0.00    +0.000 C 
ATOM      7  N   UNL     1      -1.748   3.220   0.000  0.00  0.00    +0.000 NA
ATOM      8  C   UNL     1      -1.033   2.808   0.000  0.00  0.00    +0.000 C 
ATOM      9  O   UNL     1      -1.033   1.983   0.000  0.00  0.00    +0.000 OA
ATOM     10  C   UNL     1      -0.319   3.220   0.000  0.00  0.00    +0.000 C 
ATOM     11  S   UNL     1       0.396   2.808   0.000  0.00  0.00    +0.000 S 
ATOM     12  C   UNL     1       1.110   3.220   0.000  0.00  0.00    +0.000 C 
ATOM     13  C   UNL     1       1.825   2.808   0.000  0.00  0.00    +0.000 C 
ATOM     14  C   UNL     1       2.539   3.220   0.000  0.00  0.00    +0.000 C 
ATOM     15  C   UNL     1      -2.676   2.011   0.000  0.00  0.00    +0.000 C 
ATOM     16  O   UNL     1      -2.263   1.297   0.000  0.00  0.00    +0.000 OA
ATOM     17  N   UNL     1      -3.473   2.225   0.000  0.00  0.00    +0.000 N 
ATOM     18  CA  UNL     1      -4.296   2.182   0.000  0.00  0.00    +0.000 C 
ATOM     19  C   UNL     1      -4.746   1.490   0.000  0.00  0.00    +0.000 C 
ATOM     20  O   UNL     1      -5.570   1.533   0.000  0.00  0.00    +0.000 OA
ATOM     21  OXT UNL     1      -4.371   0.754   0.000  0.00  0.00    +0.000 OA
ENDROOT
TORSDOF 0
