ROOT
REMARK  Name = amphomycin
REMARK                            x       y       z     vdW  Elec       q    Type
REMARK                         _______ _______ _______ _____ _____    ______ ____
ATOM      1  C   UNK A   1      40.366  -8.829   0.000  0.00  0.00    +0.000 C 
ATOM      2  C   UNK A   1      40.962  -8.259   0.000  0.00  0.00    +0.000 C 
ATOM      3  C   UNK A   1      40.605  -7.516   0.000  0.00  0.00    +0.000 C 
ATOM      4  C   UNK A   1      39.787  -7.626   0.000  0.00  0.00    +0.000 C 
ATOM      5  N   UNK A   1      39.639  -8.438   0.000  0.00  0.00    +0.000 N 
ATOM      6  C   UNK A   1      38.896  -8.795   0.000  0.00  0.00    +0.000 C 
ATOM      7  O   UNK A   1      38.834  -9.618   0.000  0.00  0.00    +0.000 OA
ATOM      8  C   UNK A   1      38.214  -8.330   0.000  0.00  0.00    +0.000 C 
ATOM      9  N   UNK A   1      37.471  -8.688   0.000  0.00  0.00    +0.000 NA
ATOM     10  C   UNK A   1      36.789  -8.223   0.000  0.00  0.00    +0.000 C 
ATOM     11  O   UNK A   1      36.852  -7.400   0.000  0.00  0.00    +0.000 OA
ATOM     12  C   UNK A   1      36.046  -8.581   0.000  0.00  0.00    +0.000 C 
ATOM     13  N   UNK A   1      35.365  -8.116   0.000  0.00  0.00    +0.000 NA
ATOM     14  C   UNK A   1      34.621  -8.473   0.000  0.00  0.00    +0.000 C 
ATOM     15  O   UNK A   1      34.559  -9.296   0.000  0.00  0.00    +0.000 OA
ATOM     16  C   UNK A   1      33.940  -8.008   0.000  0.00  0.00    +0.000 C 
ATOM     17  N   UNK A   1      33.196  -8.366   0.000  0.00  0.00    +0.000 NA
ATOM     18  C   UNK A   1      32.515  -7.901   0.000  0.00  0.00    +0.000 C 
ATOM     19  O   UNK A   1      32.577  -7.078   0.000  0.00  0.00    +0.000 OA
ATOM     20  C   UNK A   1      31.771  -8.259   0.000  0.00  0.00    +0.000 C 
ATOM     21  C   UNK A   1      31.709  -9.081   0.000  0.00  0.00    +0.000 C 
ATOM     22  C   UNK A   1      32.391  -9.546   0.000  0.00  0.00    +0.000 C 
ATOM     23  O   UNK A   1      32.329 -10.369   0.000  0.00  0.00    +0.000 OA
ATOM     24  O   UNK A   1      33.134  -9.189   0.000  0.00  0.00    +0.000 OA
ATOM     25  N   UNK A   1      31.090  -7.794   0.000  0.00  0.00    +0.000 NA
ATOM     26  C   UNK A   1      30.346  -8.151   0.000  0.00  0.00    +0.000 C 
ATOM     27  O   UNK A   1      30.285  -8.974   0.000  0.00  0.00    +0.000 OA
ATOM     28  C   UNK A   1      29.665  -7.686   0.000  0.00  0.00    +0.000 C 
ATOM     29  N   UNK A   1      28.922  -8.044   0.000  0.00  0.00    +0.000 NA
ATOM     30  C   UNK A   1      28.240  -7.579   0.000  0.00  0.00    +0.000 C 
ATOM     31  O   UNK A   1      28.302  -6.756   0.000  0.00  0.00    +0.000 OA
ATOM     32  C   UNK A   1      27.497  -7.937   0.000  0.00  0.00    +0.000 C 
ATOM     33  C   UNK A   1      27.435  -8.759   0.000  0.00  0.00    +0.000 C 
ATOM     34  C   UNK A   1      28.116  -9.225   0.000  0.00  0.00    +0.000 C 
ATOM     35  O   UNK A   1      28.054 -10.047   0.000  0.00  0.00    +0.000 OA
ATOM     36  O   UNK A   1      28.860  -8.867   0.000  0.00  0.00    +0.000 OA
ATOM     37  N   UNK A   1      26.815  -7.472   0.000  0.00  0.00    +0.000 NA
ATOM     38  C   UNK A   1      26.072  -7.830   0.000  0.00  0.00    +0.000 C 
ATOM     39  O   UNK A   1      26.010  -8.652   0.000  0.00  0.00    +0.000 OA
ATOM     40  C   UNK A   1      25.390  -7.364   0.000  0.00  0.00    +0.000 C 
ATOM     41  N   UNK A   1      24.647  -7.722   0.000  0.00  0.00    +0.000 NA
ATOM     42  C   UNK A   1      23.965  -7.257   0.000  0.00  0.00    +0.000 C 
ATOM     43  O   UNK A   1      24.027  -6.435   0.000  0.00  0.00    +0.000 OA
ATOM     44  C   UNK A   1      23.222  -7.615   0.000  0.00  0.00    +0.000 C 
ATOM     45  C   UNK A   1      23.160  -8.438   0.000  0.00  0.00    +0.000 C 
ATOM     46  C   UNK A   1      23.841  -8.903   0.000  0.00  0.00    +0.000 C 
ATOM     47  O   UNK A   1      23.779  -9.725   0.000  0.00  0.00    +0.000 OA
ATOM     48  O   UNK A   1      24.585  -8.545   0.000  0.00  0.00    +0.000 OA
ATOM     49  N   UNK A   1      22.540  -7.150   0.000  0.00  0.00    +0.000 NA
ATOM     50  C   UNK A   1      21.797  -7.508   0.000  0.00  0.00    +0.000 C 
ATOM     51  O   UNK A   1      21.735  -8.330   0.000  0.00  0.00    +0.000 OA
ATOM     52  C   UNK A   1      21.116  -7.043   0.000  0.00  0.00    +0.000 C 
ATOM     53  C   UNK A   1      20.372  -7.400   0.000  0.00  0.00    +0.000 C 
ATOM     54  C   UNK A   1      19.691  -6.935   0.000  0.00  0.00    +0.000 C 
ATOM     55  C   UNK A   1      18.947  -7.293   0.000  0.00  0.00    +0.000 C 
ATOM     56  C   UNK A   1      18.885  -8.116   0.000  0.00  0.00    +0.000 C 
ATOM     57  C   UNK A   1      18.142  -8.473   0.000  0.00  0.00    +0.000 C 
ATOM     58  C   UNK A   1      18.080  -9.296   0.000  0.00  0.00    +0.000 C 
ATOM     59  C   UNK A   1      17.336  -9.654   0.000  0.00  0.00    +0.000 C 
ATOM     60  C   UNK A   1      17.274 -10.476   0.000  0.00  0.00    +0.000 C 
ATOM     61  C   UNK A   1      17.956 -10.941   0.000  0.00  0.00    +0.000 C 
ATOM     62  C   UNK A   1      16.531 -10.834   0.000  0.00  0.00    +0.000 C 
ATOM     63  C   UNK A   1      16.469 -11.657   0.000  0.00  0.00    +0.000 C 
ATOM     64  C   UNK A   1      25.452  -6.542   0.000  0.00  0.00    +0.000 C 
ATOM     65  C   UNK A   1      24.771  -6.077   0.000  0.00  0.00    +0.000 C 
ATOM     66  C   UNK A   1      26.196  -6.184   0.000  0.00  0.00    +0.000 C 
ATOM     67  O   UNK A   1      26.877  -6.649   0.000  0.00  0.00    +0.000 OA
ATOM     68  O   UNK A   1      26.258  -5.362   0.000  0.00  0.00    +0.000 OA
ATOM     69  C   UNK A   1      35.984  -9.403   0.000  0.00  0.00    +0.000 C 
ATOM     70  C   UNK A   1      35.241  -9.761   0.000  0.00  0.00    +0.000 C 
ATOM     71  N   UNK A   1      36.666  -9.868   0.000  0.00  0.00    +0.000 NA
ATOM     72  C   UNK A   1      38.276  -7.508   0.000  0.00  0.00    +0.000 C 
ATOM     73  C   UNK A   1      39.020  -7.150   0.000  0.00  0.00    +0.000 C 
ATOM     74  C   UNK A   1      37.595  -7.043   0.000  0.00  0.00    +0.000 C 
ATOM     75  C   UNK A   1      40.476  -9.646   0.000  0.00  0.00    +0.000 C 
ATOM     76  O   UNK A   1      39.823 -10.151   0.000  0.00  0.00    +0.000 OA
ATOM     77  N   UNK A   1      41.239  -9.960   0.000  0.00  0.00    +0.000 NA
ATOM     78  C   UNK A   1      41.350 -10.777   0.000  0.00  0.00    +0.000 C 
ATOM     79  C   UNK A   1      40.697 -11.281   0.000  0.00  0.00    +0.000 C 
ATOM     80  C   UNK A   1      42.113 -11.090   0.000  0.00  0.00    +0.000 C 
ATOM     81  N   UNK A   1      42.766 -10.586   0.000  0.00  0.00    +0.000 NA
ATOM     82  C   LYS A   2      43.529 -10.899   0.000  0.00  0.00    +0.000 C 
ATOM     83  O   LYS A   2      44.182 -10.395   0.000  0.00  0.00    +0.000 OA
ATOM     84  CA  LYS A   2      43.640 -11.716   0.000  0.00  0.00    +0.000 C 
ATOM     85  CB  LYS A   2      44.403 -12.030   0.000  0.00  0.00    +0.000 C 
ATOM     86  CG  LYS A   2      44.513 -12.847   0.000  0.00  0.00    +0.000 C 
ATOM     87  CD  LYS A   2      43.861 -13.352   0.000  0.00  0.00    +0.000 C 
ATOM     88  CE  LYS A   2      43.097 -13.039   0.000  0.00  0.00    +0.000 C 
ATOM     89  N   LYS A   2      42.987 -12.221   0.000  0.00  0.00    +0.000 N 
ATOM     90  C   UNK A   1      42.224 -11.908   0.000  0.00  0.00    +0.000 C 
ATOM     91  O   UNK A   1      41.571 -12.412   0.000  0.00  0.00    +0.000 OA
ENDROOT
TORSDOF 0
