ROOT
REMARK  Name = androisoxazole
REMARK                            x       y       z     vdW  Elec       q    Type
REMARK                         _______ _______ _______ _____ _____    ______ ____
ATOM      1  C   UNL     1       2.324  -2.743   0.000  0.00  0.00    +0.000 C 
ATOM      2  C   UNL     1       3.120  -2.526   0.000  0.00  0.00    +0.000 C 
ATOM      3  O   UNL     1       3.252  -3.340   0.000  0.00  0.00    +0.000 OA
ATOM      4  C   UNL     1       2.820  -1.757   0.000  0.00  0.00    +0.000 C 
ATOM      5  C   UNL     1       3.459  -1.235   0.000  0.00  0.00    +0.000 C 
ATOM      6  C   UNL     1       4.153  -1.681   0.000  0.00  0.00    +0.000 C 
ATOM      7  C   UNL     1       4.949  -1.464   0.000  0.00  0.00    +0.000 C 
ATOM      8  C   UNL     1       5.159  -0.666   0.000  0.00  0.00    +0.000 C 
ATOM      9  C   UNL     1       5.954  -0.448   0.000  0.00  0.00    +0.000 C 
ATOM     10  C   UNL     1       6.541  -1.029   0.000  0.00  0.00    +0.000 C 
ATOM     11  C   UNL     1       7.336  -0.812   0.000  0.00  0.00    +0.000 C 
ATOM     12  C   UNL     1       7.923  -1.392   0.000  0.00  0.00    +0.000 A 
ATOM     13  N   UNL     1       8.746  -1.345   0.000  0.00  0.00    +0.000 NA
ATOM     14  O   UNL     1       9.046  -2.114   0.000  0.00  0.00    +0.000 OA
ATOM     15  C   UNL     1       8.407  -2.636   0.000  0.00  0.00    +0.000 A 
ATOM     16  C   UNL     1       7.713  -2.190   0.000  0.00  0.00    +0.000 A 
ATOM     17  C   UNL     1       6.917  -2.407   0.000  0.00  0.00    +0.000 C 
ATOM     18  C   UNL     1       6.331  -1.827   0.000  0.00  0.00    +0.000 C 
ATOM     19  C   UNL     1       6.121  -2.625   0.000  0.00  0.00    +0.000 C 
ATOM     20  C   UNL     1       5.535  -2.044   0.000  0.00  0.00    +0.000 C 
ATOM     21  C   UNL     1       5.325  -2.842   0.000  0.00  0.00    +0.000 C 
ATOM     22  C   UNL     1       4.529  -3.059   0.000  0.00  0.00    +0.000 C 
ATOM     23  C   UNL     1       3.943  -2.479   0.000  0.00  0.00    +0.000 C 
ATOM     24  C   UNL     1       3.651  -3.250   0.000  0.00  0.00    +0.000 C 
ENDROOT
TORSDOF 0
