ROOT
REMARK  Name = arotinolol
REMARK                            x       y       z     vdW  Elec       q    Type
REMARK                         _______ _______ _______ _____ _____    ______ ____
ATOM      1  C   UNL     1      -1.601   3.120   0.000  0.00  0.00    +0.000 C 
ATOM      2  C   UNL     1      -0.887   2.707   0.000  0.00  0.00    +0.000 C 
ATOM      3  C   UNL     1      -1.300   1.993   0.000  0.00  0.00    +0.000 C 
ATOM      4  C   UNL     1      -0.474   3.422   0.000  0.00  0.00    +0.000 C 
ATOM      5  N   UNL     1      -0.172   2.295   0.000  0.00  0.00    +0.000 NA
ATOM      6  C   UNL     1      -0.172   1.470   0.000  0.00  0.00    +0.000 C 
ATOM      7  C   UNL     1       0.542   1.057   0.000  0.00  0.00    +0.000 C 
ATOM      8  O   UNL     1       1.256   1.470   0.000  0.00  0.00    +0.000 OA
ATOM      9  C   UNL     1       0.542   0.232   0.000  0.00  0.00    +0.000 C 
ATOM     10  S   UNL     1       1.256  -0.180   0.000  0.00  0.00    +0.000 S 
ATOM     11  C   UNL     1       1.256  -1.005   0.000  0.00  0.00    +0.000 A 
ATOM     12  N   UNL     1       1.924  -1.490   0.000  0.00  0.00    +0.000 NA
ATOM     13  C   UNL     1       1.669  -2.275   0.000  0.00  0.00    +0.000 A 
ATOM     14  C   UNL     1       0.844  -2.275   0.000  0.00  0.00    +0.000 A 
ATOM     15  S   UNL     1       0.589  -1.490   0.000  0.00  0.00    +0.000 S 
ATOM     16  C   UNL     1       2.154  -2.942   0.000  0.00  0.00    +0.000 A 
ATOM     17  C   UNL     1       2.979  -2.942   0.000  0.00  0.00    +0.000 A 
ATOM     18  C   UNL     1       3.234  -3.727   0.000  0.00  0.00    +0.000 A 
ATOM     19  C   UNL     1       2.566  -4.212   0.000  0.00  0.00    +0.000 A 
ATOM     20  S   UNL     1       1.899  -3.727   0.000  0.00  0.00    +0.000 S 
ATOM     21  C   UNL     1       2.566  -5.037   0.000  0.00  0.00    +0.000 C 
ATOM     22  N   UNL     1       3.281  -5.449   0.000  0.00  0.00    +0.000 NA
ATOM     23  O   UNL     1       1.852  -5.449   0.000  0.00  0.00    +0.000 OA
ENDROOT
TORSDOF 0
