ROOT
REMARK  Name = astemizole
REMARK                            x       y       z     vdW  Elec       q    Type
REMARK                         _______ _______ _______ _____ _____    ______ ____
ATOM      1  C   UNL     1      -3.928  -7.843   0.000  0.00  0.00    +0.000 C 
ATOM      2  O   UNL     1      -4.341  -7.128   0.000  0.00  0.00    +0.000 OA
ATOM      3  C   UNL     1      -3.928  -6.414   0.000  0.00  0.00    +0.000 A 
ATOM      4  C   UNL     1      -4.341  -5.699   0.000  0.00  0.00    +0.000 A 
ATOM      5  C   UNL     1      -3.928  -4.985   0.000  0.00  0.00    +0.000 A 
ATOM      6  C   UNL     1      -3.103  -4.985   0.000  0.00  0.00    +0.000 A 
ATOM      7  C   UNL     1      -2.691  -4.270   0.000  0.00  0.00    +0.000 C 
ATOM      8  C   UNL     1      -3.103  -3.556   0.000  0.00  0.00    +0.000 C 
ATOM      9  N   UNL     1      -2.691  -2.841   0.000  0.00  0.00    +0.000 NA
ATOM     10  C   UNL     1      -3.103  -2.127   0.000  0.00  0.00    +0.000 C 
ATOM     11  C   UNL     1      -2.691  -1.412   0.000  0.00  0.00    +0.000 C 
ATOM     12  C   UNL     1      -1.866  -1.412   0.000  0.00  0.00    +0.000 C 
ATOM     13  C   UNL     1      -1.453  -2.127   0.000  0.00  0.00    +0.000 C 
ATOM     14  C   UNL     1      -1.866  -2.841   0.000  0.00  0.00    +0.000 C 
ATOM     15  N   UNL     1      -1.453  -0.698   0.000  0.00  0.00    +0.000 NA
ATOM     16  C   UNL     1      -0.628  -0.698   0.000  0.00  0.00    +0.000 A 
ATOM     17  N   UNL     1      -0.143  -1.365   0.000  0.00  0.00    +0.000 NA
ATOM     18  C   UNL     1       0.641  -1.110   0.000  0.00  0.00    +0.000 A 
ATOM     19  C   UNL     1       0.641  -0.285   0.000  0.00  0.00    +0.000 A 
ATOM     20  C   UNL     1       1.356   0.127   0.000  0.00  0.00    +0.000 A 
ATOM     21  C   UNL     1       2.070  -0.285   0.000  0.00  0.00    +0.000 A 
ATOM     22  C   UNL     1       2.070  -1.110   0.000  0.00  0.00    +0.000 A 
ATOM     23  C   UNL     1       1.356  -1.523   0.000  0.00  0.00    +0.000 A 
ATOM     24  N   UNL     1      -0.143  -0.030   0.000  0.00  0.00    +0.000 N 
ATOM     25  C   UNL     1      -0.398   0.754   0.000  0.00  0.00    +0.000 C 
ATOM     26  C   UNL     1       0.154   1.367   0.000  0.00  0.00    +0.000 A 
ATOM     27  C   UNL     1      -0.101   2.152   0.000  0.00  0.00    +0.000 A 
ATOM     28  C   UNL     1       0.451   2.765   0.000  0.00  0.00    +0.000 A 
ATOM     29  C   UNL     1       1.258   2.593   0.000  0.00  0.00    +0.000 A 
ATOM     30  F   UNL     1       1.810   3.207   0.000  0.00  0.00    +0.000 F 
ATOM     31  C   UNL     1       1.513   1.809   0.000  0.00  0.00    +0.000 A 
ATOM     32  C   UNL     1       0.961   1.196   0.000  0.00  0.00    +0.000 A 
ATOM     33  C   UNL     1      -2.691  -5.699   0.000  0.00  0.00    +0.000 A 
ATOM     34  C   UNL     1      -3.103  -6.414   0.000  0.00  0.00    +0.000 A 
ENDROOT
TORSDOF 0
