ROOT
REMARK  Name = asulacrine
REMARK                            x       y       z     vdW  Elec       q    Type
REMARK                         _______ _______ _______ _____ _____    ______ ____
ATOM      1  C   UNL     1       1.429  -4.950   0.000  0.00  0.00    +0.000 C 
ATOM      2  N   UNL     1       1.429  -4.125   0.000  0.00  0.00    +0.000 NA
ATOM      3  C   UNL     1       2.143  -3.712   0.000  0.00  0.00    +0.000 C 
ATOM      4  O   UNL     1       2.858  -4.125   0.000  0.00  0.00    +0.000 OA
ATOM      5  C   UNL     1       2.143  -2.888   0.000  0.00  0.00    +0.000 A 
ATOM      6  C   UNL     1       1.429  -2.475   0.000  0.00  0.00    +0.000 A 
ATOM      7  C   UNL     1       1.429  -1.650   0.000  0.00  0.00    +0.000 A 
ATOM      8  C   UNL     1       2.143  -1.238   0.000  0.00  0.00    +0.000 A 
ATOM      9  C   UNL     1       2.858  -1.650   0.000  0.00  0.00    +0.000 A 
ATOM     10  C   UNL     1       3.572  -1.238   0.000  0.00  0.00    +0.000 A 
ATOM     11  N   UNL     1       3.572  -0.412   0.000  0.00  0.00    +0.000 NA
ATOM     12  C   UNL     1       4.287   0.000   0.000  0.00  0.00    +0.000 A 
ATOM     13  C   UNL     1       4.287   0.825   0.000  0.00  0.00    +0.000 A 
ATOM     14  O   UNL     1       3.572   1.238   0.000  0.00  0.00    +0.000 OA
ATOM     15  C   UNL     1       3.572   2.062   0.000  0.00  0.00    +0.000 C 
ATOM     16  C   UNL     1       5.001   1.238   0.000  0.00  0.00    +0.000 A 
ATOM     17  C   UNL     1       5.716   0.825   0.000  0.00  0.00    +0.000 A 
ATOM     18  N   UNL     1       6.430   1.238   0.000  0.00  0.00    +0.000 NA
ATOM     19  S   UNL     1       6.430   2.062   0.000  0.00  0.00    +0.000 S 
ATOM     20  C   UNL     1       6.430   2.888   0.000  0.00  0.00    +0.000 C 
ATOM     21  O   UNL     1       7.255   2.062   0.000  0.00  0.00    +0.000 OA
ATOM     22  O   UNL     1       5.605   2.062   0.000  0.00  0.00    +0.000 OA
ATOM     23  C   UNL     1       5.716   0.000   0.000  0.00  0.00    +0.000 A 
ATOM     24  C   UNL     1       5.001  -0.412   0.000  0.00  0.00    +0.000 A 
ATOM     25  C   UNL     1       4.287  -1.650   0.000  0.00  0.00    +0.000 A 
ATOM     26  C   UNL     1       5.001  -1.238   0.000  0.00  0.00    +0.000 A 
ATOM     27  C   UNL     1       5.716  -1.650   0.000  0.00  0.00    +0.000 A 
ATOM     28  C   UNL     1       5.716  -2.475   0.000  0.00  0.00    +0.000 A 
ATOM     29  C   UNL     1       5.001  -2.888   0.000  0.00  0.00    +0.000 A 
ATOM     30  C   UNL     1       5.001  -3.712   0.000  0.00  0.00    +0.000 C 
ATOM     31  C   UNL     1       4.287  -2.475   0.000  0.00  0.00    +0.000 A 
ATOM     32  N   UNL     1       3.572  -2.888   0.000  0.00  0.00    +0.000 NA
ATOM     33  C   UNL     1       2.858  -2.475   0.000  0.00  0.00    +0.000 A 
ENDROOT
TORSDOF 0
