ROOT
REMARK  Name = ataluren
REMARK                            x       y       z     vdW  Elec       q    Type
REMARK                         _______ _______ _______ _____ _____    ______ ____
ATOM      1  O   UNL     1      -0.715   2.062   0.000  0.00  0.00    +0.000 OA
ATOM      2  C   UNL     1      -0.715   1.238   0.000  0.00  0.00    +0.000 C 
ATOM      3  O   UNL     1      -1.429   0.825   0.000  0.00  0.00    +0.000 OA
ATOM      4  C   UNL     1       0.000   0.825   0.000  0.00  0.00    +0.000 A 
ATOM      5  C   UNL     1       0.715   1.238   0.000  0.00  0.00    +0.000 A 
ATOM      6  C   UNL     1       1.429   0.825   0.000  0.00  0.00    +0.000 A 
ATOM      7  C   UNL     1       1.429   0.000   0.000  0.00  0.00    +0.000 A 
ATOM      8  C   UNL     1       0.715  -0.412   0.000  0.00  0.00    +0.000 A 
ATOM      9  C   UNL     1       0.000   0.000   0.000  0.00  0.00    +0.000 A 
ATOM     10  C   UNL     1       0.715  -1.238   0.000  0.00  0.00    +0.000 A 
ATOM     11  N   UNL     1       1.382  -1.722   0.000  0.00  0.00    +0.000 NA
ATOM     12  O   UNL     1       1.127  -2.507   0.000  0.00  0.00    +0.000 OA
ATOM     13  C   UNL     1       0.302  -2.507   0.000  0.00  0.00    +0.000 A 
ATOM     14  N   UNL     1       0.047  -1.722   0.000  0.00  0.00    +0.000 NA
ATOM     15  C   UNL     1      -0.183  -3.175   0.000  0.00  0.00    +0.000 A 
ATOM     16  C   UNL     1       0.153  -3.928   0.000  0.00  0.00    +0.000 A 
ATOM     17  F   UNL     1       0.973  -4.014   0.000  0.00  0.00    +0.000 F 
ATOM     18  C   UNL     1      -0.332  -4.596   0.000  0.00  0.00    +0.000 A 
ATOM     19  C   UNL     1      -1.153  -4.509   0.000  0.00  0.00    +0.000 A 
ATOM     20  C   UNL     1      -1.488  -3.756   0.000  0.00  0.00    +0.000 A 
ATOM     21  C   UNL     1      -1.003  -3.088   0.000  0.00  0.00    +0.000 A 
ENDROOT
TORSDOF 0
