ROOT
REMARK  Name = azapropazone
REMARK                            x       y       z     vdW  Elec       q    Type
REMARK                         _______ _______ _______ _____ _____    ______ ____
ATOM      1  C   UNL     1       5.790  -0.436   0.000  0.00  0.00    +0.000 C 
ATOM      2  C   UNL     1       5.088  -0.002   0.000  0.00  0.00    +0.000 C 
ATOM      3  C   UNL     1       4.361  -0.392   0.000  0.00  0.00    +0.000 C 
ATOM      4  C   UNL     1       3.660   0.043   0.000  0.00  0.00    +0.000 C 
ATOM      5  C   UNL     1       3.599   0.866   0.000  0.00  0.00    +0.000 C 
ATOM      6  O   UNL     1       4.229   1.398   0.000  0.00  0.00    +0.000 OA
ATOM      7  N   UNL     1       2.798   1.062   0.000  0.00  0.00    +0.000 N 
ATOM      8  N   UNL     1       2.364   0.361   0.000  0.00  0.00    +0.000 N 
ATOM      9  C   UNL     1       2.896  -0.269   0.000  0.00  0.00    +0.000 C 
ATOM     10  O   UNL     1       2.700  -1.070   0.000  0.00  0.00    +0.000 OA
ATOM     11  C   UNL     1       1.539   0.387   0.000  0.00  0.00    +0.000 A 
ATOM     12  C   UNL     1       1.105  -0.315   0.000  0.00  0.00    +0.000 A 
ATOM     13  C   UNL     1       0.280  -0.289   0.000  0.00  0.00    +0.000 A 
ATOM     14  C   UNL     1      -0.155  -0.990   0.000  0.00  0.00    +0.000 C 
ATOM     15  C   UNL     1      -0.110   0.438   0.000  0.00  0.00    +0.000 A 
ATOM     16  C   UNL     1       0.325   1.139   0.000  0.00  0.00    +0.000 A 
ATOM     17  C   UNL     1       1.149   1.114   0.000  0.00  0.00    +0.000 A 
ATOM     18  N   UNL     1       1.584   1.815   0.000  0.00  0.00    +0.000 NA
ATOM     19  C   UNL     1       2.408   1.789   0.000  0.00  0.00    +0.000 C 
ATOM     20  N   UNL     1       2.843   2.490   0.000  0.00  0.00    +0.000 N 
ATOM     21  C   UNL     1       3.667   2.465   0.000  0.00  0.00    +0.000 C 
ATOM     22  C   UNL     1       2.453   3.217   0.000  0.00  0.00    +0.000 C 
ENDROOT
TORSDOF 0
