ROOT
REMARK  Name = azathioprine
REMARK                            x       y       z     vdW  Elec       q    Type
REMARK                         _______ _______ _______ _____ _____    ______ ____
ATOM      1  C   UNL     1       4.919   1.333   0.000  0.00  0.00    +0.000 C 
ATOM      2  N   UNL     1       4.747   2.139   0.000  0.00  0.00    +0.000 N 
ATOM      3  C   UNL     1       5.299   2.752   0.000  0.00  0.00    +0.000 A 
ATOM      4  N   UNL     1       4.887   3.467   0.000  0.00  0.00    +0.000 NA
ATOM      5  C   UNL     1       4.080   3.296   0.000  0.00  0.00    +0.000 A 
ATOM      6  C   UNL     1       3.993   2.475   0.000  0.00  0.00    +0.000 A 
ATOM      7  S   UNL     1       3.279   2.062   0.000  0.00  0.00    +0.000 S 
ATOM      8  C   UNL     1       3.279   1.238   0.000  0.00  0.00    +0.000 A 
ATOM      9  N   UNL     1       3.993   0.825   0.000  0.00  0.00    +0.000 NA
ATOM     10  C   UNL     1       3.993   0.000   0.000  0.00  0.00    +0.000 A 
ATOM     11  N   UNL     1       3.279  -0.412   0.000  0.00  0.00    +0.000 NA
ATOM     12  C   UNL     1       2.564   0.000   0.000  0.00  0.00    +0.000 A 
ATOM     13  C   UNL     1       2.564   0.825   0.000  0.00  0.00    +0.000 A 
ATOM     14  N   UNL     1       1.780   1.080   0.000  0.00  0.00    +0.000 NA
ATOM     15  C   UNL     1       1.295   0.412   0.000  0.00  0.00    +0.000 A 
ATOM     16  N   UNL     1       1.780  -0.255   0.000  0.00  0.00    +0.000 NA
ATOM     17  N   UNL     1       3.466   3.848   0.000  0.00  0.00    +0.000 N 
ATOM     18  O   UNL     1       3.638   4.654   0.000  0.00  0.00    +0.000 OA
ATOM     19  O   UNL     1       2.682   3.593   0.000  0.00  0.00    +0.000 OA
ENDROOT
TORSDOF 0
