ROOT
REMARK  Name = azilsartan medoxomil
REMARK                            x       y       z     vdW  Elec       q    Type
REMARK                         _______ _______ _______ _____ _____    ______ ____
ATOM      1  C   UNL     1      -0.171   0.731   0.000  0.00  0.00    +0.000 C 
ATOM      2  C   UNL     1      -0.584   0.017   0.000  0.00  0.00    +0.000 C 
ATOM      3  O   UNL     1      -0.171  -0.698   0.000  0.00  0.00    +0.000 OA
ATOM      4  C   UNL     1       0.654  -0.698   0.000  0.00  0.00    +0.000 A 
ATOM      5  N   UNL     1       1.139  -0.030   0.000  0.00  0.00    +0.000 NA
ATOM      6  C   UNL     1       1.923  -0.285   0.000  0.00  0.00    +0.000 A 
ATOM      7  C   UNL     1       2.638   0.127   0.000  0.00  0.00    +0.000 A 
ATOM      8  C   UNL     1       3.352  -0.285   0.000  0.00  0.00    +0.000 A 
ATOM      9  C   UNL     1       3.352  -1.110   0.000  0.00  0.00    +0.000 A 
ATOM     10  C   UNL     1       2.638  -1.523   0.000  0.00  0.00    +0.000 A 
ATOM     11  C   UNL     1       2.638  -2.348   0.000  0.00  0.00    +0.000 C 
ATOM     12  O   UNL     1       1.923  -2.760   0.000  0.00  0.00    +0.000 OA
ATOM     13  O   UNL     1       3.352  -2.760   0.000  0.00  0.00    +0.000 OA
ATOM     14  C   UNL     1       3.352  -3.585   0.000  0.00  0.00    +0.000 C 
ATOM     15  C   UNL     1       4.067  -3.998   0.000  0.00  0.00    +0.000 A 
ATOM     16  C   UNL     1       4.820  -3.662   0.000  0.00  0.00    +0.000 A 
ATOM     17  C   UNL     1       4.992  -2.855   0.000  0.00  0.00    +0.000 C 
ATOM     18  O   UNL     1       5.372  -4.276   0.000  0.00  0.00    +0.000 OA
ATOM     19  C   UNL     1       4.960  -4.990   0.000  0.00  0.00    +0.000 A 
ATOM     20  O   UNL     1       5.295  -5.744   0.000  0.00  0.00    +0.000 OA
ATOM     21  O   UNL     1       4.153  -4.818   0.000  0.00  0.00    +0.000 OA
ATOM     22  C   UNL     1       1.923  -1.110   0.000  0.00  0.00    +0.000 A 
ATOM     23  N   UNL     1       1.139  -1.365   0.000  0.00  0.00    +0.000 N 
ATOM     24  C   UNL     1       0.884  -2.150   0.000  0.00  0.00    +0.000 C 
ATOM     25  C   UNL     1       0.077  -2.321   0.000  0.00  0.00    +0.000 A 
ATOM     26  C   UNL     1      -0.178  -3.106   0.000  0.00  0.00    +0.000 A 
ATOM     27  C   UNL     1      -0.985  -3.278   0.000  0.00  0.00    +0.000 A 
ATOM     28  C   UNL     1      -1.537  -2.665   0.000  0.00  0.00    +0.000 A 
ATOM     29  C   UNL     1      -1.282  -1.880   0.000  0.00  0.00    +0.000 A 
ATOM     30  C   UNL     1      -0.475  -1.708   0.000  0.00  0.00    +0.000 A 
ATOM     31  C   UNL     1      -2.344  -2.836   0.000  0.00  0.00    +0.000 A 
ATOM     32  C   UNL     1      -2.599  -3.621   0.000  0.00  0.00    +0.000 A 
ATOM     33  C   UNL     1      -3.406  -3.792   0.000  0.00  0.00    +0.000 A 
ATOM     34  C   UNL     1      -3.958  -3.179   0.000  0.00  0.00    +0.000 A 
ATOM     35  C   UNL     1      -3.703  -2.394   0.000  0.00  0.00    +0.000 A 
ATOM     36  C   UNL     1      -2.896  -2.223   0.000  0.00  0.00    +0.000 A 
ATOM     37  C   UNL     1      -2.047  -4.234   0.000  0.00  0.00    +0.000 A 
ATOM     38  N   UNL     1      -1.226  -4.148   0.000  0.00  0.00    +0.000 NA
ATOM     39  O   UNL     1      -0.891  -4.901   0.000  0.00  0.00    +0.000 OA
ATOM     40  C   UNL     1      -1.504  -5.453   0.000  0.00  0.00    +0.000 A 
ATOM     41  O   UNL     1      -1.418  -6.274   0.000  0.00  0.00    +0.000 OA
ATOM     42  N   UNL     1      -2.219  -5.041   0.000  0.00  0.00    +0.000 NA
ENDROOT
TORSDOF 0
