ROOT
REMARK  Name = bedaquiline
REMARK                            x       y       z     vdW  Elec       q    Type
REMARK                         _______ _______ _______ _____ _____    ______ ____
ATOM      1  C   UNL     1       0.412   1.540   0.000  0.00  0.00    +0.000 C 
ATOM      2  O   UNL     1       0.000   2.254   0.000  0.00  0.00    +0.000 OA
ATOM      3  C   UNL     1      -0.825   2.254   0.000  0.00  0.00    +0.000 A 
ATOM      4  N   UNL     1      -1.238   2.968   0.000  0.00  0.00    +0.000 NA
ATOM      5  C   UNL     1      -2.062   2.968   0.000  0.00  0.00    +0.000 A 
ATOM      6  C   UNL     1      -2.475   2.254   0.000  0.00  0.00    +0.000 A 
ATOM      7  C   UNL     1      -3.300   2.254   0.000  0.00  0.00    +0.000 A 
ATOM      8  C   UNL     1      -3.712   2.968   0.000  0.00  0.00    +0.000 A 
ATOM      9 BR   UNL     1      -4.537   2.968   0.000  0.00  0.00    +0.000 Br
ATOM     10  C   UNL     1      -3.300   3.683   0.000  0.00  0.00    +0.000 A 
ATOM     11  C   UNL     1      -2.475   3.683   0.000  0.00  0.00    +0.000 A 
ATOM     12  C   UNL     1      -2.062   1.540   0.000  0.00  0.00    +0.000 A 
ATOM     13  C   UNL     1      -1.238   1.540   0.000  0.00  0.00    +0.000 A 
ATOM     14  C   UNL     1      -0.825   0.825   0.000  0.00  0.00    +0.000 C 
ATOM     15  C   UNL     1      -1.438   0.273   0.000  0.00  0.00    +0.000 A 
ATOM     16  C   UNL     1      -1.267  -0.534   0.000  0.00  0.00    +0.000 A 
ATOM     17  C   UNL     1      -1.880  -1.086   0.000  0.00  0.00    +0.000 A 
ATOM     18  C   UNL     1      -2.664  -0.831   0.000  0.00  0.00    +0.000 A 
ATOM     19  C   UNL     1      -2.836  -0.024   0.000  0.00  0.00    +0.000 A 
ATOM     20  C   UNL     1      -2.223   0.528   0.000  0.00  0.00    +0.000 A 
ATOM     21  C   UNL     1       0.000   0.825   0.000  0.00  0.00    +0.000 C 
ATOM     22  O   UNL     1       0.825   0.825   0.000  0.00  0.00    +0.000 OA
ATOM     23  C   UNL     1       0.000   1.650   0.000  0.00  0.00    +0.000 C 
ATOM     24  C   UNL     1       0.715   2.062   0.000  0.00  0.00    +0.000 C 
ATOM     25  N   UNL     1       0.715   2.888   0.000  0.00  0.00    +0.000 NA
ATOM     26  C   UNL     1       1.429   3.300   0.000  0.00  0.00    +0.000 C 
ATOM     27  C   UNL     1       0.000   3.300   0.000  0.00  0.00    +0.000 C 
ATOM     28  C   UNL     1       0.000   0.000   0.000  0.00  0.00    +0.000 A 
ATOM     29  C   UNL     1      -0.715  -0.412   0.000  0.00  0.00    +0.000 A 
ATOM     30  C   UNL     1      -0.715  -1.238   0.000  0.00  0.00    +0.000 A 
ATOM     31  C   UNL     1       0.000  -1.650   0.000  0.00  0.00    +0.000 A 
ATOM     32  C   UNL     1       0.715  -1.238   0.000  0.00  0.00    +0.000 A 
ATOM     33  C   UNL     1       0.715  -0.412   0.000  0.00  0.00    +0.000 A 
ATOM     34  C   UNL     1       1.429   0.000   0.000  0.00  0.00    +0.000 A 
ATOM     35  C   UNL     1       2.143  -0.412   0.000  0.00  0.00    +0.000 A 
ATOM     36  C   UNL     1       2.143  -1.238   0.000  0.00  0.00    +0.000 A 
ATOM     37  C   UNL     1       1.429  -1.650   0.000  0.00  0.00    +0.000 A 
ENDROOT
TORSDOF 0
