ROOT
REMARK  Name = befunolol
REMARK                            x       y       z     vdW  Elec       q    Type
REMARK                         _______ _______ _______ _____ _____    ______ ____
ATOM      1  C   UNL     1      -2.143  -3.712   0.000  0.00  0.00    +0.000 C 
ATOM      2  C   UNL     1      -1.429  -3.300   0.000  0.00  0.00    +0.000 C 
ATOM      3  C   UNL     1      -1.429  -2.475   0.000  0.00  0.00    +0.000 C 
ATOM      4  N   UNL     1      -0.715  -3.712   0.000  0.00  0.00    +0.000 NA
ATOM      5  C   UNL     1       0.000  -3.300   0.000  0.00  0.00    +0.000 C 
ATOM      6  C   UNL     1       0.715  -3.712   0.000  0.00  0.00    +0.000 C 
ATOM      7  O   UNL     1       0.715  -4.537   0.000  0.00  0.00    +0.000 OA
ATOM      8  C   UNL     1       1.429  -3.300   0.000  0.00  0.00    +0.000 C 
ATOM      9  O   UNL     1       2.143  -3.712   0.000  0.00  0.00    +0.000 OA
ATOM     10  C   UNL     1       2.858  -3.300   0.000  0.00  0.00    +0.000 A 
ATOM     11  C   UNL     1       2.858  -2.475   0.000  0.00  0.00    +0.000 A 
ATOM     12  C   UNL     1       3.572  -2.062   0.000  0.00  0.00    +0.000 A 
ATOM     13  C   UNL     1       4.287  -2.475   0.000  0.00  0.00    +0.000 A 
ATOM     14  C   UNL     1       4.287  -3.300   0.000  0.00  0.00    +0.000 A 
ATOM     15  C   UNL     1       3.572  -3.712   0.000  0.00  0.00    +0.000 A 
ATOM     16  O   UNL     1       3.744  -4.519   0.000  0.00  0.00    +0.000 OA
ATOM     17  C   UNL     1       4.564  -4.606   0.000  0.00  0.00    +0.000 A 
ATOM     18  C   UNL     1       4.900  -3.852   0.000  0.00  0.00    +0.000 A 
ATOM     19  C   UNL     1       4.977  -5.320   0.000  0.00  0.00    +0.000 C 
ATOM     20  C   UNL     1       5.802  -5.320   0.000  0.00  0.00    +0.000 C 
ATOM     21  O   UNL     1       4.564  -6.035   0.000  0.00  0.00    +0.000 OA
ENDROOT
TORSDOF 0
