ROOT
REMARK  Name = bemetizide
REMARK                            x       y       z     vdW  Elec       q    Type
REMARK                         _______ _______ _______ _____ _____    ______ ____
ATOM      1  C   UNL     1      -1.429  -2.475   0.000  0.00  0.00    +0.000 C 
ATOM      2  C   UNL     1      -1.429  -1.650   0.000  0.00  0.00    +0.000 C 
ATOM      3  C   UNL     1      -0.715  -1.238   0.000  0.00  0.00    +0.000 C 
ATOM      4  N   UNL     1       0.000  -1.650   0.000  0.00  0.00    +0.000 NA
ATOM      5  C   UNL     1       0.715  -1.238   0.000  0.00  0.00    +0.000 A 
ATOM      6  C   UNL     1       0.715  -0.412   0.000  0.00  0.00    +0.000 A 
ATOM      7  C   UNL     1       1.429   0.000   0.000  0.00  0.00    +0.000 A 
ATOM      8  C   UNL     1       2.143  -0.412   0.000  0.00  0.00    +0.000 A 
ATOM      9  C   UNL     1       2.143  -1.238   0.000  0.00  0.00    +0.000 A 
ATOM     10 CL   UNL     1       2.858  -1.650   0.000  0.00  0.00    +0.000 Cl
ATOM     11  C   UNL     1       1.429  -1.650   0.000  0.00  0.00    +0.000 A 
ATOM     12  S   UNL     1       2.858   0.000   0.000  0.00  0.00    +0.000 S 
ATOM     13  N   UNL     1       3.572   0.412   0.000  0.00  0.00    +0.000 NA
ATOM     14  O   UNL     1       2.445   0.715   0.000  0.00  0.00    +0.000 OA
ATOM     15  O   UNL     1       3.270  -0.715   0.000  0.00  0.00    +0.000 OA
ATOM     16  S   UNL     1       0.000   0.000   0.000  0.00  0.00    +0.000 S 
ATOM     17  O   UNL     1       0.530   0.632   0.000  0.00  0.00    +0.000 OA
ATOM     18  O   UNL     1      -0.530   0.632   0.000  0.00  0.00    +0.000 OA
ATOM     19  N   UNL     1      -0.715  -0.412   0.000  0.00  0.00    +0.000 NA
ATOM     20  C   UNL     1      -2.143  -1.238   0.000  0.00  0.00    +0.000 A 
ATOM     21  C   UNL     1      -2.858  -1.650   0.000  0.00  0.00    +0.000 A 
ATOM     22  C   UNL     1      -3.572  -1.238   0.000  0.00  0.00    +0.000 A 
ATOM     23  C   UNL     1      -3.572  -0.412   0.000  0.00  0.00    +0.000 A 
ATOM     24  C   UNL     1      -2.858   0.000   0.000  0.00  0.00    +0.000 A 
ATOM     25  C   UNL     1      -2.143  -0.412   0.000  0.00  0.00    +0.000 A 
ENDROOT
TORSDOF 0
