ROOT
REMARK  Name = benserazide
REMARK                            x       y       z     vdW  Elec       q    Type
REMARK                         _______ _______ _______ _____ _____    ______ ____
ATOM      1  N   UNL     1       2.143  -2.888   0.000  0.00  0.00    +0.000 NA
ATOM      2  CA  UNL     1       2.143  -3.712   0.000  0.00  0.00    +0.000 C 
ATOM      3  C   UNL     1       1.429  -4.125   0.000  0.00  0.00    +0.000 C 
ATOM      4  O   UNL     1       0.715  -3.712   0.000  0.00  0.00    +0.000 OA
ATOM      5  C   UNL     1       2.858  -4.125   0.000  0.00  0.00    +0.000 C 
ATOM      6  O   UNL     1       2.858  -4.950   0.000  0.00  0.00    +0.000 OA
ATOM      7  N   UNL     1       3.572  -3.712   0.000  0.00  0.00    +0.000 NA
ATOM      8  N   UNL     1       4.287  -4.125   0.000  0.00  0.00    +0.000 NA
ATOM      9  C   UNL     1       5.001  -3.712   0.000  0.00  0.00    +0.000 C 
ATOM     10  C   UNL     1       5.716  -4.125   0.000  0.00  0.00    +0.000 A 
ATOM     11  C   UNL     1       6.430  -3.712   0.000  0.00  0.00    +0.000 A 
ATOM     12  O   UNL     1       6.430  -2.888   0.000  0.00  0.00    +0.000 OA
ATOM     13  C   UNL     1       7.145  -4.125   0.000  0.00  0.00    +0.000 A 
ATOM     14  O   UNL     1       7.859  -3.712   0.000  0.00  0.00    +0.000 OA
ATOM     15  C   UNL     1       7.145  -4.950   0.000  0.00  0.00    +0.000 A 
ATOM     16  O   UNL     1       7.859  -5.362   0.000  0.00  0.00    +0.000 OA
ATOM     17  C   UNL     1       6.430  -5.362   0.000  0.00  0.00    +0.000 A 
ATOM     18  C   UNL     1       5.716  -4.950   0.000  0.00  0.00    +0.000 A 
ENDROOT
TORSDOF 0
