ROOT
REMARK  Name = benzquinamide
REMARK                            x       y       z     vdW  Elec       q    Type
REMARK                         _______ _______ _______ _____ _____    ______ ____
ATOM      1  C   UNL     1      -4.729   0.604   0.000  0.00  0.00    +0.000 C 
ATOM      2  C   UNL     1      -4.316  -0.111   0.000  0.00  0.00    +0.000 C 
ATOM      3  N   UNL     1      -3.491  -0.111   0.000  0.00  0.00    +0.000 N 
ATOM      4  C   UNL     1      -3.079   0.604   0.000  0.00  0.00    +0.000 C 
ATOM      5  C   UNL     1      -3.491   1.318   0.000  0.00  0.00    +0.000 C 
ATOM      6  C   UNL     1      -3.079  -0.825   0.000  0.00  0.00    +0.000 C 
ATOM      7  O   UNL     1      -3.491  -1.540   0.000  0.00  0.00    +0.000 OA
ATOM      8  C   UNL     1      -2.254  -0.825   0.000  0.00  0.00    +0.000 C 
ATOM      9  C   UNL     1      -1.841  -1.540   0.000  0.00  0.00    +0.000 C 
ATOM     10  N   UNL     1      -1.016  -1.540   0.000  0.00  0.00    +0.000 NA
ATOM     11  C   UNL     1      -0.604  -2.254   0.000  0.00  0.00    +0.000 C 
ATOM     12  C   UNL     1       0.221  -2.254   0.000  0.00  0.00    +0.000 C 
ATOM     13  C   UNL     1       0.634  -1.540   0.000  0.00  0.00    +0.000 A 
ATOM     14  C   UNL     1       0.221  -0.825   0.000  0.00  0.00    +0.000 A 
ATOM     15  C   UNL     1       0.634  -0.111   0.000  0.00  0.00    +0.000 A 
ATOM     16  C   UNL     1       1.459  -0.111   0.000  0.00  0.00    +0.000 A 
ATOM     17  O   UNL     1       1.871   0.604   0.000  0.00  0.00    +0.000 OA
ATOM     18  C   UNL     1       2.696   0.604   0.000  0.00  0.00    +0.000 C 
ATOM     19  C   UNL     1       1.871  -0.825   0.000  0.00  0.00    +0.000 A 
ATOM     20  O   UNL     1       2.696  -0.825   0.000  0.00  0.00    +0.000 OA
ATOM     21  C   UNL     1       3.109  -1.540   0.000  0.00  0.00    +0.000 C 
ATOM     22  C   UNL     1       1.459  -1.540   0.000  0.00  0.00    +0.000 A 
ATOM     23  C   UNL     1      -0.604  -0.825   0.000  0.00  0.00    +0.000 C 
ATOM     24  C   UNL     1      -1.016  -0.111   0.000  0.00  0.00    +0.000 C 
ATOM     25  C   UNL     1      -1.841  -0.111   0.000  0.00  0.00    +0.000 C 
ATOM     26  O   UNL     1      -2.254   0.604   0.000  0.00  0.00    +0.000 OA
ATOM     27  C   UNL     1      -1.841   1.318   0.000  0.00  0.00    +0.000 C 
ATOM     28  C   UNL     1      -2.254   2.033   0.000  0.00  0.00    +0.000 C 
ATOM     29  O   UNL     1      -1.016   1.318   0.000  0.00  0.00    +0.000 OA
ENDROOT
TORSDOF 0
