ROOT
REMARK  Name = benzthiazide
REMARK                            x       y       z     vdW  Elec       q    Type
REMARK                         _______ _______ _______ _____ _____    ______ ____
ATOM      1  N   UNL     1      -2.143  -2.062   0.000  0.00  0.00    +0.000 NA
ATOM      2  S   UNL     1      -1.429  -1.650   0.000  0.00  0.00    +0.000 S 
ATOM      3  O   UNL     1      -1.016  -2.365   0.000  0.00  0.00    +0.000 OA
ATOM      4  O   UNL     1      -1.841  -0.935   0.000  0.00  0.00    +0.000 OA
ATOM      5  C   UNL     1      -0.715  -1.238   0.000  0.00  0.00    +0.000 A 
ATOM      6  C   UNL     1       0.000  -1.650   0.000  0.00  0.00    +0.000 A 
ATOM      7  C   UNL     1       0.715  -1.238   0.000  0.00  0.00    +0.000 A 
ATOM      8  C   UNL     1       0.715  -0.412   0.000  0.00  0.00    +0.000 A 
ATOM      9  C   UNL     1       0.000   0.000   0.000  0.00  0.00    +0.000 A 
ATOM     10  C   UNL     1      -0.715  -0.412   0.000  0.00  0.00    +0.000 A 
ATOM     11 CL   UNL     1      -1.429   0.000   0.000  0.00  0.00    +0.000 Cl
ATOM     12  N   UNL     1       1.429   0.000   0.000  0.00  0.00    +0.000 NA
ATOM     13  C   UNL     1       2.143  -0.412   0.000  0.00  0.00    +0.000 C 
ATOM     14  C   UNL     1       2.858   0.000   0.000  0.00  0.00    +0.000 C 
ATOM     15  S   UNL     1       3.572  -0.412   0.000  0.00  0.00    +0.000 S 
ATOM     16  C   UNL     1       4.287   0.000   0.000  0.00  0.00    +0.000 C 
ATOM     17  C   UNL     1       5.001  -0.412   0.000  0.00  0.00    +0.000 A 
ATOM     18  C   UNL     1       5.716   0.000   0.000  0.00  0.00    +0.000 A 
ATOM     19  C   UNL     1       6.430  -0.412   0.000  0.00  0.00    +0.000 A 
ATOM     20  C   UNL     1       6.430  -1.238   0.000  0.00  0.00    +0.000 A 
ATOM     21  C   UNL     1       5.716  -1.650   0.000  0.00  0.00    +0.000 A 
ATOM     22  C   UNL     1       5.001  -1.238   0.000  0.00  0.00    +0.000 A 
ATOM     23  N   UNL     1       2.143  -1.238   0.000  0.00  0.00    +0.000 NA
ATOM     24  S   UNL     1       1.429  -1.650   0.000  0.00  0.00    +0.000 S 
ATOM     25  O   UNL     1       1.816  -2.378   0.000  0.00  0.00    +0.000 OA
ATOM     26  O   UNL     1       1.042  -2.378   0.000  0.00  0.00    +0.000 OA
ENDROOT
TORSDOF 0
