ROOT
REMARK  Name = betadex
REMARK                            x       y       z     vdW  Elec       q    Type
REMARK                         _______ _______ _______ _____ _____    ______ ____
ATOM      1  O   UNL     1       6.630  -1.692   0.000  0.00  0.00    +0.000 OA
ATOM      2  C   UNL     1       5.807  -1.640   0.000  0.00  0.00    +0.000 C 
ATOM      3  C   UNL     1       5.441  -0.900   0.000  0.00  0.00    +0.000 C 
ATOM      4  O   UNL     1       5.905  -0.222   0.000  0.00  0.00    +0.000 OA
ATOM      5  C   UNL     1       5.560   0.549   0.000  0.00  0.00    +0.000 C 
ATOM      6  O   UNL     1       6.277   1.034   0.000  0.00  0.00    +0.000 OA
ATOM      7  C   UNL     1       7.123   1.178   0.000  0.00  0.00    +0.000 C 
ATOM      8  C   UNL     1       7.614   0.492   0.000  0.00  0.00    +0.000 C 
ATOM      9  C   UNL     1       7.265  -0.255   0.000  0.00  0.00    +0.000 C 
ATOM     10  O   UNL     1       7.737  -0.931   0.000  0.00  0.00    +0.000 OA
ATOM     11  O   UNL     1       8.434   0.552   0.000  0.00  0.00    +0.000 OA
ATOM     12  C   UNL     1       8.822   1.303   0.000  0.00  0.00    +0.000 C 
ATOM     13  O   UNL     1       9.648   1.044   0.000  0.00  0.00    +0.000 OA
ATOM     14  C   UNL     1      10.288   0.473   0.000  0.00  0.00    +0.000 C 
ATOM     15  C   UNL     1      10.059  -0.339   0.000  0.00  0.00    +0.000 C 
ATOM     16  C   UNL     1       9.257  -0.531   0.000  0.00  0.00    +0.000 C 
ATOM     17  O   UNL     1       9.022  -1.322   0.000  0.00  0.00    +0.000 OA
ATOM     18  O   UNL     1      10.617  -0.942   0.000  0.00  0.00    +0.000 OA
ATOM     19  C   UNL     1      11.445  -0.778   0.000  0.00  0.00    +0.000 C 
ATOM     20  O   UNL     1      11.758  -1.585   0.000  0.00  0.00    +0.000 OA
ATOM     21  C   UNL     1      11.711  -2.441   0.000  0.00  0.00    +0.000 C 
ATOM     22  C   UNL     1      10.933  -2.768   0.000  0.00  0.00    +0.000 C 
ATOM     23  C   UNL     1      10.283  -2.261   0.000  0.00  0.00    +0.000 C 
ATOM     24  O   UNL     1       9.518  -2.571   0.000  0.00  0.00    +0.000 OA
ATOM     25  O   UNL     1      10.809  -3.580   0.000  0.00  0.00    +0.000 OA
ATOM     26  C   UNL     1      11.454  -4.125   0.000  0.00  0.00    +0.000 C 
ATOM     27  O   UNL     1      11.018  -4.873   0.000  0.00  0.00    +0.000 OA
ATOM     28  C   UNL     1      10.319  -5.370   0.000  0.00  0.00    +0.000 C 
ATOM     29  C   UNL     1      10.300  -6.218   0.000  0.00  0.00    +0.000 C 
ATOM     30  C   UNL     1      11.011  -6.636   0.000  0.00  0.00    +0.000 C 
ATOM     31  O   UNL     1      11.005  -7.461   0.000  0.00  0.00    +0.000 OA
ATOM     32  O   UNL     1       9.579  -6.641   0.000  0.00  0.00    +0.000 OA
ATOM     33  C   UNL     1       8.842  -6.220   0.000  0.00  0.00    +0.000 C 
ATOM     34  O   UNL     1       7.986  -6.346   0.000  0.00  0.00    +0.000 OA
ATOM     35  C   UNL     1       7.162  -6.109   0.000  0.00  0.00    +0.000 C 
ATOM     36  C   UNL     1       7.016  -5.278   0.000  0.00  0.00    +0.000 C 
ATOM     37  C   UNL     1       7.655  -4.756   0.000  0.00  0.00    +0.000 C 
ATOM     38  O   UNL     1       7.523  -3.942   0.000  0.00  0.00    +0.000 OA
ATOM     39  O   UNL     1       6.252  -4.976   0.000  0.00  0.00    +0.000 OA
ATOM     40  C   UNL     1       5.577  -5.484   0.000  0.00  0.00    +0.000 C 
ATOM     41  O   UNL     1       4.944  -4.893   0.000  0.00  0.00    +0.000 OA
ATOM     42  C   UNL     1       4.615  -4.100   0.000  0.00  0.00    +0.000 C 
ATOM     43  C   UNL     1       3.793  -3.893   0.000  0.00  0.00    +0.000 C 
ATOM     44  C   UNL     1       3.228  -4.494   0.000  0.00  0.00    +0.000 C 
ATOM     45  O   UNL     1       3.465  -5.284   0.000  0.00  0.00    +0.000 OA
ATOM     46  O   UNL     1       3.541  -3.095   0.000  0.00  0.00    +0.000 OA
ATOM     47  C   UNL     1       4.116  -2.471   0.000  0.00  0.00    +0.000 C 
ATOM     48  O   UNL     1       4.184  -1.609   0.000  0.00  0.00    +0.000 OA
ATOM     49  C   UNL     1       4.598  -0.858   0.000  0.00  0.00    +0.000 C 
ATOM     50  C   UNL     1       4.248  -0.086   0.000  0.00  0.00    +0.000 C 
ATOM     51  O   UNL     1       3.425  -0.018   0.000  0.00  0.00    +0.000 OA
ATOM     52  C   UNL     1       4.714   0.609   0.000  0.00  0.00    +0.000 C 
ATOM     53  O   UNL     1       4.352   1.350   0.000  0.00  0.00    +0.000 OA
ATOM     54  C   UNL     1       4.934  -2.683   0.000  0.00  0.00    +0.000 C 
ATOM     55  O   UNL     1       5.504  -2.087   0.000  0.00  0.00    +0.000 OA
ATOM     56  C   UNL     1       5.174  -3.468   0.000  0.00  0.00    +0.000 C 
ATOM     57  O   UNL     1       5.981  -3.643   0.000  0.00  0.00    +0.000 OA
ATOM     58  C   UNL     1       5.706  -6.322   0.000  0.00  0.00    +0.000 C 
ATOM     59  O   UNL     1       5.064  -6.840   0.000  0.00  0.00    +0.000 OA
ATOM     60  C   UNL     1       6.487  -6.622   0.000  0.00  0.00    +0.000 C 
ATOM     61  O   UNL     1       6.604  -7.439   0.000  0.00  0.00    +0.000 OA
ATOM     62  C   UNL     1       8.866  -5.375   0.000  0.00  0.00    +0.000 C 
ATOM     63  O   UNL     1       8.158  -4.952   0.000  0.00  0.00    +0.000 OA
ATOM     64  C   UNL     1       9.579  -4.966   0.000  0.00  0.00    +0.000 C 
ATOM     65  O   UNL     1       9.570  -4.141   0.000  0.00  0.00    +0.000 OA
ATOM     66  C   UNL     1      12.243  -3.812   0.000  0.00  0.00    +0.000 C 
ATOM     67  O   UNL     1      12.891  -4.323   0.000  0.00  0.00    +0.000 OA
ATOM     68  C   UNL     1      12.361  -2.984   0.000  0.00  0.00    +0.000 C 
ATOM     69  O   UNL     1      13.132  -2.689   0.000  0.00  0.00    +0.000 OA
ATOM     70  C   UNL     1      11.692   0.034   0.000  0.00  0.00    +0.000 C 
ATOM     71  O   UNL     1      12.495   0.222   0.000  0.00  0.00    +0.000 OA
ATOM     72  C   UNL     1      11.119   0.643   0.000  0.00  0.00    +0.000 C 
ATOM     73  O   UNL     1      11.368   1.430   0.000  0.00  0.00    +0.000 OA
ATOM     74  C   UNL     1       8.341   2.002   0.000  0.00  0.00    +0.000 C 
ATOM     75  O   UNL     1       8.695   2.747   0.000  0.00  0.00    +0.000 OA
ATOM     76  C   UNL     1       7.508   1.933   0.000  0.00  0.00    +0.000 C 
ATOM     77  O   UNL     1       7.048   2.619   0.000  0.00  0.00    +0.000 OA
ENDROOT
TORSDOF 0
