ROOT
REMARK  Name = bezitramide
REMARK                            x       y       z     vdW  Elec       q    Type
REMARK                         _______ _______ _______ _____ _____    ______ ____
ATOM      1  C   UNL     1      -0.101   2.152   0.000  0.00  0.00    +0.000 C 
ATOM      2  C   UNL     1       0.154   1.367   0.000  0.00  0.00    +0.000 C 
ATOM      3  C   UNL     1      -0.398   0.754   0.000  0.00  0.00    +0.000 C 
ATOM      4  O   UNL     1      -1.205   0.926   0.000  0.00  0.00    +0.000 OA
ATOM      5  N   UNL     1      -0.143  -0.030   0.000  0.00  0.00    +0.000 N 
ATOM      6  C   UNL     1      -0.628  -0.698   0.000  0.00  0.00    +0.000 A 
ATOM      7  O   UNL     1      -1.453  -0.698   0.000  0.00  0.00    +0.000 OA
ATOM      8  N   UNL     1      -0.143  -1.365   0.000  0.00  0.00    +0.000 N 
ATOM      9  C   UNL     1      -0.398  -2.150   0.000  0.00  0.00    +0.000 C 
ATOM     10  C   UNL     1       0.154  -2.763   0.000  0.00  0.00    +0.000 C 
ATOM     11  C   UNL     1      -0.101  -3.548   0.000  0.00  0.00    +0.000 C 
ATOM     12  N   UNL     1      -0.908  -3.719   0.000  0.00  0.00    +0.000 NA
ATOM     13  C   UNL     1      -1.163  -4.504   0.000  0.00  0.00    +0.000 C 
ATOM     14  C   UNL     1      -0.611  -5.117   0.000  0.00  0.00    +0.000 C 
ATOM     15  C   UNL     1      -0.866  -5.902   0.000  0.00  0.00    +0.000 C 
ATOM     16  C   UNL     1      -1.651  -5.647   0.000  0.00  0.00    +0.000 C 
ATOM     17  N   UNL     1      -2.435  -5.392   0.000  0.00  0.00    +0.000 NA
ATOM     18  C   UNL     1      -1.121  -6.686   0.000  0.00  0.00    +0.000 A 
ATOM     19  C   UNL     1      -0.569  -7.299   0.000  0.00  0.00    +0.000 A 
ATOM     20  C   UNL     1      -0.824  -8.084   0.000  0.00  0.00    +0.000 A 
ATOM     21  C   UNL     1      -1.631  -8.255   0.000  0.00  0.00    +0.000 A 
ATOM     22  C   UNL     1      -2.183  -7.642   0.000  0.00  0.00    +0.000 A 
ATOM     23  C   UNL     1      -1.928  -6.858   0.000  0.00  0.00    +0.000 A 
ATOM     24  C   UNL     1      -0.082  -6.157   0.000  0.00  0.00    +0.000 A 
ATOM     25  C   UNL     1       0.531  -5.604   0.000  0.00  0.00    +0.000 A 
ATOM     26  C   UNL     1       1.316  -5.859   0.000  0.00  0.00    +0.000 A 
ATOM     27  C   UNL     1       1.488  -6.666   0.000  0.00  0.00    +0.000 A 
ATOM     28  C   UNL     1       0.875  -7.218   0.000  0.00  0.00    +0.000 A 
ATOM     29  C   UNL     1       0.090  -6.963   0.000  0.00  0.00    +0.000 A 
ATOM     30  C   UNL     1      -1.460  -3.106   0.000  0.00  0.00    +0.000 C 
ATOM     31  C   UNL     1      -1.205  -2.321   0.000  0.00  0.00    +0.000 C 
ATOM     32  C   UNL     1       0.641  -1.110   0.000  0.00  0.00    +0.000 A 
ATOM     33  C   UNL     1       0.641  -0.285   0.000  0.00  0.00    +0.000 A 
ATOM     34  C   UNL     1       1.356   0.127   0.000  0.00  0.00    +0.000 A 
ATOM     35  C   UNL     1       2.070  -0.285   0.000  0.00  0.00    +0.000 A 
ATOM     36  C   UNL     1       2.070  -1.110   0.000  0.00  0.00    +0.000 A 
ATOM     37  C   UNL     1       1.356  -1.523   0.000  0.00  0.00    +0.000 A 
ENDROOT
TORSDOF 0
