ROOT
REMARK  Name = binifibrate
REMARK                            x       y       z     vdW  Elec       q    Type
REMARK                         _______ _______ _______ _____ _____    ______ ____
ATOM      1  C   UNL     1       5.449  -7.486   0.000  0.00  0.00    +0.000 C 
ATOM      2  C   UNL     1       4.670  -7.756   0.000  0.00  0.00    +0.000 C 
ATOM      3  C   UNL     1       3.890  -8.026   0.000  0.00  0.00    +0.000 C 
ATOM      4  O   UNL     1       4.939  -8.536   0.000  0.00  0.00    +0.000 OA
ATOM      5  C   UNL     1       5.750  -8.692   0.000  0.00  0.00    +0.000 A 
ATOM      6  C   UNL     1       6.290  -8.068   0.000  0.00  0.00    +0.000 A 
ATOM      7  C   UNL     1       7.100  -8.224   0.000  0.00  0.00    +0.000 A 
ATOM      8  C   UNL     1       7.370  -9.004   0.000  0.00  0.00    +0.000 A 
ATOM      9 CL   UNL     1       8.180  -9.160   0.000  0.00  0.00    +0.000 Cl
ATOM     10  C   UNL     1       6.830  -9.627   0.000  0.00  0.00    +0.000 A 
ATOM     11  C   UNL     1       6.020  -9.471   0.000  0.00  0.00    +0.000 A 
ATOM     12  C   UNL     1       4.399  -6.977   0.000  0.00  0.00    +0.000 C 
ATOM     13  O   UNL     1       4.939  -6.353   0.000  0.00  0.00    +0.000 OA
ATOM     14  O   UNL     1       3.589  -6.821   0.000  0.00  0.00    +0.000 OA
ATOM     15  C   UNL     1       3.319  -6.041   0.000  0.00  0.00    +0.000 C 
ATOM     16  C   UNL     1       2.509  -5.886   0.000  0.00  0.00    +0.000 C 
ATOM     17  O   UNL     1       2.239  -5.106   0.000  0.00  0.00    +0.000 OA
ATOM     18  C   UNL     1       1.429  -4.950   0.000  0.00  0.00    +0.000 C 
ATOM     19  O   UNL     1       0.889  -5.574   0.000  0.00  0.00    +0.000 OA
ATOM     20  C   UNL     1       1.159  -4.170   0.000  0.00  0.00    +0.000 A 
ATOM     21  C   UNL     1       0.349  -4.014   0.000  0.00  0.00    +0.000 A 
ATOM     22  N   UNL     1       0.079  -3.235   0.000  0.00  0.00    +0.000 NA
ATOM     23  C   UNL     1       0.619  -2.611   0.000  0.00  0.00    +0.000 A 
ATOM     24  C   UNL     1       1.429  -2.767   0.000  0.00  0.00    +0.000 A 
ATOM     25  C   UNL     1       1.699  -3.547   0.000  0.00  0.00    +0.000 A 
ATOM     26  C   UNL     1       3.859  -5.418   0.000  0.00  0.00    +0.000 C 
ATOM     27  O   UNL     1       4.670  -5.574   0.000  0.00  0.00    +0.000 OA
ATOM     28  C   UNL     1       5.210  -4.950   0.000  0.00  0.00    +0.000 C 
ATOM     29  O   UNL     1       4.939  -4.170   0.000  0.00  0.00    +0.000 OA
ATOM     30  C   UNL     1       6.020  -5.106   0.000  0.00  0.00    +0.000 A 
ATOM     31  C   UNL     1       6.560  -4.482   0.000  0.00  0.00    +0.000 A 
ATOM     32  N   UNL     1       7.370  -4.638   0.000  0.00  0.00    +0.000 NA
ATOM     33  C   UNL     1       7.640  -5.418   0.000  0.00  0.00    +0.000 A 
ATOM     34  C   UNL     1       7.100  -6.041   0.000  0.00  0.00    +0.000 A 
ATOM     35  C   UNL     1       6.290  -5.886   0.000  0.00  0.00    +0.000 A 
ENDROOT
TORSDOF 0
