ROOT
REMARK  Name = biriperone
REMARK                            x       y       z     vdW  Elec       q    Type
REMARK                         _______ _______ _______ _____ _____    ______ ____
ATOM      1  F   UNL     1      10.435  -2.877   0.000  0.00  0.00    +0.000 F 
ATOM      2  C   UNL     1       9.816  -2.332   0.000  0.00  0.00    +0.000 A 
ATOM      3  C   UNL     1       9.035  -2.595   0.000  0.00  0.00    +0.000 A 
ATOM      4  C   UNL     1       8.415  -2.050   0.000  0.00  0.00    +0.000 A 
ATOM      5  C   UNL     1       8.578  -1.241   0.000  0.00  0.00    +0.000 A 
ATOM      6  C   UNL     1       9.360  -0.978   0.000  0.00  0.00    +0.000 A 
ATOM      7  C   UNL     1       9.979  -1.523   0.000  0.00  0.00    +0.000 A 
ATOM      8  C   UNL     1       7.959  -0.696   0.000  0.00  0.00    +0.000 C 
ATOM      9  O   UNL     1       8.122   0.113   0.000  0.00  0.00    +0.000 OA
ATOM     10  C   UNL     1       7.177  -0.960   0.000  0.00  0.00    +0.000 C 
ATOM     11  C   UNL     1       6.558  -0.414   0.000  0.00  0.00    +0.000 C 
ATOM     12  C   UNL     1       5.776  -0.678   0.000  0.00  0.00    +0.000 C 
ATOM     13  N   UNL     1       5.157  -0.133   0.000  0.00  0.00    +0.000 NA
ATOM     14  C   UNL     1       5.320   0.676   0.000  0.00  0.00    +0.000 C 
ATOM     15  C   UNL     1       4.701   1.221   0.000  0.00  0.00    +0.000 C 
ATOM     16  N   UNL     1       3.919   0.958   0.000  0.00  0.00    +0.000 NA
ATOM     17  C   UNL     1       3.300   1.503   0.000  0.00  0.00    +0.000 C 
ATOM     18  C   UNL     1       2.518   1.239   0.000  0.00  0.00    +0.000 C 
ATOM     19  C   UNL     1       2.355   0.431   0.000  0.00  0.00    +0.000 C 
ATOM     20  C   UNL     1       2.974  -0.115   0.000  0.00  0.00    +0.000 C 
ATOM     21  C   UNL     1       3.756   0.149   0.000  0.00  0.00    +0.000 C 
ATOM     22  C   UNL     1       4.375  -0.396   0.000  0.00  0.00    +0.000 C 
ATOM     23  C   UNL     1       1.536   0.335   0.000  0.00  0.00    +0.000 C 
ATOM     24  C   UNL     1       1.058  -0.337   0.000  0.00  0.00    +0.000 C 
ATOM     25  C   UNL     1       0.237  -0.260   0.000  0.00  0.00    +0.000 C 
ATOM     26  C   UNL     1      -0.107   0.490   0.000  0.00  0.00    +0.000 C 
ATOM     27  C   UNL     1       0.371   1.162   0.000  0.00  0.00    +0.000 C 
ATOM     28  C   UNL     1       1.192   1.085   0.000  0.00  0.00    +0.000 C 
ATOM     29  N   UNL     1       1.799   1.644   0.000  0.00  0.00    +0.000 NA
ENDROOT
TORSDOF 0
