ROOT
REMARK  Name = bisbentiamine
REMARK                            x       y       z     vdW  Elec       q    Type
REMARK                         _______ _______ _______ _____ _____    ______ ____
ATOM      1  C   UNL     1       0.000  -4.950   0.000  0.00  0.00    +0.000 C 
ATOM      2  C   UNL     1       0.715  -5.362   0.000  0.00  0.00    +0.000 C 
ATOM      3  N   UNL     1       0.715  -6.188   0.000  0.00  0.00    +0.000 N 
ATOM      4  C   UNL     1       0.000  -6.600   0.000  0.00  0.00    +0.000 C 
ATOM      5  C   UNL     1       0.000  -7.425   0.000  0.00  0.00    +0.000 A 
ATOM      6  C   UNL     1       0.715  -7.838   0.000  0.00  0.00    +0.000 A 
ATOM      7  N   UNL     1       0.715  -8.662   0.000  0.00  0.00    +0.000 NA
ATOM      8  C   UNL     1       0.000  -9.075   0.000  0.00  0.00    +0.000 A 
ATOM      9  C   UNL     1       0.000  -9.900   0.000  0.00  0.00    +0.000 C 
ATOM     10  N   UNL     1      -0.715  -8.662   0.000  0.00  0.00    +0.000 NA
ATOM     11  C   UNL     1      -0.715  -7.838   0.000  0.00  0.00    +0.000 A 
ATOM     12  N   UNL     1      -1.429  -7.425   0.000  0.00  0.00    +0.000 NA
ATOM     13  C   UNL     1       1.429  -6.600   0.000  0.00  0.00    +0.000 C 
ATOM     14  O   UNL     1       1.429  -7.425   0.000  0.00  0.00    +0.000 OA
ATOM     15  C   UNL     1       1.429  -4.950   0.000  0.00  0.00    +0.000 C 
ATOM     16  C   UNL     1       2.143  -5.362   0.000  0.00  0.00    +0.000 C 
ATOM     17  C   UNL     1       2.858  -4.950   0.000  0.00  0.00    +0.000 C 
ATOM     18  O   UNL     1       3.572  -5.362   0.000  0.00  0.00    +0.000 OA
ATOM     19  C   UNL     1       4.287  -4.950   0.000  0.00  0.00    +0.000 C 
ATOM     20  O   UNL     1       4.287  -4.125   0.000  0.00  0.00    +0.000 OA
ATOM     21  C   UNL     1       5.001  -5.362   0.000  0.00  0.00    +0.000 A 
ATOM     22  C   UNL     1       5.716  -4.950   0.000  0.00  0.00    +0.000 A 
ATOM     23  C   UNL     1       6.430  -5.362   0.000  0.00  0.00    +0.000 A 
ATOM     24  C   UNL     1       6.430  -6.188   0.000  0.00  0.00    +0.000 A 
ATOM     25  C   UNL     1       5.716  -6.600   0.000  0.00  0.00    +0.000 A 
ATOM     26  C   UNL     1       5.001  -6.188   0.000  0.00  0.00    +0.000 A 
ATOM     27  S   UNL     1       1.429  -4.125   0.000  0.00  0.00    +0.000 S 
ATOM     28  S   UNL     1       0.715  -3.712   0.000  0.00  0.00    +0.000 S 
ATOM     29  C   UNL     1       0.715  -2.888   0.000  0.00  0.00    +0.000 C 
ATOM     30  C   UNL     1       0.000  -2.475   0.000  0.00  0.00    +0.000 C 
ATOM     31  C   UNL     1      -0.715  -2.888   0.000  0.00  0.00    +0.000 C 
ATOM     32  O   UNL     1      -1.429  -2.475   0.000  0.00  0.00    +0.000 OA
ATOM     33  C   UNL     1      -2.143  -2.888   0.000  0.00  0.00    +0.000 C 
ATOM     34  O   UNL     1      -2.143  -3.712   0.000  0.00  0.00    +0.000 OA
ATOM     35  C   UNL     1      -2.858  -2.475   0.000  0.00  0.00    +0.000 A 
ATOM     36  C   UNL     1      -3.572  -2.888   0.000  0.00  0.00    +0.000 A 
ATOM     37  C   UNL     1      -4.287  -2.475   0.000  0.00  0.00    +0.000 A 
ATOM     38  C   UNL     1      -4.287  -1.650   0.000  0.00  0.00    +0.000 A 
ATOM     39  C   UNL     1      -3.572  -1.238   0.000  0.00  0.00    +0.000 A 
ATOM     40  C   UNL     1      -2.858  -1.650   0.000  0.00  0.00    +0.000 A 
ATOM     41  C   UNL     1       1.429  -2.475   0.000  0.00  0.00    +0.000 C 
ATOM     42  C   UNL     1       2.143  -2.888   0.000  0.00  0.00    +0.000 C 
ATOM     43  N   UNL     1       1.429  -1.650   0.000  0.00  0.00    +0.000 N 
ATOM     44  C   UNL     1       0.715  -1.238   0.000  0.00  0.00    +0.000 C 
ATOM     45  C   UNL     1       0.715  -0.412   0.000  0.00  0.00    +0.000 A 
ATOM     46  C   UNL     1       0.000   0.000   0.000  0.00  0.00    +0.000 A 
ATOM     47  N   UNL     1       0.000   0.825   0.000  0.00  0.00    +0.000 NA
ATOM     48  C   UNL     1       0.715   1.238   0.000  0.00  0.00    +0.000 A 
ATOM     49  C   UNL     1       0.715   2.062   0.000  0.00  0.00    +0.000 C 
ATOM     50  N   UNL     1       1.429   0.825   0.000  0.00  0.00    +0.000 NA
ATOM     51  C   UNL     1       1.429   0.000   0.000  0.00  0.00    +0.000 A 
ATOM     52  N   UNL     1       2.143  -0.412   0.000  0.00  0.00    +0.000 NA
ATOM     53  C   UNL     1       2.143  -1.238   0.000  0.00  0.00    +0.000 C 
ATOM     54  O   UNL     1       2.858  -1.650   0.000  0.00  0.00    +0.000 OA
ENDROOT
TORSDOF 0
