ROOT
REMARK  Name = bismuth subgallate
REMARK                            x       y       z     vdW  Elec       q    Type
REMARK                         _______ _______ _______ _____ _____    ______ ____
ATOM      1  O   UNL     1      -1.453  -0.698   0.000  0.00  0.00    +0.000 OA
ATOM      2 BI   UNL     1      -0.628  -0.698   0.000  0.00  0.00    +0.000 Bi
ATOM      3  O   UNL     1      -0.143  -1.365   0.000  0.00  0.00    +0.000 OA
ATOM      4  C   UNL     1       0.641  -1.110   0.000  0.00  0.00    +0.000 A 
ATOM      5  C   UNL     1       0.641  -0.285   0.000  0.00  0.00    +0.000 A 
ATOM      6  O   UNL     1      -0.143  -0.030   0.000  0.00  0.00    +0.000 OA
ATOM      7  C   UNL     1       1.356   0.127   0.000  0.00  0.00    +0.000 A 
ATOM      8  O   UNL     1       1.356   0.952   0.000  0.00  0.00    +0.000 OA
ATOM      9  C   UNL     1       2.070  -0.285   0.000  0.00  0.00    +0.000 A 
ATOM     10  C   UNL     1       2.070  -1.110   0.000  0.00  0.00    +0.000 A 
ATOM     11  C   UNL     1       1.356  -1.523   0.000  0.00  0.00    +0.000 A 
ATOM     12  C   UNL     1       2.784  -1.523   0.000  0.00  0.00    +0.000 C 
ATOM     13  O   UNL     1       3.499  -1.110   0.000  0.00  0.00    +0.000 OA
ATOM     14  O   UNL     1       2.784  -2.348   0.000  0.00  0.00    +0.000 OA
ENDROOT
TORSDOF 0
