ROOT
REMARK  Name = bosutinib
REMARK                            x       y       z     vdW  Elec       q    Type
REMARK                         _______ _______ _______ _____ _____    ______ ____
ATOM      1  C   UNL     1      -2.143  -1.238   0.000  0.00  0.00    +0.000 C 
ATOM      2  O   UNL     1      -1.429  -1.650   0.000  0.00  0.00    +0.000 OA
ATOM      3  C   UNL     1      -0.715  -1.238   0.000  0.00  0.00    +0.000 A 
ATOM      4  C   UNL     1       0.000  -1.650   0.000  0.00  0.00    +0.000 A 
ATOM      5  C   UNL     1       0.715  -1.238   0.000  0.00  0.00    +0.000 A 
ATOM      6  C   UNL     1       0.715  -0.412   0.000  0.00  0.00    +0.000 A 
ATOM      7  C   UNL     1       0.000   0.000   0.000  0.00  0.00    +0.000 A 
ATOM      8  C   UNL     1      -0.715  -0.412   0.000  0.00  0.00    +0.000 A 
ATOM      9  O   UNL     1      -1.429   0.000   0.000  0.00  0.00    +0.000 OA
ATOM     10  C   UNL     1      -1.429   0.825   0.000  0.00  0.00    +0.000 C 
ATOM     11  C   UNL     1      -2.143   1.238   0.000  0.00  0.00    +0.000 C 
ATOM     12  C   UNL     1      -2.143   2.062   0.000  0.00  0.00    +0.000 C 
ATOM     13  N   UNL     1      -2.858   2.475   0.000  0.00  0.00    +0.000 NA
ATOM     14  C   UNL     1      -3.572   2.062   0.000  0.00  0.00    +0.000 C 
ATOM     15  C   UNL     1      -4.287   2.475   0.000  0.00  0.00    +0.000 C 
ATOM     16  N   UNL     1      -4.287   3.300   0.000  0.00  0.00    +0.000 NA
ATOM     17  C   UNL     1      -5.001   3.712   0.000  0.00  0.00    +0.000 C 
ATOM     18  C   UNL     1      -3.572   3.712   0.000  0.00  0.00    +0.000 C 
ATOM     19  C   UNL     1      -2.858   3.300   0.000  0.00  0.00    +0.000 C 
ATOM     20  N   UNL     1       1.429   0.000   0.000  0.00  0.00    +0.000 NA
ATOM     21  C   UNL     1       2.143  -0.412   0.000  0.00  0.00    +0.000 A 
ATOM     22  C   UNL     1       2.143  -1.238   0.000  0.00  0.00    +0.000 A 
ATOM     23  C   UNL     1       2.858  -1.650   0.000  0.00  0.00    +0.000 C 
ATOM     24  N   UNL     1       3.572  -2.062   0.000  0.00  0.00    +0.000 NA
ATOM     25  C   UNL     1       1.429  -1.650   0.000  0.00  0.00    +0.000 A 
ATOM     26  N   UNL     1       1.429  -2.475   0.000  0.00  0.00    +0.000 NA
ATOM     27  C   UNL     1       0.715  -2.888   0.000  0.00  0.00    +0.000 A 
ATOM     28  C   UNL     1       0.000  -2.475   0.000  0.00  0.00    +0.000 A 
ATOM     29  C   UNL     1      -0.715  -2.888   0.000  0.00  0.00    +0.000 A 
ATOM     30  O   UNL     1      -1.429  -2.475   0.000  0.00  0.00    +0.000 OA
ATOM     31  C   UNL     1      -2.143  -2.888   0.000  0.00  0.00    +0.000 C 
ATOM     32  C   UNL     1      -0.715  -3.712   0.000  0.00  0.00    +0.000 A 
ATOM     33 CL   UNL     1      -1.429  -4.125   0.000  0.00  0.00    +0.000 Cl
ATOM     34  C   UNL     1       0.000  -4.125   0.000  0.00  0.00    +0.000 A 
ATOM     35  C   UNL     1       0.715  -3.712   0.000  0.00  0.00    +0.000 A 
ATOM     36 CL   UNL     1       1.429  -4.125   0.000  0.00  0.00    +0.000 Cl
ENDROOT
TORSDOF 0
