ROOT
REMARK  Name = brovanexine
REMARK                            x       y       z     vdW  Elec       q    Type
REMARK                         _______ _______ _______ _____ _____    ______ ____
ATOM      1  C   UNL     1       2.858  -2.475   0.000  0.00  0.00    +0.000 C 
ATOM      2  O   UNL     1       3.572  -2.888   0.000  0.00  0.00    +0.000 OA
ATOM      3  C   UNL     1       3.572  -3.712   0.000  0.00  0.00    +0.000 A 
ATOM      4  C   UNL     1       4.287  -4.125   0.000  0.00  0.00    +0.000 A 
ATOM      5  O   UNL     1       5.001  -3.712   0.000  0.00  0.00    +0.000 OA
ATOM      6  C   UNL     1       5.001  -2.888   0.000  0.00  0.00    +0.000 C 
ATOM      7  C   UNL     1       5.716  -2.475   0.000  0.00  0.00    +0.000 C 
ATOM      8  O   UNL     1       4.287  -2.475   0.000  0.00  0.00    +0.000 OA
ATOM      9  C   UNL     1       4.287  -4.950   0.000  0.00  0.00    +0.000 A 
ATOM     10  C   UNL     1       3.572  -5.362   0.000  0.00  0.00    +0.000 A 
ATOM     11  C   UNL     1       2.858  -4.950   0.000  0.00  0.00    +0.000 A 
ATOM     12  C   UNL     1       2.858  -4.125   0.000  0.00  0.00    +0.000 A 
ATOM     13  C   UNL     1       2.143  -5.362   0.000  0.00  0.00    +0.000 C 
ATOM     14  O   UNL     1       1.429  -4.950   0.000  0.00  0.00    +0.000 OA
ATOM     15  N   UNL     1       2.143  -6.188   0.000  0.00  0.00    +0.000 NA
ATOM     16  C   UNL     1       1.429  -6.600   0.000  0.00  0.00    +0.000 A 
ATOM     17  C   UNL     1       1.429  -7.425   0.000  0.00  0.00    +0.000 A 
ATOM     18  C   UNL     1       2.143  -7.838   0.000  0.00  0.00    +0.000 C 
ATOM     19  N   UNL     1       2.143  -8.662   0.000  0.00  0.00    +0.000 NA
ATOM     20  C   UNL     1       2.858  -9.075   0.000  0.00  0.00    +0.000 C 
ATOM     21  C   UNL     1       1.429  -9.075   0.000  0.00  0.00    +0.000 C 
ATOM     22  C   UNL     1       1.429  -9.900   0.000  0.00  0.00    +0.000 C 
ATOM     23  C   UNL     1       0.715 -10.312   0.000  0.00  0.00    +0.000 C 
ATOM     24  C   UNL     1       0.000  -9.900   0.000  0.00  0.00    +0.000 C 
ATOM     25  C   UNL     1       0.000  -9.075   0.000  0.00  0.00    +0.000 C 
ATOM     26  C   UNL     1       0.715  -8.662   0.000  0.00  0.00    +0.000 C 
ATOM     27  C   UNL     1       0.715  -7.838   0.000  0.00  0.00    +0.000 A 
ATOM     28  C   UNL     1       0.000  -7.425   0.000  0.00  0.00    +0.000 A 
ATOM     29 BR   UNL     1      -0.715  -7.838   0.000  0.00  0.00    +0.000 Br
ATOM     30  C   UNL     1       0.000  -6.600   0.000  0.00  0.00    +0.000 A 
ATOM     31  C   UNL     1       0.715  -6.188   0.000  0.00  0.00    +0.000 A 
ATOM     32 BR   UNL     1       0.715  -5.362   0.000  0.00  0.00    +0.000 Br
ENDROOT
TORSDOF 0
