ROOT
REMARK  Name = bufogenin
REMARK                            x       y       z     vdW  Elec       q    Type
REMARK                         _______ _______ _______ _____ _____    ______ ____
ATOM      1  C   UNL     1       0.602   1.736   0.000  0.00  0.00    +0.000 C 
ATOM      2  C   UNL     1       0.962   0.993   0.000  0.00  0.00    +0.000 C 
ATOM      3  C   UNL     1       1.493   1.624   0.000  0.00  0.00    +0.000 C 
ATOM      4  C   UNL     1       2.305   1.479   0.000  0.00  0.00    +0.000 C 
ATOM      5  C   UNL     1       2.586   0.703   0.000  0.00  0.00    +0.000 C 
ATOM      6  C   UNL     1       2.054   0.072   0.000  0.00  0.00    +0.000 C 
ATOM      7  C   UNL     1       2.334  -0.704   0.000  0.00  0.00    +0.000 C 
ATOM      8  C   UNL     1       3.146  -0.849   0.000  0.00  0.00    +0.000 C 
ATOM      9  C   UNL     1       3.678  -0.218   0.000  0.00  0.00    +0.000 C 
ATOM     10  C   UNL     1       4.490  -0.363   0.000  0.00  0.00    +0.000 C 
ATOM     11  C   UNL     1       5.022   0.267   0.000  0.00  0.00    +0.000 C 
ATOM     12  O   UNL     1       5.834   0.122   0.000  0.00  0.00    +0.000 OA
ATOM     13  C   UNL     1       4.742   1.043   0.000  0.00  0.00    +0.000 C 
ATOM     14  C   UNL     1       3.930   1.188   0.000  0.00  0.00    +0.000 C 
ATOM     15  C   UNL     1       3.398   0.558   0.000  0.00  0.00    +0.000 C 
ATOM     16  C   UNL     1       3.118   1.334   0.000  0.00  0.00    +0.000 C 
ATOM     17  C   UNL     1       1.242   0.217   0.000  0.00  0.00    +0.000 C 
ATOM     18  O   UNL     1       1.355  -0.600   0.000  0.00  0.00    +0.000 OA
ATOM     19  C   UNL     1       0.591  -0.289   0.000  0.00  0.00    +0.000 C 
ATOM     20  C   UNL     1      -0.092   0.174   0.000  0.00  0.00    +0.000 C 
ATOM     21  C   UNL     1       0.137   0.967   0.000  0.00  0.00    +0.000 C 
ATOM     22  C   UNL     1      -0.369   1.618   0.000  0.00  0.00    +0.000 A 
ATOM     23  C   UNL     1      -1.187   1.505   0.000  0.00  0.00    +0.000 A 
ATOM     24  O   UNL     1      -1.693   2.156   0.000  0.00  0.00    +0.000 OA
ATOM     25  C   UNL     1      -1.382   2.921   0.000  0.00  0.00    +0.000 A 
ATOM     26  O   UNL     1      -1.888   3.572   0.000  0.00  0.00    +0.000 OA
ATOM     27  C   UNL     1      -0.565   3.033   0.000  0.00  0.00    +0.000 A 
ATOM     28  C   UNL     1      -0.058   2.382   0.000  0.00  0.00    +0.000 A 
ENDROOT
TORSDOF 0
