ROOT
REMARK  Name = bunitrolol
REMARK                            x       y       z     vdW  Elec       q    Type
REMARK                         _______ _______ _______ _____ _____    ______ ____
ATOM      1  C   UNL     1      -2.143   5.362   0.000  0.00  0.00    +0.000 C 
ATOM      2  C   UNL     1      -1.429   4.950   0.000  0.00  0.00    +0.000 C 
ATOM      3  C   UNL     1      -1.841   4.236   0.000  0.00  0.00    +0.000 C 
ATOM      4  C   UNL     1      -1.016   5.665   0.000  0.00  0.00    +0.000 C 
ATOM      5  N   UNL     1      -0.715   4.537   0.000  0.00  0.00    +0.000 NA
ATOM      6  C   UNL     1      -0.715   3.712   0.000  0.00  0.00    +0.000 C 
ATOM      7  C   UNL     1       0.000   3.300   0.000  0.00  0.00    +0.000 C 
ATOM      8  O   UNL     1       0.715   3.712   0.000  0.00  0.00    +0.000 OA
ATOM      9  C   UNL     1       0.000   2.475   0.000  0.00  0.00    +0.000 C 
ATOM     10  O   UNL     1       0.715   2.062   0.000  0.00  0.00    +0.000 OA
ATOM     11  C   UNL     1       0.715   1.238   0.000  0.00  0.00    +0.000 A 
ATOM     12  C   UNL     1       1.429   0.825   0.000  0.00  0.00    +0.000 A 
ATOM     13  C   UNL     1       1.429   0.000   0.000  0.00  0.00    +0.000 A 
ATOM     14  C   UNL     1       0.715  -0.412   0.000  0.00  0.00    +0.000 A 
ATOM     15  C   UNL     1       0.000   0.000   0.000  0.00  0.00    +0.000 A 
ATOM     16  C   UNL     1       0.000   0.825   0.000  0.00  0.00    +0.000 A 
ATOM     17  C   UNL     1       2.143   1.238   0.000  0.00  0.00    +0.000 C 
ATOM     18  N   UNL     1       2.858   1.650   0.000  0.00  0.00    +0.000 NA
ENDROOT
TORSDOF 0
