ROOT
REMARK  Name = buspirone
REMARK                            x       y       z     vdW  Elec       q    Type
REMARK                         _______ _______ _______ _____ _____    ______ ____
ATOM      1  O   UNL     1       2.920  -1.016   0.000  0.00  0.00    +0.000 OA
ATOM      2  C   UNL     1       2.507  -0.302   0.000  0.00  0.00    +0.000 C 
ATOM      3  C   UNL     1       1.682  -0.302   0.000  0.00  0.00    +0.000 C 
ATOM      4  C   UNL     1       1.270   0.412   0.000  0.00  0.00    +0.000 C 
ATOM      5  C   UNL     1       0.785  -0.255   0.000  0.00  0.00    +0.000 C 
ATOM      6  C   UNL     1       0.000   0.000   0.000  0.00  0.00    +0.000 C 
ATOM      7  C   UNL     1       0.000   0.825   0.000  0.00  0.00    +0.000 C 
ATOM      8  C   UNL     1       0.785   1.080   0.000  0.00  0.00    +0.000 C 
ATOM      9  C   UNL     1       1.682   1.127   0.000  0.00  0.00    +0.000 C 
ATOM     10  C   UNL     1       2.507   1.127   0.000  0.00  0.00    +0.000 C 
ATOM     11  O   UNL     1       2.920   1.841   0.000  0.00  0.00    +0.000 OA
ATOM     12  N   UNL     1       2.920   0.412   0.000  0.00  0.00    +0.000 N 
ATOM     13  C   UNL     1       3.744   0.412   0.000  0.00  0.00    +0.000 C 
ATOM     14  C   UNL     1       4.157   1.127   0.000  0.00  0.00    +0.000 C 
ATOM     15  C   UNL     1       4.982   1.127   0.000  0.00  0.00    +0.000 C 
ATOM     16  C   UNL     1       5.394   1.841   0.000  0.00  0.00    +0.000 C 
ATOM     17  N   UNL     1       6.220   1.841   0.000  0.00  0.00    +0.000 NA
ATOM     18  C   UNL     1       6.632   2.556   0.000  0.00  0.00    +0.000 C 
ATOM     19  C   UNL     1       7.457   2.556   0.000  0.00  0.00    +0.000 C 
ATOM     20  N   UNL     1       7.870   1.841   0.000  0.00  0.00    +0.000 N 
ATOM     21  C   UNL     1       7.457   1.127   0.000  0.00  0.00    +0.000 C 
ATOM     22  C   UNL     1       6.632   1.127   0.000  0.00  0.00    +0.000 C 
ATOM     23  C   UNL     1       8.694   1.841   0.000  0.00  0.00    +0.000 A 
ATOM     24  N   UNL     1       9.107   2.556   0.000  0.00  0.00    +0.000 NA
ATOM     25  C   UNL     1       9.932   2.556   0.000  0.00  0.00    +0.000 A 
ATOM     26  C   UNL     1      10.345   1.841   0.000  0.00  0.00    +0.000 A 
ATOM     27  C   UNL     1       9.932   1.127   0.000  0.00  0.00    +0.000 A 
ATOM     28  N   UNL     1       9.107   1.127   0.000  0.00  0.00    +0.000 NA
ENDROOT
TORSDOF 0
