ROOT
REMARK  Name = butalamine
REMARK                            x       y       z     vdW  Elec       q    Type
REMARK                         _______ _______ _______ _____ _____    ______ ____
ATOM      1  C   UNL     1       1.710  -3.313   0.000  0.00  0.00    +0.000 C 
ATOM      2  C   UNL     1       2.520  -3.469   0.000  0.00  0.00    +0.000 C 
ATOM      3  C   UNL     1       2.790  -4.249   0.000  0.00  0.00    +0.000 C 
ATOM      4  C   UNL     1       3.600  -4.404   0.000  0.00  0.00    +0.000 C 
ATOM      5  N   UNL     1       3.870  -5.184   0.000  0.00  0.00    +0.000 NA
ATOM      6  C   UNL     1       3.330  -5.808   0.000  0.00  0.00    +0.000 C 
ATOM      7  C   UNL     1       2.520  -5.652   0.000  0.00  0.00    +0.000 C 
ATOM      8  C   UNL     1       1.980  -6.275   0.000  0.00  0.00    +0.000 C 
ATOM      9  C   UNL     1       1.170  -6.120   0.000  0.00  0.00    +0.000 C 
ATOM     10  C   UNL     1       4.680  -5.340   0.000  0.00  0.00    +0.000 C 
ATOM     11  C   UNL     1       4.950  -6.120   0.000  0.00  0.00    +0.000 C 
ATOM     12  N   UNL     1       5.760  -6.275   0.000  0.00  0.00    +0.000 NA
ATOM     13  C   UNL     1       6.030  -7.055   0.000  0.00  0.00    +0.000 A 
ATOM     14  N   UNL     1       6.820  -7.295   0.000  0.00  0.00    +0.000 NA
ATOM     15  C   UNL     1       6.836  -8.120   0.000  0.00  0.00    +0.000 A 
ATOM     16  N   UNL     1       6.056  -8.390   0.000  0.00  0.00    +0.000 NA
ATOM     17  O   UNL     1       5.559  -7.732   0.000  0.00  0.00    +0.000 OA
ATOM     18  C   UNL     1       7.512  -8.591   0.000  0.00  0.00    +0.000 A 
ATOM     19  C   UNL     1       8.259  -8.241   0.000  0.00  0.00    +0.000 A 
ATOM     20  C   UNL     1       8.936  -8.713   0.000  0.00  0.00    +0.000 A 
ATOM     21  C   UNL     1       8.866  -9.535   0.000  0.00  0.00    +0.000 A 
ATOM     22  C   UNL     1       8.119  -9.885   0.000  0.00  0.00    +0.000 A 
ATOM     23  C   UNL     1       7.442  -9.414   0.000  0.00  0.00    +0.000 A 
ENDROOT
TORSDOF 0
