ROOT
REMARK  Name = butidrine
REMARK                            x       y       z     vdW  Elec       q    Type
REMARK                         _______ _______ _______ _____ _____    ______ ____
ATOM      1  C   UNL     1       5.001  -2.062   0.000  0.00  0.00    +0.000 C 
ATOM      2  C   UNL     1       5.716  -1.650   0.000  0.00  0.00    +0.000 C 
ATOM      3  C   UNL     1       6.430  -2.062   0.000  0.00  0.00    +0.000 C 
ATOM      4  C   UNL     1       6.430  -2.888   0.000  0.00  0.00    +0.000 C 
ATOM      5  N   UNL     1       7.145  -1.650   0.000  0.00  0.00    +0.000 NA
ATOM      6  C   UNL     1       7.859  -2.062   0.000  0.00  0.00    +0.000 C 
ATOM      7  C   UNL     1       8.574  -1.650   0.000  0.00  0.00    +0.000 C 
ATOM      8  O   UNL     1       8.574  -0.825   0.000  0.00  0.00    +0.000 OA
ATOM      9  C   UNL     1       9.288  -2.062   0.000  0.00  0.00    +0.000 A 
ATOM     10  C   UNL     1      10.003  -1.650   0.000  0.00  0.00    +0.000 A 
ATOM     11  C   UNL     1      10.717  -2.062   0.000  0.00  0.00    +0.000 A 
ATOM     12  C   UNL     1      10.717  -2.888   0.000  0.00  0.00    +0.000 A 
ATOM     13  C   UNL     1      11.431  -3.300   0.000  0.00  0.00    +0.000 C 
ATOM     14  C   UNL     1      11.431  -4.125   0.000  0.00  0.00    +0.000 C 
ATOM     15  C   UNL     1      10.717  -4.537   0.000  0.00  0.00    +0.000 C 
ATOM     16  C   UNL     1      10.003  -4.125   0.000  0.00  0.00    +0.000 C 
ATOM     17  C   UNL     1      10.003  -3.300   0.000  0.00  0.00    +0.000 A 
ATOM     18  C   UNL     1       9.288  -2.888   0.000  0.00  0.00    +0.000 A 
ENDROOT
TORSDOF 0
