ROOT
REMARK  Name = butofilolol
REMARK                            x       y       z     vdW  Elec       q    Type
REMARK                         _______ _______ _______ _____ _____    ______ ____
ATOM      1  C   UNL     1      -0.715   3.712   0.000  0.00  0.00    +0.000 C 
ATOM      2  C   UNL     1       0.000   3.300   0.000  0.00  0.00    +0.000 C 
ATOM      3  C   UNL     1       0.000   2.475   0.000  0.00  0.00    +0.000 C 
ATOM      4  C   UNL     1       0.715   2.062   0.000  0.00  0.00    +0.000 C 
ATOM      5  O   UNL     1       1.429   2.475   0.000  0.00  0.00    +0.000 OA
ATOM      6  C   UNL     1       0.715   1.238   0.000  0.00  0.00    +0.000 A 
ATOM      7  C   UNL     1       1.429   0.825   0.000  0.00  0.00    +0.000 A 
ATOM      8  O   UNL     1       2.143   1.238   0.000  0.00  0.00    +0.000 OA
ATOM      9  C   UNL     1       2.143   2.062   0.000  0.00  0.00    +0.000 C 
ATOM     10  C   UNL     1       2.858   2.475   0.000  0.00  0.00    +0.000 C 
ATOM     11  O   UNL     1       3.572   2.062   0.000  0.00  0.00    +0.000 OA
ATOM     12  C   UNL     1       2.858   3.300   0.000  0.00  0.00    +0.000 C 
ATOM     13  N   UNL     1       3.572   3.712   0.000  0.00  0.00    +0.000 NA
ATOM     14  C   UNL     1       3.572   4.537   0.000  0.00  0.00    +0.000 C 
ATOM     15  C   UNL     1       3.572   5.362   0.000  0.00  0.00    +0.000 C 
ATOM     16  C   UNL     1       4.397   4.537   0.000  0.00  0.00    +0.000 C 
ATOM     17  C   UNL     1       2.747   4.537   0.000  0.00  0.00    +0.000 C 
ATOM     18  C   UNL     1       1.429   0.000   0.000  0.00  0.00    +0.000 A 
ATOM     19  C   UNL     1       0.715  -0.412   0.000  0.00  0.00    +0.000 A 
ATOM     20  C   UNL     1       0.000   0.000   0.000  0.00  0.00    +0.000 A 
ATOM     21  F   UNL     1      -0.715  -0.412   0.000  0.00  0.00    +0.000 F 
ATOM     22  C   UNL     1       0.000   0.825   0.000  0.00  0.00    +0.000 A 
ENDROOT
TORSDOF 0
