ROOT
REMARK  Name = butriptyline
REMARK                            x       y       z     vdW  Elec       q    Type
REMARK                         _______ _______ _______ _____ _____    ______ ____
ATOM      1  C   UNL     1      -0.327  -2.387   0.000  0.00  0.00    +0.000 C 
ATOM      2  C   UNL     1      -0.327  -1.562   0.000  0.00  0.00    +0.000 C 
ATOM      3  C   UNL     1      -1.041  -1.149   0.000  0.00  0.00    +0.000 C 
ATOM      4  C   UNL     1      -1.756  -1.562   0.000  0.00  0.00    +0.000 C 
ATOM      5  C   UNL     1      -1.694  -2.385   0.000  0.00  0.00    +0.000 A 
ATOM      6  C   UNL     1      -0.906  -2.628   0.000  0.00  0.00    +0.000 A 
ATOM      7  C   UNL     1      -0.722  -3.432   0.000  0.00  0.00    +0.000 A 
ATOM      8  C   UNL     1      -1.327  -3.993   0.000  0.00  0.00    +0.000 A 
ATOM      9  C   UNL     1      -2.115  -3.750   0.000  0.00  0.00    +0.000 A 
ATOM     10  C   UNL     1      -2.299  -2.946   0.000  0.00  0.00    +0.000 A 
ATOM     11  C   UNL     1      -3.115  -2.823   0.000  0.00  0.00    +0.000 C 
ATOM     12  C   UNL     1      -3.527  -2.108   0.000  0.00  0.00    +0.000 C 
ATOM     13  C   UNL     1      -3.226  -1.340   0.000  0.00  0.00    +0.000 A 
ATOM     14  C   UNL     1      -2.438  -1.097   0.000  0.00  0.00    +0.000 A 
ATOM     15  C   UNL     1      -2.254  -0.293   0.000  0.00  0.00    +0.000 A 
ATOM     16  C   UNL     1      -2.859   0.268   0.000  0.00  0.00    +0.000 A 
ATOM     17  C   UNL     1      -3.647   0.025   0.000  0.00  0.00    +0.000 A 
ATOM     18  C   UNL     1      -3.831  -0.779   0.000  0.00  0.00    +0.000 A 
ATOM     19  C   UNL     1       0.388  -1.149   0.000  0.00  0.00    +0.000 C 
ATOM     20  N   UNL     1       1.102  -1.562   0.000  0.00  0.00    +0.000 NA
ATOM     21  C   UNL     1       1.817  -1.149   0.000  0.00  0.00    +0.000 C 
ATOM     22  C   UNL     1       1.102  -2.387   0.000  0.00  0.00    +0.000 C 
ENDROOT
TORSDOF 0
