ROOT
REMARK  Name = cabozantinib
REMARK                            x       y       z     vdW  Elec       q    Type
REMARK                         _______ _______ _______ _____ _____    ______ ____
ATOM      1  C   UNL     1      -0.715  -0.412   0.000  0.00  0.00    +0.000 C 
ATOM      2  O   UNL     1       0.000   0.000   0.000  0.00  0.00    +0.000 OA
ATOM      3  C   UNL     1       0.715  -0.412   0.000  0.00  0.00    +0.000 A 
ATOM      4  C   UNL     1       1.429   0.000   0.000  0.00  0.00    +0.000 A 
ATOM      5  C   UNL     1       2.143  -0.412   0.000  0.00  0.00    +0.000 A 
ATOM      6  N   UNL     1       2.858   0.000   0.000  0.00  0.00    +0.000 NA
ATOM      7  C   UNL     1       3.572  -0.412   0.000  0.00  0.00    +0.000 A 
ATOM      8  C   UNL     1       3.572  -1.238   0.000  0.00  0.00    +0.000 A 
ATOM      9  C   UNL     1       2.858  -1.650   0.000  0.00  0.00    +0.000 A 
ATOM     10  O   UNL     1       2.858  -2.475   0.000  0.00  0.00    +0.000 OA
ATOM     11  C   UNL     1       2.143  -2.888   0.000  0.00  0.00    +0.000 A 
ATOM     12  C   UNL     1       2.143  -3.712   0.000  0.00  0.00    +0.000 A 
ATOM     13  C   UNL     1       1.429  -4.125   0.000  0.00  0.00    +0.000 A 
ATOM     14  C   UNL     1       0.715  -3.712   0.000  0.00  0.00    +0.000 A 
ATOM     15  N   UNL     1       0.000  -4.125   0.000  0.00  0.00    +0.000 NA
ATOM     16  C   UNL     1       0.000  -4.950   0.000  0.00  0.00    +0.000 C 
ATOM     17  O   UNL     1       0.715  -5.362   0.000  0.00  0.00    +0.000 OA
ATOM     18  C   UNL     1      -0.715  -5.362   0.000  0.00  0.00    +0.000 C 
ATOM     19  C   UNL     1      -1.527  -5.506   0.000  0.00  0.00    +0.000 C 
ATOM     20  C   UNL     1      -1.245  -4.731   0.000  0.00  0.00    +0.000 C 
ATOM     21  C   UNL     1      -0.432  -6.138   0.000  0.00  0.00    +0.000 C 
ATOM     22  O   UNL     1       0.380  -6.281   0.000  0.00  0.00    +0.000 OA
ATOM     23  N   UNL     1      -0.963  -6.770   0.000  0.00  0.00    +0.000 NA
ATOM     24  C   UNL     1      -1.775  -6.627   0.000  0.00  0.00    +0.000 A 
ATOM     25  C   UNL     1      -2.305  -7.258   0.000  0.00  0.00    +0.000 A 
ATOM     26  C   UNL     1      -3.118  -7.115   0.000  0.00  0.00    +0.000 A 
ATOM     27  C   UNL     1      -3.400  -6.340   0.000  0.00  0.00    +0.000 A 
ATOM     28  F   UNL     1      -4.213  -6.197   0.000  0.00  0.00    +0.000 F 
ATOM     29  C   UNL     1      -2.870  -5.708   0.000  0.00  0.00    +0.000 A 
ATOM     30  C   UNL     1      -2.057  -5.851   0.000  0.00  0.00    +0.000 A 
ATOM     31  C   UNL     1       0.715  -2.888   0.000  0.00  0.00    +0.000 A 
ATOM     32  C   UNL     1       1.429  -2.475   0.000  0.00  0.00    +0.000 A 
ATOM     33  C   UNL     1       2.143  -1.238   0.000  0.00  0.00    +0.000 A 
ATOM     34  C   UNL     1       1.429  -1.650   0.000  0.00  0.00    +0.000 A 
ATOM     35  C   UNL     1       0.715  -1.238   0.000  0.00  0.00    +0.000 A 
ATOM     36  O   UNL     1       0.000  -1.650   0.000  0.00  0.00    +0.000 OA
ATOM     37  C   UNL     1      -0.715  -1.238   0.000  0.00  0.00    +0.000 C 
ENDROOT
TORSDOF 0
