ROOT
REMARK  Name = canfosfamide
REMARK                            x       y       z     vdW  Elec       q    Type
REMARK                         _______ _______ _______ _____ _____    ______ ____
ATOM      1  N   UNK A   1      10.835  -2.829   0.000  0.00  0.00    +0.000 NA
ATOM      2  C   UNK A   1      10.621  -2.032   0.000  0.00  0.00    +0.000 C 
ATOM      3  C   UNK A   1       9.825  -1.819   0.000  0.00  0.00    +0.000 C 
ATOM      4  C   UNK A   1       9.241  -2.402   0.000  0.00  0.00    +0.000 C 
ATOM      5  C   UNK A   1       8.444  -2.188   0.000  0.00  0.00    +0.000 C 
ATOM      6  O   UNK A   1       8.231  -1.391   0.000  0.00  0.00    +0.000 OA
ATOM      7  N   UNK A   1       7.861  -2.772   0.000  0.00  0.00    +0.000 NA
ATOM      8  C   UNK A   1       7.064  -2.558   0.000  0.00  0.00    +0.000 C 
ATOM      9  C   UNK A   1       6.481  -3.142   0.000  0.00  0.00    +0.000 C 
ATOM     10  S   UNK A   1       6.694  -3.938   0.000  0.00  0.00    +0.000 S 
ATOM     11  O   UNK A   1       7.491  -3.725   0.000  0.00  0.00    +0.000 OA
ATOM     12  O   UNK A   1       5.897  -4.152   0.000  0.00  0.00    +0.000 OA
ATOM     13  C   UNK A   1       6.908  -4.735   0.000  0.00  0.00    +0.000 C 
ATOM     14  C   UNK A   1       6.324  -5.319   0.000  0.00  0.00    +0.000 C 
ATOM     15  O   UNK A   1       6.538  -6.115   0.000  0.00  0.00    +0.000 OA
ATOM     16  P   UNK A   1       5.955  -6.699   0.000  0.00  0.00    +0.000 P 
ATOM     17  O   UNK A   1       5.371  -6.115   0.000  0.00  0.00    +0.000 OA
ATOM     18  N   UNK A   1       5.371  -7.282   0.000  0.00  0.00    +0.000 NA
ATOM     19  C   UNK A   1       5.585  -8.079   0.000  0.00  0.00    +0.000 C 
ATOM     20  C   UNK A   1       5.001  -8.662   0.000  0.00  0.00    +0.000 C 
ATOM     21 CL   UNK A   1       5.215  -9.459   0.000  0.00  0.00    +0.000 Cl
ATOM     22  C   UNK A   1       4.574  -7.069   0.000  0.00  0.00    +0.000 C 
ATOM     23  C   UNK A   1       3.991  -7.652   0.000  0.00  0.00    +0.000 C 
ATOM     24 CL   UNK A   1       3.194  -7.439   0.000  0.00  0.00    +0.000 Cl
ATOM     25  N   UNK A   1       6.538  -7.282   0.000  0.00  0.00    +0.000 NA
ATOM     26  C   UNK A   1       6.324  -8.079   0.000  0.00  0.00    +0.000 C 
ATOM     27  C   UNK A   1       6.908  -8.662   0.000  0.00  0.00    +0.000 C 
ATOM     28 CL   UNK A   1       6.694  -9.459   0.000  0.00  0.00    +0.000 Cl
ATOM     29  C   UNK A   1       7.335  -7.069   0.000  0.00  0.00    +0.000 C 
ATOM     30  C   UNK A   1       7.918  -7.652   0.000  0.00  0.00    +0.000 C 
ATOM     31 CL   UNK A   1       7.705  -8.449   0.000  0.00  0.00    +0.000 Cl
ATOM     32  C   UNK A   1       6.851  -1.761   0.000  0.00  0.00    +0.000 C 
ATOM     33  O   UNK A   1       6.054  -1.548   0.000  0.00  0.00    +0.000 OA
ATOM     34  N   UNK A   2       7.434  -1.178   0.000  0.00  0.00    +0.000 NA
ATOM     35  C   UNK A   2       7.220  -0.381   0.000  0.00  0.00    +0.000 C 
ATOM     36  C   UNK A   2       6.423  -0.168   0.000  0.00  0.00    +0.000 C 
ATOM     37  O   UNK A   2       5.840  -0.751   0.000  0.00  0.00    +0.000 OA
ATOM     38  O   UNK A   2       6.210   0.629   0.000  0.00  0.00    +0.000 OA
ATOM     39  C   UNK A   2       7.804   0.202   0.000  0.00  0.00    +0.000 A 
ATOM     40  C   UNK A   2       7.590   0.999   0.000  0.00  0.00    +0.000 A 
ATOM     41  C   UNK A   2       8.174   1.583   0.000  0.00  0.00    +0.000 A 
ATOM     42  C   UNK A   2       8.970   1.369   0.000  0.00  0.00    +0.000 A 
ATOM     43  C   UNK A   2       9.184   0.572   0.000  0.00  0.00    +0.000 A 
ATOM     44  C   UNK A   2       8.601  -0.011   0.000  0.00  0.00    +0.000 A 
ATOM     45  C   UNK A   1      11.205  -1.449   0.000  0.00  0.00    +0.000 C 
ATOM     46  O   UNK A   1      10.991  -0.652   0.000  0.00  0.00    +0.000 OA
ATOM     47  O   UNK A   1      12.002  -1.662   0.000  0.00  0.00    +0.000 OA
ENDROOT
TORSDOF 0
