ROOT
REMARK  Name = carbomycin
REMARK                            x       y       z     vdW  Elec       q    Type
REMARK                         _______ _______ _______ _____ _____    ______ ____
ATOM      1  C   UNL     1      11.475  -1.444   0.000  0.00  0.00    +0.000 C 
ATOM      2  C   UNL     1      10.774  -1.880   0.000  0.00  0.00    +0.000 C 
ATOM      3  C   UNL     1      10.802  -2.704   0.000  0.00  0.00    +0.000 C 
ATOM      4  C   UNL     1       9.985  -2.588   0.000  0.00  0.00    +0.000 C 
ATOM      5  O   UNL     1      10.546  -3.489   0.000  0.00  0.00    +0.000 OA
ATOM      6  C   UNL     1      11.530  -3.093   0.000  0.00  0.00    +0.000 C 
ATOM      7  O   UNL     1      11.558  -3.917   0.000  0.00  0.00    +0.000 OA
ATOM      8  C   UNL     1      12.285  -4.306   0.000  0.00  0.00    +0.000 C 
ATOM      9  O   UNL     1      12.986  -3.870   0.000  0.00  0.00    +0.000 OA
ATOM     10  C   UNL     1      12.313  -5.130   0.000  0.00  0.00    +0.000 C 
ATOM     11  C   UNL     1      13.041  -5.519   0.000  0.00  0.00    +0.000 C 
ATOM     12  C   UNL     1      13.069  -6.343   0.000  0.00  0.00    +0.000 C 
ATOM     13  C   UNL     1      13.741  -5.082   0.000  0.00  0.00    +0.000 C 
ATOM     14  C   UNL     1      12.230  -2.657   0.000  0.00  0.00    +0.000 C 
ATOM     15  C   UNL     1      12.958  -3.045   0.000  0.00  0.00    +0.000 C 
ATOM     16  O   UNL     1      12.203  -1.832   0.000  0.00  0.00    +0.000 OA
ATOM     17  O   UNL     1      11.447  -0.619   0.000  0.00  0.00    +0.000 OA
ATOM     18  C   UNL     1      10.719  -0.231   0.000  0.00  0.00    +0.000 C 
ATOM     19  C   UNL     1      10.019  -0.667   0.000  0.00  0.00    +0.000 C 
ATOM     20  C   UNL     1      10.047  -1.492   0.000  0.00  0.00    +0.000 C 
ATOM     21  O   UNL     1       9.291  -0.279   0.000  0.00  0.00    +0.000 OA
ATOM     22  C   UNL     1       9.264   0.546   0.000  0.00  0.00    +0.000 C 
ATOM     23  O   UNL     1       8.536   0.934   0.000  0.00  0.00    +0.000 OA
ATOM     24  C   UNL     1       7.735   0.736   0.000  0.00  0.00    +0.000 C 
ATOM     25  C   UNL     1       8.095  -0.006   0.000  0.00  0.00    +0.000 C 
ATOM     26  C   UNL     1       8.918  -0.065   0.000  0.00  0.00    +0.000 C 
ATOM     27  C   UNL     1       9.279  -0.807   0.000  0.00  0.00    +0.000 C 
ATOM     28  O   UNL     1       8.817  -1.490   0.000  0.00  0.00    +0.000 OA
ATOM     29  C   UNL     1       7.633  -0.690   0.000  0.00  0.00    +0.000 C 
ATOM     30  C   UNL     1       6.810  -0.631   0.000  0.00  0.00    +0.000 C 
ATOM     31  C   UNL     1       6.348  -1.314   0.000  0.00  0.00    +0.000 C 
ATOM     32  C   UNL     1       6.450   0.111   0.000  0.00  0.00    +0.000 C 
ATOM     33  O   UNL     1       6.912   0.794   0.000  0.00  0.00    +0.000 OA
ATOM     34  C   UNL     1       5.627   0.170   0.000  0.00  0.00    +0.000 C 
ATOM     35  C   UNL     1       5.266   0.912   0.000  0.00  0.00    +0.000 C 
ATOM     36  C   UNL     1       4.443   0.971   0.000  0.00  0.00    +0.000 C 
ATOM     37  O   UNL     1       3.620   1.029   0.000  0.00  0.00    +0.000 OA
ATOM     38  C   UNL     1       4.083   1.713   0.000  0.00  0.00    +0.000 C 
ATOM     39  C   UNL     1       4.545   2.396   0.000  0.00  0.00    +0.000 C 
ATOM     40  C   UNL     1       5.368   2.337   0.000  0.00  0.00    +0.000 C 
ATOM     41  C   UNL     1       5.728   1.595   0.000  0.00  0.00    +0.000 C 
ATOM     42  O   UNL     1       5.830   3.021   0.000  0.00  0.00    +0.000 OA
ATOM     43  C   UNL     1       6.653   2.962   0.000  0.00  0.00    +0.000 C 
ATOM     44  O   UNL     1       7.115   3.645   0.000  0.00  0.00    +0.000 OA
ATOM     45  C   UNL     1       7.014   2.220   0.000  0.00  0.00    +0.000 C 
ATOM     46  C   UNL     1       7.837   2.161   0.000  0.00  0.00    +0.000 C 
ATOM     47  O   UNL     1       8.299   2.844   0.000  0.00  0.00    +0.000 OA
ATOM     48  C   UNL     1       7.938   3.586   0.000  0.00  0.00    +0.000 C 
ATOM     49  C   UNL     1       7.307   4.117   0.000  0.00  0.00    +0.000 C 
ATOM     50  O   UNL     1       8.400   4.270   0.000  0.00  0.00    +0.000 OA
ATOM     51  C   UNL     1       8.197   1.419   0.000  0.00  0.00    +0.000 C 
ATOM     52  O   UNL     1       9.020   1.360   0.000  0.00  0.00    +0.000 OA
ATOM     53  C   UNL     1       9.482   2.044   0.000  0.00  0.00    +0.000 C 
ATOM     54  C   UNL     1       9.964   0.982   0.000  0.00  0.00    +0.000 C 
ATOM     55  O   UNL     1       9.936   1.806   0.000  0.00  0.00    +0.000 OA
ATOM     56  C   UNL     1      10.692   0.594   0.000  0.00  0.00    +0.000 C 
ATOM     57  N   UNL     1      11.392   1.030   0.000  0.00  0.00    +0.000 NA
ATOM     58  C   UNL     1      12.120   0.641   0.000  0.00  0.00    +0.000 C 
ATOM     59  C   UNL     1      11.364   1.854   0.000  0.00  0.00    +0.000 C 
ENDROOT
TORSDOF 0
