ROOT
REMARK  Name = carbocysteine-lysine
REMARK                            x       y       z     vdW  Elec       q    Type
REMARK                         _______ _______ _______ _____ _____    ______ ____
ATOM      1  NZ  LYS A   2       4.759   3.572   0.000  0.00  0.00    +0.000 NA
ATOM      2  CE  LYS A   2       5.473   3.985   0.000  0.00  0.00    +0.000 C 
ATOM      3  CD  LYS A   2       6.188   3.572   0.000  0.00  0.00    +0.000 C 
ATOM      4  CG  LYS A   2       6.902   3.985   0.000  0.00  0.00    +0.000 C 
ATOM      5  CB  LYS A   2       7.616   3.572   0.000  0.00  0.00    +0.000 C 
ATOM      6  CA  LYS A   2       8.331   3.985   0.000  0.00  0.00    +0.000 C 
ATOM      7  N   LYS A   2       9.045   3.572   0.000  0.00  0.00    +0.000 NA
ATOM      8  C   UNK A   1       9.760   3.985   0.000  0.00  0.00    +0.000 C 
ATOM      9  O   UNK A   1       9.760   4.810   0.000  0.00  0.00    +0.000 OA
ATOM     10  C   UNK A   1      10.474   3.572   0.000  0.00  0.00    +0.000 C 
ATOM     11  N   UNK A   1      10.474   2.747   0.000  0.00  0.00    +0.000 NA
ATOM     12  C   UNK A   1      11.189   3.985   0.000  0.00  0.00    +0.000 C 
ATOM     13  S   UNK A   1      11.903   3.572   0.000  0.00  0.00    +0.000 S 
ATOM     14  C   UNK A   1      12.618   3.985   0.000  0.00  0.00    +0.000 C 
ATOM     15  C   UNK A   1      13.332   3.572   0.000  0.00  0.00    +0.000 C 
ATOM     16  O   UNK A   1      14.047   3.985   0.000  0.00  0.00    +0.000 OA
ATOM     17  O   UNK A   1      13.332   2.747   0.000  0.00  0.00    +0.000 OA
ATOM     18  C   LYS A   2       8.331   4.810   0.000  0.00  0.00    +0.000 C 
ATOM     19  O   LYS A   2       9.045   5.222   0.000  0.00  0.00    +0.000 OA
ATOM     20  OXT LYS A   2       7.616   5.222   0.000  0.00  0.00    +0.000 OA
ENDROOT
TORSDOF 0
