ROOT
REMARK  Name = carbromal
REMARK                            x       y       z     vdW  Elec       q    Type
REMARK                         _______ _______ _______ _____ _____    ______ ____
ATOM      1  C   UNL     1       1.238   3.572   0.000  0.00  0.00    +0.000 C 
ATOM      2  C   UNL     1       1.650   2.858   0.000  0.00  0.00    +0.000 C 
ATOM      3  C   UNL     1       1.238   2.143   0.000  0.00  0.00    +0.000 C 
ATOM      4 BR   UNL     1       0.523   2.556   0.000  0.00  0.00    +0.000 Br
ATOM      5  C   UNL     1       1.952   1.731   0.000  0.00  0.00    +0.000 C 
ATOM      6  C   UNL     1       1.952   0.906   0.000  0.00  0.00    +0.000 C 
ATOM      7  C   UNL     1       0.825   1.429   0.000  0.00  0.00    +0.000 C 
ATOM      8  O   UNL     1       0.000   1.429   0.000  0.00  0.00    +0.000 OA
ATOM      9  N   UNL     1       1.238   0.715   0.000  0.00  0.00    +0.000 NA
ATOM     10  C   UNL     1       0.825   0.000   0.000  0.00  0.00    +0.000 C 
ATOM     11  N   UNL     1       1.238  -0.715   0.000  0.00  0.00    +0.000 NA
ATOM     12  O   UNL     1       0.000   0.000   0.000  0.00  0.00    +0.000 OA
ENDROOT
TORSDOF 0
