ROOT
REMARK  Name = cariprazine
REMARK                            x       y       z     vdW  Elec       q    Type
REMARK                         _______ _______ _______ _____ _____    ______ ____
ATOM      1  C   UNL     1       0.000  -2.475   0.000  0.00  0.00    +0.000 C 
ATOM      2  N   UNL     1       0.715  -2.888   0.000  0.00  0.00    +0.000 N 
ATOM      3  C   UNL     1       1.429  -2.475   0.000  0.00  0.00    +0.000 C 
ATOM      4  C   UNL     1       0.715  -3.712   0.000  0.00  0.00    +0.000 C 
ATOM      5  O   UNL     1       0.000  -4.125   0.000  0.00  0.00    +0.000 OA
ATOM      6  N   UNL     1       1.429  -4.125   0.000  0.00  0.00    +0.000 NA
ATOM      7  C   UNL     1       1.429  -4.950   0.000  0.00  0.00    +0.000 C 
ATOM      8  C   UNL     1       2.143  -5.362   0.000  0.00  0.00    +0.000 C 
ATOM      9  C   UNL     1       2.143  -6.188   0.000  0.00  0.00    +0.000 C 
ATOM     10  C   UNL     1       1.429  -6.600   0.000  0.00  0.00    +0.000 C 
ATOM     11  C   UNL     1       1.429  -7.425   0.000  0.00  0.00    +0.000 C 
ATOM     12  C   UNL     1       2.143  -7.838   0.000  0.00  0.00    +0.000 C 
ATOM     13  N   UNL     1       2.143  -8.662   0.000  0.00  0.00    +0.000 NA
ATOM     14  C   UNL     1       2.858  -9.075   0.000  0.00  0.00    +0.000 C 
ATOM     15  C   UNL     1       2.858  -9.900   0.000  0.00  0.00    +0.000 C 
ATOM     16  N   UNL     1       2.143 -10.312   0.000  0.00  0.00    +0.000 N 
ATOM     17  C   UNL     1       1.429  -9.900   0.000  0.00  0.00    +0.000 C 
ATOM     18  C   UNL     1       1.429  -9.075   0.000  0.00  0.00    +0.000 C 
ATOM     19  C   UNL     1       2.143 -11.137   0.000  0.00  0.00    +0.000 A 
ATOM     20  C   UNL     1       2.858 -11.550   0.000  0.00  0.00    +0.000 A 
ATOM     21 CL   UNL     1       3.572 -11.137   0.000  0.00  0.00    +0.000 Cl
ATOM     22  C   UNL     1       2.858 -12.375   0.000  0.00  0.00    +0.000 A 
ATOM     23 CL   UNL     1       3.572 -12.787   0.000  0.00  0.00    +0.000 Cl
ATOM     24  C   UNL     1       2.143 -12.787   0.000  0.00  0.00    +0.000 A 
ATOM     25  C   UNL     1       1.429 -12.375   0.000  0.00  0.00    +0.000 A 
ATOM     26  C   UNL     1       1.429 -11.550   0.000  0.00  0.00    +0.000 A 
ATOM     27  C   UNL     1       0.715  -6.188   0.000  0.00  0.00    +0.000 C 
ATOM     28  C   UNL     1       0.715  -5.362   0.000  0.00  0.00    +0.000 C 
ENDROOT
TORSDOF 0
