ROOT
REMARK  Name = carperitide
REMARK                            x       y       z     vdW  Elec       q    Type
REMARK                         _______ _______ _______ _____ _____    ______ ____
ATOM      1  CD1 ILE A  15       0.387   7.918   0.000  0.00  0.00    +0.000 C 
ATOM      2  CG1 ILE A  15      -0.047   7.217   0.000  0.00  0.00    +0.000 C 
ATOM      3  CB  ILE A  15       0.344   6.490   0.000  0.00  0.00    +0.000 C 
ATOM      4  CG2 ILE A  15      -0.091   5.788   0.000  0.00  0.00    +0.000 C 
ATOM      5  CA  ILE A  15       1.168   6.465   0.000  0.00  0.00    +0.000 C 
ATOM      6  N   ILE A  15       0.913   7.249   0.000  0.00  0.00    +0.000 NA
ATOM      7  C   ARG A  14       1.581   7.734   0.000  0.00  0.00    +0.000 C 
ATOM      8  O   ARG A  14       1.581   8.559   0.000  0.00  0.00    +0.000 OA
ATOM      9  CA  ARG A  14       2.248   7.249   0.000  0.00  0.00    +0.000 C 
ATOM     10  CB  ARG A  14       2.479   8.041   0.000  0.00  0.00    +0.000 C 
ATOM     11  CG  ARG A  14       1.908   8.637   0.000  0.00  0.00    +0.000 C 
ATOM     12  CD  ARG A  14       2.139   9.429   0.000  0.00  0.00    +0.000 C 
ATOM     13  NE  ARG A  14       1.569  10.025   0.000  0.00  0.00    +0.000 NA
ATOM     14  CZ  ARG A  14       1.799  10.817   0.000  0.00  0.00    +0.000 C 
ATOM     15  NH1 ARG A  14       1.229  11.413   0.000  0.00  0.00    +0.000 NA
ATOM     16  NH2 ARG A  14       2.601  11.013   0.000  0.00  0.00    +0.000 NA
ATOM     17  N   ARG A  14       3.149   7.304   0.000  0.00  0.00    +0.000 NA
ATOM     18  C   ASP A  13       3.634   6.637   0.000  0.00  0.00    +0.000 C 
ATOM     19  O   ASP A  13       3.299   5.883   0.000  0.00  0.00    +0.000 OA
ATOM     20  CA  ASP A  13       4.455   6.723   0.000  0.00  0.00    +0.000 C 
ATOM     21  CB  ASP A  13       4.790   7.477   0.000  0.00  0.00    +0.000 C 
ATOM     22  CG  ASP A  13       4.305   8.144   0.000  0.00  0.00    +0.000 C 
ATOM     23  OD1 ASP A  13       4.641   8.898   0.000  0.00  0.00    +0.000 OA
ATOM     24  OD2 ASP A  13       3.485   8.058   0.000  0.00  0.00    +0.000 OA
ATOM     25  N   ASP A  13       4.940   6.056   0.000  0.00  0.00    +0.000 NA
ATOM     26  C   MET A  12       5.760   6.142   0.000  0.00  0.00    +0.000 C 
ATOM     27  O   MET A  12       6.096   6.896   0.000  0.00  0.00    +0.000 OA
ATOM     28  CA  MET A  12       6.245   5.475   0.000  0.00  0.00    +0.000 C 
ATOM     29  CB  MET A  12       6.580   6.228   0.000  0.00  0.00    +0.000 C 
ATOM     30  CG  MET A  12       7.401   6.314   0.000  0.00  0.00    +0.000 C 
ATOM     31  SD  MET A  12       7.737   7.068   0.000  0.00  0.00    +0.000 S 
ATOM     32  CE  MET A  12       7.252   7.736   0.000  0.00  0.00    +0.000 C 
ATOM     33  N   MET A  12       7.066   5.561   0.000  0.00  0.00    +0.000 NA
ATOM     34  C   ARG A  11       7.550   4.893   0.000  0.00  0.00    +0.000 C 
ATOM     35  O   ARG A  11       7.215   4.140   0.000  0.00  0.00    +0.000 OA
ATOM     36  CA  ARG A  11       8.371   4.980   0.000  0.00  0.00    +0.000 C 
ATOM     37  CB  ARG A  11       8.706   5.733   0.000  0.00  0.00    +0.000 C 
ATOM     38  CG  ARG A  11       9.527   5.820   0.000  0.00  0.00    +0.000 C 
ATOM     39  CD  ARG A  11       9.863   6.573   0.000  0.00  0.00    +0.000 C 
ATOM     40  NE  ARG A  11      10.683   6.660   0.000  0.00  0.00    +0.000 NA
ATOM     41  CZ  ARG A  11      11.018   7.413   0.000  0.00  0.00    +0.000 C 
ATOM     42  NH1 ARG A  11      10.534   8.081   0.000  0.00  0.00    +0.000 NA
ATOM     43  NH2 ARG A  11      11.839   7.499   0.000  0.00  0.00    +0.000 NA
ATOM     44  N   ARG A  11       8.856   4.312   0.000  0.00  0.00    +0.000 NA
ATOM     45  C   GLY A  10       9.676   4.399   0.000  0.00  0.00    +0.000 C 
ATOM     46  O   GLY A  10      10.012   5.152   0.000  0.00  0.00    +0.000 OA
ATOM     47  CA  GLY A  10      10.161   3.731   0.000  0.00  0.00    +0.000 C 
ATOM     48  N   GLY A  10      10.982   3.817   0.000  0.00  0.00    +0.000 NA
ATOM     49  C   GLY A   9      11.467   3.150   0.000  0.00  0.00    +0.000 C 
ATOM     50  O   GLY A   9      11.131   2.396   0.000  0.00  0.00    +0.000 OA
ATOM     51  CA  GLY A   9      12.287   3.236   0.000  0.00  0.00    +0.000 C 
ATOM     52  N   GLY A   9      12.772   2.569   0.000  0.00  0.00    +0.000 NA
ATOM     53  C   PHE A   8      13.592   2.655   0.000  0.00  0.00    +0.000 C 
ATOM     54  O   PHE A   8      13.928   3.409   0.000  0.00  0.00    +0.000 OA
ATOM     55  CA  PHE A   8      14.077   1.987   0.000  0.00  0.00    +0.000 C 
ATOM     56  CB  PHE A   8      14.413   2.741   0.000  0.00  0.00    +0.000 C 
ATOM     57  CG  PHE A   8      15.233   2.827   0.000  0.00  0.00    +0.000 A 
ATOM     58  CD1 PHE A   8      15.569   3.581   0.000  0.00  0.00    +0.000 A 
ATOM     59  CE1 PHE A   8      16.390   3.667   0.000  0.00  0.00    +0.000 A 
ATOM     60  CZ  PHE A   8      16.874   3.000   0.000  0.00  0.00    +0.000 A 
ATOM     61  CE2 PHE A   8      16.539   2.246   0.000  0.00  0.00    +0.000 A 
ATOM     62  CD2 PHE A   8      15.718   2.160   0.000  0.00  0.00    +0.000 A 
ATOM     63  N   PHE A   8      14.898   2.074   0.000  0.00  0.00    +0.000 NA
ATOM     64  C   CYS A   7      15.383   1.406   0.000  0.00  0.00    +0.000 C 
ATOM     65  O   CYS A   7      15.047   0.652   0.000  0.00  0.00    +0.000 OA
ATOM     66  CA  CYS A   7      16.203   1.492   0.000  0.00  0.00    +0.000 C 
ATOM     67  CB  CYS A   7      16.688   0.825   0.000  0.00  0.00    +0.000 C 
ATOM     68  SG  CYS A   7      16.353   0.071   0.000  0.00  0.00    +0.000 S 
ATOM     69  SG  CYS A  23      16.838  -0.596   0.000  0.00  0.00    +0.000 S 
ATOM     70  CB  CYS A  23      16.502  -1.350   0.000  0.00  0.00    +0.000 C 
ATOM     71  CA  CYS A  23      15.681  -1.436   0.000  0.00  0.00    +0.000 C 
ATOM     72  N   CYS A  23      15.197  -0.769   0.000  0.00  0.00    +0.000 NA
ATOM     73  C   GLY A  22      14.376  -0.855   0.000  0.00  0.00    +0.000 C 
ATOM     74  O   GLY A  22      14.041  -1.609   0.000  0.00  0.00    +0.000 OA
ATOM     75  CA  GLY A  22      13.891  -0.187   0.000  0.00  0.00    +0.000 C 
ATOM     76  N   GLY A  22      13.071  -0.274   0.000  0.00  0.00    +0.000 NA
ATOM     77  C   LEU A  21      12.586   0.394   0.000  0.00  0.00    +0.000 C 
ATOM     78  O   LEU A  21      12.921   1.147   0.000  0.00  0.00    +0.000 OA
ATOM     79  CA  LEU A  21      11.765   0.308   0.000  0.00  0.00    +0.000 C 
ATOM     80  CB  LEU A  21      11.430  -0.446   0.000  0.00  0.00    +0.000 C 
ATOM     81  CG  LEU A  21      11.915  -1.113   0.000  0.00  0.00    +0.000 C 
ATOM     82  CD1 LEU A  21      12.735  -1.027   0.000  0.00  0.00    +0.000 C 
ATOM     83  CD2 LEU A  21      11.579  -1.867   0.000  0.00  0.00    +0.000 C 
ATOM     84  N   LEU A  21      11.280   0.975   0.000  0.00  0.00    +0.000 NA
ATOM     85  C   GLY A  20      10.460   0.889   0.000  0.00  0.00    +0.000 C 
ATOM     86  O   GLY A  20      10.124   0.135   0.000  0.00  0.00    +0.000 OA
ATOM     87  CA  GLY A  20       9.975   1.556   0.000  0.00  0.00    +0.000 C 
ATOM     88  N   GLY A  20       9.155   1.470   0.000  0.00  0.00    +0.000 NA
ATOM     89  C   SER A  19       8.670   2.137   0.000  0.00  0.00    +0.000 C 
ATOM     90  O   SER A  19       9.005   2.891   0.000  0.00  0.00    +0.000 OA
ATOM     91  CA  SER A  19       7.849   2.051   0.000  0.00  0.00    +0.000 C 
ATOM     92  CB  SER A  19       7.514   1.298   0.000  0.00  0.00    +0.000 C 
ATOM     93  OG  SER A  19       7.998   0.630   0.000  0.00  0.00    +0.000 OA
ATOM     94  N   SER A  19       7.364   2.719   0.000  0.00  0.00    +0.000 NA
ATOM     95  C   GLN A  18       6.544   2.632   0.000  0.00  0.00    +0.000 C 
ATOM     96  O   GLN A  18       6.208   1.879   0.000  0.00  0.00    +0.000 OA
ATOM     97  CA  GLN A  18       6.059   3.300   0.000  0.00  0.00    +0.000 C 
ATOM     98  CB  GLN A  18       5.723   2.546   0.000  0.00  0.00    +0.000 C 
ATOM     99  CG  GLN A  18       4.903   2.460   0.000  0.00  0.00    +0.000 C 
ATOM    100  CD  GLN A  18       4.567   1.706   0.000  0.00  0.00    +0.000 C 
ATOM    101  NE2 GLN A  18       5.052   1.039   0.000  0.00  0.00    +0.000 NA
ATOM    102  OE1 GLN A  18       3.747   1.620   0.000  0.00  0.00    +0.000 OA
ATOM    103  N   GLN A  18       5.238   3.214   0.000  0.00  0.00    +0.000 NA
ATOM    104  C   ALA A  17       4.753   3.881   0.000  0.00  0.00    +0.000 C 
ATOM    105  O   ALA A  17       5.089   4.635   0.000  0.00  0.00    +0.000 OA
ATOM    106  CA  ALA A  17       3.933   3.795   0.000  0.00  0.00    +0.000 C 
ATOM    107  CB  ALA A  17       3.597   3.041   0.000  0.00  0.00    +0.000 C 
ATOM    108  N   ALA A  17       3.448   4.462   0.000  0.00  0.00    +0.000 NA
ATOM    109  C   GLY A  16       2.627   4.376   0.000  0.00  0.00    +0.000 C 
ATOM    110  O   GLY A  16       2.292   3.622   0.000  0.00  0.00    +0.000 OA
ATOM    111  CA  GLY A  16       2.143   5.043   0.000  0.00  0.00    +0.000 C 
ATOM    112  N   GLY A  16       1.322   4.957   0.000  0.00  0.00    +0.000 NA
ATOM    113  C   ILE A  15       0.837   5.625   0.000  0.00  0.00    +0.000 C 
ATOM    114  O   ILE A  15       0.019   5.521   0.000  0.00  0.00    +0.000 OA
ATOM    115  C   CYS A  23      15.346  -2.190   0.000  0.00  0.00    +0.000 C 
ATOM    116  O   CYS A  23      14.525  -2.276   0.000  0.00  0.00    +0.000 OA
ATOM    117  N   ASN A  24      15.831  -2.857   0.000  0.00  0.00    +0.000 NA
ATOM    118  CA  ASN A  24      15.495  -3.611   0.000  0.00  0.00    +0.000 C 
ATOM    119  CB  ASN A  24      14.675  -3.697   0.000  0.00  0.00    +0.000 C 
ATOM    120  CG  ASN A  24      14.190  -3.030   0.000  0.00  0.00    +0.000 C 
ATOM    121  ND2 ASN A  24      13.370  -3.116   0.000  0.00  0.00    +0.000 NA
ATOM    122  OD1 ASN A  24      14.018  -2.223   0.000  0.00  0.00    +0.000 OA
ATOM    123  C   ASN A  24      15.980  -4.278   0.000  0.00  0.00    +0.000 C 
ATOM    124  O   ASN A  24      16.801  -4.192   0.000  0.00  0.00    +0.000 OA
ATOM    125  N   SER A  25      15.645  -5.032   0.000  0.00  0.00    +0.000 NA
ATOM    126  CA  SER A  25      16.130  -5.699   0.000  0.00  0.00    +0.000 C 
ATOM    127  CB  SER A  25      16.950  -5.613   0.000  0.00  0.00    +0.000 C 
ATOM    128  OG  SER A  25      17.435  -6.281   0.000  0.00  0.00    +0.000 OA
ATOM    129  C   SER A  25      15.794  -6.453   0.000  0.00  0.00    +0.000 C 
ATOM    130  O   SER A  25      14.974  -6.539   0.000  0.00  0.00    +0.000 OA
ATOM    131  N   PHE A  26      16.279  -7.120   0.000  0.00  0.00    +0.000 NA
ATOM    132  CA  PHE A  26      15.943  -7.874   0.000  0.00  0.00    +0.000 C 
ATOM    133  CB  PHE A  26      15.123  -7.960   0.000  0.00  0.00    +0.000 C 
ATOM    134  CG  PHE A  26      14.787  -8.714   0.000  0.00  0.00    +0.000 A 
ATOM    135  CD1 PHE A  26      15.272  -9.382   0.000  0.00  0.00    +0.000 A 
ATOM    136  CE1 PHE A  26      14.937 -10.135   0.000  0.00  0.00    +0.000 A 
ATOM    137  CZ  PHE A  26      14.116 -10.221   0.000  0.00  0.00    +0.000 A 
ATOM    138  CE2 PHE A  26      13.631  -9.554   0.000  0.00  0.00    +0.000 A 
ATOM    139  CD2 PHE A  26      13.967  -8.800   0.000  0.00  0.00    +0.000 A 
ATOM    140  C   PHE A  26      16.428  -8.542   0.000  0.00  0.00    +0.000 C 
ATOM    141  O   PHE A  26      17.249  -8.455   0.000  0.00  0.00    +0.000 OA
ATOM    142  N   ARG A  27      16.093  -9.295   0.000  0.00  0.00    +0.000 NA
ATOM    143  CA  ARG A  27      16.578  -9.963   0.000  0.00  0.00    +0.000 C 
ATOM    144  CB  ARG A  27      17.398  -9.877   0.000  0.00  0.00    +0.000 C 
ATOM    145  CG  ARG A  27      17.883 -10.544   0.000  0.00  0.00    +0.000 C 
ATOM    146  CD  ARG A  27      18.704 -10.458   0.000  0.00  0.00    +0.000 C 
ATOM    147  NE  ARG A  27      19.189 -11.125   0.000  0.00  0.00    +0.000 NA
ATOM    148  CZ  ARG A  27      20.009 -11.039   0.000  0.00  0.00    +0.000 C 
ATOM    149  NH1 ARG A  27      20.345 -10.285   0.000  0.00  0.00    +0.000 NA
ATOM    150  NH2 ARG A  27      20.494 -11.706   0.000  0.00  0.00    +0.000 NA
ATOM    151  C   ARG A  27      16.242 -10.716   0.000  0.00  0.00    +0.000 C 
ATOM    152  O   ARG A  27      15.422 -10.803   0.000  0.00  0.00    +0.000 OA
ATOM    153  N   TYR A  28      16.727 -11.384   0.000  0.00  0.00    +0.000 NA
ATOM    154  CA  TYR A  28      16.392 -12.137   0.000  0.00  0.00    +0.000 C 
ATOM    155  CB  TYR A  28      16.877 -12.805   0.000  0.00  0.00    +0.000 C 
ATOM    156  CG  TYR A  28      16.541 -13.559   0.000  0.00  0.00    +0.000 A 
ATOM    157  CD1 TYR A  28      17.026 -14.226   0.000  0.00  0.00    +0.000 A 
ATOM    158  CE1 TYR A  28      16.690 -14.980   0.000  0.00  0.00    +0.000 A 
ATOM    159  CZ  TYR A  28      15.870 -15.066   0.000  0.00  0.00    +0.000 A 
ATOM    160  OH  TYR A  28      15.534 -15.820   0.000  0.00  0.00    +0.000 OA
ATOM    161  CE2 TYR A  28      15.385 -14.399   0.000  0.00  0.00    +0.000 A 
ATOM    162  CD2 TYR A  28      15.720 -13.645   0.000  0.00  0.00    +0.000 A 
ATOM    163  C   TYR A  28      15.571 -12.224   0.000  0.00  0.00    +0.000 C 
ATOM    164  O   TYR A  28      15.236 -12.977   0.000  0.00  0.00    +0.000 OA
ATOM    165  OXT TYR A  28      15.086 -11.556   0.000  0.00  0.00    +0.000 OA
ATOM    166  N   CYS A   7      16.918   1.905   0.000  0.00  0.00    +0.000 NA
ATOM    167  C   SER A   6      17.632   1.492   0.000  0.00  0.00    +0.000 C 
ATOM    168  O   SER A   6      17.632   0.667   0.000  0.00  0.00    +0.000 OA
ATOM    169  CA  SER A   6      18.347   1.905   0.000  0.00  0.00    +0.000 C 
ATOM    170  CB  SER A   6      18.347   2.730   0.000  0.00  0.00    +0.000 C 
ATOM    171  OG  SER A   6      18.011   3.484   0.000  0.00  0.00    +0.000 OA
ATOM    172  N   SER A   6      19.061   1.492   0.000  0.00  0.00    +0.000 NA
ATOM    173  C   SER A   5      19.776   1.905   0.000  0.00  0.00    +0.000 C 
ATOM    174  O   SER A   5      19.776   2.730   0.000  0.00  0.00    +0.000 OA
ATOM    175  CA  SER A   5      20.490   1.492   0.000  0.00  0.00    +0.000 C 
ATOM    176  CB  SER A   5      20.490   0.667   0.000  0.00  0.00    +0.000 C 
ATOM    177  OG  SER A   5      19.776   0.255   0.000  0.00  0.00    +0.000 OA
ATOM    178  N   SER A   5      21.205   1.905   0.000  0.00  0.00    +0.000 NA
ATOM    179  C   ARG A   4      21.919   1.492   0.000  0.00  0.00    +0.000 C 
ATOM    180  O   ARG A   4      21.919   0.667   0.000  0.00  0.00    +0.000 OA
ATOM    181  CA  ARG A   4      22.634   1.905   0.000  0.00  0.00    +0.000 C 
ATOM    182  CB  ARG A   4      22.634   2.730   0.000  0.00  0.00    +0.000 C 
ATOM    183  CG  ARG A   4      23.348   3.142   0.000  0.00  0.00    +0.000 C 
ATOM    184  CD  ARG A   4      23.348   3.967   0.000  0.00  0.00    +0.000 C 
ATOM    185  NE  ARG A   4      24.062   4.380   0.000  0.00  0.00    +0.000 NA
ATOM    186  CZ  ARG A   4      24.062   5.205   0.000  0.00  0.00    +0.000 C 
ATOM    187  NH1 ARG A   4      23.348   5.617   0.000  0.00  0.00    +0.000 NA
ATOM    188  NH2 ARG A   4      24.777   5.617   0.000  0.00  0.00    +0.000 NA
ATOM    189  N   ARG A   4      23.348   1.492   0.000  0.00  0.00    +0.000 NA
ATOM    190  C   ARG A   3      24.062   1.905   0.000  0.00  0.00    +0.000 C 
ATOM    191  O   ARG A   3      24.062   2.730   0.000  0.00  0.00    +0.000 OA
ATOM    192  CA  ARG A   3      24.777   1.492   0.000  0.00  0.00    +0.000 C 
ATOM    193  CB  ARG A   3      24.777   0.667   0.000  0.00  0.00    +0.000 C 
ATOM    194  CG  ARG A   3      24.062   0.255   0.000  0.00  0.00    +0.000 C 
ATOM    195  CD  ARG A   3      24.062  -0.570   0.000  0.00  0.00    +0.000 C 
ATOM    196  NE  ARG A   3      23.348  -0.983   0.000  0.00  0.00    +0.000 NA
ATOM    197  CZ  ARG A   3      23.348  -1.808   0.000  0.00  0.00    +0.000 C 
ATOM    198  NH1 ARG A   3      24.062  -2.220   0.000  0.00  0.00    +0.000 NA
ATOM    199  NH2 ARG A   3      22.634  -2.220   0.000  0.00  0.00    +0.000 NA
ATOM    200  N   ARG A   3      25.491   1.905   0.000  0.00  0.00    +0.000 NA
ATOM    201  C   LEU A   2      26.206   1.492   0.000  0.00  0.00    +0.000 C 
ATOM    202  O   LEU A   2      26.206   0.667   0.000  0.00  0.00    +0.000 OA
ATOM    203  CA  LEU A   2      26.920   1.905   0.000  0.00  0.00    +0.000 C 
ATOM    204  CB  LEU A   2      26.920   2.730   0.000  0.00  0.00    +0.000 C 
ATOM    205  CG  LEU A   2      26.206   3.142   0.000  0.00  0.00    +0.000 C 
ATOM    206  CD1 LEU A   2      25.491   2.730   0.000  0.00  0.00    +0.000 C 
ATOM    207  CD2 LEU A   2      26.206   3.967   0.000  0.00  0.00    +0.000 C 
ATOM    208  N   LEU A   2      27.635   1.492   0.000  0.00  0.00    +0.000 NA
ATOM    209  C   SER A   1      28.349   1.905   0.000  0.00  0.00    +0.000 C 
ATOM    210  O   SER A   1      28.349   2.730   0.000  0.00  0.00    +0.000 OA
ATOM    211  CA  SER A   1      29.064   1.492   0.000  0.00  0.00    +0.000 C 
ATOM    212  N   SER A   1      29.064   0.667   0.000  0.00  0.00    +0.000 NA
ATOM    213  CB  SER A   1      29.778   1.905   0.000  0.00  0.00    +0.000 C 
ATOM    214  OG  SER A   1      30.493   1.492   0.000  0.00  0.00    +0.000 OA
ENDROOT
TORSDOF 0
