ROOT
REMARK  Name = cefcapene
REMARK                            x       y       z     vdW  Elec       q    Type
REMARK                         _______ _______ _______ _____ _____    ______ ____
ATOM      1  C   UNL     1       0.496   1.229   0.000  0.00  0.00    +0.000 C 
ATOM      2  C   UNL     1      -0.088   1.813   0.000  0.00  0.00    +0.000 C 
ATOM      3  C   UNL     1      -0.885   1.599   0.000  0.00  0.00    +0.000 C 
ATOM      4  C   UNL     1      -1.098   0.802   0.000  0.00  0.00    +0.000 C 
ATOM      5  C   UNL     1      -0.515   0.219   0.000  0.00  0.00    +0.000 C 
ATOM      6  O   UNL     1      -0.728  -0.578   0.000  0.00  0.00    +0.000 OA
ATOM      7  N   UNL     1       0.282   0.432   0.000  0.00  0.00    +0.000 NA
ATOM      8  CA  UNL     1       0.866  -0.151   0.000  0.00  0.00    +0.000 C 
ATOM      9  C   UNL     1       1.690  -0.151   0.000  0.00  0.00    +0.000 C 
ATOM     10  S   UNL     1       2.405   0.262   0.000  0.00  0.00    +0.000 S 
ATOM     11  C   UNL     1       3.119  -0.151   0.000  0.00  0.00    +0.000 C 
ATOM     12  C   UNL     1       3.119  -0.976   0.000  0.00  0.00    +0.000 C 
ATOM     13  C   UNL     1       3.834  -1.389   0.000  0.00  0.00    +0.000 C 
ATOM     14  O   UNL     1       3.834  -2.213   0.000  0.00  0.00    +0.000 OA
ATOM     15  C   UNL     1       4.548  -2.626   0.000  0.00  0.00    +0.000 C 
ATOM     16  N   UNL     1       4.548  -3.451   0.000  0.00  0.00    +0.000 NA
ATOM     17  O   UNL     1       5.263  -2.213   0.000  0.00  0.00    +0.000 OA
ATOM     18  CA  UNL     1       2.405  -1.389   0.000  0.00  0.00    +0.000 C 
ATOM     19  N   UNL     1       1.690  -0.976   0.000  0.00  0.00    +0.000 N 
ATOM     20  C   UNL     1       0.866  -0.976   0.000  0.00  0.00    +0.000 C 
ATOM     21  O   UNL     1       0.282  -1.559   0.000  0.00  0.00    +0.000 OA
ATOM     22  C   UNL     1       2.405  -2.213   0.000  0.00  0.00    +0.000 C 
ATOM     23  O   UNL     1       1.690  -2.626   0.000  0.00  0.00    +0.000 OA
ATOM     24  OXT UNL     1       3.119  -2.626   0.000  0.00  0.00    +0.000 OA
ATOM     25  C   UNL     1      -1.895   0.589   0.000  0.00  0.00    +0.000 A 
ATOM     26  C   UNL     1      -2.191  -0.181   0.000  0.00  0.00    +0.000 A 
ATOM     27  S   UNL     1      -3.015  -0.138   0.000  0.00  0.00    +0.000 S 
ATOM     28  C   UNL     1      -3.228   0.659   0.000  0.00  0.00    +0.000 A 
ATOM     29  N   UNL     1      -3.998   0.954   0.000  0.00  0.00    +0.000 NA
ATOM     30  N   UNL     1      -2.536   1.108   0.000  0.00  0.00    +0.000 NA
ENDROOT
TORSDOF 0
