ROOT
REMARK  Name = cefetamet pivoxil
REMARK                            x       y       z     vdW  Elec       q    Type
REMARK                         _______ _______ _______ _____ _____    ______ ____
ATOM      1  C   UNL     1      -1.895   0.589   0.000  0.00  0.00    +0.000 C 
ATOM      2  O   UNL     1      -1.098   0.802   0.000  0.00  0.00    +0.000 OA
ATOM      3  N   UNL     1      -0.885   1.599   0.000  0.00  0.00    +0.000 NA
ATOM      4  C   UNL     1      -0.088   1.813   0.000  0.00  0.00    +0.000 C 
ATOM      5  C   UNL     1       0.496   1.229   0.000  0.00  0.00    +0.000 C 
ATOM      6  O   UNL     1       1.292   1.443   0.000  0.00  0.00    +0.000 OA
ATOM      7  N   UNL     1       0.282   0.432   0.000  0.00  0.00    +0.000 NA
ATOM      8  C   UNL     1       0.866  -0.151   0.000  0.00  0.00    +0.000 C 
ATOM      9  C   UNL     1       1.690  -0.151   0.000  0.00  0.00    +0.000 C 
ATOM     10  S   UNL     1       2.405   0.262   0.000  0.00  0.00    +0.000 S 
ATOM     11  C   UNL     1       3.119  -0.151   0.000  0.00  0.00    +0.000 C 
ATOM     12  C   UNL     1       3.119  -0.976   0.000  0.00  0.00    +0.000 C 
ATOM     13  C   UNL     1       3.834  -1.389   0.000  0.00  0.00    +0.000 C 
ATOM     14  C   UNL     1       2.405  -1.389   0.000  0.00  0.00    +0.000 C 
ATOM     15  N   UNL     1       1.690  -0.976   0.000  0.00  0.00    +0.000 N 
ATOM     16  C   UNL     1       0.866  -0.976   0.000  0.00  0.00    +0.000 C 
ATOM     17  O   UNL     1       0.282  -1.559   0.000  0.00  0.00    +0.000 OA
ATOM     18  C   UNL     1       2.405  -2.213   0.000  0.00  0.00    +0.000 C 
ATOM     19  O   UNL     1       1.690  -2.626   0.000  0.00  0.00    +0.000 OA
ATOM     20  O   UNL     1       3.119  -2.626   0.000  0.00  0.00    +0.000 OA
ATOM     21  C   UNL     1       3.119  -3.451   0.000  0.00  0.00    +0.000 C 
ATOM     22  O   UNL     1       3.834  -3.864   0.000  0.00  0.00    +0.000 OA
ATOM     23  C   UNL     1       3.834  -4.689   0.000  0.00  0.00    +0.000 C 
ATOM     24  O   UNL     1       3.119  -5.101   0.000  0.00  0.00    +0.000 OA
ATOM     25  C   UNL     1       4.548  -5.101   0.000  0.00  0.00    +0.000 C 
ATOM     26  C   UNL     1       5.263  -5.513   0.000  0.00  0.00    +0.000 C 
ATOM     27  C   UNL     1       4.961  -4.386   0.000  0.00  0.00    +0.000 C 
ATOM     28  C   UNL     1       4.136  -5.816   0.000  0.00  0.00    +0.000 C 
ATOM     29  C   UNL     1       0.126   2.610   0.000  0.00  0.00    +0.000 A 
ATOM     30  C   UNL     1      -0.393   3.251   0.000  0.00  0.00    +0.000 A 
ATOM     31  S   UNL     1       0.056   3.943   0.000  0.00  0.00    +0.000 S 
ATOM     32  C   UNL     1       0.853   3.729   0.000  0.00  0.00    +0.000 A 
ATOM     33  N   UNL     1       1.494   4.248   0.000  0.00  0.00    +0.000 NA
ATOM     34  N   UNL     1       0.896   2.905   0.000  0.00  0.00    +0.000 NA
ENDROOT
TORSDOF 0
