ROOT
REMARK  Name = cefotetan
REMARK                            x       y       z     vdW  Elec       q    Type
REMARK                         _______ _______ _______ _____ _____    ______ ____
ATOM      1  C   UNL     1       1.580   1.087   0.000  0.00  0.00    +0.000 C 
ATOM      2  O   UNL     1       0.866   0.674   0.000  0.00  0.00    +0.000 OA
ATOM      3  C   UNL     1       0.866  -0.151   0.000  0.00  0.00    +0.000 C 
ATOM      4  N   UNL     1       0.041  -0.151   0.000  0.00  0.00    +0.000 NA
ATOM      5  C   UNL     1      -0.372   0.564   0.000  0.00  0.00    +0.000 C 
ATOM      6  O   UNL     1      -1.197   0.564   0.000  0.00  0.00    +0.000 OA
ATOM      7  C   UNL     1       0.041   1.278   0.000  0.00  0.00    +0.000 C 
ATOM      8  S   UNL     1      -0.173   2.075   0.000  0.00  0.00    +0.000 S 
ATOM      9  C   UNL     1       0.624   2.288   0.000  0.00  0.00    +0.000 C 
ATOM     10  S   UNL     1       0.837   1.492   0.000  0.00  0.00    +0.000 S 
ATOM     11  C   UNL     1       1.036   3.003   0.000  0.00  0.00    +0.000 C 
ATOM     12  C   UNL     1       0.624   3.717   0.000  0.00  0.00    +0.000 C 
ATOM     13  N   UNL     1       1.036   4.432   0.000  0.00  0.00    +0.000 NA
ATOM     14  O   UNL     1      -0.201   3.717   0.000  0.00  0.00    +0.000 OA
ATOM     15  C   UNL     1       1.861   3.003   0.000  0.00  0.00    +0.000 C 
ATOM     16  O   UNL     1       2.274   3.717   0.000  0.00  0.00    +0.000 OA
ATOM     17  O   UNL     1       2.274   2.288   0.000  0.00  0.00    +0.000 OA
ATOM     18  C   UNL     1       1.690  -0.151   0.000  0.00  0.00    +0.000 C 
ATOM     19  S   UNL     1       2.405   0.262   0.000  0.00  0.00    +0.000 S 
ATOM     20  C   UNL     1       3.119  -0.151   0.000  0.00  0.00    +0.000 C 
ATOM     21  C   UNL     1       3.119  -0.976   0.000  0.00  0.00    +0.000 C 
ATOM     22  C   UNL     1       3.834  -1.389   0.000  0.00  0.00    +0.000 C 
ATOM     23  S   UNL     1       4.548  -0.976   0.000  0.00  0.00    +0.000 S 
ATOM     24  C   UNL     1       4.548  -0.151   0.000  0.00  0.00    +0.000 A 
ATOM     25  N   UNL     1       3.881   0.334   0.000  0.00  0.00    +0.000 NA
ATOM     26  N   UNL     1       4.136   1.119   0.000  0.00  0.00    +0.000 NA
ATOM     27  N   UNL     1       4.961   1.119   0.000  0.00  0.00    +0.000 NA
ATOM     28  N   UNL     1       5.216   0.334   0.000  0.00  0.00    +0.000 N 
ATOM     29  C   UNL     1       6.000   0.079   0.000  0.00  0.00    +0.000 C 
ATOM     30  C   UNL     1       2.405  -1.389   0.000  0.00  0.00    +0.000 C 
ATOM     31  N   UNL     1       1.690  -0.976   0.000  0.00  0.00    +0.000 N 
ATOM     32  C   UNL     1       0.866  -0.976   0.000  0.00  0.00    +0.000 C 
ATOM     33  O   UNL     1       0.282  -1.559   0.000  0.00  0.00    +0.000 OA
ATOM     34  C   UNL     1       2.405  -2.213   0.000  0.00  0.00    +0.000 C 
ATOM     35  O   UNL     1       1.690  -2.626   0.000  0.00  0.00    +0.000 OA
ATOM     36  O   UNL     1       3.119  -2.626   0.000  0.00  0.00    +0.000 OA
ENDROOT
TORSDOF 0
