ROOT
REMARK  Name = cefoperazone
REMARK                            x       y       z     vdW  Elec       q    Type
REMARK                         _______ _______ _______ _____ _____    ______ ____
ATOM      1  C   UNL     1      -5.880  -0.479   0.000  0.00  0.00    +0.000 C 
ATOM      2  C   UNL     1      -5.666   0.318   0.000  0.00  0.00    +0.000 C 
ATOM      3  N   UNL     1      -4.869   0.531   0.000  0.00  0.00    +0.000 N 
ATOM      4  C   UNL     1      -4.656   1.328   0.000  0.00  0.00    +0.000 C 
ATOM      5  C   UNL     1      -3.859   1.542   0.000  0.00  0.00    +0.000 C 
ATOM      6  N   UNL     1      -3.275   0.959   0.000  0.00  0.00    +0.000 N 
ATOM      7  C   UNL     1      -2.478   1.172   0.000  0.00  0.00    +0.000 C 
ATOM      8  O   UNL     1      -2.265   1.969   0.000  0.00  0.00    +0.000 OA
ATOM      9  N   UNL     1      -1.895   0.589   0.000  0.00  0.00    +0.000 NA
ATOM     10  CA  UNL     1      -1.098   0.802   0.000  0.00  0.00    +0.000 C 
ATOM     11  C   UNL     1      -0.515   0.219   0.000  0.00  0.00    +0.000 C 
ATOM     12  O   UNL     1      -0.728  -0.578   0.000  0.00  0.00    +0.000 OA
ATOM     13  N   UNL     1       0.282   0.432   0.000  0.00  0.00    +0.000 NA
ATOM     14  CA  UNL     1       0.866  -0.151   0.000  0.00  0.00    +0.000 C 
ATOM     15  C   UNL     1       1.690  -0.151   0.000  0.00  0.00    +0.000 C 
ATOM     16  S   UNL     1       2.405   0.262   0.000  0.00  0.00    +0.000 S 
ATOM     17  C   UNL     1       3.119  -0.151   0.000  0.00  0.00    +0.000 C 
ATOM     18  C   UNL     1       3.119  -0.976   0.000  0.00  0.00    +0.000 C 
ATOM     19  C   UNL     1       3.834  -1.389   0.000  0.00  0.00    +0.000 C 
ATOM     20  S   UNL     1       4.548  -0.976   0.000  0.00  0.00    +0.000 S 
ATOM     21  C   UNL     1       5.263  -1.389   0.000  0.00  0.00    +0.000 A 
ATOM     22  N   UNL     1       6.016  -1.053   0.000  0.00  0.00    +0.000 NA
ATOM     23  N   UNL     1       6.569  -1.666   0.000  0.00  0.00    +0.000 NA
ATOM     24  N   UNL     1       6.156  -2.381   0.000  0.00  0.00    +0.000 NA
ATOM     25  N   UNL     1       5.349  -2.209   0.000  0.00  0.00    +0.000 N 
ATOM     26  C   UNL     1       4.736  -2.761   0.000  0.00  0.00    +0.000 C 
ATOM     27  CA  UNL     1       2.405  -1.389   0.000  0.00  0.00    +0.000 C 
ATOM     28  N   UNL     1       1.690  -0.976   0.000  0.00  0.00    +0.000 N 
ATOM     29  C   UNL     1       0.866  -0.976   0.000  0.00  0.00    +0.000 C 
ATOM     30  O   UNL     1       0.282  -1.559   0.000  0.00  0.00    +0.000 OA
ATOM     31  C   UNL     1       2.405  -2.213   0.000  0.00  0.00    +0.000 C 
ATOM     32  O   UNL     1       1.690  -2.626   0.000  0.00  0.00    +0.000 OA
ATOM     33  OXT UNL     1       3.119  -2.626   0.000  0.00  0.00    +0.000 OA
ATOM     34  C   UNL     1      -0.885   1.599   0.000  0.00  0.00    +0.000 A 
ATOM     35  C   UNL     1      -1.468   2.183   0.000  0.00  0.00    +0.000 A 
ATOM     36  C   UNL     1      -1.254   2.979   0.000  0.00  0.00    +0.000 A 
ATOM     37  C   UNL     1      -0.458   3.193   0.000  0.00  0.00    +0.000 A 
ATOM     38  O   UNL     1      -0.244   3.990   0.000  0.00  0.00    +0.000 OA
ATOM     39  C   UNL     1       0.126   2.610   0.000  0.00  0.00    +0.000 A 
ATOM     40  C   UNL     1      -0.088   1.813   0.000  0.00  0.00    +0.000 A 
ATOM     41  C   UNL     1      -3.489   0.162   0.000  0.00  0.00    +0.000 C 
ATOM     42  O   UNL     1      -2.905  -0.422   0.000  0.00  0.00    +0.000 OA
ATOM     43  C   UNL     1      -4.286  -0.052   0.000  0.00  0.00    +0.000 C 
ATOM     44  O   UNL     1      -4.499  -0.849   0.000  0.00  0.00    +0.000 OA
ENDROOT
TORSDOF 0
