ROOT
REMARK  Name = cefozopran
REMARK                            x       y       z     vdW  Elec       q    Type
REMARK                         _______ _______ _______ _____ _____    ______ ____
ATOM      1  C   UNL     1      -2.563  -5.656   0.000  0.00  0.00    +0.000 C 
ATOM      2  O   UNL     1      -1.767  -5.870   0.000  0.00  0.00    +0.000 OA
ATOM      3  N   UNL     1      -1.553  -6.667   0.000  0.00  0.00    +0.000 NA
ATOM      4  C   UNL     1      -0.756  -6.880   0.000  0.00  0.00    +0.000 C 
ATOM      5  C   UNL     1      -0.173  -6.297   0.000  0.00  0.00    +0.000 C 
ATOM      6  O   UNL     1       0.624  -6.510   0.000  0.00  0.00    +0.000 OA
ATOM      7  N   UNL     1      -0.386  -5.500   0.000  0.00  0.00    +0.000 NA
ATOM      8  CA  UNL     1       0.197  -4.917   0.000  0.00  0.00    +0.000 C 
ATOM      9  C   UNL     1       1.022  -4.917   0.000  0.00  0.00    +0.000 C 
ATOM     10  S   UNL     1       1.736  -5.329   0.000  0.00  0.00    +0.000 S 
ATOM     11  C   UNL     1       2.451  -4.917   0.000  0.00  0.00    +0.000 C 
ATOM     12  C   UNL     1       2.451  -4.092   0.000  0.00  0.00    +0.000 C 
ATOM     13  C   UNL     1       3.165  -3.679   0.000  0.00  0.00    +0.000 C 
ATOM     14  N   UNL     1       3.880  -4.092   0.000  0.00  0.00    +0.000 N 
ATOM     15  C   UNL     1       4.634  -3.756   0.000  0.00  0.00    +0.000 C 
ATOM     16  C   UNL     1       4.888  -2.971   0.000  0.00  0.00    +0.000 C 
ATOM     17  C   UNL     1       5.696  -2.800   0.000  0.00  0.00    +0.000 C 
ATOM     18  C   UNL     1       6.247  -3.413   0.000  0.00  0.00    +0.000 C 
ATOM     19  N   UNL     1       5.993  -4.198   0.000  0.00  0.00    +0.000 NA
ATOM     20  N   UNL     1       5.186  -4.369   0.000  0.00  0.00    +0.000 N 
ATOM     21  C   UNL     1       4.773  -5.084   0.000  0.00  0.00    +0.000 C 
ATOM     22  C   UNL     1       3.966  -4.912   0.000  0.00  0.00    +0.000 C 
ATOM     23  CA  UNL     1       1.736  -3.679   0.000  0.00  0.00    +0.000 C 
ATOM     24  N   UNL     1       1.022  -4.092   0.000  0.00  0.00    +0.000 N 
ATOM     25  C   UNL     1       0.197  -4.092   0.000  0.00  0.00    +0.000 C 
ATOM     26  O   UNL     1      -0.386  -3.508   0.000  0.00  0.00    +0.000 OA
ATOM     27  C   UNL     1       1.736  -2.854   0.000  0.00  0.00    +0.000 C 
ATOM     28  O   UNL     1       2.451  -2.442   0.000  0.00  0.00    +0.000 OA
ATOM     29  OXT UNL     1       1.022  -2.442   0.000  0.00  0.00    +0.000 OA
ATOM     30  C   UNL     1      -0.543  -7.677   0.000  0.00  0.00    +0.000 A 
ATOM     31  N   UNL     1       0.228  -7.973   0.000  0.00  0.00    +0.000 NA
ATOM     32  S   UNL     1       0.184  -8.797   0.000  0.00  0.00    +0.000 S 
ATOM     33  C   UNL     1      -0.613  -9.010   0.000  0.00  0.00    +0.000 A 
ATOM     34  N   UNL     1      -0.908  -9.780   0.000  0.00  0.00    +0.000 NA
ATOM     35  N   UNL     1      -1.062  -8.318   0.000  0.00  0.00    +0.000 NA
ENDROOT
TORSDOF 0
