ROOT
REMARK  Name = cefpodoxime proxetil
REMARK                            x       y       z     vdW  Elec       q    Type
REMARK                         _______ _______ _______ _____ _____    ______ ____
ATOM      1  C   UNL     1       0.000   2.475   0.000  0.00  0.00    +0.000 C 
ATOM      2  O   UNL     1      -0.715   2.062   0.000  0.00  0.00    +0.000 OA
ATOM      3  C   UNL     1      -0.715   1.238   0.000  0.00  0.00    +0.000 C 
ATOM      4  C   UNL     1      -1.429   0.825   0.000  0.00  0.00    +0.000 C 
ATOM      5  C   UNL     1      -1.429   0.000   0.000  0.00  0.00    +0.000 C 
ATOM      6  N   UNL     1      -2.143  -0.412   0.000  0.00  0.00    +0.000 N 
ATOM      7  C   UNL     1      -2.858   0.000   0.000  0.00  0.00    +0.000 C 
ATOM      8  S   UNL     1      -2.858   0.825   0.000  0.00  0.00    +0.000 S 
ATOM      9  C   UNL     1      -2.143   1.238   0.000  0.00  0.00    +0.000 C 
ATOM     10  C   UNL     1      -3.270  -0.715   0.000  0.00  0.00    +0.000 C 
ATOM     11  N   UNL     1      -4.067  -0.928   0.000  0.00  0.00    +0.000 NA
ATOM     12  C   UNL     1      -4.281  -1.725   0.000  0.00  0.00    +0.000 C 
ATOM     13  O   UNL     1      -3.697  -2.308   0.000  0.00  0.00    +0.000 OA
ATOM     14  C   UNL     1      -5.078  -1.938   0.000  0.00  0.00    +0.000 C 
ATOM     15  N   UNL     1      -5.661  -1.355   0.000  0.00  0.00    +0.000 NA
ATOM     16  O   UNL     1      -5.447  -0.558   0.000  0.00  0.00    +0.000 OA
ATOM     17  C   UNL     1      -6.031   0.025   0.000  0.00  0.00    +0.000 C 
ATOM     18  C   UNL     1      -5.291  -2.735   0.000  0.00  0.00    +0.000 A 
ATOM     19  C   UNL     1      -4.772  -3.376   0.000  0.00  0.00    +0.000 A 
ATOM     20  S   UNL     1      -5.221  -4.068   0.000  0.00  0.00    +0.000 S 
ATOM     21  C   UNL     1      -6.018  -3.855   0.000  0.00  0.00    +0.000 A 
ATOM     22  N   UNL     1      -6.659  -4.374   0.000  0.00  0.00    +0.000 NA
ATOM     23  N   UNL     1      -6.061  -3.031   0.000  0.00  0.00    +0.000 NA
ATOM     24  C   UNL     1      -2.556  -1.127   0.000  0.00  0.00    +0.000 C 
ATOM     25  O   UNL     1      -2.342  -1.924   0.000  0.00  0.00    +0.000 OA
ATOM     26  C   UNL     1      -0.715  -0.412   0.000  0.00  0.00    +0.000 C 
ATOM     27  O   UNL     1      -0.715  -1.238   0.000  0.00  0.00    +0.000 OA
ATOM     28  O   UNL     1       0.000   0.000   0.000  0.00  0.00    +0.000 OA
ATOM     29  C   UNL     1       0.715  -0.412   0.000  0.00  0.00    +0.000 C 
ATOM     30  C   UNL     1       0.715  -1.238   0.000  0.00  0.00    +0.000 C 
ATOM     31  O   UNL     1       1.429   0.000   0.000  0.00  0.00    +0.000 OA
ATOM     32  C   UNL     1       2.143  -0.412   0.000  0.00  0.00    +0.000 C 
ATOM     33  O   UNL     1       2.143  -1.238   0.000  0.00  0.00    +0.000 OA
ATOM     34  O   UNL     1       2.858   0.000   0.000  0.00  0.00    +0.000 OA
ATOM     35  C   UNL     1       3.572  -0.412   0.000  0.00  0.00    +0.000 C 
ATOM     36  C   UNL     1       4.287   0.000   0.000  0.00  0.00    +0.000 C 
ATOM     37  C   UNL     1       3.572  -1.238   0.000  0.00  0.00    +0.000 C 
ENDROOT
TORSDOF 0
