ROOT
REMARK  Name = ceftizoxime
REMARK                            x       y       z     vdW  Elec       q    Type
REMARK                         _______ _______ _______ _____ _____    ______ ____
ATOM      1  C   UNK A   0      -1.895   0.589   0.000  0.00  0.00    +0.000 C 
ATOM      2  O   UNK A   0      -1.098   0.802   0.000  0.00  0.00    +0.000 OA
ATOM      3  N   UNK A   0      -0.885   1.599   0.000  0.00  0.00    +0.000 NA
ATOM      4  C   UNK A   0      -0.088   1.813   0.000  0.00  0.00    +0.000 C 
ATOM      5  C   UNK A   0       0.496   1.229   0.000  0.00  0.00    +0.000 C 
ATOM      6  O   UNK A   0       1.292   1.443   0.000  0.00  0.00    +0.000 OA
ATOM      7  N   UNK A   2       0.282   0.432   0.000  0.00  0.00    +0.000 NA
ATOM      8  C   UNK A   2       0.866  -0.151   0.000  0.00  0.00    +0.000 C 
ATOM      9  C   UNK A   2       1.690  -0.151   0.000  0.00  0.00    +0.000 C 
ATOM     10  S   UNK A   2       2.405   0.262   0.000  0.00  0.00    +0.000 S 
ATOM     11  C   UNK A   2       3.119  -0.151   0.000  0.00  0.00    +0.000 C 
ATOM     12  C   UNK A   2       3.119  -0.976   0.000  0.00  0.00    +0.000 C 
ATOM     13  C   UNK A   2       2.405  -1.389   0.000  0.00  0.00    +0.000 C 
ATOM     14  N   UNK A   2       1.690  -0.976   0.000  0.00  0.00    +0.000 N 
ATOM     15  C   UNK A   2       0.866  -0.976   0.000  0.00  0.00    +0.000 C 
ATOM     16  O   UNK A   2       0.282  -1.559   0.000  0.00  0.00    +0.000 OA
ATOM     17  C   UNK A   2       2.405  -2.213   0.000  0.00  0.00    +0.000 C 
ATOM     18  O   UNK A   2       3.119  -2.626   0.000  0.00  0.00    +0.000 OA
ATOM     19  O   UNK A   2       1.690  -2.626   0.000  0.00  0.00    +0.000 OA
ATOM     20  C   UNK A   0       0.126   2.610   0.000  0.00  0.00    +0.000 A 
ATOM     21  C   UNK A   0      -0.393   3.251   0.000  0.00  0.00    +0.000 A 
ATOM     22  S   UNK A   0       0.056   3.943   0.000  0.00  0.00    +0.000 S 
ATOM     23  C   UNK A   0       0.853   3.729   0.000  0.00  0.00    +0.000 A 
ATOM     24  N   UNK A   0       1.494   4.248   0.000  0.00  0.00    +0.000 NA
ATOM     25  N   UNK A   0       0.896   2.905   0.000  0.00  0.00    +0.000 NA
ENDROOT
TORSDOF 0
