ROOT
REMARK  Name = cepharanthine
REMARK                            x       y       z     vdW  Elec       q    Type
REMARK                         _______ _______ _______ _____ _____    ______ ____
ATOM      1  C   UNL     1      13.136  -0.181   0.000  0.00  0.00    +0.000 C 
ATOM      2  O   UNL     1      13.290   0.629   0.000  0.00  0.00    +0.000 OA
ATOM      3  C   UNL     1      12.665   1.168   0.000  0.00  0.00    +0.000 A 
ATOM      4  C   UNL     1      11.879   0.878   0.000  0.00  0.00    +0.000 A 
ATOM      5  O   UNL     1      11.632   0.057   0.000  0.00  0.00    +0.000 OA
ATOM      6  C   UNL     1      11.033  -0.561   0.000  0.00  0.00    +0.000 A 
ATOM      7  C   UNL     1      10.415   0.009   0.000  0.00  0.00    +0.000 A 
ATOM      8  C   UNL     1       9.616  -0.190   0.000  0.00  0.00    +0.000 A 
ATOM      9  C   UNL     1       9.366  -0.986   0.000  0.00  0.00    +0.000 A 
ATOM     10  C   UNL     1       8.522  -0.813   0.000  0.00  0.00    +0.000 C 
ATOM     11  C   UNL     1       7.661  -0.625   0.000  0.00  0.00    +0.000 C 
ATOM     12  N   UNL     1       7.425  -1.435   0.000  0.00  0.00    +0.000 NA
ATOM     13  C   UNL     1       8.009  -2.018   0.000  0.00  0.00    +0.000 C 
ATOM     14  C   UNL     1       6.631  -1.668   0.000  0.00  0.00    +0.000 C 
ATOM     15  C   UNL     1       6.036  -1.101   0.000  0.00  0.00    +0.000 C 
ATOM     16  C   UNL     1       6.235  -0.288   0.000  0.00  0.00    +0.000 A 
ATOM     17  C   UNL     1       5.577   0.220   0.000  0.00  0.00    +0.000 A 
ATOM     18  C   UNL     1       5.681   1.035   0.000  0.00  0.00    +0.000 A 
ATOM     19  C   UNL     1       6.446   1.345   0.000  0.00  0.00    +0.000 A 
ATOM     20  O   UNL     1       6.388   2.168   0.000  0.00  0.00    +0.000 OA
ATOM     21  C   UNL     1       5.587   2.367   0.000  0.00  0.00    +0.000 C 
ATOM     22  O   UNL     1       5.151   1.667   0.000  0.00  0.00    +0.000 OA
ATOM     23  C   UNL     1       7.144   0.871   0.000  0.00  0.00    +0.000 A 
ATOM     24  O   UNL     1       7.616   1.613   0.000  0.00  0.00    +0.000 OA
ATOM     25  C   UNL     1       7.826   2.467   0.000  0.00  0.00    +0.000 A 
ATOM     26  C   UNL     1       7.417   3.214   0.000  0.00  0.00    +0.000 A 
ATOM     27  O   UNL     1       6.592   3.215   0.000  0.00  0.00    +0.000 OA
ATOM     28  C   UNL     1       6.180   3.930   0.000  0.00  0.00    +0.000 C 
ATOM     29  C   UNL     1       7.820   3.946   0.000  0.00  0.00    +0.000 A 
ATOM     30  C   UNL     1       8.664   3.958   0.000  0.00  0.00    +0.000 A 
ATOM     31  C   UNL     1       9.073   4.692   0.000  0.00  0.00    +0.000 C 
ATOM     32  C   UNL     1       9.904   4.722   0.000  0.00  0.00    +0.000 C 
ATOM     33  N   UNL     1      10.334   4.012   0.000  0.00  0.00    +0.000 NA
ATOM     34  C   UNL     1      11.158   4.049   0.000  0.00  0.00    +0.000 C 
ATOM     35  C   UNL     1       9.965   3.259   0.000  0.00  0.00    +0.000 C 
ATOM     36  C   UNL     1      10.643   2.720   0.000  0.00  0.00    +0.000 C 
ATOM     37  C   UNL     1      11.390   2.284   0.000  0.00  0.00    +0.000 A 
ATOM     38  C   UNL     1      12.199   2.529   0.000  0.00  0.00    +0.000 A 
ATOM     39  C   UNL     1      12.834   1.982   0.000  0.00  0.00    +0.000 A 
ATOM     40  C   UNL     1      11.264   1.456   0.000  0.00  0.00    +0.000 A 
ATOM     41  C   UNL     1       9.104   3.240   0.000  0.00  0.00    +0.000 A 
ATOM     42  C   UNL     1       8.665   2.519   0.000  0.00  0.00    +0.000 A 
ATOM     43  C   UNL     1       7.039  -0.007   0.000  0.00  0.00    +0.000 A 
ATOM     44  C   UNL     1       9.977  -1.581   0.000  0.00  0.00    +0.000 A 
ATOM     45  C   UNL     1      10.782  -1.368   0.000  0.00  0.00    +0.000 A 
ENDROOT
TORSDOF 0
