ROOT
REMARK  Name = ceritinib
REMARK                            x       y       z     vdW  Elec       q    Type
REMARK                         _______ _______ _______ _____ _____    ______ ____
ATOM      1  C   UNL     1       0.000   0.825   0.000  0.00  0.00    +0.000 C 
ATOM      2  C   UNL     1       0.000   0.000   0.000  0.00  0.00    +0.000 C 
ATOM      3  C   UNL     1      -0.715  -0.412   0.000  0.00  0.00    +0.000 C 
ATOM      4  O   UNL     1       0.715  -0.412   0.000  0.00  0.00    +0.000 OA
ATOM      5  C   UNL     1       0.715  -1.238   0.000  0.00  0.00    +0.000 A 
ATOM      6  C   UNL     1       1.429  -1.650   0.000  0.00  0.00    +0.000 A 
ATOM      7  N   UNL     1       2.143  -1.238   0.000  0.00  0.00    +0.000 NA
ATOM      8  C   UNL     1       2.143  -0.412   0.000  0.00  0.00    +0.000 A 
ATOM      9  N   UNL     1       1.429   0.000   0.000  0.00  0.00    +0.000 NA
ATOM     10  C   UNL     1       1.429   0.825   0.000  0.00  0.00    +0.000 A 
ATOM     11  C   UNL     1       2.143   1.238   0.000  0.00  0.00    +0.000 A 
ATOM     12 CL   UNL     1       2.143   2.062   0.000  0.00  0.00    +0.000 Cl
ATOM     13  C   UNL     1       2.858   0.825   0.000  0.00  0.00    +0.000 A 
ATOM     14  N   UNL     1       3.572   1.238   0.000  0.00  0.00    +0.000 NA
ATOM     15  C   UNL     1       3.572   2.062   0.000  0.00  0.00    +0.000 A 
ATOM     16  C   UNL     1       4.287   2.475   0.000  0.00  0.00    +0.000 A 
ATOM     17  C   UNL     1       4.287   3.300   0.000  0.00  0.00    +0.000 A 
ATOM     18  C   UNL     1       3.572   3.712   0.000  0.00  0.00    +0.000 A 
ATOM     19  C   UNL     1       2.858   3.300   0.000  0.00  0.00    +0.000 A 
ATOM     20  C   UNL     1       2.858   2.475   0.000  0.00  0.00    +0.000 A 
ATOM     21  S   UNL     1       5.001   2.062   0.000  0.00  0.00    +0.000 S 
ATOM     22  O   UNL     1       4.589   1.348   0.000  0.00  0.00    +0.000 OA
ATOM     23  O   UNL     1       5.414   2.777   0.000  0.00  0.00    +0.000 OA
ATOM     24  C   UNL     1       5.716   1.650   0.000  0.00  0.00    +0.000 C 
ATOM     25  C   UNL     1       6.430   2.062   0.000  0.00  0.00    +0.000 C 
ATOM     26  C   UNL     1       5.716   0.825   0.000  0.00  0.00    +0.000 C 
ATOM     27  N   UNL     1       2.858   0.000   0.000  0.00  0.00    +0.000 NA
ATOM     28  C   UNL     1       1.429  -2.475   0.000  0.00  0.00    +0.000 A 
ATOM     29  C   UNL     1       0.715  -2.888   0.000  0.00  0.00    +0.000 A 
ATOM     30  C   UNL     1       0.715  -3.712   0.000  0.00  0.00    +0.000 C 
ATOM     31  C   UNL     1       0.000  -2.475   0.000  0.00  0.00    +0.000 A 
ATOM     32  C   UNL     1       0.000  -1.650   0.000  0.00  0.00    +0.000 A 
ATOM     33  C   UNL     1      -0.715  -2.888   0.000  0.00  0.00    +0.000 C 
ATOM     34  C   UNL     1      -0.715  -3.712   0.000  0.00  0.00    +0.000 C 
ATOM     35  C   UNL     1      -1.429  -4.125   0.000  0.00  0.00    +0.000 C 
ATOM     36  N   UNL     1      -2.143  -3.712   0.000  0.00  0.00    +0.000 NA
ATOM     37  C   UNL     1      -2.143  -2.888   0.000  0.00  0.00    +0.000 C 
ATOM     38  C   UNL     1      -1.429  -2.475   0.000  0.00  0.00    +0.000 C 
ENDROOT
TORSDOF 0
