ROOT
REMARK  Name = cetiedil
REMARK                            x       y       z     vdW  Elec       q    Type
REMARK                         _______ _______ _______ _____ _____    ______ ____
ATOM      1  O   UNL     1       2.605  -2.556   0.000  0.00  0.00    +0.000 OA
ATOM      2  C   UNL     1       2.605  -1.731   0.000  0.00  0.00    +0.000 C 
ATOM      3  O   UNL     1       1.890  -1.319   0.000  0.00  0.00    +0.000 OA
ATOM      4  C   UNL     1       1.176  -1.731   0.000  0.00  0.00    +0.000 C 
ATOM      5  C   UNL     1       0.461  -1.319   0.000  0.00  0.00    +0.000 C 
ATOM      6  N   UNL     1      -0.253  -1.731   0.000  0.00  0.00    +0.000 NA
ATOM      7  C   UNL     1      -0.191  -2.554   0.000  0.00  0.00    +0.000 C 
ATOM      8  C   UNL     1      -0.796  -3.115   0.000  0.00  0.00    +0.000 C 
ATOM      9  C   UNL     1      -1.612  -2.992   0.000  0.00  0.00    +0.000 C 
ATOM     10  C   UNL     1      -2.024  -2.278   0.000  0.00  0.00    +0.000 C 
ATOM     11  C   UNL     1      -1.723  -1.510   0.000  0.00  0.00    +0.000 C 
ATOM     12  C   UNL     1      -0.935  -1.266   0.000  0.00  0.00    +0.000 C 
ATOM     13  C   UNL     1       3.319  -1.319   0.000  0.00  0.00    +0.000 C 
ATOM     14  C   UNL     1       4.034  -1.731   0.000  0.00  0.00    +0.000 C 
ATOM     15  C   UNL     1       4.748  -1.319   0.000  0.00  0.00    +0.000 C 
ATOM     16  C   UNL     1       5.463  -1.731   0.000  0.00  0.00    +0.000 C 
ATOM     17  C   UNL     1       5.463  -2.556   0.000  0.00  0.00    +0.000 C 
ATOM     18  C   UNL     1       4.748  -2.969   0.000  0.00  0.00    +0.000 C 
ATOM     19  C   UNL     1       4.034  -2.556   0.000  0.00  0.00    +0.000 C 
ATOM     20  C   UNL     1       3.319  -0.494   0.000  0.00  0.00    +0.000 A 
ATOM     21  C   UNL     1       2.652  -0.009   0.000  0.00  0.00    +0.000 A 
ATOM     22  S   UNL     1       2.907   0.776   0.000  0.00  0.00    +0.000 S 
ATOM     23  C   UNL     1       3.732   0.776   0.000  0.00  0.00    +0.000 A 
ATOM     24  C   UNL     1       3.987  -0.009   0.000  0.00  0.00    +0.000 A 
ENDROOT
TORSDOF 0
