ROOT
REMARK  Name = chlormidazole
REMARK                            x       y       z     vdW  Elec       q    Type
REMARK                         _______ _______ _______ _____ _____    ______ ____
ATOM      1  C   UNL     1      -1.453  -0.698   0.000  0.00  0.00    +0.000 C 
ATOM      2  C   UNL     1      -0.628  -0.698   0.000  0.00  0.00    +0.000 A 
ATOM      3  N   UNL     1      -0.143  -1.365   0.000  0.00  0.00    +0.000 NA
ATOM      4  C   UNL     1       0.641  -1.110   0.000  0.00  0.00    +0.000 A 
ATOM      5  C   UNL     1       0.641  -0.285   0.000  0.00  0.00    +0.000 A 
ATOM      6  C   UNL     1       1.356   0.127   0.000  0.00  0.00    +0.000 A 
ATOM      7  C   UNL     1       2.070  -0.285   0.000  0.00  0.00    +0.000 A 
ATOM      8  C   UNL     1       2.070  -1.110   0.000  0.00  0.00    +0.000 A 
ATOM      9  C   UNL     1       1.356  -1.523   0.000  0.00  0.00    +0.000 A 
ATOM     10  N   UNL     1      -0.143  -0.030   0.000  0.00  0.00    +0.000 N 
ATOM     11  C   UNL     1      -0.398   0.754   0.000  0.00  0.00    +0.000 C 
ATOM     12  C   UNL     1       0.154   1.367   0.000  0.00  0.00    +0.000 A 
ATOM     13  C   UNL     1      -0.101   2.152   0.000  0.00  0.00    +0.000 A 
ATOM     14  C   UNL     1       0.451   2.765   0.000  0.00  0.00    +0.000 A 
ATOM     15  C   UNL     1       1.258   2.593   0.000  0.00  0.00    +0.000 A 
ATOM     16 CL   UNL     1       1.810   3.207   0.000  0.00  0.00    +0.000 Cl
ATOM     17  C   UNL     1       1.513   1.809   0.000  0.00  0.00    +0.000 A 
ATOM     18  C   UNL     1       0.961   1.196   0.000  0.00  0.00    +0.000 A 
ENDROOT
TORSDOF 0
