ROOT
REMARK  Name = cilazapril
REMARK                            x       y       z     vdW  Elec       q    Type
REMARK                         _______ _______ _______ _____ _____    ______ ____
ATOM      1  C   UNL     1      -1.986  -0.911   0.000  0.00  0.00    +0.000 C 
ATOM      2  C   UNL     1      -1.161  -0.911   0.000  0.00  0.00    +0.000 C 
ATOM      3  O   UNL     1      -0.748  -0.196   0.000  0.00  0.00    +0.000 OA
ATOM      4  C   UNL     1       0.077  -0.196   0.000  0.00  0.00    +0.000 C 
ATOM      5  O   UNL     1       0.489  -0.911   0.000  0.00  0.00    +0.000 OA
ATOM      6  C   UNL     1       0.489   0.518   0.000  0.00  0.00    +0.000 C 
ATOM      7  C   UNL     1       1.314   0.518   0.000  0.00  0.00    +0.000 C 
ATOM      8  C   UNL     1       1.727  -0.196   0.000  0.00  0.00    +0.000 C 
ATOM      9  C   UNL     1       2.552  -0.196   0.000  0.00  0.00    +0.000 A 
ATOM     10  C   UNL     1       2.964   0.518   0.000  0.00  0.00    +0.000 A 
ATOM     11  C   UNL     1       3.789   0.518   0.000  0.00  0.00    +0.000 A 
ATOM     12  C   UNL     1       4.202  -0.196   0.000  0.00  0.00    +0.000 A 
ATOM     13  C   UNL     1       3.789  -0.911   0.000  0.00  0.00    +0.000 A 
ATOM     14  C   UNL     1       2.964  -0.911   0.000  0.00  0.00    +0.000 A 
ATOM     15  N   UNL     1       0.077   1.232   0.000  0.00  0.00    +0.000 NA
ATOM     16  C   UNL     1      -0.748   1.232   0.000  0.00  0.00    +0.000 C 
ATOM     17  C   UNL     1      -1.106   0.489   0.000  0.00  0.00    +0.000 C 
ATOM     18  C   UNL     1      -1.910   0.306   0.000  0.00  0.00    +0.000 C 
ATOM     19  C   UNL     1      -2.555   0.820   0.000  0.00  0.00    +0.000 C 
ATOM     20  N   UNL     1      -2.555   1.645   0.000  0.00  0.00    +0.000 NA
ATOM     21  C   UNL     1      -3.323   1.946   0.000  0.00  0.00    +0.000 C 
ATOM     22  C   UNL     1      -3.446   2.762   0.000  0.00  0.00    +0.000 C 
ATOM     23  C   UNL     1      -2.801   3.277   0.000  0.00  0.00    +0.000 C 
ATOM     24  C   UNL     1      -2.033   2.975   0.000  0.00  0.00    +0.000 C 
ATOM     25  N   UNL     1      -1.910   2.159   0.000  0.00  0.00    +0.000 N 
ATOM     26  C   UNL     1      -1.106   1.976   0.000  0.00  0.00    +0.000 C 
ATOM     27  O   UNL     1      -0.592   2.621   0.000  0.00  0.00    +0.000 OA
ATOM     28  C   UNL     1      -1.388   3.490   0.000  0.00  0.00    +0.000 C 
ATOM     29  O   UNL     1      -0.620   3.188   0.000  0.00  0.00    +0.000 OA
ATOM     30  O   UNL     1      -1.511   4.305   0.000  0.00  0.00    +0.000 OA
ENDROOT
TORSDOF 0
