ROOT
REMARK  Name = citalopram
REMARK                            x       y       z     vdW  Elec       q    Type
REMARK                         _______ _______ _______ _____ _____    ______ ____
ATOM      1  C   UNL     1      -3.832   0.697   0.000  0.00  0.00    +0.000 C 
ATOM      2  N   UNL     1      -3.118   0.284   0.000  0.00  0.00    +0.000 NA
ATOM      3  C   UNL     1      -3.118  -0.541   0.000  0.00  0.00    +0.000 C 
ATOM      4  C   UNL     1      -2.403   0.697   0.000  0.00  0.00    +0.000 C 
ATOM      5  C   UNL     1      -1.689   0.284   0.000  0.00  0.00    +0.000 C 
ATOM      6  C   UNL     1      -0.975   0.697   0.000  0.00  0.00    +0.000 C 
ATOM      7  C   UNL     1      -0.260   0.284   0.000  0.00  0.00    +0.000 C 
ATOM      8  O   UNL     1       0.353  -0.268   0.000  0.00  0.00    +0.000 OA
ATOM      9  C   UNL     1       1.068   0.145   0.000  0.00  0.00    +0.000 C 
ATOM     10  C   UNL     1       0.896   0.952   0.000  0.00  0.00    +0.000 A 
ATOM     11  C   UNL     1       0.075   1.038   0.000  0.00  0.00    +0.000 A 
ATOM     12  C   UNL     1      -0.260   1.792   0.000  0.00  0.00    +0.000 A 
ATOM     13  C   UNL     1       0.225   2.459   0.000  0.00  0.00    +0.000 A 
ATOM     14  C   UNL     1       1.045   2.373   0.000  0.00  0.00    +0.000 A 
ATOM     15  C   UNL     1       1.381   1.619   0.000  0.00  0.00    +0.000 A 
ATOM     16  C   UNL     1       1.530   3.040   0.000  0.00  0.00    +0.000 C 
ATOM     17  N   UNL     1       2.015   3.708   0.000  0.00  0.00    +0.000 NA
ATOM     18  C   UNL     1      -0.745  -0.383   0.000  0.00  0.00    +0.000 A 
ATOM     19  C   UNL     1      -0.409  -1.137   0.000  0.00  0.00    +0.000 A 
ATOM     20  C   UNL     1      -0.894  -1.804   0.000  0.00  0.00    +0.000 A 
ATOM     21  C   UNL     1      -1.715  -1.718   0.000  0.00  0.00    +0.000 A 
ATOM     22  F   UNL     1      -2.200  -2.386   0.000  0.00  0.00    +0.000 F 
ATOM     23  C   UNL     1      -2.050  -0.965   0.000  0.00  0.00    +0.000 A 
ATOM     24  C   UNL     1      -1.565  -0.297   0.000  0.00  0.00    +0.000 A 
ENDROOT
TORSDOF 0
