ROOT
REMARK  Name = clebopride
REMARK                            x       y       z     vdW  Elec       q    Type
REMARK                         _______ _______ _______ _____ _____    ______ ____
ATOM      1  C   UNL     1       5.001  -1.238   0.000  0.00  0.00    +0.000 C 
ATOM      2  O   UNL     1       5.716  -1.650   0.000  0.00  0.00    +0.000 OA
ATOM      3  C   UNL     1       5.716  -2.475   0.000  0.00  0.00    +0.000 A 
ATOM      4  C   UNL     1       6.430  -2.888   0.000  0.00  0.00    +0.000 A 
ATOM      5  C   UNL     1       6.430  -3.712   0.000  0.00  0.00    +0.000 A 
ATOM      6  C   UNL     1       5.716  -4.125   0.000  0.00  0.00    +0.000 A 
ATOM      7 CL   UNL     1       5.716  -4.950   0.000  0.00  0.00    +0.000 Cl
ATOM      8  C   UNL     1       5.001  -3.712   0.000  0.00  0.00    +0.000 A 
ATOM      9  N   UNL     1       4.287  -4.125   0.000  0.00  0.00    +0.000 NA
ATOM     10  C   UNL     1       5.001  -2.888   0.000  0.00  0.00    +0.000 A 
ATOM     11  C   UNL     1       7.145  -2.475   0.000  0.00  0.00    +0.000 C 
ATOM     12  O   UNL     1       7.859  -2.888   0.000  0.00  0.00    +0.000 OA
ATOM     13  N   UNL     1       7.145  -1.650   0.000  0.00  0.00    +0.000 NA
ATOM     14  C   UNL     1       7.859  -1.238   0.000  0.00  0.00    +0.000 C 
ATOM     15  C   UNL     1       7.859  -0.412   0.000  0.00  0.00    +0.000 C 
ATOM     16  C   UNL     1       8.574   0.000   0.000  0.00  0.00    +0.000 C 
ATOM     17  N   UNL     1       9.288  -0.412   0.000  0.00  0.00    +0.000 NA
ATOM     18  C   UNL     1      10.003   0.000   0.000  0.00  0.00    +0.000 C 
ATOM     19  C   UNL     1      10.717  -0.412   0.000  0.00  0.00    +0.000 A 
ATOM     20  C   UNL     1      11.431   0.000   0.000  0.00  0.00    +0.000 A 
ATOM     21  C   UNL     1      12.146  -0.412   0.000  0.00  0.00    +0.000 A 
ATOM     22  C   UNL     1      12.146  -1.238   0.000  0.00  0.00    +0.000 A 
ATOM     23  C   UNL     1      11.431  -1.650   0.000  0.00  0.00    +0.000 A 
ATOM     24  C   UNL     1      10.717  -1.238   0.000  0.00  0.00    +0.000 A 
ATOM     25  C   UNL     1       9.288  -1.238   0.000  0.00  0.00    +0.000 C 
ATOM     26  C   UNL     1       8.574  -1.650   0.000  0.00  0.00    +0.000 C 
ENDROOT
TORSDOF 0
