ROOT
REMARK  Name = clefamide
REMARK                            x       y       z     vdW  Elec       q    Type
REMARK                         _______ _______ _______ _____ _____    ______ ____
ATOM      1  O   UNL     1      -1.127  -2.998   0.000  0.00  0.00    +0.000 OA
ATOM      2  C   UNL     1      -0.715  -3.712   0.000  0.00  0.00    +0.000 C 
ATOM      3  C   UNL     1       0.111  -3.712   0.000  0.00  0.00    +0.000 C 
ATOM      4  N   UNL     1       0.523  -4.427   0.000  0.00  0.00    +0.000 N 
ATOM      5  C   UNL     1       0.111  -5.141   0.000  0.00  0.00    +0.000 C 
ATOM      6  C   UNL     1      -0.715  -5.141   0.000  0.00  0.00    +0.000 A 
ATOM      7  C   UNL     1      -1.127  -5.856   0.000  0.00  0.00    +0.000 A 
ATOM      8  C   UNL     1      -1.952  -5.856   0.000  0.00  0.00    +0.000 A 
ATOM      9  C   UNL     1      -2.365  -5.141   0.000  0.00  0.00    +0.000 A 
ATOM     10  O   UNL     1      -3.189  -5.141   0.000  0.00  0.00    +0.000 OA
ATOM     11  C   UNL     1      -3.602  -5.856   0.000  0.00  0.00    +0.000 A 
ATOM     12  C   UNL     1      -3.189  -6.570   0.000  0.00  0.00    +0.000 A 
ATOM     13  C   UNL     1      -3.602  -7.285   0.000  0.00  0.00    +0.000 A 
ATOM     14  C   UNL     1      -4.427  -7.285   0.000  0.00  0.00    +0.000 A 
ATOM     15  C   UNL     1      -4.840  -6.570   0.000  0.00  0.00    +0.000 A 
ATOM     16  C   UNL     1      -4.427  -5.856   0.000  0.00  0.00    +0.000 A 
ATOM     17  N   UNL     1      -4.840  -7.999   0.000  0.00  0.00    +0.000 N 
ATOM     18  O   UNL     1      -4.427  -8.714   0.000  0.00  0.00    +0.000 OA
ATOM     19  O   UNL     1      -5.665  -7.999   0.000  0.00  0.00    +0.000 OA
ATOM     20  C   UNL     1      -1.952  -4.427   0.000  0.00  0.00    +0.000 A 
ATOM     21  C   UNL     1      -1.127  -4.427   0.000  0.00  0.00    +0.000 A 
ATOM     22  C   UNL     1       1.348  -4.427   0.000  0.00  0.00    +0.000 C 
ATOM     23  O   UNL     1       1.760  -5.141   0.000  0.00  0.00    +0.000 OA
ATOM     24  C   UNL     1       1.760  -3.712   0.000  0.00  0.00    +0.000 C 
ATOM     25 CL   UNL     1       1.348  -2.998   0.000  0.00  0.00    +0.000 Cl
ATOM     26 CL   UNL     1       2.586  -3.712   0.000  0.00  0.00    +0.000 Cl
ENDROOT
TORSDOF 0
