ROOT
REMARK  Name = clobenzepam
REMARK                            x       y       z     vdW  Elec       q    Type
REMARK                         _______ _______ _______ _____ _____    ______ ____
ATOM      1  C   UNL     1       6.577   3.910   0.000  0.00  0.00    +0.000 C 
ATOM      2  N   UNL     1       5.755   3.849   0.000  0.00  0.00    +0.000 NA
ATOM      3  C   UNL     1       5.290   4.530   0.000  0.00  0.00    +0.000 C 
ATOM      4  C   UNL     1       5.397   3.105   0.000  0.00  0.00    +0.000 C 
ATOM      5  C   UNL     1       4.574   3.044   0.000  0.00  0.00    +0.000 C 
ATOM      6  N   UNL     1       4.216   2.300   0.000  0.00  0.00    +0.000 N 
ATOM      7  C   UNL     1       4.731   1.655   0.000  0.00  0.00    +0.000 A 
ATOM      8  C   UNL     1       4.547   0.851   0.000  0.00  0.00    +0.000 A 
ATOM      9  N   UNL     1       3.804   0.493   0.000  0.00  0.00    +0.000 NA
ATOM     10  C   UNL     1       3.060   0.851   0.000  0.00  0.00    +0.000 A 
ATOM     11  C   UNL     1       2.456   0.290   0.000  0.00  0.00    +0.000 A 
ATOM     12  C   UNL     1       1.667   0.533   0.000  0.00  0.00    +0.000 A 
ATOM     13  C   UNL     1       1.484   1.337   0.000  0.00  0.00    +0.000 A 
ATOM     14  C   UNL     1       2.088   1.899   0.000  0.00  0.00    +0.000 A 
ATOM     15  C   UNL     1       2.877   1.655   0.000  0.00  0.00    +0.000 A 
ATOM     16  C   UNL     1       3.391   2.300   0.000  0.00  0.00    +0.000 C 
ATOM     17  O   UNL     1       3.033   3.044   0.000  0.00  0.00    +0.000 OA
ATOM     18  C   UNL     1       5.152   0.290   0.000  0.00  0.00    +0.000 A 
ATOM     19  C   UNL     1       5.940   0.533   0.000  0.00  0.00    +0.000 A 
ATOM     20 CL   UNL     1       6.545  -0.028   0.000  0.00  0.00    +0.000 Cl
ATOM     21  C   UNL     1       6.124   1.337   0.000  0.00  0.00    +0.000 A 
ATOM     22  C   UNL     1       5.519   1.899   0.000  0.00  0.00    +0.000 A 
ENDROOT
TORSDOF 0
