ROOT
REMARK  Name = clobenoside
REMARK                            x       y       z     vdW  Elec       q    Type
REMARK                         _______ _______ _______ _____ _____    ______ ____
ATOM      1  C   UNL     1       1.066  -0.747   0.000  0.00  0.00    +0.000 C 
ATOM      2  C   UNL     1       1.679  -1.298   0.000  0.00  0.00    +0.000 C 
ATOM      3  C   UNL     1       1.507  -2.106   0.000  0.00  0.00    +0.000 C 
ATOM      4  O   UNL     1       2.120  -2.658   0.000  0.00  0.00    +0.000 OA
ATOM      5  C   UNL     1       2.905  -2.403   0.000  0.00  0.00    +0.000 C 
ATOM      6  C   UNL     1       3.160  -1.618   0.000  0.00  0.00    +0.000 C 
ATOM      7  O   UNL     1       2.675  -0.951   0.000  0.00  0.00    +0.000 OA
ATOM      8  C   UNL     1       3.985  -1.618   0.000  0.00  0.00    +0.000 C 
ATOM      9  O   UNL     1       4.470  -0.951   0.000  0.00  0.00    +0.000 OA
ATOM     10  C   UNL     1       4.134  -0.197   0.000  0.00  0.00    +0.000 C 
ATOM     11  C   UNL     1       4.619   0.471   0.000  0.00  0.00    +0.000 C 
ATOM     12  O   UNL     1       4.240  -2.403   0.000  0.00  0.00    +0.000 OA
ATOM     13  C   UNL     1       3.572  -2.888   0.000  0.00  0.00    +0.000 C 
ATOM     14  C   UNL     1       3.572  -3.712   0.000  0.00  0.00    +0.000 C 
ATOM     15  C   UNL     1       2.858  -4.125   0.000  0.00  0.00    +0.000 C 
ATOM     16  O   UNL     1       2.143  -3.712   0.000  0.00  0.00    +0.000 OA
ATOM     17  C   UNL     1       1.429  -4.125   0.000  0.00  0.00    +0.000 C 
ATOM     18  C   UNL     1       0.715  -3.712   0.000  0.00  0.00    +0.000 A 
ATOM     19  C   UNL     1       0.000  -4.125   0.000  0.00  0.00    +0.000 A 
ATOM     20  C   UNL     1      -0.715  -3.712   0.000  0.00  0.00    +0.000 A 
ATOM     21  C   UNL     1      -0.715  -2.888   0.000  0.00  0.00    +0.000 A 
ATOM     22 CL   UNL     1      -1.429  -2.475   0.000  0.00  0.00    +0.000 Cl
ATOM     23  C   UNL     1       0.000  -2.475   0.000  0.00  0.00    +0.000 A 
ATOM     24  C   UNL     1       0.715  -2.888   0.000  0.00  0.00    +0.000 A 
ATOM     25  O   UNL     1       4.287  -4.125   0.000  0.00  0.00    +0.000 OA
ATOM     26  C   UNL     1       5.001  -3.712   0.000  0.00  0.00    +0.000 C 
ATOM     27  C   UNL     1       5.716  -4.125   0.000  0.00  0.00    +0.000 A 
ATOM     28  C   UNL     1       6.430  -3.712   0.000  0.00  0.00    +0.000 A 
ATOM     29  C   UNL     1       7.145  -4.125   0.000  0.00  0.00    +0.000 A 
ATOM     30  C   UNL     1       7.145  -4.950   0.000  0.00  0.00    +0.000 A 
ATOM     31 CL   UNL     1       7.859  -5.362   0.000  0.00  0.00    +0.000 Cl
ATOM     32  C   UNL     1       6.430  -5.362   0.000  0.00  0.00    +0.000 A 
ATOM     33  C   UNL     1       5.716  -4.950   0.000  0.00  0.00    +0.000 A 
ENDROOT
TORSDOF 0
