ROOT
REMARK  Name = clodronic acid
REMARK                            x       y       z     vdW  Elec       q    Type
REMARK                         _______ _______ _______ _____ _____    ______ ____
ATOM      1  O   UNL     1       0.825  -2.475   0.000  0.00  0.00    +0.000 OA
ATOM      2  P   UNL     1       0.825  -1.650   0.000  0.00  0.00    +0.000 P 
ATOM      3  O   UNL     1       1.650  -1.650   0.000  0.00  0.00    +0.000 OA
ATOM      4  O   UNL     1       0.000  -1.650   0.000  0.00  0.00    +0.000 OA
ATOM      5  C   UNL     1       0.825  -0.825   0.000  0.00  0.00    +0.000 C 
ATOM      6 CL   UNL     1       1.650  -0.825   0.000  0.00  0.00    +0.000 Cl
ATOM      7 CL   UNL     1       0.000  -0.825   0.000  0.00  0.00    +0.000 Cl
ATOM      8  P   UNL     1       0.825   0.000   0.000  0.00  0.00    +0.000 P 
ATOM      9  O   UNL     1       0.825   0.825   0.000  0.00  0.00    +0.000 OA
ATOM     10  O   UNL     1       1.650   0.000   0.000  0.00  0.00    +0.000 OA
ATOM     11  O   UNL     1       0.000   0.000   0.000  0.00  0.00    +0.000 OA
ENDROOT
TORSDOF 0
