ROOT
REMARK  Name = clotiazepam
REMARK                            x       y       z     vdW  Elec       q    Type
REMARK                         _______ _______ _______ _____ _____    ______ ____
ATOM      1  C   UNL     1      -1.971   0.013   0.000  0.00  0.00    +0.000 C 
ATOM      2  C   UNL     1      -1.558  -0.701   0.000  0.00  0.00    +0.000 C 
ATOM      3  C   UNL     1      -0.733  -0.701   0.000  0.00  0.00    +0.000 A 
ATOM      4  C   UNL     1      -0.248  -1.369   0.000  0.00  0.00    +0.000 A 
ATOM      5  C   UNL     1       0.536  -1.114   0.000  0.00  0.00    +0.000 A 
ATOM      6  C   UNL     1       0.536  -0.289   0.000  0.00  0.00    +0.000 A 
ATOM      7  S   UNL     1      -0.248  -0.034   0.000  0.00  0.00    +0.000 S 
ATOM      8  N   UNL     1       1.181   0.226   0.000  0.00  0.00    +0.000 N 
ATOM      9  C   UNL     1       0.998   1.030   0.000  0.00  0.00    +0.000 C 
ATOM     10  C   UNL     1       1.986   0.042   0.000  0.00  0.00    +0.000 C 
ATOM     11  O   UNL     1       2.500   0.687   0.000  0.00  0.00    +0.000 OA
ATOM     12  C   UNL     1       2.344  -0.701   0.000  0.00  0.00    +0.000 C 
ATOM     13  N   UNL     1       1.986  -1.444   0.000  0.00  0.00    +0.000 NA
ATOM     14  C   UNL     1       1.181  -1.628   0.000  0.00  0.00    +0.000 C 
ATOM     15  C   UNL     1       0.998  -2.432   0.000  0.00  0.00    +0.000 A 
ATOM     16  C   UNL     1       1.603  -2.993   0.000  0.00  0.00    +0.000 A 
ATOM     17 CL   UNL     1       2.391  -2.750   0.000  0.00  0.00    +0.000 Cl
ATOM     18  C   UNL     1       1.419  -3.798   0.000  0.00  0.00    +0.000 A 
ATOM     19  C   UNL     1       0.630  -4.041   0.000  0.00  0.00    +0.000 A 
ATOM     20  C   UNL     1       0.026  -3.480   0.000  0.00  0.00    +0.000 A 
ATOM     21  C   UNL     1       0.209  -2.675   0.000  0.00  0.00    +0.000 A 
ENDROOT
TORSDOF 0
