ROOT
REMARK  Name = cobimetinib
REMARK                            x       y       z     vdW  Elec       q    Type
REMARK                         _______ _______ _______ _____ _____    ______ ____
ATOM      1  O   UNL     1       0.544  -0.483   0.000  0.00  0.00    +0.000 OA
ATOM      2  C   UNL     1       1.127  -1.067   0.000  0.00  0.00    +0.000 C 
ATOM      3  C   UNL     1       1.710  -1.650   0.000  0.00  0.00    +0.000 C 
ATOM      4  N   UNL     1       1.127  -2.233   0.000  0.00  0.00    +0.000 N 
ATOM      5  C   UNL     1       0.544  -1.650   0.000  0.00  0.00    +0.000 C 
ATOM      6  C   UNL     1       1.127  -3.058   0.000  0.00  0.00    +0.000 C 
ATOM      7  O   UNL     1       1.841  -3.471   0.000  0.00  0.00    +0.000 OA
ATOM      8  C   UNL     1       0.412  -3.471   0.000  0.00  0.00    +0.000 A 
ATOM      9  C   UNL     1       0.412  -4.296   0.000  0.00  0.00    +0.000 A 
ATOM     10  N   UNL     1       1.127  -4.708   0.000  0.00  0.00    +0.000 NA
ATOM     11  C   UNL     1       1.127  -5.533   0.000  0.00  0.00    +0.000 A 
ATOM     12  C   UNL     1       0.412  -5.946   0.000  0.00  0.00    +0.000 A 
ATOM     13  C   UNL     1       0.412  -6.771   0.000  0.00  0.00    +0.000 A 
ATOM     14  C   UNL     1       1.127  -7.183   0.000  0.00  0.00    +0.000 A 
ATOM     15  I   UNL     1       1.127  -8.008   0.000  0.00  0.00    +0.000 I 
ATOM     16  C   UNL     1       1.841  -6.771   0.000  0.00  0.00    +0.000 A 
ATOM     17  C   UNL     1       1.841  -5.946   0.000  0.00  0.00    +0.000 A 
ATOM     18  F   UNL     1       2.556  -5.533   0.000  0.00  0.00    +0.000 F 
ATOM     19  C   UNL     1      -0.302  -4.708   0.000  0.00  0.00    +0.000 A 
ATOM     20  F   UNL     1      -0.302  -5.533   0.000  0.00  0.00    +0.000 F 
ATOM     21  C   UNL     1      -1.016  -4.296   0.000  0.00  0.00    +0.000 A 
ATOM     22  F   UNL     1      -1.731  -4.708   0.000  0.00  0.00    +0.000 F 
ATOM     23  C   UNL     1      -1.016  -3.471   0.000  0.00  0.00    +0.000 A 
ATOM     24  C   UNL     1      -0.302  -3.058   0.000  0.00  0.00    +0.000 A 
ATOM     25  C   UNL     1       1.710  -0.483   0.000  0.00  0.00    +0.000 C 
ATOM     26  C   UNL     1       1.497   0.314   0.000  0.00  0.00    +0.000 C 
ATOM     27  C   UNL     1       2.080   0.897   0.000  0.00  0.00    +0.000 C 
ATOM     28  C   UNL     1       2.877   0.683   0.000  0.00  0.00    +0.000 C 
ATOM     29  C   UNL     1       3.091  -0.113   0.000  0.00  0.00    +0.000 C 
ATOM     30  N   UNL     1       2.507  -0.697   0.000  0.00  0.00    +0.000 NA
ENDROOT
TORSDOF 0
