ROOT
REMARK  Name = conivaptan
REMARK                            x       y       z     vdW  Elec       q    Type
REMARK                         _______ _______ _______ _____ _____    ______ ____
ATOM      1  C   UNL     1       3.376   0.643   0.000  0.00  0.00    +0.000 C 
ATOM      2  C   UNL     1       2.752   1.182   0.000  0.00  0.00    +0.000 A 
ATOM      3  N   UNL     1       2.821   2.004   0.000  0.00  0.00    +0.000 NA
ATOM      4  C   UNL     1       2.061   2.324   0.000  0.00  0.00    +0.000 A 
ATOM      5  C   UNL     1       1.521   1.700   0.000  0.00  0.00    +0.000 A 
ATOM      6  N   UNL     1       1.949   0.994   0.000  0.00  0.00    +0.000 NA
ATOM      7  C   UNL     1       0.697   1.732   0.000  0.00  0.00    +0.000 A 
ATOM      8  C   UNL     1       0.208   2.396   0.000  0.00  0.00    +0.000 A 
ATOM      9  C   UNL     1      -0.612   2.305   0.000  0.00  0.00    +0.000 A 
ATOM     10  C   UNL     1      -0.943   1.550   0.000  0.00  0.00    +0.000 A 
ATOM     11  C   UNL     1      -0.454   0.885   0.000  0.00  0.00    +0.000 A 
ATOM     12  C   UNL     1       0.366   0.976   0.000  0.00  0.00    +0.000 A 
ATOM     13  N   UNL     1       0.423   3.193   0.000  0.00  0.00    +0.000 N 
ATOM     14  C   UNL     1       1.180   3.522   0.000  0.00  0.00    +0.000 C 
ATOM     15  C   UNL     1       1.909   3.135   0.000  0.00  0.00    +0.000 C 
ATOM     16  C   UNL     1      -0.201   3.732   0.000  0.00  0.00    +0.000 C 
ATOM     17  O   UNL     1      -0.981   3.461   0.000  0.00  0.00    +0.000 OA
ATOM     18  C   UNL     1      -0.047   4.543   0.000  0.00  0.00    +0.000 A 
ATOM     19  C   UNL     1      -0.671   5.082   0.000  0.00  0.00    +0.000 A 
ATOM     20  C   UNL     1      -0.516   5.892   0.000  0.00  0.00    +0.000 A 
ATOM     21  C   UNL     1       0.263   6.163   0.000  0.00  0.00    +0.000 A 
ATOM     22  N   UNL     1       0.417   6.974   0.000  0.00  0.00    +0.000 NA
ATOM     23  C   UNL     1      -0.207   7.513   0.000  0.00  0.00    +0.000 C 
ATOM     24  O   UNL     1      -0.986   7.242   0.000  0.00  0.00    +0.000 OA
ATOM     25  C   UNL     1      -0.052   8.323   0.000  0.00  0.00    +0.000 A 
ATOM     26  C   UNL     1      -0.677   8.862   0.000  0.00  0.00    +0.000 A 
ATOM     27  C   UNL     1      -0.522   9.673   0.000  0.00  0.00    +0.000 A 
ATOM     28  C   UNL     1       0.257   9.944   0.000  0.00  0.00    +0.000 A 
ATOM     29  C   UNL     1       0.881   9.405   0.000  0.00  0.00    +0.000 A 
ATOM     30  C   UNL     1       0.727   8.594   0.000  0.00  0.00    +0.000 A 
ATOM     31  C   UNL     1      -1.456   8.591   0.000  0.00  0.00    +0.000 A 
ATOM     32  C   UNL     1      -1.611   7.781   0.000  0.00  0.00    +0.000 A 
ATOM     33  C   UNL     1      -2.390   7.510   0.000  0.00  0.00    +0.000 A 
ATOM     34  C   UNL     1      -3.014   8.049   0.000  0.00  0.00    +0.000 A 
ATOM     35  C   UNL     1      -2.860   8.859   0.000  0.00  0.00    +0.000 A 
ATOM     36  C   UNL     1      -2.080   9.130   0.000  0.00  0.00    +0.000 A 
ATOM     37  C   UNL     1       0.887   5.624   0.000  0.00  0.00    +0.000 A 
ATOM     38  C   UNL     1       0.732   4.814   0.000  0.00  0.00    +0.000 A 
ENDROOT
TORSDOF 0
