ROOT
REMARK  Name = copper dotatate Cu-64
REMARK                            x       y       z     vdW  Elec       q    Type
REMARK                         _______ _______ _______ _____ _____    ______ ____
ATOM      1  CG2 THR A   4       4.160 -10.011   0.000  0.00  0.00    +0.000 C 
ATOM      2  CB  THR A   4       4.415  -9.227   0.000  0.00  0.00    +0.000 C 
ATOM      3  CA  THR A   4       3.863  -8.614   0.000  0.00  0.00    +0.000 C 
ATOM      4  C   THR A   4       3.608  -9.398   0.000  0.00  0.00    +0.000 C 
ATOM      5  O   THR A   4       3.694 -10.219   0.000  0.00  0.00    +0.000 OA
ATOM      6  N   PHE A   1       2.801  -9.570   0.000  0.00  0.00    +0.000 NA
ATOM      7  CA  PHE A   1       2.249  -8.957   0.000  0.00  0.00    +0.000 C 
ATOM      8  CB  PHE A   1       2.504  -8.172   0.000  0.00  0.00    +0.000 C 
ATOM      9  SG  PHE A   1       1.952  -7.559   0.000  0.00  0.00    +0.000 S 
ATOM     10  SG  PHE A   1       2.207  -6.774   0.000  0.00  0.00    +0.000 S 
ATOM     11  CB  PHE A   1       1.654  -6.161   0.000  0.00  0.00    +0.000 C 
ATOM     12  CA  PHE A   1       1.909  -5.377   0.000  0.00  0.00    +0.000 C 
ATOM     13  C   PHE A   1       1.357  -4.763   0.000  0.00  0.00    +0.000 C 
ATOM     14  O   PHE A   1       0.604  -4.428   0.000  0.00  0.00    +0.000 OA
ATOM     15  N   PHE A   1       1.612  -3.979   0.000  0.00  0.00    +0.000 NA
ATOM     16  CA  PHE A   1       2.419  -3.807   0.000  0.00  0.00    +0.000 C 
ATOM     17  C   PHE A   1       2.971  -4.420   0.000  0.00  0.00    +0.000 C 
ATOM     18  O   PHE A   1       2.716  -5.205   0.000  0.00  0.00    +0.000 OA
ATOM     19  N   THR A   2       3.778  -4.249   0.000  0.00  0.00    +0.000 NA
ATOM     20  CA  THR A   2       4.330  -4.862   0.000  0.00  0.00    +0.000 C 
ATOM     21  C   THR A   2       4.075  -5.647   0.000  0.00  0.00    +0.000 C 
ATOM     22  O   THR A   2       3.268  -5.818   0.000  0.00  0.00    +0.000 OA
ATOM     23  N   LYS A   3       4.627  -6.260   0.000  0.00  0.00    +0.000 NA
ATOM     24  CA  LYS A   3       4.372  -7.044   0.000  0.00  0.00    +0.000 C 
ATOM     25  C   LYS A   3       4.925  -7.657   0.000  0.00  0.00    +0.000 C 
ATOM     26  O   LYS A   3       5.678  -7.993   0.000  0.00  0.00    +0.000 OA
ATOM     27  N   THR A   4       4.670  -8.442   0.000  0.00  0.00    +0.000 NA
ATOM     28  CB  LYS A   3       5.179  -6.873   0.000  0.00  0.00    +0.000 C 
ATOM     29  CG  LYS A   3       5.731  -7.486   0.000  0.00  0.00    +0.000 C 
ATOM     30  CD  LYS A   3       6.538  -7.314   0.000  0.00  0.00    +0.000 C 
ATOM     31  CE  LYS A   3       7.090  -7.928   0.000  0.00  0.00    +0.000 C 
ATOM     32  NZ  LYS A   3       7.897  -7.756   0.000  0.00  0.00    +0.000 NA
ATOM     33  CB  THR A   2       5.137  -4.691   0.000  0.00  0.00    +0.000 C 
ATOM     34  CG  THR A   2       5.392  -3.906   0.000  0.00  0.00    +0.000 C 
ATOM     35  CD1 THR A   2       4.907  -3.238   0.000  0.00  0.00    +0.000 C 
ATOM     36  NE1 THR A   2       5.392  -2.571   0.000  0.00  0.00    +0.000 NA
ATOM     37  CE2 THR A   2       6.177  -2.826   0.000  0.00  0.00    +0.000 C 
ATOM     38  CZ2 THR A   2       6.891  -2.413   0.000  0.00  0.00    +0.000 C 
ATOM     39  CH2 THR A   2       7.606  -2.826   0.000  0.00  0.00    +0.000 C 
ATOM     40  CZ3 THR A   2       7.606  -3.651   0.000  0.00  0.00    +0.000 C 
ATOM     41  CE3 THR A   2       6.891  -4.063   0.000  0.00  0.00    +0.000 C 
ATOM     42  CD2 THR A   2       6.177  -3.651   0.000  0.00  0.00    +0.000 C 
ATOM     43  CB  PHE A   1       2.674  -3.023   0.000  0.00  0.00    +0.000 C 
ATOM     44  CG  PHE A   1       2.122  -2.410   0.000  0.00  0.00    +0.000 A 
ATOM     45  CD1 PHE A   1       1.315  -2.581   0.000  0.00  0.00    +0.000 A 
ATOM     46  CE1 PHE A   1       0.763  -1.968   0.000  0.00  0.00    +0.000 A 
ATOM     47  CZ  PHE A   1       1.018  -1.183   0.000  0.00  0.00    +0.000 A 
ATOM     48  CE2 PHE A   1       1.825  -1.012   0.000  0.00  0.00    +0.000 A 
ATOM     49  CD2 PHE A   1       2.377  -1.625   0.000  0.00  0.00    +0.000 A 
ATOM     50  OH  PHE A   1       0.466  -0.570   0.000  0.00  0.00    +0.000 OA
ATOM     51  N   PHE A   1       1.102  -5.548   0.000  0.00  0.00    +0.000 NA
ATOM     52  C   PHE A   1       0.550  -4.935   0.000  0.00  0.00    +0.000 C 
ATOM     53  O   PHE A   1       0.295  -4.150   0.000  0.00  0.00    +0.000 OA
ATOM     54  CA  PHE A   1      -0.257  -5.106   0.000  0.00  0.00    +0.000 C 
ATOM     55  CB  PHE A   1      -0.511  -5.891   0.000  0.00  0.00    +0.000 C 
ATOM     56  CG  PHE A   1       0.041  -6.504   0.000  0.00  0.00    +0.000 A 
ATOM     57  CD1 PHE A   1       0.848  -6.333   0.000  0.00  0.00    +0.000 A 
ATOM     58  CE1 PHE A   1       1.399  -6.946   0.000  0.00  0.00    +0.000 A 
ATOM     59  CZ  PHE A   1       1.145  -7.730   0.000  0.00  0.00    +0.000 A 
ATOM     60  CE2 PHE A   1       0.338  -7.902   0.000  0.00  0.00    +0.000 A 
ATOM     61  CD2 PHE A   1      -0.214  -7.289   0.000  0.00  0.00    +0.000 A 
ATOM     62  N   PHE A   1      -0.809  -4.493   0.000  0.00  0.00    +0.000 NA
ATOM     63  C   UNK A   0      -1.616  -4.665   0.000  0.00  0.00    +0.000 C 
ATOM     64  O   UNK A   0      -1.871  -5.450   0.000  0.00  0.00    +0.000 OA
ATOM     65  C   UNK A   0      -2.168  -4.052   0.000  0.00  0.00    +0.000 C 
ATOM     66  N   UNK A   0      -2.975  -4.223   0.000  0.00  0.00    +0.000 NA
ATOM     67  C   UNK A   0      -2.931  -3.400   0.000  0.00  0.00    +0.000 C 
ATOM     68  C   UNK A   0      -3.623  -2.950   0.000  0.00  0.00    +0.000 C 
ATOM     69  N   UNK A   0      -4.358  -3.325   0.000  0.00  0.00    +0.000 NA
ATOM     70  C   UNK A   0      -5.182  -3.282   0.000  0.00  0.00    +0.000 C 
ATOM     71  C   UNK A   0      -5.632  -3.974   0.000  0.00  0.00    +0.000 C 
ATOM     72  N   UNK A   0      -5.257  -4.708   0.000  0.00  0.00    +0.000 NA
ATOM     73  C   UNK A   0      -5.300  -5.532   0.000  0.00  0.00    +0.000 C 
ATOM     74  C   UNK A   0      -4.608  -5.982   0.000  0.00  0.00    +0.000 C 
ATOM     75  N   UNK A   0      -3.873  -5.607   0.000  0.00  0.00    +0.000 NA
ATOM     76  C   UNK A   0      -3.049  -5.650   0.000  0.00  0.00    +0.000 C 
ATOM     77  C   UNK A   0      -2.600  -4.958   0.000  0.00  0.00    +0.000 C 
ATOM     78  C   UNK A   0      -3.702  -6.414   0.000  0.00  0.00    +0.000 C 
ATOM     79  C   UNK A   0      -2.917  -6.669   0.000  0.00  0.00    +0.000 C 
ATOM     80  O   UNK A   0      -2.304  -6.117   0.000  0.00  0.00    +0.000 OA
ATOM     81  O   UNK A   0      -2.746  -7.476   0.000  0.00  0.00    +0.000 OA
ATOM     82  C   UNK A   0      -6.064  -4.880   0.000  0.00  0.00    +0.000 C 
ATOM     83  C   UNK A   0      -6.616  -4.267   0.000  0.00  0.00    +0.000 C 
ATOM     84  O   UNK A   0      -7.423  -4.439   0.000  0.00  0.00    +0.000 OA
ATOM     85  O   UNK A   0      -6.361  -3.482   0.000  0.00  0.00    +0.000 OA
ATOM     86  C   UNK A   0      -4.530  -2.518   0.000  0.00  0.00    +0.000 C 
ATOM     87  C   UNK A   0      -5.315  -2.263   0.000  0.00  0.00    +0.000 C 
ATOM     88  O   UNK A   0      -5.928  -2.815   0.000  0.00  0.00    +0.000 OA
ATOM     89  O   UNK A   0      -5.486  -1.456   0.000  0.00  0.00    +0.000 OA
ATOM     90  C   PHE A   1       1.442  -9.128   0.000  0.00  0.00    +0.000 C 
ATOM     91  O   PHE A   1       0.890  -8.515   0.000  0.00  0.00    +0.000 OA
ATOM     92  N   THR A   2       1.187  -9.913   0.000  0.00  0.00    +0.000 NA
ATOM     93  CA  THR A   2       0.380 -10.084   0.000  0.00  0.00    +0.000 C 
ATOM     94  CB  THR A   2      -0.172  -9.471   0.000  0.00  0.00    +0.000 C 
ATOM     95  CG2 THR A   2       0.083  -8.687   0.000  0.00  0.00    +0.000 C 
ATOM     96  OG1 THR A   2      -0.979  -9.643   0.000  0.00  0.00    +0.000 OA
ATOM     97  C   THR A   2       0.125 -10.869   0.000  0.00  0.00    +0.000 C 
ATOM     98  O   THR A   2       0.677 -11.482   0.000  0.00  0.00    +0.000 OA
ATOM     99  OXT THR A   2      -0.682 -11.040   0.000  0.00  0.00    +0.000 OA
ATOM    100  OG1 THR A   4       5.222  -9.055   0.000  0.00  0.00    +0.000 OA
REMARK  Name = copper dotatate Cu-64
REMARK                            x       y       z     vdW  Elec       q    Type
REMARK                         _______ _______ _______ _____ _____    ______ ____
ATOM      1 CU   UNL     1      -2.574  -8.283   0.000  0.00  0.00    +0.000 Cu
ENDROOT
TORSDOF 0
