ROOT
REMARK  Name = corticorelin ovine
REMARK                            x       y       z     vdW  Elec       q    Type
REMARK                         _______ _______ _______ _____ _____    ______ ____
ATOM      1  C   UNL     1      40.577  -4.293   0.000  0.00  0.00    +0.000 C 
ATOM      2  C   UNL     1      40.721  -3.481   0.000  0.00  0.00    +0.000 C 
ATOM      3  C   UNL     1      41.497  -3.200   0.000  0.00  0.00    +0.000 C 
ATOM      4  C   UNL     1      42.128  -3.731   0.000  0.00  0.00    +0.000 C 
ATOM      5  C   UNL     1      41.641  -2.388   0.000  0.00  0.00    +0.000 C 
ATOM      6  N   UNL     1      41.010  -1.857   0.000  0.00  0.00    +0.000 NA
ATOM      7  C   UNL     1      40.234  -2.138   0.000  0.00  0.00    +0.000 C 
ATOM      8  O   UNL     1      40.090  -2.950   0.000  0.00  0.00    +0.000 OA
ATOM      9  C   UNL     1      39.603  -1.607   0.000  0.00  0.00    +0.000 C 
ATOM     10  C   UNL     1      39.748  -0.794   0.000  0.00  0.00    +0.000 C 
ATOM     11  C   UNL     1      40.523  -0.513   0.000  0.00  0.00    +0.000 C 
ATOM     12  O   UNL     1      40.667   0.299   0.000  0.00  0.00    +0.000 OA
ATOM     13  O   UNL     1      41.154  -1.044   0.000  0.00  0.00    +0.000 OA
ATOM     14  N   UNL     1      38.828  -1.888   0.000  0.00  0.00    +0.000 NA
ATOM     15  C   UNL     1      38.196  -1.357   0.000  0.00  0.00    +0.000 C 
ATOM     16  O   UNL     1      38.341  -0.544   0.000  0.00  0.00    +0.000 OA
ATOM     17  C   UNL     1      37.421  -1.638   0.000  0.00  0.00    +0.000 C 
ATOM     18  C   UNL     1      37.276  -2.450   0.000  0.00  0.00    +0.000 C 
ATOM     19  C   UNL     1      37.908  -2.981   0.000  0.00  0.00    +0.000 C 
ATOM     20  C   UNL     1      38.683  -2.700   0.000  0.00  0.00    +0.000 C 
ATOM     21  C   UNL     1      37.763  -3.793   0.000  0.00  0.00    +0.000 C 
ATOM     22  N   UNL     1      36.789  -1.107   0.000  0.00  0.00    +0.000 NA
ATOM     23  C   UNL     1      36.014  -1.388   0.000  0.00  0.00    +0.000 C 
ATOM     24  O   UNL     1      35.870  -2.200   0.000  0.00  0.00    +0.000 OA
ATOM     25  C   UNL     1      35.383  -0.857   0.000  0.00  0.00    +0.000 C 
ATOM     26  C   UNL     1      35.527  -0.044   0.000  0.00  0.00    +0.000 C 
ATOM     27  C   UNL     1      36.302   0.237   0.000  0.00  0.00    +0.000 C 
ATOM     28  C   UNL     1      36.447   1.049   0.000  0.00  0.00    +0.000 C 
ATOM     29  C   UNL     1      36.934  -0.294   0.000  0.00  0.00    +0.000 C 
ATOM     30  N   UNL     1      34.607  -1.138   0.000  0.00  0.00    +0.000 NA
ATOM     31  C   UNL     1      33.975  -0.607   0.000  0.00  0.00    +0.000 C 
ATOM     32  O   UNL     1      34.120   0.205   0.000  0.00  0.00    +0.000 OA
ATOM     33  C   UNL     1      33.200  -0.888   0.000  0.00  0.00    +0.000 C 
ATOM     34  C   UNL     1      33.056  -1.700   0.000  0.00  0.00    +0.000 C 
ATOM     35  C   UNL     1      33.687  -2.231   0.000  0.00  0.00    +0.000 C 
ATOM     36  C   UNL     1      33.543  -3.044   0.000  0.00  0.00    +0.000 C 
ATOM     37  C   UNL     1      34.174  -3.575   0.000  0.00  0.00    +0.000 C 
ATOM     38  N   UNL     1      34.030  -4.387   0.000  0.00  0.00    +0.000 NA
ATOM     39  N   UNL     1      32.569  -0.357   0.000  0.00  0.00    +0.000 NA
ATOM     40  C   UNL     1      31.793  -0.638   0.000  0.00  0.00    +0.000 C 
ATOM     41  O   UNL     1      31.649  -1.450   0.000  0.00  0.00    +0.000 OA
ATOM     42  C   UNL     1      31.162  -0.107   0.000  0.00  0.00    +0.000 C 
ATOM     43  C   UNL     1      31.306   0.705   0.000  0.00  0.00    +0.000 C 
ATOM     44  C   UNL     1      32.082   0.987   0.000  0.00  0.00    +0.000 C 
ATOM     45  C   UNL     1      32.226   1.799   0.000  0.00  0.00    +0.000 C 
ATOM     46  N   UNL     1      33.002   2.080   0.000  0.00  0.00    +0.000 NA
ATOM     47  C   UNL     1      33.146   2.892   0.000  0.00  0.00    +0.000 C 
ATOM     48  N   UNL     1      32.514   3.423   0.000  0.00  0.00    +0.000 NA
ATOM     49  N   UNL     1      33.921   3.173   0.000  0.00  0.00    +0.000 NA
ATOM     50  N   UNL     1      30.386  -0.388   0.000  0.00  0.00    +0.000 NA
ATOM     51  C   UNL     1      29.755   0.143   0.000  0.00  0.00    +0.000 C 
ATOM     52  O   UNL     1      29.899   0.955   0.000  0.00  0.00    +0.000 OA
ATOM     53  C   UNL     1      28.979  -0.138   0.000  0.00  0.00    +0.000 C 
ATOM     54  C   UNL     1      28.835  -0.951   0.000  0.00  0.00    +0.000 C 
ATOM     55  C   UNL     1      29.466  -1.482   0.000  0.00  0.00    +0.000 C 
ATOM     56  N   UNL     1      30.242  -1.200   0.000  0.00  0.00    +0.000 NA
ATOM     57  O   UNL     1      29.322  -2.294   0.000  0.00  0.00    +0.000 OA
ATOM     58  N   UNL     1      28.348   0.393   0.000  0.00  0.00    +0.000 NA
ATOM     59  C   UNL     1      27.572   0.112   0.000  0.00  0.00    +0.000 C 
ATOM     60  O   UNL     1      27.428  -0.701   0.000  0.00  0.00    +0.000 OA
ATOM     61  CA  UNL     1      26.941   0.643   0.000  0.00  0.00    +0.000 C 
ATOM     62  C   UNL     1      27.085   1.455   0.000  0.00  0.00    +0.000 C 
ATOM     63  O   UNL     1      27.861   1.736   0.000  0.00  0.00    +0.000 OA
ATOM     64  N   ACE A  33      26.165   0.362   0.000  0.00  0.00    +0.000 NA
ATOM     65  C   UNL     1      25.534   0.893   0.000  0.00  0.00    +0.000 C 
ATOM     66  O   UNL     1      25.678   1.705   0.000  0.00  0.00    +0.000 OA
ATOM     67  CA  UNL     1      24.758   0.612   0.000  0.00  0.00    +0.000 C 
ATOM     68  CB  UNL     1      24.614  -0.201   0.000  0.00  0.00    +0.000 C 
ATOM     69  CG  UNL     1      25.245  -0.732   0.000  0.00  0.00    +0.000 A 
ATOM     70  CD2 UNL     1      25.187  -1.555   0.000  0.00  0.00    +0.000 A 
ATOM     71  NE2 UNL     1      25.951  -1.865   0.000  0.00  0.00    +0.000 NA
ATOM     72  CE1 UNL     1      26.483  -1.234   0.000  0.00  0.00    +0.000 A 
ATOM     73  ND1 UNL     1      26.046  -0.533   0.000  0.00  0.00    +0.000 NA
ATOM     74  N   UNL     1      24.127   1.143   0.000  0.00  0.00    +0.000 NA
ATOM     75  C   UNL     1      23.352   0.862   0.000  0.00  0.00    +0.000 C 
ATOM     76  O   UNL     1      23.207   0.049   0.000  0.00  0.00    +0.000 OA
ATOM     77  CA  UNL     1      22.720   1.393   0.000  0.00  0.00    +0.000 C 
ATOM     78  CB  UNL     1      22.864   2.205   0.000  0.00  0.00    +0.000 C 
ATOM     79  N   UNL     1      21.945   1.111   0.000  0.00  0.00    +0.000 NA
ATOM     80  C   UNL     1      21.313   1.643   0.000  0.00  0.00    +0.000 C 
ATOM     81  O   UNL     1      21.458   2.455   0.000  0.00  0.00    +0.000 OA
ATOM     82  CA  UNL     1      20.538   1.361   0.000  0.00  0.00    +0.000 C 
ATOM     83  CB  UNL     1      20.393   0.549   0.000  0.00  0.00    +0.000 C 
ATOM     84  CG  UNL     1      21.025   0.018   0.000  0.00  0.00    +0.000 C 
ATOM     85  CD  UNL     1      20.880  -0.794   0.000  0.00  0.00    +0.000 C 
ATOM     86  NE2 UNL     1      20.105  -1.075   0.000  0.00  0.00    +0.000 NA
ATOM     87  OE1 UNL     1      21.512  -1.325   0.000  0.00  0.00    +0.000 OA
ATOM     88  N   UNL     1      19.906   1.893   0.000  0.00  0.00    +0.000 NA
ATOM     89  C   UNL     1      19.131   1.611   0.000  0.00  0.00    +0.000 C 
ATOM     90  O   UNL     1      18.986   0.799   0.000  0.00  0.00    +0.000 OA
ATOM     91  CA  UNL     1      18.500   2.142   0.000  0.00  0.00    +0.000 C 
ATOM     92  CB  UNL     1      18.644   2.955   0.000  0.00  0.00    +0.000 C 
ATOM     93  CG  UNL     1      19.419   3.236   0.000  0.00  0.00    +0.000 C 
ATOM     94  CD  UNL     1      19.564   4.048   0.000  0.00  0.00    +0.000 C 
ATOM     95  NE2 UNL     1      18.932   4.579   0.000  0.00  0.00    +0.000 NA
ATOM     96  OE1 UNL     1      20.339   4.329   0.000  0.00  0.00    +0.000 OA
ATOM     97  N   UNL     1      17.724   1.861   0.000  0.00  0.00    +0.000 NA
ATOM     98  C   UNL     1      17.093   2.392   0.000  0.00  0.00    +0.000 C 
ATOM     99  O   UNL     1      17.237   3.205   0.000  0.00  0.00    +0.000 OA
ATOM    100  CA  UNL     1      16.317   2.111   0.000  0.00  0.00    +0.000 C 
ATOM    101  CB  UNL     1      16.173   1.299   0.000  0.00  0.00    +0.000 C 
ATOM    102  N   UNL     1      15.686   2.642   0.000  0.00  0.00    +0.000 NA
ATOM    103  C   UNL     1      14.910   2.361   0.000  0.00  0.00    +0.000 C 
ATOM    104  O   UNL     1      14.766   1.549   0.000  0.00  0.00    +0.000 OA
ATOM    105  CA  UNL     1      14.279   2.892   0.000  0.00  0.00    +0.000 C 
ATOM    106  CB  UNL     1      14.423   3.704   0.000  0.00  0.00    +0.000 C 
ATOM    107  CG  UNL     1      15.199   3.986   0.000  0.00  0.00    +0.000 C 
ATOM    108  CD1 UNL     1      15.343   4.798   0.000  0.00  0.00    +0.000 C 
ATOM    109  CD2 UNL     1      15.830   3.455   0.000  0.00  0.00    +0.000 C 
ATOM    110  N   UNL     1      13.503   2.611   0.000  0.00  0.00    +0.000 NA
ATOM    111  C   UNL     1      12.872   3.142   0.000  0.00  0.00    +0.000 C 
ATOM    112  O   UNL     1      13.016   3.954   0.000  0.00  0.00    +0.000 OA
ATOM    113  CA  UNL     1      12.096   2.861   0.000  0.00  0.00    +0.000 C 
ATOM    114  CB  UNL     1      11.952   2.049   0.000  0.00  0.00    +0.000 C 
ATOM    115  CG  UNL     1      12.583   1.518   0.000  0.00  0.00    +0.000 C 
ATOM    116  CD  UNL     1      12.439   0.705   0.000  0.00  0.00    +0.000 C 
ATOM    117  NE2 UNL     1      11.663   0.424   0.000  0.00  0.00    +0.000 NA
ATOM    118  OE1 UNL     1      13.070   0.174   0.000  0.00  0.00    +0.000 OA
ATOM    119  N   UNL     1      11.465   3.392   0.000  0.00  0.00    +0.000 NA
ATOM    120  C   UNL     1      10.689   3.111   0.000  0.00  0.00    +0.000 C 
ATOM    121  O   UNL     1      10.545   2.299   0.000  0.00  0.00    +0.000 OA
ATOM    122  CA  UNL     1      10.058   3.642   0.000  0.00  0.00    +0.000 C 
ATOM    123  CB  UNL     1      10.202   4.454   0.000  0.00  0.00    +0.000 C 
ATOM    124  CG  UNL     1      10.978   4.736   0.000  0.00  0.00    +0.000 C 
ATOM    125  OD1 UNL     1      11.609   4.204   0.000  0.00  0.00    +0.000 OA
ATOM    126  OD2 UNL     1      11.122   5.548   0.000  0.00  0.00    +0.000 OA
ATOM    127  N   UNL     1       9.282   3.361   0.000  0.00  0.00    +0.000 NA
ATOM    128  C   UNL     1       8.651   3.892   0.000  0.00  0.00    +0.000 C 
ATOM    129  O   UNL     1       8.795   4.704   0.000  0.00  0.00    +0.000 OA
ATOM    130  CA  UNL     1       7.875   3.611   0.000  0.00  0.00    +0.000 C 
ATOM    131  CB  UNL     1       7.731   2.799   0.000  0.00  0.00    +0.000 C 
ATOM    132  N   UNL     1       7.244   4.142   0.000  0.00  0.00    +0.000 NA
ATOM    133  C   UNL     1       6.469   3.861   0.000  0.00  0.00    +0.000 C 
ATOM    134  O   UNL     1       6.324   3.048   0.000  0.00  0.00    +0.000 OA
ATOM    135  CA  UNL     1       5.837   4.392   0.000  0.00  0.00    +0.000 C 
ATOM    136  CB  UNL     1       5.981   5.204   0.000  0.00  0.00    +0.000 C 
ATOM    137  CG  UNL     1       5.350   5.735   0.000  0.00  0.00    +0.000 C 
ATOM    138  CD  UNL     1       5.495   6.548   0.000  0.00  0.00    +0.000 C 
ATOM    139  CE  UNL     1       4.863   7.079   0.000  0.00  0.00    +0.000 C 
ATOM    140  NZ  UNL     1       5.008   7.891   0.000  0.00  0.00    +0.000 NA
ATOM    141  N   UNL     1       5.062   4.111   0.000  0.00  0.00    +0.000 NA
ATOM    142  C   UNL     1       4.430   4.642   0.000  0.00  0.00    +0.000 C 
ATOM    143  O   UNL     1       4.575   5.454   0.000  0.00  0.00    +0.000 OA
ATOM    144  CA  UNL     1       3.655   4.361   0.000  0.00  0.00    +0.000 C 
ATOM    145  N   UNL     1       3.023   4.892   0.000  0.00  0.00    +0.000 NA
ATOM    146  C   UNL     1       2.248   4.611   0.000  0.00  0.00    +0.000 C 
ATOM    147  O   UNL     1       2.103   3.798   0.000  0.00  0.00    +0.000 OA
ATOM    148  CA  UNL     1       1.617   5.142   0.000  0.00  0.00    +0.000 C 
ATOM    149  CB  UNL     1       1.761   5.954   0.000  0.00  0.00    +0.000 C 
ATOM    150  CG  UNL     1       2.536   6.235   0.000  0.00  0.00    +0.000 C 
ATOM    151  SD  UNL     1       2.681   7.047   0.000  0.00  0.00    +0.000 S 
ATOM    152  CE  UNL     1       2.049   7.578   0.000  0.00  0.00    +0.000 C 
ATOM    153  N   UNL     1       0.841   4.860   0.000  0.00  0.00    +0.000 NA
ATOM    154  C   UNL     1       0.210   5.391   0.000  0.00  0.00    +0.000 C 
ATOM    155  O   UNL     1       0.354   6.204   0.000  0.00  0.00    +0.000 OA
ATOM    156  CA  UNL     1      -0.566   5.110   0.000  0.00  0.00    +0.000 C 
ATOM    157  CB  UNL     1      -0.710   4.298   0.000  0.00  0.00    +0.000 C 
ATOM    158  CG  UNL     1      -0.079   3.767   0.000  0.00  0.00    +0.000 C 
ATOM    159  CD  UNL     1      -0.223   2.955   0.000  0.00  0.00    +0.000 C 
ATOM    160  OE1 UNL     1      -0.999   2.674   0.000  0.00  0.00    +0.000 OA
ATOM    161  OE2 UNL     1       0.408   2.424   0.000  0.00  0.00    +0.000 OA
ATOM    162  N   UNL     1      -1.197   5.641   0.000  0.00  0.00    +0.000 NA
ATOM    163  C   UNL     1      -1.973   5.360   0.000  0.00  0.00    +0.000 C 
ATOM    164  O   UNL     1      -2.117   4.548   0.000  0.00  0.00    +0.000 OA
ATOM    165  CA  UNL     1      -2.604   5.891   0.000  0.00  0.00    +0.000 C 
ATOM    166  CB  UNL     1      -2.460   6.704   0.000  0.00  0.00    +0.000 C 
ATOM    167  CG  UNL     1      -1.684   6.985   0.000  0.00  0.00    +0.000 C 
ATOM    168  CD1 UNL     1      -1.540   7.797   0.000  0.00  0.00    +0.000 C 
ATOM    169  CD2 UNL     1      -1.053   6.454   0.000  0.00  0.00    +0.000 C 
ATOM    170  N   UNL     1      -3.380   5.610   0.000  0.00  0.00    +0.000 NA
ATOM    171  C   UNL     1      -4.011   6.141   0.000  0.00  0.00    +0.000 C 
ATOM    172  O   UNL     1      -3.867   6.954   0.000  0.00  0.00    +0.000 OA
ATOM    173  CA  UNL     1      -4.787   5.860   0.000  0.00  0.00    +0.000 C 
ATOM    174  N   UNL     1      -5.418   6.391   0.000  0.00  0.00    +0.000 NA
ATOM    175  C   UNL     1      -6.194   6.110   0.000  0.00  0.00    +0.000 C 
ATOM    176  O   UNL     1      -6.338   5.298   0.000  0.00  0.00    +0.000 OA
ATOM    177  CA  UNL     1      -6.825   6.641   0.000  0.00  0.00    +0.000 C 
ATOM    178  CB  UNL     1      -6.681   7.454   0.000  0.00  0.00    +0.000 C 
ATOM    179  CG  UNL     1      -5.905   7.735   0.000  0.00  0.00    +0.000 C 
ATOM    180  CD  UNL     1      -5.761   8.547   0.000  0.00  0.00    +0.000 C 
ATOM    181  OE1 UNL     1      -4.985   8.828   0.000  0.00  0.00    +0.000 OA
ATOM    182  OE2 UNL     1      -6.392   9.078   0.000  0.00  0.00    +0.000 OA
ATOM    183  N   UNL     1      -7.601   6.360   0.000  0.00  0.00    +0.000 NA
ATOM    184  C   UNL     1      -8.232   6.891   0.000  0.00  0.00    +0.000 C 
ATOM    185  O   UNL     1      -8.088   7.703   0.000  0.00  0.00    +0.000 OA
ATOM    186  CA  UNL     1      -9.008   6.610   0.000  0.00  0.00    +0.000 C 
ATOM    187  CB  UNL     1      -9.152   5.798   0.000  0.00  0.00    +0.000 C 
ATOM    188  CG  UNL     1      -9.927   5.516   0.000  0.00  0.00    +0.000 C 
ATOM    189  CD  UNL     1     -10.072   4.704   0.000  0.00  0.00    +0.000 C 
ATOM    190  NE  UNL     1     -10.847   4.423   0.000  0.00  0.00    +0.000 NA
ATOM    191  CZ  UNL     1     -10.992   3.611   0.000  0.00  0.00    +0.000 C 
ATOM    192  NH1 UNL     1     -10.360   3.080   0.000  0.00  0.00    +0.000 NA
ATOM    193  NH2 UNL     1     -11.767   3.330   0.000  0.00  0.00    +0.000 NA
ATOM    194  N   UNL     1      -9.639   7.141   0.000  0.00  0.00    +0.000 NA
ATOM    195  C   UNL     1     -10.414   6.860   0.000  0.00  0.00    +0.000 C 
ATOM    196  O   UNL     1     -10.559   6.048   0.000  0.00  0.00    +0.000 OA
ATOM    197  CA  UNL     1     -11.046   7.391   0.000  0.00  0.00    +0.000 C 
ATOM    198  CB  UNL     1     -10.901   8.203   0.000  0.00  0.00    +0.000 C 
ATOM    199  CG  UNL     1     -10.126   8.485   0.000  0.00  0.00    +0.000 C 
ATOM    200  CD1 UNL     1      -9.982   9.297   0.000  0.00  0.00    +0.000 C 
ATOM    201  CD2 UNL     1      -9.495   7.953   0.000  0.00  0.00    +0.000 C 
ATOM    202  N   UNL     1     -11.821   7.110   0.000  0.00  0.00    +0.000 NA
ATOM    203  C   UNL     1     -12.453   7.641   0.000  0.00  0.00    +0.000 C 
ATOM    204  O   UNL     1     -12.308   8.453   0.000  0.00  0.00    +0.000 OA
ATOM    205  CA  UNL     1     -13.228   7.360   0.000  0.00  0.00    +0.000 C 
ATOM    206  CB  UNL     1     -13.373   6.548   0.000  0.00  0.00    +0.000 C 
ATOM    207  CG  UNL     1     -12.741   6.016   0.000  0.00  0.00    +0.000 C 
ATOM    208  CD1 UNL     1     -11.966   6.298   0.000  0.00  0.00    +0.000 C 
ATOM    209  CD2 UNL     1     -12.886   5.204   0.000  0.00  0.00    +0.000 C 
ATOM    210  N   UNL     1     -13.860   7.891   0.000  0.00  0.00    +0.000 NA
ATOM    211  C   UNL     1     -14.635   7.610   0.000  0.00  0.00    +0.000 C 
ATOM    212  O   UNL     1     -14.780   6.797   0.000  0.00  0.00    +0.000 OA
ATOM    213  CA  UNL     1     -15.267   8.141   0.000  0.00  0.00    +0.000 C 
ATOM    214  CB  UNL     1     -15.122   8.953   0.000  0.00  0.00    +0.000 C 
ATOM    215  CG  UNL     1     -14.347   9.234   0.000  0.00  0.00    +0.000 A 
ATOM    216  CD2 UNL     1     -14.118  10.027   0.000  0.00  0.00    +0.000 A 
ATOM    217  NE2 UNL     1     -13.294  10.055   0.000  0.00  0.00    +0.000 NA
ATOM    218  CE1 UNL     1     -13.012   9.279   0.000  0.00  0.00    +0.000 A 
ATOM    219  ND1 UNL     1     -13.663   8.772   0.000  0.00  0.00    +0.000 NA
ATOM    220  N   UNL     1     -16.042   7.860   0.000  0.00  0.00    +0.000 NA
ATOM    221  C   UNL     1     -16.673   8.391   0.000  0.00  0.00    +0.000 C 
ATOM    222  O   UNL     1     -16.529   9.203   0.000  0.00  0.00    +0.000 OA
ATOM    223  CA  UNL     1     -17.449   8.110   0.000  0.00  0.00    +0.000 C 
ATOM    224  CB  UNL     1     -18.080   8.641   0.000  0.00  0.00    +0.000 C 
ATOM    225  CG  UNL     1     -18.856   8.360   0.000  0.00  0.00    +0.000 A 
ATOM    226  CD1 UNL     1     -19.000   7.547   0.000  0.00  0.00    +0.000 A 
ATOM    227  CE1 UNL     1     -19.776   7.266   0.000  0.00  0.00    +0.000 A 
ATOM    228  CZ  UNL     1     -20.407   7.797   0.000  0.00  0.00    +0.000 A 
ATOM    229  CE2 UNL     1     -20.263   8.609   0.000  0.00  0.00    +0.000 A 
ATOM    230  CD2 UNL     1     -19.487   8.891   0.000  0.00  0.00    +0.000 A 
ATOM    231  N   UNL     1     -17.593   7.297   0.000  0.00  0.00    +0.000 NA
ATOM    232  C   UNL     1     -16.962   6.766   0.000  0.00  0.00    +0.000 C 
ATOM    233  O   UNL     1     -16.186   7.047   0.000  0.00  0.00    +0.000 OA
ATOM    234  CA  UNL     1     -17.106   5.954   0.000  0.00  0.00    +0.000 C 
ATOM    235  N   UNL     1     -16.475   5.423   0.000  0.00  0.00    +0.000 NA
ATOM    236  C   UNL     1     -16.619   4.611   0.000  0.00  0.00    +0.000 C 
ATOM    237  O   UNL     1     -17.395   4.329   0.000  0.00  0.00    +0.000 OA
ATOM    238  CA  UNL     1     -15.988   4.079   0.000  0.00  0.00    +0.000 C 
ATOM    239  CB  UNL     1     -15.212   4.361   0.000  0.00  0.00    +0.000 C 
ATOM    240  CG  UNL     1     -15.068   5.173   0.000  0.00  0.00    +0.000 C 
ATOM    241  CD1 UNL     1     -15.699   5.704   0.000  0.00  0.00    +0.000 C 
ATOM    242  CD2 UNL     1     -14.293   5.454   0.000  0.00  0.00    +0.000 C 
ATOM    243  N   UNL     1     -16.132   3.267   0.000  0.00  0.00    +0.000 NA
ATOM    244  C   UNL     1     -15.501   2.736   0.000  0.00  0.00    +0.000 C 
ATOM    245  O   UNL     1     -14.725   3.017   0.000  0.00  0.00    +0.000 OA
ATOM    246  CA  UNL     1     -15.645   1.924   0.000  0.00  0.00    +0.000 C 
ATOM    247  CB  UNL     1     -16.421   1.643   0.000  0.00  0.00    +0.000 C 
ATOM    248  CG  UNL     1     -17.052   2.174   0.000  0.00  0.00    +0.000 C 
ATOM    249  OD1 UNL     1     -17.828   1.893   0.000  0.00  0.00    +0.000 OA
ATOM    250  OD2 UNL     1     -16.908   2.986   0.000  0.00  0.00    +0.000 OA
ATOM    251  N   UNL     1     -15.014   1.393   0.000  0.00  0.00    +0.000 NA
ATOM    252  C   UNL     1     -15.158   0.580   0.000  0.00  0.00    +0.000 C 
ATOM    253  O   UNL     1     -15.934   0.299   0.000  0.00  0.00    +0.000 OA
ATOM    254  CA  UNL     1     -14.527   0.049   0.000  0.00  0.00    +0.000 C 
ATOM    255  CB  UNL     1     -13.751   0.330   0.000  0.00  0.00    +0.000 C 
ATOM    256  CG  UNL     1     -13.607   1.143   0.000  0.00  0.00    +0.000 C 
ATOM    257  CD1 UNL     1     -14.238   1.674   0.000  0.00  0.00    +0.000 C 
ATOM    258  CD2 UNL     1     -12.831   1.424   0.000  0.00  0.00    +0.000 C 
ATOM    259  N   UNL     1     -14.671  -0.763   0.000  0.00  0.00    +0.000 NA
ATOM    260  C   UNL     1     -14.040  -1.294   0.000  0.00  0.00    +0.000 C 
ATOM    261  O   UNL     1     -13.264  -1.013   0.000  0.00  0.00    +0.000 OA
ATOM    262  CA  UNL     1     -14.184  -2.107   0.000  0.00  0.00    +0.000 C 
ATOM    263  CB  UNL     1     -14.960  -2.388   0.000  0.00  0.00    +0.000 C 
ATOM    264  O   UNL     1     -15.591  -1.857   0.000  0.00  0.00    +0.000 OA
ATOM    265  N   UNL     1     -13.553  -2.638   0.000  0.00  0.00    +0.000 NA
ATOM    266  C   UNL     1     -13.697  -3.450   0.000  0.00  0.00    +0.000 C 
ATOM    267  O   UNL     1     -14.473  -3.731   0.000  0.00  0.00    +0.000 OA
ATOM    268  CA  UNL     1     -13.066  -3.981   0.000  0.00  0.00    +0.000 C 
ATOM    269  N   UNL     1     -13.210  -4.793   0.000  0.00  0.00    +0.000 NA
ATOM    270  C   UNL     1     -12.579  -5.324   0.000  0.00  0.00    +0.000 C 
ATOM    271  O   UNL     1     -11.803  -5.043   0.000  0.00  0.00    +0.000 OA
ATOM    272  CA  UNL     1     -12.723  -6.137   0.000  0.00  0.00    +0.000 C 
ATOM    273  CB  UNL     1     -13.465  -6.497   0.000  0.00  0.00    +0.000 C 
ATOM    274  CG  UNL     1     -13.351  -7.314   0.000  0.00  0.00    +0.000 C 
ATOM    275  CD  UNL     1     -12.539  -7.459   0.000  0.00  0.00    +0.000 C 
ATOM    276  N   UNL     1     -12.151  -6.731   0.000  0.00  0.00    +0.000 N 
ATOM    277  C   UNL     1     -11.334  -6.617   0.000  0.00  0.00    +0.000 C 
ATOM    278  O   UNL     1     -11.024  -5.853   0.000  0.00  0.00    +0.000 OA
ATOM    279  CA  UNL     1     -10.827  -7.268   0.000  0.00  0.00    +0.000 C 
ATOM    280  CB  UNL     1     -11.055  -8.061   0.000  0.00  0.00    +0.000 C 
ATOM    281  CG  UNL     1     -10.372  -8.523   0.000  0.00  0.00    +0.000 C 
ATOM    282  CD  UNL     1      -9.721  -8.016   0.000  0.00  0.00    +0.000 C 
ATOM    283  N   UNL     1     -10.002  -7.240   0.000  0.00  0.00    +0.000 N 
ATOM    284  C   UNL     1      -9.540  -6.557   0.000  0.00  0.00    +0.000 C 
ATOM    285  O   UNL     1      -9.901  -5.815   0.000  0.00  0.00    +0.000 OA
ATOM    286  CA  UNL     1      -8.717  -6.615   0.000  0.00  0.00    +0.000 C 
ATOM    287  CB  UNL     1      -8.356  -7.357   0.000  0.00  0.00    +0.000 C 
ATOM    288  CG  UNL     1      -7.533  -7.416   0.000  0.00  0.00    +0.000 C 
ATOM    289  CD  UNL     1      -7.173  -8.158   0.000  0.00  0.00    +0.000 C 
ATOM    290  OE1 UNL     1      -6.350  -8.216   0.000  0.00  0.00    +0.000 OA
ATOM    291  OE2 UNL     1      -7.635  -8.841   0.000  0.00  0.00    +0.000 OA
ATOM    292  N   UNL     1      -8.255  -5.932   0.000  0.00  0.00    +0.000 NA
ATOM    293  C   UNL     1      -7.432  -5.990   0.000  0.00  0.00    +0.000 C 
ATOM    294  O   UNL     1      -7.071  -6.732   0.000  0.00  0.00    +0.000 OA
ATOM    295  CA  UNL     1      -6.970  -5.307   0.000  0.00  0.00    +0.000 C 
ATOM    296  CB  UNL     1      -7.330  -4.565   0.000  0.00  0.00    +0.000 C 
ATOM    297  CG  UNL     1      -8.153  -4.507   0.000  0.00  0.00    +0.000 C 
ATOM    298  CD  UNL     1      -8.514  -3.765   0.000  0.00  0.00    +0.000 C 
ATOM    299  NE2 UNL     1      -8.052  -3.081   0.000  0.00  0.00    +0.000 NA
ATOM    300  OE1 UNL     1      -9.337  -3.706   0.000  0.00  0.00    +0.000 OA
ATOM    301  N   UNL     1      -6.147  -5.366   0.000  0.00  0.00    +0.000 NA
ATOM    302  C   UNL     1      -5.684  -4.682   0.000  0.00  0.00    +0.000 C 
ATOM    303  O   UNL     1      -6.045  -3.940   0.000  0.00  0.00    +0.000 OA
ATOM    304  CA  UNL     1      -4.862  -4.741   0.000  0.00  0.00    +0.000 C 
ATOM    305  N   UNL     1      -4.501  -5.483   0.000  0.00  0.00    +0.000 NA
ATOM    306  CB  UNL     1      -4.399  -4.058   0.000  0.00  0.00    +0.000 C 
ATOM    307  O   UNL     1      -3.576  -4.116   0.000  0.00  0.00    +0.000 OA
ATOM    308  CB  UNL     1     -12.290  -3.700   0.000  0.00  0.00    +0.000 C 
ATOM    309  CG2 UNL     1     -11.659  -4.231   0.000  0.00  0.00    +0.000 C 
ATOM    310  CG1 UNL     1     -12.146  -2.888   0.000  0.00  0.00    +0.000 C 
ATOM    311  CD1 UNL     1     -11.370  -2.606   0.000  0.00  0.00    +0.000 C 
ATOM    312  CB  UNL     1     -17.882   5.673   0.000  0.00  0.00    +0.000 C 
ATOM    313  CG2 UNL     1     -18.026   4.860   0.000  0.00  0.00    +0.000 C 
ATOM    314  OG1 UNL     1     -18.513   6.204   0.000  0.00  0.00    +0.000 OA
ATOM    315  CB  UNL     1      -4.931   5.048   0.000  0.00  0.00    +0.000 C 
ATOM    316  CG1 UNL     1      -5.707   4.767   0.000  0.00  0.00    +0.000 C 
ATOM    317  CG2 UNL     1      -4.300   4.517   0.000  0.00  0.00    +0.000 C 
ATOM    318  CB  UNL     1       3.510   3.548   0.000  0.00  0.00    +0.000 C 
ATOM    319  CG2 UNL     1       2.735   3.267   0.000  0.00  0.00    +0.000 C 
ATOM    320  OG1 UNL     1       4.142   3.017   0.000  0.00  0.00    +0.000 OA
ATOM    321  C   UNL     1      42.417  -2.107   0.000  0.00  0.00    +0.000 C 
ATOM    322  O   UNL     1      42.561  -1.294   0.000  0.00  0.00    +0.000 OA
ATOM    323  N   UNL     1      43.048  -2.638   0.000  0.00  0.00    +0.000 NA
ATOM    324  C   UNL     1      43.824  -2.356   0.000  0.00  0.00    +0.000 C 
ATOM    325  C   UNL     1      43.968  -1.544   0.000  0.00  0.00    +0.000 C 
ATOM    326  C   UNL     1      44.455  -2.888   0.000  0.00  0.00    +0.000 C 
ATOM    327  N   UNL     1      45.231  -2.606   0.000  0.00  0.00    +0.000 NA
ATOM    328  O   UNL     1      44.311  -3.700   0.000  0.00  0.00    +0.000 OA
ENDROOT
TORSDOF 0
