ROOT
REMARK  Name = cromoglicic acid
REMARK                            x       y       z     vdW  Elec       q    Type
REMARK                         _______ _______ _______ _____ _____    ______ ____
ATOM      1  O   UNL     1       0.000  -3.300   0.000  0.00  0.00    +0.000 OA
ATOM      2  C   UNL     1       0.000  -4.125   0.000  0.00  0.00    +0.000 C 
ATOM      3  C   UNL     1      -0.715  -4.537   0.000  0.00  0.00    +0.000 C 
ATOM      4  O   UNL     1      -1.429  -4.125   0.000  0.00  0.00    +0.000 OA
ATOM      5  C   UNL     1      -2.143  -4.537   0.000  0.00  0.00    +0.000 A 
ATOM      6  C   UNL     1      -2.858  -4.125   0.000  0.00  0.00    +0.000 A 
ATOM      7  C   UNL     1      -3.572  -4.537   0.000  0.00  0.00    +0.000 A 
ATOM      8  C   UNL     1      -3.572  -5.362   0.000  0.00  0.00    +0.000 A 
ATOM      9  C   UNL     1      -2.858  -5.775   0.000  0.00  0.00    +0.000 A 
ATOM     10  C   UNL     1      -2.143  -5.362   0.000  0.00  0.00    +0.000 A 
ATOM     11  C   UNL     1      -1.429  -5.775   0.000  0.00  0.00    +0.000 A 
ATOM     12  O   UNL     1      -0.715  -5.362   0.000  0.00  0.00    +0.000 OA
ATOM     13  C   UNL     1      -1.429  -6.600   0.000  0.00  0.00    +0.000 A 
ATOM     14  C   UNL     1      -2.143  -7.013   0.000  0.00  0.00    +0.000 A 
ATOM     15  O   UNL     1      -2.858  -6.600   0.000  0.00  0.00    +0.000 OA
ATOM     16  C   UNL     1      -2.143  -7.838   0.000  0.00  0.00    +0.000 C 
ATOM     17  O   UNL     1      -2.858  -8.250   0.000  0.00  0.00    +0.000 OA
ATOM     18  O   UNL     1      -1.429  -8.250   0.000  0.00  0.00    +0.000 OA
ATOM     19  C   UNL     1       0.715  -4.537   0.000  0.00  0.00    +0.000 C 
ATOM     20  O   UNL     1       1.429  -4.125   0.000  0.00  0.00    +0.000 OA
ATOM     21  C   UNL     1       2.143  -4.537   0.000  0.00  0.00    +0.000 A 
ATOM     22  C   UNL     1       2.858  -4.125   0.000  0.00  0.00    +0.000 A 
ATOM     23  C   UNL     1       2.858  -3.300   0.000  0.00  0.00    +0.000 A 
ATOM     24  O   UNL     1       2.143  -2.888   0.000  0.00  0.00    +0.000 OA
ATOM     25  C   UNL     1       3.572  -2.888   0.000  0.00  0.00    +0.000 A 
ATOM     26  C   UNL     1       4.287  -3.300   0.000  0.00  0.00    +0.000 A 
ATOM     27  O   UNL     1       4.287  -4.125   0.000  0.00  0.00    +0.000 OA
ATOM     28  C   UNL     1       3.572  -4.537   0.000  0.00  0.00    +0.000 A 
ATOM     29  C   UNL     1       3.572  -5.362   0.000  0.00  0.00    +0.000 A 
ATOM     30  C   UNL     1       2.858  -5.775   0.000  0.00  0.00    +0.000 A 
ATOM     31  C   UNL     1       2.143  -5.362   0.000  0.00  0.00    +0.000 A 
ATOM     32  C   UNL     1       5.001  -2.888   0.000  0.00  0.00    +0.000 C 
ATOM     33  O   UNL     1       5.716  -3.300   0.000  0.00  0.00    +0.000 OA
ATOM     34  O   UNL     1       5.001  -2.062   0.000  0.00  0.00    +0.000 OA
ENDROOT
TORSDOF 0
