ROOT
REMARK  Name = cyclobarbital
REMARK                            x       y       z     vdW  Elec       q    Type
REMARK                         _______ _______ _______ _____ _____    ______ ____
ATOM      1  C   UNL     1       0.997   0.363   0.000  0.00  0.00    +0.000 C 
ATOM      2  C   UNL     1       0.715  -0.412   0.000  0.00  0.00    +0.000 C 
ATOM      3  C   UNL     1       1.245  -1.044   0.000  0.00  0.00    +0.000 C 
ATOM      4  C   UNL     1       1.959  -1.457   0.000  0.00  0.00    +0.000 C 
ATOM      5  O   UNL     1       2.674  -1.044   0.000  0.00  0.00    +0.000 OA
ATOM      6  N   UNL     1       1.959  -2.282   0.000  0.00  0.00    +0.000 NA
ATOM      7  C   UNL     1       1.245  -2.695   0.000  0.00  0.00    +0.000 C 
ATOM      8  O   UNL     1       1.245  -3.519   0.000  0.00  0.00    +0.000 OA
ATOM      9  N   UNL     1       0.530  -2.282   0.000  0.00  0.00    +0.000 NA
ATOM     10  C   UNL     1       0.530  -1.457   0.000  0.00  0.00    +0.000 C 
ATOM     11  O   UNL     1      -0.184  -1.044   0.000  0.00  0.00    +0.000 OA
ATOM     12  C   UNL     1       1.775  -0.412   0.000  0.00  0.00    +0.000 C 
ATOM     13  C   UNL     1       1.493   0.363   0.000  0.00  0.00    +0.000 C 
ATOM     14  C   UNL     1       2.023   0.995   0.000  0.00  0.00    +0.000 C 
ATOM     15  C   UNL     1       2.836   0.852   0.000  0.00  0.00    +0.000 C 
ATOM     16  C   UNL     1       3.118   0.076   0.000  0.00  0.00    +0.000 C 
ATOM     17  C   UNL     1       2.587  -0.556   0.000  0.00  0.00    +0.000 C 
ENDROOT
TORSDOF 0
