ROOT
REMARK  Name = cynarine
REMARK                            x       y       z     vdW  Elec       q    Type
REMARK                         _______ _______ _______ _____ _____    ______ ____
ATOM      1  O   UNL     1       0.327  -5.266   0.000  0.00  0.00    +0.000 OA
ATOM      2  C   UNL     1       1.042  -4.853   0.000  0.00  0.00    +0.000 C 
ATOM      3  C   UNL     1       1.042  -4.028   0.000  0.00  0.00    +0.000 C 
ATOM      4  C   UNL     1       1.756  -3.616   0.000  0.00  0.00    +0.000 C 
ATOM      5  C   UNL     1       2.471  -4.028   0.000  0.00  0.00    +0.000 C 
ATOM      6  C   UNL     1       2.471  -4.853   0.000  0.00  0.00    +0.000 C 
ATOM      7  O   UNL     1       3.185  -5.266   0.000  0.00  0.00    +0.000 OA
ATOM      8  C   UNL     1       3.185  -6.091   0.000  0.00  0.00    +0.000 C 
ATOM      9  O   UNL     1       2.471  -6.503   0.000  0.00  0.00    +0.000 OA
ATOM     10  C   UNL     1       3.900  -6.503   0.000  0.00  0.00    +0.000 C 
ATOM     11  C   UNL     1       4.614  -6.091   0.000  0.00  0.00    +0.000 C 
ATOM     12  C   UNL     1       5.329  -6.503   0.000  0.00  0.00    +0.000 A 
ATOM     13  C   UNL     1       6.043  -6.091   0.000  0.00  0.00    +0.000 A 
ATOM     14  C   UNL     1       6.757  -6.503   0.000  0.00  0.00    +0.000 A 
ATOM     15  O   UNL     1       7.472  -6.091   0.000  0.00  0.00    +0.000 OA
ATOM     16  C   UNL     1       6.757  -7.328   0.000  0.00  0.00    +0.000 A 
ATOM     17  O   UNL     1       7.472  -7.741   0.000  0.00  0.00    +0.000 OA
ATOM     18  C   UNL     1       6.043  -7.741   0.000  0.00  0.00    +0.000 A 
ATOM     19  C   UNL     1       5.329  -7.328   0.000  0.00  0.00    +0.000 A 
ATOM     20  C   UNL     1       1.756  -5.266   0.000  0.00  0.00    +0.000 C 
ATOM     21  O   UNL     1       1.756  -6.091   0.000  0.00  0.00    +0.000 OA
ATOM     22  O   UNL     1       1.369  -2.888   0.000  0.00  0.00    +0.000 OA
ATOM     23  C   UNL     1       0.544  -2.859   0.000  0.00  0.00    +0.000 C 
ATOM     24  O   UNL     1       0.107  -3.558   0.000  0.00  0.00    +0.000 OA
ATOM     25  C   UNL     1       0.157  -2.130   0.000  0.00  0.00    +0.000 C 
ATOM     26  C   UNL     1      -0.667  -2.102   0.000  0.00  0.00    +0.000 C 
ATOM     27  C   UNL     1      -1.055  -1.373   0.000  0.00  0.00    +0.000 A 
ATOM     28  C   UNL     1      -1.879  -1.344   0.000  0.00  0.00    +0.000 A 
ATOM     29  C   UNL     1      -2.267  -0.616   0.000  0.00  0.00    +0.000 A 
ATOM     30  O   UNL     1      -3.091  -0.587   0.000  0.00  0.00    +0.000 OA
ATOM     31  C   UNL     1      -1.829   0.084   0.000  0.00  0.00    +0.000 A 
ATOM     32  O   UNL     1      -2.217   0.812   0.000  0.00  0.00    +0.000 OA
ATOM     33  C   UNL     1      -1.005   0.055   0.000  0.00  0.00    +0.000 A 
ATOM     34  C   UNL     1      -0.618  -0.673   0.000  0.00  0.00    +0.000 A 
ATOM     35  C   UNL     1       2.143  -2.888   0.000  0.00  0.00    +0.000 C 
ATOM     36  O   UNL     1       2.968  -2.859   0.000  0.00  0.00    +0.000 OA
ATOM     37  O   UNL     1       1.706  -2.188   0.000  0.00  0.00    +0.000 OA
ENDROOT
TORSDOF 0
