ROOT
REMARK  Name = dabigatran etexilate
REMARK                            x       y       z     vdW  Elec       q    Type
REMARK                         _______ _______ _______ _____ _____    ______ ____
ATOM      1  C   UNL     1       8.829  -8.148   0.000  0.00  0.00    +0.000 C 
ATOM      2  C   UNL     1       9.544  -7.736   0.000  0.00  0.00    +0.000 C 
ATOM      3  C   UNL     1      10.258  -8.148   0.000  0.00  0.00    +0.000 C 
ATOM      4  C   UNL     1      10.973  -7.736   0.000  0.00  0.00    +0.000 C 
ATOM      5  C   UNL     1      11.687  -8.148   0.000  0.00  0.00    +0.000 C 
ATOM      6  C   UNL     1      12.402  -7.736   0.000  0.00  0.00    +0.000 C 
ATOM      7  O   UNL     1      13.116  -8.148   0.000  0.00  0.00    +0.000 OA
ATOM      8  C   UNL     1      13.831  -7.736   0.000  0.00  0.00    +0.000 C 
ATOM      9  O   UNL     1      13.831  -6.911   0.000  0.00  0.00    +0.000 OA
ATOM     10  N   UNL     1      14.545  -8.148   0.000  0.00  0.00    +0.000 NA
ATOM     11  C   UNL     1      15.260  -7.736   0.000  0.00  0.00    +0.000 C 
ATOM     12  N   UNL     1      15.260  -6.911   0.000  0.00  0.00    +0.000 NA
ATOM     13  C   UNL     1      15.974  -8.148   0.000  0.00  0.00    +0.000 A 
ATOM     14  C   UNL     1      16.689  -7.736   0.000  0.00  0.00    +0.000 A 
ATOM     15  C   UNL     1      17.403  -8.148   0.000  0.00  0.00    +0.000 A 
ATOM     16  C   UNL     1      17.403  -8.973   0.000  0.00  0.00    +0.000 A 
ATOM     17  N   UNL     1      18.118  -9.386   0.000  0.00  0.00    +0.000 NA
ATOM     18  C   UNL     1      18.832  -8.973   0.000  0.00  0.00    +0.000 C 
ATOM     19  C   UNL     1      19.547  -9.386   0.000  0.00  0.00    +0.000 A 
ATOM     20  N   UNL     1      20.300  -9.050   0.000  0.00  0.00    +0.000 NA
ATOM     21  C   UNL     1      20.852  -9.664   0.000  0.00  0.00    +0.000 A 
ATOM     22  C   UNL     1      21.677  -9.664   0.000  0.00  0.00    +0.000 A 
ATOM     23  C   UNL     1      22.090 -10.378   0.000  0.00  0.00    +0.000 A 
ATOM     24  C   UNL     1      21.677 -11.092   0.000  0.00  0.00    +0.000 A 
ATOM     25  C   UNL     1      20.852 -11.092   0.000  0.00  0.00    +0.000 A 
ATOM     26  C   UNL     1      20.440 -10.378   0.000  0.00  0.00    +0.000 A 
ATOM     27  N   UNL     1      19.633 -10.206   0.000  0.00  0.00    +0.000 N 
ATOM     28  C   UNL     1      19.020 -10.758   0.000  0.00  0.00    +0.000 C 
ATOM     29  C   UNL     1      22.915 -10.378   0.000  0.00  0.00    +0.000 C 
ATOM     30  O   UNL     1      23.327 -11.092   0.000  0.00  0.00    +0.000 OA
ATOM     31  N   UNL     1      23.327  -9.664   0.000  0.00  0.00    +0.000 N 
ATOM     32  C   UNL     1      24.152  -9.664   0.000  0.00  0.00    +0.000 C 
ATOM     33  C   UNL     1      24.565  -8.949   0.000  0.00  0.00    +0.000 C 
ATOM     34  C   UNL     1      25.390  -8.949   0.000  0.00  0.00    +0.000 C 
ATOM     35  O   UNL     1      25.802  -9.664   0.000  0.00  0.00    +0.000 OA
ATOM     36  O   UNL     1      25.802  -8.235   0.000  0.00  0.00    +0.000 OA
ATOM     37  C   UNL     1      26.627  -8.235   0.000  0.00  0.00    +0.000 C 
ATOM     38  C   UNL     1      27.040  -7.520   0.000  0.00  0.00    +0.000 C 
ATOM     39  C   UNL     1      22.915  -8.949   0.000  0.00  0.00    +0.000 A 
ATOM     40  N   UNL     1      22.090  -8.949   0.000  0.00  0.00    +0.000 NA
ATOM     41  C   UNL     1      21.677  -8.235   0.000  0.00  0.00    +0.000 A 
ATOM     42  C   UNL     1      22.090  -7.520   0.000  0.00  0.00    +0.000 A 
ATOM     43  C   UNL     1      22.915  -7.520   0.000  0.00  0.00    +0.000 A 
ATOM     44  C   UNL     1      23.327  -8.235   0.000  0.00  0.00    +0.000 A 
ATOM     45  C   UNL     1      16.689  -9.386   0.000  0.00  0.00    +0.000 A 
ATOM     46  C   UNL     1      15.974  -8.973   0.000  0.00  0.00    +0.000 A 
ENDROOT
TORSDOF 0
