ROOT
REMARK  Name = dapoxetine
REMARK                            x       y       z     vdW  Elec       q    Type
REMARK                         _______ _______ _______ _____ _____    ______ ____
ATOM      1  C   UNL     1      -3.160  -1.952   0.000  0.00  0.00    +0.000 C 
ATOM      2  N   UNL     1      -3.572  -1.238   0.000  0.00  0.00    +0.000 NA
ATOM      3  C   UNL     1      -4.397  -1.238   0.000  0.00  0.00    +0.000 C 
ATOM      4  C   UNL     1      -3.160  -0.523   0.000  0.00  0.00    +0.000 C 
ATOM      5  C   UNL     1      -2.335  -0.523   0.000  0.00  0.00    +0.000 C 
ATOM      6  C   UNL     1      -1.922  -1.238   0.000  0.00  0.00    +0.000 C 
ATOM      7  O   UNL     1      -1.097  -1.238   0.000  0.00  0.00    +0.000 OA
ATOM      8  C   UNL     1      -0.685  -1.952   0.000  0.00  0.00    +0.000 A 
ATOM      9  C   UNL     1      -1.097  -2.666   0.000  0.00  0.00    +0.000 A 
ATOM     10  C   UNL     1      -0.685  -3.381   0.000  0.00  0.00    +0.000 A 
ATOM     11  C   UNL     1       0.140  -3.381   0.000  0.00  0.00    +0.000 A 
ATOM     12  C   UNL     1       0.553  -2.666   0.000  0.00  0.00    +0.000 A 
ATOM     13  C   UNL     1       0.140  -1.952   0.000  0.00  0.00    +0.000 A 
ATOM     14  C   UNL     1       0.553  -1.238   0.000  0.00  0.00    +0.000 A 
ATOM     15  C   UNL     1       1.378  -1.238   0.000  0.00  0.00    +0.000 A 
ATOM     16  C   UNL     1       1.790  -1.952   0.000  0.00  0.00    +0.000 A 
ATOM     17  C   UNL     1       1.378  -2.666   0.000  0.00  0.00    +0.000 A 
ATOM     18  C   UNL     1      -3.572   0.191   0.000  0.00  0.00    +0.000 A 
ATOM     19  C   UNL     1      -4.397   0.191   0.000  0.00  0.00    +0.000 A 
ATOM     20  C   UNL     1      -4.810   0.906   0.000  0.00  0.00    +0.000 A 
ATOM     21  C   UNL     1      -4.397   1.620   0.000  0.00  0.00    +0.000 A 
ATOM     22  C   UNL     1      -3.572   1.620   0.000  0.00  0.00    +0.000 A 
ATOM     23  C   UNL     1      -3.160   0.906   0.000  0.00  0.00    +0.000 A 
ENDROOT
TORSDOF 0
