ROOT
REMARK  Name = daptomycin
REMARK                            x       y       z     vdW  Elec       q    Type
REMARK                         _______ _______ _______ _____ _____    ______ ____
ATOM      1  C   UNK A   0     -13.546   1.500   0.000  0.00  0.00    +0.000 C 
ATOM      2  C   UNK A   0     -12.831   1.088   0.000  0.00  0.00    +0.000 C 
ATOM      3  C   UNK A   0     -12.117   1.500   0.000  0.00  0.00    +0.000 C 
ATOM      4  C   UNK A   0     -11.402   1.088   0.000  0.00  0.00    +0.000 C 
ATOM      5  C   UNK A   0     -10.688   1.500   0.000  0.00  0.00    +0.000 C 
ATOM      6  C   UNK A   0      -9.973   1.088   0.000  0.00  0.00    +0.000 C 
ATOM      7  C   UNK A   0      -9.259   1.500   0.000  0.00  0.00    +0.000 C 
ATOM      8  C   UNK A   0      -8.544   1.088   0.000  0.00  0.00    +0.000 C 
ATOM      9  C   UNK A   0      -7.830   1.500   0.000  0.00  0.00    +0.000 C 
ATOM     10  C   UNK A   0      -7.115   1.088   0.000  0.00  0.00    +0.000 C 
ATOM     11  O   UNK A   0      -7.115   0.263   0.000  0.00  0.00    +0.000 OA
ATOM     12  N   TRP A   1      -6.401   1.500   0.000  0.00  0.00    +0.000 NA
ATOM     13  CA  TRP A   1      -5.686   1.088   0.000  0.00  0.00    +0.000 C 
ATOM     14  CB  TRP A   1      -5.686   0.263   0.000  0.00  0.00    +0.000 C 
ATOM     15  CG  TRP A   1      -4.972  -0.150   0.000  0.00  0.00    +0.000 C 
ATOM     16  CD1 TRP A   1      -4.218   0.186   0.000  0.00  0.00    +0.000 C 
ATOM     17  NE1 TRP A   1      -3.666  -0.427   0.000  0.00  0.00    +0.000 NA
ATOM     18  CE2 TRP A   1      -4.079  -1.142   0.000  0.00  0.00    +0.000 C 
ATOM     19  CZ2 TRP A   1      -3.824  -1.927   0.000  0.00  0.00    +0.000 C 
ATOM     20  CH2 TRP A   1      -4.376  -2.540   0.000  0.00  0.00    +0.000 C 
ATOM     21  CZ3 TRP A   1      -5.183  -2.368   0.000  0.00  0.00    +0.000 C 
ATOM     22  CE3 TRP A   1      -5.438  -1.583   0.000  0.00  0.00    +0.000 C 
ATOM     23  CD2 TRP A   1      -4.886  -0.970   0.000  0.00  0.00    +0.000 C 
ATOM     24  C   TRP A   1      -4.972   1.500   0.000  0.00  0.00    +0.000 C 
ATOM     25  O   TRP A   1      -4.972   2.325   0.000  0.00  0.00    +0.000 OA
ATOM     26  N   ASN A   2      -4.258   1.088   0.000  0.00  0.00    +0.000 NA
ATOM     27  CA  ASN A   2      -3.543   1.500   0.000  0.00  0.00    +0.000 C 
ATOM     28  CB  ASN A   2      -3.543   2.325   0.000  0.00  0.00    +0.000 C 
ATOM     29  CG  ASN A   2      -2.829   2.738   0.000  0.00  0.00    +0.000 C 
ATOM     30  ND2 ASN A   2      -2.829   3.563   0.000  0.00  0.00    +0.000 NA
ATOM     31  OD1 ASN A   2      -2.114   2.325   0.000  0.00  0.00    +0.000 OA
ATOM     32  C   ASN A   2      -2.829   1.088   0.000  0.00  0.00    +0.000 C 
ATOM     33  O   ASN A   2      -2.829   0.263   0.000  0.00  0.00    +0.000 OA
ATOM     34  N   ASP A   3      -2.114   1.500   0.000  0.00  0.00    +0.000 NA
ATOM     35  CA  ASP A   3      -1.400   1.088   0.000  0.00  0.00    +0.000 C 
ATOM     36  CB  ASP A   3      -1.400   0.263   0.000  0.00  0.00    +0.000 C 
ATOM     37  CG  ASP A   3      -2.114  -0.150   0.000  0.00  0.00    +0.000 C 
ATOM     38  OD1 ASP A   3      -2.114  -0.975   0.000  0.00  0.00    +0.000 OA
ATOM     39  OD2 ASP A   3      -2.935  -0.236   0.000  0.00  0.00    +0.000 OA
ATOM     40  C   ASP A   3      -0.685   1.500   0.000  0.00  0.00    +0.000 C 
ATOM     41  O   ASP A   3      -0.685   2.325   0.000  0.00  0.00    +0.000 OA
ATOM     42  N   UNK A   4       0.029   1.088   0.000  0.00  0.00    +0.000 NA
ATOM     43  C   UNK A   4       0.744   1.500   0.000  0.00  0.00    +0.000 C 
ATOM     44  C   UNK A   4       0.114   2.033   0.000  0.00  0.00    +0.000 C 
ATOM     45  C   UNK A   4      -0.516   2.566   0.000  0.00  0.00    +0.000 C 
ATOM     46  O   UNK A   4       0.426   2.797   0.000  0.00  0.00    +0.000 OA
ATOM     47  C   UNK A   4       1.249   2.736   0.000  0.00  0.00    +0.000 C 
ATOM     48  O   UNK A   4       1.470   1.941   0.000  0.00  0.00    +0.000 OA
ATOM     49  C   UNK A   4       1.986   3.257   0.000  0.00  0.00    +0.000 C 
ATOM     50  C   UNK A   4       1.893   4.077   0.000  0.00  0.00    +0.000 C 
ATOM     51  C   UNK A   4       1.136   4.405   0.000  0.00  0.00    +0.000 C 
ATOM     52  O   UNK A   4       0.473   3.914   0.000  0.00  0.00    +0.000 OA
ATOM     53  C   UNK A   4       1.042   5.225   0.000  0.00  0.00    +0.000 A 
ATOM     54  C   UNK A   4       0.286   5.554   0.000  0.00  0.00    +0.000 A 
ATOM     55  N   UNK A   4      -0.377   5.063   0.000  0.00  0.00    +0.000 NA
ATOM     56  C   UNK A   4       0.192   6.373   0.000  0.00  0.00    +0.000 A 
ATOM     57  C   UNK A   4       0.855   6.864   0.000  0.00  0.00    +0.000 A 
ATOM     58  C   UNK A   4       1.612   6.536   0.000  0.00  0.00    +0.000 A 
ATOM     59  C   UNK A   4       1.706   5.716   0.000  0.00  0.00    +0.000 A 
ATOM     60  N   UNK A   4       2.750   2.945   0.000  0.00  0.00    +0.000 NA
ATOM     61  C   UNK A   4       3.402   3.450   0.000  0.00  0.00    +0.000 C 
ATOM     62  O   UNK A   4       3.291   4.267   0.000  0.00  0.00    +0.000 OA
ATOM     63  C   UNK A   4       4.166   3.137   0.000  0.00  0.00    +0.000 C 
ATOM     64  N   UNK A   4       4.818   3.643   0.000  0.00  0.00    +0.000 NA
ATOM     65  C   UNK A   4       5.582   3.330   0.000  0.00  0.00    +0.000 C 
ATOM     66  O   UNK A   4       5.693   2.513   0.000  0.00  0.00    +0.000 OA
ATOM     67  C   UNK A   4       6.234   3.835   0.000  0.00  0.00    +0.000 C 
ATOM     68  C   UNK A   4       6.122   4.653   0.000  0.00  0.00    +0.000 C 
ATOM     69  O   ACE A  11       6.775   5.158   0.000  0.00  0.00    +0.000 OA
ATOM     70  N   UNK A   4       6.997   3.523   0.000  0.00  0.00    +0.000 NA
ATOM     71  C   GLY A  10       7.650   4.028   0.000  0.00  0.00    +0.000 C 
ATOM     72  O   GLY A  10       7.538   4.846   0.000  0.00  0.00    +0.000 OA
ATOM     73  CA  GLY A  10       8.413   3.716   0.000  0.00  0.00    +0.000 C 
ATOM     74  N   GLY A  10       9.066   4.221   0.000  0.00  0.00    +0.000 NA
ATOM     75  C   ASP A   9       9.829   3.909   0.000  0.00  0.00    +0.000 C 
ATOM     76  O   ASP A   9      10.481   4.414   0.000  0.00  0.00    +0.000 OA
ATOM     77  CA  ASP A   9       9.941   3.091   0.000  0.00  0.00    +0.000 C 
ATOM     78  CB  ASP A   9      10.704   2.779   0.000  0.00  0.00    +0.000 C 
ATOM     79  CG  ASP A   9      11.356   3.284   0.000  0.00  0.00    +0.000 C 
ATOM     80  OD1 ASP A   9      11.245   4.101   0.000  0.00  0.00    +0.000 OA
ATOM     81  OD2 ASP A   9      12.120   2.972   0.000  0.00  0.00    +0.000 OA
ATOM     82  N   ASP A   9       9.288   2.586   0.000  0.00  0.00    +0.000 NA
ATOM     83  C   ALA A   8       9.400   1.769   0.000  0.00  0.00    +0.000 C 
ATOM     84  O   ALA A   8      10.163   1.456   0.000  0.00  0.00    +0.000 OA
ATOM     85  CA  ALA A   8       8.747   1.264   0.000  0.00  0.00    +0.000 C 
ATOM     86  CB  ALA A   8       8.859   0.446   0.000  0.00  0.00    +0.000 C 
ATOM     87  N   ALA A   8       7.984   1.576   0.000  0.00  0.00    +0.000 NA
ATOM     88  C   ASP A   7       7.331   1.071   0.000  0.00  0.00    +0.000 C 
ATOM     89  O   ASP A   7       7.443   0.253   0.000  0.00  0.00    +0.000 OA
ATOM     90  CA  ASP A   7       6.568   1.383   0.000  0.00  0.00    +0.000 C 
ATOM     91  CB  ASP A   7       6.679   0.566   0.000  0.00  0.00    +0.000 C 
ATOM     92  CG  ASP A   7       6.027   0.060   0.000  0.00  0.00    +0.000 C 
ATOM     93  OD1 ASP A   7       6.138  -0.757   0.000  0.00  0.00    +0.000 OA
ATOM     94  OD2 ASP A   7       5.263   0.373   0.000  0.00  0.00    +0.000 OA
ATOM     95  N   ASP A   7       5.915   0.878   0.000  0.00  0.00    +0.000 NA
ATOM     96  C   UNK A   6       5.152   1.190   0.000  0.00  0.00    +0.000 C 
ATOM     97  O   UNK A   6       5.041   2.008   0.000  0.00  0.00    +0.000 OA
ATOM     98  C   UNK A   6       4.500   0.685   0.000  0.00  0.00    +0.000 C 
ATOM     99  C   UNK A   6       4.611  -0.132   0.000  0.00  0.00    +0.000 C 
ATOM    100  C   UNK A   6       3.959  -0.638   0.000  0.00  0.00    +0.000 C 
ATOM    101  C   UNK A   6       4.070  -1.455   0.000  0.00  0.00    +0.000 C 
ATOM    102  N   UNK A   6       3.418  -1.960   0.000  0.00  0.00    +0.000 NA
ATOM    103  N   UNK A   6       3.736   0.997   0.000  0.00  0.00    +0.000 NA
ATOM    104  C   GLY A   5       3.084   0.492   0.000  0.00  0.00    +0.000 C 
ATOM    105  O   GLY A   5       3.195  -0.325   0.000  0.00  0.00    +0.000 OA
ATOM    106  CA  GLY A   5       2.320   0.804   0.000  0.00  0.00    +0.000 C 
ATOM    107  N   GLY A   5       1.668   0.299   0.000  0.00  0.00    +0.000 NA
ATOM    108  C   UNK A   4       0.904   0.612   0.000  0.00  0.00    +0.000 C 
ATOM    109  O   UNK A   4       0.263   0.092   0.000  0.00  0.00    +0.000 OA
ATOM    110  C   UNK A   4       4.054   3.955   0.000  0.00  0.00    +0.000 C 
ATOM    111  C   UNK A   4       3.620   4.656   0.000  0.00  0.00    +0.000 C 
ATOM    112  C   UNK A   4       4.707   4.460   0.000  0.00  0.00    +0.000 C 
ATOM    113  C   UNK A   4       4.595   5.277   0.000  0.00  0.00    +0.000 C 
ATOM    114  O   UNK A   4       3.832   5.590   0.000  0.00  0.00    +0.000 OA
ATOM    115  O   UNK A   4       5.248   5.783   0.000  0.00  0.00    +0.000 OA
ENDROOT
TORSDOF 0
