ROOT
REMARK  Name = darinaparsin
REMARK                            x       y       z     vdW  Elec       q    Type
REMARK                         _______ _______ _______ _____ _____    ______ ____
ATOM      1  C   UNK A   1      11.903   1.097   0.000  0.00  0.00    +0.000 C 
ATOM      2 AS   UNK A   1      11.189   1.510   0.000  0.00  0.00    +0.000 As
ATOM      3  C   UNK A   1      10.474   1.097   0.000  0.00  0.00    +0.000 C 
ATOM      4  S   UNK A   1      11.189   2.335   0.000  0.00  0.00    +0.000 S 
ATOM      5  C   UNK A   1      10.474   2.747   0.000  0.00  0.00    +0.000 C 
ATOM      6  C   UNK A   1      10.474   3.572   0.000  0.00  0.00    +0.000 C 
ATOM      7  N   UNK A   1       9.760   3.985   0.000  0.00  0.00    +0.000 NA
ATOM      8  C   UNK A   1       9.045   3.572   0.000  0.00  0.00    +0.000 C 
ATOM      9  O   UNK A   1       9.045   2.747   0.000  0.00  0.00    +0.000 OA
ATOM     10  C   UNK A   1       8.331   3.985   0.000  0.00  0.00    +0.000 C 
ATOM     11  C   UNK A   1       7.616   3.572   0.000  0.00  0.00    +0.000 C 
ATOM     12  C   UNK A   1       6.902   3.985   0.000  0.00  0.00    +0.000 C 
ATOM     13  N   UNK A   1       6.902   4.810   0.000  0.00  0.00    +0.000 NA
ATOM     14  C   UNK A   1       6.188   3.572   0.000  0.00  0.00    +0.000 C 
ATOM     15  O   UNK A   1       5.473   3.985   0.000  0.00  0.00    +0.000 OA
ATOM     16  O   UNK A   1       6.188   2.747   0.000  0.00  0.00    +0.000 OA
ATOM     17  C   UNK A   1      11.189   3.985   0.000  0.00  0.00    +0.000 C 
ATOM     18  O   UNK A   1      11.189   4.810   0.000  0.00  0.00    +0.000 OA
ATOM     19  N   GLY A   2      11.903   3.572   0.000  0.00  0.00    +0.000 NA
ATOM     20  CA  GLY A   2      12.618   3.985   0.000  0.00  0.00    +0.000 C 
ATOM     21  C   GLY A   2      13.332   3.572   0.000  0.00  0.00    +0.000 C 
ATOM     22  O   GLY A   2      14.047   3.985   0.000  0.00  0.00    +0.000 OA
ATOM     23  OXT GLY A   2      13.332   2.747   0.000  0.00  0.00    +0.000 OA
ENDROOT
TORSDOF 0
