ROOT
REMARK  Name = davercin
REMARK                            x       y       z     vdW  Elec       q    Type
REMARK                         _______ _______ _______ _____ _____    ______ ____
ATOM      1  C   UNL     1       1.356   0.127   0.000  0.00  0.00    +0.000 C 
ATOM      2  C   UNL     1       1.356  -0.698   0.000  0.00  0.00    +0.000 C 
ATOM      3  C   UNL     1       2.070  -1.110   0.000  0.00  0.00    +0.000 C 
ATOM      4  O   UNL     1       2.070  -0.285   0.000  0.00  0.00    +0.000 OA
ATOM      5  C   UNL     1       2.784   0.127   0.000  0.00  0.00    +0.000 C 
ATOM      6  O   UNL     1       2.784   0.952   0.000  0.00  0.00    +0.000 OA
ATOM      7  C   UNL     1       3.499  -0.285   0.000  0.00  0.00    +0.000 C 
ATOM      8  C   UNL     1       3.835   0.468   0.000  0.00  0.00    +0.000 C 
ATOM      9  C   UNL     1       3.499  -1.110   0.000  0.00  0.00    +0.000 C 
ATOM     10  O   UNL     1       4.213  -0.698   0.000  0.00  0.00    +0.000 OA
ATOM     11  C   UNL     1       4.213   0.127   0.000  0.00  0.00    +0.000 C 
ATOM     12  C   UNL     1       4.928   0.540   0.000  0.00  0.00    +0.000 C 
ATOM     13  C   UNL     1       4.928   1.365   0.000  0.00  0.00    +0.000 C 
ATOM     14  C   UNL     1       5.740   1.221   0.000  0.00  0.00    +0.000 C 
ATOM     15  O   UNL     1       5.210   2.140   0.000  0.00  0.00    +0.000 OA
ATOM     16  C   UNL     1       6.023   2.283   0.000  0.00  0.00    +0.000 C 
ATOM     17  C   UNL     1       4.213   1.777   0.000  0.00  0.00    +0.000 C 
ATOM     18  O   UNL     1       4.213   2.602   0.000  0.00  0.00    +0.000 OA
ATOM     19  C   UNL     1       3.499   1.365   0.000  0.00  0.00    +0.000 C 
ATOM     20  C   UNL     1       2.784   1.777   0.000  0.00  0.00    +0.000 C 
ATOM     21  O   UNL     1       3.499   0.540   0.000  0.00  0.00    +0.000 OA
ATOM     22  C   UNL     1       4.213  -1.523   0.000  0.00  0.00    +0.000 C 
ATOM     23  C   UNL     1       4.928  -1.110   0.000  0.00  0.00    +0.000 C 
ATOM     24  C   UNL     1       4.213  -2.348   0.000  0.00  0.00    +0.000 C 
ATOM     25  O   UNL     1       4.928  -2.760   0.000  0.00  0.00    +0.000 OA
ATOM     26  C   UNL     1       5.642  -2.348   0.000  0.00  0.00    +0.000 C 
ATOM     27  O   UNL     1       5.642  -1.523   0.000  0.00  0.00    +0.000 OA
ATOM     28  C   UNL     1       6.357  -1.110   0.000  0.00  0.00    +0.000 C 
ATOM     29  C   UNL     1       6.357  -0.285   0.000  0.00  0.00    +0.000 C 
ATOM     30  C   UNL     1       7.071  -1.523   0.000  0.00  0.00    +0.000 C 
ATOM     31  C   UNL     1       7.071  -2.348   0.000  0.00  0.00    +0.000 C 
ATOM     32  C   UNL     1       6.357  -2.760   0.000  0.00  0.00    +0.000 C 
ATOM     33  O   UNL     1       6.357  -3.585   0.000  0.00  0.00    +0.000 OA
ATOM     34  N   UNL     1       7.786  -2.760   0.000  0.00  0.00    +0.000 NA
ATOM     35  C   UNL     1       8.500  -2.348   0.000  0.00  0.00    +0.000 C 
ATOM     36  C   UNL     1       7.786  -3.585   0.000  0.00  0.00    +0.000 C 
ATOM     37  C   UNL     1       3.499  -2.760   0.000  0.00  0.00    +0.000 C 
ATOM     38  C   UNL     1       4.311  -2.904   0.000  0.00  0.00    +0.000 C 
ATOM     39  O   UNL     1       4.029  -3.392   0.000  0.00  0.00    +0.000 OA
ATOM     40  C   UNL     1       3.499  -3.585   0.000  0.00  0.00    +0.000 C 
ATOM     41  C   UNL     1       2.784  -3.998   0.000  0.00  0.00    +0.000 C 
ATOM     42  C   UNL     1       2.784  -4.823   0.000  0.00  0.00    +0.000 C 
ATOM     43  C   UNL     1       2.070  -3.585   0.000  0.00  0.00    +0.000 C 
ATOM     44  O   UNL     1       1.356  -3.998   0.000  0.00  0.00    +0.000 OA
ATOM     45  C   UNL     1       2.070  -2.760   0.000  0.00  0.00    +0.000 C 
ATOM     46  C   UNL     1       2.784  -2.348   0.000  0.00  0.00    +0.000 C 
ATOM     47  C   UNL     1       1.356  -2.348   0.000  0.00  0.00    +0.000 C 
ATOM     48  O   UNL     1       0.571  -2.603   0.000  0.00  0.00    +0.000 OA
ATOM     49  C   UNL     1       0.086  -1.935   0.000  0.00  0.00    +0.000 C 
ATOM     50  O   UNL     1      -0.739  -1.935   0.000  0.00  0.00    +0.000 OA
ATOM     51  O   UNL     1       0.571  -1.268   0.000  0.00  0.00    +0.000 OA
ATOM     52  C   UNL     1       1.356  -1.523   0.000  0.00  0.00    +0.000 C 
ATOM     53  C   UNL     1       1.020  -0.769   0.000  0.00  0.00    +0.000 C 
ENDROOT
TORSDOF 0
