ROOT
REMARK  Name = decamethrin
REMARK                            x       y       z     vdW  Elec       q    Type
REMARK                         _______ _______ _______ _____ _____    ______ ____
ATOM      1  C   UNL     1       0.543  -2.605   0.000  0.00  0.00    +0.000 C 
ATOM      2  C   UNL     1       1.318  -2.888   0.000  0.00  0.00    +0.000 C 
ATOM      3  C   UNL     1       1.175  -3.700   0.000  0.00  0.00    +0.000 C 
ATOM      4  C   UNL     1       1.731  -2.173   0.000  0.00  0.00    +0.000 C 
ATOM      5  C   UNL     1       1.731  -1.348   0.000  0.00  0.00    +0.000 C 
ATOM      6  C   UNL     1       2.445  -0.935   0.000  0.00  0.00    +0.000 C 
ATOM      7 BR   UNL     1       2.445  -0.111   0.000  0.00  0.00    +0.000 Br
ATOM      8 BR   UNL     1       3.160  -1.348   0.000  0.00  0.00    +0.000 Br
ATOM      9  C   UNL     1       2.143  -2.888   0.000  0.00  0.00    +0.000 C 
ATOM     10  C   UNL     1       2.858  -3.300   0.000  0.00  0.00    +0.000 C 
ATOM     11  O   UNL     1       3.572  -2.888   0.000  0.00  0.00    +0.000 OA
ATOM     12  O   UNL     1       2.858  -4.125   0.000  0.00  0.00    +0.000 OA
ATOM     13  C   UNL     1       3.572  -4.537   0.000  0.00  0.00    +0.000 C 
ATOM     14  C   UNL     1       4.287  -4.125   0.000  0.00  0.00    +0.000 C 
ATOM     15  N   UNL     1       5.001  -3.712   0.000  0.00  0.00    +0.000 NA
ATOM     16  C   UNL     1       3.572  -5.362   0.000  0.00  0.00    +0.000 A 
ATOM     17  C   UNL     1       4.287  -5.775   0.000  0.00  0.00    +0.000 A 
ATOM     18  C   UNL     1       4.287  -6.600   0.000  0.00  0.00    +0.000 A 
ATOM     19  O   UNL     1       5.001  -7.013   0.000  0.00  0.00    +0.000 OA
ATOM     20  C   UNL     1       5.001  -7.838   0.000  0.00  0.00    +0.000 A 
ATOM     21  C   UNL     1       5.716  -8.250   0.000  0.00  0.00    +0.000 A 
ATOM     22  C   UNL     1       5.716  -9.075   0.000  0.00  0.00    +0.000 A 
ATOM     23  C   UNL     1       5.001  -9.488   0.000  0.00  0.00    +0.000 A 
ATOM     24  C   UNL     1       4.287  -9.075   0.000  0.00  0.00    +0.000 A 
ATOM     25  C   UNL     1       4.287  -8.250   0.000  0.00  0.00    +0.000 A 
ATOM     26  C   UNL     1       3.572  -7.013   0.000  0.00  0.00    +0.000 A 
ATOM     27  C   UNL     1       2.858  -6.600   0.000  0.00  0.00    +0.000 A 
ATOM     28  C   UNL     1       2.858  -5.775   0.000  0.00  0.00    +0.000 A 
ENDROOT
TORSDOF 0
