ROOT
REMARK  Name = deferoxamine
REMARK                            x       y       z     vdW  Elec       q    Type
REMARK                         _______ _______ _______ _____ _____    ______ ____
ATOM      1  C   UNL     1      16.610  10.415   0.000  0.00  0.00    +0.000 C 
ATOM      2  C   UNL     1      17.325  10.003   0.000  0.00  0.00    +0.000 C 
ATOM      3  O   UNL     1      17.325   9.178   0.000  0.00  0.00    +0.000 OA
ATOM      4  N   UNL     1      18.040  10.415   0.000  0.00  0.00    +0.000 N 
ATOM      5  O   UNL     1      18.040  11.240   0.000  0.00  0.00    +0.000 OA
ATOM      6  C   UNL     1      18.754  10.003   0.000  0.00  0.00    +0.000 C 
ATOM      7  C   UNL     1      19.468  10.415   0.000  0.00  0.00    +0.000 C 
ATOM      8  C   UNL     1      20.183  10.003   0.000  0.00  0.00    +0.000 C 
ATOM      9  C   UNL     1      20.897  10.415   0.000  0.00  0.00    +0.000 C 
ATOM     10  C   UNL     1      21.612  10.003   0.000  0.00  0.00    +0.000 C 
ATOM     11  N   UNL     1      22.326  10.415   0.000  0.00  0.00    +0.000 NA
ATOM     12  C   UNL     1      23.041  10.003   0.000  0.00  0.00    +0.000 C 
ATOM     13  O   UNL     1      23.041   9.178   0.000  0.00  0.00    +0.000 OA
ATOM     14  C   UNL     1      23.755  10.415   0.000  0.00  0.00    +0.000 C 
ATOM     15  C   UNL     1      24.470  10.003   0.000  0.00  0.00    +0.000 C 
ATOM     16  C   UNL     1      25.184  10.415   0.000  0.00  0.00    +0.000 C 
ATOM     17  O   UNL     1      25.184  11.240   0.000  0.00  0.00    +0.000 OA
ATOM     18  N   UNL     1      25.899  10.003   0.000  0.00  0.00    +0.000 N 
ATOM     19  O   UNL     1      25.899   9.178   0.000  0.00  0.00    +0.000 OA
ATOM     20  C   UNL     1      26.613  10.415   0.000  0.00  0.00    +0.000 C 
ATOM     21  C   UNL     1      27.328  10.003   0.000  0.00  0.00    +0.000 C 
ATOM     22  C   UNL     1      28.042  10.415   0.000  0.00  0.00    +0.000 C 
ATOM     23  C   UNL     1      28.756  10.003   0.000  0.00  0.00    +0.000 C 
ATOM     24  C   UNL     1      29.471  10.415   0.000  0.00  0.00    +0.000 C 
ATOM     25  N   UNL     1      30.186  10.003   0.000  0.00  0.00    +0.000 NA
ATOM     26  C   UNL     1      30.900  10.415   0.000  0.00  0.00    +0.000 C 
ATOM     27  O   UNL     1      30.900  11.240   0.000  0.00  0.00    +0.000 OA
ATOM     28  C   UNL     1      31.614  10.003   0.000  0.00  0.00    +0.000 C 
ATOM     29  C   UNL     1      32.329  10.415   0.000  0.00  0.00    +0.000 C 
ATOM     30  C   UNL     1      33.043  10.003   0.000  0.00  0.00    +0.000 C 
ATOM     31  O   UNL     1      33.043   9.178   0.000  0.00  0.00    +0.000 OA
ATOM     32  N   UNL     1      33.758  10.415   0.000  0.00  0.00    +0.000 N 
ATOM     33  O   UNL     1      33.758  11.240   0.000  0.00  0.00    +0.000 OA
ATOM     34  C   UNL     1      34.472  10.003   0.000  0.00  0.00    +0.000 C 
ATOM     35  C   UNL     1      35.187  10.415   0.000  0.00  0.00    +0.000 C 
ATOM     36  C   UNL     1      35.901  10.003   0.000  0.00  0.00    +0.000 C 
ATOM     37  C   UNL     1      36.616  10.415   0.000  0.00  0.00    +0.000 C 
ATOM     38  C   UNL     1      37.330  10.003   0.000  0.00  0.00    +0.000 C 
ATOM     39  N   UNL     1      38.045  10.415   0.000  0.00  0.00    +0.000 NA
ENDROOT
TORSDOF 0
