ROOT
REMARK  Name = desvenlafaxine
REMARK                            x       y       z     vdW  Elec       q    Type
REMARK                         _______ _______ _______ _____ _____    ______ ____
ATOM      1  C   UNL     1      -0.680   0.705   0.000  0.00  0.00    +0.000 C 
ATOM      2  N   UNL     1       0.034   0.292   0.000  0.00  0.00    +0.000 NA
ATOM      3  C   UNL     1       0.749   0.705   0.000  0.00  0.00    +0.000 C 
ATOM      4  C   UNL     1       0.034  -0.532   0.000  0.00  0.00    +0.000 C 
ATOM      5  C   UNL     1       0.749  -0.945   0.000  0.00  0.00    +0.000 C 
ATOM      6  C   UNL     1       0.749  -1.770   0.000  0.00  0.00    +0.000 A 
ATOM      7  C   UNL     1       1.463  -2.183   0.000  0.00  0.00    +0.000 A 
ATOM      8  C   UNL     1       1.463  -3.007   0.000  0.00  0.00    +0.000 A 
ATOM      9  C   UNL     1       0.749  -3.420   0.000  0.00  0.00    +0.000 A 
ATOM     10  O   UNL     1       0.749  -4.245   0.000  0.00  0.00    +0.000 OA
ATOM     11  C   UNL     1       0.034  -3.007   0.000  0.00  0.00    +0.000 A 
ATOM     12  C   UNL     1       0.034  -2.183   0.000  0.00  0.00    +0.000 A 
ATOM     13  C   UNL     1       1.463  -0.532   0.000  0.00  0.00    +0.000 C 
ATOM     14  O   UNL     1       1.745  -1.308   0.000  0.00  0.00    +0.000 OA
ATOM     15  C   UNL     1       0.933   0.100   0.000  0.00  0.00    +0.000 C 
ATOM     16  C   UNL     1       1.215   0.875   0.000  0.00  0.00    +0.000 C 
ATOM     17  C   UNL     1       2.027   1.018   0.000  0.00  0.00    +0.000 C 
ATOM     18  C   UNL     1       2.558   0.386   0.000  0.00  0.00    +0.000 C 
ATOM     19  C   UNL     1       2.275  -0.389   0.000  0.00  0.00    +0.000 C 
ENDROOT
TORSDOF 0
