ROOT
REMARK  Name = detomidine
REMARK                            x       y       z     vdW  Elec       q    Type
REMARK                         _______ _______ _______ _____ _____    ______ ____
ATOM      1  C   UNL     1       0.608   2.001   0.000  0.00  0.00    +0.000 C 
ATOM      2  C   UNL     1       1.322   2.413   0.000  0.00  0.00    +0.000 A 
ATOM      3  C   UNL     1       1.322   3.238   0.000  0.00  0.00    +0.000 A 
ATOM      4  C   UNL     1       2.037   3.651   0.000  0.00  0.00    +0.000 A 
ATOM      5  C   UNL     1       2.751   3.238   0.000  0.00  0.00    +0.000 A 
ATOM      6  C   UNL     1       2.751   2.413   0.000  0.00  0.00    +0.000 A 
ATOM      7  C   UNL     1       3.466   2.001   0.000  0.00  0.00    +0.000 C 
ATOM      8  C   UNL     1       3.466   1.176   0.000  0.00  0.00    +0.000 A 
ATOM      9  C   UNL     1       4.133   0.691   0.000  0.00  0.00    +0.000 A 
ATOM     10  N   UNL     1       3.878  -0.094   0.000  0.00  0.00    +0.000 NA
ATOM     11  C   UNL     1       3.053  -0.094   0.000  0.00  0.00    +0.000 A 
ATOM     12  N   UNL     1       2.798   0.691   0.000  0.00  0.00    +0.000 NA
ATOM     13  C   UNL     1       2.037   2.001   0.000  0.00  0.00    +0.000 A 
ATOM     14  C   UNL     1       2.037   1.176   0.000  0.00  0.00    +0.000 C 
ENDROOT
TORSDOF 0
