ROOT
REMARK  Name = deucravacitinib
REMARK                            x       y       z     vdW  Elec       q    Type
REMARK                         _______ _______ _______ _____ _____    ______ ____
ATOM      1  H   UNL     1       2.143  -2.062   0.000  0.00  0.00    +0.000 HD
ATOM      2  C   UNL     1       1.429  -1.650   0.000  0.00  0.00    +0.000 C 
ATOM      3  H   UNL     1       2.143  -1.238   0.000  0.00  0.00    +0.000 HD
ATOM      4  H   UNL     1       1.429  -0.825   0.000  0.00  0.00    +0.000 HD
ATOM      5  N   UNL     1       1.429  -2.475   0.000  0.00  0.00    +0.000 NA
ATOM      6  C   UNL     1       0.715  -2.888   0.000  0.00  0.00    +0.000 C 
ATOM      7  O   UNL     1       0.715  -3.712   0.000  0.00  0.00    +0.000 OA
ATOM      8  C   UNL     1       0.000  -2.475   0.000  0.00  0.00    +0.000 A 
ATOM      9  C   UNL     1       0.000  -1.650   0.000  0.00  0.00    +0.000 A 
ATOM     10  N   UNL     1       0.715  -1.238   0.000  0.00  0.00    +0.000 NA
ATOM     11  C   UNL     1       0.715  -0.412   0.000  0.00  0.00    +0.000 A 
ATOM     12  C   UNL     1       0.000   0.000   0.000  0.00  0.00    +0.000 A 
ATOM     13  O   UNL     1      -0.715  -0.412   0.000  0.00  0.00    +0.000 OA
ATOM     14  C   UNL     1      -1.429   0.000   0.000  0.00  0.00    +0.000 C 
ATOM     15  C   UNL     1       0.000   0.825   0.000  0.00  0.00    +0.000 A 
ATOM     16  C   UNL     1       0.715   1.238   0.000  0.00  0.00    +0.000 A 
ATOM     17  C   UNL     1       1.429   0.825   0.000  0.00  0.00    +0.000 A 
ATOM     18  C   UNL     1       1.429   0.000   0.000  0.00  0.00    +0.000 A 
ATOM     19  C   UNL     1      -0.715   1.238   0.000  0.00  0.00    +0.000 A 
ATOM     20  N   UNL     1      -1.468   0.902   0.000  0.00  0.00    +0.000 NA
ATOM     21  N   UNL     1      -2.020   1.515   0.000  0.00  0.00    +0.000 N 
ATOM     22  C   UNL     1      -2.841   1.429   0.000  0.00  0.00    +0.000 C 
ATOM     23  C   UNL     1      -1.608   2.229   0.000  0.00  0.00    +0.000 A 
ATOM     24  N   UNL     1      -0.801   2.058   0.000  0.00  0.00    +0.000 NA
ATOM     25  C   UNL     1      -0.715  -1.238   0.000  0.00  0.00    +0.000 A 
ATOM     26  C   UNL     1      -1.429  -1.650   0.000  0.00  0.00    +0.000 A 
ATOM     27  N   UNL     1      -2.143  -1.238   0.000  0.00  0.00    +0.000 NA
ATOM     28  C   UNL     1      -2.858  -1.650   0.000  0.00  0.00    +0.000 C 
ATOM     29  O   UNL     1      -3.572  -1.238   0.000  0.00  0.00    +0.000 OA
ATOM     30  C   UNL     1      -2.858  -2.475   0.000  0.00  0.00    +0.000 C 
ATOM     31  C   UNL     1      -2.445  -3.189   0.000  0.00  0.00    +0.000 C 
ATOM     32  C   UNL     1      -3.270  -3.189   0.000  0.00  0.00    +0.000 C 
ATOM     33  N   UNL     1      -1.429  -2.475   0.000  0.00  0.00    +0.000 NA
ATOM     34  N   UNL     1      -0.715  -2.888   0.000  0.00  0.00    +0.000 NA
ENDROOT
TORSDOF 0
