ROOT
REMARK  Name = dezocine
REMARK                            x       y       z     vdW  Elec       q    Type
REMARK                         _______ _______ _______ _____ _____    ______ ____
ATOM      1  C   UNL     1       2.960   1.260   0.000  0.00  0.00    +0.000 C 
ATOM      2  C   UNL     1       2.574   0.531   0.000  0.00  0.00    +0.000 C 
ATOM      3  C   UNL     1       1.865   1.049   0.000  0.00  0.00    +0.000 C 
ATOM      4  C   UNL     1       1.006   0.995   0.000  0.00  0.00    +0.000 C 
ATOM      5  C   UNL     1       0.476   0.348   0.000  0.00  0.00    +0.000 C 
ATOM      6  C   UNL     1       0.587  -0.481   0.000  0.00  0.00    +0.000 C 
ATOM      7  C   UNL     1       1.289  -0.979   0.000  0.00  0.00    +0.000 C 
ATOM      8  C   UNL     1       2.164  -0.911   0.000  0.00  0.00    +0.000 C 
ATOM      9  C   UNL     1       3.021  -1.121   0.000  0.00  0.00    +0.000 C 
ATOM     10  C   UNL     1       3.668  -0.559   0.000  0.00  0.00    +0.000 A 
ATOM     11  C   UNL     1       4.473  -0.741   0.000  0.00  0.00    +0.000 A 
ATOM     12  C   UNL     1       5.032  -0.135   0.000  0.00  0.00    +0.000 A 
ATOM     13  C   UNL     1       4.787   0.653   0.000  0.00  0.00    +0.000 A 
ATOM     14  O   UNL     1       5.347   1.259   0.000  0.00  0.00    +0.000 OA
ATOM     15  C   UNL     1       3.983   0.835   0.000  0.00  0.00    +0.000 A 
ATOM     16  C   UNL     1       3.423   0.229   0.000  0.00  0.00    +0.000 A 
ATOM     17  C   UNL     1       2.319  -0.176   0.000  0.00  0.00    +0.000 C 
ATOM     18  N   UNL     1       1.526   0.050   0.000  0.00  0.00    +0.000 NA
ENDROOT
TORSDOF 0
