ROOT
REMARK  Name = diacerein
REMARK                            x       y       z     vdW  Elec       q    Type
REMARK                         _______ _______ _______ _____ _____    ______ ____
ATOM      1  C   UNL     1       1.429   0.825   0.000  0.00  0.00    +0.000 C 
ATOM      2  C   UNL     1       1.429   0.000   0.000  0.00  0.00    +0.000 C 
ATOM      3  O   UNL     1       0.715  -0.412   0.000  0.00  0.00    +0.000 OA
ATOM      4  O   UNL     1       2.143  -0.412   0.000  0.00  0.00    +0.000 OA
ATOM      5  C   UNL     1       2.143  -1.238   0.000  0.00  0.00    +0.000 A 
ATOM      6  C   UNL     1       2.858  -1.650   0.000  0.00  0.00    +0.000 A 
ATOM      7  C   UNL     1       3.572  -1.238   0.000  0.00  0.00    +0.000 C 
ATOM      8  O   UNL     1       3.572  -0.412   0.000  0.00  0.00    +0.000 OA
ATOM      9  C   UNL     1       4.287  -1.650   0.000  0.00  0.00    +0.000 A 
ATOM     10  C   UNL     1       5.001  -1.238   0.000  0.00  0.00    +0.000 A 
ATOM     11  O   UNL     1       5.001  -0.412   0.000  0.00  0.00    +0.000 OA
ATOM     12  C   UNL     1       5.716   0.000   0.000  0.00  0.00    +0.000 C 
ATOM     13  C   UNL     1       6.430  -0.412   0.000  0.00  0.00    +0.000 C 
ATOM     14  O   UNL     1       5.716   0.825   0.000  0.00  0.00    +0.000 OA
ATOM     15  C   UNL     1       5.716  -1.650   0.000  0.00  0.00    +0.000 A 
ATOM     16  C   UNL     1       5.716  -2.475   0.000  0.00  0.00    +0.000 A 
ATOM     17  C   UNL     1       5.001  -2.888   0.000  0.00  0.00    +0.000 A 
ATOM     18  C   UNL     1       4.287  -2.475   0.000  0.00  0.00    +0.000 A 
ATOM     19  C   UNL     1       3.572  -2.888   0.000  0.00  0.00    +0.000 C 
ATOM     20  O   UNL     1       3.572  -3.712   0.000  0.00  0.00    +0.000 OA
ATOM     21  C   UNL     1       2.858  -2.475   0.000  0.00  0.00    +0.000 A 
ATOM     22  C   UNL     1       2.143  -2.888   0.000  0.00  0.00    +0.000 A 
ATOM     23  C   UNL     1       1.429  -2.475   0.000  0.00  0.00    +0.000 A 
ATOM     24  C   UNL     1       1.429  -1.650   0.000  0.00  0.00    +0.000 A 
ATOM     25  C   UNL     1       6.430  -2.888   0.000  0.00  0.00    +0.000 C 
ATOM     26  O   UNL     1       7.145  -2.475   0.000  0.00  0.00    +0.000 OA
ATOM     27  O   UNL     1       6.430  -3.712   0.000  0.00  0.00    +0.000 OA
ENDROOT
TORSDOF 0
