ROOT
REMARK  Name = diazolidinylurea
REMARK                            x       y       z     vdW  Elec       q    Type
REMARK                         _______ _______ _______ _____ _____    ______ ____
ATOM      1  O   UNL     1      -0.222  -3.765   0.000  0.00  0.00    +0.000 OA
ATOM      2  C   UNL     1       0.190  -3.050   0.000  0.00  0.00    +0.000 C 
ATOM      3  N   UNL     1       1.015  -3.050   0.000  0.00  0.00    +0.000 NA
ATOM      4  C   UNL     1       1.428  -2.336   0.000  0.00  0.00    +0.000 C 
ATOM      5  O   UNL     1       1.015  -1.621   0.000  0.00  0.00    +0.000 OA
ATOM      6  N   UNL     1       2.253  -2.336   0.000  0.00  0.00    +0.000 N 
ATOM      7  C   UNL     1       2.665  -3.050   0.000  0.00  0.00    +0.000 C 
ATOM      8  O   UNL     1       2.253  -3.765   0.000  0.00  0.00    +0.000 OA
ATOM      9  C   UNL     1       2.665  -1.621   0.000  0.00  0.00    +0.000 C 
ATOM     10  N   UNL     1       2.330  -0.868   0.000  0.00  0.00    +0.000 N 
ATOM     11  C   UNL     1       1.523  -0.696   0.000  0.00  0.00    +0.000 C 
ATOM     12  O   UNL     1       1.268   0.088   0.000  0.00  0.00    +0.000 OA
ATOM     13  C   UNL     1       2.943  -0.316   0.000  0.00  0.00    +0.000 C 
ATOM     14  O   UNL     1       2.857   0.505   0.000  0.00  0.00    +0.000 OA
ATOM     15  N   UNL     1       3.657  -0.728   0.000  0.00  0.00    +0.000 N 
ATOM     16  C   UNL     1       4.411  -0.393   0.000  0.00  0.00    +0.000 C 
ATOM     17  O   UNL     1       4.497   0.428   0.000  0.00  0.00    +0.000 OA
ATOM     18  C   UNL     1       3.486  -1.535   0.000  0.00  0.00    +0.000 C 
ATOM     19  O   UNL     1       4.038  -2.148   0.000  0.00  0.00    +0.000 OA
ENDROOT
TORSDOF 0
