ROOT
REMARK  Name = didanosine
REMARK                            x       y       z     vdW  Elec       q    Type
REMARK                         _______ _______ _______ _____ _____    ______ ____
ATOM      1  O   UNL     1      -1.764   3.139   0.000  0.00  0.00    +0.000 OA
ATOM      2  C   UNL     1      -1.851   2.319   0.000  0.00  0.00    +0.000 C 
ATOM      3  C   UNL     1      -1.183   1.834   0.000  0.00  0.00    +0.000 C 
ATOM      4  C   UNL     1      -0.398   2.089   0.000  0.00  0.00    +0.000 C 
ATOM      5  C   UNL     1       0.086   1.422   0.000  0.00  0.00    +0.000 C 
ATOM      6  C   UNL     1      -0.398   0.754   0.000  0.00  0.00    +0.000 C 
ATOM      7  O   UNL     1      -1.183   1.009   0.000  0.00  0.00    +0.000 OA
ATOM      8  N   UNL     1      -0.143  -0.030   0.000  0.00  0.00    +0.000 N 
ATOM      9  C   UNL     1      -0.628  -0.698   0.000  0.00  0.00    +0.000 A 
ATOM     10  N   UNL     1      -0.143  -1.365   0.000  0.00  0.00    +0.000 NA
ATOM     11  C   UNL     1       0.641  -1.110   0.000  0.00  0.00    +0.000 A 
ATOM     12  C   UNL     1       0.641  -0.285   0.000  0.00  0.00    +0.000 A 
ATOM     13  N   UNL     1       1.356   0.127   0.000  0.00  0.00    +0.000 NA
ATOM     14  C   UNL     1       2.070  -0.285   0.000  0.00  0.00    +0.000 A 
ATOM     15  N   UNL     1       2.070  -1.110   0.000  0.00  0.00    +0.000 NA
ATOM     16  C   UNL     1       1.356  -1.523   0.000  0.00  0.00    +0.000 A 
ATOM     17  O   UNL     1       1.356  -2.348   0.000  0.00  0.00    +0.000 OA
ENDROOT
TORSDOF 0
