ROOT
REMARK  Name = difetarsone
REMARK                            x       y       z     vdW  Elec       q    Type
REMARK                         _______ _______ _______ _____ _____    ______ ____
ATOM      1  O   UNL     1      -2.858  -0.825   0.000  0.00  0.00    +0.000 OA
ATOM      2 AS   UNL     1      -2.143  -1.238   0.000  0.00  0.00    +0.000 As
ATOM      3  O   UNL     1      -2.556  -1.952   0.000  0.00  0.00    +0.000 OA
ATOM      4  O   UNL     1      -1.731  -0.523   0.000  0.00  0.00    +0.000 OA
ATOM      5  C   UNL     1      -1.429  -1.650   0.000  0.00  0.00    +0.000 A 
ATOM      6  C   UNL     1      -0.715  -1.238   0.000  0.00  0.00    +0.000 A 
ATOM      7  C   UNL     1       0.000  -1.650   0.000  0.00  0.00    +0.000 A 
ATOM      8  C   UNL     1       0.000  -2.475   0.000  0.00  0.00    +0.000 A 
ATOM      9  N   UNL     1       0.715  -2.888   0.000  0.00  0.00    +0.000 NA
ATOM     10  C   UNL     1       1.429  -2.475   0.000  0.00  0.00    +0.000 C 
ATOM     11  C   UNL     1       2.143  -2.888   0.000  0.00  0.00    +0.000 C 
ATOM     12  N   UNL     1       2.858  -2.475   0.000  0.00  0.00    +0.000 NA
ATOM     13  C   UNL     1       3.572  -2.888   0.000  0.00  0.00    +0.000 A 
ATOM     14  C   UNL     1       4.287  -2.475   0.000  0.00  0.00    +0.000 A 
ATOM     15  C   UNL     1       5.001  -2.888   0.000  0.00  0.00    +0.000 A 
ATOM     16  C   UNL     1       5.001  -3.712   0.000  0.00  0.00    +0.000 A 
ATOM     17  C   UNL     1       4.287  -4.125   0.000  0.00  0.00    +0.000 A 
ATOM     18  C   UNL     1       3.572  -3.712   0.000  0.00  0.00    +0.000 A 
ATOM     19 AS   UNL     1       5.716  -4.125   0.000  0.00  0.00    +0.000 As
ATOM     20  O   UNL     1       6.430  -4.537   0.000  0.00  0.00    +0.000 OA
ATOM     21  O   UNL     1       5.303  -4.840   0.000  0.00  0.00    +0.000 OA
ATOM     22  O   UNL     1       6.128  -3.410   0.000  0.00  0.00    +0.000 OA
ATOM     23  C   UNL     1      -0.715  -2.888   0.000  0.00  0.00    +0.000 A 
ATOM     24  C   UNL     1      -1.429  -2.475   0.000  0.00  0.00    +0.000 A 
ENDROOT
TORSDOF 0
