ROOT
REMARK  Name = dihydrocodeine
REMARK                            x       y       z     vdW  Elec       q    Type
REMARK                         _______ _______ _______ _____ _____    ______ ____
ATOM      1  C   UNL     1       3.987   3.873   0.000  0.00  0.00    +0.000 C 
ATOM      2  O   UNL     1       4.488   3.217   0.000  0.00  0.00    +0.000 OA
ATOM      3  C   UNL     1       4.171   2.455   0.000  0.00  0.00    +0.000 A 
ATOM      4  C   UNL     1       4.691   1.799   0.000  0.00  0.00    +0.000 A 
ATOM      5  C   UNL     1       4.379   1.034   0.000  0.00  0.00    +0.000 A 
ATOM      6  C   UNL     1       3.554   0.948   0.000  0.00  0.00    +0.000 A 
ATOM      7  C   UNL     1       3.256   0.199   0.000  0.00  0.00    +0.000 C 
ATOM      8  C   UNL     1       2.437   0.188   0.000  0.00  0.00    +0.000 C 
ATOM      9  C   UNL     1       1.847   0.974   0.000  0.00  0.00    +0.000 C 
ATOM     10  C   UNL     1       0.873   1.121   0.000  0.00  0.00    +0.000 C 
ATOM     11  C   UNL     1       0.560   1.862   0.000  0.00  0.00    +0.000 C 
ATOM     12  C   UNL     1       1.119   2.462   0.000  0.00  0.00    +0.000 C 
ATOM     13  O   UNL     1       0.864   3.247   0.000  0.00  0.00    +0.000 OA
ATOM     14  C   UNL     1       1.945   2.302   0.000  0.00  0.00    +0.000 C 
ATOM     15  O   UNL     1       2.610   2.805   0.000  0.00  0.00    +0.000 OA
ATOM     16  C   UNL     1       3.322   2.361   0.000  0.00  0.00    +0.000 A 
ATOM     17  C   UNL     1       3.031   1.594   0.000  0.00  0.00    +0.000 A 
ATOM     18  C   UNL     1       2.159   1.470   0.000  0.00  0.00    +0.000 C 
ATOM     19  C   UNL     1       1.315   0.871   0.000  0.00  0.00    +0.000 C 
ATOM     20  C   UNL     1       1.172  -0.016   0.000  0.00  0.00    +0.000 C 
ATOM     21  N   UNL     1       1.893  -0.400   0.000  0.00  0.00    +0.000 NA
ATOM     22  C   UNL     1       2.031  -1.213   0.000  0.00  0.00    +0.000 C 
ENDROOT
TORSDOF 0
