ROOT
REMARK  Name = dioxadrol
REMARK                            x       y       z     vdW  Elec       q    Type
REMARK                         _______ _______ _______ _____ _____    ______ ____
ATOM      1  C   UNL     1       0.646  -2.417   0.000  0.00  0.00    +0.000 C 
ATOM      2  O   UNL     1       0.392  -1.632   0.000  0.00  0.00    +0.000 OA
ATOM      3  C   UNL     1       1.059  -1.147   0.000  0.00  0.00    +0.000 C 
ATOM      4  O   UNL     1       1.726  -1.632   0.000  0.00  0.00    +0.000 OA
ATOM      5  C   UNL     1       1.472  -2.417   0.000  0.00  0.00    +0.000 C 
ATOM      6  C   UNL     1       1.956  -3.084   0.000  0.00  0.00    +0.000 C 
ATOM      7  C   UNL     1       2.777  -2.998   0.000  0.00  0.00    +0.000 C 
ATOM      8  C   UNL     1       3.262  -3.665   0.000  0.00  0.00    +0.000 C 
ATOM      9  C   UNL     1       2.926  -4.419   0.000  0.00  0.00    +0.000 C 
ATOM     10  C   UNL     1       2.106  -4.505   0.000  0.00  0.00    +0.000 C 
ATOM     11  N   UNL     1       1.621  -3.838   0.000  0.00  0.00    +0.000 NA
ATOM     12  C   UNL     1       0.452  -0.589   0.000  0.00  0.00    +0.000 A 
ATOM     13  C   UNL     1      -0.336  -0.835   0.000  0.00  0.00    +0.000 A 
ATOM     14  C   UNL     1      -0.943  -0.277   0.000  0.00  0.00    +0.000 A 
ATOM     15  C   UNL     1      -0.763   0.528   0.000  0.00  0.00    +0.000 A 
ATOM     16  C   UNL     1       0.024   0.775   0.000  0.00  0.00    +0.000 A 
ATOM     17  C   UNL     1       0.632   0.216   0.000  0.00  0.00    +0.000 A 
ATOM     18  C   UNL     1       1.464  -0.428   0.000  0.00  0.00    +0.000 A 
ATOM     19  C   UNL     1       1.044   0.282   0.000  0.00  0.00    +0.000 A 
ATOM     20  C   UNL     1       1.449   1.000   0.000  0.00  0.00    +0.000 A 
ATOM     21  C   UNL     1       2.274   1.009   0.000  0.00  0.00    +0.000 A 
ATOM     22  C   UNL     1       2.694   0.299   0.000  0.00  0.00    +0.000 A 
ATOM     23  C   UNL     1       2.289  -0.420   0.000  0.00  0.00    +0.000 A 
ENDROOT
TORSDOF 0
