ROOT
REMARK  Name = disulfiram
REMARK                            x       y       z     vdW  Elec       q    Type
REMARK                         _______ _______ _______ _____ _____    ______ ____
ATOM      1  C   UNL     1      -0.113  -3.105   0.000  0.00  0.00    +0.000 C 
ATOM      2  C   UNL     1       0.697  -2.949   0.000  0.00  0.00    +0.000 C 
ATOM      3  N   UNL     1       1.238  -3.572   0.000  0.00  0.00    +0.000 N 
ATOM      4  C   UNL     1       0.968  -4.352   0.000  0.00  0.00    +0.000 C 
ATOM      5  C   UNL     1       0.157  -4.508   0.000  0.00  0.00    +0.000 C 
ATOM      6  C   UNL     1       2.048  -3.416   0.000  0.00  0.00    +0.000 C 
ATOM      7  S   UNL     1       2.318  -2.637   0.000  0.00  0.00    +0.000 S 
ATOM      8  S   UNL     1       2.588  -4.040   0.000  0.00  0.00    +0.000 S 
ATOM      9  S   UNL     1       3.398  -3.884   0.000  0.00  0.00    +0.000 S 
ATOM     10  C   UNL     1       3.938  -4.508   0.000  0.00  0.00    +0.000 C 
ATOM     11  S   UNL     1       3.668  -5.287   0.000  0.00  0.00    +0.000 S 
ATOM     12  N   UNL     1       4.748  -4.352   0.000  0.00  0.00    +0.000 N 
ATOM     13  C   UNL     1       5.288  -4.976   0.000  0.00  0.00    +0.000 C 
ATOM     14  C   UNL     1       6.098  -4.820   0.000  0.00  0.00    +0.000 C 
ATOM     15  C   UNL     1       5.018  -3.572   0.000  0.00  0.00    +0.000 C 
ATOM     16  C   UNL     1       5.828  -3.416   0.000  0.00  0.00    +0.000 C 
ENDROOT
TORSDOF 0
