ROOT
REMARK  Name = dodeclonium bromide
REMARK                            x       y       z     vdW  Elec       q    Type
REMARK                         _______ _______ _______ _____ _____    ______ ____
ATOM      1  C   UNL     1       5.716  -9.075   0.000  0.00  0.00    +0.000 C 
ATOM      2  C   UNL     1       6.430  -9.488   0.000  0.00  0.00    +0.000 C 
ATOM      3  C   UNL     1       7.145  -9.075   0.000  0.00  0.00    +0.000 C 
ATOM      4  C   UNL     1       7.859  -9.488   0.000  0.00  0.00    +0.000 C 
ATOM      5  C   UNL     1       8.574  -9.075   0.000  0.00  0.00    +0.000 C 
ATOM      6  C   UNL     1       9.288  -9.488   0.000  0.00  0.00    +0.000 C 
ATOM      7  C   UNL     1      10.003  -9.075   0.000  0.00  0.00    +0.000 C 
ATOM      8  C   UNL     1      10.717  -9.488   0.000  0.00  0.00    +0.000 C 
ATOM      9  C   UNL     1      11.431  -9.075   0.000  0.00  0.00    +0.000 C 
ATOM     10  C   UNL     1      12.146  -9.488   0.000  0.00  0.00    +0.000 C 
ATOM     11  C   UNL     1      12.861  -9.075   0.000  0.00  0.00    +0.000 C 
ATOM     12  C   UNL     1      13.575  -9.488   0.000  0.00  0.00    +0.000 C 
ATOM     13  N   UNL     1      14.289  -9.075   0.000  0.00  0.00    +0.000 N 
ATOM     14  C   UNL     1      14.702  -9.790   0.000  0.00  0.00    +0.000 C 
ATOM     15  C   UNL     1      13.877  -8.361   0.000  0.00  0.00    +0.000 C 
ATOM     16  C   UNL     1      15.004  -8.662   0.000  0.00  0.00    +0.000 C 
ATOM     17  C   UNL     1      15.718  -9.075   0.000  0.00  0.00    +0.000 C 
ATOM     18  O   UNL     1      16.433  -8.662   0.000  0.00  0.00    +0.000 OA
ATOM     19  C   UNL     1      17.147  -9.075   0.000  0.00  0.00    +0.000 A 
ATOM     20  C   UNL     1      17.862  -8.662   0.000  0.00  0.00    +0.000 A 
ATOM     21  C   UNL     1      18.576  -9.075   0.000  0.00  0.00    +0.000 A 
ATOM     22  C   UNL     1      18.576  -9.900   0.000  0.00  0.00    +0.000 A 
ATOM     23 CL   UNL     1      19.291 -10.312   0.000  0.00  0.00    +0.000 Cl
ATOM     24  C   UNL     1      17.862 -10.312   0.000  0.00  0.00    +0.000 A 
ATOM     25  C   UNL     1      17.147  -9.900   0.000  0.00  0.00    +0.000 A 
ENDROOT
TORSDOF 0
