ROOT
REMARK  Name = domitroban
REMARK                            x       y       z     vdW  Elec       q    Type
REMARK                         _______ _______ _______ _____ _____    ______ ____
ATOM      1  O   UNL     1      -3.572  -3.712   0.000  0.00  0.00    +0.000 OA
ATOM      2  C   UNL     1      -2.858  -3.300   0.000  0.00  0.00    +0.000 C 
ATOM      3  O   UNL     1      -2.143  -3.712   0.000  0.00  0.00    +0.000 OA
ATOM      4  C   UNL     1      -2.858  -2.475   0.000  0.00  0.00    +0.000 C 
ATOM      5  C   UNL     1      -2.143  -2.062   0.000  0.00  0.00    +0.000 C 
ATOM      6  C   UNL     1      -1.429  -2.475   0.000  0.00  0.00    +0.000 C 
ATOM      7  C   UNL     1      -1.429  -3.300   0.000  0.00  0.00    +0.000 C 
ATOM      8  C   UNL     1      -0.715  -3.712   0.000  0.00  0.00    +0.000 C 
ATOM      9  C   UNL     1       0.000  -3.300   0.000  0.00  0.00    +0.000 C 
ATOM     10  C   UNL     1       0.715  -3.712   0.000  0.00  0.00    +0.000 C 
ATOM     11  C   UNL     1       0.715  -4.537   0.000  0.00  0.00    +0.000 C 
ATOM     12  C   UNL     1       1.429  -4.950   0.000  0.00  0.00    +0.000 C 
ATOM     13  C   UNL     1       2.143  -4.537   0.000  0.00  0.00    +0.000 C 
ATOM     14  C   UNL     1       2.143  -3.712   0.000  0.00  0.00    +0.000 C 
ATOM     15  C   UNL     1       1.326  -3.946   0.000  0.00  0.00    +0.000 C 
ATOM     16  C   UNL     1       1.429  -3.300   0.000  0.00  0.00    +0.000 C 
ATOM     17  N   UNL     1       1.429  -2.475   0.000  0.00  0.00    +0.000 NA
ATOM     18  S   UNL     1       2.143  -2.062   0.000  0.00  0.00    +0.000 S 
ATOM     19  O   UNL     1       2.556  -2.777   0.000  0.00  0.00    +0.000 OA
ATOM     20  O   UNL     1       1.731  -1.348   0.000  0.00  0.00    +0.000 OA
ATOM     21  C   UNL     1       2.858  -1.650   0.000  0.00  0.00    +0.000 A 
ATOM     22  C   UNL     1       2.858  -0.825   0.000  0.00  0.00    +0.000 A 
ATOM     23  C   UNL     1       3.572  -0.412   0.000  0.00  0.00    +0.000 A 
ATOM     24  C   UNL     1       4.287  -0.825   0.000  0.00  0.00    +0.000 A 
ATOM     25  C   UNL     1       4.287  -1.650   0.000  0.00  0.00    +0.000 A 
ATOM     26  C   UNL     1       3.572  -2.062   0.000  0.00  0.00    +0.000 A 
ENDROOT
TORSDOF 0
