ROOT
REMARK  Name = dorzolamide
REMARK                            x       y       z     vdW  Elec       q    Type
REMARK                         _______ _______ _______ _____ _____    ______ ____
ATOM      1  C   UNL     1       3.993   3.300   0.000  0.00  0.00    +0.000 C 
ATOM      2  C   UNL     1       3.993   2.475   0.000  0.00  0.00    +0.000 C 
ATOM      3  N   UNL     1       3.279   2.062   0.000  0.00  0.00    +0.000 NA
ATOM      4  C   UNL     1       3.279   1.238   0.000  0.00  0.00    +0.000 C 
ATOM      5  C   UNL     1       3.993   0.825   0.000  0.00  0.00    +0.000 C 
ATOM      6  C   UNL     1       3.993   0.000   0.000  0.00  0.00    +0.000 C 
ATOM      7  C   UNL     1       4.708  -0.412   0.000  0.00  0.00    +0.000 C 
ATOM      8  S   UNL     1       3.279  -0.412   0.000  0.00  0.00    +0.000 S 
ATOM      9  O   UNL     1       3.809  -1.044   0.000  0.00  0.00    +0.000 OA
ATOM     10  O   UNL     1       2.749  -1.044   0.000  0.00  0.00    +0.000 OA
ATOM     11  C   UNL     1       2.564   0.000   0.000  0.00  0.00    +0.000 A 
ATOM     12  C   UNL     1       2.564   0.825   0.000  0.00  0.00    +0.000 A 
ATOM     13  C   UNL     1       1.780   1.080   0.000  0.00  0.00    +0.000 A 
ATOM     14  C   UNL     1       1.295   0.412   0.000  0.00  0.00    +0.000 A 
ATOM     15  S   UNL     1       1.780  -0.255   0.000  0.00  0.00    +0.000 S 
ATOM     16  S   UNL     1       0.470   0.412   0.000  0.00  0.00    +0.000 S 
ATOM     17  N   UNL     1      -0.355   0.412   0.000  0.00  0.00    +0.000 NA
ATOM     18  O   UNL     1       0.470   1.238   0.000  0.00  0.00    +0.000 OA
ATOM     19  O   UNL     1       0.470  -0.412   0.000  0.00  0.00    +0.000 OA
ENDROOT
TORSDOF 0
