ROOT
REMARK  Name = ebastine
REMARK                            x       y       z     vdW  Elec       q    Type
REMARK                         _______ _______ _______ _____ _____    ______ ____
ATOM      1  C   UNL     1      -6.430   2.888   0.000  0.00  0.00    +0.000 C 
ATOM      2  C   UNL     1      -6.430   2.062   0.000  0.00  0.00    +0.000 C 
ATOM      3  C   UNL     1      -7.255   2.062   0.000  0.00  0.00    +0.000 C 
ATOM      4  C   UNL     1      -5.605   2.062   0.000  0.00  0.00    +0.000 C 
ATOM      5  C   UNL     1      -6.430   1.238   0.000  0.00  0.00    +0.000 A 
ATOM      6  C   UNL     1      -5.716   0.825   0.000  0.00  0.00    +0.000 A 
ATOM      7  C   UNL     1      -5.716   0.000   0.000  0.00  0.00    +0.000 A 
ATOM      8  C   UNL     1      -6.430  -0.412   0.000  0.00  0.00    +0.000 A 
ATOM      9  C   UNL     1      -7.145   0.000   0.000  0.00  0.00    +0.000 A 
ATOM     10  C   UNL     1      -7.145   0.825   0.000  0.00  0.00    +0.000 A 
ATOM     11  C   UNL     1      -6.430  -1.238   0.000  0.00  0.00    +0.000 C 
ATOM     12  O   UNL     1      -7.145  -1.650   0.000  0.00  0.00    +0.000 OA
ATOM     13  C   UNL     1      -5.716  -1.650   0.000  0.00  0.00    +0.000 C 
ATOM     14  C   UNL     1      -5.716  -2.475   0.000  0.00  0.00    +0.000 C 
ATOM     15  C   UNL     1      -5.001  -2.888   0.000  0.00  0.00    +0.000 C 
ATOM     16  N   UNL     1      -5.001  -3.712   0.000  0.00  0.00    +0.000 NA
ATOM     17  C   UNL     1      -4.287  -4.125   0.000  0.00  0.00    +0.000 C 
ATOM     18  C   UNL     1      -4.287  -4.950   0.000  0.00  0.00    +0.000 C 
ATOM     19  C   UNL     1      -5.001  -5.362   0.000  0.00  0.00    +0.000 C 
ATOM     20  C   UNL     1      -5.716  -4.950   0.000  0.00  0.00    +0.000 C 
ATOM     21  C   UNL     1      -5.716  -4.125   0.000  0.00  0.00    +0.000 C 
ATOM     22  O   UNL     1      -5.001  -6.188   0.000  0.00  0.00    +0.000 OA
ATOM     23  C   UNL     1      -4.287  -6.600   0.000  0.00  0.00    +0.000 C 
ATOM     24  C   UNL     1      -4.287  -7.425   0.000  0.00  0.00    +0.000 A 
ATOM     25  C   UNL     1      -3.572  -7.838   0.000  0.00  0.00    +0.000 A 
ATOM     26  C   UNL     1      -3.572  -8.662   0.000  0.00  0.00    +0.000 A 
ATOM     27  C   UNL     1      -4.287  -9.075   0.000  0.00  0.00    +0.000 A 
ATOM     28  C   UNL     1      -5.001  -8.662   0.000  0.00  0.00    +0.000 A 
ATOM     29  C   UNL     1      -5.001  -7.838   0.000  0.00  0.00    +0.000 A 
ATOM     30  C   UNL     1      -3.572  -6.188   0.000  0.00  0.00    +0.000 A 
ATOM     31  C   UNL     1      -3.572  -5.362   0.000  0.00  0.00    +0.000 A 
ATOM     32  C   UNL     1      -2.858  -4.950   0.000  0.00  0.00    +0.000 A 
ATOM     33  C   UNL     1      -2.143  -5.362   0.000  0.00  0.00    +0.000 A 
ATOM     34  C   UNL     1      -2.143  -6.188   0.000  0.00  0.00    +0.000 A 
ATOM     35  C   UNL     1      -2.858  -6.600   0.000  0.00  0.00    +0.000 A 
ENDROOT
TORSDOF 0
