ROOT
REMARK  Name = efavirenz
REMARK                            x       y       z     vdW  Elec       q    Type
REMARK                         _______ _______ _______ _____ _____    ______ ____
ATOM      1  F   UNL     1      -1.061   1.264   0.000  0.00  0.00    +0.000 F 
ATOM      2  C   UNL     1      -0.530   0.632   0.000  0.00  0.00    +0.000 C 
ATOM      3  F   UNL     1       0.102   1.162   0.000  0.00  0.00    +0.000 F 
ATOM      4  F   UNL     1      -1.162   0.102   0.000  0.00  0.00    +0.000 F 
ATOM      5  C   UNL     1       0.000   0.000   0.000  0.00  0.00    +0.000 C 
ATOM      6  O   UNL     1      -0.715  -0.412   0.000  0.00  0.00    +0.000 OA
ATOM      7  C   UNL     1      -0.715  -1.238   0.000  0.00  0.00    +0.000 C 
ATOM      8  O   UNL     1      -1.429  -1.650   0.000  0.00  0.00    +0.000 OA
ATOM      9  N   UNL     1       0.000  -1.650   0.000  0.00  0.00    +0.000 NA
ATOM     10  C   UNL     1       0.715  -1.238   0.000  0.00  0.00    +0.000 A 
ATOM     11  C   UNL     1       0.715  -0.412   0.000  0.00  0.00    +0.000 A 
ATOM     12  C   UNL     1       1.429   0.000   0.000  0.00  0.00    +0.000 A 
ATOM     13  C   UNL     1       2.143  -0.412   0.000  0.00  0.00    +0.000 A 
ATOM     14 CL   UNL     1       2.858   0.000   0.000  0.00  0.00    +0.000 Cl
ATOM     15  C   UNL     1       2.143  -1.238   0.000  0.00  0.00    +0.000 A 
ATOM     16  C   UNL     1       1.429  -1.650   0.000  0.00  0.00    +0.000 A 
ATOM     17  C   UNL     1       0.530   0.632   0.000  0.00  0.00    +0.000 C 
ATOM     18  C   UNL     1       1.061   1.264   0.000  0.00  0.00    +0.000 C 
ATOM     19  C   UNL     1       1.591   1.896   0.000  0.00  0.00    +0.000 C 
ATOM     20  C   UNL     1       1.734   2.708   0.000  0.00  0.00    +0.000 C 
ATOM     21  C   UNL     1       2.366   2.178   0.000  0.00  0.00    +0.000 C 
ENDROOT
TORSDOF 0
