ROOT
REMARK  Name = enprostil
REMARK                            x       y       z     vdW  Elec       q    Type
REMARK                         _______ _______ _______ _____ _____    ______ ____
ATOM      1  C   UNL     1      -0.423  -9.575   0.000  0.00  0.00    +0.000 C 
ATOM      2  O   UNL     1       0.292  -9.162   0.000  0.00  0.00    +0.000 OA
ATOM      3  C   UNL     1       1.006  -9.575   0.000  0.00  0.00    +0.000 C 
ATOM      4  O   UNL     1       1.006 -10.399   0.000  0.00  0.00    +0.000 OA
ATOM      5  C   UNL     1       1.721  -9.162   0.000  0.00  0.00    +0.000 C 
ATOM      6  C   UNL     1       2.435  -9.575   0.000  0.00  0.00    +0.000 C 
ATOM      7  C   UNL     1       3.150  -9.162   0.000  0.00  0.00    +0.000 C 
ATOM      8  C   UNL     1       3.864  -9.575   0.000  0.00  0.00    +0.000 C 
ATOM      9  C   UNL     1       4.579  -9.987   0.000  0.00  0.00    +0.000 C 
ATOM     10  C   UNL     1       5.293  -9.575   0.000  0.00  0.00    +0.000 C 
ATOM     11  C   UNL     1       6.008  -9.987   0.000  0.00  0.00    +0.000 C 
ATOM     12  C   UNL     1       6.761  -9.652   0.000  0.00  0.00    +0.000 C 
ATOM     13  C   UNL     1       6.933  -8.845   0.000  0.00  0.00    +0.000 C 
ATOM     14  C   UNL     1       7.717  -8.590   0.000  0.00  0.00    +0.000 C 
ATOM     15  C   UNL     1       7.889  -7.783   0.000  0.00  0.00    +0.000 C 
ATOM     16  O   UNL     1       7.276  -7.231   0.000  0.00  0.00    +0.000 OA
ATOM     17  C   UNL     1       8.674  -7.528   0.000  0.00  0.00    +0.000 C 
ATOM     18  O   UNL     1       8.845  -6.721   0.000  0.00  0.00    +0.000 OA
ATOM     19  C   UNL     1       9.630  -6.466   0.000  0.00  0.00    +0.000 A 
ATOM     20  C   UNL     1       9.801  -5.659   0.000  0.00  0.00    +0.000 A 
ATOM     21  C   UNL     1      10.586  -5.404   0.000  0.00  0.00    +0.000 A 
ATOM     22  C   UNL     1      11.199  -5.956   0.000  0.00  0.00    +0.000 A 
ATOM     23  C   UNL     1      11.027  -6.763   0.000  0.00  0.00    +0.000 A 
ATOM     24  C   UNL     1      10.243  -7.018   0.000  0.00  0.00    +0.000 A 
ATOM     25  C   UNL     1       7.313 -10.265   0.000  0.00  0.00    +0.000 C 
ATOM     26  O   UNL     1       8.134 -10.178   0.000  0.00  0.00    +0.000 OA
ATOM     27  C   UNL     1       6.901 -10.979   0.000  0.00  0.00    +0.000 C 
ATOM     28  C   UNL     1       6.094 -10.807   0.000  0.00  0.00    +0.000 C 
ATOM     29  O   UNL     1       5.481 -11.360   0.000  0.00  0.00    +0.000 OA
ENDROOT
TORSDOF 0
