ROOT
REMARK  Name = epoprostenol
REMARK                            x       y       z     vdW  Elec       q    Type
REMARK                         _______ _______ _______ _____ _____    ______ ____
ATOM      1  C   UNL     1       6.271   1.503   0.000  0.00  0.00    +0.000 C 
ATOM      2  C   UNL     1       6.985   1.091   0.000  0.00  0.00    +0.000 C 
ATOM      3  C   UNL     1       7.699   1.503   0.000  0.00  0.00    +0.000 C 
ATOM      4  C   UNL     1       8.414   1.091   0.000  0.00  0.00    +0.000 C 
ATOM      5  C   UNL     1       9.128   1.503   0.000  0.00  0.00    +0.000 C 
ATOM      6  C   UNL     1       9.843   1.091   0.000  0.00  0.00    +0.000 C 
ATOM      7  O   UNL     1       9.843   0.266   0.000  0.00  0.00    +0.000 OA
ATOM      8  C   UNL     1      10.557   1.503   0.000  0.00  0.00    +0.000 C 
ATOM      9  C   UNL     1      11.272   1.091   0.000  0.00  0.00    +0.000 C 
ATOM     10  C   UNL     1      11.986   1.503   0.000  0.00  0.00    +0.000 C 
ATOM     11  C   UNL     1      12.072   2.324   0.000  0.00  0.00    +0.000 C 
ATOM     12  O   UNL     1      11.459   2.876   0.000  0.00  0.00    +0.000 OA
ATOM     13  C   UNL     1      12.880   2.495   0.000  0.00  0.00    +0.000 C 
ATOM     14  C   UNL     1      13.292   1.781   0.000  0.00  0.00    +0.000 C 
ATOM     15  O   UNL     1      14.046   1.445   0.000  0.00  0.00    +0.000 OA
ATOM     16  C   UNL     1      13.959   0.625   0.000  0.00  0.00    +0.000 C 
ATOM     17  C   UNL     1      13.152   0.453   0.000  0.00  0.00    +0.000 C 
ATOM     18  C   UNL     1      12.740   1.167   0.000  0.00  0.00    +0.000 C 
ATOM     19  C   UNL     1      14.572   0.072   0.000  0.00  0.00    +0.000 C 
ATOM     20  C   UNL     1      15.357   0.328   0.000  0.00  0.00    +0.000 C 
ATOM     21  C   UNL     1      15.970  -0.225   0.000  0.00  0.00    +0.000 C 
ATOM     22  C   UNL     1      16.755   0.030   0.000  0.00  0.00    +0.000 C 
ATOM     23  C   UNL     1      17.368  -0.522   0.000  0.00  0.00    +0.000 C 
ATOM     24  O   UNL     1      18.152  -0.267   0.000  0.00  0.00    +0.000 OA
ATOM     25  O   UNL     1      17.196  -1.329   0.000  0.00  0.00    +0.000 OA
ENDROOT
TORSDOF 0
