ROOT
REMARK  Name = epsiprantel
REMARK                            x       y       z     vdW  Elec       q    Type
REMARK                         _______ _______ _______ _____ _____    ______ ____
ATOM      1  O   UNL     1       4.817   1.912   0.000  0.00  0.00    +0.000 OA
ATOM      2  C   UNL     1       5.331   1.267   0.000  0.00  0.00    +0.000 C 
ATOM      3  C   UNL     1       6.147   1.390   0.000  0.00  0.00    +0.000 C 
ATOM      4  C   UNL     1       6.449   2.158   0.000  0.00  0.00    +0.000 C 
ATOM      5  C   UNL     1       7.264   2.281   0.000  0.00  0.00    +0.000 C 
ATOM      6  C   UNL     1       7.779   1.636   0.000  0.00  0.00    +0.000 C 
ATOM      7  C   UNL     1       7.477   0.868   0.000  0.00  0.00    +0.000 C 
ATOM      8  C   UNL     1       6.662   0.745   0.000  0.00  0.00    +0.000 C 
ATOM      9  N   UNL     1       5.030   0.499   0.000  0.00  0.00    +0.000 N 
ATOM     10  C   UNL     1       4.214   0.376   0.000  0.00  0.00    +0.000 C 
ATOM     11  C   UNL     1       3.913  -0.392   0.000  0.00  0.00    +0.000 C 
ATOM     12  N   UNL     1       4.427  -1.037   0.000  0.00  0.00    +0.000 N 
ATOM     13  C   UNL     1       4.244  -1.841   0.000  0.00  0.00    +0.000 C 
ATOM     14  C   UNL     1       3.500  -2.199   0.000  0.00  0.00    +0.000 C 
ATOM     15  C   UNL     1       2.757  -1.841   0.000  0.00  0.00    +0.000 C 
ATOM     16  C   UNL     1       2.573  -1.037   0.000  0.00  0.00    +0.000 A 
ATOM     17  C   UNL     1       3.088  -0.392   0.000  0.00  0.00    +0.000 A 
ATOM     18  C   UNL     1       2.786   0.376   0.000  0.00  0.00    +0.000 A 
ATOM     19  C   UNL     1       1.971   0.499   0.000  0.00  0.00    +0.000 A 
ATOM     20  C   UNL     1       1.456  -0.146   0.000  0.00  0.00    +0.000 A 
ATOM     21  C   UNL     1       1.758  -0.914   0.000  0.00  0.00    +0.000 A 
ATOM     22  C   UNL     1       5.243  -0.914   0.000  0.00  0.00    +0.000 C 
ATOM     23  O   UNL     1       5.757  -1.559   0.000  0.00  0.00    +0.000 OA
ATOM     24  C   UNL     1       5.544  -0.146   0.000  0.00  0.00    +0.000 C 
ENDROOT
TORSDOF 0
