ROOT
REMARK  Name = eravacycline dihydrochloride
REMARK                            x       y       z     vdW  Elec       q    Type
REMARK                         _______ _______ _______ _____ _____    ______ ____
ATOM      1  C   UNL     1      -2.143  -5.362   0.000  0.00  0.00    +0.000 C 
ATOM      2  N   UNL     1      -1.429  -4.950   0.000  0.00  0.00    +0.000 NA
ATOM      3  C   UNL     1      -0.715  -5.362   0.000  0.00  0.00    +0.000 C 
ATOM      4  C   UNL     1      -1.429  -4.125   0.000  0.00  0.00    +0.000 C 
ATOM      5  C   UNL     1      -0.715  -3.712   0.000  0.00  0.00    +0.000 C 
ATOM      6  C   UNL     1       0.000  -4.125   0.000  0.00  0.00    +0.000 C 
ATOM      7  C   UNL     1       0.715  -3.712   0.000  0.00  0.00    +0.000 C 
ATOM      8  C   UNL     1       1.429  -4.125   0.000  0.00  0.00    +0.000 C 
ATOM      9  C   UNL     1       2.143  -3.712   0.000  0.00  0.00    +0.000 A 
ATOM     10  C   UNL     1       2.143  -2.888   0.000  0.00  0.00    +0.000 A 
ATOM     11  C   UNL     1       2.858  -2.475   0.000  0.00  0.00    +0.000 A 
ATOM     12  O   UNL     1       2.858  -1.650   0.000  0.00  0.00    +0.000 OA
ATOM     13  C   UNL     1       3.572  -2.888   0.000  0.00  0.00    +0.000 A 
ATOM     14  N   UNL     1       4.287  -2.475   0.000  0.00  0.00    +0.000 NA
ATOM     15  C   UNL     1       5.001  -2.888   0.000  0.00  0.00    +0.000 C 
ATOM     16  O   UNL     1       5.001  -3.712   0.000  0.00  0.00    +0.000 OA
ATOM     17  C   UNL     1       5.716  -2.475   0.000  0.00  0.00    +0.000 C 
ATOM     18  N   UNL     1       6.430  -2.888   0.000  0.00  0.00    +0.000 NA
ATOM     19  C   UNL     1       7.184  -2.552   0.000  0.00  0.00    +0.000 C 
ATOM     20  C   UNL     1       7.736  -3.165   0.000  0.00  0.00    +0.000 C 
ATOM     21  C   UNL     1       7.323  -3.880   0.000  0.00  0.00    +0.000 C 
ATOM     22  C   UNL     1       6.516  -3.708   0.000  0.00  0.00    +0.000 C 
ATOM     23  C   UNL     1       3.572  -3.712   0.000  0.00  0.00    +0.000 A 
ATOM     24  C   UNL     1       2.858  -4.125   0.000  0.00  0.00    +0.000 A 
ATOM     25  F   UNL     1       2.858  -4.950   0.000  0.00  0.00    +0.000 F 
ATOM     26  C   UNL     1       1.429  -2.475   0.000  0.00  0.00    +0.000 C 
ATOM     27  O   UNL     1       1.429  -1.650   0.000  0.00  0.00    +0.000 OA
ATOM     28  C   UNL     1       0.715  -2.888   0.000  0.00  0.00    +0.000 C 
ATOM     29  C   UNL     1       0.000  -2.475   0.000  0.00  0.00    +0.000 C 
ATOM     30  O   UNL     1       0.000  -1.650   0.000  0.00  0.00    +0.000 OA
ATOM     31  C   UNL     1      -0.715  -2.888   0.000  0.00  0.00    +0.000 C 
ATOM     32  O   UNL     1      -0.715  -2.062   0.000  0.00  0.00    +0.000 OA
ATOM     33  C   UNL     1      -1.429  -2.475   0.000  0.00  0.00    +0.000 C 
ATOM     34  O   UNL     1      -1.429  -1.650   0.000  0.00  0.00    +0.000 OA
ATOM     35  C   UNL     1      -2.143  -2.888   0.000  0.00  0.00    +0.000 C 
ATOM     36  C   UNL     1      -2.858  -2.475   0.000  0.00  0.00    +0.000 C 
ATOM     37  N   UNL     1      -3.572  -2.888   0.000  0.00  0.00    +0.000 NA
ATOM     38  O   UNL     1      -2.858  -1.650   0.000  0.00  0.00    +0.000 OA
ATOM     39  C   UNL     1      -2.143  -3.712   0.000  0.00  0.00    +0.000 C 
ATOM     40  O   UNL     1      -2.858  -4.125   0.000  0.00  0.00    +0.000 OA
ENDROOT
TORSDOF 0
