ROOT
REMARK  Name = ergometrine
REMARK                            x       y       z     vdW  Elec       q    Type
REMARK                         _______ _______ _______ _____ _____    ______ ____
ATOM      1  CB  ALA A   1       6.137   2.062   0.000  0.00  0.00    +0.000 C 
ATOM      2  CA  ALA A   1       5.422   2.475   0.000  0.00  0.00    +0.000 C 
ATOM      3  C   ALA A   1       5.422   3.300   0.000  0.00  0.00    +0.000 C 
ATOM      4  O   ALA A   1       6.137   3.712   0.000  0.00  0.00    +0.000 OA
ATOM      5  N   ALA A   1       4.708   2.062   0.000  0.00  0.00    +0.000 NA
ATOM      6  C   UNK A   0       4.708   1.238   0.000  0.00  0.00    +0.000 C 
ATOM      7  O   UNK A   0       5.422   0.825   0.000  0.00  0.00    +0.000 OA
ATOM      8  C   UNK A   0       3.993   0.825   0.000  0.00  0.00    +0.000 C 
ATOM      9  C   UNK A   0       3.993   0.000   0.000  0.00  0.00    +0.000 C 
ATOM     10  N   UNK A   0       3.279  -0.412   0.000  0.00  0.00    +0.000 NA
ATOM     11  C   UNK A   0       3.279  -1.238   0.000  0.00  0.00    +0.000 C 
ATOM     12  C   UNK A   0       2.564   0.000   0.000  0.00  0.00    +0.000 C 
ATOM     13  C   UNK A   0       1.850  -0.412   0.000  0.00  0.00    +0.000 C 
ATOM     14  C   UNK A   0       1.135   0.000   0.000  0.00  0.00    +0.000 C 
ATOM     15  C   UNK A   0       0.351  -0.255   0.000  0.00  0.00    +0.000 C 
ATOM     16  N   UNK A   0      -0.134   0.412   0.000  0.00  0.00    +0.000 NA
ATOM     17  C   UNK A   0       0.351   1.080   0.000  0.00  0.00    +0.000 C 
ATOM     18  C   UNK A   0       0.179   1.887   0.000  0.00  0.00    +0.000 C 
ATOM     19  C   UNK A   0       0.792   2.439   0.000  0.00  0.00    +0.000 C 
ATOM     20  C   UNK A   0       1.577   2.184   0.000  0.00  0.00    +0.000 C 
ATOM     21  C   UNK A   0       1.850   1.238   0.000  0.00  0.00    +0.000 C 
ATOM     22  C   UNK A   0       1.135   0.825   0.000  0.00  0.00    +0.000 C 
ATOM     23  C   UNK A   0       2.564   0.825   0.000  0.00  0.00    +0.000 C 
ATOM     24  C   UNK A   0       3.279   1.238   0.000  0.00  0.00    +0.000 C 
ENDROOT
TORSDOF 0
