ROOT
REMARK  Name = ertapenem
REMARK                            x       y       z     vdW  Elec       q    Type
REMARK                         _______ _______ _______ _____ _____    ______ ____
ATOM      1  C   UNL     1      -0.432   0.619   0.000  0.00  0.00    +0.000 C 
ATOM      2  C   UNL     1       0.365   0.832   0.000  0.00  0.00    +0.000 C 
ATOM      3  O   UNL     1       0.579   1.629   0.000  0.00  0.00    +0.000 OA
ATOM      4  C   UNL     1       0.948   0.249   0.000  0.00  0.00    +0.000 C 
ATOM      5  C   UNL     1       1.773   0.249   0.000  0.00  0.00    +0.000 C 
ATOM      6  C   UNL     1       2.558   0.504   0.000  0.00  0.00    +0.000 C 
ATOM      7  C   UNL     1       2.813   1.288   0.000  0.00  0.00    +0.000 C 
ATOM      8  C   UNL     1       3.043  -0.164   0.000  0.00  0.00    +0.000 C 
ATOM      9  S   UNL     1       3.868  -0.164   0.000  0.00  0.00    +0.000 S 
ATOM     10  C   UNL     1       4.280   0.551   0.000  0.00  0.00    +0.000 C 
ATOM     11  C   UNL     1       3.945   1.304   0.000  0.00  0.00    +0.000 C 
ATOM     12  N   UNL     1       4.558   1.857   0.000  0.00  0.00    +0.000 NA
ATOM     13  C   UNL     1       5.272   1.444   0.000  0.00  0.00    +0.000 C 
ATOM     14  C   UNL     1       5.101   0.637   0.000  0.00  0.00    +0.000 C 
ATOM     15  C   UNL     1       6.026   1.780   0.000  0.00  0.00    +0.000 C 
ATOM     16  O   UNL     1       6.694   1.295   0.000  0.00  0.00    +0.000 OA
ATOM     17  N   UNL     1       6.112   2.600   0.000  0.00  0.00    +0.000 NA
ATOM     18  C   UNL     1       6.866   2.936   0.000  0.00  0.00    +0.000 A 
ATOM     19  C   UNL     1       6.952   3.756   0.000  0.00  0.00    +0.000 A 
ATOM     20  C   UNL     1       7.706   4.092   0.000  0.00  0.00    +0.000 A 
ATOM     21  C   UNL     1       8.373   3.607   0.000  0.00  0.00    +0.000 A 
ATOM     22  C   UNL     1       8.287   2.786   0.000  0.00  0.00    +0.000 A 
ATOM     23  C   UNL     1       7.533   2.451   0.000  0.00  0.00    +0.000 A 
ATOM     24  C   UNL     1       7.792   4.912   0.000  0.00  0.00    +0.000 C 
ATOM     25  O   UNL     1       8.546   5.248   0.000  0.00  0.00    +0.000 OA
ATOM     26  O   UNL     1       7.125   5.397   0.000  0.00  0.00    +0.000 OA
ATOM     27  C   UNL     1       2.558  -0.831   0.000  0.00  0.00    +0.000 C 
ATOM     28  N   UNL     1       1.773  -0.576   0.000  0.00  0.00    +0.000 N 
ATOM     29  C   UNL     1       0.948  -0.576   0.000  0.00  0.00    +0.000 C 
ATOM     30  O   UNL     1       0.365  -1.159   0.000  0.00  0.00    +0.000 OA
ATOM     31  C   UNL     1       2.813  -1.616   0.000  0.00  0.00    +0.000 C 
ATOM     32  O   UNL     1       2.261  -2.229   0.000  0.00  0.00    +0.000 OA
ATOM     33  O   UNL     1       3.620  -1.787   0.000  0.00  0.00    +0.000 OA
ENDROOT
TORSDOF 0
