ROOT
REMARK  Name = estradiol enanthate
REMARK                            x       y       z     vdW  Elec       q    Type
REMARK                         _______ _______ _______ _____ _____    ______ ____
ATOM      1  C   UNL     1      -8.355  -3.355   0.000  0.00  0.00    +0.000 C 
ATOM      2  C   UNL     1      -7.641  -2.943   0.000  0.00  0.00    +0.000 C 
ATOM      3  C   UNL     1      -6.926  -3.355   0.000  0.00  0.00    +0.000 C 
ATOM      4  C   UNL     1      -6.212  -2.943   0.000  0.00  0.00    +0.000 C 
ATOM      5  C   UNL     1      -5.497  -3.355   0.000  0.00  0.00    +0.000 C 
ATOM      6  C   UNL     1      -4.783  -2.943   0.000  0.00  0.00    +0.000 C 
ATOM      7  C   UNL     1      -4.068  -3.355   0.000  0.00  0.00    +0.000 C 
ATOM      8  O   UNL     1      -4.068  -4.180   0.000  0.00  0.00    +0.000 OA
ATOM      9  O   UNL     1      -3.354  -2.943   0.000  0.00  0.00    +0.000 OA
ATOM     10  C   UNL     1      -2.639  -3.355   0.000  0.00  0.00    +0.000 C 
ATOM     11  C   UNL     1      -2.553  -4.176   0.000  0.00  0.00    +0.000 C 
ATOM     12  C   UNL     1      -1.746  -4.347   0.000  0.00  0.00    +0.000 C 
ATOM     13  C   UNL     1      -1.333  -3.633   0.000  0.00  0.00    +0.000 C 
ATOM     14  C   UNL     1      -0.526  -3.461   0.000  0.00  0.00    +0.000 C 
ATOM     15  C   UNL     1       0.025  -4.074   0.000  0.00  0.00    +0.000 C 
ATOM     16  C   UNL     1       0.833  -3.903   0.000  0.00  0.00    +0.000 C 
ATOM     17  C   UNL     1       1.087  -3.118   0.000  0.00  0.00    +0.000 A 
ATOM     18  C   UNL     1       0.535  -2.505   0.000  0.00  0.00    +0.000 A 
ATOM     19  C   UNL     1       0.790  -1.720   0.000  0.00  0.00    +0.000 A 
ATOM     20  C   UNL     1       1.597  -1.549   0.000  0.00  0.00    +0.000 A 
ATOM     21  C   UNL     1       2.149  -2.162   0.000  0.00  0.00    +0.000 A 
ATOM     22  O   UNL     1       2.956  -1.990   0.000  0.00  0.00    +0.000 OA
ATOM     23  C   UNL     1       1.894  -2.947   0.000  0.00  0.00    +0.000 A 
ATOM     24  C   UNL     1      -0.272  -2.677   0.000  0.00  0.00    +0.000 C 
ATOM     25  C   UNL     1      -0.824  -2.063   0.000  0.00  0.00    +0.000 C 
ATOM     26  C   UNL     1      -1.631  -2.235   0.000  0.00  0.00    +0.000 C 
ATOM     27  C   UNL     1      -1.885  -3.020   0.000  0.00  0.00    +0.000 C 
ATOM     28  C   UNL     1      -2.499  -2.468   0.000  0.00  0.00    +0.000 C 
ENDROOT
TORSDOF 0
