ROOT
REMARK  Name = etoglucid
REMARK                            x       y       z     vdW  Elec       q    Type
REMARK                         _______ _______ _______ _____ _____    ______ ____
ATOM      1  C   UNL     1      11.299   3.572   0.000  0.00  0.00    +0.000 C 
ATOM      2  C   UNL     1      10.585   3.985   0.000  0.00  0.00    +0.000 C 
ATOM      3  O   UNL     1       9.870   3.572   0.000  0.00  0.00    +0.000 OA
ATOM      4  C   UNL     1       9.156   3.985   0.000  0.00  0.00    +0.000 C 
ATOM      5  C   UNL     1       8.441   3.572   0.000  0.00  0.00    +0.000 C 
ATOM      6  O   UNL     1       7.727   3.985   0.000  0.00  0.00    +0.000 OA
ATOM      7  C   UNL     1       7.013   3.572   0.000  0.00  0.00    +0.000 C 
ATOM      8  C   UNL     1       6.298   3.985   0.000  0.00  0.00    +0.000 C 
ATOM      9  C   UNL     1       5.473   3.985   0.000  0.00  0.00    +0.000 C 
ATOM     10  O   UNL     1       5.886   4.699   0.000  0.00  0.00    +0.000 OA
ATOM     11  O   UNL     1      12.014   3.985   0.000  0.00  0.00    +0.000 OA
ATOM     12  C   UNL     1      12.728   3.572   0.000  0.00  0.00    +0.000 C 
ATOM     13  C   UNL     1      13.443   3.985   0.000  0.00  0.00    +0.000 C 
ATOM     14  O   UNL     1      14.157   3.572   0.000  0.00  0.00    +0.000 OA
ATOM     15  C   UNL     1      14.872   3.985   0.000  0.00  0.00    +0.000 C 
ATOM     16  C   UNL     1      15.586   3.572   0.000  0.00  0.00    +0.000 C 
ATOM     17  C   UNL     1      16.411   3.572   0.000  0.00  0.00    +0.000 C 
ATOM     18  O   UNL     1      15.999   2.858   0.000  0.00  0.00    +0.000 OA
ENDROOT
TORSDOF 0
