ROOT
REMARK  Name = etynodiol
REMARK                            x       y       z     vdW  Elec       q    Type
REMARK                         _______ _______ _______ _____ _____    ______ ____
ATOM      1  C   UNL     1      -2.002  -3.274   0.000  0.00  0.00    +0.000 C 
ATOM      2  C   UNL     1      -1.190  -3.129   0.000  0.00  0.00    +0.000 C 
ATOM      3  O   UNL     1      -0.658  -3.760   0.000  0.00  0.00    +0.000 OA
ATOM      4  O   UNL     1      -0.910  -2.353   0.000  0.00  0.00    +0.000 OA
ATOM      5  C   UNL     1      -0.098  -2.208   0.000  0.00  0.00    +0.000 C 
ATOM      6  C   UNL     1       0.183  -1.432   0.000  0.00  0.00    +0.000 C 
ATOM      7  C   UNL     1       0.995  -1.287   0.000  0.00  0.00    +0.000 C 
ATOM      8  C   UNL     1       1.527  -1.917   0.000  0.00  0.00    +0.000 C 
ATOM      9  C   UNL     1       2.339  -1.772   0.000  0.00  0.00    +0.000 C 
ATOM     10  C   UNL     1       2.619  -0.996   0.000  0.00  0.00    +0.000 C 
ATOM     11  C   UNL     1       3.431  -0.851   0.000  0.00  0.00    +0.000 C 
ATOM     12  C   UNL     1       3.963  -1.482   0.000  0.00  0.00    +0.000 C 
ATOM     13  C   UNL     1       4.323  -0.739   0.000  0.00  0.00    +0.000 C 
ATOM     14  C   UNL     1       3.683  -2.258   0.000  0.00  0.00    +0.000 C 
ATOM     15  C   UNL     1       4.334  -2.764   0.000  0.00  0.00    +0.000 C 
ATOM     16  C   UNL     1       5.017  -2.301   0.000  0.00  0.00    +0.000 C 
ATOM     17  C   UNL     1       4.787  -1.508   0.000  0.00  0.00    +0.000 C 
ATOM     18  O   UNL     1       5.548  -1.190   0.000  0.00  0.00    +0.000 OA
ATOM     19  C   UNL     1       6.205  -1.689   0.000  0.00  0.00    +0.000 C 
ATOM     20  C   UNL     1       6.966  -1.370   0.000  0.00  0.00    +0.000 C 
ATOM     21  O   UNL     1       6.101  -2.507   0.000  0.00  0.00    +0.000 OA
ATOM     22  C   UNL     1       4.909  -0.692   0.000  0.00  0.00    +0.000 C 
ATOM     23  C   UNL     1       5.030   0.124   0.000  0.00  0.00    +0.000 C 
ATOM     24  C   UNL     1       2.870  -2.403   0.000  0.00  0.00    +0.000 C 
ATOM     25  C   UNL     1       2.590  -3.179   0.000  0.00  0.00    +0.000 C 
ATOM     26  C   UNL     1       1.778  -3.324   0.000  0.00  0.00    +0.000 C 
ATOM     27  C   UNL     1       1.246  -2.693   0.000  0.00  0.00    +0.000 C 
ATOM     28  C   UNL     1       0.434  -2.838   0.000  0.00  0.00    +0.000 C 
ENDROOT
TORSDOF 0
