ROOT
REMARK  Name = ezetimibe
REMARK                            x       y       z     vdW  Elec       q    Type
REMARK                         _______ _______ _______ _____ _____    ______ ____
ATOM      1  O   UNL     1       2.649  -0.121   0.000  0.00  0.00    +0.000 OA
ATOM      2  C   UNL     1       3.363  -0.533   0.000  0.00  0.00    +0.000 C 
ATOM      3  C   UNL     1       3.363  -1.358   0.000  0.00  0.00    +0.000 C 
ATOM      4  C   UNL     1       2.649  -1.771   0.000  0.00  0.00    +0.000 C 
ATOM      5  C   UNL     1       2.649  -2.596   0.000  0.00  0.00    +0.000 C 
ATOM      6  C   UNL     1       3.232  -3.179   0.000  0.00  0.00    +0.000 C 
ATOM      7  N   UNL     1       2.649  -3.763   0.000  0.00  0.00    +0.000 N 
ATOM      8  C   UNL     1       2.065  -3.179   0.000  0.00  0.00    +0.000 C 
ATOM      9  O   UNL     1       1.240  -3.179   0.000  0.00  0.00    +0.000 OA
ATOM     10  C   UNL     1       2.649  -4.588   0.000  0.00  0.00    +0.000 A 
ATOM     11  C   UNL     1       3.363  -5.000   0.000  0.00  0.00    +0.000 A 
ATOM     12  C   UNL     1       3.363  -5.825   0.000  0.00  0.00    +0.000 A 
ATOM     13  C   UNL     1       2.649  -6.237   0.000  0.00  0.00    +0.000 A 
ATOM     14  F   UNL     1       2.649  -7.062   0.000  0.00  0.00    +0.000 F 
ATOM     15  C   UNL     1       1.934  -5.825   0.000  0.00  0.00    +0.000 A 
ATOM     16  C   UNL     1       1.934  -5.000   0.000  0.00  0.00    +0.000 A 
ATOM     17  C   UNL     1       4.057  -3.179   0.000  0.00  0.00    +0.000 A 
ATOM     18  C   UNL     1       4.470  -2.465   0.000  0.00  0.00    +0.000 A 
ATOM     19  C   UNL     1       5.295  -2.465   0.000  0.00  0.00    +0.000 A 
ATOM     20  C   UNL     1       5.707  -3.179   0.000  0.00  0.00    +0.000 A 
ATOM     21  O   UNL     1       6.532  -3.179   0.000  0.00  0.00    +0.000 OA
ATOM     22  C   UNL     1       5.295  -3.894   0.000  0.00  0.00    +0.000 A 
ATOM     23  C   UNL     1       4.470  -3.894   0.000  0.00  0.00    +0.000 A 
ATOM     24  C   UNL     1       4.078  -0.121   0.000  0.00  0.00    +0.000 A 
ATOM     25  C   UNL     1       4.078   0.704   0.000  0.00  0.00    +0.000 A 
ATOM     26  C   UNL     1       4.792   1.117   0.000  0.00  0.00    +0.000 A 
ATOM     27  C   UNL     1       5.506   0.704   0.000  0.00  0.00    +0.000 A 
ATOM     28  F   UNL     1       6.221   1.117   0.000  0.00  0.00    +0.000 F 
ATOM     29  C   UNL     1       5.506  -0.121   0.000  0.00  0.00    +0.000 A 
ATOM     30  C   UNL     1       4.792  -0.533   0.000  0.00  0.00    +0.000 A 
ENDROOT
TORSDOF 0
