ROOT
REMARK  Name = famciclovir
REMARK                            x       y       z     vdW  Elec       q    Type
REMARK                         _______ _______ _______ _____ _____    ______ ____
ATOM      1  C   UNL     1      -4.960  -1.097   0.000  0.00  0.00    +0.000 C 
ATOM      2  C   UNL     1      -4.690  -1.877   0.000  0.00  0.00    +0.000 C 
ATOM      3  O   UNL     1      -5.230  -2.500   0.000  0.00  0.00    +0.000 OA
ATOM      4  O   UNL     1      -3.880  -2.033   0.000  0.00  0.00    +0.000 OA
ATOM      5  C   UNL     1      -3.610  -2.812   0.000  0.00  0.00    +0.000 C 
ATOM      6  C   UNL     1      -2.800  -2.968   0.000  0.00  0.00    +0.000 C 
ATOM      7  C   UNL     1      -2.530  -3.748   0.000  0.00  0.00    +0.000 C 
ATOM      8  C   UNL     1      -1.720  -3.904   0.000  0.00  0.00    +0.000 C 
ATOM      9  N   UNL     1      -1.450  -4.683   0.000  0.00  0.00    +0.000 N 
ATOM     10  C   UNL     1      -1.921  -5.360   0.000  0.00  0.00    +0.000 A 
ATOM     11  N   UNL     1      -1.424  -6.018   0.000  0.00  0.00    +0.000 NA
ATOM     12  C   UNL     1      -0.644  -5.748   0.000  0.00  0.00    +0.000 A 
ATOM     13  C   UNL     1      -0.660  -4.923   0.000  0.00  0.00    +0.000 A 
ATOM     14  N   UNL     1       0.046  -4.497   0.000  0.00  0.00    +0.000 NA
ATOM     15  C   UNL     1       0.768  -4.895   0.000  0.00  0.00    +0.000 A 
ATOM     16  N   UNL     1       1.475  -4.469   0.000  0.00  0.00    +0.000 NA
ATOM     17  N   UNL     1       0.784  -5.720   0.000  0.00  0.00    +0.000 NA
ATOM     18  C   UNL     1       0.078  -6.146   0.000  0.00  0.00    +0.000 A 
ATOM     19  C   UNL     1      -2.260  -2.345   0.000  0.00  0.00    +0.000 C 
ATOM     20  O   UNL     1      -1.450  -2.500   0.000  0.00  0.00    +0.000 OA
ATOM     21  C   UNL     1      -0.909  -1.877   0.000  0.00  0.00    +0.000 C 
ATOM     22  C   UNL     1      -1.179  -1.097   0.000  0.00  0.00    +0.000 C 
ATOM     23  O   UNL     1      -0.099  -2.033   0.000  0.00  0.00    +0.000 OA
ENDROOT
TORSDOF 0
