ROOT
REMARK  Name = famphur
REMARK                            x       y       z     vdW  Elec       q    Type
REMARK                         _______ _______ _______ _____ _____    ______ ____
ATOM      1  C   UNL     1       3.572  -2.062   0.000  0.00  0.00    +0.000 C 
ATOM      2  O   UNL     1       3.572  -2.888   0.000  0.00  0.00    +0.000 OA
ATOM      3  P   UNL     1       4.287  -3.300   0.000  0.00  0.00    +0.000 P 
ATOM      4  S   UNL     1       3.874  -4.014   0.000  0.00  0.00    +0.000 S 
ATOM      5  O   UNL     1       4.699  -2.586   0.000  0.00  0.00    +0.000 OA
ATOM      6  C   UNL     1       5.524  -2.586   0.000  0.00  0.00    +0.000 C 
ATOM      7  O   UNL     1       5.001  -3.712   0.000  0.00  0.00    +0.000 OA
ATOM      8  C   UNL     1       5.001  -4.537   0.000  0.00  0.00    +0.000 A 
ATOM      9  C   UNL     1       5.716  -4.950   0.000  0.00  0.00    +0.000 A 
ATOM     10  C   UNL     1       5.716  -5.775   0.000  0.00  0.00    +0.000 A 
ATOM     11  C   UNL     1       5.001  -6.188   0.000  0.00  0.00    +0.000 A 
ATOM     12  C   UNL     1       4.287  -5.775   0.000  0.00  0.00    +0.000 A 
ATOM     13  C   UNL     1       4.287  -4.950   0.000  0.00  0.00    +0.000 A 
ATOM     14  S   UNL     1       5.001  -7.013   0.000  0.00  0.00    +0.000 S 
ATOM     15  O   UNL     1       4.176  -7.013   0.000  0.00  0.00    +0.000 OA
ATOM     16  O   UNL     1       5.826  -7.013   0.000  0.00  0.00    +0.000 OA
ATOM     17  N   UNL     1       5.001  -7.838   0.000  0.00  0.00    +0.000 NA
ATOM     18  C   UNL     1       5.716  -8.250   0.000  0.00  0.00    +0.000 C 
ATOM     19  C   UNL     1       4.287  -8.250   0.000  0.00  0.00    +0.000 C 
ATOM     20  C   UNL     1       4.287  -9.075   0.000  0.00  0.00    +0.000 C 
ATOM     21  O   UNL     1       3.572  -9.488   0.000  0.00  0.00    +0.000 OA
ATOM     22  P   UNL     1       3.572 -10.312   0.000  0.00  0.00    +0.000 P 
ATOM     23  S   UNL     1       2.747 -10.312   0.000  0.00  0.00    +0.000 S 
ATOM     24  O   UNL     1       4.397 -10.312   0.000  0.00  0.00    +0.000 OA
ATOM     25  C   UNL     1       4.810 -11.027   0.000  0.00  0.00    +0.000 C 
ATOM     26  O   UNL     1       3.572 -11.137   0.000  0.00  0.00    +0.000 OA
ATOM     27  C   UNL     1       2.858 -11.550   0.000  0.00  0.00    +0.000 A 
ATOM     28  C   UNL     1       2.858 -12.375   0.000  0.00  0.00    +0.000 A 
ATOM     29  C   UNL     1       2.143 -12.787   0.000  0.00  0.00    +0.000 A 
ATOM     30  C   UNL     1       1.429 -12.375   0.000  0.00  0.00    +0.000 A 
ATOM     31  C   UNL     1       1.429 -11.550   0.000  0.00  0.00    +0.000 A 
ATOM     32  C   UNL     1       2.143 -11.137   0.000  0.00  0.00    +0.000 A 
ATOM     33  S   UNL     1       0.715 -12.787   0.000  0.00  0.00    +0.000 S 
ATOM     34  O   UNL     1       0.302 -12.073   0.000  0.00  0.00    +0.000 OA
ATOM     35  O   UNL     1       1.127 -13.502   0.000  0.00  0.00    +0.000 OA
ATOM     36  N   UNL     1       0.000 -13.200   0.000  0.00  0.00    +0.000 NA
ATOM     37  C   UNL     1       0.000 -14.025   0.000  0.00  0.00    +0.000 C 
ATOM     38  C   UNL     1      -0.715 -12.787   0.000  0.00  0.00    +0.000 C 
ENDROOT
TORSDOF 0
