ROOT
REMARK  Name = febarbamate
REMARK                            x       y       z     vdW  Elec       q    Type
REMARK                         _______ _______ _______ _____ _____    ______ ____
ATOM      1  C   UNL     1       4.848  -2.478   0.000  0.00  0.00    +0.000 C 
ATOM      2  C   UNL     1       5.261  -3.192   0.000  0.00  0.00    +0.000 C 
ATOM      3  C   UNL     1       6.085  -3.192   0.000  0.00  0.00    +0.000 C 
ATOM      4  C   UNL     1       6.498  -3.907   0.000  0.00  0.00    +0.000 C 
ATOM      5  O   UNL     1       7.323  -3.907   0.000  0.00  0.00    +0.000 OA
ATOM      6  C   UNL     1       7.736  -4.621   0.000  0.00  0.00    +0.000 C 
ATOM      7  C   UNL     1       8.560  -4.621   0.000  0.00  0.00    +0.000 C 
ATOM      8  C   UNL     1       8.973  -5.336   0.000  0.00  0.00    +0.000 C 
ATOM      9  N   UNL     1       9.798  -5.336   0.000  0.00  0.00    +0.000 N 
ATOM     10  C   UNL     1      10.210  -4.621   0.000  0.00  0.00    +0.000 C 
ATOM     11  O   UNL     1       9.798  -3.907   0.000  0.00  0.00    +0.000 OA
ATOM     12  N   UNL     1      11.036  -4.621   0.000  0.00  0.00    +0.000 NA
ATOM     13  C   UNL     1      11.448  -5.336   0.000  0.00  0.00    +0.000 C 
ATOM     14  O   UNL     1      12.273  -5.336   0.000  0.00  0.00    +0.000 OA
ATOM     15  C   UNL     1      11.036  -6.050   0.000  0.00  0.00    +0.000 C 
ATOM     16  C   UNL     1      11.811  -6.332   0.000  0.00  0.00    +0.000 C 
ATOM     17  C   UNL     1      12.443  -5.802   0.000  0.00  0.00    +0.000 C 
ATOM     18  C   UNL     1      10.210  -6.050   0.000  0.00  0.00    +0.000 C 
ATOM     19  O   UNL     1       9.798  -6.765   0.000  0.00  0.00    +0.000 OA
ATOM     20  C   UNL     1      10.892  -6.863   0.000  0.00  0.00    +0.000 A 
ATOM     21  C   UNL     1      11.524  -7.393   0.000  0.00  0.00    +0.000 A 
ATOM     22  C   UNL     1      11.381  -8.206   0.000  0.00  0.00    +0.000 A 
ATOM     23  C   UNL     1      10.606  -8.488   0.000  0.00  0.00    +0.000 A 
ATOM     24  C   UNL     1       9.974  -7.957   0.000  0.00  0.00    +0.000 A 
ATOM     25  C   UNL     1      10.117  -7.145   0.000  0.00  0.00    +0.000 A 
ATOM     26  O   UNL     1       8.973  -3.907   0.000  0.00  0.00    +0.000 OA
ATOM     27  C   UNL     1       8.560  -3.192   0.000  0.00  0.00    +0.000 C 
ATOM     28  N   UNL     1       7.736  -3.192   0.000  0.00  0.00    +0.000 NA
ATOM     29  O   UNL     1       8.973  -2.478   0.000  0.00  0.00    +0.000 OA
ENDROOT
TORSDOF 0
