ROOT
REMARK  Name = feclemine
REMARK                            x       y       z     vdW  Elec       q    Type
REMARK                         _______ _______ _______ _____ _____    ______ ____
ATOM      1  C   UNL     1      -2.639  -4.200   0.000  0.00  0.00    +0.000 C 
ATOM      2  C   UNL     1      -2.894  -3.415   0.000  0.00  0.00    +0.000 C 
ATOM      3  N   UNL     1      -2.342  -2.802   0.000  0.00  0.00    +0.000 NA
ATOM      4  C   UNL     1      -1.535  -2.974   0.000  0.00  0.00    +0.000 C 
ATOM      5  C   UNL     1      -1.280  -3.758   0.000  0.00  0.00    +0.000 C 
ATOM      6  C   UNL     1      -2.597  -2.018   0.000  0.00  0.00    +0.000 C 
ATOM      7  C   UNL     1      -2.045  -1.405   0.000  0.00  0.00    +0.000 C 
ATOM      8  C   UNL     1      -1.238  -1.576   0.000  0.00  0.00    +0.000 C 
ATOM      9  N   UNL     1      -0.983  -2.361   0.000  0.00  0.00    +0.000 NA
ATOM     10  C   UNL     1      -0.728  -1.576   0.000  0.00  0.00    +0.000 C 
ATOM     11  C   UNL     1       0.079  -1.405   0.000  0.00  0.00    +0.000 C 
ATOM     12  C   UNL     1      -0.431  -2.974   0.000  0.00  0.00    +0.000 C 
ATOM     13  C   UNL     1      -0.686  -3.758   0.000  0.00  0.00    +0.000 C 
ATOM     14  C   UNL     1      -2.300  -0.620   0.000  0.00  0.00    +0.000 C 
ATOM     15  C   UNL     1      -1.748  -0.007   0.000  0.00  0.00    +0.000 C 
ATOM     16  C   UNL     1      -2.003   0.778   0.000  0.00  0.00    +0.000 C 
ATOM     17  C   UNL     1      -1.451   1.391   0.000  0.00  0.00    +0.000 C 
ATOM     18  C   UNL     1      -0.644   1.219   0.000  0.00  0.00    +0.000 C 
ATOM     19  C   UNL     1      -0.389   0.435   0.000  0.00  0.00    +0.000 C 
ATOM     20  C   UNL     1      -0.941  -0.178   0.000  0.00  0.00    +0.000 C 
ATOM     21  C   UNL     1      -3.107  -0.448   0.000  0.00  0.00    +0.000 A 
ATOM     22  C   UNL     1      -3.659  -1.061   0.000  0.00  0.00    +0.000 A 
ATOM     23  C   UNL     1      -4.466  -0.890   0.000  0.00  0.00    +0.000 A 
ATOM     24  C   UNL     1      -4.721  -0.105   0.000  0.00  0.00    +0.000 A 
ATOM     25  C   UNL     1      -4.169   0.508   0.000  0.00  0.00    +0.000 A 
ATOM     26  C   UNL     1      -3.362   0.336   0.000  0.00  0.00    +0.000 A 
ENDROOT
TORSDOF 0
