ROOT
REMARK  Name = fimasartan
REMARK                            x       y       z     vdW  Elec       q    Type
REMARK                         _______ _______ _______ _____ _____    ______ ____
ATOM      1  C   UNL     1       2.037  -2.949   0.000  0.00  0.00    +0.000 C 
ATOM      2  C   UNL     1       1.322  -2.537   0.000  0.00  0.00    +0.000 C 
ATOM      3  C   UNL     1       1.322  -1.712   0.000  0.00  0.00    +0.000 C 
ATOM      4  C   UNL     1       0.608  -1.299   0.000  0.00  0.00    +0.000 C 
ATOM      5  C   UNL     1      -0.107  -1.712   0.000  0.00  0.00    +0.000 A 
ATOM      6  N   UNL     1      -0.107  -2.537   0.000  0.00  0.00    +0.000 NA
ATOM      7  C   UNL     1      -0.821  -2.949   0.000  0.00  0.00    +0.000 A 
ATOM      8  C   UNL     1      -0.821  -3.774   0.000  0.00  0.00    +0.000 C 
ATOM      9  C   UNL     1      -1.536  -2.537   0.000  0.00  0.00    +0.000 A 
ATOM     10  C   UNL     1      -2.250  -2.949   0.000  0.00  0.00    +0.000 C 
ATOM     11  C   UNL     1      -2.250  -3.774   0.000  0.00  0.00    +0.000 C 
ATOM     12  S   UNL     1      -1.536  -4.187   0.000  0.00  0.00    +0.000 S 
ATOM     13  N   UNL     1      -2.965  -4.187   0.000  0.00  0.00    +0.000 N 
ATOM     14  C   UNL     1      -2.965  -5.012   0.000  0.00  0.00    +0.000 C 
ATOM     15  C   UNL     1      -3.679  -3.774   0.000  0.00  0.00    +0.000 C 
ATOM     16  C   UNL     1      -1.536  -1.712   0.000  0.00  0.00    +0.000 A 
ATOM     17  O   UNL     1      -2.250  -1.299   0.000  0.00  0.00    +0.000 OA
ATOM     18  N   UNL     1      -0.821  -1.299   0.000  0.00  0.00    +0.000 N 
ATOM     19  C   UNL     1      -0.821  -0.474   0.000  0.00  0.00    +0.000 C 
ATOM     20  C   UNL     1      -0.107  -0.062   0.000  0.00  0.00    +0.000 A 
ATOM     21  C   UNL     1      -0.107   0.763   0.000  0.00  0.00    +0.000 A 
ATOM     22  C   UNL     1       0.608   1.176   0.000  0.00  0.00    +0.000 A 
ATOM     23  C   UNL     1       1.322   0.763   0.000  0.00  0.00    +0.000 A 
ATOM     24  C   UNL     1       1.322  -0.062   0.000  0.00  0.00    +0.000 A 
ATOM     25  C   UNL     1       0.608  -0.474   0.000  0.00  0.00    +0.000 A 
ATOM     26  C   UNL     1       2.037   1.176   0.000  0.00  0.00    +0.000 A 
ATOM     27  C   UNL     1       2.037   2.001   0.000  0.00  0.00    +0.000 A 
ATOM     28  C   UNL     1       2.751   2.413   0.000  0.00  0.00    +0.000 A 
ATOM     29  C   UNL     1       3.466   2.001   0.000  0.00  0.00    +0.000 A 
ATOM     30  C   UNL     1       3.466   1.176   0.000  0.00  0.00    +0.000 A 
ATOM     31  C   UNL     1       2.751   0.763   0.000  0.00  0.00    +0.000 A 
ATOM     32  C   UNL     1       2.751  -0.062   0.000  0.00  0.00    +0.000 A 
ATOM     33  N   UNL     1       3.419  -0.546   0.000  0.00  0.00    +0.000 NA
ATOM     34  N   UNL     1       3.164  -1.331   0.000  0.00  0.00    +0.000 NA
ATOM     35  N   UNL     1       2.339  -1.331   0.000  0.00  0.00    +0.000 NA
ATOM     36  N   UNL     1       2.084  -0.546   0.000  0.00  0.00    +0.000 NA
ENDROOT
TORSDOF 0
