ROOT
REMARK  Name = finerenone
REMARK                            x       y       z     vdW  Elec       q    Type
REMARK                         _______ _______ _______ _____ _____    ______ ____
ATOM      1  C   UNL     1      -0.919   0.906   0.000  0.00  0.00    +0.000 C 
ATOM      2  C   UNL     1      -0.205   1.318   0.000  0.00  0.00    +0.000 C 
ATOM      3  O   UNL     1       0.510   0.906   0.000  0.00  0.00    +0.000 OA
ATOM      4  C   UNL     1       0.510   0.081   0.000  0.00  0.00    +0.000 A 
ATOM      5  N   UNL     1      -0.205  -0.332   0.000  0.00  0.00    +0.000 NA
ATOM      6  C   UNL     1      -0.205  -1.157   0.000  0.00  0.00    +0.000 A 
ATOM      7  C   UNL     1       0.510  -1.569   0.000  0.00  0.00    +0.000 A 
ATOM      8  C   UNL     1       1.224  -1.157   0.000  0.00  0.00    +0.000 A 
ATOM      9  C   UNL     1       1.224  -0.332   0.000  0.00  0.00    +0.000 A 
ATOM     10  C   UNL     1       1.939   0.081   0.000  0.00  0.00    +0.000 C 
ATOM     11  C   UNL     1       2.653  -0.332   0.000  0.00  0.00    +0.000 C 
ATOM     12  C   UNL     1       2.653  -1.157   0.000  0.00  0.00    +0.000 C 
ATOM     13  N   UNL     1       1.939  -1.569   0.000  0.00  0.00    +0.000 NA
ATOM     14  C   UNL     1       3.368  -1.569   0.000  0.00  0.00    +0.000 C 
ATOM     15  C   UNL     1       3.368   0.081   0.000  0.00  0.00    +0.000 C 
ATOM     16  O   UNL     1       4.082  -0.332   0.000  0.00  0.00    +0.000 OA
ATOM     17  N   UNL     1       3.368   0.906   0.000  0.00  0.00    +0.000 NA
ATOM     18  C   UNL     1       2.194   0.865   0.000  0.00  0.00    +0.000 A 
ATOM     19  C   UNL     1       1.642   1.478   0.000  0.00  0.00    +0.000 A 
ATOM     20  C   UNL     1       1.897   2.263   0.000  0.00  0.00    +0.000 A 
ATOM     21  C   UNL     1       2.704   2.435   0.000  0.00  0.00    +0.000 A 
ATOM     22  C   UNL     1       3.256   1.821   0.000  0.00  0.00    +0.000 A 
ATOM     23  C   UNL     1       3.001   1.037   0.000  0.00  0.00    +0.000 A 
ATOM     24  C   UNL     1       2.959   3.219   0.000  0.00  0.00    +0.000 C 
ATOM     25  N   UNL     1       3.213   4.004   0.000  0.00  0.00    +0.000 NA
ATOM     26  O   UNL     1       0.835   1.307   0.000  0.00  0.00    +0.000 OA
ATOM     27  C   UNL     1       0.028   1.478   0.000  0.00  0.00    +0.000 C 
ATOM     28  C   UNL     1       0.510  -2.394   0.000  0.00  0.00    +0.000 C 
ENDROOT
TORSDOF 0
