ROOT
REMARK  Name = flomoxef
REMARK                            x       y       z     vdW  Elec       q    Type
REMARK                         _______ _______ _______ _____ _____    ______ ____
ATOM      1  C   UNL     1       2.777  -3.381   0.000  0.00  0.00    +0.000 C 
ATOM      2  O   UNL     1       2.365  -2.666   0.000  0.00  0.00    +0.000 OA
ATOM      3  C   UNL     1       1.540  -2.666   0.000  0.00  0.00    +0.000 C 
ATOM      4  N   UNL     1       1.540  -1.841   0.000  0.00  0.00    +0.000 NA
ATOM      5  C   UNL     1       2.254  -1.429   0.000  0.00  0.00    +0.000 C 
ATOM      6  O   UNL     1       2.254  -0.604   0.000  0.00  0.00    +0.000 OA
ATOM      7  C   UNL     1       2.968  -1.841   0.000  0.00  0.00    +0.000 C 
ATOM      8  S   UNL     1       3.683  -1.429   0.000  0.00  0.00    +0.000 S 
ATOM      9  C   UNL     1       4.397  -1.841   0.000  0.00  0.00    +0.000 C 
ATOM     10  F   UNL     1       5.112  -1.429   0.000  0.00  0.00    +0.000 F 
ATOM     11  F   UNL     1       4.397  -2.666   0.000  0.00  0.00    +0.000 F 
ATOM     12  C   UNL     1       1.540  -3.491   0.000  0.00  0.00    +0.000 C 
ATOM     13  O   UNL     1       1.952  -4.206   0.000  0.00  0.00    +0.000 OA
ATOM     14  C   UNL     1       1.540  -4.920   0.000  0.00  0.00    +0.000 C 
ATOM     15  C   UNL     1       0.715  -4.920   0.000  0.00  0.00    +0.000 C 
ATOM     16  C   UNL     1       0.302  -5.635   0.000  0.00  0.00    +0.000 C 
ATOM     17  S   UNL     1      -0.523  -5.635   0.000  0.00  0.00    +0.000 S 
ATOM     18  C   UNL     1      -0.935  -6.349   0.000  0.00  0.00    +0.000 A 
ATOM     19  N   UNL     1      -0.600  -7.103   0.000  0.00  0.00    +0.000 NA
ATOM     20  N   UNL     1      -1.213  -7.655   0.000  0.00  0.00    +0.000 NA
ATOM     21  N   UNL     1      -1.927  -7.242   0.000  0.00  0.00    +0.000 NA
ATOM     22  N   UNL     1      -1.756  -6.436   0.000  0.00  0.00    +0.000 N 
ATOM     23  C   UNL     1      -2.308  -5.822   0.000  0.00  0.00    +0.000 C 
ATOM     24  C   UNL     1      -3.115  -5.994   0.000  0.00  0.00    +0.000 C 
ATOM     25  O   UNL     1      -3.370  -6.779   0.000  0.00  0.00    +0.000 OA
ATOM     26  C   UNL     1       0.302  -4.206   0.000  0.00  0.00    +0.000 C 
ATOM     27  N   UNL     1       0.715  -3.491   0.000  0.00  0.00    +0.000 N 
ATOM     28  C   UNL     1       0.715  -2.666   0.000  0.00  0.00    +0.000 C 
ATOM     29  O   UNL     1       0.131  -2.083   0.000  0.00  0.00    +0.000 OA
ATOM     30  C   UNL     1      -0.523  -4.206   0.000  0.00  0.00    +0.000 C 
ATOM     31  O   UNL     1      -0.935  -3.491   0.000  0.00  0.00    +0.000 OA
ATOM     32  O   UNL     1      -0.935  -4.920   0.000  0.00  0.00    +0.000 OA
ENDROOT
TORSDOF 0
