ROOT
REMARK  Name = fluostigmine
REMARK                            x       y       z     vdW  Elec       q    Type
REMARK                         _______ _______ _______ _____ _____    ______ ____
ATOM      1  C   UNL     1       0.412   3.572   0.000  0.00  0.00    +0.000 C 
ATOM      2  C   UNL     1       0.825   2.858   0.000  0.00  0.00    +0.000 C 
ATOM      3  C   UNL     1       1.650   2.858   0.000  0.00  0.00    +0.000 C 
ATOM      4  O   UNL     1       0.412   2.143   0.000  0.00  0.00    +0.000 OA
ATOM      5  P   UNL     1       0.825   1.429   0.000  0.00  0.00    +0.000 P 
ATOM      6  F   UNL     1       0.111   1.016   0.000  0.00  0.00    +0.000 F 
ATOM      7  O   UNL     1       1.540   1.841   0.000  0.00  0.00    +0.000 OA
ATOM      8  O   UNL     1       1.238   0.715   0.000  0.00  0.00    +0.000 OA
ATOM      9  C   UNL     1       0.825   0.000   0.000  0.00  0.00    +0.000 C 
ATOM     10  C   UNL     1       1.238  -0.715   0.000  0.00  0.00    +0.000 C 
ATOM     11  C   UNL     1       0.000   0.000   0.000  0.00  0.00    +0.000 C 
ENDROOT
TORSDOF 0
