ROOT
REMARK  Name = flurazepam
REMARK                            x       y       z     vdW  Elec       q    Type
REMARK                         _______ _______ _______ _____ _____    ______ ____
ATOM      1  C   UNL     1      -0.546  -2.684   0.000  0.00  0.00    +0.000 C 
ATOM      2  C   UNL     1       0.168  -3.097   0.000  0.00  0.00    +0.000 C 
ATOM      3  N   UNL     1       0.883  -2.684   0.000  0.00  0.00    +0.000 NA
ATOM      4  C   UNL     1       0.883  -1.859   0.000  0.00  0.00    +0.000 C 
ATOM      5  C   UNL     1       1.597  -1.447   0.000  0.00  0.00    +0.000 C 
ATOM      6  C   UNL     1       1.597  -3.097   0.000  0.00  0.00    +0.000 C 
ATOM      7  C   UNL     1       2.312  -2.684   0.000  0.00  0.00    +0.000 C 
ATOM      8  N   UNL     1       3.026  -3.097   0.000  0.00  0.00    +0.000 N 
ATOM      9  C   UNL     1       3.708  -2.632   0.000  0.00  0.00    +0.000 A 
ATOM     10  C   UNL     1       3.524  -1.828   0.000  0.00  0.00    +0.000 A 
ATOM     11  C   UNL     1       4.129  -1.266   0.000  0.00  0.00    +0.000 A 
ATOM     12  C   UNL     1       4.917  -1.510   0.000  0.00  0.00    +0.000 A 
ATOM     13 CL   UNL     1       5.522  -0.949   0.000  0.00  0.00    +0.000 Cl
ATOM     14  C   UNL     1       5.101  -2.314   0.000  0.00  0.00    +0.000 A 
ATOM     15  C   UNL     1       4.496  -2.875   0.000  0.00  0.00    +0.000 A 
ATOM     16  C   UNL     1       4.797  -3.643   0.000  0.00  0.00    +0.000 C 
ATOM     17  N   UNL     1       4.385  -4.357   0.000  0.00  0.00    +0.000 NA
ATOM     18  C   UNL     1       3.569  -4.481   0.000  0.00  0.00    +0.000 C 
ATOM     19  C   UNL     1       2.964  -3.919   0.000  0.00  0.00    +0.000 C 
ATOM     20  O   UNL     1       2.196  -4.221   0.000  0.00  0.00    +0.000 OA
ATOM     21  C   UNL     1       5.620  -3.705   0.000  0.00  0.00    +0.000 A 
ATOM     22  C   UNL     1       6.085  -3.023   0.000  0.00  0.00    +0.000 A 
ATOM     23  F   UNL     1       5.727  -2.280   0.000  0.00  0.00    +0.000 F 
ATOM     24  C   UNL     1       6.908  -3.085   0.000  0.00  0.00    +0.000 A 
ATOM     25  C   UNL     1       7.266  -3.828   0.000  0.00  0.00    +0.000 A 
ATOM     26  C   UNL     1       6.801  -4.510   0.000  0.00  0.00    +0.000 A 
ATOM     27  C   UNL     1       5.978  -4.448   0.000  0.00  0.00    +0.000 A 
ENDROOT
TORSDOF 0
