ROOT
REMARK  Name = flutropium
REMARK                            x       y       z     vdW  Elec       q    Type
REMARK                         _______ _______ _______ _____ _____    ______ ____
ATOM      1  C   UNL     1       2.357   0.504   0.000  0.00  0.00    +0.000 C 
ATOM      2  N   UNL     1       1.394  -0.000   0.000  0.00  0.00    +0.000 N 
ATOM      3  C   UNL     1       2.356  -0.557   0.000  0.00  0.00    +0.000 C 
ATOM      4  C   UNL     1       1.936  -1.415   0.000  0.00  0.00    +0.000 C 
ATOM      5  F   UNL     1       2.397  -2.100   0.000  0.00  0.00    +0.000 F 
ATOM      6  C   UNL     1       1.162   0.927   0.000  0.00  0.00    +0.000 C 
ATOM      7  C   UNL     1       0.517   0.412   0.000  0.00  0.00    +0.000 C 
ATOM      8  C   UNL     1       0.517  -0.413   0.000  0.00  0.00    +0.000 C 
ATOM      9  C   UNL     1       1.162  -0.927   0.000  0.00  0.00    +0.000 C 
ATOM     10  C   UNL     1       1.967  -0.743   0.000  0.00  0.00    +0.000 C 
ATOM     11  C   UNL     1       2.325  -0.000   0.000  0.00  0.00    +0.000 C 
ATOM     12  C   UNL     1       1.967   0.743   0.000  0.00  0.00    +0.000 C 
ATOM     13  O   UNL     1       3.270   0.064   0.000  0.00  0.00    +0.000 OA
ATOM     14  C   UNL     1       3.789   0.779   0.000  0.00  0.00    +0.000 C 
ATOM     15  O   UNL     1       3.453   1.532   0.000  0.00  0.00    +0.000 OA
ATOM     16  C   UNL     1       4.609   0.693   0.000  0.00  0.00    +0.000 C 
ATOM     17  O   UNL     1       4.523  -0.128   0.000  0.00  0.00    +0.000 OA
ATOM     18  C   UNL     1       5.430   0.607   0.000  0.00  0.00    +0.000 A 
ATOM     19  C   UNL     1       5.914   1.275   0.000  0.00  0.00    +0.000 A 
ATOM     20  C   UNL     1       6.735   1.189   0.000  0.00  0.00    +0.000 A 
ATOM     21  C   UNL     1       7.071   0.435   0.000  0.00  0.00    +0.000 A 
ATOM     22  C   UNL     1       6.586  -0.232   0.000  0.00  0.00    +0.000 A 
ATOM     23  C   UNL     1       5.766  -0.146   0.000  0.00  0.00    +0.000 A 
ATOM     24  C   UNL     1       4.695   1.513   0.000  0.00  0.00    +0.000 A 
ATOM     25  C   UNL     1       4.027   1.998   0.000  0.00  0.00    +0.000 A 
ATOM     26  C   UNL     1       4.113   2.819   0.000  0.00  0.00    +0.000 A 
ATOM     27  C   UNL     1       4.867   3.155   0.000  0.00  0.00    +0.000 A 
ATOM     28  C   UNL     1       5.534   2.670   0.000  0.00  0.00    +0.000 A 
ATOM     29  C   UNL     1       5.449   1.849   0.000  0.00  0.00    +0.000 A 
ENDROOT
TORSDOF 0
