ROOT
REMARK  Name = fluvastatin
REMARK                            x       y       z     vdW  Elec       q    Type
REMARK                         _______ _______ _______ _____ _____    ______ ____
ATOM      1  C   UNL     1      -3.716  -5.327   0.000  0.00  0.00    +0.000 C 
ATOM      2  C   UNL     1      -3.544  -4.520   0.000  0.00  0.00    +0.000 C 
ATOM      3  C   UNL     1      -2.760  -4.265   0.000  0.00  0.00    +0.000 C 
ATOM      4  N   UNL     1      -4.157  -3.968   0.000  0.00  0.00    +0.000 N 
ATOM      5  C   UNL     1      -4.071  -3.147   0.000  0.00  0.00    +0.000 A 
ATOM      6  C   UNL     1      -3.357  -2.735   0.000  0.00  0.00    +0.000 C 
ATOM      7  C   UNL     1      -2.642  -3.147   0.000  0.00  0.00    +0.000 C 
ATOM      8  C   UNL     1      -1.927  -2.735   0.000  0.00  0.00    +0.000 C 
ATOM      9  O   UNL     1      -1.927  -1.910   0.000  0.00  0.00    +0.000 OA
ATOM     10  C   UNL     1      -1.213  -3.147   0.000  0.00  0.00    +0.000 C 
ATOM     11  C   UNL     1      -0.499  -2.735   0.000  0.00  0.00    +0.000 C 
ATOM     12  O   UNL     1      -0.499  -1.910   0.000  0.00  0.00    +0.000 OA
ATOM     13  C   UNL     1       0.216  -3.147   0.000  0.00  0.00    +0.000 C 
ATOM     14  C   UNL     1       0.930  -2.735   0.000  0.00  0.00    +0.000 C 
ATOM     15  O   UNL     1       1.645  -3.147   0.000  0.00  0.00    +0.000 OA
ATOM     16  O   UNL     1       0.930  -1.910   0.000  0.00  0.00    +0.000 OA
ATOM     17  C   UNL     1      -4.825  -2.812   0.000  0.00  0.00    +0.000 A 
ATOM     18  C   UNL     1      -5.377  -3.425   0.000  0.00  0.00    +0.000 A 
ATOM     19  C   UNL     1      -4.964  -4.139   0.000  0.00  0.00    +0.000 A 
ATOM     20  C   UNL     1      -5.377  -4.854   0.000  0.00  0.00    +0.000 A 
ATOM     21  C   UNL     1      -6.202  -4.854   0.000  0.00  0.00    +0.000 A 
ATOM     22  C   UNL     1      -6.614  -4.139   0.000  0.00  0.00    +0.000 A 
ATOM     23  C   UNL     1      -6.202  -3.425   0.000  0.00  0.00    +0.000 A 
ATOM     24  C   UNL     1      -4.996  -2.005   0.000  0.00  0.00    +0.000 A 
ATOM     25  C   UNL     1      -5.781  -1.750   0.000  0.00  0.00    +0.000 A 
ATOM     26  C   UNL     1      -5.952  -0.943   0.000  0.00  0.00    +0.000 A 
ATOM     27  C   UNL     1      -5.339  -0.391   0.000  0.00  0.00    +0.000 A 
ATOM     28  F   UNL     1      -5.511   0.416   0.000  0.00  0.00    +0.000 F 
ATOM     29  C   UNL     1      -4.555  -0.646   0.000  0.00  0.00    +0.000 A 
ATOM     30  C   UNL     1      -4.383  -1.453   0.000  0.00  0.00    +0.000 A 
ENDROOT
TORSDOF 0
