ROOT
REMARK  Name = fosphenytoin
REMARK                            x       y       z     vdW  Elec       q    Type
REMARK                         _______ _______ _______ _____ _____    ______ ____
ATOM      1  O   UNL     1      -1.162  -5.173   0.000  0.00  0.00    +0.000 OA
ATOM      2  P   UNL     1      -0.677  -4.505   0.000  0.00  0.00    +0.000 P 
ATOM      3  O   UNL     1      -1.344  -4.020   0.000  0.00  0.00    +0.000 OA
ATOM      4  O   UNL     1      -0.009  -4.990   0.000  0.00  0.00    +0.000 OA
ATOM      5  O   UNL     1      -0.192  -3.838   0.000  0.00  0.00    +0.000 OA
ATOM      6  C   UNL     1      -0.527  -3.084   0.000  0.00  0.00    +0.000 C 
ATOM      7  N   UNL     1      -0.043  -2.417   0.000  0.00  0.00    +0.000 N 
ATOM      8  C   UNL     1       0.782  -2.417   0.000  0.00  0.00    +0.000 C 
ATOM      9  O   UNL     1       1.267  -3.084   0.000  0.00  0.00    +0.000 OA
ATOM     10  N   UNL     1       1.037  -1.632   0.000  0.00  0.00    +0.000 NA
ATOM     11  C   UNL     1       0.370  -1.147   0.000  0.00  0.00    +0.000 C 
ATOM     12  C   UNL     1      -0.297  -1.632   0.000  0.00  0.00    +0.000 C 
ATOM     13  O   UNL     1      -1.082  -1.377   0.000  0.00  0.00    +0.000 OA
ATOM     14  C   UNL     1       0.977  -0.589   0.000  0.00  0.00    +0.000 A 
ATOM     15  C   UNL     1       0.797   0.216   0.000  0.00  0.00    +0.000 A 
ATOM     16  C   UNL     1       1.405   0.775   0.000  0.00  0.00    +0.000 A 
ATOM     17  C   UNL     1       2.192   0.528   0.000  0.00  0.00    +0.000 A 
ATOM     18  C   UNL     1       2.372  -0.277   0.000  0.00  0.00    +0.000 A 
ATOM     19  C   UNL     1       1.764  -0.835   0.000  0.00  0.00    +0.000 A 
ATOM     20  C   UNL     1      -0.035  -0.428   0.000  0.00  0.00    +0.000 A 
ATOM     21  C   UNL     1      -0.860  -0.420   0.000  0.00  0.00    +0.000 A 
ATOM     22  C   UNL     1      -1.265   0.299   0.000  0.00  0.00    +0.000 A 
ATOM     23  C   UNL     1      -0.845   1.009   0.000  0.00  0.00    +0.000 A 
ATOM     24  C   UNL     1      -0.020   1.000   0.000  0.00  0.00    +0.000 A 
ATOM     25  C   UNL     1       0.385   0.282   0.000  0.00  0.00    +0.000 A 
ENDROOT
TORSDOF 0
