ROOT
REMARK  Name = fostemsavir
REMARK                            x       y       z     vdW  Elec       q    Type
REMARK                         _______ _______ _______ _____ _____    ______ ____
ATOM      1  C   UNL     1       4.176   3.999   0.000  0.00  0.00    +0.000 C 
ATOM      2  C   UNL     1       3.691   3.332   0.000  0.00  0.00    +0.000 A 
ATOM      3  N   UNL     1       3.946   2.547   0.000  0.00  0.00    +0.000 NA
ATOM      4  N   UNL     1       3.279   2.062   0.000  0.00  0.00    +0.000 N 
ATOM      5  C   UNL     1       2.611   2.547   0.000  0.00  0.00    +0.000 A 
ATOM      6  N   UNL     1       2.866   3.332   0.000  0.00  0.00    +0.000 NA
ATOM      7  C   UNL     1       3.279   1.238   0.000  0.00  0.00    +0.000 A 
ATOM      8  N   UNL     1       3.993   0.825   0.000  0.00  0.00    +0.000 NA
ATOM      9  C   UNL     1       3.993   0.000   0.000  0.00  0.00    +0.000 A 
ATOM     10  C   UNL     1       3.279  -0.412   0.000  0.00  0.00    +0.000 A 
ATOM     11  C   UNL     1       2.564   0.000   0.000  0.00  0.00    +0.000 A 
ATOM     12  C   UNL     1       2.564   0.825   0.000  0.00  0.00    +0.000 A 
ATOM     13  N   UNL     1       1.780   1.080   0.000  0.00  0.00    +0.000 N 
ATOM     14  C   UNL     1       1.295   0.412   0.000  0.00  0.00    +0.000 A 
ATOM     15  C   UNL     1       1.780  -0.255   0.000  0.00  0.00    +0.000 A 
ATOM     16  C   UNL     1       1.525  -1.040   0.000  0.00  0.00    +0.000 C 
ATOM     17  O   UNL     1       0.718  -1.211   0.000  0.00  0.00    +0.000 OA
ATOM     18  C   UNL     1       2.077  -1.653   0.000  0.00  0.00    +0.000 C 
ATOM     19  O   UNL     1       2.884  -1.481   0.000  0.00  0.00    +0.000 OA
ATOM     20  N   UNL     1       1.822  -2.437   0.000  0.00  0.00    +0.000 N 
ATOM     21  C   UNL     1       2.374  -3.050   0.000  0.00  0.00    +0.000 C 
ATOM     22  C   UNL     1       2.119  -3.835   0.000  0.00  0.00    +0.000 C 
ATOM     23  N   UNL     1       1.312  -4.006   0.000  0.00  0.00    +0.000 N 
ATOM     24  C   UNL     1       0.760  -3.393   0.000  0.00  0.00    +0.000 C 
ATOM     25  C   UNL     1       1.015  -2.609   0.000  0.00  0.00    +0.000 C 
ATOM     26  C   UNL     1       1.057  -4.791   0.000  0.00  0.00    +0.000 C 
ATOM     27  O   UNL     1       1.609  -5.404   0.000  0.00  0.00    +0.000 OA
ATOM     28  C   UNL     1       0.250  -4.963   0.000  0.00  0.00    +0.000 A 
ATOM     29  C   UNL     1      -0.005  -5.747   0.000  0.00  0.00    +0.000 A 
ATOM     30  C   UNL     1      -0.812  -5.919   0.000  0.00  0.00    +0.000 A 
ATOM     31  C   UNL     1      -1.364  -5.306   0.000  0.00  0.00    +0.000 A 
ATOM     32  C   UNL     1      -1.109  -4.521   0.000  0.00  0.00    +0.000 A 
ATOM     33  C   UNL     1      -0.302  -4.350   0.000  0.00  0.00    +0.000 A 
ATOM     34  C   UNL     1       1.525   1.865   0.000  0.00  0.00    +0.000 C 
ATOM     35  O   UNL     1       0.718   2.036   0.000  0.00  0.00    +0.000 OA
ATOM     36  P   UNL     1       0.463   2.821   0.000  0.00  0.00    +0.000 P 
ATOM     37  O   UNL     1       1.248   3.076   0.000  0.00  0.00    +0.000 OA
ATOM     38  O   UNL     1      -0.322   2.566   0.000  0.00  0.00    +0.000 OA
ATOM     39  O   UNL     1       0.208   3.605   0.000  0.00  0.00    +0.000 OA
ATOM     40  O   UNL     1       3.279  -1.238   0.000  0.00  0.00    +0.000 OA
ATOM     41  C   UNL     1       3.993  -1.650   0.000  0.00  0.00    +0.000 C 
ENDROOT
TORSDOF 0
