ROOT
REMARK  Name = fudosteine
REMARK                            x       y       z     vdW  Elec       q    Type
REMARK                         _______ _______ _______ _____ _____    ______ ____
ATOM      1  N   UNK     1       7.285   3.381   0.000  0.00  0.00    +0.000 NA
ATOM      2  C   UNK     1       7.285   2.556   0.000  0.00  0.00    +0.000 C 
ATOM      3  C   UNK     1       6.570   2.143   0.000  0.00  0.00    +0.000 C 
ATOM      4  S   UNK     1       5.856   2.556   0.000  0.00  0.00    +0.000 S 
ATOM      5  C   UNK     1       5.141   2.143   0.000  0.00  0.00    +0.000 C 
ATOM      6  C   UNK     1       4.427   2.556   0.000  0.00  0.00    +0.000 C 
ATOM      7  C   UNK     1       3.712   2.143   0.000  0.00  0.00    +0.000 C 
ATOM      8  O   UNK     1       2.998   2.556   0.000  0.00  0.00    +0.000 OA
ATOM      9  C   UNK     1       7.999   2.143   0.000  0.00  0.00    +0.000 C 
ATOM     10  O   UNK     1       8.714   2.556   0.000  0.00  0.00    +0.000 OA
ATOM     11  O   UNK     1       7.999   1.318   0.000  0.00  0.00    +0.000 OA
ENDROOT
TORSDOF 0
