ROOT
REMARK  Name = furosemide
REMARK                            x       y       z     vdW  Elec       q    Type
REMARK                         _______ _______ _______ _____ _____    ______ ____
ATOM      1  N   UNL     1      -0.715  10.066   0.000  0.00  0.00    +0.000 NA
ATOM      2  S   UNL     1      -0.715   9.241   0.000  0.00  0.00    +0.000 S 
ATOM      3  O   UNL     1      -1.540   9.241   0.000  0.00  0.00    +0.000 OA
ATOM      4  O   UNL     1       0.111   9.241   0.000  0.00  0.00    +0.000 OA
ATOM      5  C   UNL     1      -0.715   8.416   0.000  0.00  0.00    +0.000 A 
ATOM      6  C   UNL     1       0.000   8.004   0.000  0.00  0.00    +0.000 A 
ATOM      7  C   UNL     1       0.000   7.179   0.000  0.00  0.00    +0.000 A 
ATOM      8  C   UNL     1       0.715   6.766   0.000  0.00  0.00    +0.000 C 
ATOM      9  O   UNL     1       0.715   5.941   0.000  0.00  0.00    +0.000 OA
ATOM     10  O   UNL     1       1.429   7.179   0.000  0.00  0.00    +0.000 OA
ATOM     11  C   UNL     1      -0.715   6.766   0.000  0.00  0.00    +0.000 A 
ATOM     12  N   UNL     1      -0.715   5.941   0.000  0.00  0.00    +0.000 NA
ATOM     13  C   UNL     1       0.000   5.529   0.000  0.00  0.00    +0.000 C 
ATOM     14  C   UNL     1       0.000   4.704   0.000  0.00  0.00    +0.000 A 
ATOM     15  C   UNL     1       0.667   4.219   0.000  0.00  0.00    +0.000 A 
ATOM     16  C   UNL     1       0.412   3.434   0.000  0.00  0.00    +0.000 A 
ATOM     17  C   UNL     1      -0.412   3.434   0.000  0.00  0.00    +0.000 A 
ATOM     18  O   UNL     1      -0.667   4.219   0.000  0.00  0.00    +0.000 OA
ATOM     19  C   UNL     1      -1.429   7.179   0.000  0.00  0.00    +0.000 A 
ATOM     20  C   UNL     1      -1.429   8.004   0.000  0.00  0.00    +0.000 A 
ATOM     21 CL   UNL     1      -2.143   8.416   0.000  0.00  0.00    +0.000 Cl
ENDROOT
TORSDOF 0
