ROOT
REMARK  Name = gadopiclenol
REMARK                            x       y       z     vdW  Elec       q    Type
REMARK                         _______ _______ _______ _____ _____    ______ ____
ATOM      1 GD   UNL     1       1.135   6.465   0.000  0.00  0.00    +0.000 Gd
REMARK  Name = gadopiclenol
REMARK                            x       y       z     vdW  Elec       q    Type
REMARK                         _______ _______ _______ _____ _____    ______ ____
ATOM      1  O   UNL     1       6.626   3.293   0.000  0.00  0.00    +0.000 OA
ATOM      2  C   UNL     1       6.002   3.833   0.000  0.00  0.00    +0.000 C 
ATOM      3  C   UNL     1       6.158   4.643   0.000  0.00  0.00    +0.000 C 
ATOM      4  O   UNL     1       6.938   4.913   0.000  0.00  0.00    +0.000 OA
ATOM      5  C   UNL     1       5.534   5.183   0.000  0.00  0.00    +0.000 C 
ATOM      6  N   UNL     1       5.690   5.993   0.000  0.00  0.00    +0.000 NA
ATOM      7  C   UNL     1       5.067   6.533   0.000  0.00  0.00    +0.000 C 
ATOM      8  O   UNL     1       4.287   6.263   0.000  0.00  0.00    +0.000 OA
ATOM      9  C   UNL     1       5.223   7.343   0.000  0.00  0.00    +0.000 C 
ATOM     10  C   UNL     1       4.599   7.883   0.000  0.00  0.00    +0.000 C 
ATOM     11  C   UNL     1       4.755   8.694   0.000  0.00  0.00    +0.000 C 
ATOM     12  N   UNL     1       4.131   9.234   0.000  0.00  0.00    +0.000 NA
ATOM     13  C   UNL     1       4.814   9.696   0.000  0.00  0.00    +0.000 C 
ATOM     14  C   UNL     1       4.755  10.519   0.000  0.00  0.00    +0.000 C 
ATOM     15  N   UNL     1       4.013  10.879   0.000  0.00  0.00    +0.000 NA
ATOM     16  C   UNL     1       3.550  11.562   0.000  0.00  0.00    +0.000 C 
ATOM     17  C   UNL     1       2.728  11.503   0.000  0.00  0.00    +0.000 A 
ATOM     18  C   UNL     1       2.104  12.043   0.000  0.00  0.00    +0.000 A 
ATOM     19  C   UNL     1       1.324  11.773   0.000  0.00  0.00    +0.000 A 
ATOM     20  C   UNL     1       1.168  10.963   0.000  0.00  0.00    +0.000 A 
ATOM     21  C   UNL     1       1.684  10.299   0.000  0.00  0.00    +0.000 A 
ATOM     22  C   UNL     1       1.743   9.476   0.000  0.00  0.00    +0.000 C 
ATOM     23  N   UNL     1       2.485   9.115   0.000  0.00  0.00    +0.000 NA
ATOM     24  C   UNL     1       2.948   8.432   0.000  0.00  0.00    +0.000 C 
ATOM     25  C   UNL     1       3.771   8.491   0.000  0.00  0.00    +0.000 C 
ATOM     26  C   UNL     1       1.945   8.492   0.000  0.00  0.00    +0.000 C 
ATOM     27  C   UNL     1       1.135   8.648   0.000  0.00  0.00    +0.000 C 
ATOM     28  C   UNL     1       0.595   8.024   0.000  0.00  0.00    +0.000 C 
ATOM     29  C   UNL     1      -0.215   8.180   0.000  0.00  0.00    +0.000 C 
ATOM     30  O   UNL     1      -0.485   8.960   0.000  0.00  0.00    +0.000 OA
ATOM     31  N   UNL     1      -0.755   7.556   0.000  0.00  0.00    +0.000 NA
ATOM     32  C   UNL     1      -1.565   7.712   0.000  0.00  0.00    +0.000 C 
ATOM     33  C   UNL     1      -2.105   7.089   0.000  0.00  0.00    +0.000 C 
ATOM     34  O   UNL     1      -1.835   6.309   0.000  0.00  0.00    +0.000 OA
ATOM     35  C   UNL     1      -2.916   7.245   0.000  0.00  0.00    +0.000 C 
ATOM     36  O   UNL     1      -3.456   6.621   0.000  0.00  0.00    +0.000 OA
ATOM     37  C   UNL     1       2.215   7.712   0.000  0.00  0.00    +0.000 C 
ATOM     38  O   UNL     1       1.675   7.089   0.000  0.00  0.00    +0.000 OA
ATOM     39  O   UNL     1       3.026   7.556   0.000  0.00  0.00    +0.000 OA
ATOM     40  N   UNL     1       2.367  10.761   0.000  0.00  0.00    +0.000 NA
ATOM     41  C   UNL     1       4.553  11.503   0.000  0.00  0.00    +0.000 C 
ATOM     42  C   UNL     1       5.363  11.347   0.000  0.00  0.00    +0.000 C 
ATOM     43  C   UNL     1       5.903  11.971   0.000  0.00  0.00    +0.000 C 
ATOM     44  C   UNL     1       6.713  11.815   0.000  0.00  0.00    +0.000 C 
ATOM     45  O   UNL     1       6.984  11.035   0.000  0.00  0.00    +0.000 OA
ATOM     46  N   UNL     1       7.253  12.438   0.000  0.00  0.00    +0.000 NA
ATOM     47  C   UNL     1       8.064  12.283   0.000  0.00  0.00    +0.000 C 
ATOM     48  C   UNL     1       8.604  12.906   0.000  0.00  0.00    +0.000 C 
ATOM     49  O   UNL     1       8.334  13.686   0.000  0.00  0.00    +0.000 OA
ATOM     50  C   UNL     1       9.414  12.750   0.000  0.00  0.00    +0.000 C 
ATOM     51  O   UNL     1       9.954  13.374   0.000  0.00  0.00    +0.000 OA
ATOM     52  C   UNL     1       4.283  12.283   0.000  0.00  0.00    +0.000 C 
ATOM     53  O   UNL     1       3.473  12.438   0.000  0.00  0.00    +0.000 OA
ATOM     54  O   UNL     1       4.823  12.906   0.000  0.00  0.00    +0.000 OA
ATOM     55  C   UNL     1       5.534   8.963   0.000  0.00  0.00    +0.000 C 
ATOM     56  O   UNL     1       5.690   9.774   0.000  0.00  0.00    +0.000 OA
ATOM     57  O   UNL     1       6.158   8.424   0.000  0.00  0.00    +0.000 OA
ENDROOT
TORSDOF 0
