ROOT
REMARK  Name = ganciclovir
REMARK                            x       y       z     vdW  Elec       q    Type
REMARK                         _______ _______ _______ _____ _____    ______ ____
ATOM      1  N   UNL     1      -1.924   5.887   0.000  0.00  0.00    +0.000 NA
ATOM      2  C   UNL     1      -2.476   5.274   0.000  0.00  0.00    +0.000 A 
ATOM      3  N   UNL     1      -2.221   4.490   0.000  0.00  0.00    +0.000 NA
ATOM      4  C   UNL     1      -2.773   3.877   0.000  0.00  0.00    +0.000 A 
ATOM      5  C   UNL     1      -3.580   4.048   0.000  0.00  0.00    +0.000 A 
ATOM      6  N   UNL     1      -3.992   3.334   0.000  0.00  0.00    +0.000 NA
ATOM      7  C   UNL     1      -3.440   2.720   0.000  0.00  0.00    +0.000 A 
ATOM      8  N   UNL     1      -2.687   3.056   0.000  0.00  0.00    +0.000 N 
ATOM      9  C   UNL     1      -1.972   2.644   0.000  0.00  0.00    +0.000 C 
ATOM     10  O   UNL     1      -1.972   1.819   0.000  0.00  0.00    +0.000 OA
ATOM     11  C   UNL     1      -1.258   1.406   0.000  0.00  0.00    +0.000 C 
ATOM     12  C   UNL     1      -1.258   0.581   0.000  0.00  0.00    +0.000 C 
ATOM     13  O   UNL     1      -0.543   0.169   0.000  0.00  0.00    +0.000 OA
ATOM     14  C   UNL     1      -0.543   1.819   0.000  0.00  0.00    +0.000 C 
ATOM     15  O   UNL     1       0.171   1.406   0.000  0.00  0.00    +0.000 OA
ATOM     16  C   UNL     1      -3.835   4.833   0.000  0.00  0.00    +0.000 A 
ATOM     17  O   UNL     1      -4.642   5.004   0.000  0.00  0.00    +0.000 OA
ATOM     18  N   UNL     1      -3.283   5.446   0.000  0.00  0.00    +0.000 NA
ENDROOT
TORSDOF 0
