ROOT
REMARK  Name = gefarnate
REMARK                            x       y       z     vdW  Elec       q    Type
REMARK                         _______ _______ _______ _____ _____    ______ ____
ATOM      1  C   UNL     1      -1.812   8.029   0.000  0.00  0.00    +0.000 C 
ATOM      2  C   UNL     1      -1.097   7.616   0.000  0.00  0.00    +0.000 C 
ATOM      3  C   UNL     1      -0.383   8.029   0.000  0.00  0.00    +0.000 C 
ATOM      4  C   UNL     1      -1.097   6.791   0.000  0.00  0.00    +0.000 C 
ATOM      5  C   UNL     1      -0.383   6.379   0.000  0.00  0.00    +0.000 C 
ATOM      6  C   UNL     1      -0.383   5.554   0.000  0.00  0.00    +0.000 C 
ATOM      7  C   UNL     1       0.332   5.141   0.000  0.00  0.00    +0.000 C 
ATOM      8  C   UNL     1       1.046   5.554   0.000  0.00  0.00    +0.000 C 
ATOM      9  C   UNL     1       0.332   4.316   0.000  0.00  0.00    +0.000 C 
ATOM     10  C   UNL     1       1.046   3.904   0.000  0.00  0.00    +0.000 C 
ATOM     11  C   UNL     1       1.046   3.079   0.000  0.00  0.00    +0.000 C 
ATOM     12  C   UNL     1       1.760   2.666   0.000  0.00  0.00    +0.000 C 
ATOM     13  C   UNL     1       2.475   3.079   0.000  0.00  0.00    +0.000 C 
ATOM     14  C   UNL     1       1.760   1.841   0.000  0.00  0.00    +0.000 C 
ATOM     15  C   UNL     1       2.475   1.429   0.000  0.00  0.00    +0.000 C 
ATOM     16  C   UNL     1       3.189   1.841   0.000  0.00  0.00    +0.000 C 
ATOM     17  C   UNL     1       3.904   1.429   0.000  0.00  0.00    +0.000 C 
ATOM     18  O   UNL     1       3.904   0.604   0.000  0.00  0.00    +0.000 OA
ATOM     19  O   UNL     1       4.618   1.841   0.000  0.00  0.00    +0.000 OA
ATOM     20  C   UNL     1       5.333   1.429   0.000  0.00  0.00    +0.000 C 
ATOM     21  C   UNL     1       6.047   1.841   0.000  0.00  0.00    +0.000 C 
ATOM     22  C   UNL     1       6.762   1.429   0.000  0.00  0.00    +0.000 C 
ATOM     23  C   UNL     1       6.762   0.604   0.000  0.00  0.00    +0.000 C 
ATOM     24  C   UNL     1       7.476   1.841   0.000  0.00  0.00    +0.000 C 
ATOM     25  C   UNL     1       8.191   1.429   0.000  0.00  0.00    +0.000 C 
ATOM     26  C   UNL     1       8.905   1.841   0.000  0.00  0.00    +0.000 C 
ATOM     27  C   UNL     1       9.620   1.429   0.000  0.00  0.00    +0.000 C 
ATOM     28  C   UNL     1      10.334   1.841   0.000  0.00  0.00    +0.000 C 
ATOM     29  C   UNL     1       9.620   0.604   0.000  0.00  0.00    +0.000 C 
ENDROOT
TORSDOF 0
