ROOT
REMARK  Name = gefapixant
REMARK                            x       y       z     vdW  Elec       q    Type
REMARK                         _______ _______ _______ _____ _____    ______ ____
ATOM      1  C   UNL     1       2.858   0.000   0.000  0.00  0.00    +0.000 C 
ATOM      2  O   UNL     1       2.143  -0.412   0.000  0.00  0.00    +0.000 OA
ATOM      3  C   UNL     1       2.143  -1.238   0.000  0.00  0.00    +0.000 A 
ATOM      4  C   UNL     1       1.429  -1.650   0.000  0.00  0.00    +0.000 A 
ATOM      5  C   UNL     1       1.429  -2.475   0.000  0.00  0.00    +0.000 A 
ATOM      6  C   UNL     1       2.143  -2.888   0.000  0.00  0.00    +0.000 A 
ATOM      7  O   UNL     1       2.143  -3.712   0.000  0.00  0.00    +0.000 OA
ATOM      8  C   UNL     1       1.429  -4.125   0.000  0.00  0.00    +0.000 A 
ATOM      9  C   UNL     1       1.429  -4.950   0.000  0.00  0.00    +0.000 A 
ATOM     10  N   UNL     1       2.143  -5.362   0.000  0.00  0.00    +0.000 NA
ATOM     11  N   UNL     1       0.715  -5.362   0.000  0.00  0.00    +0.000 NA
ATOM     12  C   UNL     1       0.000  -4.950   0.000  0.00  0.00    +0.000 A 
ATOM     13  N   UNL     1      -0.715  -5.362   0.000  0.00  0.00    +0.000 NA
ATOM     14  N   UNL     1       0.000  -4.125   0.000  0.00  0.00    +0.000 NA
ATOM     15  C   UNL     1       0.715  -3.712   0.000  0.00  0.00    +0.000 A 
ATOM     16  C   UNL     1       2.858  -2.475   0.000  0.00  0.00    +0.000 A 
ATOM     17  C   UNL     1       2.858  -1.650   0.000  0.00  0.00    +0.000 A 
ATOM     18  C   UNL     1       3.572  -2.888   0.000  0.00  0.00    +0.000 C 
ATOM     19  C   UNL     1       4.287  -2.475   0.000  0.00  0.00    +0.000 C 
ATOM     20  C   UNL     1       3.572  -3.712   0.000  0.00  0.00    +0.000 C 
ATOM     21  S   UNL     1       0.715  -1.238   0.000  0.00  0.00    +0.000 S 
ATOM     22  N   UNL     1       0.000  -0.825   0.000  0.00  0.00    +0.000 NA
ATOM     23  O   UNL     1       0.302  -1.952   0.000  0.00  0.00    +0.000 OA
ATOM     24  O   UNL     1       1.127  -0.523   0.000  0.00  0.00    +0.000 OA
ENDROOT
TORSDOF 0
