ROOT
REMARK  Name = glafenine
REMARK                            x       y       z     vdW  Elec       q    Type
REMARK                         _______ _______ _______ _____ _____    ______ ____
ATOM      1  O   UNL     1       6.430   0.412   0.000  0.00  0.00    +0.000 OA
ATOM      2  C   UNL     1       7.145   0.825   0.000  0.00  0.00    +0.000 C 
ATOM      3  C   UNL     1       7.859   0.412   0.000  0.00  0.00    +0.000 C 
ATOM      4  O   UNL     1       7.859  -0.412   0.000  0.00  0.00    +0.000 OA
ATOM      5  C   UNL     1       8.574   0.825   0.000  0.00  0.00    +0.000 C 
ATOM      6  O   UNL     1       9.288   0.412   0.000  0.00  0.00    +0.000 OA
ATOM      7  C   UNL     1      10.003   0.825   0.000  0.00  0.00    +0.000 C 
ATOM      8  O   UNL     1      10.003   1.650   0.000  0.00  0.00    +0.000 OA
ATOM      9  C   UNL     1      10.717   0.412   0.000  0.00  0.00    +0.000 A 
ATOM     10  C   UNL     1      11.431   0.825   0.000  0.00  0.00    +0.000 A 
ATOM     11  N   UNL     1      11.431   1.650   0.000  0.00  0.00    +0.000 NA
ATOM     12  C   UNL     1      12.146   2.062   0.000  0.00  0.00    +0.000 A 
ATOM     13  C   UNL     1      12.146   2.888   0.000  0.00  0.00    +0.000 A 
ATOM     14  C   UNL     1      12.861   3.300   0.000  0.00  0.00    +0.000 A 
ATOM     15  N   UNL     1      13.575   2.888   0.000  0.00  0.00    +0.000 NA
ATOM     16  C   UNL     1      13.575   2.062   0.000  0.00  0.00    +0.000 A 
ATOM     17  C   UNL     1      14.289   1.650   0.000  0.00  0.00    +0.000 A 
ATOM     18  C   UNL     1      14.289   0.825   0.000  0.00  0.00    +0.000 A 
ATOM     19 CL   UNL     1      15.004   0.412   0.000  0.00  0.00    +0.000 Cl
ATOM     20  C   UNL     1      13.575   0.412   0.000  0.00  0.00    +0.000 A 
ATOM     21  C   UNL     1      12.861   0.825   0.000  0.00  0.00    +0.000 A 
ATOM     22  C   UNL     1      12.861   1.650   0.000  0.00  0.00    +0.000 A 
ATOM     23  C   UNL     1      12.146   0.412   0.000  0.00  0.00    +0.000 A 
ATOM     24  C   UNL     1      12.146  -0.412   0.000  0.00  0.00    +0.000 A 
ATOM     25  C   UNL     1      11.431  -0.825   0.000  0.00  0.00    +0.000 A 
ATOM     26  C   UNL     1      10.717  -0.412   0.000  0.00  0.00    +0.000 A 
ENDROOT
TORSDOF 0
