ROOT
REMARK  Name = glucose-1-phosphate
REMARK                            x       y       z     vdW  Elec       q    Type
REMARK                         _______ _______ _______ _____ _____    ______ ____
ATOM      1  O   UNL     1       0.000   2.475   0.000  0.00  0.00    +0.000 OA
ATOM      2  C   UNL     1       0.715   2.062   0.000  0.00  0.00    +0.000 C 
ATOM      3  C   UNL     1       0.715   1.238   0.000  0.00  0.00    +0.000 C 
ATOM      4  O   UNL     1       1.429   0.825   0.000  0.00  0.00    +0.000 OA
ATOM      5  C   UNL     1       1.429   0.000   0.000  0.00  0.00    +0.000 C 
ATOM      6  O   UNL     1       2.143  -0.412   0.000  0.00  0.00    +0.000 OA
ATOM      7  P   UNL     1       2.858   0.000   0.000  0.00  0.00    +0.000 P 
ATOM      8  O   UNL     1       3.572   0.412   0.000  0.00  0.00    +0.000 OA
ATOM      9  O   UNL     1       3.270  -0.715   0.000  0.00  0.00    +0.000 OA
ATOM     10  O   UNL     1       2.445   0.715   0.000  0.00  0.00    +0.000 OA
ATOM     11  C   UNL     1       0.715  -0.412   0.000  0.00  0.00    +0.000 C 
ATOM     12  O   UNL     1       0.715  -1.238   0.000  0.00  0.00    +0.000 OA
ATOM     13  C   UNL     1       0.000   0.000   0.000  0.00  0.00    +0.000 C 
ATOM     14  O   UNL     1      -0.715  -0.412   0.000  0.00  0.00    +0.000 OA
ATOM     15  C   UNL     1       0.000   0.825   0.000  0.00  0.00    +0.000 C 
ATOM     16  O   UNL     1      -0.715   1.238   0.000  0.00  0.00    +0.000 OA
ENDROOT
TORSDOF 0
