ROOT
REMARK  Name = glucurolactone
REMARK                            x       y       z     vdW  Elec       q    Type
REMARK                         _______ _______ _______ _____ _____    ______ ____
ATOM      1  O   UNL     1       1.282   2.352   0.000  0.00  0.00    +0.000 OA
ATOM      2  C   UNL     1       0.568   1.939   0.000  0.00  0.00    +0.000 C 
ATOM      3  C   UNL     1      -0.147   2.352   0.000  0.00  0.00    +0.000 C 
ATOM      4  O   UNL     1      -0.147   3.177   0.000  0.00  0.00    +0.000 OA
ATOM      5  C   UNL     1       0.568   1.114   0.000  0.00  0.00    +0.000 C 
ATOM      6  O   UNL     1       1.235   0.629   0.000  0.00  0.00    +0.000 OA
ATOM      7  C   UNL     1       0.980  -0.155   0.000  0.00  0.00    +0.000 C 
ATOM      8  O   UNL     1       1.465  -0.823   0.000  0.00  0.00    +0.000 OA
ATOM      9  C   UNL     1       0.155  -0.155   0.000  0.00  0.00    +0.000 C 
ATOM     10  O   UNL     1      -0.330  -0.823   0.000  0.00  0.00    +0.000 OA
ATOM     11  C   UNL     1      -0.100   0.629   0.000  0.00  0.00    +0.000 C 
ATOM     12  O   UNL     1      -0.884   0.884   0.000  0.00  0.00    +0.000 OA
ENDROOT
TORSDOF 0
