ROOT
REMARK  Name = glyceryl trinitrate
REMARK                            x       y       z     vdW  Elec       q    Type
REMARK                         _______ _______ _______ _____ _____    ______ ____
ATOM      1  O   UNL     1       2.998   2.556   0.000  0.00  0.00    +0.000 OA
ATOM      2  N   UNL     1       3.712   2.143   0.000  0.00  0.00    +0.000 N 
ATOM      3  O   UNL     1       3.712   1.318   0.000  0.00  0.00    +0.000 OA
ATOM      4  O   UNL     1       4.427   2.556   0.000  0.00  0.00    +0.000 OA
ATOM      5  C   UNL     1       5.141   2.143   0.000  0.00  0.00    +0.000 C 
ATOM      6  C   UNL     1       5.856   2.556   0.000  0.00  0.00    +0.000 C 
ATOM      7  C   UNL     1       6.570   2.143   0.000  0.00  0.00    +0.000 C 
ATOM      8  O   UNL     1       7.285   2.556   0.000  0.00  0.00    +0.000 OA
ATOM      9  N   UNL     1       7.999   2.143   0.000  0.00  0.00    +0.000 N 
ATOM     10  O   UNL     1       8.714   2.556   0.000  0.00  0.00    +0.000 OA
ATOM     11  O   UNL     1       7.999   1.318   0.000  0.00  0.00    +0.000 OA
ATOM     12  O   UNL     1       5.856   3.381   0.000  0.00  0.00    +0.000 OA
ATOM     13  N   UNL     1       5.141   3.793   0.000  0.00  0.00    +0.000 N 
ATOM     14  O   UNL     1       4.427   3.381   0.000  0.00  0.00    +0.000 OA
ATOM     15  O   UNL     1       5.141   4.618   0.000  0.00  0.00    +0.000 OA
ENDROOT
TORSDOF 0
