ROOT
REMARK  Name = glycerylphosphorylcholine
REMARK                            x       y       z     vdW  Elec       q    Type
REMARK                         _______ _______ _______ _____ _____    ______ ____
ATOM      1  C   UNL     1       6.188  -3.572   0.000  0.00  0.00    +0.000 C 
ATOM      2  N   UNL     1       5.775  -2.858   0.000  0.00  0.00    +0.000 N 
ATOM      3  C   UNL     1       6.489  -2.445   0.000  0.00  0.00    +0.000 C 
ATOM      4  C   UNL     1       5.061  -3.270   0.000  0.00  0.00    +0.000 C 
ATOM      5  C   UNL     1       5.362  -2.143   0.000  0.00  0.00    +0.000 C 
ATOM      6  C   UNL     1       4.537  -2.143   0.000  0.00  0.00    +0.000 C 
ATOM      7  O   UNL     1       4.125  -1.429   0.000  0.00  0.00    +0.000 OA
ATOM      8  P   UNL     1       3.300  -1.429   0.000  0.00  0.00    +0.000 P 
ATOM      9  O   UNL     1       3.300  -0.604   0.000  0.00  0.00    +0.000 OA
ATOM     10  O   UNL     1       3.300  -2.254   0.000  0.00  0.00    +0.000 OA
ATOM     11  O   UNL     1       2.475  -1.429   0.000  0.00  0.00    +0.000 OA
ATOM     12  C   UNL     1       2.062  -0.715   0.000  0.00  0.00    +0.000 C 
ATOM     13  C   UNL     1       1.238  -0.715   0.000  0.00  0.00    +0.000 C 
ATOM     14  O   UNL     1       0.825  -1.429   0.000  0.00  0.00    +0.000 OA
ATOM     15  C   UNL     1       0.825   0.000   0.000  0.00  0.00    +0.000 C 
ATOM     16  O   UNL     1       0.000   0.000   0.000  0.00  0.00    +0.000 OA
ENDROOT
TORSDOF 0
