ROOT
REMARK  Name = glycobiarsol
REMARK                            x       y       z     vdW  Elec       q    Type
REMARK                         _______ _______ _______ _____ _____    ______ ____
ATOM      1  O   UNL     1      -0.715   3.712   0.000  0.00  0.00    +0.000 OA
ATOM      2  C   UNL     1       0.000   3.300   0.000  0.00  0.00    +0.000 C 
ATOM      3  C   UNL     1       0.000   2.475   0.000  0.00  0.00    +0.000 C 
ATOM      4  O   UNL     1      -0.715   2.062   0.000  0.00  0.00    +0.000 OA
ATOM      5  N   UNL     1       0.715   2.062   0.000  0.00  0.00    +0.000 NA
ATOM      6  C   UNL     1       0.715   1.238   0.000  0.00  0.00    +0.000 A 
ATOM      7  C   UNL     1       1.429   0.825   0.000  0.00  0.00    +0.000 A 
ATOM      8  C   UNL     1       1.429   0.000   0.000  0.00  0.00    +0.000 A 
ATOM      9  C   UNL     1       0.715  -0.412   0.000  0.00  0.00    +0.000 A 
ATOM     10  C   UNL     1       0.000   0.000   0.000  0.00  0.00    +0.000 A 
ATOM     11  C   UNL     1       0.000   0.825   0.000  0.00  0.00    +0.000 A 
ATOM     12 AS   UNL     1       0.715  -1.238   0.000  0.00  0.00    +0.000 As
ATOM     13  O   UNL     1      -0.111  -1.238   0.000  0.00  0.00    +0.000 OA
ATOM     14  O   UNL     1       1.540  -1.238   0.000  0.00  0.00    +0.000 OA
ATOM     15  O   UNL     1       0.715  -2.062   0.000  0.00  0.00    +0.000 OA
ATOM     16 BI   UNL     1       1.429  -2.475   0.000  0.00  0.00    +0.000 Bi
ATOM     17  O   UNL     1       2.143  -2.888   0.000  0.00  0.00    +0.000 OA
ENDROOT
TORSDOF 0
