ROOT
REMARK  Name = goserelin
REMARK                            x       y       z     vdW  Elec       q    Type
REMARK                         _______ _______ _______ _____ _____    ______ ____
ATOM      1  C   UNL     1       2.322  -5.449   0.000  0.00  0.00    +0.000 C 
ATOM      2  C   UNL     1       2.735  -4.735   0.000  0.00  0.00    +0.000 C 
ATOM      3  C   UNL     1       3.560  -4.735   0.000  0.00  0.00    +0.000 C 
ATOM      4  C   UNL     1       2.322  -4.020   0.000  0.00  0.00    +0.000 C 
ATOM      5  C   UNL     1       2.735  -3.306   0.000  0.00  0.00    +0.000 C 
ATOM      6  N   UNL     1       2.322  -2.591   0.000  0.00  0.00    +0.000 NA
ATOM      7  C   UNL     1       1.497  -2.591   0.000  0.00  0.00    +0.000 C 
ATOM      8  O   UNL     1       1.085  -3.306   0.000  0.00  0.00    +0.000 OA
ATOM      9  C   UNL     1       1.085  -1.877   0.000  0.00  0.00    +0.000 C 
ATOM     10  C   UNL     1       1.497  -1.162   0.000  0.00  0.00    +0.000 C 
ATOM     11  O   UNL     1       2.322  -1.162   0.000  0.00  0.00    +0.000 OA
ATOM     12  C   UNL     1       2.735  -0.448   0.000  0.00  0.00    +0.000 C 
ATOM     13  C   UNL     1       3.449  -0.860   0.000  0.00  0.00    +0.000 C 
ATOM     14  C   UNL     1       2.020  -0.035   0.000  0.00  0.00    +0.000 C 
ATOM     15  C   UNL     1       3.147   0.267   0.000  0.00  0.00    +0.000 C 
ATOM     16  N   UNL     1       0.260  -1.877   0.000  0.00  0.00    +0.000 NA
ATOM     17  C   UNL     1      -0.153  -1.162   0.000  0.00  0.00    +0.000 C 
ATOM     18  O   UNL     1       0.260  -0.448   0.000  0.00  0.00    +0.000 OA
ATOM     19  C   UNL     1      -0.978  -1.162   0.000  0.00  0.00    +0.000 C 
ATOM     20  C   UNL     1      -1.390  -1.877   0.000  0.00  0.00    +0.000 C 
ATOM     21  C   UNL     1      -0.978  -2.591   0.000  0.00  0.00    +0.000 A 
ATOM     22  C   UNL     1      -0.153  -2.591   0.000  0.00  0.00    +0.000 A 
ATOM     23  C   UNL     1       0.260  -3.306   0.000  0.00  0.00    +0.000 A 
ATOM     24  C   UNL     1      -0.153  -4.020   0.000  0.00  0.00    +0.000 A 
ATOM     25  O   UNL     1       0.260  -4.735   0.000  0.00  0.00    +0.000 OA
ATOM     26  C   UNL     1      -0.978  -4.020   0.000  0.00  0.00    +0.000 A 
ATOM     27  C   UNL     1      -1.390  -3.306   0.000  0.00  0.00    +0.000 A 
ATOM     28  N   UNL     1      -1.390  -0.448   0.000  0.00  0.00    +0.000 NA
ATOM     29  C   UNL     1      -2.215  -0.448   0.000  0.00  0.00    +0.000 C 
ATOM     30  O   UNL     1      -2.628  -1.162   0.000  0.00  0.00    +0.000 OA
ATOM     31  CA  UNL     1      -2.628   0.267   0.000  0.00  0.00    +0.000 C 
ATOM     32  C   UNL     1      -2.215   0.981   0.000  0.00  0.00    +0.000 C 
ATOM     33  O   UNL     1      -1.390   0.981   0.000  0.00  0.00    +0.000 OA
ATOM     34  N   UNL     1      -3.453   0.267   0.000  0.00  0.00    +0.000 NA
ATOM     35  C   UNL     1      -3.865   0.981   0.000  0.00  0.00    +0.000 C 
ATOM     36  O   UNL     1      -3.453   1.696   0.000  0.00  0.00    +0.000 OA
ATOM     37  CA  UNL     1      -4.690   0.981   0.000  0.00  0.00    +0.000 C 
ATOM     38  CB  UNL     1      -5.103   1.696   0.000  0.00  0.00    +0.000 C 
ATOM     39  CG  UNL     1      -4.690   2.410   0.000  0.00  0.00    +0.000 C 
ATOM     40  CD1 UNL     1      -3.870   2.496   0.000  0.00  0.00    +0.000 C 
ATOM     41  NE1 UNL     1      -3.698   3.303   0.000  0.00  0.00    +0.000 NA
ATOM     42  CE2 UNL     1      -4.413   3.716   0.000  0.00  0.00    +0.000 C 
ATOM     43  CD2 UNL     1      -5.026   3.164   0.000  0.00  0.00    +0.000 C 
ATOM     44  CE3 UNL     1      -5.810   3.419   0.000  0.00  0.00    +0.000 C 
ATOM     45  CZ3 UNL     1      -5.982   4.226   0.000  0.00  0.00    +0.000 C 
ATOM     46  CH2 UNL     1      -5.369   4.778   0.000  0.00  0.00    +0.000 C 
ATOM     47  CZ2 UNL     1      -4.584   4.523   0.000  0.00  0.00    +0.000 C 
ATOM     48  N   UNL     1      -5.103   0.267   0.000  0.00  0.00    +0.000 NA
ATOM     49  C   UNL     1      -4.690  -0.448   0.000  0.00  0.00    +0.000 C 
ATOM     50  O   UNL     1      -3.865  -0.448   0.000  0.00  0.00    +0.000 OA
ATOM     51  CA  UNL     1      -5.103  -1.162   0.000  0.00  0.00    +0.000 C 
ATOM     52  CB  UNL     1      -5.928  -1.162   0.000  0.00  0.00    +0.000 C 
ATOM     53  CG  UNL     1      -6.340  -0.448   0.000  0.00  0.00    +0.000 A 
ATOM     54  CD2 UNL     1      -6.005   0.306   0.000  0.00  0.00    +0.000 A 
ATOM     55  NE2 UNL     1      -6.618   0.858   0.000  0.00  0.00    +0.000 NA
ATOM     56  CE1 UNL     1      -7.332   0.445   0.000  0.00  0.00    +0.000 A 
ATOM     57  ND1 UNL     1      -7.161  -0.362   0.000  0.00  0.00    +0.000 NA
ATOM     58  N   UNL     1      -4.690  -1.877   0.000  0.00  0.00    +0.000 NA
ATOM     59  C   UNL     1      -5.103  -2.591   0.000  0.00  0.00    +0.000 C 
ATOM     60  O   UNL     1      -5.928  -2.591   0.000  0.00  0.00    +0.000 OA
ATOM     61  CA  UNL     1      -4.690  -3.306   0.000  0.00  0.00    +0.000 C 
ATOM     62  C   UNL     1      -5.026  -4.059   0.000  0.00  0.00    +0.000 C 
ATOM     63  C   UNL     1      -4.413  -4.611   0.000  0.00  0.00    +0.000 C 
ATOM     64  C   UNL     1      -3.698  -4.199   0.000  0.00  0.00    +0.000 C 
ATOM     65  O   UNL     1      -2.944  -4.534   0.000  0.00  0.00    +0.000 OA
ATOM     66  N   UNL     1      -3.870  -3.392   0.000  0.00  0.00    +0.000 NA
ATOM     67  C   UNL     1       3.560  -3.306   0.000  0.00  0.00    +0.000 C 
ATOM     68  O   UNL     1       3.972  -2.591   0.000  0.00  0.00    +0.000 OA
ATOM     69  N   UNL     1       3.972  -4.020   0.000  0.00  0.00    +0.000 NA
ATOM     70  C   UNL     1       4.797  -4.020   0.000  0.00  0.00    +0.000 C 
ATOM     71  C   UNL     1       5.210  -3.306   0.000  0.00  0.00    +0.000 C 
ATOM     72  C   UNL     1       6.035  -3.306   0.000  0.00  0.00    +0.000 C 
ATOM     73  C   UNL     1       6.447  -2.591   0.000  0.00  0.00    +0.000 C 
ATOM     74  N   UNL     1       7.272  -2.591   0.000  0.00  0.00    +0.000 NA
ATOM     75  C   UNL     1       7.685  -1.877   0.000  0.00  0.00    +0.000 C 
ATOM     76  N   UNL     1       7.272  -1.162   0.000  0.00  0.00    +0.000 NA
ATOM     77  N   UNL     1       8.510  -1.877   0.000  0.00  0.00    +0.000 NA
ATOM     78  C   UNL     1       5.210  -4.735   0.000  0.00  0.00    +0.000 C 
ATOM     79  O   UNL     1       6.035  -4.735   0.000  0.00  0.00    +0.000 OA
ATOM     80  N   UNL     1       4.797  -5.449   0.000  0.00  0.00    +0.000 N 
ATOM     81  C   UNL     1       3.977  -5.535   0.000  0.00  0.00    +0.000 C 
ATOM     82  C   UNL     1       3.805  -6.342   0.000  0.00  0.00    +0.000 C 
ATOM     83  C   UNL     1       4.520  -6.755   0.000  0.00  0.00    +0.000 C 
ATOM     84  C   UNL     1       5.133  -6.203   0.000  0.00  0.00    +0.000 C 
ATOM     85  C   UNL     1       5.940  -6.374   0.000  0.00  0.00    +0.000 C 
ATOM     86  O   UNL     1       6.195  -7.159   0.000  0.00  0.00    +0.000 OA
ATOM     87  N   UNL     1       6.492  -5.761   0.000  0.00  0.00    +0.000 NA
ATOM     88  N   UNL     1       7.299  -5.933   0.000  0.00  0.00    +0.000 NA
ATOM     89  C   UNL     1       7.851  -5.320   0.000  0.00  0.00    +0.000 C 
ATOM     90  N   UNL     1       8.658  -5.491   0.000  0.00  0.00    +0.000 NA
ATOM     91  O   UNL     1       7.596  -4.535   0.000  0.00  0.00    +0.000 OA
ENDROOT
TORSDOF 0
