ROOT
REMARK  Name = guaiazulen
REMARK                            x       y       z     vdW  Elec       q    Type
REMARK                         _______ _______ _______ _____ _____    ______ ____
ATOM      1  C   UNL     1       3.316   0.261   0.000  0.00  0.00    +0.000 C 
ATOM      2  C   UNL     1       2.500   0.138   0.000  0.00  0.00    +0.000 C 
ATOM      3  C   UNL     1       2.199  -0.630   0.000  0.00  0.00    +0.000 C 
ATOM      4  C   UNL     1       1.986   0.783   0.000  0.00  0.00    +0.000 A 
ATOM      5  C   UNL     1       1.181   0.599   0.000  0.00  0.00    +0.000 A 
ATOM      6  C   UNL     1       0.536   1.114   0.000  0.00  0.00    +0.000 A 
ATOM      7  C   UNL     1      -0.248   0.859   0.000  0.00  0.00    +0.000 A 
ATOM      8  C   UNL     1      -0.503   0.074   0.000  0.00  0.00    +0.000 C 
ATOM      9  C   UNL     1      -0.733   1.526   0.000  0.00  0.00    +0.000 A 
ATOM     10  C   UNL     1      -0.248   2.193   0.000  0.00  0.00    +0.000 A 
ATOM     11  C   UNL     1       0.536   1.939   0.000  0.00  0.00    +0.000 A 
ATOM     12  C   UNL     1       1.181   2.453   0.000  0.00  0.00    +0.000 A 
ATOM     13  C   UNL     1       0.998   3.257   0.000  0.00  0.00    +0.000 C 
ATOM     14  C   UNL     1       1.986   2.269   0.000  0.00  0.00    +0.000 A 
ATOM     15  C   UNL     1       2.344   1.526   0.000  0.00  0.00    +0.000 A 
ENDROOT
TORSDOF 0
