ROOT
REMARK  Name = guanethidine
REMARK                            x       y       z     vdW  Elec       q    Type
REMARK                         _______ _______ _______ _____ _____    ______ ____
ATOM      1  N   UNL     1      -0.975  -2.762   0.000  0.00  0.00    +0.000 NA
ATOM      2  C   UNL     1      -0.260  -3.175   0.000  0.00  0.00    +0.000 C 
ATOM      3  N   UNL     1      -0.260  -4.000   0.000  0.00  0.00    +0.000 NA
ATOM      4  N   UNL     1       0.454  -2.762   0.000  0.00  0.00    +0.000 NA
ATOM      5  C   UNL     1       1.169  -3.175   0.000  0.00  0.00    +0.000 C 
ATOM      6  C   UNL     1       1.883  -2.762   0.000  0.00  0.00    +0.000 C 
ATOM      7  N   UNL     1       2.598  -3.175   0.000  0.00  0.00    +0.000 NA
ATOM      8  C   UNL     1       3.252  -2.673   0.000  0.00  0.00    +0.000 C 
ATOM      9  C   UNL     1       4.070  -2.780   0.000  0.00  0.00    +0.000 C 
ATOM     10  C   UNL     1       4.572  -3.435   0.000  0.00  0.00    +0.000 C 
ATOM     11  C   UNL     1       4.465  -4.253   0.000  0.00  0.00    +0.000 C 
ATOM     12  C   UNL     1       3.810  -4.755   0.000  0.00  0.00    +0.000 C 
ATOM     13  C   UNL     1       2.992  -4.647   0.000  0.00  0.00    +0.000 C 
ATOM     14  C   UNL     1       2.490  -3.993   0.000  0.00  0.00    +0.000 C 
ENDROOT
TORSDOF 0
