ROOT
REMARK  Name = histrelin
REMARK                            x       y       z     vdW  Elec       q    Type
REMARK                         _______ _______ _______ _____ _____    ______ ____
ATOM      1  C   UNL     1      -1.657  -7.951   0.000  0.00  0.00    +0.000 C 
ATOM      2  C   UNL     1      -1.402  -8.735   0.000  0.00  0.00    +0.000 C 
ATOM      3  N   UNL     1      -0.596  -8.907   0.000  0.00  0.00    +0.000 NA
ATOM      4  C   UNL     1      -0.341  -9.691   0.000  0.00  0.00    +0.000 C 
ATOM      5  O   UNL     1      -0.893 -10.305   0.000  0.00  0.00    +0.000 OA
ATOM      6  C   UNL     1       0.466  -9.863   0.000  0.00  0.00    +0.000 C 
ATOM      7  C   UNL     1       1.079  -9.311   0.000  0.00  0.00    +0.000 C 
ATOM      8  C   UNL     1       1.794  -9.723   0.000  0.00  0.00    +0.000 C 
ATOM      9  C   UNL     1       1.623 -10.530   0.000  0.00  0.00    +0.000 C 
ATOM     10  N   UNL     1       0.802 -10.617   0.000  0.00  0.00    +0.000 N 
ATOM     11  C   UNL     1       0.390 -11.331   0.000  0.00  0.00    +0.000 C 
ATOM     12  O   UNL     1      -0.435 -11.331   0.000  0.00  0.00    +0.000 OA
ATOM     13  C   UNL     1       0.802 -12.046   0.000  0.00  0.00    +0.000 C 
ATOM     14  C   UNL     1       0.390 -12.760   0.000  0.00  0.00    +0.000 C 
ATOM     15  C   UNL     1      -0.435 -12.760   0.000  0.00  0.00    +0.000 C 
ATOM     16  C   UNL     1      -0.848 -13.475   0.000  0.00  0.00    +0.000 C 
ATOM     17  N   UNL     1      -1.673 -13.475   0.000  0.00  0.00    +0.000 NA
ATOM     18  C   UNL     1      -2.086 -14.189   0.000  0.00  0.00    +0.000 C 
ATOM     19  N   UNL     1      -1.673 -14.903   0.000  0.00  0.00    +0.000 NA
ATOM     20  N   UNL     1      -2.910 -14.189   0.000  0.00  0.00    +0.000 NA
ATOM     21  N   UNL     1       1.627 -12.046   0.000  0.00  0.00    +0.000 NA
ATOM     22  C   UNL     1       2.039 -12.760   0.000  0.00  0.00    +0.000 C 
ATOM     23  O   UNL     1       1.627 -13.475   0.000  0.00  0.00    +0.000 OA
ATOM     24  C   UNL     1       2.865 -12.760   0.000  0.00  0.00    +0.000 C 
ATOM     25  C   UNL     1       3.277 -12.046   0.000  0.00  0.00    +0.000 C 
ATOM     26  C   UNL     1       2.865 -11.331   0.000  0.00  0.00    +0.000 C 
ATOM     27  C   UNL     1       2.039 -11.331   0.000  0.00  0.00    +0.000 C 
ATOM     28  C   UNL     1       3.277 -10.617   0.000  0.00  0.00    +0.000 C 
ATOM     29  N   UNL     1       3.277 -13.475   0.000  0.00  0.00    +0.000 NA
ATOM     30  C   UNL     1       4.102 -13.475   0.000  0.00  0.00    +0.000 C 
ATOM     31  O   UNL     1       4.514 -12.760   0.000  0.00  0.00    +0.000 OA
ATOM     32  C   UNL     1       4.514 -14.189   0.000  0.00  0.00    +0.000 C 
ATOM     33  C   UNL     1       4.102 -14.903   0.000  0.00  0.00    +0.000 C 
ATOM     34  C   UNL     1       3.277 -14.903   0.000  0.00  0.00    +0.000 A 
ATOM     35  C   UNL     1       2.792 -15.571   0.000  0.00  0.00    +0.000 A 
ATOM     36  N   UNL     1       2.007 -15.316   0.000  0.00  0.00    +0.000 N 
ATOM     37  C   UNL     1       1.340 -15.801   0.000  0.00  0.00    +0.000 C 
ATOM     38  C   UNL     1       0.586 -15.465   0.000  0.00  0.00    +0.000 A 
ATOM     39  C   UNL     1      -0.081 -15.950   0.000  0.00  0.00    +0.000 A 
ATOM     40  C   UNL     1      -0.835 -15.615   0.000  0.00  0.00    +0.000 A 
ATOM     41  C   UNL     1      -0.921 -14.794   0.000  0.00  0.00    +0.000 A 
ATOM     42  C   UNL     1      -0.254 -14.309   0.000  0.00  0.00    +0.000 A 
ATOM     43  C   UNL     1       0.500 -14.645   0.000  0.00  0.00    +0.000 A 
ATOM     44  C   UNL     1       2.007 -14.491   0.000  0.00  0.00    +0.000 A 
ATOM     45  N   UNL     1       2.792 -14.236   0.000  0.00  0.00    +0.000 NA
ATOM     46  N   UNL     1       5.340 -14.189   0.000  0.00  0.00    +0.000 NA
ATOM     47  C   UNL     1       5.752 -14.903   0.000  0.00  0.00    +0.000 C 
ATOM     48  O   UNL     1       5.340 -15.618   0.000  0.00  0.00    +0.000 OA
ATOM     49  C   UNL     1       6.577 -14.903   0.000  0.00  0.00    +0.000 C 
ATOM     50  C   UNL     1       6.989 -14.189   0.000  0.00  0.00    +0.000 C 
ATOM     51  C   UNL     1       6.577 -13.475   0.000  0.00  0.00    +0.000 A 
ATOM     52  C   UNL     1       5.752 -13.475   0.000  0.00  0.00    +0.000 A 
ATOM     53  C   UNL     1       5.340 -12.760   0.000  0.00  0.00    +0.000 A 
ATOM     54  C   UNL     1       5.752 -12.046   0.000  0.00  0.00    +0.000 A 
ATOM     55  O   UNL     1       5.340 -11.331   0.000  0.00  0.00    +0.000 OA
ATOM     56  C   UNL     1       6.577 -12.046   0.000  0.00  0.00    +0.000 A 
ATOM     57  C   UNL     1       6.989 -12.760   0.000  0.00  0.00    +0.000 A 
ATOM     58  N   UNL     1       6.989 -15.618   0.000  0.00  0.00    +0.000 NA
ATOM     59  C   UNL     1       7.814 -15.618   0.000  0.00  0.00    +0.000 C 
ATOM     60  O   UNL     1       8.227 -14.903   0.000  0.00  0.00    +0.000 OA
ATOM     61  CA  UNL     1       8.227 -16.332   0.000  0.00  0.00    +0.000 C 
ATOM     62  C   UNL     1       7.814 -17.047   0.000  0.00  0.00    +0.000 C 
ATOM     63  O   UNL     1       6.989 -17.047   0.000  0.00  0.00    +0.000 OA
ATOM     64  N   UNL     1       9.052 -16.332   0.000  0.00  0.00    +0.000 NA
ATOM     65  C   UNL     1       9.464 -17.047   0.000  0.00  0.00    +0.000 C 
ATOM     66  O   UNL     1       9.052 -17.761   0.000  0.00  0.00    +0.000 OA
ATOM     67  CA  UNL     1      10.290 -17.047   0.000  0.00  0.00    +0.000 C 
ATOM     68  CB  UNL     1      10.702 -17.761   0.000  0.00  0.00    +0.000 C 
ATOM     69  CG  UNL     1      10.290 -18.476   0.000  0.00  0.00    +0.000 C 
ATOM     70  CD1 UNL     1       9.469 -18.562   0.000  0.00  0.00    +0.000 C 
ATOM     71  NE1 UNL     1       9.297 -19.369   0.000  0.00  0.00    +0.000 NA
ATOM     72  CE2 UNL     1      10.012 -19.782   0.000  0.00  0.00    +0.000 C 
ATOM     73  CD2 UNL     1      10.625 -19.230   0.000  0.00  0.00    +0.000 C 
ATOM     74  CE3 UNL     1      11.410 -19.484   0.000  0.00  0.00    +0.000 C 
ATOM     75  CZ3 UNL     1      11.581 -20.291   0.000  0.00  0.00    +0.000 C 
ATOM     76  CH2 UNL     1      10.968 -20.843   0.000  0.00  0.00    +0.000 C 
ATOM     77  CZ2 UNL     1      10.184 -20.588   0.000  0.00  0.00    +0.000 C 
ATOM     78  N   UNL     1      10.702 -16.332   0.000  0.00  0.00    +0.000 NA
ATOM     79  C   UNL     1      10.290 -15.618   0.000  0.00  0.00    +0.000 C 
ATOM     80  O   UNL     1       9.464 -15.618   0.000  0.00  0.00    +0.000 OA
ATOM     81  CA  UNL     1      10.702 -14.903   0.000  0.00  0.00    +0.000 C 
ATOM     82  CB  UNL     1      11.527 -14.903   0.000  0.00  0.00    +0.000 C 
ATOM     83  CG  UNL     1      11.940 -15.618   0.000  0.00  0.00    +0.000 A 
ATOM     84  CD2 UNL     1      12.760 -15.704   0.000  0.00  0.00    +0.000 A 
ATOM     85  NE2 UNL     1      12.931 -16.511   0.000  0.00  0.00    +0.000 NA
ATOM     86  CE1 UNL     1      12.217 -16.924   0.000  0.00  0.00    +0.000 A 
ATOM     87  ND1 UNL     1      11.604 -16.372   0.000  0.00  0.00    +0.000 NA
ATOM     88  N   UNL     1      10.290 -14.189   0.000  0.00  0.00    +0.000 NA
ATOM     89  C   UNL     1      10.702 -13.475   0.000  0.00  0.00    +0.000 C 
ATOM     90  O   UNL     1      11.527 -13.475   0.000  0.00  0.00    +0.000 OA
ATOM     91  CA  UNL     1      10.290 -12.760   0.000  0.00  0.00    +0.000 C 
ATOM     92  C   UNL     1      10.625 -12.006   0.000  0.00  0.00    +0.000 C 
ATOM     93  C   UNL     1      10.012 -11.454   0.000  0.00  0.00    +0.000 C 
ATOM     94  C   UNL     1       9.297 -11.867   0.000  0.00  0.00    +0.000 C 
ATOM     95  O   UNL     1       8.544 -11.531   0.000  0.00  0.00    +0.000 OA
ATOM     96  N   UNL     1       9.469 -12.674   0.000  0.00  0.00    +0.000 NA
ENDROOT
TORSDOF 0
