ROOT
REMARK  Name = hydroxychloroquine
REMARK                            x       y       z     vdW  Elec       q    Type
REMARK                         _______ _______ _______ _____ _____    ______ ____
ATOM      1  C   UNL     1       8.574   1.650   0.000  0.00  0.00    +0.000 C 
ATOM      2  C   UNL     1       7.859   1.238   0.000  0.00  0.00    +0.000 C 
ATOM      3  N   UNL     1       7.859   0.412   0.000  0.00  0.00    +0.000 NA
ATOM      4  C   UNL     1       7.145   0.000   0.000  0.00  0.00    +0.000 C 
ATOM      5  C   UNL     1       6.430   0.412   0.000  0.00  0.00    +0.000 C 
ATOM      6  O   UNL     1       5.716   0.000   0.000  0.00  0.00    +0.000 OA
ATOM      7  C   UNL     1       8.574   0.000   0.000  0.00  0.00    +0.000 C 
ATOM      8  C   UNL     1       9.288   0.412   0.000  0.00  0.00    +0.000 C 
ATOM      9  C   UNL     1      10.003   0.000   0.000  0.00  0.00    +0.000 C 
ATOM     10  C   UNL     1      10.717   0.412   0.000  0.00  0.00    +0.000 C 
ATOM     11  C   UNL     1      10.717   1.238   0.000  0.00  0.00    +0.000 C 
ATOM     12  N   UNL     1      11.431   0.000   0.000  0.00  0.00    +0.000 NA
ATOM     13  C   UNL     1      12.146   0.412   0.000  0.00  0.00    +0.000 A 
ATOM     14  C   UNL     1      12.146   1.238   0.000  0.00  0.00    +0.000 A 
ATOM     15  C   UNL     1      12.861   1.650   0.000  0.00  0.00    +0.000 A 
ATOM     16  N   UNL     1      13.575   1.238   0.000  0.00  0.00    +0.000 NA
ATOM     17  C   UNL     1      13.575   0.412   0.000  0.00  0.00    +0.000 A 
ATOM     18  C   UNL     1      14.289   0.000   0.000  0.00  0.00    +0.000 A 
ATOM     19  C   UNL     1      14.289  -0.825   0.000  0.00  0.00    +0.000 A 
ATOM     20 CL   UNL     1      15.004  -1.238   0.000  0.00  0.00    +0.000 Cl
ATOM     21  C   UNL     1      13.575  -1.238   0.000  0.00  0.00    +0.000 A 
ATOM     22  C   UNL     1      12.861  -0.825   0.000  0.00  0.00    +0.000 A 
ATOM     23  C   UNL     1      12.861   0.000   0.000  0.00  0.00    +0.000 A 
ENDROOT
TORSDOF 0
