ROOT
REMARK  Name = ibrutinib
REMARK                            x       y       z     vdW  Elec       q    Type
REMARK                         _______ _______ _______ _____ _____    ______ ____
ATOM      1  N   UNL     1       0.715  -1.238   0.000  0.00  0.00    +0.000 NA
ATOM      2  C   UNL     1       0.715  -0.412   0.000  0.00  0.00    +0.000 A 
ATOM      3  C   UNL     1       0.000   0.000   0.000  0.00  0.00    +0.000 A 
ATOM      4  C   UNL     1       0.000   0.825   0.000  0.00  0.00    +0.000 A 
ATOM      5  N   UNL     1       0.715   1.238   0.000  0.00  0.00    +0.000 NA
ATOM      6  C   UNL     1       1.429   0.825   0.000  0.00  0.00    +0.000 A 
ATOM      7  N   UNL     1       1.429   0.000   0.000  0.00  0.00    +0.000 NA
ATOM      8  N   UNL     1      -0.785   1.080   0.000  0.00  0.00    +0.000 N 
ATOM      9  N   UNL     1      -1.270   0.412   0.000  0.00  0.00    +0.000 NA
ATOM     10  C   UNL     1      -0.785  -0.255   0.000  0.00  0.00    +0.000 A 
ATOM     11  C   UNL     1      -1.040  -1.040   0.000  0.00  0.00    +0.000 A 
ATOM     12  C   UNL     1      -0.487  -1.653   0.000  0.00  0.00    +0.000 A 
ATOM     13  C   UNL     1      -0.743  -2.437   0.000  0.00  0.00    +0.000 A 
ATOM     14  C   UNL     1      -1.549  -2.609   0.000  0.00  0.00    +0.000 A 
ATOM     15  O   UNL     1      -1.804  -3.393   0.000  0.00  0.00    +0.000 OA
ATOM     16  C   UNL     1      -2.611  -3.565   0.000  0.00  0.00    +0.000 A 
ATOM     17  C   UNL     1      -2.866  -4.350   0.000  0.00  0.00    +0.000 A 
ATOM     18  C   UNL     1      -3.673  -4.521   0.000  0.00  0.00    +0.000 A 
ATOM     19  C   UNL     1      -4.225  -3.908   0.000  0.00  0.00    +0.000 A 
ATOM     20  C   UNL     1      -3.970  -3.123   0.000  0.00  0.00    +0.000 A 
ATOM     21  C   UNL     1      -3.163  -2.952   0.000  0.00  0.00    +0.000 A 
ATOM     22  C   UNL     1      -2.102  -1.996   0.000  0.00  0.00    +0.000 A 
ATOM     23  C   UNL     1      -1.847  -1.211   0.000  0.00  0.00    +0.000 A 
ATOM     24  C   UNL     1      -1.040   1.865   0.000  0.00  0.00    +0.000 C 
ATOM     25  C   UNL     1      -1.847   2.036   0.000  0.00  0.00    +0.000 C 
ATOM     26  C   UNL     1      -2.102   2.821   0.000  0.00  0.00    +0.000 C 
ATOM     27  C   UNL     1      -1.549   3.434   0.000  0.00  0.00    +0.000 C 
ATOM     28  N   UNL     1      -0.743   3.262   0.000  0.00  0.00    +0.000 N 
ATOM     29  C   UNL     1      -0.487   2.478   0.000  0.00  0.00    +0.000 C 
ATOM     30  C   UNL     1      -0.190   3.875   0.000  0.00  0.00    +0.000 C 
ATOM     31  O   UNL     1      -0.445   4.660   0.000  0.00  0.00    +0.000 OA
ATOM     32  C   UNL     1       0.617   3.704   0.000  0.00  0.00    +0.000 C 
ATOM     33  C   UNL     1       1.169   4.317   0.000  0.00  0.00    +0.000 C 
ENDROOT
TORSDOF 0
