ROOT
REMARK  Name = ibufenac
REMARK                            x       y       z     vdW  Elec       q    Type
REMARK                         _______ _______ _______ _____ _____    ______ ____
ATOM      1  C   UNL     1       0.000   3.300   0.000  0.00  0.00    +0.000 C 
ATOM      2  C   UNL     1       0.000   2.475   0.000  0.00  0.00    +0.000 C 
ATOM      3  C   UNL     1      -0.715   2.062   0.000  0.00  0.00    +0.000 C 
ATOM      4  C   UNL     1       0.715   2.062   0.000  0.00  0.00    +0.000 C 
ATOM      5  C   UNL     1       0.715   1.238   0.000  0.00  0.00    +0.000 A 
ATOM      6  C   UNL     1       1.429   0.825   0.000  0.00  0.00    +0.000 A 
ATOM      7  C   UNL     1       1.429   0.000   0.000  0.00  0.00    +0.000 A 
ATOM      8  C   UNL     1       0.715  -0.412   0.000  0.00  0.00    +0.000 A 
ATOM      9  C   UNL     1       0.715  -1.238   0.000  0.00  0.00    +0.000 C 
ATOM     10  C   UNL     1       0.000  -1.650   0.000  0.00  0.00    +0.000 C 
ATOM     11  O   UNL     1       0.000  -2.475   0.000  0.00  0.00    +0.000 OA
ATOM     12  O   UNL     1      -0.715  -1.238   0.000  0.00  0.00    +0.000 OA
ATOM     13  C   UNL     1       0.000   0.000   0.000  0.00  0.00    +0.000 A 
ATOM     14  C   UNL     1       0.000   0.825   0.000  0.00  0.00    +0.000 A 
ENDROOT
TORSDOF 0
