ROOT
REMARK  Name = ifenprodil
REMARK                            x       y       z     vdW  Elec       q    Type
REMARK                         _______ _______ _______ _____ _____    ______ ____
ATOM      1  C   UNL     1       4.287  -1.650   0.000  0.00  0.00    +0.000 C 
ATOM      2  C   UNL     1       5.001  -1.238   0.000  0.00  0.00    +0.000 C 
ATOM      3  C   UNL     1       5.716  -1.650   0.000  0.00  0.00    +0.000 C 
ATOM      4  O   UNL     1       6.430  -1.238   0.000  0.00  0.00    +0.000 OA
ATOM      5  C   UNL     1       5.716  -2.475   0.000  0.00  0.00    +0.000 A 
ATOM      6  C   UNL     1       6.430  -2.888   0.000  0.00  0.00    +0.000 A 
ATOM      7  C   UNL     1       6.430  -3.712   0.000  0.00  0.00    +0.000 A 
ATOM      8  C   UNL     1       5.716  -4.125   0.000  0.00  0.00    +0.000 A 
ATOM      9  O   UNL     1       5.716  -4.950   0.000  0.00  0.00    +0.000 OA
ATOM     10  C   UNL     1       5.001  -3.712   0.000  0.00  0.00    +0.000 A 
ATOM     11  C   UNL     1       5.001  -2.888   0.000  0.00  0.00    +0.000 A 
ATOM     12  N   UNL     1       5.001  -0.412   0.000  0.00  0.00    +0.000 NA
ATOM     13  C   UNL     1       4.287   0.000   0.000  0.00  0.00    +0.000 C 
ATOM     14  C   UNL     1       4.287   0.825   0.000  0.00  0.00    +0.000 C 
ATOM     15  C   UNL     1       5.001   1.238   0.000  0.00  0.00    +0.000 C 
ATOM     16  C   UNL     1       5.001   2.062   0.000  0.00  0.00    +0.000 C 
ATOM     17  C   UNL     1       5.716   2.475   0.000  0.00  0.00    +0.000 A 
ATOM     18  C   UNL     1       5.716   3.300   0.000  0.00  0.00    +0.000 A 
ATOM     19  C   UNL     1       6.430   3.712   0.000  0.00  0.00    +0.000 A 
ATOM     20  C   UNL     1       7.145   3.300   0.000  0.00  0.00    +0.000 A 
ATOM     21  C   UNL     1       7.145   2.475   0.000  0.00  0.00    +0.000 A 
ATOM     22  C   UNL     1       6.430   2.062   0.000  0.00  0.00    +0.000 A 
ATOM     23  C   UNL     1       5.716   0.825   0.000  0.00  0.00    +0.000 C 
ATOM     24  C   UNL     1       5.716   0.000   0.000  0.00  0.00    +0.000 C 
ENDROOT
TORSDOF 0
