ROOT
REMARK  Name = ilaprazole
REMARK                            x       y       z     vdW  Elec       q    Type
REMARK                         _______ _______ _______ _____ _____    ______ ____
ATOM      1  C   UNL     1      -5.166  -1.412   0.000  0.00  0.00    +0.000 C 
ATOM      2  O   UNL     1      -4.341  -1.412   0.000  0.00  0.00    +0.000 OA
ATOM      3  C   UNL     1      -3.928  -0.698   0.000  0.00  0.00    +0.000 A 
ATOM      4  C   UNL     1      -4.341   0.017   0.000  0.00  0.00    +0.000 A 
ATOM      5  C   UNL     1      -3.928   0.731   0.000  0.00  0.00    +0.000 A 
ATOM      6  N   UNL     1      -3.103   0.731   0.000  0.00  0.00    +0.000 NA
ATOM      7  C   UNL     1      -2.691   0.017   0.000  0.00  0.00    +0.000 A 
ATOM      8  C   UNL     1      -1.866   0.017   0.000  0.00  0.00    +0.000 C 
ATOM      9  S   UNL     1      -1.453  -0.698   0.000  0.00  0.00    +0.000 S 
ATOM     10  O   UNL     1      -1.866  -1.412   0.000  0.00  0.00    +0.000 OA
ATOM     11  C   UNL     1      -0.628  -0.698   0.000  0.00  0.00    +0.000 C 
ATOM     12  N   UNL     1      -0.143  -1.365   0.000  0.00  0.00    +0.000 NA
ATOM     13  C   UNL     1       0.641  -1.110   0.000  0.00  0.00    +0.000 C 
ATOM     14  C   UNL     1       0.641  -0.285   0.000  0.00  0.00    +0.000 C 
ATOM     15  N   UNL     1      -0.143  -0.030   0.000  0.00  0.00    +0.000 NA
ATOM     16  C   UNL     1       1.356   0.127   0.000  0.00  0.00    +0.000 C 
ATOM     17  C   UNL     1       2.070  -0.285   0.000  0.00  0.00    +0.000 C 
ATOM     18  C   UNL     1       2.070  -1.110   0.000  0.00  0.00    +0.000 C 
ATOM     19  C   UNL     1       1.356  -1.523   0.000  0.00  0.00    +0.000 C 
ATOM     20  N   UNL     1       2.784  -1.523   0.000  0.00  0.00    +0.000 N 
ATOM     21  C   UNL     1       3.538  -1.187   0.000  0.00  0.00    +0.000 A 
ATOM     22  C   UNL     1       4.090  -1.800   0.000  0.00  0.00    +0.000 A 
ATOM     23  C   UNL     1       3.678  -2.515   0.000  0.00  0.00    +0.000 A 
ATOM     24  C   UNL     1       2.871  -2.343   0.000  0.00  0.00    +0.000 A 
ATOM     25  C   UNL     1      -3.103  -0.698   0.000  0.00  0.00    +0.000 A 
ATOM     26  C   UNL     1      -2.691  -1.412   0.000  0.00  0.00    +0.000 C 
ENDROOT
TORSDOF 0
