ROOT
REMARK  Name = iloperidone
REMARK                            x       y       z     vdW  Elec       q    Type
REMARK                         _______ _______ _______ _____ _____    ______ ____
ATOM      1  C   UNL     1      -1.453  -7.029   0.000  0.00  0.00    +0.000 C 
ATOM      2  O   UNL     1      -0.646  -6.858   0.000  0.00  0.00    +0.000 OA
ATOM      3  C   UNL     1      -0.094  -7.471   0.000  0.00  0.00    +0.000 A 
ATOM      4  C   UNL     1       0.713  -7.299   0.000  0.00  0.00    +0.000 A 
ATOM      5  O   UNL     1       0.968  -6.515   0.000  0.00  0.00    +0.000 OA
ATOM      6  C   UNL     1       0.416  -5.902   0.000  0.00  0.00    +0.000 C 
ATOM      7  C   UNL     1       0.671  -5.117   0.000  0.00  0.00    +0.000 C 
ATOM      8  C   UNL     1       0.119  -4.504   0.000  0.00  0.00    +0.000 C 
ATOM      9  N   UNL     1       0.374  -3.719   0.000  0.00  0.00    +0.000 NA
ATOM     10  C   UNL     1      -0.178  -3.106   0.000  0.00  0.00    +0.000 C 
ATOM     11  C   UNL     1       0.077  -2.321   0.000  0.00  0.00    +0.000 C 
ATOM     12  C   UNL     1       0.884  -2.150   0.000  0.00  0.00    +0.000 C 
ATOM     13  C   UNL     1       1.436  -2.763   0.000  0.00  0.00    +0.000 C 
ATOM     14  C   UNL     1       1.181  -3.548   0.000  0.00  0.00    +0.000 C 
ATOM     15  C   UNL     1       1.139  -1.365   0.000  0.00  0.00    +0.000 A 
ATOM     16  N   UNL     1       0.654  -0.698   0.000  0.00  0.00    +0.000 NA
ATOM     17  O   UNL     1       1.139  -0.030   0.000  0.00  0.00    +0.000 OA
ATOM     18  C   UNL     1       1.923  -0.285   0.000  0.00  0.00    +0.000 A 
ATOM     19  C   UNL     1       2.638   0.127   0.000  0.00  0.00    +0.000 A 
ATOM     20  C   UNL     1       3.352  -0.285   0.000  0.00  0.00    +0.000 A 
ATOM     21  F   UNL     1       4.067   0.127   0.000  0.00  0.00    +0.000 F 
ATOM     22  C   UNL     1       3.352  -1.110   0.000  0.00  0.00    +0.000 A 
ATOM     23  C   UNL     1       2.638  -1.523   0.000  0.00  0.00    +0.000 A 
ATOM     24  C   UNL     1       1.923  -1.110   0.000  0.00  0.00    +0.000 A 
ATOM     25  C   UNL     1       1.265  -7.912   0.000  0.00  0.00    +0.000 A 
ATOM     26  C   UNL     1       1.010  -8.697   0.000  0.00  0.00    +0.000 A 
ATOM     27  C   UNL     1       0.203  -8.868   0.000  0.00  0.00    +0.000 A 
ATOM     28  C   UNL     1      -0.349  -8.255   0.000  0.00  0.00    +0.000 A 
ATOM     29  C   UNL     1      -0.052  -9.653   0.000  0.00  0.00    +0.000 C 
ATOM     30  C   UNL     1       0.500 -10.266   0.000  0.00  0.00    +0.000 C 
ATOM     31  O   UNL     1      -0.859  -9.825   0.000  0.00  0.00    +0.000 OA
ENDROOT
TORSDOF 0
