ROOT
REMARK  Name = indacaterol
REMARK                            x       y       z     vdW  Elec       q    Type
REMARK                         _______ _______ _______ _____ _____    ______ ____
ATOM      1  C   UNL     1      -5.210   4.181   0.000  0.00  0.00    +0.000 C 
ATOM      2  C   UNL     1      -4.797   3.467   0.000  0.00  0.00    +0.000 C 
ATOM      3  C   UNL     1      -3.972   3.467   0.000  0.00  0.00    +0.000 A 
ATOM      4  C   UNL     1      -3.560   4.181   0.000  0.00  0.00    +0.000 A 
ATOM      5  C   UNL     1      -3.972   4.896   0.000  0.00  0.00    +0.000 C 
ATOM      6  C   UNL     1      -3.560   5.610   0.000  0.00  0.00    +0.000 C 
ATOM      7  C   UNL     1      -2.735   4.181   0.000  0.00  0.00    +0.000 A 
ATOM      8  C   UNL     1      -2.322   3.467   0.000  0.00  0.00    +0.000 A 
ATOM      9  C   UNL     1      -1.515   3.296   0.000  0.00  0.00    +0.000 C 
ATOM     10  C   UNL     1      -1.429   2.475   0.000  0.00  0.00    +0.000 C 
ATOM     11  C   UNL     1      -2.183   2.139   0.000  0.00  0.00    +0.000 C 
ATOM     12  C   UNL     1      -2.735   2.752   0.000  0.00  0.00    +0.000 A 
ATOM     13  C   UNL     1      -3.560   2.752   0.000  0.00  0.00    +0.000 A 
ATOM     14  N   UNL     1      -0.715   2.062   0.000  0.00  0.00    +0.000 NA
ATOM     15  C   UNL     1      -0.715   1.238   0.000  0.00  0.00    +0.000 C 
ATOM     16  C   UNL     1       0.000   0.825   0.000  0.00  0.00    +0.000 C 
ATOM     17  O   UNL     1       0.715   1.238   0.000  0.00  0.00    +0.000 OA
ATOM     18  C   UNL     1       0.000   0.000   0.000  0.00  0.00    +0.000 A 
ATOM     19  C   UNL     1      -0.715  -0.412   0.000  0.00  0.00    +0.000 A 
ATOM     20  C   UNL     1      -0.715  -1.238   0.000  0.00  0.00    +0.000 A 
ATOM     21  C   UNL     1       0.000  -1.650   0.000  0.00  0.00    +0.000 A 
ATOM     22  O   UNL     1       0.000  -2.475   0.000  0.00  0.00    +0.000 OA
ATOM     23  C   UNL     1       0.715  -1.238   0.000  0.00  0.00    +0.000 A 
ATOM     24  C   UNL     1       0.715  -0.412   0.000  0.00  0.00    +0.000 A 
ATOM     25  C   UNL     1       1.429   0.000   0.000  0.00  0.00    +0.000 A 
ATOM     26  C   UNL     1       2.143  -0.412   0.000  0.00  0.00    +0.000 A 
ATOM     27  C   UNL     1       2.143  -1.238   0.000  0.00  0.00    +0.000 A 
ATOM     28  O   UNL     1       2.858  -1.650   0.000  0.00  0.00    +0.000 OA
ATOM     29  N   UNL     1       1.429  -1.650   0.000  0.00  0.00    +0.000 NA
ENDROOT
TORSDOF 0
