ROOT
REMARK  Name = iodinated glycerol
REMARK                            x       y       z     vdW  Elec       q    Type
REMARK                         _______ _______ _______ _____ _____    ______ ____
ATOM      1  C   UNL     1       1.282   2.352   0.000  0.00  0.00    +0.000 C 
ATOM      2  C   UNL     1       0.568   1.939   0.000  0.00  0.00    +0.000 C 
ATOM      3  I   UNL     1      -0.147   2.352   0.000  0.00  0.00    +0.000 I 
ATOM      4  C   UNL     1       0.568   1.114   0.000  0.00  0.00    +0.000 C 
ATOM      5  O   UNL     1       1.235   0.629   0.000  0.00  0.00    +0.000 OA
ATOM      6  C   UNL     1       0.980  -0.155   0.000  0.00  0.00    +0.000 C 
ATOM      7  C   UNL     1       0.155  -0.155   0.000  0.00  0.00    +0.000 C 
ATOM      8  C   UNL     1      -0.330  -0.823   0.000  0.00  0.00    +0.000 C 
ATOM      9  O   UNL     1       0.006  -1.576   0.000  0.00  0.00    +0.000 OA
ATOM     10  O   UNL     1      -0.100   0.629   0.000  0.00  0.00    +0.000 OA
ENDROOT
TORSDOF 0
