ROOT
REMARK  Name = iodixanol
REMARK                            x       y       z     vdW  Elec       q    Type
REMARK                         _______ _______ _______ _____ _____    ______ ____
ATOM      1  C   UNL     1       0.715  -2.062   0.000  0.00  0.00    +0.000 C 
ATOM      2  C   UNL     1       0.000  -1.650   0.000  0.00  0.00    +0.000 C 
ATOM      3  O   UNL     1      -0.715  -2.062   0.000  0.00  0.00    +0.000 OA
ATOM      4  N   UNL     1       0.000  -0.825   0.000  0.00  0.00    +0.000 N 
ATOM      5  C   UNL     1       0.715  -0.412   0.000  0.00  0.00    +0.000 C 
ATOM      6  C   UNL     1       1.429  -0.825   0.000  0.00  0.00    +0.000 C 
ATOM      7  O   UNL     1       1.429  -1.650   0.000  0.00  0.00    +0.000 OA
ATOM      8  C   UNL     1       2.143  -0.412   0.000  0.00  0.00    +0.000 C 
ATOM      9  N   UNL     1       2.858  -0.825   0.000  0.00  0.00    +0.000 N 
ATOM     10  C   UNL     1       2.858  -1.650   0.000  0.00  0.00    +0.000 C 
ATOM     11  C   UNL     1       3.572  -2.062   0.000  0.00  0.00    +0.000 C 
ATOM     12  O   UNL     1       2.143  -2.062   0.000  0.00  0.00    +0.000 OA
ATOM     13  C   UNL     1       3.572  -0.412   0.000  0.00  0.00    +0.000 A 
ATOM     14  C   UNL     1       3.572   0.412   0.000  0.00  0.00    +0.000 A 
ATOM     15  I   UNL     1       2.858   0.825   0.000  0.00  0.00    +0.000 I 
ATOM     16  C   UNL     1       4.287   0.825   0.000  0.00  0.00    +0.000 A 
ATOM     17  C   UNL     1       4.287   1.650   0.000  0.00  0.00    +0.000 C 
ATOM     18  O   UNL     1       3.572   2.062   0.000  0.00  0.00    +0.000 OA
ATOM     19  N   UNL     1       5.001   2.062   0.000  0.00  0.00    +0.000 NA
ATOM     20  C   UNL     1       5.001   2.888   0.000  0.00  0.00    +0.000 C 
ATOM     21  C   UNL     1       5.716   3.300   0.000  0.00  0.00    +0.000 C 
ATOM     22  O   UNL     1       6.430   2.888   0.000  0.00  0.00    +0.000 OA
ATOM     23  C   UNL     1       5.716   4.125   0.000  0.00  0.00    +0.000 C 
ATOM     24  O   UNL     1       6.430   4.537   0.000  0.00  0.00    +0.000 OA
ATOM     25  C   UNL     1       5.001   0.412   0.000  0.00  0.00    +0.000 A 
ATOM     26  I   UNL     1       5.716   0.825   0.000  0.00  0.00    +0.000 I 
ATOM     27  C   UNL     1       5.001  -0.412   0.000  0.00  0.00    +0.000 A 
ATOM     28  C   UNL     1       5.716  -0.825   0.000  0.00  0.00    +0.000 C 
ATOM     29  O   UNL     1       6.430  -0.412   0.000  0.00  0.00    +0.000 OA
ATOM     30  N   UNL     1       5.716  -1.650   0.000  0.00  0.00    +0.000 NA
ATOM     31  C   UNL     1       6.430  -2.062   0.000  0.00  0.00    +0.000 C 
ATOM     32  C   UNL     1       6.430  -2.888   0.000  0.00  0.00    +0.000 C 
ATOM     33  O   UNL     1       5.716  -3.300   0.000  0.00  0.00    +0.000 OA
ATOM     34  C   UNL     1       7.145  -3.300   0.000  0.00  0.00    +0.000 C 
ATOM     35  O   UNL     1       7.145  -4.125   0.000  0.00  0.00    +0.000 OA
ATOM     36  C   UNL     1       4.287  -0.825   0.000  0.00  0.00    +0.000 A 
ATOM     37  I   UNL     1       4.287  -1.650   0.000  0.00  0.00    +0.000 I 
ATOM     38  C   UNL     1      -0.715  -0.412   0.000  0.00  0.00    +0.000 A 
ATOM     39  C   UNL     1      -1.429  -0.825   0.000  0.00  0.00    +0.000 A 
ATOM     40  I   UNL     1      -1.429  -1.650   0.000  0.00  0.00    +0.000 I 
ATOM     41  C   UNL     1      -2.143  -0.412   0.000  0.00  0.00    +0.000 A 
ATOM     42  C   UNL     1      -2.858  -0.825   0.000  0.00  0.00    +0.000 C 
ATOM     43  O   UNL     1      -3.572  -0.412   0.000  0.00  0.00    +0.000 OA
ATOM     44  N   UNL     1      -2.858  -1.650   0.000  0.00  0.00    +0.000 NA
ATOM     45  C   UNL     1      -3.572  -2.062   0.000  0.00  0.00    +0.000 C 
ATOM     46  C   UNL     1      -3.572  -2.888   0.000  0.00  0.00    +0.000 C 
ATOM     47  O   UNL     1      -2.858  -3.300   0.000  0.00  0.00    +0.000 OA
ATOM     48  C   UNL     1      -4.287  -3.300   0.000  0.00  0.00    +0.000 C 
ATOM     49  O   UNL     1      -4.287  -4.125   0.000  0.00  0.00    +0.000 OA
ATOM     50  C   UNL     1      -2.143   0.412   0.000  0.00  0.00    +0.000 A 
ATOM     51  I   UNL     1      -2.858   0.825   0.000  0.00  0.00    +0.000 I 
ATOM     52  C   UNL     1      -1.429   0.825   0.000  0.00  0.00    +0.000 A 
ATOM     53  C   UNL     1      -1.429   1.650   0.000  0.00  0.00    +0.000 C 
ATOM     54  O   UNL     1      -2.143   2.062   0.000  0.00  0.00    +0.000 OA
ATOM     55  N   UNL     1      -0.715   2.062   0.000  0.00  0.00    +0.000 NA
ATOM     56  C   UNL     1      -0.715   2.888   0.000  0.00  0.00    +0.000 C 
ATOM     57  C   UNL     1       0.000   3.300   0.000  0.00  0.00    +0.000 C 
ATOM     58  O   UNL     1       0.715   2.888   0.000  0.00  0.00    +0.000 OA
ATOM     59  C   UNL     1       0.000   4.125   0.000  0.00  0.00    +0.000 C 
ATOM     60  O   UNL     1       0.715   4.537   0.000  0.00  0.00    +0.000 OA
ATOM     61  C   UNL     1      -0.715   0.412   0.000  0.00  0.00    +0.000 A 
ATOM     62  I   UNL     1       0.000   0.825   0.000  0.00  0.00    +0.000 I 
ENDROOT
TORSDOF 0
