ROOT
REMARK  Name = iomazenil (123I)
REMARK                            x       y       z     vdW  Elec       q    Type
REMARK                         _______ _______ _______ _____ _____    ______ ____
ATOM      1  C   UNL     1      -2.284  -0.553   0.000  0.00  0.00    +0.000 C 
ATOM      2  C   UNL     1      -1.561  -0.156   0.000  0.00  0.00    +0.000 C 
ATOM      3  O   UNL     1      -0.856  -0.583   0.000  0.00  0.00    +0.000 OA
ATOM      4  C   UNL     1      -0.133  -0.185   0.000  0.00  0.00    +0.000 C 
ATOM      5  O   UNL     1      -0.115   0.639   0.000  0.00  0.00    +0.000 OA
ATOM      6  C   UNL     1       0.573  -0.613   0.000  0.00  0.00    +0.000 A 
ATOM      7  C   UNL     1       1.334  -0.293   0.000  0.00  0.00    +0.000 A 
ATOM      8  C   UNL     1       1.486   0.518   0.000  0.00  0.00    +0.000 C 
ATOM      9  N   UNL     1       2.215   0.905   0.000  0.00  0.00    +0.000 N 
ATOM     10  C   UNL     1       2.182   1.729   0.000  0.00  0.00    +0.000 C 
ATOM     11  C   UNL     1       2.971   0.576   0.000  0.00  0.00    +0.000 C 
ATOM     12  O   UNL     1       3.596   1.115   0.000  0.00  0.00    +0.000 OA
ATOM     13  C   UNL     1       3.186  -0.221   0.000  0.00  0.00    +0.000 A 
ATOM     14  C   UNL     1       4.006  -0.311   0.000  0.00  0.00    +0.000 A 
ATOM     15  I   UNL     1       4.495   0.353   0.000  0.00  0.00    +0.000 I 
ATOM     16  C   UNL     1       4.337  -1.067   0.000  0.00  0.00    +0.000 A 
ATOM     17  C   UNL     1       3.848  -1.732   0.000  0.00  0.00    +0.000 A 
ATOM     18  C   UNL     1       3.028  -1.641   0.000  0.00  0.00    +0.000 A 
ATOM     19  C   UNL     1       2.697  -0.885   0.000  0.00  0.00    +0.000 A 
ATOM     20  N   UNL     1       1.873  -0.917   0.000  0.00  0.00    +0.000 N 
ATOM     21  C   UNL     1       1.446  -1.623   0.000  0.00  0.00    +0.000 A 
ATOM     22  N   UNL     1       0.642  -1.435   0.000  0.00  0.00    +0.000 NA
ENDROOT
TORSDOF 0
