ROOT
REMARK  Name = iomeglamic acid
REMARK                            x       y       z     vdW  Elec       q    Type
REMARK                         _______ _______ _______ _____ _____    ______ ____
ATOM      1  C   UNL     1       0.715  -2.888   0.000  0.00  0.00    +0.000 C 
ATOM      2  N   UNL     1       0.715  -2.062   0.000  0.00  0.00    +0.000 N 
ATOM      3  C   UNL     1       1.429  -1.650   0.000  0.00  0.00    +0.000 C 
ATOM      4  O   UNL     1       1.429  -0.825   0.000  0.00  0.00    +0.000 OA
ATOM      5  C   UNL     1       2.143  -2.062   0.000  0.00  0.00    +0.000 C 
ATOM      6  C   UNL     1       2.858  -1.650   0.000  0.00  0.00    +0.000 C 
ATOM      7  C   UNL     1       3.572  -2.062   0.000  0.00  0.00    +0.000 C 
ATOM      8  C   UNL     1       4.287  -1.650   0.000  0.00  0.00    +0.000 C 
ATOM      9  O   UNL     1       5.001  -2.062   0.000  0.00  0.00    +0.000 OA
ATOM     10  O   UNL     1       4.287  -0.825   0.000  0.00  0.00    +0.000 OA
ATOM     11  C   UNL     1       0.000  -1.650   0.000  0.00  0.00    +0.000 A 
ATOM     12  C   UNL     1      -0.715  -2.062   0.000  0.00  0.00    +0.000 A 
ATOM     13  I   UNL     1      -0.715  -2.888   0.000  0.00  0.00    +0.000 I 
ATOM     14  C   UNL     1      -1.429  -1.650   0.000  0.00  0.00    +0.000 A 
ATOM     15  N   UNL     1      -2.143  -2.062   0.000  0.00  0.00    +0.000 NA
ATOM     16  C   UNL     1      -1.429  -0.825   0.000  0.00  0.00    +0.000 A 
ATOM     17  I   UNL     1      -2.143  -0.412   0.000  0.00  0.00    +0.000 I 
ATOM     18  C   UNL     1      -0.715  -0.412   0.000  0.00  0.00    +0.000 A 
ATOM     19  C   UNL     1       0.000  -0.825   0.000  0.00  0.00    +0.000 A 
ATOM     20  I   UNL     1       0.715  -0.412   0.000  0.00  0.00    +0.000 I 
ENDROOT
TORSDOF 0
