ROOT
REMARK  Name = iopamidol
REMARK                            x       y       z     vdW  Elec       q    Type
REMARK                         _______ _______ _______ _____ _____    ______ ____
ATOM      1  C   UNK A   0      -1.429   0.825   0.000  0.00  0.00    +0.000 C 
ATOM      2  C   UNK A   0      -0.715   0.412   0.000  0.00  0.00    +0.000 C 
ATOM      3  O   UNK A   0      -0.715  -0.412   0.000  0.00  0.00    +0.000 OA
ATOM      4  C   UNK A   0       0.000   0.825   0.000  0.00  0.00    +0.000 C 
ATOM      5  O   UNK A   0       0.715   0.412   0.000  0.00  0.00    +0.000 OA
ATOM      6  N   UNK A   0       0.000   1.650   0.000  0.00  0.00    +0.000 NA
ATOM      7  C   UNK A   0       0.715   2.062   0.000  0.00  0.00    +0.000 A 
ATOM      8  C   UNK A   0       0.715   2.888   0.000  0.00  0.00    +0.000 A 
ATOM      9  I   UNK A   0       0.000   3.300   0.000  0.00  0.00    +0.000 I 
ATOM     10  C   UNK A   0       1.429   3.300   0.000  0.00  0.00    +0.000 A 
ATOM     11  C   UNK A   0       1.429   4.125   0.000  0.00  0.00    +0.000 C 
ATOM     12  O   UNK A   0       2.143   4.537   0.000  0.00  0.00    +0.000 OA
ATOM     13  N   SER A   1       0.715   4.537   0.000  0.00  0.00    +0.000 NA
ATOM     14  CA  SER A   1       0.715   5.362   0.000  0.00  0.00    +0.000 C 
ATOM     15  CB  SER A   1       0.000   5.775   0.000  0.00  0.00    +0.000 C 
ATOM     16  OG  SER A   1       0.000   6.600   0.000  0.00  0.00    +0.000 OA
ATOM     17  C   SER A   1       1.429   5.775   0.000  0.00  0.00    +0.000 C 
ATOM     18  O   SER A   1       2.143   5.362   0.000  0.00  0.00    +0.000 OA
ATOM     19  C   UNK A   0       2.143   2.888   0.000  0.00  0.00    +0.000 A 
ATOM     20  I   UNK A   0       2.858   3.300   0.000  0.00  0.00    +0.000 I 
ATOM     21  C   UNK A   0       2.143   2.062   0.000  0.00  0.00    +0.000 A 
ATOM     22  C   UNK A   0       2.858   1.650   0.000  0.00  0.00    +0.000 C 
ATOM     23  O   UNK A   0       3.572   2.062   0.000  0.00  0.00    +0.000 OA
ATOM     24  N   SER A   1       2.858   0.825   0.000  0.00  0.00    +0.000 NA
ATOM     25  CA  SER A   1       3.572   0.412   0.000  0.00  0.00    +0.000 C 
ATOM     26  CB  SER A   1       3.572  -0.412   0.000  0.00  0.00    +0.000 C 
ATOM     27  OG  SER A   1       4.287  -0.825   0.000  0.00  0.00    +0.000 OA
ATOM     28  C   SER A   1       4.287   0.825   0.000  0.00  0.00    +0.000 C 
ATOM     29  O   SER A   1       5.001   0.412   0.000  0.00  0.00    +0.000 OA
ATOM     30  C   UNK A   0       1.429   1.650   0.000  0.00  0.00    +0.000 A 
ATOM     31  I   UNK A   0       1.429   0.825   0.000  0.00  0.00    +0.000 I 
ENDROOT
TORSDOF 0
