ROOT
REMARK  Name = iopromide
REMARK                            x       y       z     vdW  Elec       q    Type
REMARK                         _______ _______ _______ _____ _____    ______ ____
ATOM      1  C   UNL     1      -2.143  -1.238   0.000  0.00  0.00    +0.000 C 
ATOM      2  O   UNL     1      -1.429  -0.825   0.000  0.00  0.00    +0.000 OA
ATOM      3  C   UNL     1      -1.429   0.000   0.000  0.00  0.00    +0.000 C 
ATOM      4  C   UNL     1      -0.715   0.412   0.000  0.00  0.00    +0.000 C 
ATOM      5  O   UNL     1       0.000   0.000   0.000  0.00  0.00    +0.000 OA
ATOM      6  N   UNL     1      -0.715   1.238   0.000  0.00  0.00    +0.000 NA
ATOM      7  C   UNL     1       0.000   1.650   0.000  0.00  0.00    +0.000 A 
ATOM      8  C   UNL     1       0.000   2.475   0.000  0.00  0.00    +0.000 A 
ATOM      9  I   UNL     1      -0.715   2.888   0.000  0.00  0.00    +0.000 I 
ATOM     10  C   UNL     1       0.715   2.888   0.000  0.00  0.00    +0.000 A 
ATOM     11  C   UNL     1       0.715   3.712   0.000  0.00  0.00    +0.000 C 
ATOM     12  O   UNL     1       1.429   4.125   0.000  0.00  0.00    +0.000 OA
ATOM     13  N   UNL     1       0.000   4.125   0.000  0.00  0.00    +0.000 N 
ATOM     14  C   UNL     1      -0.715   3.712   0.000  0.00  0.00    +0.000 C 
ATOM     15  C   UNL     1       0.000   4.950   0.000  0.00  0.00    +0.000 C 
ATOM     16  C   UNL     1      -0.715   5.362   0.000  0.00  0.00    +0.000 C 
ATOM     17  O   UNL     1      -1.429   4.950   0.000  0.00  0.00    +0.000 OA
ATOM     18  C   UNL     1      -0.715   6.188   0.000  0.00  0.00    +0.000 C 
ATOM     19  O   UNL     1      -1.429   6.600   0.000  0.00  0.00    +0.000 OA
ATOM     20  C   UNL     1       1.429   2.475   0.000  0.00  0.00    +0.000 A 
ATOM     21  I   UNL     1       2.143   2.888   0.000  0.00  0.00    +0.000 I 
ATOM     22  C   UNL     1       1.429   1.650   0.000  0.00  0.00    +0.000 A 
ATOM     23  C   UNL     1       2.143   1.238   0.000  0.00  0.00    +0.000 C 
ATOM     24  O   UNL     1       2.143   0.412   0.000  0.00  0.00    +0.000 OA
ATOM     25  N   UNL     1       2.858   1.650   0.000  0.00  0.00    +0.000 NA
ATOM     26  C   UNL     1       3.572   1.238   0.000  0.00  0.00    +0.000 C 
ATOM     27  C   UNL     1       4.287   1.650   0.000  0.00  0.00    +0.000 C 
ATOM     28  O   UNL     1       4.287   2.475   0.000  0.00  0.00    +0.000 OA
ATOM     29  C   UNL     1       5.001   1.238   0.000  0.00  0.00    +0.000 C 
ATOM     30  O   UNL     1       5.716   1.650   0.000  0.00  0.00    +0.000 OA
ATOM     31  C   UNL     1       0.715   1.238   0.000  0.00  0.00    +0.000 A 
ATOM     32  I   UNL     1       0.715   0.412   0.000  0.00  0.00    +0.000 I 
ENDROOT
TORSDOF 0
