ROOT
REMARK  Name = iprazochrome
REMARK                            x       y       z     vdW  Elec       q    Type
REMARK                         _______ _______ _______ _____ _____    ______ ____
ATOM      1  C   UNL     1       0.077  -2.321   0.000  0.00  0.00    +0.000 C 
ATOM      2  C   UNL     1       0.884  -2.150   0.000  0.00  0.00    +0.000 C 
ATOM      3  C   UNL     1       1.436  -2.763   0.000  0.00  0.00    +0.000 C 
ATOM      4  N   UNL     1       1.139  -1.365   0.000  0.00  0.00    +0.000 N 
ATOM      5  C   UNL     1       0.654  -0.698   0.000  0.00  0.00    +0.000 C 
ATOM      6  C   UNL     1       1.139  -0.030   0.000  0.00  0.00    +0.000 C 
ATOM      7  O   UNL     1       0.884   0.754   0.000  0.00  0.00    +0.000 OA
ATOM      8  C   UNL     1       1.923  -0.285   0.000  0.00  0.00    +0.000 C 
ATOM      9  C   UNL     1       2.638   0.127   0.000  0.00  0.00    +0.000 C 
ATOM     10  C   UNL     1       3.352  -0.285   0.000  0.00  0.00    +0.000 C 
ATOM     11  N   UNL     1       4.067   0.127   0.000  0.00  0.00    +0.000 NA
ATOM     12  N   UNL     1       4.067   0.952   0.000  0.00  0.00    +0.000 NA
ATOM     13  C   UNL     1       4.781   1.365   0.000  0.00  0.00    +0.000 C 
ATOM     14  N   UNL     1       4.781   2.190   0.000  0.00  0.00    +0.000 NA
ATOM     15  O   UNL     1       5.496   0.952   0.000  0.00  0.00    +0.000 OA
ATOM     16  C   UNL     1       3.352  -1.110   0.000  0.00  0.00    +0.000 C 
ATOM     17  O   UNL     1       4.067  -1.523   0.000  0.00  0.00    +0.000 OA
ATOM     18  C   UNL     1       2.638  -1.523   0.000  0.00  0.00    +0.000 C 
ATOM     19  C   UNL     1       1.923  -1.110   0.000  0.00  0.00    +0.000 C 
ENDROOT
TORSDOF 0
