ROOT
REMARK  Name = irsogladine
REMARK                            x       y       z     vdW  Elec       q    Type
REMARK                         _______ _______ _______ _____ _____    ______ ____
ATOM      1  N   UNL     1       0.715  -0.412   0.000  0.00  0.00    +0.000 NA
ATOM      2  C   UNL     1       0.715  -1.238   0.000  0.00  0.00    +0.000 A 
ATOM      3  N   UNL     1       1.429  -1.650   0.000  0.00  0.00    +0.000 NA
ATOM      4  C   UNL     1       1.429  -2.475   0.000  0.00  0.00    +0.000 A 
ATOM      5  N   UNL     1       0.715  -2.888   0.000  0.00  0.00    +0.000 NA
ATOM      6  C   UNL     1       0.000  -2.475   0.000  0.00  0.00    +0.000 A 
ATOM      7  N   UNL     1      -0.715  -2.888   0.000  0.00  0.00    +0.000 NA
ATOM      8  N   UNL     1       0.000  -1.650   0.000  0.00  0.00    +0.000 NA
ATOM      9  C   UNL     1       2.143  -2.888   0.000  0.00  0.00    +0.000 A 
ATOM     10  C   UNL     1       2.858  -2.475   0.000  0.00  0.00    +0.000 A 
ATOM     11 CL   UNL     1       2.858  -1.650   0.000  0.00  0.00    +0.000 Cl
ATOM     12  C   UNL     1       3.572  -2.888   0.000  0.00  0.00    +0.000 A 
ATOM     13  C   UNL     1       3.572  -3.712   0.000  0.00  0.00    +0.000 A 
ATOM     14  C   UNL     1       2.858  -4.125   0.000  0.00  0.00    +0.000 A 
ATOM     15 CL   UNL     1       2.858  -4.950   0.000  0.00  0.00    +0.000 Cl
ATOM     16  C   UNL     1       2.143  -3.712   0.000  0.00  0.00    +0.000 A 
ENDROOT
TORSDOF 0
