ROOT
REMARK  Name = isosorbide mononitrate
REMARK                            x       y       z     vdW  Elec       q    Type
REMARK                         _______ _______ _______ _____ _____    ______ ____
ATOM      1  O   UNL     1       1.015  -1.707   0.000  0.00  0.00    +0.000 OA
ATOM      2  C   UNL     1       1.270  -0.922   0.000  0.00  0.00    +0.000 C 
ATOM      3  C   UNL     1       0.785  -0.255   0.000  0.00  0.00    +0.000 C 
ATOM      4  O   UNL     1       1.270   0.412   0.000  0.00  0.00    +0.000 OA
ATOM      5  C   UNL     1       2.054   0.158   0.000  0.00  0.00    +0.000 C 
ATOM      6  C   UNL     1       2.839   0.412   0.000  0.00  0.00    +0.000 C 
ATOM      7  C   UNL     1       3.324  -0.255   0.000  0.00  0.00    +0.000 C 
ATOM      8  O   UNL     1       2.839  -0.922   0.000  0.00  0.00    +0.000 OA
ATOM      9  C   UNL     1       2.054  -0.667   0.000  0.00  0.00    +0.000 C 
ATOM     10  O   UNL     1       3.094   1.197   0.000  0.00  0.00    +0.000 OA
ATOM     11  N   UNL     1       3.901   1.369   0.000  0.00  0.00    +0.000 N 
ATOM     12  O   UNL     1       4.156   2.153   0.000  0.00  0.00    +0.000 OA
ATOM     13  O   UNL     1       4.453   0.756   0.000  0.00  0.00    +0.000 OA
ENDROOT
TORSDOF 0
