ROOT
REMARK  Name = isoxepac
REMARK                            x       y       z     vdW  Elec       q    Type
REMARK                         _______ _______ _______ _____ _____    ______ ____
ATOM      1  O   UNL     1       7.938   2.534   0.000  0.00  0.00    +0.000 OA
ATOM      2  C   UNL     1       7.333   1.973   0.000  0.00  0.00    +0.000 C 
ATOM      3  O   UNL     1       7.517   1.169   0.000  0.00  0.00    +0.000 OA
ATOM      4  C   UNL     1       6.545   2.216   0.000  0.00  0.00    +0.000 C 
ATOM      5  C   UNL     1       5.940   1.655   0.000  0.00  0.00    +0.000 A 
ATOM      6  C   UNL     1       5.152   1.899   0.000  0.00  0.00    +0.000 A 
ATOM      7  C   UNL     1       4.547   1.337   0.000  0.00  0.00    +0.000 A 
ATOM      8  C   UNL     1       4.731   0.533   0.000  0.00  0.00    +0.000 A 
ATOM      9  O   UNL     1       4.216  -0.112   0.000  0.00  0.00    +0.000 OA
ATOM     10  C   UNL     1       3.391  -0.112   0.000  0.00  0.00    +0.000 C 
ATOM     11  C   UNL     1       2.877   0.533   0.000  0.00  0.00    +0.000 A 
ATOM     12  C   UNL     1       2.088   0.290   0.000  0.00  0.00    +0.000 A 
ATOM     13  C   UNL     1       1.484   0.851   0.000  0.00  0.00    +0.000 A 
ATOM     14  C   UNL     1       1.667   1.655   0.000  0.00  0.00    +0.000 A 
ATOM     15  C   UNL     1       2.456   1.899   0.000  0.00  0.00    +0.000 A 
ATOM     16  C   UNL     1       3.060   1.337   0.000  0.00  0.00    +0.000 A 
ATOM     17  C   UNL     1       3.804   1.695   0.000  0.00  0.00    +0.000 C 
ATOM     18  O   UNL     1       3.804   2.520   0.000  0.00  0.00    +0.000 OA
ATOM     19  C   UNL     1       5.519   0.290   0.000  0.00  0.00    +0.000 A 
ATOM     20  C   UNL     1       6.124   0.851   0.000  0.00  0.00    +0.000 A 
ENDROOT
TORSDOF 0
