ROOT
REMARK  Name = ketoconazole
REMARK                            x       y       z     vdW  Elec       q    Type
REMARK                         _______ _______ _______ _____ _____    ______ ____
ATOM      1  C   UNL     1       5.961  -8.334   0.000  0.00  0.00    +0.000 C 
ATOM      2  C   UNL     1       5.140  -8.420   0.000  0.00  0.00    +0.000 C 
ATOM      3  O   UNL     1       4.805  -9.174   0.000  0.00  0.00    +0.000 OA
ATOM      4  N   UNL     1       4.655  -7.753   0.000  0.00  0.00    +0.000 N 
ATOM      5  C   UNL     1       3.835  -7.839   0.000  0.00  0.00    +0.000 C 
ATOM      6  C   UNL     1       3.350  -7.171   0.000  0.00  0.00    +0.000 C 
ATOM      7  N   UNL     1       3.686  -6.418   0.000  0.00  0.00    +0.000 N 
ATOM      8  C   UNL     1       4.506  -6.331   0.000  0.00  0.00    +0.000 C 
ATOM      9  C   UNL     1       4.991  -6.999   0.000  0.00  0.00    +0.000 C 
ATOM     10  C   UNL     1       3.201  -5.750   0.000  0.00  0.00    +0.000 A 
ATOM     11  C   UNL     1       2.380  -5.837   0.000  0.00  0.00    +0.000 A 
ATOM     12  C   UNL     1       1.895  -5.169   0.000  0.00  0.00    +0.000 A 
ATOM     13  C   UNL     1       2.231  -4.415   0.000  0.00  0.00    +0.000 A 
ATOM     14  O   UNL     1       1.746  -3.748   0.000  0.00  0.00    +0.000 OA
ATOM     15  C   UNL     1       2.082  -2.994   0.000  0.00  0.00    +0.000 C 
ATOM     16  C   UNL     1       1.597  -2.327   0.000  0.00  0.00    +0.000 C 
ATOM     17  C   UNL     1       0.772  -2.327   0.000  0.00  0.00    +0.000 C 
ATOM     18  O   UNL     1       0.517  -1.542   0.000  0.00  0.00    +0.000 OA
ATOM     19  C   UNL     1       1.184  -1.057   0.000  0.00  0.00    +0.000 C 
ATOM     20  C   UNL     1       0.632  -0.444   0.000  0.00  0.00    +0.000 C 
ATOM     21  N   UNL     1      -0.175  -0.616   0.000  0.00  0.00    +0.000 N 
ATOM     22  C   UNL     1      -0.510  -1.369   0.000  0.00  0.00    +0.000 A 
ATOM     23  C   UNL     1      -1.331  -1.283   0.000  0.00  0.00    +0.000 A 
ATOM     24  N   UNL     1      -1.502  -0.476   0.000  0.00  0.00    +0.000 NA
ATOM     25  C   UNL     1      -0.788  -0.064   0.000  0.00  0.00    +0.000 A 
ATOM     26  O   UNL     1       1.851  -1.542   0.000  0.00  0.00    +0.000 OA
ATOM     27  C   UNL     1       1.736  -0.444   0.000  0.00  0.00    +0.000 A 
ATOM     28  C   UNL     1       1.481   0.341   0.000  0.00  0.00    +0.000 A 
ATOM     29 CL   UNL     1       0.674   0.512   0.000  0.00  0.00    +0.000 Cl
ATOM     30  C   UNL     1       2.033   0.954   0.000  0.00  0.00    +0.000 A 
ATOM     31  C   UNL     1       2.840   0.782   0.000  0.00  0.00    +0.000 A 
ATOM     32 CL   UNL     1       3.392   1.395   0.000  0.00  0.00    +0.000 Cl
ATOM     33  C   UNL     1       3.095  -0.003   0.000  0.00  0.00    +0.000 A 
ATOM     34  C   UNL     1       2.543  -0.616   0.000  0.00  0.00    +0.000 A 
ATOM     35  C   UNL     1       3.051  -4.329   0.000  0.00  0.00    +0.000 A 
ATOM     36  C   UNL     1       3.536  -4.997   0.000  0.00  0.00    +0.000 A 
ENDROOT
TORSDOF 0
