ROOT
REMARK  Name = lactitol
REMARK                            x       y       z     vdW  Elec       q    Type
REMARK                         _______ _______ _______ _____ _____    ______ ____
ATOM      1  O   UNL     1      -0.523  -2.173   0.000  0.00  0.00    +0.000 OA
ATOM      2  C   UNL     1       0.302  -2.173   0.000  0.00  0.00    +0.000 C 
ATOM      3  C   UNL     1       0.715  -2.888   0.000  0.00  0.00    +0.000 C 
ATOM      4  O   UNL     1       0.302  -3.602   0.000  0.00  0.00    +0.000 OA
ATOM      5  C   UNL     1       1.540  -2.888   0.000  0.00  0.00    +0.000 C 
ATOM      6  O   UNL     1       1.952  -2.173   0.000  0.00  0.00    +0.000 OA
ATOM      7  C   UNL     1       1.952  -3.602   0.000  0.00  0.00    +0.000 C 
ATOM      8  O   UNL     1       1.540  -4.316   0.000  0.00  0.00    +0.000 OA
ATOM      9  C   UNL     1       1.952  -5.031   0.000  0.00  0.00    +0.000 C 
ATOM     10  O   UNL     1       2.777  -5.031   0.000  0.00  0.00    +0.000 OA
ATOM     11  C   UNL     1       3.189  -5.745   0.000  0.00  0.00    +0.000 C 
ATOM     12  C   UNL     1       4.014  -5.745   0.000  0.00  0.00    +0.000 C 
ATOM     13  O   UNL     1       4.427  -5.031   0.000  0.00  0.00    +0.000 OA
ATOM     14  C   UNL     1       2.777  -6.460   0.000  0.00  0.00    +0.000 C 
ATOM     15  O   UNL     1       3.189  -7.174   0.000  0.00  0.00    +0.000 OA
ATOM     16  C   UNL     1       1.952  -6.460   0.000  0.00  0.00    +0.000 C 
ATOM     17  O   UNL     1       1.540  -7.174   0.000  0.00  0.00    +0.000 OA
ATOM     18  C   UNL     1       1.540  -5.745   0.000  0.00  0.00    +0.000 C 
ATOM     19  O   UNL     1       0.715  -5.745   0.000  0.00  0.00    +0.000 OA
ATOM     20  C   UNL     1       2.777  -3.602   0.000  0.00  0.00    +0.000 C 
ATOM     21  O   UNL     1       3.189  -4.316   0.000  0.00  0.00    +0.000 OA
ATOM     22  C   UNL     1       3.189  -2.888   0.000  0.00  0.00    +0.000 C 
ATOM     23  O   UNL     1       4.014  -2.888   0.000  0.00  0.00    +0.000 OA
ENDROOT
TORSDOF 0
