ROOT
REMARK  Name = lapatinib
REMARK                            x       y       z     vdW  Elec       q    Type
REMARK                         _______ _______ _______ _____ _____    ______ ____
ATOM      1  C   UNL     1      -3.876  -5.829   0.000  0.00  0.00    +0.000 C 
ATOM      2  S   UNL     1      -3.541  -5.075   0.000  0.00  0.00    +0.000 S 
ATOM      3  O   UNL     1      -2.787  -5.411   0.000  0.00  0.00    +0.000 OA
ATOM      4  O   UNL     1      -4.295  -4.740   0.000  0.00  0.00    +0.000 OA
ATOM      5  C   UNL     1      -3.205  -4.322   0.000  0.00  0.00    +0.000 C 
ATOM      6  C   UNL     1      -2.385  -4.236   0.000  0.00  0.00    +0.000 C 
ATOM      7  N   UNL     1      -2.049  -3.482   0.000  0.00  0.00    +0.000 NA
ATOM      8  C   UNL     1      -1.229  -3.396   0.000  0.00  0.00    +0.000 C 
ATOM      9  C   UNL     1      -0.893  -2.642   0.000  0.00  0.00    +0.000 A 
ATOM     10  C   UNL     1      -1.306  -1.927   0.000  0.00  0.00    +0.000 A 
ATOM     11  C   UNL     1      -0.754  -1.314   0.000  0.00  0.00    +0.000 A 
ATOM     12  C   UNL     1       0.000  -1.650   0.000  0.00  0.00    +0.000 A 
ATOM     13  O   UNL     1      -0.086  -2.470   0.000  0.00  0.00    +0.000 OA
ATOM     14  C   UNL     1       0.715  -1.238   0.000  0.00  0.00    +0.000 A 
ATOM     15  C   UNL     1       0.715  -0.412   0.000  0.00  0.00    +0.000 A 
ATOM     16  C   UNL     1       1.429   0.000   0.000  0.00  0.00    +0.000 A 
ATOM     17  C   UNL     1       2.143  -0.412   0.000  0.00  0.00    +0.000 A 
ATOM     18  N   UNL     1       2.858   0.000   0.000  0.00  0.00    +0.000 NA
ATOM     19  C   UNL     1       3.572  -0.412   0.000  0.00  0.00    +0.000 A 
ATOM     20  N   UNL     1       3.572  -1.238   0.000  0.00  0.00    +0.000 NA
ATOM     21  C   UNL     1       2.858  -1.650   0.000  0.00  0.00    +0.000 A 
ATOM     22  N   UNL     1       2.858  -2.475   0.000  0.00  0.00    +0.000 NA
ATOM     23  C   UNL     1       2.143  -2.888   0.000  0.00  0.00    +0.000 A 
ATOM     24  C   UNL     1       2.143  -3.712   0.000  0.00  0.00    +0.000 A 
ATOM     25  C   UNL     1       1.429  -4.125   0.000  0.00  0.00    +0.000 A 
ATOM     26 CL   UNL     1       1.429  -4.950   0.000  0.00  0.00    +0.000 Cl
ATOM     27  C   UNL     1       0.715  -3.712   0.000  0.00  0.00    +0.000 A 
ATOM     28  O   UNL     1       0.000  -4.125   0.000  0.00  0.00    +0.000 OA
ATOM     29  C   UNL     1       0.000  -4.950   0.000  0.00  0.00    +0.000 C 
ATOM     30  C   UNL     1      -0.715  -5.362   0.000  0.00  0.00    +0.000 A 
ATOM     31  C   UNL     1      -1.429  -4.950   0.000  0.00  0.00    +0.000 A 
ATOM     32  C   UNL     1      -2.143  -5.362   0.000  0.00  0.00    +0.000 A 
ATOM     33  F   UNL     1      -2.858  -4.950   0.000  0.00  0.00    +0.000 F 
ATOM     34  C   UNL     1      -2.143  -6.188   0.000  0.00  0.00    +0.000 A 
ATOM     35  C   UNL     1      -1.429  -6.600   0.000  0.00  0.00    +0.000 A 
ATOM     36  C   UNL     1      -0.715  -6.188   0.000  0.00  0.00    +0.000 A 
ATOM     37  C   UNL     1       0.715  -2.888   0.000  0.00  0.00    +0.000 A 
ATOM     38  C   UNL     1       1.429  -2.475   0.000  0.00  0.00    +0.000 A 
ATOM     39  C   UNL     1       2.143  -1.238   0.000  0.00  0.00    +0.000 A 
ATOM     40  C   UNL     1       1.429  -1.650   0.000  0.00  0.00    +0.000 A 
ENDROOT
TORSDOF 0
