ROOT
REMARK  Name = laquinimod
REMARK                            x       y       z     vdW  Elec       q    Type
REMARK                         _______ _______ _______ _____ _____    ______ ____
ATOM      1  C   UNL     1      -0.715  -3.712   0.000  0.00  0.00    +0.000 C 
ATOM      2  C   UNL     1      -0.715  -2.888   0.000  0.00  0.00    +0.000 C 
ATOM      3  N   UNL     1      -1.429  -2.475   0.000  0.00  0.00    +0.000 N 
ATOM      4  C   UNL     1      -1.429  -1.650   0.000  0.00  0.00    +0.000 C 
ATOM      5  O   UNL     1      -2.143  -1.238   0.000  0.00  0.00    +0.000 OA
ATOM      6  C   UNL     1      -0.715  -1.238   0.000  0.00  0.00    +0.000 A 
ATOM      7  C   UNL     1       0.000  -1.650   0.000  0.00  0.00    +0.000 A 
ATOM      8  O   UNL     1       0.000  -2.475   0.000  0.00  0.00    +0.000 OA
ATOM      9  C   UNL     1       0.715  -1.238   0.000  0.00  0.00    +0.000 A 
ATOM     10  C   UNL     1       0.715  -0.412   0.000  0.00  0.00    +0.000 A 
ATOM     11  C   UNL     1       1.429   0.000   0.000  0.00  0.00    +0.000 A 
ATOM     12  C   UNL     1       2.143  -0.412   0.000  0.00  0.00    +0.000 A 
ATOM     13  C   UNL     1       2.143  -1.238   0.000  0.00  0.00    +0.000 A 
ATOM     14  C   UNL     1       1.429  -1.650   0.000  0.00  0.00    +0.000 A 
ATOM     15 CL   UNL     1       1.429  -2.475   0.000  0.00  0.00    +0.000 Cl
ATOM     16  N   UNL     1       0.000   0.000   0.000  0.00  0.00    +0.000 N 
ATOM     17  C   UNL     1       0.000   0.825   0.000  0.00  0.00    +0.000 C 
ATOM     18  C   UNL     1      -0.715  -0.412   0.000  0.00  0.00    +0.000 A 
ATOM     19  O   UNL     1      -1.429   0.000   0.000  0.00  0.00    +0.000 OA
ATOM     20  C   UNL     1      -2.143  -2.888   0.000  0.00  0.00    +0.000 A 
ATOM     21  C   UNL     1      -2.143  -3.712   0.000  0.00  0.00    +0.000 A 
ATOM     22  C   UNL     1      -2.858  -4.125   0.000  0.00  0.00    +0.000 A 
ATOM     23  C   UNL     1      -3.572  -3.712   0.000  0.00  0.00    +0.000 A 
ATOM     24  C   UNL     1      -3.572  -2.888   0.000  0.00  0.00    +0.000 A 
ATOM     25  C   UNL     1      -2.858  -2.475   0.000  0.00  0.00    +0.000 A 
ENDROOT
TORSDOF 0
