ROOT
REMARK  Name = leiopyrrole
REMARK                            x       y       z     vdW  Elec       q    Type
REMARK                         _______ _______ _______ _____ _____    ______ ____
ATOM      1  C   UNL     1       3.622  -3.054   0.000  0.00  0.00    +0.000 C 
ATOM      2  C   UNL     1       4.447  -3.054   0.000  0.00  0.00    +0.000 C 
ATOM      3  N   UNL     1       4.860  -3.768   0.000  0.00  0.00    +0.000 NA
ATOM      4  C   UNL     1       4.447  -4.483   0.000  0.00  0.00    +0.000 C 
ATOM      5  C   UNL     1       3.622  -4.483   0.000  0.00  0.00    +0.000 C 
ATOM      6  C   UNL     1       5.685  -3.768   0.000  0.00  0.00    +0.000 C 
ATOM      7  C   UNL     1       6.097  -4.483   0.000  0.00  0.00    +0.000 C 
ATOM      8  O   UNL     1       6.922  -4.483   0.000  0.00  0.00    +0.000 OA
ATOM      9  C   UNL     1       7.335  -5.197   0.000  0.00  0.00    +0.000 A 
ATOM     10  C   UNL     1       8.160  -5.197   0.000  0.00  0.00    +0.000 A 
ATOM     11  C   UNL     1       8.572  -5.912   0.000  0.00  0.00    +0.000 A 
ATOM     12  C   UNL     1       8.160  -6.626   0.000  0.00  0.00    +0.000 A 
ATOM     13  C   UNL     1       7.335  -6.626   0.000  0.00  0.00    +0.000 A 
ATOM     14  C   UNL     1       6.922  -5.912   0.000  0.00  0.00    +0.000 A 
ATOM     15  N   UNL     1       8.572  -4.483   0.000  0.00  0.00    +0.000 N 
ATOM     16  C   UNL     1       8.237  -3.729   0.000  0.00  0.00    +0.000 A 
ATOM     17  C   UNL     1       7.430  -3.557   0.000  0.00  0.00    +0.000 C 
ATOM     18  C   UNL     1       8.850  -3.177   0.000  0.00  0.00    +0.000 A 
ATOM     19  C   UNL     1       9.564  -3.589   0.000  0.00  0.00    +0.000 A 
ATOM     20  C   UNL     1       9.393  -4.396   0.000  0.00  0.00    +0.000 A 
ATOM     21  C   UNL     1       9.945  -5.009   0.000  0.00  0.00    +0.000 A 
ATOM     22  C   UNL     1      10.752  -4.838   0.000  0.00  0.00    +0.000 A 
ATOM     23  C   UNL     1      11.304  -5.451   0.000  0.00  0.00    +0.000 A 
ATOM     24  C   UNL     1      11.049  -6.236   0.000  0.00  0.00    +0.000 A 
ATOM     25  C   UNL     1      10.242  -6.407   0.000  0.00  0.00    +0.000 A 
ATOM     26  C   UNL     1       9.690  -5.794   0.000  0.00  0.00    +0.000 A 
ENDROOT
TORSDOF 0
