ROOT
REMARK  Name = letermovir
REMARK                            x       y       z     vdW  Elec       q    Type
REMARK                         _______ _______ _______ _____ _____    ______ ____
ATOM      1  C   UNL     1      -5.001  -5.362   0.000  0.00  0.00    +0.000 C 
ATOM      2  O   UNL     1      -4.287  -4.950   0.000  0.00  0.00    +0.000 OA
ATOM      3  C   UNL     1      -4.287  -4.125   0.000  0.00  0.00    +0.000 A 
ATOM      4  C   UNL     1      -5.001  -3.712   0.000  0.00  0.00    +0.000 A 
ATOM      5  C   UNL     1      -5.001  -2.888   0.000  0.00  0.00    +0.000 A 
ATOM      6  C   UNL     1      -4.287  -2.475   0.000  0.00  0.00    +0.000 A 
ATOM      7  C   UNL     1      -3.572  -2.888   0.000  0.00  0.00    +0.000 A 
ATOM      8  C   UNL     1      -3.572  -3.712   0.000  0.00  0.00    +0.000 A 
ATOM      9  N   UNL     1      -2.858  -2.475   0.000  0.00  0.00    +0.000 N 
ATOM     10  C   UNL     1      -2.858  -1.650   0.000  0.00  0.00    +0.000 C 
ATOM     11  C   UNL     1      -2.143  -1.238   0.000  0.00  0.00    +0.000 C 
ATOM     12  N   UNL     1      -1.429  -1.650   0.000  0.00  0.00    +0.000 N 
ATOM     13  C   UNL     1      -1.429  -2.475   0.000  0.00  0.00    +0.000 C 
ATOM     14  C   UNL     1      -2.143  -2.888   0.000  0.00  0.00    +0.000 C 
ATOM     15  C   UNL     1      -0.715  -1.238   0.000  0.00  0.00    +0.000 C 
ATOM     16  N   UNL     1       0.000  -1.650   0.000  0.00  0.00    +0.000 NA
ATOM     17  C   UNL     1       0.715  -1.238   0.000  0.00  0.00    +0.000 A 
ATOM     18  C   UNL     1       0.715  -0.412   0.000  0.00  0.00    +0.000 A 
ATOM     19  C   UNL     1       1.429   0.000   0.000  0.00  0.00    +0.000 A 
ATOM     20  C   UNL     1       2.143  -0.412   0.000  0.00  0.00    +0.000 A 
ATOM     21  C   UNL     1       2.143  -1.238   0.000  0.00  0.00    +0.000 A 
ATOM     22  C   UNL     1       1.429  -1.650   0.000  0.00  0.00    +0.000 A 
ATOM     23  F   UNL     1       1.429  -2.475   0.000  0.00  0.00    +0.000 F 
ATOM     24  C   UNL     1       0.000   0.000   0.000  0.00  0.00    +0.000 C 
ATOM     25  C   UNL     1       0.000   0.825   0.000  0.00  0.00    +0.000 C 
ATOM     26  C   UNL     1       0.715   1.238   0.000  0.00  0.00    +0.000 C 
ATOM     27  O   UNL     1       0.715   2.062   0.000  0.00  0.00    +0.000 OA
ATOM     28  O   UNL     1       1.429   0.825   0.000  0.00  0.00    +0.000 OA
ATOM     29  N   UNL     1      -0.715  -0.412   0.000  0.00  0.00    +0.000 N 
ATOM     30  C   UNL     1      -1.429   0.000   0.000  0.00  0.00    +0.000 A 
ATOM     31  C   UNL     1      -1.429   0.825   0.000  0.00  0.00    +0.000 A 
ATOM     32  O   UNL     1      -0.715   1.238   0.000  0.00  0.00    +0.000 OA
ATOM     33  C   UNL     1      -0.715   2.062   0.000  0.00  0.00    +0.000 C 
ATOM     34  C   UNL     1      -2.143   1.238   0.000  0.00  0.00    +0.000 A 
ATOM     35  C   UNL     1      -2.858   0.825   0.000  0.00  0.00    +0.000 A 
ATOM     36  C   UNL     1      -2.858   0.000   0.000  0.00  0.00    +0.000 A 
ATOM     37  C   UNL     1      -2.143  -0.412   0.000  0.00  0.00    +0.000 A 
ATOM     38  C   UNL     1      -3.572  -0.412   0.000  0.00  0.00    +0.000 C 
ATOM     39  F   UNL     1      -4.287  -0.825   0.000  0.00  0.00    +0.000 F 
ATOM     40  F   UNL     1      -3.160  -1.127   0.000  0.00  0.00    +0.000 F 
ATOM     41  F   UNL     1      -3.985   0.302   0.000  0.00  0.00    +0.000 F 
ENDROOT
TORSDOF 0
