ROOT
REMARK  Name = letrozole
REMARK                            x       y       z     vdW  Elec       q    Type
REMARK                         _______ _______ _______ _____ _____    ______ ____
ATOM      1  N   UNL     1       2.965   1.588   0.000  0.00  0.00    +0.000 NA
ATOM      2  C   UNL     1       2.250   1.176   0.000  0.00  0.00    +0.000 C 
ATOM      3  C   UNL     1       1.536   0.763   0.000  0.00  0.00    +0.000 A 
ATOM      4  C   UNL     1       1.536  -0.062   0.000  0.00  0.00    +0.000 A 
ATOM      5  C   UNL     1       0.821  -0.474   0.000  0.00  0.00    +0.000 A 
ATOM      6  C   UNL     1       0.107  -0.062   0.000  0.00  0.00    +0.000 A 
ATOM      7  C   UNL     1       0.107   0.763   0.000  0.00  0.00    +0.000 A 
ATOM      8  C   UNL     1       0.821   1.176   0.000  0.00  0.00    +0.000 A 
ATOM      9  C   UNL     1      -0.608  -0.474   0.000  0.00  0.00    +0.000 C 
ATOM     10  N   UNL     1      -0.608  -1.299   0.000  0.00  0.00    +0.000 N 
ATOM     11  C   UNL     1       0.060  -1.784   0.000  0.00  0.00    +0.000 A 
ATOM     12  N   UNL     1      -0.195  -2.569   0.000  0.00  0.00    +0.000 NA
ATOM     13  C   UNL     1      -1.020  -2.569   0.000  0.00  0.00    +0.000 A 
ATOM     14  N   UNL     1      -1.275  -1.784   0.000  0.00  0.00    +0.000 NA
ATOM     15  C   UNL     1      -1.322  -0.062   0.000  0.00  0.00    +0.000 A 
ATOM     16  C   UNL     1      -2.037  -0.474   0.000  0.00  0.00    +0.000 A 
ATOM     17  C   UNL     1      -2.751  -0.062   0.000  0.00  0.00    +0.000 A 
ATOM     18  C   UNL     1      -2.751   0.763   0.000  0.00  0.00    +0.000 A 
ATOM     19  C   UNL     1      -2.037   1.176   0.000  0.00  0.00    +0.000 A 
ATOM     20  C   UNL     1      -1.322   0.763   0.000  0.00  0.00    +0.000 A 
ATOM     21  C   UNL     1      -3.466   1.176   0.000  0.00  0.00    +0.000 C 
ATOM     22  N   UNL     1      -4.180   1.588   0.000  0.00  0.00    +0.000 NA
ENDROOT
TORSDOF 0
