ROOT
REMARK  Name = leucine
REMARK                            x       y       z     vdW  Elec       q    Type
REMARK                         _______ _______ _______ _____ _____    ______ ____
ATOM      1  CD1 LEU A   1      -0.191   0.715   0.000  0.00  0.00    +0.000 C 
ATOM      2  CG  LEU A   1       0.523   1.127   0.000  0.00  0.00    +0.000 C 
ATOM      3  CD2 LEU A   1       0.523   1.952   0.000  0.00  0.00    +0.000 C 
ATOM      4  CB  LEU A   1       1.238   0.715   0.000  0.00  0.00    +0.000 C 
ATOM      5  CA  LEU A   1       1.952   1.127   0.000  0.00  0.00    +0.000 C 
ATOM      6  N   LEU A   1       1.952   1.952   0.000  0.00  0.00    +0.000 NA
ATOM      7  C   LEU A   1       2.666   0.715   0.000  0.00  0.00    +0.000 C 
ATOM      8  O   LEU A   1       3.381   1.127   0.000  0.00  0.00    +0.000 OA
ATOM      9  OXT LEU A   1       2.666  -0.111   0.000  0.00  0.00    +0.000 OA
ENDROOT
TORSDOF 0
