ROOT
REMARK  Name = levomethadyl acetate
REMARK                            x       y       z     vdW  Elec       q    Type
REMARK                         _______ _______ _______ _____ _____    ______ ____
ATOM      1  C   UNL     1       0.345  -0.682   0.000  0.00  0.00    +0.000 C 
ATOM      2  C   UNL     1       0.928  -1.266   0.000  0.00  0.00    +0.000 C 
ATOM      3  C   UNL     1       0.715  -2.062   0.000  0.00  0.00    +0.000 C 
ATOM      4  O   UNL     1      -0.082  -2.276   0.000  0.00  0.00    +0.000 OA
ATOM      5  C   UNL     1      -0.666  -1.693   0.000  0.00  0.00    +0.000 C 
ATOM      6  C   UNL     1      -1.463  -1.906   0.000  0.00  0.00    +0.000 C 
ATOM      7  O   UNL     1      -0.452  -0.896   0.000  0.00  0.00    +0.000 OA
ATOM      8  C   UNL     1       1.298  -2.646   0.000  0.00  0.00    +0.000 C 
ATOM      9  C   UNL     1       1.881  -2.062   0.000  0.00  0.00    +0.000 C 
ATOM     10  C   UNL     1       1.668  -1.266   0.000  0.00  0.00    +0.000 C 
ATOM     11  C   UNL     1       0.976  -0.816   0.000  0.00  0.00    +0.000 C 
ATOM     12  N   UNL     1       2.251  -0.682   0.000  0.00  0.00    +0.000 NA
ATOM     13  C   UNL     1       2.038   0.115   0.000  0.00  0.00    +0.000 C 
ATOM     14  C   UNL     1       3.048  -0.896   0.000  0.00  0.00    +0.000 C 
ATOM     15  C   UNL     1       0.715  -3.229   0.000  0.00  0.00    +0.000 A 
ATOM     16  C   UNL     1       0.928  -4.026   0.000  0.00  0.00    +0.000 A 
ATOM     17  C   UNL     1       0.345  -4.609   0.000  0.00  0.00    +0.000 A 
ATOM     18  C   UNL     1      -0.452  -4.396   0.000  0.00  0.00    +0.000 A 
ATOM     19  C   UNL     1      -0.666  -3.599   0.000  0.00  0.00    +0.000 A 
ATOM     20  C   UNL     1      -0.082  -3.016   0.000  0.00  0.00    +0.000 A 
ATOM     21  C   UNL     1       1.881  -3.229   0.000  0.00  0.00    +0.000 A 
ATOM     22  C   UNL     1       2.678  -3.016   0.000  0.00  0.00    +0.000 A 
ATOM     23  C   UNL     1       3.261  -3.599   0.000  0.00  0.00    +0.000 A 
ATOM     24  C   UNL     1       3.048  -4.396   0.000  0.00  0.00    +0.000 A 
ATOM     25  C   UNL     1       2.251  -4.609   0.000  0.00  0.00    +0.000 A 
ATOM     26  C   UNL     1       1.668  -4.026   0.000  0.00  0.00    +0.000 A 
ENDROOT
TORSDOF 0
