ROOT
REMARK  Name = lidocaine
REMARK                            x       y       z     vdW  Elec       q    Type
REMARK                         _______ _______ _______ _____ _____    ______ ____
ATOM      1  C   UNL     1       2.033  -1.046   0.000  0.00  0.00    +0.000 C 
ATOM      2  C   UNL     1       2.858  -1.046   0.000  0.00  0.00    +0.000 C 
ATOM      3  N   UNL     1       3.270  -1.760   0.000  0.00  0.00    +0.000 NA
ATOM      4  C   UNL     1       2.858  -2.475   0.000  0.00  0.00    +0.000 C 
ATOM      5  C   UNL     1       2.033  -2.475   0.000  0.00  0.00    +0.000 C 
ATOM      6  C   UNL     1       4.095  -1.760   0.000  0.00  0.00    +0.000 C 
ATOM      7  C   UNL     1       4.508  -2.475   0.000  0.00  0.00    +0.000 C 
ATOM      8  O   UNL     1       4.095  -3.189   0.000  0.00  0.00    +0.000 OA
ATOM      9  N   UNL     1       5.333  -2.475   0.000  0.00  0.00    +0.000 NA
ATOM     10  C   UNL     1       5.745  -3.189   0.000  0.00  0.00    +0.000 A 
ATOM     11  C   UNL     1       6.570  -3.189   0.000  0.00  0.00    +0.000 A 
ATOM     12  C   UNL     1       6.983  -2.475   0.000  0.00  0.00    +0.000 C 
ATOM     13  C   UNL     1       6.983  -3.904   0.000  0.00  0.00    +0.000 A 
ATOM     14  C   UNL     1       6.570  -4.618   0.000  0.00  0.00    +0.000 A 
ATOM     15  C   UNL     1       5.745  -4.618   0.000  0.00  0.00    +0.000 A 
ATOM     16  C   UNL     1       5.333  -3.904   0.000  0.00  0.00    +0.000 A 
ATOM     17  C   UNL     1       4.508  -3.904   0.000  0.00  0.00    +0.000 C 
ENDROOT
TORSDOF 0
