ROOT
REMARK  Name = lindane
REMARK                            x       y       z     vdW  Elec       q    Type
REMARK                         _______ _______ _______ _____ _____    ______ ____
ATOM      1 CL   UNL     1       0.715   2.062   0.000  0.00  0.00    +0.000 Cl
ATOM      2  C   UNL     1       0.715   1.238   0.000  0.00  0.00    +0.000 C 
ATOM      3  C   UNL     1       1.429   0.825   0.000  0.00  0.00    +0.000 C 
ATOM      4 CL   UNL     1       2.143   1.238   0.000  0.00  0.00    +0.000 Cl
ATOM      5  C   UNL     1       1.429   0.000   0.000  0.00  0.00    +0.000 C 
ATOM      6 CL   UNL     1       2.143  -0.412   0.000  0.00  0.00    +0.000 Cl
ATOM      7  C   UNL     1       0.715  -0.412   0.000  0.00  0.00    +0.000 C 
ATOM      8 CL   UNL     1       0.715  -1.238   0.000  0.00  0.00    +0.000 Cl
ATOM      9  C   UNL     1       0.000   0.000   0.000  0.00  0.00    +0.000 C 
ATOM     10 CL   UNL     1      -0.715  -0.412   0.000  0.00  0.00    +0.000 Cl
ATOM     11  C   UNL     1       0.000   0.825   0.000  0.00  0.00    +0.000 C 
ATOM     12 CL   UNL     1      -0.715   1.238   0.000  0.00  0.00    +0.000 Cl
ENDROOT
TORSDOF 0
