ROOT
REMARK  Name = lividomycin
REMARK                            x       y       z     vdW  Elec       q    Type
REMARK                         _______ _______ _______ _____ _____    ______ ____
ATOM      1  N   UNL     1      -6.324  -1.422   0.000  0.00  0.00    +0.000 NA
ATOM      2  C   UNL     1      -6.324  -0.597   0.000  0.00  0.00    +0.000 C 
ATOM      3  C   UNL     1      -5.609  -0.185   0.000  0.00  0.00    +0.000 C 
ATOM      4  O   UNL     1      -4.895  -0.597   0.000  0.00  0.00    +0.000 OA
ATOM      5  C   UNL     1      -4.180  -0.185   0.000  0.00  0.00    +0.000 C 
ATOM      6  O   UNL     1      -3.466  -0.597   0.000  0.00  0.00    +0.000 OA
ATOM      7  C   UNL     1      -3.466  -1.422   0.000  0.00  0.00    +0.000 C 
ATOM      8  C   UNL     1      -4.133  -1.907   0.000  0.00  0.00    +0.000 C 
ATOM      9  C   UNL     1      -4.918  -1.652   0.000  0.00  0.00    +0.000 C 
ATOM     10  O   UNL     1      -5.531  -2.204   0.000  0.00  0.00    +0.000 OA
ATOM     11  O   UNL     1      -3.878  -2.692   0.000  0.00  0.00    +0.000 OA
ATOM     12  C   UNL     1      -3.053  -2.692   0.000  0.00  0.00    +0.000 C 
ATOM     13  O   UNL     1      -2.568  -3.359   0.000  0.00  0.00    +0.000 OA
ATOM     14  C   UNL     1      -2.904  -4.113   0.000  0.00  0.00    +0.000 C 
ATOM     15  C   UNL     1      -3.724  -4.199   0.000  0.00  0.00    +0.000 C 
ATOM     16  O   UNL     1      -4.209  -3.532   0.000  0.00  0.00    +0.000 OA
ATOM     17  C   UNL     1      -4.060  -4.953   0.000  0.00  0.00    +0.000 C 
ATOM     18  N   UNL     1      -4.880  -5.039   0.000  0.00  0.00    +0.000 NA
ATOM     19  C   UNL     1      -3.575  -5.620   0.000  0.00  0.00    +0.000 C 
ATOM     20  C   UNL     1      -2.754  -5.534   0.000  0.00  0.00    +0.000 C 
ATOM     21  N   UNL     1      -2.269  -6.202   0.000  0.00  0.00    +0.000 NA
ATOM     22  C   UNL     1      -2.419  -4.780   0.000  0.00  0.00    +0.000 C 
ATOM     23  O   UNL     1      -1.598  -4.694   0.000  0.00  0.00    +0.000 OA
ATOM     24  C   UNL     1      -1.113  -5.362   0.000  0.00  0.00    +0.000 C 
ATOM     25  O   UNL     1      -1.449  -6.115   0.000  0.00  0.00    +0.000 OA
ATOM     26  C   UNL     1      -0.964  -6.783   0.000  0.00  0.00    +0.000 C 
ATOM     27  C   UNL     1      -1.300  -7.536   0.000  0.00  0.00    +0.000 C 
ATOM     28  O   UNL     1      -0.815  -8.204   0.000  0.00  0.00    +0.000 OA
ATOM     29  C   UNL     1      -0.144  -6.697   0.000  0.00  0.00    +0.000 C 
ATOM     30  O   UNL     1       0.341  -7.364   0.000  0.00  0.00    +0.000 OA
ATOM     31  C   UNL     1       0.192  -5.943   0.000  0.00  0.00    +0.000 C 
ATOM     32  C   UNL     1      -0.293  -5.275   0.000  0.00  0.00    +0.000 C 
ATOM     33  N   UNL     1       0.043  -4.522   0.000  0.00  0.00    +0.000 NA
ATOM     34  C   UNL     1      -2.798  -1.907   0.000  0.00  0.00    +0.000 C 
ATOM     35  O   UNL     1      -2.014  -1.652   0.000  0.00  0.00    +0.000 OA
ATOM     36  C   UNL     1      -4.180   0.640   0.000  0.00  0.00    +0.000 C 
ATOM     37  N   UNL     1      -3.466   1.053   0.000  0.00  0.00    +0.000 NA
ATOM     38  C   UNL     1      -4.895   1.053   0.000  0.00  0.00    +0.000 C 
ATOM     39  O   UNL     1      -4.895   1.878   0.000  0.00  0.00    +0.000 OA
ATOM     40  C   UNL     1      -5.609   0.640   0.000  0.00  0.00    +0.000 C 
ATOM     41  O   UNL     1      -6.324   1.053   0.000  0.00  0.00    +0.000 OA
ATOM     42  C   UNL     1      -7.038   0.640   0.000  0.00  0.00    +0.000 C 
ATOM     43  O   UNL     1      -7.038  -0.185   0.000  0.00  0.00    +0.000 OA
ATOM     44  C   UNL     1      -7.753  -0.597   0.000  0.00  0.00    +0.000 C 
ATOM     45  C   UNL     1      -7.753  -1.422   0.000  0.00  0.00    +0.000 C 
ATOM     46  O   UNL     1      -8.467  -1.835   0.000  0.00  0.00    +0.000 OA
ATOM     47  C   UNL     1      -8.467  -0.185   0.000  0.00  0.00    +0.000 C 
ATOM     48  O   UNL     1      -9.181  -0.597   0.000  0.00  0.00    +0.000 OA
ATOM     49  C   UNL     1      -8.467   0.640   0.000  0.00  0.00    +0.000 C 
ATOM     50  O   UNL     1      -9.181   1.053   0.000  0.00  0.00    +0.000 OA
ATOM     51  C   UNL     1      -7.753   1.053   0.000  0.00  0.00    +0.000 C 
ATOM     52  O   UNL     1      -7.753   1.878   0.000  0.00  0.00    +0.000 OA
ENDROOT
TORSDOF 0
