ROOT
REMARK  Name = lobeglitazone
REMARK                            x       y       z     vdW  Elec       q    Type
REMARK                         _______ _______ _______ _____ _____    ______ ____
ATOM      1  C   UNL     1      -7.966   9.303   0.000  0.00  0.00    +0.000 C 
ATOM      2  O   UNL     1      -7.251   9.715   0.000  0.00  0.00    +0.000 OA
ATOM      3  C   UNL     1      -6.537   9.303   0.000  0.00  0.00    +0.000 A 
ATOM      4  C   UNL     1      -5.822   9.715   0.000  0.00  0.00    +0.000 A 
ATOM      5  C   UNL     1      -5.108   9.303   0.000  0.00  0.00    +0.000 A 
ATOM      6  C   UNL     1      -5.108   8.478   0.000  0.00  0.00    +0.000 A 
ATOM      7  O   UNL     1      -4.394   8.065   0.000  0.00  0.00    +0.000 OA
ATOM      8  C   UNL     1      -4.394   7.240   0.000  0.00  0.00    +0.000 A 
ATOM      9  C   UNL     1      -3.679   6.828   0.000  0.00  0.00    +0.000 A 
ATOM     10  C   UNL     1      -3.679   6.003   0.000  0.00  0.00    +0.000 A 
ATOM     11  N   UNL     1      -4.394   5.590   0.000  0.00  0.00    +0.000 NA
ATOM     12  C   UNL     1      -5.108   6.003   0.000  0.00  0.00    +0.000 A 
ATOM     13  N   UNL     1      -5.108   6.828   0.000  0.00  0.00    +0.000 NA
ATOM     14  N   UNL     1      -2.965   5.590   0.000  0.00  0.00    +0.000 N 
ATOM     15  C   UNL     1      -2.965   4.765   0.000  0.00  0.00    +0.000 C 
ATOM     16  C   UNL     1      -2.250   6.003   0.000  0.00  0.00    +0.000 C 
ATOM     17  C   UNL     1      -1.536   5.590   0.000  0.00  0.00    +0.000 C 
ATOM     18  O   UNL     1      -0.821   6.003   0.000  0.00  0.00    +0.000 OA
ATOM     19  C   UNL     1      -0.107   5.590   0.000  0.00  0.00    +0.000 A 
ATOM     20  C   UNL     1       0.608   6.003   0.000  0.00  0.00    +0.000 A 
ATOM     21  C   UNL     1       1.322   5.590   0.000  0.00  0.00    +0.000 A 
ATOM     22  C   UNL     1       1.322   4.765   0.000  0.00  0.00    +0.000 A 
ATOM     23  C   UNL     1       2.037   4.353   0.000  0.00  0.00    +0.000 C 
ATOM     24  C   UNL     1       2.037   3.528   0.000  0.00  0.00    +0.000 C 
ATOM     25  S   UNL     1       2.704   3.043   0.000  0.00  0.00    +0.000 S 
ATOM     26  C   UNL     1       2.449   2.258   0.000  0.00  0.00    +0.000 C 
ATOM     27  O   UNL     1       2.934   1.591   0.000  0.00  0.00    +0.000 OA
ATOM     28  N   UNL     1       1.624   2.258   0.000  0.00  0.00    +0.000 NA
ATOM     29  C   UNL     1       1.369   3.043   0.000  0.00  0.00    +0.000 C 
ATOM     30  O   UNL     1       0.585   3.298   0.000  0.00  0.00    +0.000 OA
ATOM     31  C   UNL     1       0.608   4.353   0.000  0.00  0.00    +0.000 A 
ATOM     32  C   UNL     1      -0.107   4.765   0.000  0.00  0.00    +0.000 A 
ATOM     33  C   UNL     1      -5.822   8.065   0.000  0.00  0.00    +0.000 A 
ATOM     34  C   UNL     1      -6.537   8.478   0.000  0.00  0.00    +0.000 A 
ENDROOT
TORSDOF 0
