ROOT
REMARK  Name = losartan
REMARK                            x       y       z     vdW  Elec       q    Type
REMARK                         _______ _______ _______ _____ _____    ______ ____
ATOM      1  C   UNL     1       3.466  -1.299   0.000  0.00  0.00    +0.000 C 
ATOM      2  C   UNL     1       2.751  -1.712   0.000  0.00  0.00    +0.000 C 
ATOM      3  C   UNL     1       2.751  -2.537   0.000  0.00  0.00    +0.000 C 
ATOM      4  C   UNL     1       2.037  -2.949   0.000  0.00  0.00    +0.000 C 
ATOM      5  C   UNL     1       2.037  -3.774   0.000  0.00  0.00    +0.000 A 
ATOM      6  N   UNL     1       2.704  -4.259   0.000  0.00  0.00    +0.000 NA
ATOM      7  C   UNL     1       2.449  -5.044   0.000  0.00  0.00    +0.000 A 
ATOM      8 CL   UNL     1       2.934  -5.711   0.000  0.00  0.00    +0.000 Cl
ATOM      9  C   UNL     1       1.624  -5.044   0.000  0.00  0.00    +0.000 A 
ATOM     10  C   UNL     1       1.139  -5.711   0.000  0.00  0.00    +0.000 C 
ATOM     11  O   UNL     1       0.319  -5.625   0.000  0.00  0.00    +0.000 OA
ATOM     12  N   UNL     1       1.369  -4.259   0.000  0.00  0.00    +0.000 N 
ATOM     13  C   UNL     1       0.585  -4.004   0.000  0.00  0.00    +0.000 C 
ATOM     14  C   UNL     1       0.413  -3.197   0.000  0.00  0.00    +0.000 A 
ATOM     15  C   UNL     1      -0.371  -2.942   0.000  0.00  0.00    +0.000 A 
ATOM     16  C   UNL     1      -0.543  -2.135   0.000  0.00  0.00    +0.000 A 
ATOM     17  C   UNL     1       0.070  -1.583   0.000  0.00  0.00    +0.000 A 
ATOM     18  C   UNL     1       0.855  -1.838   0.000  0.00  0.00    +0.000 A 
ATOM     19  C   UNL     1       1.026  -2.645   0.000  0.00  0.00    +0.000 A 
ATOM     20  C   UNL     1      -0.102  -0.776   0.000  0.00  0.00    +0.000 A 
ATOM     21  C   UNL     1      -0.886  -0.521   0.000  0.00  0.00    +0.000 A 
ATOM     22  C   UNL     1      -1.058   0.286   0.000  0.00  0.00    +0.000 A 
ATOM     23  C   UNL     1      -0.445   0.838   0.000  0.00  0.00    +0.000 A 
ATOM     24  C   UNL     1       0.340   0.583   0.000  0.00  0.00    +0.000 A 
ATOM     25  C   UNL     1       0.512  -0.224   0.000  0.00  0.00    +0.000 A 
ATOM     26  C   UNL     1      -1.499  -1.073   0.000  0.00  0.00    +0.000 A 
ATOM     27  N   UNL     1      -1.413  -1.894   0.000  0.00  0.00    +0.000 NA
ATOM     28  N   UNL     1      -2.167  -2.229   0.000  0.00  0.00    +0.000 NA
ATOM     29  N   UNL     1      -2.719  -1.616   0.000  0.00  0.00    +0.000 NA
ATOM     30  N   UNL     1      -2.306  -0.902   0.000  0.00  0.00    +0.000 NA
ENDROOT
TORSDOF 0
