ROOT
REMARK  Name = lurbinectedin
REMARK                            x       y       z     vdW  Elec       q    Type
REMARK                         _______ _______ _______ _____ _____    ______ ____
ATOM      1  C   UNL     1       8.320   3.212   0.000  0.00  0.00    +0.000 C 
ATOM      2  C   UNL     1       7.635   3.672   0.000  0.00  0.00    +0.000 A 
ATOM      3  C   UNL     1       7.692   4.495   0.000  0.00  0.00    +0.000 A 
ATOM      4  C   UNL     1       7.008   4.956   0.000  0.00  0.00    +0.000 A 
ATOM      5  C   UNL     1       6.266   4.594   0.000  0.00  0.00    +0.000 A 
ATOM      6  C   UNL     1       5.486   4.861   0.000  0.00  0.00    +0.000 C 
ATOM      7  C   UNL     1       5.124   5.603   0.000  0.00  0.00    +0.000 C 
ATOM      8  C   UNL     1       4.448   5.128   0.000  0.00  0.00    +0.000 C 
ATOM      9  C   UNL     1       4.512   5.868   0.000  0.00  0.00    +0.000 A 
ATOM     10  C   UNL     1       3.702   5.710   0.000  0.00  0.00    +0.000 A 
ATOM     11  C   UNL     1       3.160   6.332   0.000  0.00  0.00    +0.000 A 
ATOM     12  C   UNL     1       3.428   7.112   0.000  0.00  0.00    +0.000 A 
ATOM     13  C   UNL     1       4.237   7.270   0.000  0.00  0.00    +0.000 A 
ATOM     14  C   UNL     1       4.779   6.648   0.000  0.00  0.00    +0.000 A 
ATOM     15  C   UNL     1       5.149   7.171   0.000  0.00  0.00    +0.000 C 
ATOM     16  N   UNL     1       5.391   6.383   0.000  0.00  0.00    +0.000 NA
ATOM     17  C   UNL     1       6.132   6.745   0.000  0.00  0.00    +0.000 C 
ATOM     18  C   UNL     1       6.913   6.478   0.000  0.00  0.00    +0.000 C 
ATOM     19  C   UNL     1       7.275   5.736   0.000  0.00  0.00    +0.000 C 
ATOM     20  N   UNL     1       6.401   5.491   0.000  0.00  0.00    +0.000 NA
ATOM     21  C   UNL     1       7.223   5.413   0.000  0.00  0.00    +0.000 C 
ATOM     22  O   UNL     1       6.081   7.569   0.000  0.00  0.00    +0.000 OA
ATOM     23  C   UNL     1       4.490   7.667   0.000  0.00  0.00    +0.000 C 
ATOM     24  O   UNL     1       3.665   7.681   0.000  0.00  0.00    +0.000 OA
ATOM     25  C   UNL     1       2.990   7.207   0.000  0.00  0.00    +0.000 C 
ATOM     26  O   UNL     1       2.330   7.703   0.000  0.00  0.00    +0.000 OA
ATOM     27  C   UNL     1       2.722   6.426   0.000  0.00  0.00    +0.000 C 
ATOM     28  C   UNL     1       2.964   5.638   0.000  0.00  0.00    +0.000 C 
ATOM     29  S   UNL     1       3.623   5.142   0.000  0.00  0.00    +0.000 S 
ATOM     30  C   UNL     1       2.298   5.719   0.000  0.00  0.00    +0.000 C 
ATOM     31  C   UNL     1       1.473   5.732   0.000  0.00  0.00    +0.000 C 
ATOM     32  C   UNL     1       1.072   6.454   0.000  0.00  0.00    +0.000 C 
ATOM     33  C   UNL     1       1.496   7.161   0.000  0.00  0.00    +0.000 C 
ATOM     34  N   UNL     1       2.321   7.148   0.000  0.00  0.00    +0.000 NA
ATOM     35  C   UNL     1       1.205   4.952   0.000  0.00  0.00    +0.000 C 
ATOM     36  C   UNL     1       1.865   4.456   0.000  0.00  0.00    +0.000 C 
ATOM     37  N   UNL     1       2.540   4.930   0.000  0.00  0.00    +0.000 NA
ATOM     38  C   UNL     1       1.765   3.637   0.000  0.00  0.00    +0.000 C 
ATOM     39  C   UNL     1       1.006   3.314   0.000  0.00  0.00    +0.000 C 
ATOM     40  C   UNL     1       0.346   3.810   0.000  0.00  0.00    +0.000 C 
ATOM     41  C   UNL     1       0.446   4.629   0.000  0.00  0.00    +0.000 C 
ATOM     42  O   UNL     1      -0.413   3.487   0.000  0.00  0.00    +0.000 OA
ATOM     43  C   UNL     1      -0.512   2.668   0.000  0.00  0.00    +0.000 C 
ATOM     44  O   UNL     1       4.337   8.089   0.000  0.00  0.00    +0.000 OA
ATOM     45  C   UNL     1       3.589   8.437   0.000  0.00  0.00    +0.000 C 
ATOM     46  O   UNL     1       3.027   7.833   0.000  0.00  0.00    +0.000 OA
ATOM     47  C   UNL     1       2.350   6.173   0.000  0.00  0.00    +0.000 C 
ATOM     48  O   UNL     1       3.434   4.929   0.000  0.00  0.00    +0.000 OA
ATOM     49  C   UNL     1       3.976   4.307   0.000  0.00  0.00    +0.000 C 
ATOM     50  O   UNL     1       4.786   4.465   0.000  0.00  0.00    +0.000 OA
ATOM     51  C   UNL     1       3.708   3.527   0.000  0.00  0.00    +0.000 C 
ATOM     52  C   UNL     1       6.210   3.771   0.000  0.00  0.00    +0.000 A 
ATOM     53  C   UNL     1       6.894   3.310   0.000  0.00  0.00    +0.000 A 
ATOM     54  O   UNL     1       6.838   2.487   0.000  0.00  0.00    +0.000 OA
ATOM     55  C   UNL     1       7.522   2.026   0.000  0.00  0.00    +0.000 C 
ATOM     56  O   UNL     1       5.469   3.408   0.000  0.00  0.00    +0.000 OA
ENDROOT
TORSDOF 0
