ROOT
REMARK  Name = lutetium (177Lu) vipivotide tetraxetan
REMARK                            x       y       z     vdW  Elec       q    Type
REMARK                         _______ _______ _______ _____ _____    ______ ____
ATOM      1 LU   UNL     1       5.618 -21.263   0.000  0.00  0.00    +0.000 Lu
REMARK  Name = lutetium (177Lu) vipivotide tetraxetan
REMARK                            x       y       z     vdW  Elec       q    Type
REMARK                         _______ _______ _______ _____ _____    ______ ____
ATOM      1  O   UNK A   1      -9.180 -13.813   0.000  0.00  0.00    +0.000 OA
ATOM      2  C   UNK A   1      -8.465 -13.401   0.000  0.00  0.00    +0.000 C 
ATOM      3  O   UNK A   1      -8.465 -12.576   0.000  0.00  0.00    +0.000 OA
ATOM      4  C   UNK A   1      -7.751 -13.813   0.000  0.00  0.00    +0.000 C 
ATOM      5  C   UNK A   1      -7.036 -13.401   0.000  0.00  0.00    +0.000 C 
ATOM      6  C   UNK A   1      -6.322 -13.813   0.000  0.00  0.00    +0.000 C 
ATOM      7  N   UNK A   1      -5.607 -13.401   0.000  0.00  0.00    +0.000 NA
ATOM      8  C   UNK A   0      -4.893 -13.813   0.000  0.00  0.00    +0.000 C 
ATOM      9  O   UNK A   0      -4.893 -14.638   0.000  0.00  0.00    +0.000 OA
ATOM     10  N   UNK A   1      -4.178 -13.401   0.000  0.00  0.00    +0.000 NA
ATOM     11  C   UNK A   1      -3.464 -13.813   0.000  0.00  0.00    +0.000 C 
ATOM     12  C   UNK A   1      -2.749 -13.401   0.000  0.00  0.00    +0.000 C 
ATOM     13  C   UNK A   1      -2.035 -13.813   0.000  0.00  0.00    +0.000 C 
ATOM     14  C   UNK A   1      -1.320 -13.401   0.000  0.00  0.00    +0.000 C 
ATOM     15  C   UNK A   1      -0.606 -13.813   0.000  0.00  0.00    +0.000 C 
ATOM     16  N   UNK A   1       0.108 -13.401   0.000  0.00  0.00    +0.000 NA
ATOM     17  C   UNK A   1       0.823 -13.813   0.000  0.00  0.00    +0.000 C 
ATOM     18  O   UNK A   1       0.823 -14.638   0.000  0.00  0.00    +0.000 OA
ATOM     19  C   UNK A   1       1.537 -13.401   0.000  0.00  0.00    +0.000 C 
ATOM     20  C   UNK A   1       1.537 -12.576   0.000  0.00  0.00    +0.000 C 
ATOM     21  C   UNK A   1       0.823 -12.163   0.000  0.00  0.00    +0.000 A 
ATOM     22  C   UNK A   1       0.823 -11.338   0.000  0.00  0.00    +0.000 A 
ATOM     23  C   UNK A   1       0.108 -10.926   0.000  0.00  0.00    +0.000 A 
ATOM     24  C   UNK A   1      -0.606 -11.338   0.000  0.00  0.00    +0.000 A 
ATOM     25  C   UNK A   1      -1.320 -10.926   0.000  0.00  0.00    +0.000 A 
ATOM     26  C   UNK A   1      -1.320 -10.101   0.000  0.00  0.00    +0.000 A 
ATOM     27  C   UNK A   1      -0.606  -9.688   0.000  0.00  0.00    +0.000 A 
ATOM     28  C   UNK A   1       0.108 -10.101   0.000  0.00  0.00    +0.000 A 
ATOM     29  C   UNK A   1      -0.606 -12.163   0.000  0.00  0.00    +0.000 A 
ATOM     30  C   UNK A   1       0.108 -12.576   0.000  0.00  0.00    +0.000 A 
ATOM     31  N   UNK A   1       2.252 -13.813   0.000  0.00  0.00    +0.000 NA
ATOM     32  C   UNK A   1       2.966 -13.401   0.000  0.00  0.00    +0.000 C 
ATOM     33  O   UNK A   1       2.966 -12.576   0.000  0.00  0.00    +0.000 OA
ATOM     34  C   UNK A   1       3.681 -13.813   0.000  0.00  0.00    +0.000 C 
ATOM     35  C   UNK A   1       4.395 -13.401   0.000  0.00  0.00    +0.000 C 
ATOM     36  C   UNK A   1       5.110 -13.813   0.000  0.00  0.00    +0.000 C 
ATOM     37  C   UNK A   1       5.110 -14.638   0.000  0.00  0.00    +0.000 C 
ATOM     38  C   UNK A   1       5.824 -15.051   0.000  0.00  0.00    +0.000 C 
ATOM     39  N   UNK A   1       5.824 -15.876   0.000  0.00  0.00    +0.000 NA
ATOM     40  C   UNK A   1       6.539 -16.288   0.000  0.00  0.00    +0.000 C 
ATOM     41  O   UNK A   1       7.253 -15.876   0.000  0.00  0.00    +0.000 OA
ATOM     42  C   UNK A   1       6.539 -17.113   0.000  0.00  0.00    +0.000 C 
ATOM     43  N   UNK A   1       7.253 -17.526   0.000  0.00  0.00    +0.000 NA
ATOM     44  C   UNK A   1       6.670 -18.109   0.000  0.00  0.00    +0.000 C 
ATOM     45  C   UNK A   1       6.883 -18.906   0.000  0.00  0.00    +0.000 C 
ATOM     46  N   UNK A   1       7.680 -19.119   0.000  0.00  0.00    +0.000 NA
ATOM     47  C   UNK A   1       7.268 -19.834   0.000  0.00  0.00    +0.000 C 
ATOM     48  C   UNK A   1       6.443 -19.834   0.000  0.00  0.00    +0.000 C 
ATOM     49  O   UNK A   1       6.030 -20.548   0.000  0.00  0.00    +0.000 OA
ATOM     50  O   UNK A   1       6.030 -19.119   0.000  0.00  0.00    +0.000 OA
ATOM     51  C   UNK A   1       8.264 -19.703   0.000  0.00  0.00    +0.000 C 
ATOM     52  C   UNK A   1       9.060 -19.489   0.000  0.00  0.00    +0.000 C 
ATOM     53  N   UNK A   1       9.274 -18.692   0.000  0.00  0.00    +0.000 NA
ATOM     54  C   UNK A   1       9.989 -19.105   0.000  0.00  0.00    +0.000 C 
ATOM     55  C   UNK A   1       9.989 -19.930   0.000  0.00  0.00    +0.000 C 
ATOM     56  O   UNK A   1      10.703 -20.342   0.000  0.00  0.00    +0.000 OA
ATOM     57  O   UNK A   1       9.274 -20.342   0.000  0.00  0.00    +0.000 OA
ATOM     58  C   UNK A   1       9.857 -18.109   0.000  0.00  0.00    +0.000 C 
ATOM     59  C   UNK A   1       9.644 -17.312   0.000  0.00  0.00    +0.000 C 
ATOM     60  N   UNK A   1       8.847 -17.099   0.000  0.00  0.00    +0.000 NA
ATOM     61  C   UNK A   1       9.259 -16.384   0.000  0.00  0.00    +0.000 C 
ATOM     62  C   UNK A   1      10.085 -16.384   0.000  0.00  0.00    +0.000 C 
ATOM     63  O   UNK A   1      10.497 -15.670   0.000  0.00  0.00    +0.000 OA
ATOM     64  O   UNK A   1      10.497 -17.099   0.000  0.00  0.00    +0.000 OA
ATOM     65  C   UNK A   1       8.264 -16.515   0.000  0.00  0.00    +0.000 C 
ATOM     66  C   UNK A   1       7.467 -16.729   0.000  0.00  0.00    +0.000 C 
ATOM     67  C   UNK A   1       4.395 -15.051   0.000  0.00  0.00    +0.000 C 
ATOM     68  C   UNK A   1       3.681 -14.638   0.000  0.00  0.00    +0.000 C 
ATOM     69  C   UNK A   1      -3.464 -14.638   0.000  0.00  0.00    +0.000 C 
ATOM     70  O   UNK A   1      -4.178 -15.051   0.000  0.00  0.00    +0.000 OA
ATOM     71  O   UNK A   1      -2.749 -15.051   0.000  0.00  0.00    +0.000 OA
ATOM     72  C   UNK A   1      -6.322 -14.638   0.000  0.00  0.00    +0.000 C 
ATOM     73  O   UNK A   1      -5.607 -15.051   0.000  0.00  0.00    +0.000 OA
ATOM     74  O   UNK A   1      -7.036 -15.051   0.000  0.00  0.00    +0.000 OA
ENDROOT
TORSDOF 0
