ROOT
REMARK  Name = mannomustine
REMARK                            x       y       z     vdW  Elec       q    Type
REMARK                         _______ _______ _______ _____ _____    ______ ____
ATOM      1  O   UNL     1       8.331   4.810   0.000  0.00  0.00    +0.000 OA
ATOM      2  C   UNL     1       8.331   3.985   0.000  0.00  0.00    +0.000 C 
ATOM      3  C   UNL     1       7.616   3.572   0.000  0.00  0.00    +0.000 C 
ATOM      4  N   UNL     1       6.902   3.985   0.000  0.00  0.00    +0.000 NA
ATOM      5  C   UNL     1       6.188   3.572   0.000  0.00  0.00    +0.000 C 
ATOM      6  C   UNL     1       5.473   3.985   0.000  0.00  0.00    +0.000 C 
ATOM      7 CL   UNL     1       4.759   3.572   0.000  0.00  0.00    +0.000 Cl
ATOM      8  C   UNL     1       9.045   3.572   0.000  0.00  0.00    +0.000 C 
ATOM      9  O   UNL     1       9.045   2.747   0.000  0.00  0.00    +0.000 OA
ATOM     10  C   UNL     1       9.760   3.985   0.000  0.00  0.00    +0.000 C 
ATOM     11  O   UNL     1       9.760   4.810   0.000  0.00  0.00    +0.000 OA
ATOM     12  C   UNL     1      10.474   3.572   0.000  0.00  0.00    +0.000 C 
ATOM     13  O   UNL     1      10.474   2.747   0.000  0.00  0.00    +0.000 OA
ATOM     14  C   UNL     1      11.189   3.985   0.000  0.00  0.00    +0.000 C 
ATOM     15  N   UNL     1      11.903   3.572   0.000  0.00  0.00    +0.000 NA
ATOM     16  C   UNL     1      12.618   3.985   0.000  0.00  0.00    +0.000 C 
ATOM     17  C   UNL     1      13.332   3.572   0.000  0.00  0.00    +0.000 C 
ATOM     18 CL   UNL     1      14.047   3.985   0.000  0.00  0.00    +0.000 Cl
ENDROOT
TORSDOF 0
