ROOT
REMARK  Name = mannite hexanitrate
REMARK                            x       y       z     vdW  Elec       q    Type
REMARK                         _______ _______ _______ _____ _____    ______ ____
ATOM      1  O   UNL     1       4.236   4.095   0.000  0.00  0.00    +0.000 OA
ATOM      2  N   UNL     1       4.236   3.270   0.000  0.00  0.00    +0.000 N 
ATOM      3  O   UNL     1       3.521   2.858   0.000  0.00  0.00    +0.000 OA
ATOM      4  O   UNL     1       4.950   2.858   0.000  0.00  0.00    +0.000 OA
ATOM      5  C   UNL     1       5.665   3.270   0.000  0.00  0.00    +0.000 C 
ATOM      6  C   UNL     1       6.379   2.858   0.000  0.00  0.00    +0.000 C 
ATOM      7  O   UNL     1       6.379   2.033   0.000  0.00  0.00    +0.000 OA
ATOM      8  N   UNL     1       5.665   1.620   0.000  0.00  0.00    +0.000 N 
ATOM      9  O   UNL     1       5.665   0.795   0.000  0.00  0.00    +0.000 OA
ATOM     10  O   UNL     1       4.950   2.033   0.000  0.00  0.00    +0.000 OA
ATOM     11  C   UNL     1       7.093   3.270   0.000  0.00  0.00    +0.000 C 
ATOM     12  O   UNL     1       7.093   4.095   0.000  0.00  0.00    +0.000 OA
ATOM     13  N   UNL     1       6.379   4.508   0.000  0.00  0.00    +0.000 N 
ATOM     14  O   UNL     1       5.665   4.095   0.000  0.00  0.00    +0.000 OA
ATOM     15  O   UNL     1       6.379   5.333   0.000  0.00  0.00    +0.000 OA
ATOM     16  C   UNL     1       7.808   2.858   0.000  0.00  0.00    +0.000 C 
ATOM     17  O   UNL     1       7.808   2.033   0.000  0.00  0.00    +0.000 OA
ATOM     18  N   UNL     1       8.522   1.620   0.000  0.00  0.00    +0.000 N 
ATOM     19  O   UNL     1       9.237   2.033   0.000  0.00  0.00    +0.000 OA
ATOM     20  O   UNL     1       8.522   0.795   0.000  0.00  0.00    +0.000 OA
ATOM     21  C   UNL     1       8.522   3.270   0.000  0.00  0.00    +0.000 C 
ATOM     22  C   UNL     1       9.237   2.858   0.000  0.00  0.00    +0.000 C 
ATOM     23  O   UNL     1       9.951   3.270   0.000  0.00  0.00    +0.000 OA
ATOM     24  N   UNL     1      10.666   2.858   0.000  0.00  0.00    +0.000 N 
ATOM     25  O   UNL     1      11.380   3.270   0.000  0.00  0.00    +0.000 OA
ATOM     26  O   UNL     1      10.666   2.033   0.000  0.00  0.00    +0.000 OA
ATOM     27  O   UNL     1       8.522   4.095   0.000  0.00  0.00    +0.000 OA
ATOM     28  N   UNL     1       9.237   4.508   0.000  0.00  0.00    +0.000 N 
ATOM     29  O   UNL     1       9.237   5.333   0.000  0.00  0.00    +0.000 OA
ATOM     30  O   UNL     1       9.951   4.095   0.000  0.00  0.00    +0.000 OA
ENDROOT
TORSDOF 0
