ROOT
REMARK  Name = maribavir
REMARK                            x       y       z     vdW  Elec       q    Type
REMARK                         _______ _______ _______ _____ _____    ______ ____
ATOM      1  C   UNL     1      -0.171   0.731   0.000  0.00  0.00    +0.000 C 
ATOM      2  C   UNL     1      -0.584   0.017   0.000  0.00  0.00    +0.000 C 
ATOM      3  C   UNL     1      -1.409   0.017   0.000  0.00  0.00    +0.000 C 
ATOM      4  N   UNL     1      -0.171  -0.698   0.000  0.00  0.00    +0.000 NA
ATOM      5  C   UNL     1       0.654  -0.698   0.000  0.00  0.00    +0.000 A 
ATOM      6  N   UNL     1       1.139  -0.030   0.000  0.00  0.00    +0.000 NA
ATOM      7  C   UNL     1       1.923  -0.285   0.000  0.00  0.00    +0.000 A 
ATOM      8  C   UNL     1       2.638   0.127   0.000  0.00  0.00    +0.000 A 
ATOM      9  C   UNL     1       3.352  -0.285   0.000  0.00  0.00    +0.000 A 
ATOM     10  C   UNL     1       3.352  -1.110   0.000  0.00  0.00    +0.000 A 
ATOM     11  C   UNL     1       2.638  -1.523   0.000  0.00  0.00    +0.000 A 
ATOM     12  C   UNL     1       1.923  -1.110   0.000  0.00  0.00    +0.000 A 
ATOM     13  N   UNL     1       1.139  -1.365   0.000  0.00  0.00    +0.000 N 
ATOM     14  C1* UNL     1       0.884  -2.150   0.000  0.00  0.00    +0.000 C 
ATOM     15  C2* UNL     1       1.369  -2.817   0.000  0.00  0.00    +0.000 C 
ATOM     16  C3* UNL     1       0.884  -3.485   0.000  0.00  0.00    +0.000 C 
ATOM     17  C4* UNL     1       0.099  -3.230   0.000  0.00  0.00    +0.000 C 
ATOM     18  O4* UNL     1       0.099  -2.405   0.000  0.00  0.00    +0.000 OA
ATOM     19  C5* UNL     1      -0.568  -3.715   0.000  0.00  0.00    +0.000 C 
ATOM     20  O5* UNL     1      -1.322  -3.379   0.000  0.00  0.00    +0.000 OA
ATOM     21  O3* UNL     1       1.139  -4.269   0.000  0.00  0.00    +0.000 OA
ATOM     22  O2* UNL     1       2.194  -2.817   0.000  0.00  0.00    +0.000 OA
ATOM     23 CL   UNL     1       4.067  -1.523   0.000  0.00  0.00    +0.000 Cl
ATOM     24 CL   UNL     1       4.067   0.127   0.000  0.00  0.00    +0.000 Cl
ENDROOT
TORSDOF 0
