ROOT
REMARK  Name = mebrofenin
REMARK                            x       y       z     vdW  Elec       q    Type
REMARK                         _______ _______ _______ _____ _____    ______ ____
ATOM      1  C   UNL     1       2.143  -2.666   0.000  0.00  0.00    +0.000 C 
ATOM      2  C   UNL     1       1.318  -2.666   0.000  0.00  0.00    +0.000 A 
ATOM      3  C   UNL     1       0.906  -3.381   0.000  0.00  0.00    +0.000 A 
ATOM      4  C   UNL     1       0.081  -3.381   0.000  0.00  0.00    +0.000 A 
ATOM      5  C   UNL     1      -0.332  -4.095   0.000  0.00  0.00    +0.000 C 
ATOM      6  C   UNL     1      -0.332  -2.666   0.000  0.00  0.00    +0.000 A 
ATOM      7 BR   UNL     1      -1.157  -2.666   0.000  0.00  0.00    +0.000 Br
ATOM      8  C   UNL     1       0.081  -1.952   0.000  0.00  0.00    +0.000 A 
ATOM      9  C   UNL     1      -0.332  -1.238   0.000  0.00  0.00    +0.000 C 
ATOM     10  C   UNL     1       0.906  -1.952   0.000  0.00  0.00    +0.000 A 
ATOM     11  N   UNL     1       1.318  -1.238   0.000  0.00  0.00    +0.000 NA
ATOM     12  C   UNL     1       2.143  -1.238   0.000  0.00  0.00    +0.000 C 
ATOM     13  O   UNL     1       2.556  -1.952   0.000  0.00  0.00    +0.000 OA
ATOM     14  C   UNL     1       2.556  -0.523   0.000  0.00  0.00    +0.000 C 
ATOM     15  N   UNL     1       3.381  -0.523   0.000  0.00  0.00    +0.000 NA
ATOM     16  C   UNL     1       3.793   0.191   0.000  0.00  0.00    +0.000 C 
ATOM     17  C   UNL     1       3.381   0.906   0.000  0.00  0.00    +0.000 C 
ATOM     18  O   UNL     1       3.793   1.620   0.000  0.00  0.00    +0.000 OA
ATOM     19  O   UNL     1       2.556   0.906   0.000  0.00  0.00    +0.000 OA
ATOM     20  C   UNL     1       3.793  -1.238   0.000  0.00  0.00    +0.000 C 
ATOM     21  C   UNL     1       4.618  -1.238   0.000  0.00  0.00    +0.000 C 
ATOM     22  O   UNL     1       5.031  -0.523   0.000  0.00  0.00    +0.000 OA
ATOM     23  O   UNL     1       5.031  -1.952   0.000  0.00  0.00    +0.000 OA
ENDROOT
TORSDOF 0
