ROOT
REMARK  Name = menadiol sodium diphosphate
REMARK                            x       y       z     vdW  Elec       q    Type
REMARK                         _______ _______ _______ _____ _____    ______ ____
ATOM      1  C   UNL     1       0.000   0.000   0.000  0.00  0.00    +0.000 C 
ATOM      2  C   UNL     1       0.715  -0.412   0.000  0.00  0.00    +0.000 A 
ATOM      3  C   UNL     1       1.429   0.000   0.000  0.00  0.00    +0.000 A 
ATOM      4  O   UNL     1       1.429   0.825   0.000  0.00  0.00    +0.000 OA
ATOM      5  P   UNL     1       0.715   1.238   0.000  0.00  0.00    +0.000 P 
ATOM      6  O   UNL     1       0.000   1.650   0.000  0.00  0.00    +0.000 OA
ATOM      7  O   UNL     1       0.302   0.523   0.000  0.00  0.00    +0.000 OA
ATOM      8  O   UNL     1       1.127   1.952   0.000  0.00  0.00    +0.000 OA
ATOM      9  C   UNL     1       2.143  -0.412   0.000  0.00  0.00    +0.000 A 
ATOM     10  C   UNL     1       2.858   0.000   0.000  0.00  0.00    +0.000 A 
ATOM     11  C   UNL     1       3.572  -0.412   0.000  0.00  0.00    +0.000 A 
ATOM     12  C   UNL     1       3.572  -1.238   0.000  0.00  0.00    +0.000 A 
ATOM     13  C   UNL     1       2.858  -1.650   0.000  0.00  0.00    +0.000 A 
ATOM     14  C   UNL     1       2.143  -1.238   0.000  0.00  0.00    +0.000 A 
ATOM     15  C   UNL     1       1.429  -1.650   0.000  0.00  0.00    +0.000 A 
ATOM     16  O   UNL     1       1.429  -2.475   0.000  0.00  0.00    +0.000 OA
ATOM     17  P   UNL     1       2.143  -2.888   0.000  0.00  0.00    +0.000 P 
ATOM     18  O   UNL     1       2.858  -3.300   0.000  0.00  0.00    +0.000 OA
ATOM     19  O   UNL     1       1.731  -3.602   0.000  0.00  0.00    +0.000 OA
ATOM     20  O   UNL     1       2.556  -2.173   0.000  0.00  0.00    +0.000 OA
ATOM     21  C   UNL     1       0.715  -1.238   0.000  0.00  0.00    +0.000 A 
ENDROOT
TORSDOF 0
