ROOT
REMARK  Name = mercuric amidochloride
REMARK                            x       y       z     vdW  Elec       q    Type
REMARK                         _______ _______ _______ _____ _____    ______ ____
ATOM      1  N   UNL     1       1.650   0.000   0.000  0.00  0.00    +0.000 NA
ATOM      2 HG   UNL     1       2.475   0.000   0.000  0.00  0.00    +0.000 Hg
ATOM      3 CL   UNL     1       3.300   0.000   0.000  0.00  0.00    +0.000 Cl
ENDROOT
TORSDOF 0
