ROOT
REMARK  Name = mercuric iodide
REMARK                            x       y       z     vdW  Elec       q    Type
REMARK                         _______ _______ _______ _____ _____    ______ ____
ATOM      1  I   UNL     1       1.650   0.000   0.000  0.00  0.00    +0.000 I 
ATOM      2 HG   UNL     1       2.475   0.000   0.000  0.00  0.00    +0.000 Hg
ATOM      3  I   UNL     1       3.300   0.000   0.000  0.00  0.00    +0.000 I 
ENDROOT
TORSDOF 0
