ROOT
REMARK  Name = metesculetol
REMARK                            x       y       z     vdW  Elec       q    Type
REMARK                         _______ _______ _______ _____ _____    ______ ____
ATOM      1  C   UNL     1       1.429  -2.475   0.000  0.00  0.00    +0.000 C 
ATOM      2  C   UNL     1       1.429  -1.650   0.000  0.00  0.00    +0.000 A 
ATOM      3  C   UNL     1       0.715  -1.238   0.000  0.00  0.00    +0.000 A 
ATOM      4  C   UNL     1       0.715  -0.412   0.000  0.00  0.00    +0.000 A 
ATOM      5  O   UNL     1       0.000   0.000   0.000  0.00  0.00    +0.000 OA
ATOM      6  O   UNL     1       1.429   0.000   0.000  0.00  0.00    +0.000 OA
ATOM      7  C   UNL     1       2.143  -0.412   0.000  0.00  0.00    +0.000 A 
ATOM      8  C   UNL     1       2.858   0.000   0.000  0.00  0.00    +0.000 A 
ATOM      9  C   UNL     1       3.572  -0.412   0.000  0.00  0.00    +0.000 A 
ATOM     10  O   UNL     1       4.287   0.000   0.000  0.00  0.00    +0.000 OA
ATOM     11  C   UNL     1       3.572  -1.238   0.000  0.00  0.00    +0.000 A 
ATOM     12  O   UNL     1       4.287  -1.650   0.000  0.00  0.00    +0.000 OA
ATOM     13  C   UNL     1       5.001  -1.238   0.000  0.00  0.00    +0.000 C 
ATOM     14  C   UNL     1       5.716  -1.650   0.000  0.00  0.00    +0.000 C 
ATOM     15  O   UNL     1       6.430  -1.238   0.000  0.00  0.00    +0.000 OA
ATOM     16  O   UNL     1       5.716  -2.475   0.000  0.00  0.00    +0.000 OA
ATOM     17  C   UNL     1       2.858  -1.650   0.000  0.00  0.00    +0.000 A 
ATOM     18  C   UNL     1       2.143  -1.238   0.000  0.00  0.00    +0.000 A 
ENDROOT
TORSDOF 0
