ROOT
REMARK  Name = methotrexate
REMARK                            x       y       z     vdW  Elec       q    Type
REMARK                         _______ _______ _______ _____ _____    ______ ____
ATOM      1  C   UNK A   0       2.143  -4.537   0.000  0.00  0.00    +0.000 C 
ATOM      2  N   UNK A   0       2.858  -4.950   0.000  0.00  0.00    +0.000 N 
ATOM      3  C   UNK A   0       2.858  -5.775   0.000  0.00  0.00    +0.000 C 
ATOM      4  C   UNK A   0       2.143  -6.188   0.000  0.00  0.00    +0.000 A 
ATOM      5  C   UNK A   0       2.143  -7.013   0.000  0.00  0.00    +0.000 A 
ATOM      6  N   UNK A   0       1.429  -7.425   0.000  0.00  0.00    +0.000 NA
ATOM      7  C   UNK A   0       0.715  -7.013   0.000  0.00  0.00    +0.000 A 
ATOM      8  N   UNK A   0       0.000  -7.425   0.000  0.00  0.00    +0.000 NA
ATOM      9  C   UNK A   0      -0.715  -7.013   0.000  0.00  0.00    +0.000 A 
ATOM     10  N   UNK A   0      -1.429  -7.425   0.000  0.00  0.00    +0.000 NA
ATOM     11  N   UNK A   0      -0.715  -6.188   0.000  0.00  0.00    +0.000 NA
ATOM     12  C   UNK A   0       0.000  -5.775   0.000  0.00  0.00    +0.000 A 
ATOM     13  N   UNK A   0       0.000  -4.950   0.000  0.00  0.00    +0.000 NA
ATOM     14  C   UNK A   0       0.715  -6.188   0.000  0.00  0.00    +0.000 A 
ATOM     15  N   UNK A   0       1.429  -5.775   0.000  0.00  0.00    +0.000 NA
ATOM     16  C   UNK A   0       3.572  -4.537   0.000  0.00  0.00    +0.000 A 
ATOM     17  C   UNK A   0       3.572  -3.712   0.000  0.00  0.00    +0.000 A 
ATOM     18  C   UNK A   0       4.287  -3.300   0.000  0.00  0.00    +0.000 A 
ATOM     19  C   UNK A   0       5.001  -3.712   0.000  0.00  0.00    +0.000 A 
ATOM     20  C   UNK A   0       5.001  -4.537   0.000  0.00  0.00    +0.000 A 
ATOM     21  C   UNK A   0       4.287  -4.950   0.000  0.00  0.00    +0.000 A 
ATOM     22  C   UNK A   0       5.716  -3.300   0.000  0.00  0.00    +0.000 C 
ATOM     23  O   UNK A   0       5.716  -2.475   0.000  0.00  0.00    +0.000 OA
ATOM     24  N   GLU A   1       6.430  -3.712   0.000  0.00  0.00    +0.000 NA
ATOM     25  CA  GLU A   1       7.145  -3.300   0.000  0.00  0.00    +0.000 C 
ATOM     26  CB  GLU A   1       7.859  -3.712   0.000  0.00  0.00    +0.000 C 
ATOM     27  CG  GLU A   1       8.574  -3.300   0.000  0.00  0.00    +0.000 C 
ATOM     28  CD  GLU A   1       9.288  -3.712   0.000  0.00  0.00    +0.000 C 
ATOM     29  OE1 GLU A   1      10.003  -3.300   0.000  0.00  0.00    +0.000 OA
ATOM     30  OE2 GLU A   1       9.288  -4.537   0.000  0.00  0.00    +0.000 OA
ATOM     31  C   GLU A   1       7.145  -2.475   0.000  0.00  0.00    +0.000 C 
ATOM     32  O   GLU A   1       7.859  -2.062   0.000  0.00  0.00    +0.000 OA
ATOM     33  OXT GLU A   1       6.430  -2.062   0.000  0.00  0.00    +0.000 OA
ENDROOT
TORSDOF 0
