ROOT
REMARK  Name = methoxyflurane
REMARK                            x       y       z     vdW  Elec       q    Type
REMARK                         _______ _______ _______ _____ _____    ______ ____
ATOM      1  C   UNL     1       1.238   2.143   0.000  0.00  0.00    +0.000 C 
ATOM      2  O   UNL     1       1.650   1.429   0.000  0.00  0.00    +0.000 OA
ATOM      3  C   UNL     1       1.238   0.715   0.000  0.00  0.00    +0.000 C 
ATOM      4  F   UNL     1       0.523   1.127   0.000  0.00  0.00    +0.000 F 
ATOM      5  F   UNL     1       1.952   0.302   0.000  0.00  0.00    +0.000 F 
ATOM      6  C   UNL     1       0.825   0.000   0.000  0.00  0.00    +0.000 C 
ATOM      7 CL   UNL     1       1.238  -0.715   0.000  0.00  0.00    +0.000 Cl
ATOM      8 CL   UNL     1       0.000   0.000   0.000  0.00  0.00    +0.000 Cl
ENDROOT
TORSDOF 0
