ROOT
REMARK  Name = methsuximide
REMARK                            x       y       z     vdW  Elec       q    Type
REMARK                         _______ _______ _______ _____ _____    ______ ____
ATOM      1  C   UNL     1       2.082  -2.994   0.000  0.00  0.00    +0.000 C 
ATOM      2  N   UNL     1       1.597  -2.327   0.000  0.00  0.00    +0.000 N 
ATOM      3  C   UNL     1       0.772  -2.327   0.000  0.00  0.00    +0.000 C 
ATOM      4  O   UNL     1       0.287  -2.994   0.000  0.00  0.00    +0.000 OA
ATOM      5  C   UNL     1       0.517  -1.542   0.000  0.00  0.00    +0.000 C 
ATOM      6  C   UNL     1       1.184  -1.057   0.000  0.00  0.00    +0.000 C 
ATOM      7  C   UNL     1       0.632  -0.444   0.000  0.00  0.00    +0.000 C 
ATOM      8  C   UNL     1       1.851  -1.542   0.000  0.00  0.00    +0.000 C 
ATOM      9  O   UNL     1       2.636  -1.287   0.000  0.00  0.00    +0.000 OA
ATOM     10  C   UNL     1       1.736  -0.444   0.000  0.00  0.00    +0.000 A 
ATOM     11  C   UNL     1       1.481   0.341   0.000  0.00  0.00    +0.000 A 
ATOM     12  C   UNL     1       2.033   0.954   0.000  0.00  0.00    +0.000 A 
ATOM     13  C   UNL     1       2.840   0.782   0.000  0.00  0.00    +0.000 A 
ATOM     14  C   UNL     1       3.095  -0.003   0.000  0.00  0.00    +0.000 A 
ATOM     15  C   UNL     1       2.543  -0.616   0.000  0.00  0.00    +0.000 A 
ENDROOT
TORSDOF 0
