ROOT
REMARK  Name = methylrosaniline
REMARK                            x       y       z     vdW  Elec       q    Type
REMARK                         _______ _______ _______ _____ _____    ______ ____
ATOM      1  C   UNL     1      -1.650   0.825   0.000  0.00  0.00    +0.000 C 
ATOM      2  N   UNL     1      -0.935   0.412   0.000  0.00  0.00    +0.000 N 
ATOM      3  C   UNL     1      -0.221   0.825   0.000  0.00  0.00    +0.000 C 
ATOM      4  C   UNL     1      -0.935  -0.412   0.000  0.00  0.00    +0.000 A 
ATOM      5  C   UNL     1      -0.221  -0.825   0.000  0.00  0.00    +0.000 A 
ATOM      6  C   UNL     1      -0.221  -1.650   0.000  0.00  0.00    +0.000 A 
ATOM      7  C   UNL     1      -0.935  -2.062   0.000  0.00  0.00    +0.000 A 
ATOM      8  C   UNL     1      -1.650  -1.650   0.000  0.00  0.00    +0.000 A 
ATOM      9  C   UNL     1      -1.650  -0.825   0.000  0.00  0.00    +0.000 A 
ATOM     10  C   UNL     1      -0.935  -2.888   0.000  0.00  0.00    +0.000 C 
ATOM     11  O   UNL     1      -1.760  -2.888   0.000  0.00  0.00    +0.000 OA
ATOM     12  C   UNL     1      -0.935  -3.712   0.000  0.00  0.00    +0.000 A 
ATOM     13  C   UNL     1      -0.221  -4.125   0.000  0.00  0.00    +0.000 A 
ATOM     14  C   UNL     1      -0.221  -4.950   0.000  0.00  0.00    +0.000 A 
ATOM     15  C   UNL     1      -0.935  -5.362   0.000  0.00  0.00    +0.000 A 
ATOM     16  C   UNL     1      -1.650  -4.950   0.000  0.00  0.00    +0.000 A 
ATOM     17  C   UNL     1      -1.650  -4.125   0.000  0.00  0.00    +0.000 A 
ATOM     18  N   UNL     1      -0.935  -6.188   0.000  0.00  0.00    +0.000 N 
ATOM     19  C   UNL     1      -0.221  -6.600   0.000  0.00  0.00    +0.000 C 
ATOM     20  C   UNL     1      -1.650  -6.600   0.000  0.00  0.00    +0.000 C 
ATOM     21  C   UNL     1      -0.111  -2.888   0.000  0.00  0.00    +0.000 A 
ATOM     22  C   UNL     1       0.302  -2.173   0.000  0.00  0.00    +0.000 A 
ATOM     23  C   UNL     1       1.127  -2.173   0.000  0.00  0.00    +0.000 A 
ATOM     24  C   UNL     1       1.540  -2.888   0.000  0.00  0.00    +0.000 A 
ATOM     25  C   UNL     1       1.127  -3.602   0.000  0.00  0.00    +0.000 A 
ATOM     26  C   UNL     1       0.302  -3.602   0.000  0.00  0.00    +0.000 A 
ATOM     27  N   UNL     1       2.365  -2.888   0.000  0.00  0.00    +0.000 N 
ATOM     28  C   UNL     1       2.777  -3.602   0.000  0.00  0.00    +0.000 C 
ATOM     29  C   UNL     1       2.777  -2.173   0.000  0.00  0.00    +0.000 C 
ENDROOT
TORSDOF 0
