ROOT
REMARK  Name = metisazone
REMARK                            x       y       z     vdW  Elec       q    Type
REMARK                         _______ _______ _______ _____ _____    ______ ____
ATOM      1  C   UNL     1      -0.398   0.754   0.000  0.00  0.00    +0.000 C 
ATOM      2  N   UNL     1      -0.143  -0.030   0.000  0.00  0.00    +0.000 N 
ATOM      3  C   UNL     1      -0.628  -0.698   0.000  0.00  0.00    +0.000 C 
ATOM      4  O   UNL     1      -1.453  -0.698   0.000  0.00  0.00    +0.000 OA
ATOM      5  C   UNL     1      -0.143  -1.365   0.000  0.00  0.00    +0.000 C 
ATOM      6  N   UNL     1      -0.398  -2.150   0.000  0.00  0.00    +0.000 NA
ATOM      7  N   UNL     1       0.154  -2.763   0.000  0.00  0.00    +0.000 NA
ATOM      8  C   UNL     1      -0.101  -3.548   0.000  0.00  0.00    +0.000 C 
ATOM      9  N   UNL     1       0.451  -4.161   0.000  0.00  0.00    +0.000 NA
ATOM     10  S   UNL     1      -0.908  -3.719   0.000  0.00  0.00    +0.000 S 
ATOM     11  C   UNL     1       0.641  -1.110   0.000  0.00  0.00    +0.000 A 
ATOM     12  C   UNL     1       0.641  -0.285   0.000  0.00  0.00    +0.000 A 
ATOM     13  C   UNL     1       1.356   0.127   0.000  0.00  0.00    +0.000 A 
ATOM     14  C   UNL     1       2.070  -0.285   0.000  0.00  0.00    +0.000 A 
ATOM     15  C   UNL     1       2.070  -1.110   0.000  0.00  0.00    +0.000 A 
ATOM     16  C   UNL     1       1.356  -1.523   0.000  0.00  0.00    +0.000 A 
ENDROOT
TORSDOF 0
