ROOT
REMARK  Name = milrinone
REMARK                            x       y       z     vdW  Elec       q    Type
REMARK                         _______ _______ _______ _____ _____    ______ ____
ATOM      1  C   UNL     1       0.715  -0.412   0.000  0.00  0.00    +0.000 C 
ATOM      2  C   UNL     1       0.715  -1.238   0.000  0.00  0.00    +0.000 A 
ATOM      3  C   UNL     1       1.429  -1.650   0.000  0.00  0.00    +0.000 A 
ATOM      4  C   UNL     1       1.429  -2.475   0.000  0.00  0.00    +0.000 A 
ATOM      5  C   UNL     1       0.715  -2.888   0.000  0.00  0.00    +0.000 A 
ATOM      6  C   UNL     1       0.715  -3.712   0.000  0.00  0.00    +0.000 C 
ATOM      7  N   UNL     1       0.715  -4.537   0.000  0.00  0.00    +0.000 NA
ATOM      8  C   UNL     1       0.000  -2.475   0.000  0.00  0.00    +0.000 A 
ATOM      9  O   UNL     1      -0.715  -2.888   0.000  0.00  0.00    +0.000 OA
ATOM     10  N   UNL     1       0.000  -1.650   0.000  0.00  0.00    +0.000 NA
ATOM     11  C   UNL     1       2.143  -1.238   0.000  0.00  0.00    +0.000 A 
ATOM     12  C   UNL     1       2.143  -0.412   0.000  0.00  0.00    +0.000 A 
ATOM     13  C   UNL     1       2.858   0.000   0.000  0.00  0.00    +0.000 A 
ATOM     14  N   UNL     1       3.572  -0.412   0.000  0.00  0.00    +0.000 NA
ATOM     15  C   UNL     1       3.572  -1.238   0.000  0.00  0.00    +0.000 A 
ATOM     16  C   UNL     1       2.858  -1.650   0.000  0.00  0.00    +0.000 A 
ENDROOT
TORSDOF 0
