ROOT
REMARK  Name = mirabegron
REMARK                            x       y       z     vdW  Elec       q    Type
REMARK                         _______ _______ _______ _____ _____    ______ ____
ATOM      1  N   UNL     1      -2.326  -9.362   0.000  0.00  0.00    +0.000 NA
ATOM      2  C   UNL     1      -1.841  -8.694   0.000  0.00  0.00    +0.000 A 
ATOM      3  N   UNL     1      -2.096  -7.910   0.000  0.00  0.00    +0.000 NA
ATOM      4  C   UNL     1      -1.429  -7.425   0.000  0.00  0.00    +0.000 A 
ATOM      5  C   UNL     1      -1.429  -6.600   0.000  0.00  0.00    +0.000 C 
ATOM      6  C   UNL     1      -0.715  -6.188   0.000  0.00  0.00    +0.000 C 
ATOM      7  O   UNL     1       0.000  -6.600   0.000  0.00  0.00    +0.000 OA
ATOM      8  N   UNL     1      -0.715  -5.362   0.000  0.00  0.00    +0.000 NA
ATOM      9  C   UNL     1       0.000  -4.950   0.000  0.00  0.00    +0.000 A 
ATOM     10  C   UNL     1       0.000  -4.125   0.000  0.00  0.00    +0.000 A 
ATOM     11  C   UNL     1       0.715  -3.712   0.000  0.00  0.00    +0.000 A 
ATOM     12  C   UNL     1       1.429  -4.125   0.000  0.00  0.00    +0.000 A 
ATOM     13  C   UNL     1       2.143  -3.712   0.000  0.00  0.00    +0.000 C 
ATOM     14  C   UNL     1       2.858  -4.125   0.000  0.00  0.00    +0.000 C 
ATOM     15  N   UNL     1       3.572  -3.712   0.000  0.00  0.00    +0.000 NA
ATOM     16  C   UNL     1       4.287  -4.125   0.000  0.00  0.00    +0.000 C 
ATOM     17  C   UNL     1       5.001  -3.712   0.000  0.00  0.00    +0.000 C 
ATOM     18  O   UNL     1       5.001  -2.888   0.000  0.00  0.00    +0.000 OA
ATOM     19  C   UNL     1       5.716  -4.125   0.000  0.00  0.00    +0.000 A 
ATOM     20  C   UNL     1       6.430  -3.712   0.000  0.00  0.00    +0.000 A 
ATOM     21  C   UNL     1       7.145  -4.125   0.000  0.00  0.00    +0.000 A 
ATOM     22  C   UNL     1       7.145  -4.950   0.000  0.00  0.00    +0.000 A 
ATOM     23  C   UNL     1       6.430  -5.362   0.000  0.00  0.00    +0.000 A 
ATOM     24  C   UNL     1       5.716  -4.950   0.000  0.00  0.00    +0.000 A 
ATOM     25  C   UNL     1       1.429  -4.950   0.000  0.00  0.00    +0.000 A 
ATOM     26  C   UNL     1       0.715  -5.362   0.000  0.00  0.00    +0.000 A 
ATOM     27  C   UNL     1      -0.761  -7.910   0.000  0.00  0.00    +0.000 A 
ATOM     28  S   UNL     1      -1.016  -8.694   0.000  0.00  0.00    +0.000 S 
ENDROOT
TORSDOF 0
