ROOT
REMARK  Name = mitomycin
REMARK                            x       y       z     vdW  Elec       q    Type
REMARK                         _______ _______ _______ _____ _____    ______ ____
ATOM      1  C   UNL     1       3.800  -0.868   0.000  0.00  0.00    +0.000 C 
ATOM      2  O   UNL     1       2.980  -0.774   0.000  0.00  0.00    +0.000 OA
ATOM      3  C   UNL     1       2.651  -0.017   0.000  0.00  0.00    +0.000 C 
ATOM      4  C   UNL     1       3.473   0.061   0.000  0.00  0.00    +0.000 C 
ATOM      5  N   UNL     1       4.259   0.309   0.000  0.00  0.00    +0.000 NA
ATOM      6  C   UNL     1       3.651   0.867   0.000  0.00  0.00    +0.000 C 
ATOM      7  C   UNL     1       2.941   1.286   0.000  0.00  0.00    +0.000 C 
ATOM      8  N   UNL     1       2.323   0.739   0.000  0.00  0.00    +0.000 N 
ATOM      9  C   UNL     1       1.501   0.660   0.000  0.00  0.00    +0.000 C 
ATOM     10  C   UNL     1       1.323  -0.145   0.000  0.00  0.00    +0.000 C 
ATOM     11  C   UNL     1       2.033  -0.564   0.000  0.00  0.00    +0.000 C 
ATOM     12  C   UNL     1       2.112  -1.385   0.000  0.00  0.00    +0.000 C 
ATOM     13  O   UNL     1       2.863  -1.728   0.000  0.00  0.00    +0.000 OA
ATOM     14  C   UNL     1       2.942  -2.549   0.000  0.00  0.00    +0.000 C 
ATOM     15  N   UNL     1       3.692  -2.891   0.000  0.00  0.00    +0.000 NA
ATOM     16  O   UNL     1       2.270  -3.028   0.000  0.00  0.00    +0.000 OA
ATOM     17  C   UNL     1       0.536  -0.393   0.000  0.00  0.00    +0.000 C 
ATOM     18  O   UNL     1       0.357  -1.198   0.000  0.00  0.00    +0.000 OA
ATOM     19  C   UNL     1      -0.072   0.165   0.000  0.00  0.00    +0.000 C 
ATOM     20  N   UNL     1      -0.859  -0.083   0.000  0.00  0.00    +0.000 NA
ATOM     21  C   UNL     1       0.106   0.970   0.000  0.00  0.00    +0.000 C 
ATOM     22  C   UNL     1      -0.502   1.528   0.000  0.00  0.00    +0.000 C 
ATOM     23  C   UNL     1       0.893   1.218   0.000  0.00  0.00    +0.000 C 
ATOM     24  O   UNL     1       1.072   2.023   0.000  0.00  0.00    +0.000 OA
ENDROOT
TORSDOF 0
