ROOT
REMARK  Name = mofezolac
REMARK                            x       y       z     vdW  Elec       q    Type
REMARK                         _______ _______ _______ _____ _____    ______ ____
ATOM      1  C   UNL     1       0.000   2.475   0.000  0.00  0.00    +0.000 C 
ATOM      2  O   UNL     1       0.715   2.062   0.000  0.00  0.00    +0.000 OA
ATOM      3  C   UNL     1       0.715   1.238   0.000  0.00  0.00    +0.000 A 
ATOM      4  C   UNL     1       1.429   0.825   0.000  0.00  0.00    +0.000 A 
ATOM      5  C   UNL     1       1.429   0.000   0.000  0.00  0.00    +0.000 A 
ATOM      6  C   UNL     1       0.715  -0.412   0.000  0.00  0.00    +0.000 A 
ATOM      7  C   UNL     1       0.000   0.000   0.000  0.00  0.00    +0.000 A 
ATOM      8  C   UNL     1       0.000   0.825   0.000  0.00  0.00    +0.000 A 
ATOM      9  C   UNL     1       0.715  -1.238   0.000  0.00  0.00    +0.000 A 
ATOM     10  N   UNL     1       1.382  -1.722   0.000  0.00  0.00    +0.000 NA
ATOM     11  O   UNL     1       1.127  -2.507   0.000  0.00  0.00    +0.000 OA
ATOM     12  C   UNL     1       0.302  -2.507   0.000  0.00  0.00    +0.000 A 
ATOM     13  C   UNL     1      -0.183  -3.175   0.000  0.00  0.00    +0.000 C 
ATOM     14  C   UNL     1       0.153  -3.928   0.000  0.00  0.00    +0.000 C 
ATOM     15  O   UNL     1       0.973  -4.014   0.000  0.00  0.00    +0.000 OA
ATOM     16  O   UNL     1      -0.332  -4.596   0.000  0.00  0.00    +0.000 OA
ATOM     17  C   UNL     1       0.047  -1.722   0.000  0.00  0.00    +0.000 A 
ATOM     18  C   UNL     1      -0.738  -1.468   0.000  0.00  0.00    +0.000 A 
ATOM     19  C   UNL     1      -1.351  -2.019   0.000  0.00  0.00    +0.000 A 
ATOM     20  C   UNL     1      -2.135  -1.765   0.000  0.00  0.00    +0.000 A 
ATOM     21  C   UNL     1      -2.307  -0.958   0.000  0.00  0.00    +0.000 A 
ATOM     22  O   UNL     1      -3.091  -0.703   0.000  0.00  0.00    +0.000 OA
ATOM     23  C   UNL     1      -3.704  -1.255   0.000  0.00  0.00    +0.000 C 
ATOM     24  C   UNL     1      -1.694  -0.406   0.000  0.00  0.00    +0.000 A 
ATOM     25  C   UNL     1      -0.909  -0.660   0.000  0.00  0.00    +0.000 A 
ENDROOT
TORSDOF 0
