ROOT
REMARK  Name = montelukast
REMARK                            x       y       z     vdW  Elec       q    Type
REMARK                         _______ _______ _______ _____ _____    ______ ____
ATOM      1  C   UNL     1      -2.143   5.362   0.000  0.00  0.00    +0.000 C 
ATOM      2  C   UNL     1      -2.858   4.950   0.000  0.00  0.00    +0.000 C 
ATOM      3  C   UNL     1      -3.270   5.665   0.000  0.00  0.00    +0.000 C 
ATOM      4  O   UNL     1      -2.445   4.236   0.000  0.00  0.00    +0.000 OA
ATOM      5  C   UNL     1      -3.572   4.537   0.000  0.00  0.00    +0.000 A 
ATOM      6  C   UNL     1      -3.572   3.712   0.000  0.00  0.00    +0.000 A 
ATOM      7  C   UNL     1      -2.858   3.300   0.000  0.00  0.00    +0.000 C 
ATOM      8  C   UNL     1      -2.858   2.475   0.000  0.00  0.00    +0.000 C 
ATOM      9  C   UNL     1      -2.143   2.062   0.000  0.00  0.00    +0.000 C 
ATOM     10  S   UNL     1      -1.429   2.475   0.000  0.00  0.00    +0.000 S 
ATOM     11  C   UNL     1      -1.429   3.300   0.000  0.00  0.00    +0.000 C 
ATOM     12  C   UNL     1      -0.715   3.712   0.000  0.00  0.00    +0.000 C 
ATOM     13  C   UNL     1      -0.184   3.080   0.000  0.00  0.00    +0.000 C 
ATOM     14  C   UNL     1       0.628   3.224   0.000  0.00  0.00    +0.000 C 
ATOM     15  O   UNL     1       0.910   3.999   0.000  0.00  0.00    +0.000 OA
ATOM     16  O   UNL     1       1.159   2.592   0.000  0.00  0.00    +0.000 OA
ATOM     17  C   UNL     1      -0.997   4.488   0.000  0.00  0.00    +0.000 C 
ATOM     18  C   UNL     1      -0.184   4.345   0.000  0.00  0.00    +0.000 C 
ATOM     19  C   UNL     1      -2.143   1.238   0.000  0.00  0.00    +0.000 A 
ATOM     20  C   UNL     1      -1.429   0.825   0.000  0.00  0.00    +0.000 A 
ATOM     21  C   UNL     1      -1.429   0.000   0.000  0.00  0.00    +0.000 A 
ATOM     22  C   UNL     1      -0.715  -0.412   0.000  0.00  0.00    +0.000 C 
ATOM     23  C   UNL     1       0.000   0.000   0.000  0.00  0.00    +0.000 C 
ATOM     24  C   UNL     1       0.715  -0.412   0.000  0.00  0.00    +0.000 A 
ATOM     25  N   UNL     1       1.429   0.000   0.000  0.00  0.00    +0.000 NA
ATOM     26  C   UNL     1       2.143  -0.412   0.000  0.00  0.00    +0.000 A 
ATOM     27  C   UNL     1       2.858   0.000   0.000  0.00  0.00    +0.000 A 
ATOM     28  C   UNL     1       3.572  -0.412   0.000  0.00  0.00    +0.000 A 
ATOM     29 CL   UNL     1       4.287   0.000   0.000  0.00  0.00    +0.000 Cl
ATOM     30  C   UNL     1       3.572  -1.238   0.000  0.00  0.00    +0.000 A 
ATOM     31  C   UNL     1       2.858  -1.650   0.000  0.00  0.00    +0.000 A 
ATOM     32  C   UNL     1       2.143  -1.238   0.000  0.00  0.00    +0.000 A 
ATOM     33  C   UNL     1       1.429  -1.650   0.000  0.00  0.00    +0.000 A 
ATOM     34  C   UNL     1       0.715  -1.238   0.000  0.00  0.00    +0.000 A 
ATOM     35  C   UNL     1      -2.143  -0.412   0.000  0.00  0.00    +0.000 A 
ATOM     36  C   UNL     1      -2.858   0.000   0.000  0.00  0.00    +0.000 A 
ATOM     37  C   UNL     1      -2.858   0.825   0.000  0.00  0.00    +0.000 A 
ATOM     38  C   UNL     1      -4.287   3.300   0.000  0.00  0.00    +0.000 A 
ATOM     39  C   UNL     1      -5.001   3.712   0.000  0.00  0.00    +0.000 A 
ATOM     40  C   UNL     1      -5.001   4.537   0.000  0.00  0.00    +0.000 A 
ATOM     41  C   UNL     1      -4.287   4.950   0.000  0.00  0.00    +0.000 A 
ENDROOT
TORSDOF 0
