ROOT
REMARK  Name = moperone
REMARK                            x       y       z     vdW  Elec       q    Type
REMARK                         _______ _______ _______ _____ _____    ______ ____
ATOM      1  C   UNL     1      -2.558   1.451   0.000  0.00  0.00    +0.000 C 
ATOM      2  C   UNL     1      -2.275   0.676   0.000  0.00  0.00    +0.000 A 
ATOM      3  C   UNL     1      -1.463   0.532   0.000  0.00  0.00    +0.000 A 
ATOM      4  C   UNL     1      -1.181  -0.243   0.000  0.00  0.00    +0.000 A 
ATOM      5  C   UNL     1      -1.711  -0.875   0.000  0.00  0.00    +0.000 A 
ATOM      6  C   UNL     1      -2.524  -0.732   0.000  0.00  0.00    +0.000 A 
ATOM      7  C   UNL     1      -2.806   0.044   0.000  0.00  0.00    +0.000 A 
ATOM      8  C   UNL     1      -1.429  -1.650   0.000  0.00  0.00    +0.000 C 
ATOM      9  O   UNL     1      -2.241  -1.793   0.000  0.00  0.00    +0.000 OA
ATOM     10  C   UNL     1      -0.715  -1.238   0.000  0.00  0.00    +0.000 C 
ATOM     11  C   UNL     1       0.000  -1.650   0.000  0.00  0.00    +0.000 C 
ATOM     12  N   UNL     1       0.000  -2.475   0.000  0.00  0.00    +0.000 NA
ATOM     13  C   UNL     1       0.715  -2.888   0.000  0.00  0.00    +0.000 C 
ATOM     14  C   UNL     1       1.429  -2.475   0.000  0.00  0.00    +0.000 C 
ATOM     15  C   UNL     1       2.143  -2.888   0.000  0.00  0.00    +0.000 C 
ATOM     16  C   UNL     1       2.858  -2.475   0.000  0.00  0.00    +0.000 C 
ATOM     17  O   UNL     1       2.858  -1.650   0.000  0.00  0.00    +0.000 OA
ATOM     18  C   UNL     1       3.572  -2.888   0.000  0.00  0.00    +0.000 A 
ATOM     19  C   UNL     1       4.287  -2.475   0.000  0.00  0.00    +0.000 A 
ATOM     20  C   UNL     1       5.001  -2.888   0.000  0.00  0.00    +0.000 A 
ATOM     21  C   UNL     1       5.001  -3.712   0.000  0.00  0.00    +0.000 A 
ATOM     22  F   UNL     1       5.716  -4.125   0.000  0.00  0.00    +0.000 F 
ATOM     23  C   UNL     1       4.287  -4.125   0.000  0.00  0.00    +0.000 A 
ATOM     24  C   UNL     1       3.572  -3.712   0.000  0.00  0.00    +0.000 A 
ATOM     25  C   UNL     1      -0.715  -2.888   0.000  0.00  0.00    +0.000 C 
ATOM     26  C   UNL     1      -1.429  -2.475   0.000  0.00  0.00    +0.000 C 
ENDROOT
TORSDOF 0
