ROOT
REMARK  Name = morinidazole
REMARK                            x       y       z     vdW  Elec       q    Type
REMARK                         _______ _______ _______ _____ _____    ______ ____
ATOM      1  C   UNL     1       2.751  -1.712   0.000  0.00  0.00    +0.000 C 
ATOM      2  C   UNL     1       2.751  -2.537   0.000  0.00  0.00    +0.000 A 
ATOM      3  N   UNL     1       3.419  -3.022   0.000  0.00  0.00    +0.000 NA
ATOM      4  C   UNL     1       3.164  -3.806   0.000  0.00  0.00    +0.000 A 
ATOM      5  C   UNL     1       2.339  -3.806   0.000  0.00  0.00    +0.000 A 
ATOM      6  N   UNL     1       2.084  -3.022   0.000  0.00  0.00    +0.000 N 
ATOM      7  C   UNL     1       1.299  -2.767   0.000  0.00  0.00    +0.000 C 
ATOM      8  C   UNL     1       1.128  -1.960   0.000  0.00  0.00    +0.000 C 
ATOM      9  O   UNL     1       1.741  -1.408   0.000  0.00  0.00    +0.000 OA
ATOM     10  C   UNL     1       0.343  -1.705   0.000  0.00  0.00    +0.000 C 
ATOM     11  N   UNL     1       0.171  -0.898   0.000  0.00  0.00    +0.000 NA
ATOM     12  C   UNL     1      -0.613  -0.643   0.000  0.00  0.00    +0.000 C 
ATOM     13  C   UNL     1      -0.785   0.164   0.000  0.00  0.00    +0.000 C 
ATOM     14  O   UNL     1      -0.172   0.716   0.000  0.00  0.00    +0.000 OA
ATOM     15  C   UNL     1       0.613   0.461   0.000  0.00  0.00    +0.000 C 
ATOM     16  C   UNL     1       0.784  -0.346   0.000  0.00  0.00    +0.000 C 
ATOM     17  N   UNL     1       1.854  -4.474   0.000  0.00  0.00    +0.000 N 
ATOM     18  O   UNL     1       2.189  -5.227   0.000  0.00  0.00    +0.000 OA
ATOM     19  O   UNL     1       1.033  -4.387   0.000  0.00  0.00    +0.000 OA
ENDROOT
TORSDOF 0
