ROOT
REMARK  Name = mosapride
REMARK                            x       y       z     vdW  Elec       q    Type
REMARK                         _______ _______ _______ _____ _____    ______ ____
ATOM      1  C   UNL     1       3.572  -2.888   0.000  0.00  0.00    +0.000 C 
ATOM      2  C   UNL     1       3.572  -3.712   0.000  0.00  0.00    +0.000 C 
ATOM      3  O   UNL     1       4.287  -4.125   0.000  0.00  0.00    +0.000 OA
ATOM      4  C   UNL     1       4.287  -4.950   0.000  0.00  0.00    +0.000 A 
ATOM      5  C   UNL     1       5.001  -5.362   0.000  0.00  0.00    +0.000 A 
ATOM      6  C   UNL     1       5.001  -6.188   0.000  0.00  0.00    +0.000 A 
ATOM      7  C   UNL     1       4.287  -6.600   0.000  0.00  0.00    +0.000 A 
ATOM      8 CL   UNL     1       4.287  -7.425   0.000  0.00  0.00    +0.000 Cl
ATOM      9  C   UNL     1       3.572  -6.188   0.000  0.00  0.00    +0.000 A 
ATOM     10  N   UNL     1       2.858  -6.600   0.000  0.00  0.00    +0.000 NA
ATOM     11  C   UNL     1       3.572  -5.362   0.000  0.00  0.00    +0.000 A 
ATOM     12  C   UNL     1       5.716  -4.950   0.000  0.00  0.00    +0.000 C 
ATOM     13  O   UNL     1       5.716  -4.125   0.000  0.00  0.00    +0.000 OA
ATOM     14  N   UNL     1       6.430  -5.362   0.000  0.00  0.00    +0.000 NA
ATOM     15  C   UNL     1       7.145  -4.950   0.000  0.00  0.00    +0.000 C 
ATOM     16  C   UNL     1       7.859  -5.362   0.000  0.00  0.00    +0.000 C 
ATOM     17  C   UNL     1       8.574  -4.950   0.000  0.00  0.00    +0.000 C 
ATOM     18  N   UNL     1       9.288  -5.362   0.000  0.00  0.00    +0.000 NA
ATOM     19  C   UNL     1      10.003  -4.950   0.000  0.00  0.00    +0.000 C 
ATOM     20  C   UNL     1      10.717  -5.362   0.000  0.00  0.00    +0.000 A 
ATOM     21  C   UNL     1      11.431  -4.950   0.000  0.00  0.00    +0.000 A 
ATOM     22  C   UNL     1      12.146  -5.362   0.000  0.00  0.00    +0.000 A 
ATOM     23  C   UNL     1      12.146  -6.188   0.000  0.00  0.00    +0.000 A 
ATOM     24  F   UNL     1      12.861  -6.600   0.000  0.00  0.00    +0.000 F 
ATOM     25  C   UNL     1      11.431  -6.600   0.000  0.00  0.00    +0.000 A 
ATOM     26  C   UNL     1      10.717  -6.188   0.000  0.00  0.00    +0.000 A 
ATOM     27  C   UNL     1       9.288  -6.188   0.000  0.00  0.00    +0.000 C 
ATOM     28  C   UNL     1       8.574  -6.600   0.000  0.00  0.00    +0.000 C 
ATOM     29  O   UNL     1       7.859  -6.188   0.000  0.00  0.00    +0.000 OA
ENDROOT
TORSDOF 0
