ROOT
REMARK  Name = moxastine
REMARK                            x       y       z     vdW  Elec       q    Type
REMARK                         _______ _______ _______ _____ _____    ______ ____
ATOM      1  C   UNL     1       0.935   3.712   0.000  0.00  0.00    +0.000 C 
ATOM      2  N   UNL     1       0.935   2.888   0.000  0.00  0.00    +0.000 NA
ATOM      3  C   UNL     1       0.221   2.475   0.000  0.00  0.00    +0.000 C 
ATOM      4  C   UNL     1       1.650   2.475   0.000  0.00  0.00    +0.000 C 
ATOM      5  C   UNL     1       1.650   1.650   0.000  0.00  0.00    +0.000 C 
ATOM      6  O   UNL     1       2.365   1.238   0.000  0.00  0.00    +0.000 OA
ATOM      7  C   UNL     1       2.365   0.412   0.000  0.00  0.00    +0.000 C 
ATOM      8  C   UNL     1       1.540   0.412   0.000  0.00  0.00    +0.000 C 
ATOM      9  C   UNL     1       2.365  -0.412   0.000  0.00  0.00    +0.000 A 
ATOM     10  C   UNL     1       3.079  -0.825   0.000  0.00  0.00    +0.000 A 
ATOM     11  C   UNL     1       3.079  -1.650   0.000  0.00  0.00    +0.000 A 
ATOM     12  C   UNL     1       2.365  -2.062   0.000  0.00  0.00    +0.000 A 
ATOM     13  C   UNL     1       1.650  -1.650   0.000  0.00  0.00    +0.000 A 
ATOM     14  C   UNL     1       1.650  -0.825   0.000  0.00  0.00    +0.000 A 
ATOM     15  C   UNL     1       3.189   0.412   0.000  0.00  0.00    +0.000 A 
ATOM     16  C   UNL     1       3.602   1.127   0.000  0.00  0.00    +0.000 A 
ATOM     17  C   UNL     1       4.427   1.127   0.000  0.00  0.00    +0.000 A 
ATOM     18  C   UNL     1       4.840   0.412   0.000  0.00  0.00    +0.000 A 
ATOM     19  C   UNL     1       4.427  -0.302   0.000  0.00  0.00    +0.000 A 
ATOM     20  C   UNL     1       3.602  -0.302   0.000  0.00  0.00    +0.000 A 
ENDROOT
TORSDOF 0
