ROOT
REMARK  Name = naldemedine
REMARK                            x       y       z     vdW  Elec       q    Type
REMARK                         _______ _______ _______ _____ _____    ______ ____
ATOM      1  C   UNL     1      -1.837  -0.049   0.000  0.00  0.00    +0.000 C 
ATOM      2  C   UNL     1      -1.654  -0.853   0.000  0.00  0.00    +0.000 C 
ATOM      3  C   UNL     1      -1.471  -1.657   0.000  0.00  0.00    +0.000 C 
ATOM      4  N   UNL     1      -0.850  -0.670   0.000  0.00  0.00    +0.000 NA
ATOM      5  C   UNL     1      -0.606   0.118   0.000  0.00  0.00    +0.000 C 
ATOM      6  O   UNL     1      -1.167   0.724   0.000  0.00  0.00    +0.000 OA
ATOM      7  C   UNL     1       0.198   0.302   0.000  0.00  0.00    +0.000 C 
ATOM      8  C   UNL     1       0.818  -0.279   0.000  0.00  0.00    +0.000 C 
ATOM      9  O   UNL     1       0.633  -1.083   0.000  0.00  0.00    +0.000 OA
ATOM     10  C   UNL     1       1.635  -0.026   0.000  0.00  0.00    +0.000 C 
ATOM     11  O   UNL     1       2.452  -0.222   0.000  0.00  0.00    +0.000 OA
ATOM     12  C   UNL     1       2.926   0.488   0.000  0.00  0.00    +0.000 A 
ATOM     13  C   UNL     1       3.727   0.721   0.000  0.00  0.00    +0.000 A 
ATOM     14  O   UNL     1       4.310   0.137   0.000  0.00  0.00    +0.000 OA
ATOM     15  C   UNL     1       3.963   1.524   0.000  0.00  0.00    +0.000 A 
ATOM     16  C   UNL     1       3.389   2.129   0.000  0.00  0.00    +0.000 A 
ATOM     17  C   UNL     1       2.569   1.967   0.000  0.00  0.00    +0.000 A 
ATOM     18  C   UNL     1       2.405   1.128   0.000  0.00  0.00    +0.000 A 
ATOM     19  C   UNL     1       1.655   0.814   0.000  0.00  0.00    +0.000 C 
ATOM     20  C   UNL     1       0.801   0.569   0.000  0.00  0.00    +0.000 C 
ATOM     21  C   UNL     1      -0.008   1.073   0.000  0.00  0.00    +0.000 C 
ATOM     22  N   UNL     1       0.223   1.915   0.000  0.00  0.00    +0.000 NA
ATOM     23  C   UNL     1      -0.367   2.491   0.000  0.00  0.00    +0.000 C 
ATOM     24  C   UNL     1      -1.161   2.268   0.000  0.00  0.00    +0.000 C 
ATOM     25  C   UNL     1      -1.738   1.678   0.000  0.00  0.00    +0.000 C 
ATOM     26  C   UNL     1      -1.961   2.472   0.000  0.00  0.00    +0.000 C 
ATOM     27  C   UNL     1       1.061   2.166   0.000  0.00  0.00    +0.000 C 
ATOM     28  C   UNL     1       1.861   2.476   0.000  0.00  0.00    +0.000 C 
ATOM     29  C   UNL     1       1.310   1.420   0.000  0.00  0.00    +0.000 C 
ATOM     30  O   UNL     1       2.063   1.757   0.000  0.00  0.00    +0.000 OA
ATOM     31  C   UNL     1       0.530   1.158   0.000  0.00  0.00    +0.000 C 
ATOM     32  C   UNL     1      -2.458  -1.036   0.000  0.00  0.00    +0.000 A 
ATOM     33  N   UNL     1      -2.783  -1.795   0.000  0.00  0.00    +0.000 NA
ATOM     34  C   UNL     1      -3.605  -1.720   0.000  0.00  0.00    +0.000 A 
ATOM     35  N   UNL     1      -3.788  -0.916   0.000  0.00  0.00    +0.000 NA
ATOM     36  O   UNL     1      -3.079  -0.493   0.000  0.00  0.00    +0.000 OA
ATOM     37  C   UNL     1      -4.148  -2.341   0.000  0.00  0.00    +0.000 A 
ATOM     38  C   UNL     1      -3.881  -3.122   0.000  0.00  0.00    +0.000 A 
ATOM     39  C   UNL     1      -4.424  -3.743   0.000  0.00  0.00    +0.000 A 
ATOM     40  C   UNL     1      -5.234  -3.584   0.000  0.00  0.00    +0.000 A 
ATOM     41  C   UNL     1      -5.500  -2.803   0.000  0.00  0.00    +0.000 A 
ATOM     42  C   UNL     1      -4.957  -2.182   0.000  0.00  0.00    +0.000 A 
ENDROOT
TORSDOF 0
