ROOT
REMARK  Name = nalorphine
REMARK                            x       y       z     vdW  Elec       q    Type
REMARK                         _______ _______ _______ _____ _____    ______ ____
ATOM      1  O   UNL     1       0.864  -2.422   0.000  0.00  0.00    +0.000 OA
ATOM      2  C   UNL     1       1.119  -1.637   0.000  0.00  0.00    +0.000 C 
ATOM      3  C   UNL     1       0.560  -1.037   0.000  0.00  0.00    +0.000 C 
ATOM      4  C   UNL     1       0.873  -0.296   0.000  0.00  0.00    +0.000 C 
ATOM      5  C   UNL     1       1.847  -0.149   0.000  0.00  0.00    +0.000 C 
ATOM      6  C   UNL     1       2.437   0.636   0.000  0.00  0.00    +0.000 C 
ATOM      7  C   UNL     1       3.256   0.626   0.000  0.00  0.00    +0.000 C 
ATOM      8  C   UNL     1       3.554  -0.123   0.000  0.00  0.00    +0.000 A 
ATOM      9  C   UNL     1       4.379  -0.209   0.000  0.00  0.00    +0.000 A 
ATOM     10  C   UNL     1       4.691  -0.974   0.000  0.00  0.00    +0.000 A 
ATOM     11  C   UNL     1       4.171  -1.630   0.000  0.00  0.00    +0.000 A 
ATOM     12  O   UNL     1       4.488  -2.392   0.000  0.00  0.00    +0.000 OA
ATOM     13  C   UNL     1       3.322  -1.536   0.000  0.00  0.00    +0.000 A 
ATOM     14  C   UNL     1       3.031  -0.769   0.000  0.00  0.00    +0.000 A 
ATOM     15  C   UNL     1       2.159  -0.645   0.000  0.00  0.00    +0.000 C 
ATOM     16  C   UNL     1       1.314  -0.046   0.000  0.00  0.00    +0.000 C 
ATOM     17  C   UNL     1       1.172   0.841   0.000  0.00  0.00    +0.000 C 
ATOM     18  N   UNL     1       1.893   1.225   0.000  0.00  0.00    +0.000 NA
ATOM     19  C   UNL     1       2.031   2.038   0.000  0.00  0.00    +0.000 C 
ATOM     20  C   UNL     1       2.805   2.325   0.000  0.00  0.00    +0.000 C 
ATOM     21  C   UNL     1       2.943   3.139   0.000  0.00  0.00    +0.000 C 
ATOM     22  C   UNL     1       1.945  -1.477   0.000  0.00  0.00    +0.000 C 
ATOM     23  O   UNL     1       2.610  -1.980   0.000  0.00  0.00    +0.000 OA
ENDROOT
TORSDOF 0
