ROOT
REMARK  Name = nateglinide
REMARK                            x       y       z     vdW  Elec       q    Type
REMARK                         _______ _______ _______ _____ _____    ______ ____
ATOM      1  C   UNK A   0      -1.429  -5.775   0.000  0.00  0.00    +0.000 C 
ATOM      2  C   UNK A   0      -1.429  -4.950   0.000  0.00  0.00    +0.000 C 
ATOM      3  C   UNK A   0      -2.143  -4.537   0.000  0.00  0.00    +0.000 C 
ATOM      4  C   UNK A   0      -0.715  -4.537   0.000  0.00  0.00    +0.000 C 
ATOM      5  C   UNK A   0      -0.715  -3.712   0.000  0.00  0.00    +0.000 C 
ATOM      6  C   UNK A   0       0.000  -3.300   0.000  0.00  0.00    +0.000 C 
ATOM      7  C   UNK A   0       0.715  -3.712   0.000  0.00  0.00    +0.000 C 
ATOM      8  C   UNK A   0       0.715  -4.537   0.000  0.00  0.00    +0.000 C 
ATOM      9  C   UNK A   0       0.000  -4.950   0.000  0.00  0.00    +0.000 C 
ATOM     10  C   UNK A   0       1.429  -3.300   0.000  0.00  0.00    +0.000 C 
ATOM     11  O   UNK A   0       2.143  -3.712   0.000  0.00  0.00    +0.000 OA
ATOM     12  N   PHE A   1       1.429  -2.475   0.000  0.00  0.00    +0.000 NA
ATOM     13  CA  PHE A   1       2.143  -2.062   0.000  0.00  0.00    +0.000 C 
ATOM     14  CB  PHE A   1       2.143  -1.238   0.000  0.00  0.00    +0.000 C 
ATOM     15  CG  PHE A   1       2.858  -0.825   0.000  0.00  0.00    +0.000 A 
ATOM     16  CD1 PHE A   1       2.858   0.000   0.000  0.00  0.00    +0.000 A 
ATOM     17  CE1 PHE A   1       3.572   0.412   0.000  0.00  0.00    +0.000 A 
ATOM     18  CZ  PHE A   1       4.287   0.000   0.000  0.00  0.00    +0.000 A 
ATOM     19  CE2 PHE A   1       4.287  -0.825   0.000  0.00  0.00    +0.000 A 
ATOM     20  CD2 PHE A   1       3.572  -1.238   0.000  0.00  0.00    +0.000 A 
ATOM     21  C   PHE A   1       2.858  -2.475   0.000  0.00  0.00    +0.000 C 
ATOM     22  O   PHE A   1       3.572  -2.062   0.000  0.00  0.00    +0.000 OA
ATOM     23  OXT PHE A   1       2.858  -3.300   0.000  0.00  0.00    +0.000 OA
ENDROOT
TORSDOF 0
