ROOT
REMARK  Name = niclosamide
REMARK                            x       y       z     vdW  Elec       q    Type
REMARK                         _______ _______ _______ _____ _____    ______ ____
ATOM      1  O   UNL     1       1.429  -1.650   0.000  0.00  0.00    +0.000 OA
ATOM      2  C   UNL     1       1.429  -2.475   0.000  0.00  0.00    +0.000 A 
ATOM      3  C   UNL     1       2.143  -2.888   0.000  0.00  0.00    +0.000 A 
ATOM      4  C   UNL     1       2.143  -3.712   0.000  0.00  0.00    +0.000 A 
ATOM      5  C   UNL     1       1.429  -4.125   0.000  0.00  0.00    +0.000 A 
ATOM      6 CL   UNL     1       1.429  -4.950   0.000  0.00  0.00    +0.000 Cl
ATOM      7  C   UNL     1       0.715  -3.712   0.000  0.00  0.00    +0.000 A 
ATOM      8  C   UNL     1       0.715  -2.888   0.000  0.00  0.00    +0.000 A 
ATOM      9  C   UNL     1       2.858  -2.475   0.000  0.00  0.00    +0.000 C 
ATOM     10  O   UNL     1       3.572  -2.888   0.000  0.00  0.00    +0.000 OA
ATOM     11  N   UNL     1       2.858  -1.650   0.000  0.00  0.00    +0.000 NA
ATOM     12  C   UNL     1       3.572  -1.238   0.000  0.00  0.00    +0.000 A 
ATOM     13  C   UNL     1       3.572  -0.412   0.000  0.00  0.00    +0.000 A 
ATOM     14 CL   UNL     1       2.858   0.000   0.000  0.00  0.00    +0.000 Cl
ATOM     15  C   UNL     1       4.287   0.000   0.000  0.00  0.00    +0.000 A 
ATOM     16  C   UNL     1       5.001  -0.412   0.000  0.00  0.00    +0.000 A 
ATOM     17  C   UNL     1       5.001  -1.238   0.000  0.00  0.00    +0.000 A 
ATOM     18  C   UNL     1       4.287  -1.650   0.000  0.00  0.00    +0.000 A 
ATOM     19  N   UNL     1       5.716   0.000   0.000  0.00  0.00    +0.000 N 
ATOM     20  O   UNL     1       5.716   0.825   0.000  0.00  0.00    +0.000 OA
ATOM     21  O   UNL     1       6.430  -0.412   0.000  0.00  0.00    +0.000 OA
ENDROOT
TORSDOF 0
