ROOT
REMARK  Name = nicomorphine
REMARK                            x       y       z     vdW  Elec       q    Type
REMARK                         _______ _______ _______ _____ _____    ______ ____
ATOM      1  C   UNL     1       1.369  -3.617   0.000  0.00  0.00    +0.000 C 
ATOM      2  N   UNL     1       1.491  -2.801   0.000  0.00  0.00    +0.000 NA
ATOM      3  C   UNL     1       0.918  -2.227   0.000  0.00  0.00    +0.000 C 
ATOM      4  C   UNL     1       1.252  -1.277   0.000  0.00  0.00    +0.000 C 
ATOM      5  C   UNL     1       2.088  -1.003   0.000  0.00  0.00    +0.000 C 
ATOM      6  C   UNL     1       1.781  -0.231   0.000  0.00  0.00    +0.000 C 
ATOM      7  O   UNL     1       2.495   0.233   0.000  0.00  0.00    +0.000 OA
ATOM      8  C   UNL     1       3.212  -0.239   0.000  0.00  0.00    +0.000 A 
ATOM      9  C   UNL     1       2.932  -1.004   0.000  0.00  0.00    +0.000 A 
ATOM     10  C   UNL     1       3.391  -1.715   0.000  0.00  0.00    +0.000 A 
ATOM     11  C   UNL     1       3.009  -2.450   0.000  0.00  0.00    +0.000 C 
ATOM     12  C   UNL     1       2.202  -2.424   0.000  0.00  0.00    +0.000 C 
ATOM     13  C   UNL     1       1.866  -1.588   0.000  0.00  0.00    +0.000 C 
ATOM     14  C   UNL     1       0.906  -1.666   0.000  0.00  0.00    +0.000 C 
ATOM     15  C   UNL     1       0.456  -0.958   0.000  0.00  0.00    +0.000 C 
ATOM     16  C   UNL     1       0.913  -0.252   0.000  0.00  0.00    +0.000 C 
ATOM     17  O   UNL     1       0.509   0.468   0.000  0.00  0.00    +0.000 OA
ATOM     18  C   UNL     1      -0.316   0.479   0.000  0.00  0.00    +0.000 C 
ATOM     19  O   UNL     1      -0.737  -0.230   0.000  0.00  0.00    +0.000 OA
ATOM     20  C   UNL     1      -0.719   1.199   0.000  0.00  0.00    +0.000 A 
ATOM     21  C   UNL     1      -1.544   1.209   0.000  0.00  0.00    +0.000 A 
ATOM     22  N   UNL     1      -1.947   1.929   0.000  0.00  0.00    +0.000 NA
ATOM     23  C   UNL     1      -1.525   2.638   0.000  0.00  0.00    +0.000 A 
ATOM     24  C   UNL     1      -0.700   2.627   0.000  0.00  0.00    +0.000 A 
ATOM     25  C   UNL     1      -0.297   1.908   0.000  0.00  0.00    +0.000 A 
ATOM     26  C   UNL     1       4.211  -1.645   0.000  0.00  0.00    +0.000 A 
ATOM     27  C   UNL     1       4.551  -0.889   0.000  0.00  0.00    +0.000 A 
ATOM     28  C   UNL     1       4.061  -0.206   0.000  0.00  0.00    +0.000 A 
ATOM     29  O   UNL     1       4.423   0.535   0.000  0.00  0.00    +0.000 OA
ATOM     30  C   UNL     1       3.962   1.220   0.000  0.00  0.00    +0.000 C 
ATOM     31  O   UNL     1       3.139   1.163   0.000  0.00  0.00    +0.000 OA
ATOM     32  C   UNL     1       4.325   1.961   0.000  0.00  0.00    +0.000 A 
ATOM     33  C   UNL     1       3.864   2.645   0.000  0.00  0.00    +0.000 A 
ATOM     34  N   UNL     1       4.226   3.386   0.000  0.00  0.00    +0.000 NA
ATOM     35  C   UNL     1       5.049   3.443   0.000  0.00  0.00    +0.000 A 
ATOM     36  C   UNL     1       5.510   2.759   0.000  0.00  0.00    +0.000 A 
ATOM     37  C   UNL     1       5.148   2.018   0.000  0.00  0.00    +0.000 A 
ENDROOT
TORSDOF 0
