ROOT
REMARK  Name = nidroxyzone
REMARK                            x       y       z     vdW  Elec       q    Type
REMARK                         _______ _______ _______ _____ _____    ______ ____
ATOM      1  N   UNL     1       0.028  -1.200   0.000  0.00  0.00    +0.000 NA
ATOM      2  C   UNL     1       0.743  -1.612   0.000  0.00  0.00    +0.000 C 
ATOM      3  O   UNL     1       1.457  -1.200   0.000  0.00  0.00    +0.000 OA
ATOM      4  N   UNL     1       0.743  -2.437   0.000  0.00  0.00    +0.000 N 
ATOM      5  C   UNL     1       1.457  -2.850   0.000  0.00  0.00    +0.000 C 
ATOM      6  C   UNL     1       2.171  -2.437   0.000  0.00  0.00    +0.000 C 
ATOM      7  O   UNL     1       2.886  -2.850   0.000  0.00  0.00    +0.000 OA
ATOM      8  N   UNL     1       0.028  -2.850   0.000  0.00  0.00    +0.000 NA
ATOM      9  C   UNL     1      -0.686  -2.437   0.000  0.00  0.00    +0.000 C 
ATOM     10  C   UNL     1      -1.401  -2.850   0.000  0.00  0.00    +0.000 A 
ATOM     11  C   UNL     1      -1.487  -3.670   0.000  0.00  0.00    +0.000 A 
ATOM     12  C   UNL     1      -2.294  -3.842   0.000  0.00  0.00    +0.000 A 
ATOM     13  C   UNL     1      -2.707  -3.127   0.000  0.00  0.00    +0.000 A 
ATOM     14  O   UNL     1      -2.155  -2.514   0.000  0.00  0.00    +0.000 OA
ATOM     15  N   UNL     1      -3.527  -3.041   0.000  0.00  0.00    +0.000 N 
ATOM     16  O   UNL     1      -4.012  -3.708   0.000  0.00  0.00    +0.000 OA
ATOM     17  O   UNL     1      -3.863  -2.287   0.000  0.00  0.00    +0.000 OA
ENDROOT
TORSDOF 0
