ROOT
REMARK  Name = nifekalant
REMARK                            x       y       z     vdW  Elec       q    Type
REMARK                         _______ _______ _______ _____ _____    ______ ____
ATOM      1  C   UNL     1       0.000  -6.600   0.000  0.00  0.00    +0.000 C 
ATOM      2  N   UNL     1       0.715  -6.188   0.000  0.00  0.00    +0.000 N 
ATOM      3  C   UNL     1       0.715  -5.362   0.000  0.00  0.00    +0.000 A 
ATOM      4  O   UNL     1       0.000  -4.950   0.000  0.00  0.00    +0.000 OA
ATOM      5  C   UNL     1       1.429  -4.950   0.000  0.00  0.00    +0.000 A 
ATOM      6  C   UNL     1       2.143  -5.362   0.000  0.00  0.00    +0.000 A 
ATOM      7  N   UNL     1       2.858  -4.950   0.000  0.00  0.00    +0.000 NA
ATOM      8  C   UNL     1       3.572  -5.362   0.000  0.00  0.00    +0.000 C 
ATOM      9  C   UNL     1       4.287  -4.950   0.000  0.00  0.00    +0.000 C 
ATOM     10  N   UNL     1       5.001  -5.362   0.000  0.00  0.00    +0.000 NA
ATOM     11  C   UNL     1       5.001  -6.188   0.000  0.00  0.00    +0.000 C 
ATOM     12  C   UNL     1       5.716  -6.600   0.000  0.00  0.00    +0.000 C 
ATOM     13  O   UNL     1       5.716  -7.425   0.000  0.00  0.00    +0.000 OA
ATOM     14  C   UNL     1       5.716  -4.950   0.000  0.00  0.00    +0.000 C 
ATOM     15  C   UNL     1       6.430  -5.362   0.000  0.00  0.00    +0.000 C 
ATOM     16  C   UNL     1       7.145  -4.950   0.000  0.00  0.00    +0.000 C 
ATOM     17  C   UNL     1       7.859  -5.362   0.000  0.00  0.00    +0.000 A 
ATOM     18  C   UNL     1       8.574  -4.950   0.000  0.00  0.00    +0.000 A 
ATOM     19  C   UNL     1       9.288  -5.362   0.000  0.00  0.00    +0.000 A 
ATOM     20  C   UNL     1       9.288  -6.188   0.000  0.00  0.00    +0.000 A 
ATOM     21  C   UNL     1       8.574  -6.600   0.000  0.00  0.00    +0.000 A 
ATOM     22  C   UNL     1       7.859  -6.188   0.000  0.00  0.00    +0.000 A 
ATOM     23  N   UNL     1      10.003  -6.600   0.000  0.00  0.00    +0.000 N 
ATOM     24  O   UNL     1      10.717  -6.188   0.000  0.00  0.00    +0.000 OA
ATOM     25  O   UNL     1      10.003  -7.425   0.000  0.00  0.00    +0.000 OA
ATOM     26  N   UNL     1       2.143  -6.188   0.000  0.00  0.00    +0.000 N 
ATOM     27  C   UNL     1       2.858  -6.600   0.000  0.00  0.00    +0.000 C 
ATOM     28  C   UNL     1       1.429  -6.600   0.000  0.00  0.00    +0.000 A 
ATOM     29  O   UNL     1       1.429  -7.425   0.000  0.00  0.00    +0.000 OA
ENDROOT
TORSDOF 0
