ROOT
REMARK  Name = niraparib
REMARK                            x       y       z     vdW  Elec       q    Type
REMARK                         _______ _______ _______ _____ _____    ______ ____
ATOM      1  N   UNL     1       3.993   2.475   0.000  0.00  0.00    +0.000 NA
ATOM      2  C   UNL     1       3.279   2.062   0.000  0.00  0.00    +0.000 C 
ATOM      3  O   UNL     1       2.564   2.475   0.000  0.00  0.00    +0.000 OA
ATOM      4  C   UNL     1       3.279   1.238   0.000  0.00  0.00    +0.000 A 
ATOM      5  C   UNL     1       3.993   0.825   0.000  0.00  0.00    +0.000 A 
ATOM      6  C   UNL     1       3.993   0.000   0.000  0.00  0.00    +0.000 A 
ATOM      7  C   UNL     1       3.279  -0.412   0.000  0.00  0.00    +0.000 A 
ATOM      8  C   UNL     1       2.564   0.000   0.000  0.00  0.00    +0.000 A 
ATOM      9  C   UNL     1       1.780  -0.255   0.000  0.00  0.00    +0.000 A 
ATOM     10  N   UNL     1       1.295   0.412   0.000  0.00  0.00    +0.000 N 
ATOM     11  N   UNL     1       1.780   1.080   0.000  0.00  0.00    +0.000 NA
ATOM     12  C   UNL     1       2.564   0.825   0.000  0.00  0.00    +0.000 A 
ATOM     13  C   UNL     1       0.470   0.412   0.000  0.00  0.00    +0.000 A 
ATOM     14  C   UNL     1       0.057  -0.302   0.000  0.00  0.00    +0.000 A 
ATOM     15  C   UNL     1      -0.768  -0.302   0.000  0.00  0.00    +0.000 A 
ATOM     16  C   UNL     1      -1.180   0.412   0.000  0.00  0.00    +0.000 A 
ATOM     17  C   UNL     1      -0.768   1.127   0.000  0.00  0.00    +0.000 A 
ATOM     18  C   UNL     1       0.057   1.127   0.000  0.00  0.00    +0.000 A 
ATOM     19  C   UNL     1      -2.005   0.412   0.000  0.00  0.00    +0.000 C 
ATOM     20  C   UNL     1      -2.418  -0.302   0.000  0.00  0.00    +0.000 C 
ATOM     21  C   UNL     1      -3.243  -0.302   0.000  0.00  0.00    +0.000 C 
ATOM     22  C   UNL     1      -3.655   0.412   0.000  0.00  0.00    +0.000 C 
ATOM     23  N   UNL     1      -3.243   1.127   0.000  0.00  0.00    +0.000 NA
ATOM     24  C   UNL     1      -2.418   1.127   0.000  0.00  0.00    +0.000 C 
ENDROOT
TORSDOF 0
