ROOT
REMARK  Name = nitroxazepine
REMARK                            x       y       z     vdW  Elec       q    Type
REMARK                         _______ _______ _______ _____ _____    ______ ____
ATOM      1  C   UNL     1      -1.939  -2.366   0.000  0.00  0.00    +0.000 C 
ATOM      2  N   UNL     1      -1.225  -1.954   0.000  0.00  0.00    +0.000 NA
ATOM      3  C   UNL     1      -1.225  -1.129   0.000  0.00  0.00    +0.000 C 
ATOM      4  C   UNL     1      -0.510  -2.366   0.000  0.00  0.00    +0.000 C 
ATOM      5  C   UNL     1       0.204  -1.954   0.000  0.00  0.00    +0.000 C 
ATOM      6  C   UNL     1       0.918  -2.366   0.000  0.00  0.00    +0.000 C 
ATOM      7  N   UNL     1       1.633  -1.954   0.000  0.00  0.00    +0.000 N 
ATOM      8  C   UNL     1       1.571  -1.131   0.000  0.00  0.00    +0.000 A 
ATOM      9  C   UNL     1       2.176  -0.570   0.000  0.00  0.00    +0.000 A 
ATOM     10  O   UNL     1       2.992  -0.693   0.000  0.00  0.00    +0.000 OA
ATOM     11  C   UNL     1       3.404  -1.407   0.000  0.00  0.00    +0.000 A 
ATOM     12  C   UNL     1       4.220  -1.284   0.000  0.00  0.00    +0.000 A 
ATOM     13  C   UNL     1       4.734  -1.929   0.000  0.00  0.00    +0.000 A 
ATOM     14  C   UNL     1       4.433  -2.697   0.000  0.00  0.00    +0.000 A 
ATOM     15  C   UNL     1       3.617  -2.820   0.000  0.00  0.00    +0.000 A 
ATOM     16  C   UNL     1       3.103  -2.175   0.000  0.00  0.00    +0.000 A 
ATOM     17  C   UNL     1       2.315  -2.418   0.000  0.00  0.00    +0.000 C 
ATOM     18  O   UNL     1       2.192  -3.234   0.000  0.00  0.00    +0.000 OA
ATOM     19  N   UNL     1       4.947  -3.342   0.000  0.00  0.00    +0.000 N 
ATOM     20  O   UNL     1       5.763  -3.219   0.000  0.00  0.00    +0.000 OA
ATOM     21  O   UNL     1       4.646  -4.110   0.000  0.00  0.00    +0.000 OA
ATOM     22  C   UNL     1       1.992   0.234   0.000  0.00  0.00    +0.000 A 
ATOM     23  C   UNL     1       1.204   0.478   0.000  0.00  0.00    +0.000 A 
ATOM     24  C   UNL     1       0.599  -0.084   0.000  0.00  0.00    +0.000 A 
ATOM     25  C   UNL     1       0.783  -0.888   0.000  0.00  0.00    +0.000 A 
ENDROOT
TORSDOF 0
