ROOT
REMARK  Name = nizofenone
REMARK                            x       y       z     vdW  Elec       q    Type
REMARK                         _______ _______ _______ _____ _____    ______ ____
ATOM      1  C   UNL     1       1.536  -0.062   0.000  0.00  0.00    +0.000 C 
ATOM      2  C   UNL     1       0.821  -0.474   0.000  0.00  0.00    +0.000 C 
ATOM      3  N   UNL     1       0.821  -1.299   0.000  0.00  0.00    +0.000 NA
ATOM      4  C   UNL     1       1.536  -1.712   0.000  0.00  0.00    +0.000 C 
ATOM      5  C   UNL     1       1.536  -2.537   0.000  0.00  0.00    +0.000 C 
ATOM      6  C   UNL     1       0.107  -1.712   0.000  0.00  0.00    +0.000 C 
ATOM      7  C   UNL     1       0.107  -2.537   0.000  0.00  0.00    +0.000 A 
ATOM      8  N   UNL     1       0.774  -3.022   0.000  0.00  0.00    +0.000 NA
ATOM      9  C   UNL     1       0.519  -3.806   0.000  0.00  0.00    +0.000 A 
ATOM     10  C   UNL     1      -0.306  -3.806   0.000  0.00  0.00    +0.000 A 
ATOM     11  N   UNL     1      -0.561  -3.022   0.000  0.00  0.00    +0.000 N 
ATOM     12  C   UNL     1      -1.345  -2.767   0.000  0.00  0.00    +0.000 A 
ATOM     13  C   UNL     1      -1.958  -3.319   0.000  0.00  0.00    +0.000 A 
ATOM     14  C   UNL     1      -2.743  -3.064   0.000  0.00  0.00    +0.000 A 
ATOM     15  C   UNL     1      -2.915  -2.257   0.000  0.00  0.00    +0.000 A 
ATOM     16  C   UNL     1      -2.301  -1.705   0.000  0.00  0.00    +0.000 A 
ATOM     17  C   UNL     1      -1.517  -1.960   0.000  0.00  0.00    +0.000 A 
ATOM     18  N   UNL     1      -3.699  -2.002   0.000  0.00  0.00    +0.000 N 
ATOM     19  O   UNL     1      -3.871  -1.195   0.000  0.00  0.00    +0.000 OA
ATOM     20  O   UNL     1      -4.312  -2.554   0.000  0.00  0.00    +0.000 OA
ATOM     21  C   UNL     1      -1.787  -4.126   0.000  0.00  0.00    +0.000 C 
ATOM     22  O   UNL     1      -1.002  -4.380   0.000  0.00  0.00    +0.000 OA
ATOM     23  C   UNL     1      -2.400  -4.678   0.000  0.00  0.00    +0.000 A 
ATOM     24  C   UNL     1      -2.228  -5.485   0.000  0.00  0.00    +0.000 A 
ATOM     25 CL   UNL     1      -1.444  -5.739   0.000  0.00  0.00    +0.000 Cl
ATOM     26  C   UNL     1      -2.842  -6.037   0.000  0.00  0.00    +0.000 A 
ATOM     27  C   UNL     1      -3.626  -5.782   0.000  0.00  0.00    +0.000 A 
ATOM     28  C   UNL     1      -3.798  -4.975   0.000  0.00  0.00    +0.000 A 
ATOM     29  C   UNL     1      -3.185  -4.423   0.000  0.00  0.00    +0.000 A 
ENDROOT
TORSDOF 0
