ROOT
REMARK  Name = noxiptiline
REMARK                            x       y       z     vdW  Elec       q    Type
REMARK                         _______ _______ _______ _____ _____    ______ ____
ATOM      1  C   UNL     1       0.058  -3.245   0.000  0.00  0.00    +0.000 C 
ATOM      2  N   UNL     1       0.773  -2.833   0.000  0.00  0.00    +0.000 NA
ATOM      3  C   UNL     1       0.773  -2.008   0.000  0.00  0.00    +0.000 C 
ATOM      4  C   UNL     1       1.487  -3.245   0.000  0.00  0.00    +0.000 C 
ATOM      5  C   UNL     1       2.202  -2.833   0.000  0.00  0.00    +0.000 C 
ATOM      6  O   UNL     1       2.916  -3.245   0.000  0.00  0.00    +0.000 OA
ATOM      7  N   UNL     1       3.631  -2.833   0.000  0.00  0.00    +0.000 NA
ATOM      8  C   UNL     1       4.345  -3.245   0.000  0.00  0.00    +0.000 C 
ATOM      9  C   UNL     1       5.027  -2.781   0.000  0.00  0.00    +0.000 A 
ATOM     10  C   UNL     1       4.843  -1.976   0.000  0.00  0.00    +0.000 A 
ATOM     11  C   UNL     1       5.448  -1.415   0.000  0.00  0.00    +0.000 A 
ATOM     12  C   UNL     1       6.237  -1.658   0.000  0.00  0.00    +0.000 A 
ATOM     13  C   UNL     1       6.420  -2.463   0.000  0.00  0.00    +0.000 A 
ATOM     14  C   UNL     1       5.815  -3.024   0.000  0.00  0.00    +0.000 A 
ATOM     15  C   UNL     1       6.117  -3.792   0.000  0.00  0.00    +0.000 C 
ATOM     16  C   UNL     1       5.704  -4.506   0.000  0.00  0.00    +0.000 C 
ATOM     17  C   UNL     1       4.888  -4.629   0.000  0.00  0.00    +0.000 A 
ATOM     18  C   UNL     1       4.284  -4.068   0.000  0.00  0.00    +0.000 A 
ATOM     19  C   UNL     1       3.495  -4.311   0.000  0.00  0.00    +0.000 A 
ATOM     20  C   UNL     1       3.312  -5.115   0.000  0.00  0.00    +0.000 A 
ATOM     21  C   UNL     1       3.917  -5.677   0.000  0.00  0.00    +0.000 A 
ATOM     22  C   UNL     1       4.705  -5.433   0.000  0.00  0.00    +0.000 A 
ENDROOT
TORSDOF 0
