ROOT
REMARK  Name = octabenzone
REMARK                            x       y       z     vdW  Elec       q    Type
REMARK                         _______ _______ _______ _____ _____    ______ ____
ATOM      1  C   UNL     1      -5.716  -6.600   0.000  0.00  0.00    +0.000 C 
ATOM      2  C   UNL     1      -5.001  -7.013   0.000  0.00  0.00    +0.000 C 
ATOM      3  C   UNL     1      -4.287  -6.600   0.000  0.00  0.00    +0.000 C 
ATOM      4  C   UNL     1      -3.572  -7.013   0.000  0.00  0.00    +0.000 C 
ATOM      5  C   UNL     1      -2.858  -6.600   0.000  0.00  0.00    +0.000 C 
ATOM      6  C   UNL     1      -2.143  -7.013   0.000  0.00  0.00    +0.000 C 
ATOM      7  C   UNL     1      -1.429  -6.600   0.000  0.00  0.00    +0.000 C 
ATOM      8  C   UNL     1      -0.715  -7.013   0.000  0.00  0.00    +0.000 C 
ATOM      9  O   UNL     1       0.000  -6.600   0.000  0.00  0.00    +0.000 OA
ATOM     10  C   UNL     1       0.715  -7.013   0.000  0.00  0.00    +0.000 A 
ATOM     11  C   UNL     1       1.429  -6.600   0.000  0.00  0.00    +0.000 A 
ATOM     12  C   UNL     1       2.143  -7.013   0.000  0.00  0.00    +0.000 A 
ATOM     13  O   UNL     1       2.858  -6.600   0.000  0.00  0.00    +0.000 OA
ATOM     14  C   UNL     1       2.143  -7.838   0.000  0.00  0.00    +0.000 A 
ATOM     15  C   UNL     1       1.429  -8.250   0.000  0.00  0.00    +0.000 A 
ATOM     16  C   UNL     1       0.715  -7.838   0.000  0.00  0.00    +0.000 A 
ATOM     17  C   UNL     1       2.858  -8.250   0.000  0.00  0.00    +0.000 C 
ATOM     18  O   UNL     1       2.858  -9.075   0.000  0.00  0.00    +0.000 OA
ATOM     19  C   UNL     1       3.572  -7.838   0.000  0.00  0.00    +0.000 A 
ATOM     20  C   UNL     1       3.572  -7.013   0.000  0.00  0.00    +0.000 A 
ATOM     21  C   UNL     1       4.287  -6.600   0.000  0.00  0.00    +0.000 A 
ATOM     22  C   UNL     1       5.001  -7.013   0.000  0.00  0.00    +0.000 A 
ATOM     23  C   UNL     1       5.001  -7.838   0.000  0.00  0.00    +0.000 A 
ATOM     24  C   UNL     1       4.287  -8.250   0.000  0.00  0.00    +0.000 A 
ENDROOT
TORSDOF 0
