ROOT
REMARK  Name = octatropine methylbromide
REMARK                            x       y       z     vdW  Elec       q    Type
REMARK                         _______ _______ _______ _____ _____    ______ ____
ATOM      1  C   UNL     1      -1.548   1.761   0.000  0.00  0.00    +0.000 C 
ATOM      2  C   UNL     1      -1.548   0.936   0.000  0.00  0.00    +0.000 C 
ATOM      3  C   UNL     1      -0.834   0.524   0.000  0.00  0.00    +0.000 C 
ATOM      4  C   UNL     1      -0.834  -0.301   0.000  0.00  0.00    +0.000 C 
ATOM      5  C   UNL     1      -1.548  -0.714   0.000  0.00  0.00    +0.000 C 
ATOM      6  C   UNL     1      -1.548  -1.539   0.000  0.00  0.00    +0.000 C 
ATOM      7  C   UNL     1      -2.263  -1.951   0.000  0.00  0.00    +0.000 C 
ATOM      8  C   UNL     1      -0.119  -0.714   0.000  0.00  0.00    +0.000 C 
ATOM      9  O   UNL     1       0.595  -0.301   0.000  0.00  0.00    +0.000 OA
ATOM     10  O   UNL     1      -0.119  -1.539   0.000  0.00  0.00    +0.000 OA
ATOM     11  C   UNL     1       0.595  -1.951   0.000  0.00  0.00    +0.000 C 
ATOM     12  C   UNL     1       0.533  -2.774   0.000  0.00  0.00    +0.000 C 
ATOM     13  C   UNL     1       1.138  -3.335   0.000  0.00  0.00    +0.000 C 
ATOM     14  C   UNL     1       1.954  -3.212   0.000  0.00  0.00    +0.000 C 
ATOM     15  C   UNL     1       2.367  -2.498   0.000  0.00  0.00    +0.000 C 
ATOM     16  C   UNL     1       2.065  -1.730   0.000  0.00  0.00    +0.000 C 
ATOM     17  C   UNL     1       1.277  -1.486   0.000  0.00  0.00    +0.000 C 
ATOM     18  N   UNL     1       1.802  -2.648   0.000  0.00  0.00    +0.000 N 
ATOM     19  C   UNL     1       1.247  -2.038   0.000  0.00  0.00    +0.000 C 
ATOM     20  C   UNL     1       0.996  -2.473   0.000  0.00  0.00    +0.000 C 
ENDROOT
TORSDOF 0
