ROOT
REMARK  Name = octenidine
REMARK                            x       y       z     vdW  Elec       q    Type
REMARK                         _______ _______ _______ _____ _____    ______ ____
ATOM      1  C   UNL     1      -5.716  -4.950   0.000  0.00  0.00    +0.000 C 
ATOM      2  C   UNL     1      -5.001  -5.362   0.000  0.00  0.00    +0.000 C 
ATOM      3  C   UNL     1      -4.287  -4.950   0.000  0.00  0.00    +0.000 C 
ATOM      4  C   UNL     1      -3.572  -5.362   0.000  0.00  0.00    +0.000 C 
ATOM      5  C   UNL     1      -2.858  -4.950   0.000  0.00  0.00    +0.000 C 
ATOM      6  C   UNL     1      -2.143  -5.362   0.000  0.00  0.00    +0.000 C 
ATOM      7  C   UNL     1      -1.429  -4.950   0.000  0.00  0.00    +0.000 C 
ATOM      8  C   UNL     1      -0.715  -5.362   0.000  0.00  0.00    +0.000 C 
ATOM      9  N   UNL     1       0.000  -4.950   0.000  0.00  0.00    +0.000 NA
ATOM     10  C   UNL     1       0.715  -5.362   0.000  0.00  0.00    +0.000 A 
ATOM     11  C   UNL     1       1.429  -4.950   0.000  0.00  0.00    +0.000 A 
ATOM     12  C   UNL     1       2.143  -5.362   0.000  0.00  0.00    +0.000 A 
ATOM     13  N   UNL     1       2.143  -6.188   0.000  0.00  0.00    +0.000 N 
ATOM     14  C   UNL     1       2.858  -6.600   0.000  0.00  0.00    +0.000 C 
ATOM     15  C   UNL     1       3.572  -6.188   0.000  0.00  0.00    +0.000 C 
ATOM     16  C   UNL     1       4.287  -6.600   0.000  0.00  0.00    +0.000 C 
ATOM     17  C   UNL     1       5.001  -6.188   0.000  0.00  0.00    +0.000 C 
ATOM     18  C   UNL     1       5.716  -6.600   0.000  0.00  0.00    +0.000 C 
ATOM     19  C   UNL     1       6.430  -6.188   0.000  0.00  0.00    +0.000 C 
ATOM     20  C   UNL     1       7.145  -6.600   0.000  0.00  0.00    +0.000 C 
ATOM     21  C   UNL     1       7.859  -6.188   0.000  0.00  0.00    +0.000 C 
ATOM     22  C   UNL     1       8.574  -6.600   0.000  0.00  0.00    +0.000 C 
ATOM     23  C   UNL     1       9.288  -6.188   0.000  0.00  0.00    +0.000 C 
ATOM     24  N   UNL     1      10.003  -6.600   0.000  0.00  0.00    +0.000 N 
ATOM     25  C   UNL     1      10.717  -6.188   0.000  0.00  0.00    +0.000 A 
ATOM     26  C   UNL     1      11.431  -6.600   0.000  0.00  0.00    +0.000 A 
ATOM     27  C   UNL     1      11.431  -7.425   0.000  0.00  0.00    +0.000 A 
ATOM     28  C   UNL     1      10.717  -7.838   0.000  0.00  0.00    +0.000 A 
ATOM     29  C   UNL     1      10.003  -7.425   0.000  0.00  0.00    +0.000 A 
ATOM     30  N   UNL     1      12.146  -7.838   0.000  0.00  0.00    +0.000 NA
ATOM     31  C   UNL     1      12.861  -7.425   0.000  0.00  0.00    +0.000 C 
ATOM     32  C   UNL     1      13.575  -7.838   0.000  0.00  0.00    +0.000 C 
ATOM     33  C   UNL     1      13.575  -8.662   0.000  0.00  0.00    +0.000 C 
ATOM     34  C   UNL     1      14.289  -9.075   0.000  0.00  0.00    +0.000 C 
ATOM     35  C   UNL     1      14.289  -9.900   0.000  0.00  0.00    +0.000 C 
ATOM     36  C   UNL     1      15.004 -10.312   0.000  0.00  0.00    +0.000 C 
ATOM     37  C   UNL     1      15.004 -11.137   0.000  0.00  0.00    +0.000 C 
ATOM     38  C   UNL     1      15.718 -11.550   0.000  0.00  0.00    +0.000 C 
ATOM     39  C   UNL     1       1.429  -6.600   0.000  0.00  0.00    +0.000 A 
ATOM     40  C   UNL     1       0.715  -6.188   0.000  0.00  0.00    +0.000 A 
ENDROOT
TORSDOF 0
