ROOT
REMARK  Name = olmesartan medoxomil
REMARK                            x       y       z     vdW  Elec       q    Type
REMARK                         _______ _______ _______ _____ _____    ______ ____
ATOM      1  C   UNL     1       3.466  -2.949   0.000  0.00  0.00    +0.000 C 
ATOM      2  C   UNL     1       2.751  -2.537   0.000  0.00  0.00    +0.000 C 
ATOM      3  C   UNL     1       2.037  -2.949   0.000  0.00  0.00    +0.000 C 
ATOM      4  C   UNL     1       2.037  -3.774   0.000  0.00  0.00    +0.000 A 
ATOM      5  N   UNL     1       2.704  -4.259   0.000  0.00  0.00    +0.000 NA
ATOM      6  C   UNL     1       2.449  -5.044   0.000  0.00  0.00    +0.000 A 
ATOM      7  C   UNL     1       1.624  -5.044   0.000  0.00  0.00    +0.000 A 
ATOM      8  N   UNL     1       1.369  -4.259   0.000  0.00  0.00    +0.000 N 
ATOM      9  C   UNL     1       0.585  -4.004   0.000  0.00  0.00    +0.000 C 
ATOM     10  C   UNL     1       0.413  -3.197   0.000  0.00  0.00    +0.000 A 
ATOM     11  C   UNL     1      -0.371  -2.942   0.000  0.00  0.00    +0.000 A 
ATOM     12  C   UNL     1      -0.543  -2.135   0.000  0.00  0.00    +0.000 A 
ATOM     13  C   UNL     1       0.070  -1.583   0.000  0.00  0.00    +0.000 A 
ATOM     14  C   UNL     1       0.855  -1.838   0.000  0.00  0.00    +0.000 A 
ATOM     15  C   UNL     1       1.026  -2.645   0.000  0.00  0.00    +0.000 A 
ATOM     16  C   UNL     1      -0.102  -0.776   0.000  0.00  0.00    +0.000 A 
ATOM     17  C   UNL     1      -0.886  -0.521   0.000  0.00  0.00    +0.000 A 
ATOM     18  C   UNL     1      -1.058   0.286   0.000  0.00  0.00    +0.000 A 
ATOM     19  C   UNL     1      -0.445   0.838   0.000  0.00  0.00    +0.000 A 
ATOM     20  C   UNL     1       0.340   0.583   0.000  0.00  0.00    +0.000 A 
ATOM     21  C   UNL     1       0.512  -0.224   0.000  0.00  0.00    +0.000 A 
ATOM     22  C   UNL     1      -1.499  -1.073   0.000  0.00  0.00    +0.000 A 
ATOM     23  N   UNL     1      -1.413  -1.894   0.000  0.00  0.00    +0.000 NA
ATOM     24  N   UNL     1      -2.167  -2.229   0.000  0.00  0.00    +0.000 NA
ATOM     25  N   UNL     1      -2.719  -1.616   0.000  0.00  0.00    +0.000 NA
ATOM     26  N   UNL     1      -2.306  -0.902   0.000  0.00  0.00    +0.000 NA
ATOM     27  C   UNL     1       1.139  -5.711   0.000  0.00  0.00    +0.000 C 
ATOM     28  O   UNL     1       0.319  -5.625   0.000  0.00  0.00    +0.000 OA
ATOM     29  O   UNL     1       1.475  -6.465   0.000  0.00  0.00    +0.000 OA
ATOM     30  C   UNL     1       0.990  -7.132   0.000  0.00  0.00    +0.000 C 
ATOM     31  C   UNL     1       1.325  -7.886   0.000  0.00  0.00    +0.000 A 
ATOM     32  C   UNL     1       2.132  -8.057   0.000  0.00  0.00    +0.000 A 
ATOM     33  C   UNL     1       2.745  -7.505   0.000  0.00  0.00    +0.000 C 
ATOM     34  O   UNL     1       2.219  -8.878   0.000  0.00  0.00    +0.000 OA
ATOM     35  C   UNL     1       1.465  -9.213   0.000  0.00  0.00    +0.000 A 
ATOM     36  O   UNL     1       1.294 -10.020   0.000  0.00  0.00    +0.000 OA
ATOM     37  O   UNL     1       0.913  -8.600   0.000  0.00  0.00    +0.000 OA
ATOM     38  C   UNL     1       2.934  -5.711   0.000  0.00  0.00    +0.000 C 
ATOM     39  C   UNL     1       3.419  -6.378   0.000  0.00  0.00    +0.000 C 
ATOM     40  C   UNL     1       2.267  -6.196   0.000  0.00  0.00    +0.000 C 
ATOM     41  O   UNL     1       3.602  -5.226   0.000  0.00  0.00    +0.000 OA
ENDROOT
TORSDOF 0
