ROOT
REMARK  Name = omapatrilat
REMARK                            x       y       z     vdW  Elec       q    Type
REMARK                         _______ _______ _______ _____ _____    ______ ____
ATOM      1  O   ACE A   2      -1.964   0.289   0.000  0.00  0.00    +0.000 OA
ATOM      2  C   UNK A   1      -1.450   0.934   0.000  0.00  0.00    +0.000 C 
ATOM      3  O   ACE A   2      -0.634   0.811   0.000  0.00  0.00    +0.000 OA
ATOM      4  C   UNK A   1      -1.751   1.702   0.000  0.00  0.00    +0.000 C 
ATOM      5  C   UNK A   1      -2.567   1.825   0.000  0.00  0.00    +0.000 C 
ATOM      6  C   UNK A   1      -2.868   2.593   0.000  0.00  0.00    +0.000 C 
ATOM      7  C   UNK A   1      -2.354   3.238   0.000  0.00  0.00    +0.000 C 
ATOM      8  C   UNK A   1      -1.538   3.115   0.000  0.00  0.00    +0.000 C 
ATOM      9  S   UNK A   1      -1.125   3.830   0.000  0.00  0.00    +0.000 S 
ATOM     10  C   UNK A   1      -0.310   3.953   0.000  0.00  0.00    +0.000 C 
ATOM     11  C   UNK A   1       0.295   3.392   0.000  0.00  0.00    +0.000 C 
ATOM     12  C   UNK A   1       0.233   2.569   0.000  0.00  0.00    +0.000 C 
ATOM     13  N   UNK A   1       0.948   2.156   0.000  0.00  0.00    +0.000 NA
ATOM     14  C   UNK A   0       1.662   2.569   0.000  0.00  0.00    +0.000 C 
ATOM     15  O   UNK A   0       1.662   3.394   0.000  0.00  0.00    +0.000 OA
ATOM     16  C   UNK A   0       2.377   2.156   0.000  0.00  0.00    +0.000 C 
ATOM     17  S   UNK A   0       2.377   1.331   0.000  0.00  0.00    +0.000 S 
ATOM     18  C   UNK A   0       3.091   2.569   0.000  0.00  0.00    +0.000 C 
ATOM     19  C   UNK A   0       3.806   2.156   0.000  0.00  0.00    +0.000 A 
ATOM     20  C   UNK A   0       4.520   2.569   0.000  0.00  0.00    +0.000 A 
ATOM     21  C   UNK A   0       5.235   2.156   0.000  0.00  0.00    +0.000 A 
ATOM     22  C   UNK A   0       5.235   1.331   0.000  0.00  0.00    +0.000 A 
ATOM     23  C   UNK A   0       4.520   0.919   0.000  0.00  0.00    +0.000 A 
ATOM     24  C   UNK A   0       3.806   1.331   0.000  0.00  0.00    +0.000 A 
ATOM     25  C   UNK A   1      -0.448   2.104   0.000  0.00  0.00    +0.000 C 
ATOM     26  O   UNK A   1      -0.325   1.288   0.000  0.00  0.00    +0.000 OA
ATOM     27  N   UNK A   1      -1.237   2.347   0.000  0.00  0.00    +0.000 N 
ENDROOT
TORSDOF 0
