ROOT
REMARK  Name = oxitriptan
REMARK                            x       y       z     vdW  Elec       q    Type
REMARK                         _______ _______ _______ _____ _____    ______ ____
ATOM      1  N   UNL     1       2.243  -2.592   0.000  0.00  0.00    +0.000 NA
ATOM      2  CA  UNL     1       1.436  -2.763   0.000  0.00  0.00    +0.000 C 
ATOM      3  C   UNL     1       0.884  -2.150   0.000  0.00  0.00    +0.000 C 
ATOM      4  C   UNL     1       1.139  -1.365   0.000  0.00  0.00    +0.000 C 
ATOM      5  C   UNL     1       0.654  -0.698   0.000  0.00  0.00    +0.000 C 
ATOM      6  N   UNL     1       1.139  -0.030   0.000  0.00  0.00    +0.000 NA
ATOM      7  C   UNL     1       1.923  -0.285   0.000  0.00  0.00    +0.000 C 
ATOM      8  C   UNL     1       2.638   0.127   0.000  0.00  0.00    +0.000 C 
ATOM      9  C   UNL     1       3.352  -0.285   0.000  0.00  0.00    +0.000 C 
ATOM     10  C   UNL     1       3.352  -1.110   0.000  0.00  0.00    +0.000 C 
ATOM     11  O   UNL     1       4.067  -1.523   0.000  0.00  0.00    +0.000 OA
ATOM     12  C   UNL     1       2.638  -1.523   0.000  0.00  0.00    +0.000 C 
ATOM     13  C   UNL     1       1.923  -1.110   0.000  0.00  0.00    +0.000 C 
ATOM     14  C   UNL     1       1.181  -3.548   0.000  0.00  0.00    +0.000 C 
ATOM     15  O   UNL     1       1.733  -4.161   0.000  0.00  0.00    +0.000 OA
ATOM     16  OXT UNL     1       0.374  -3.719   0.000  0.00  0.00    +0.000 OA
ENDROOT
TORSDOF 0
