ROOT
REMARK  Name = oxitropium
REMARK                            x       y       z     vdW  Elec       q    Type
REMARK                         _______ _______ _______ _____ _____    ______ ____
ATOM      1  C   UNL     1       1.359   2.801   0.000  0.00  0.00    +0.000 C 
ATOM      2  C   UNL     1       1.436   1.869   0.000  0.00  0.00    +0.000 C 
ATOM      3  N   UNL     1       0.826   1.268   0.000  0.00  0.00    +0.000 N 
ATOM      4  C   UNL     1       1.567   0.906   0.000  0.00  0.00    +0.000 C 
ATOM      5  C   UNL     1       1.057   0.342   0.000  0.00  0.00    +0.000 C 
ATOM      6  C   UNL     1       1.861   0.525   0.000  0.00  0.00    +0.000 C 
ATOM      7  C   UNL     1       2.220   1.268   0.000  0.00  0.00    +0.000 C 
ATOM      8  C   UNL     1       1.861   2.012   0.000  0.00  0.00    +0.000 C 
ATOM      9  C   UNL     1       1.057   2.195   0.000  0.00  0.00    +0.000 C 
ATOM     10  C   UNL     1       0.412   1.681   0.000  0.00  0.00    +0.000 C 
ATOM     11  O   UNL     1      -0.302   1.268   0.000  0.00  0.00    +0.000 OA
ATOM     12  C   UNL     1       0.412   0.856   0.000  0.00  0.00    +0.000 C 
ATOM     13  O   UNL     1       3.114   1.238   0.000  0.00  0.00    +0.000 OA
ATOM     14  C   UNL     1       3.813   0.733   0.000  0.00  0.00    +0.000 C 
ATOM     15  O   UNL     1       3.139   0.258   0.000  0.00  0.00    +0.000 OA
ATOM     16  C   UNL     1       4.567   0.384   0.000  0.00  0.00    +0.000 C 
ATOM     17  C   UNL     1       4.987   1.137   0.000  0.00  0.00    +0.000 C 
ATOM     18  O   UNL     1       5.812   1.149   0.000  0.00  0.00    +0.000 OA
ATOM     19  C   UNL     1       4.990  -0.325   0.000  0.00  0.00    +0.000 A 
ATOM     20  C   UNL     1       5.815  -0.313   0.000  0.00  0.00    +0.000 A 
ATOM     21  C   UNL     1       6.238  -1.021   0.000  0.00  0.00    +0.000 A 
ATOM     22  C   UNL     1       5.836  -1.742   0.000  0.00  0.00    +0.000 A 
ATOM     23  C   UNL     1       5.011  -1.754   0.000  0.00  0.00    +0.000 A 
ATOM     24  C   UNL     1       4.588  -1.045   0.000  0.00  0.00    +0.000 A 
ENDROOT
TORSDOF 0
