ROOT
REMARK  Name = oxyclipine
REMARK                            x       y       z     vdW  Elec       q    Type
REMARK                         _______ _______ _______ _____ _____    ______ ____
ATOM      1  C   UNL     1      -2.173  -0.302   0.000  0.00  0.00    +0.000 C 
ATOM      2  N   UNL     1      -2.173  -1.127   0.000  0.00  0.00    +0.000 NA
ATOM      3  C   UNL     1      -1.459  -1.540   0.000  0.00  0.00    +0.000 C 
ATOM      4  C   UNL     1      -1.459  -2.365   0.000  0.00  0.00    +0.000 C 
ATOM      5  C   UNL     1      -2.173  -2.777   0.000  0.00  0.00    +0.000 C 
ATOM      6  C   UNL     1      -2.888  -2.365   0.000  0.00  0.00    +0.000 C 
ATOM      7  C   UNL     1      -2.888  -1.540   0.000  0.00  0.00    +0.000 C 
ATOM      8  O   UNL     1      -3.602  -2.777   0.000  0.00  0.00    +0.000 OA
ATOM      9  C   UNL     1      -3.602  -3.602   0.000  0.00  0.00    +0.000 C 
ATOM     10  O   UNL     1      -2.888  -4.014   0.000  0.00  0.00    +0.000 OA
ATOM     11  C   UNL     1      -4.316  -4.014   0.000  0.00  0.00    +0.000 C 
ATOM     12  O   UNL     1      -4.729  -3.300   0.000  0.00  0.00    +0.000 OA
ATOM     13  C   UNL     1      -5.031  -4.427   0.000  0.00  0.00    +0.000 C 
ATOM     14  C   UNL     1      -5.031  -5.252   0.000  0.00  0.00    +0.000 C 
ATOM     15  C   UNL     1      -5.745  -5.665   0.000  0.00  0.00    +0.000 C 
ATOM     16  C   UNL     1      -6.460  -5.252   0.000  0.00  0.00    +0.000 C 
ATOM     17  C   UNL     1      -6.460  -4.427   0.000  0.00  0.00    +0.000 C 
ATOM     18  C   UNL     1      -5.745  -4.014   0.000  0.00  0.00    +0.000 C 
ATOM     19  C   UNL     1      -3.904  -4.729   0.000  0.00  0.00    +0.000 A 
ATOM     20  C   UNL     1      -3.079  -4.729   0.000  0.00  0.00    +0.000 A 
ATOM     21  C   UNL     1      -2.666  -5.443   0.000  0.00  0.00    +0.000 A 
ATOM     22  C   UNL     1      -3.079  -6.158   0.000  0.00  0.00    +0.000 A 
ATOM     23  C   UNL     1      -3.904  -6.158   0.000  0.00  0.00    +0.000 A 
ATOM     24  C   UNL     1      -4.316  -5.443   0.000  0.00  0.00    +0.000 A 
ENDROOT
TORSDOF 0
