ROOT
REMARK  Name = oxyphencyclimine
REMARK                            x       y       z     vdW  Elec       q    Type
REMARK                         _______ _______ _______ _____ _____    ______ ____
ATOM      1  C   UNL     1      -2.173  -1.731   0.000  0.00  0.00    +0.000 C 
ATOM      2  N   UNL     1      -2.173  -2.556   0.000  0.00  0.00    +0.000 N 
ATOM      3  C   UNL     1      -1.459  -2.968   0.000  0.00  0.00    +0.000 C 
ATOM      4  C   UNL     1      -1.459  -3.793   0.000  0.00  0.00    +0.000 C 
ATOM      5  C   UNL     1      -2.173  -4.206   0.000  0.00  0.00    +0.000 C 
ATOM      6  N   UNL     1      -2.888  -3.793   0.000  0.00  0.00    +0.000 NA
ATOM      7  C   UNL     1      -2.888  -2.968   0.000  0.00  0.00    +0.000 C 
ATOM      8  C   UNL     1      -3.602  -2.556   0.000  0.00  0.00    +0.000 C 
ATOM      9  O   UNL     1      -3.602  -1.731   0.000  0.00  0.00    +0.000 OA
ATOM     10  C   UNL     1      -4.316  -1.318   0.000  0.00  0.00    +0.000 C 
ATOM     11  O   UNL     1      -5.031  -1.731   0.000  0.00  0.00    +0.000 OA
ATOM     12  C   UNL     1      -4.316  -0.493   0.000  0.00  0.00    +0.000 C 
ATOM     13  O   UNL     1      -3.491  -0.493   0.000  0.00  0.00    +0.000 OA
ATOM     14  C   UNL     1      -4.316   0.332   0.000  0.00  0.00    +0.000 C 
ATOM     15  C   UNL     1      -5.031   0.744   0.000  0.00  0.00    +0.000 C 
ATOM     16  C   UNL     1      -5.031   1.569   0.000  0.00  0.00    +0.000 C 
ATOM     17  C   UNL     1      -4.316   1.982   0.000  0.00  0.00    +0.000 C 
ATOM     18  C   UNL     1      -3.602   1.569   0.000  0.00  0.00    +0.000 C 
ATOM     19  C   UNL     1      -3.602   0.744   0.000  0.00  0.00    +0.000 C 
ATOM     20  C   UNL     1      -5.141  -0.493   0.000  0.00  0.00    +0.000 A 
ATOM     21  C   UNL     1      -5.554  -1.208   0.000  0.00  0.00    +0.000 A 
ATOM     22  C   UNL     1      -6.379  -1.208   0.000  0.00  0.00    +0.000 A 
ATOM     23  C   UNL     1      -6.791  -0.493   0.000  0.00  0.00    +0.000 A 
ATOM     24  C   UNL     1      -6.379   0.221   0.000  0.00  0.00    +0.000 A 
ATOM     25  C   UNL     1      -5.554   0.221   0.000  0.00  0.00    +0.000 A 
ENDROOT
TORSDOF 0
