ROOT
REMARK  Name = paliperidone
REMARK                            x       y       z     vdW  Elec       q    Type
REMARK                         _______ _______ _______ _____ _____    ______ ____
ATOM      1  C   UNL     1       0.000  -1.650   0.000  0.00  0.00    +0.000 C 
ATOM      2  C   UNL     1       0.715  -1.238   0.000  0.00  0.00    +0.000 A 
ATOM      3  C   UNL     1       0.715  -0.412   0.000  0.00  0.00    +0.000 A 
ATOM      4  C   UNL     1       0.000   0.000   0.000  0.00  0.00    +0.000 C 
ATOM      5  C   UNL     1      -0.715  -0.412   0.000  0.00  0.00    +0.000 C 
ATOM      6  N   UNL     1      -1.429   0.000   0.000  0.00  0.00    +0.000 NA
ATOM      7  C   UNL     1      -2.143  -0.412   0.000  0.00  0.00    +0.000 C 
ATOM      8  C   UNL     1      -2.858   0.000   0.000  0.00  0.00    +0.000 C 
ATOM      9  C   UNL     1      -2.858   0.825   0.000  0.00  0.00    +0.000 C 
ATOM     10  C   UNL     1      -2.143   1.238   0.000  0.00  0.00    +0.000 C 
ATOM     11  C   UNL     1      -1.429   0.825   0.000  0.00  0.00    +0.000 C 
ATOM     12  C   UNL     1      -3.572   1.238   0.000  0.00  0.00    +0.000 A 
ATOM     13  N   UNL     1      -3.659   2.058   0.000  0.00  0.00    +0.000 NA
ATOM     14  O   UNL     1      -4.466   2.229   0.000  0.00  0.00    +0.000 OA
ATOM     15  C   UNL     1      -4.878   1.515   0.000  0.00  0.00    +0.000 A 
ATOM     16  C   UNL     1      -4.326   0.902   0.000  0.00  0.00    +0.000 A 
ATOM     17  C   UNL     1      -4.581   0.117   0.000  0.00  0.00    +0.000 A 
ATOM     18  C   UNL     1      -5.388  -0.054   0.000  0.00  0.00    +0.000 A 
ATOM     19  C   UNL     1      -5.940   0.559   0.000  0.00  0.00    +0.000 A 
ATOM     20  F   UNL     1      -6.747   0.387   0.000  0.00  0.00    +0.000 F 
ATOM     21  C   UNL     1      -5.685   1.343   0.000  0.00  0.00    +0.000 A 
ATOM     22  C   UNL     1       1.429   0.000   0.000  0.00  0.00    +0.000 A 
ATOM     23  O   UNL     1       1.429   0.825   0.000  0.00  0.00    +0.000 OA
ATOM     24  N   UNL     1       2.143  -0.412   0.000  0.00  0.00    +0.000 N 
ATOM     25  C   UNL     1       2.858   0.000   0.000  0.00  0.00    +0.000 C 
ATOM     26  C   UNL     1       3.572  -0.412   0.000  0.00  0.00    +0.000 C 
ATOM     27  C   UNL     1       3.572  -1.238   0.000  0.00  0.00    +0.000 C 
ATOM     28  C   UNL     1       2.858  -1.650   0.000  0.00  0.00    +0.000 C 
ATOM     29  O   UNL     1       2.858  -2.475   0.000  0.00  0.00    +0.000 OA
ATOM     30  C   UNL     1       2.143  -1.238   0.000  0.00  0.00    +0.000 A 
ATOM     31  N   UNL     1       1.429  -1.650   0.000  0.00  0.00    +0.000 NA
ENDROOT
TORSDOF 0
