ROOT
REMARK  Name = pancuronium
REMARK                            x       y       z     vdW  Elec       q    Type
REMARK                         _______ _______ _______ _____ _____    ______ ____
ATOM      1  C   UNL     1       2.366  -4.556   0.000  0.00  0.00    +0.000 C 
ATOM      2  C   UNL     1       2.873  -3.905   0.000  0.00  0.00    +0.000 C 
ATOM      3  O   UNL     1       3.690  -4.018   0.000  0.00  0.00    +0.000 OA
ATOM      4  O   UNL     1       2.562  -3.141   0.000  0.00  0.00    +0.000 OA
ATOM      5  C   UNL     1       3.068  -2.490   0.000  0.00  0.00    +0.000 C 
ATOM      6  C   UNL     1       2.839  -1.697   0.000  0.00  0.00    +0.000 C 
ATOM      7  C   UNL     1       3.522  -1.234   0.000  0.00  0.00    +0.000 C 
ATOM      8  C   UNL     1       4.173  -1.740   0.000  0.00  0.00    +0.000 C 
ATOM      9  C   UNL     1       4.985  -1.595   0.000  0.00  0.00    +0.000 C 
ATOM     10  C   UNL     1       5.266  -0.819   0.000  0.00  0.00    +0.000 C 
ATOM     11  C   UNL     1       6.078  -0.674   0.000  0.00  0.00    +0.000 C 
ATOM     12  C   UNL     1       6.609  -1.305   0.000  0.00  0.00    +0.000 C 
ATOM     13  C   UNL     1       7.422  -1.159   0.000  0.00  0.00    +0.000 C 
ATOM     14  C   UNL     1       7.953  -1.790   0.000  0.00  0.00    +0.000 C 
ATOM     15  O   UNL     1       8.765  -1.645   0.000  0.00  0.00    +0.000 OA
ATOM     16  C   UNL     1       9.046  -0.869   0.000  0.00  0.00    +0.000 C 
ATOM     17  C   UNL     1       9.858  -0.724   0.000  0.00  0.00    +0.000 C 
ATOM     18  O   UNL     1       8.514  -0.238   0.000  0.00  0.00    +0.000 OA
ATOM     19  C   UNL     1       7.673  -2.566   0.000  0.00  0.00    +0.000 C 
ATOM     20  C   UNL     1       6.861  -2.711   0.000  0.00  0.00    +0.000 C 
ATOM     21  C   UNL     1       6.329  -2.081   0.000  0.00  0.00    +0.000 C 
ATOM     22  C   UNL     1       6.049  -2.857   0.000  0.00  0.00    +0.000 C 
ATOM     23  C   UNL     1       5.517  -2.226   0.000  0.00  0.00    +0.000 C 
ATOM     24  C   UNL     1       5.237  -3.002   0.000  0.00  0.00    +0.000 C 
ATOM     25  C   UNL     1       4.425  -3.147   0.000  0.00  0.00    +0.000 C 
ATOM     26  C   UNL     1       3.893  -2.516   0.000  0.00  0.00    +0.000 C 
ATOM     27  C   UNL     1       3.533  -3.259   0.000  0.00  0.00    +0.000 C 
ATOM     28  N   UNL     1       8.205  -3.197   0.000  0.00  0.00    +0.000 N 
ATOM     29  C   UNL     1       7.492  -3.611   0.000  0.00  0.00    +0.000 C 
ATOM     30  C   UNL     1       8.734  -2.564   0.000  0.00  0.00    +0.000 C 
ATOM     31  C   UNL     1       9.546  -2.705   0.000  0.00  0.00    +0.000 C 
ATOM     32  C   UNL     1       9.831  -3.479   0.000  0.00  0.00    +0.000 C 
ATOM     33  C   UNL     1       9.302  -4.113   0.000  0.00  0.00    +0.000 C 
ATOM     34  C   UNL     1       8.489  -3.971   0.000  0.00  0.00    +0.000 C 
ATOM     35  N   UNL     1       2.063  -1.417   0.000  0.00  0.00    +0.000 N 
ATOM     36  C   UNL     1       2.474  -0.701   0.000  0.00  0.00    +0.000 C 
ATOM     37  C   UNL     1       1.922  -2.229   0.000  0.00  0.00    +0.000 C 
ATOM     38  C   UNL     1       1.147  -2.514   0.000  0.00  0.00    +0.000 C 
ATOM     39  C   UNL     1       0.514  -1.985   0.000  0.00  0.00    +0.000 C 
ATOM     40  C   UNL     1       0.655  -1.172   0.000  0.00  0.00    +0.000 C 
ATOM     41  C   UNL     1       1.430  -0.888   0.000  0.00  0.00    +0.000 C 
ENDROOT
TORSDOF 0
