ROOT
REMARK  Name = panipenem
REMARK                            x       y       z     vdW  Elec       q    Type
REMARK                         _______ _______ _______ _____ _____    ______ ____
ATOM      1  C   UNL     1      -0.432   0.619   0.000  0.00  0.00    +0.000 C 
ATOM      2  C   UNL     1       0.365   0.832   0.000  0.00  0.00    +0.000 C 
ATOM      3  O   UNL     1       0.579   1.629   0.000  0.00  0.00    +0.000 OA
ATOM      4  C   UNL     1       0.948   0.249   0.000  0.00  0.00    +0.000 C 
ATOM      5  C   UNL     1       1.773   0.249   0.000  0.00  0.00    +0.000 C 
ATOM      6  C   UNL     1       2.558   0.504   0.000  0.00  0.00    +0.000 C 
ATOM      7  C   UNL     1       3.043  -0.164   0.000  0.00  0.00    +0.000 C 
ATOM      8  S   UNL     1       3.868  -0.164   0.000  0.00  0.00    +0.000 S 
ATOM      9  C   UNL     1       4.280   0.551   0.000  0.00  0.00    +0.000 C 
ATOM     10  C   UNL     1       3.945   1.304   0.000  0.00  0.00    +0.000 C 
ATOM     11  C   UNL     1       4.558   1.857   0.000  0.00  0.00    +0.000 C 
ATOM     12  N   UNL     1       5.272   1.444   0.000  0.00  0.00    +0.000 N 
ATOM     13  C   UNL     1       5.101   0.637   0.000  0.00  0.00    +0.000 C 
ATOM     14  C   UNL     1       6.026   1.780   0.000  0.00  0.00    +0.000 C 
ATOM     15  C   UNL     1       6.112   2.600   0.000  0.00  0.00    +0.000 C 
ATOM     16  N   UNL     1       6.694   1.295   0.000  0.00  0.00    +0.000 NA
ATOM     17  C   UNL     1       2.558  -0.831   0.000  0.00  0.00    +0.000 C 
ATOM     18  N   UNL     1       1.773  -0.576   0.000  0.00  0.00    +0.000 N 
ATOM     19  C   UNL     1       0.948  -0.576   0.000  0.00  0.00    +0.000 C 
ATOM     20  O   UNL     1       0.365  -1.159   0.000  0.00  0.00    +0.000 OA
ATOM     21  C   UNL     1       2.813  -1.616   0.000  0.00  0.00    +0.000 C 
ATOM     22  O   UNL     1       2.261  -2.229   0.000  0.00  0.00    +0.000 OA
ATOM     23  O   UNL     1       3.620  -1.787   0.000  0.00  0.00    +0.000 OA
ENDROOT
TORSDOF 0
