ROOT
REMARK  Name = panobinostat
REMARK                            x       y       z     vdW  Elec       q    Type
REMARK                         _______ _______ _______ _____ _____    ______ ____
ATOM      1  C   UNL     1      -0.313  -1.245   0.000  0.00  0.00    +0.000 C 
ATOM      2  C   UNL     1      -0.926  -1.797   0.000  0.00  0.00    +0.000 C 
ATOM      3  C   UNL     1      -0.840  -2.617   0.000  0.00  0.00    +0.000 C 
ATOM      4  C   UNL     1      -0.126  -3.030   0.000  0.00  0.00    +0.000 C 
ATOM      5  C   UNL     1       0.589  -2.617   0.000  0.00  0.00    +0.000 C 
ATOM      6  N   UNL     1       1.303  -3.030   0.000  0.00  0.00    +0.000 NA
ATOM      7  C   UNL     1       2.018  -2.617   0.000  0.00  0.00    +0.000 C 
ATOM      8  C   UNL     1       2.732  -3.030   0.000  0.00  0.00    +0.000 A 
ATOM      9  C   UNL     1       3.447  -2.617   0.000  0.00  0.00    +0.000 A 
ATOM     10  C   UNL     1       4.161  -3.030   0.000  0.00  0.00    +0.000 A 
ATOM     11  C   UNL     1       4.161  -3.855   0.000  0.00  0.00    +0.000 A 
ATOM     12  C   UNL     1       4.876  -4.267   0.000  0.00  0.00    +0.000 C 
ATOM     13  C   UNL     1       4.876  -5.092   0.000  0.00  0.00    +0.000 C 
ATOM     14  C   UNL     1       5.590  -5.505   0.000  0.00  0.00    +0.000 C 
ATOM     15  O   UNL     1       5.590  -6.330   0.000  0.00  0.00    +0.000 OA
ATOM     16  N   UNL     1       6.305  -5.092   0.000  0.00  0.00    +0.000 NA
ATOM     17  O   UNL     1       6.305  -4.267   0.000  0.00  0.00    +0.000 OA
ATOM     18  C   UNL     1       3.447  -4.267   0.000  0.00  0.00    +0.000 A 
ATOM     19  C   UNL     1       2.732  -3.855   0.000  0.00  0.00    +0.000 A 
ATOM     20  C   UNL     1      -1.594  -2.953   0.000  0.00  0.00    +0.000 C 
ATOM     21  C   UNL     1      -1.849  -3.737   0.000  0.00  0.00    +0.000 C 
ATOM     22  C   UNL     1      -2.656  -3.909   0.000  0.00  0.00    +0.000 C 
ATOM     23  C   UNL     1      -3.208  -3.296   0.000  0.00  0.00    +0.000 C 
ATOM     24  C   UNL     1      -2.953  -2.511   0.000  0.00  0.00    +0.000 C 
ATOM     25  C   UNL     1      -2.146  -2.340   0.000  0.00  0.00    +0.000 C 
ATOM     26  N   UNL     1      -1.733  -1.625   0.000  0.00  0.00    +0.000 NA
ENDROOT
TORSDOF 0
