ROOT
REMARK  Name = paraoxon
REMARK                            x       y       z     vdW  Elec       q    Type
REMARK                         _______ _______ _______ _____ _____    ______ ____
ATOM      1  C   UNL     1      -1.429   4.125   0.000  0.00  0.00    +0.000 C 
ATOM      2  C   UNL     1      -0.715   3.712   0.000  0.00  0.00    +0.000 C 
ATOM      3  O   UNL     1      -0.715   2.888   0.000  0.00  0.00    +0.000 OA
ATOM      4  P   UNL     1       0.000   2.475   0.000  0.00  0.00    +0.000 P 
ATOM      5  O   UNL     1      -0.412   1.760   0.000  0.00  0.00    +0.000 OA
ATOM      6  O   UNL     1       0.412   3.189   0.000  0.00  0.00    +0.000 OA
ATOM      7  C   UNL     1       1.238   3.189   0.000  0.00  0.00    +0.000 C 
ATOM      8  C   UNL     1       1.650   2.475   0.000  0.00  0.00    +0.000 C 
ATOM      9  O   UNL     1       0.715   2.062   0.000  0.00  0.00    +0.000 OA
ATOM     10  C   UNL     1       0.715   1.238   0.000  0.00  0.00    +0.000 A 
ATOM     11  C   UNL     1       1.429   0.825   0.000  0.00  0.00    +0.000 A 
ATOM     12  C   UNL     1       1.429   0.000   0.000  0.00  0.00    +0.000 A 
ATOM     13  C   UNL     1       0.715  -0.412   0.000  0.00  0.00    +0.000 A 
ATOM     14  C   UNL     1       0.000   0.000   0.000  0.00  0.00    +0.000 A 
ATOM     15  C   UNL     1       0.000   0.825   0.000  0.00  0.00    +0.000 A 
ATOM     16  N   UNL     1       0.715  -1.238   0.000  0.00  0.00    +0.000 N 
ATOM     17  O   UNL     1       1.429  -1.650   0.000  0.00  0.00    +0.000 OA
ATOM     18  O   UNL     1       0.000  -1.650   0.000  0.00  0.00    +0.000 OA
ENDROOT
TORSDOF 0
