ROOT
REMARK  Name = pemetrexed
REMARK                            x       y       z     vdW  Elec       q    Type
REMARK                         _______ _______ _______ _____ _____    ______ ____
ATOM      1  N   UNK A   0      -9.888   4.098   0.000  0.00  0.00    +0.000 NA
ATOM      2  C   UNK A   0      -9.081   3.927   0.000  0.00  0.00    +0.000 A 
ATOM      3  N   UNK A   0      -8.529   4.540   0.000  0.00  0.00    +0.000 NA
ATOM      4  C   UNK A   0      -7.722   4.368   0.000  0.00  0.00    +0.000 A 
ATOM      5  O   UNK A   0      -7.170   4.981   0.000  0.00  0.00    +0.000 OA
ATOM      6  C   UNK A   0      -7.467   3.584   0.000  0.00  0.00    +0.000 A 
ATOM      7  C   UNK A   0      -8.019   2.970   0.000  0.00  0.00    +0.000 A 
ATOM      8  N   UNK A   0      -7.606   2.256   0.000  0.00  0.00    +0.000 NA
ATOM      9  C   UNK A   0      -6.799   2.428   0.000  0.00  0.00    +0.000 C 
ATOM     10  C   UNK A   0      -6.713   3.248   0.000  0.00  0.00    +0.000 C 
ATOM     11  C   UNK A   0      -5.999   3.660   0.000  0.00  0.00    +0.000 C 
ATOM     12  C   UNK A   0      -5.999   4.486   0.000  0.00  0.00    +0.000 C 
ATOM     13  C   UNK A   0      -5.284   4.898   0.000  0.00  0.00    +0.000 A 
ATOM     14  C   UNK A   0      -5.284   5.723   0.000  0.00  0.00    +0.000 A 
ATOM     15  C   UNK A   0      -4.570   6.136   0.000  0.00  0.00    +0.000 A 
ATOM     16  C   UNK A   0      -3.855   5.723   0.000  0.00  0.00    +0.000 A 
ATOM     17  C   UNK A   0      -3.855   4.898   0.000  0.00  0.00    +0.000 A 
ATOM     18  C   UNK A   0      -4.570   4.486   0.000  0.00  0.00    +0.000 A 
ATOM     19  C   UNK A   0      -3.141   6.136   0.000  0.00  0.00    +0.000 C 
ATOM     20  O   UNK A   0      -3.141   6.960   0.000  0.00  0.00    +0.000 OA
ATOM     21  N   GLU A   1      -2.426   5.723   0.000  0.00  0.00    +0.000 NA
ATOM     22  CA  GLU A   1      -1.712   6.136   0.000  0.00  0.00    +0.000 C 
ATOM     23  CB  GLU A   1      -0.997   5.723   0.000  0.00  0.00    +0.000 C 
ATOM     24  CG  GLU A   1      -0.283   6.136   0.000  0.00  0.00    +0.000 C 
ATOM     25  CD  GLU A   1       0.432   5.723   0.000  0.00  0.00    +0.000 C 
ATOM     26  OE1 GLU A   1       1.146   6.136   0.000  0.00  0.00    +0.000 OA
ATOM     27  OE2 GLU A   1       0.432   4.898   0.000  0.00  0.00    +0.000 OA
ATOM     28  C   GLU A   1      -1.712   6.960   0.000  0.00  0.00    +0.000 C 
ATOM     29  O   GLU A   1      -0.997   7.373   0.000  0.00  0.00    +0.000 OA
ATOM     30  OXT GLU A   1      -2.426   7.373   0.000  0.00  0.00    +0.000 OA
ATOM     31  N   UNK A   0      -8.826   3.142   0.000  0.00  0.00    +0.000 NA
ENDROOT
TORSDOF 0
