ROOT
REMARK  Name = pergolide
REMARK                            x       y       z     vdW  Elec       q    Type
REMARK                         _______ _______ _______ _____ _____    ______ ____
ATOM      1  C   UNL     1       3.993  -2.475   0.000  0.00  0.00    +0.000 C 
ATOM      2  C   UNL     1       3.993  -1.650   0.000  0.00  0.00    +0.000 C 
ATOM      3  C   UNL     1       3.279  -1.238   0.000  0.00  0.00    +0.000 C 
ATOM      4  N   UNL     1       3.279  -0.412   0.000  0.00  0.00    +0.000 NA
ATOM      5  C   UNL     1       3.993   0.000   0.000  0.00  0.00    +0.000 C 
ATOM      6  C   UNL     1       3.993   0.825   0.000  0.00  0.00    +0.000 C 
ATOM      7  C   UNL     1       4.708   1.238   0.000  0.00  0.00    +0.000 C 
ATOM      8  S   UNL     1       4.708   2.062   0.000  0.00  0.00    +0.000 S 
ATOM      9  C   UNL     1       5.422   2.475   0.000  0.00  0.00    +0.000 C 
ATOM     10  C   UNL     1       3.279   1.238   0.000  0.00  0.00    +0.000 C 
ATOM     11  C   UNL     1       2.564   0.825   0.000  0.00  0.00    +0.000 C 
ATOM     12  C   UNL     1       2.564   0.000   0.000  0.00  0.00    +0.000 C 
ATOM     13  C   UNL     1       1.850  -0.412   0.000  0.00  0.00    +0.000 C 
ATOM     14  C   UNL     1       1.135   0.000   0.000  0.00  0.00    +0.000 C 
ATOM     15  C   UNL     1       0.351  -0.255   0.000  0.00  0.00    +0.000 C 
ATOM     16  N   UNL     1      -0.134   0.412   0.000  0.00  0.00    +0.000 NA
ATOM     17  C   UNL     1       0.351   1.080   0.000  0.00  0.00    +0.000 C 
ATOM     18  C   UNL     1       1.135   0.825   0.000  0.00  0.00    +0.000 C 
ATOM     19  C   UNL     1       1.850   1.238   0.000  0.00  0.00    +0.000 C 
ATOM     20  C   UNL     1       1.577   2.184   0.000  0.00  0.00    +0.000 C 
ATOM     21  C   UNL     1       0.792   2.439   0.000  0.00  0.00    +0.000 C 
ATOM     22  C   UNL     1       0.179   1.887   0.000  0.00  0.00    +0.000 C 
ENDROOT
TORSDOF 0
