ROOT
REMARK  Name = phenoxybenzamine
REMARK                            x       y       z     vdW  Elec       q    Type
REMARK                         _______ _______ _______ _____ _____    ______ ____
ATOM      1  C   UNL     1       2.143  -1.459   0.000  0.00  0.00    +0.000 C 
ATOM      2  C   UNL     1       2.556  -2.173   0.000  0.00  0.00    +0.000 C 
ATOM      3  C   UNL     1       2.143  -2.888   0.000  0.00  0.00    +0.000 C 
ATOM      4  O   UNL     1       1.318  -2.888   0.000  0.00  0.00    +0.000 OA
ATOM      5  C   UNL     1       0.906  -3.602   0.000  0.00  0.00    +0.000 A 
ATOM      6  C   UNL     1       1.318  -4.316   0.000  0.00  0.00    +0.000 A 
ATOM      7  C   UNL     1       0.906  -5.031   0.000  0.00  0.00    +0.000 A 
ATOM      8  C   UNL     1       0.081  -5.031   0.000  0.00  0.00    +0.000 A 
ATOM      9  C   UNL     1      -0.332  -4.316   0.000  0.00  0.00    +0.000 A 
ATOM     10  C   UNL     1       0.081  -3.602   0.000  0.00  0.00    +0.000 A 
ATOM     11  N   UNL     1       3.381  -2.173   0.000  0.00  0.00    +0.000 NA
ATOM     12  C   UNL     1       3.793  -2.888   0.000  0.00  0.00    +0.000 C 
ATOM     13  C   UNL     1       4.618  -2.888   0.000  0.00  0.00    +0.000 C 
ATOM     14 CL   UNL     1       5.031  -3.602   0.000  0.00  0.00    +0.000 Cl
ATOM     15  C   UNL     1       3.793  -1.459   0.000  0.00  0.00    +0.000 C 
ATOM     16  C   UNL     1       4.618  -1.459   0.000  0.00  0.00    +0.000 A 
ATOM     17  C   UNL     1       5.031  -0.744   0.000  0.00  0.00    +0.000 A 
ATOM     18  C   UNL     1       5.856  -0.744   0.000  0.00  0.00    +0.000 A 
ATOM     19  C   UNL     1       6.268  -1.459   0.000  0.00  0.00    +0.000 A 
ATOM     20  C   UNL     1       5.856  -2.173   0.000  0.00  0.00    +0.000 A 
ATOM     21  C   UNL     1       5.031  -2.173   0.000  0.00  0.00    +0.000 A 
ENDROOT
TORSDOF 0
