ROOT
REMARK  Name = phenaglycodol
REMARK                            x       y       z     vdW  Elec       q    Type
REMARK                         _______ _______ _______ _____ _____    ______ ____
ATOM      1  C   UNL     1       0.715   3.712   0.000  0.00  0.00    +0.000 C 
ATOM      2  C   UNL     1       0.715   2.888   0.000  0.00  0.00    +0.000 C 
ATOM      3  C   UNL     1      -0.111   2.888   0.000  0.00  0.00    +0.000 C 
ATOM      4  O   UNL     1       1.540   2.888   0.000  0.00  0.00    +0.000 OA
ATOM      5  C   UNL     1       0.715   2.062   0.000  0.00  0.00    +0.000 C 
ATOM      6  C   UNL     1      -0.111   2.062   0.000  0.00  0.00    +0.000 C 
ATOM      7  O   UNL     1       1.540   2.062   0.000  0.00  0.00    +0.000 OA
ATOM      8  C   UNL     1       0.715   1.238   0.000  0.00  0.00    +0.000 A 
ATOM      9  C   UNL     1       1.429   0.825   0.000  0.00  0.00    +0.000 A 
ATOM     10  C   UNL     1       1.429   0.000   0.000  0.00  0.00    +0.000 A 
ATOM     11  C   UNL     1       0.715  -0.412   0.000  0.00  0.00    +0.000 A 
ATOM     12 CL   UNL     1       0.715  -1.238   0.000  0.00  0.00    +0.000 Cl
ATOM     13  C   UNL     1       0.000   0.000   0.000  0.00  0.00    +0.000 A 
ATOM     14  C   UNL     1       0.000   0.825   0.000  0.00  0.00    +0.000 A 
ENDROOT
TORSDOF 0
