ROOT
REMARK  Name = phenylmercuric nitrate
REMARK                            x       y       z     vdW  Elec       q    Type
REMARK                         _______ _______ _______ _____ _____    ______ ____
ATOM      1  O   UNL     1       0.000   4.125   0.000  0.00  0.00    +0.000 OA
ATOM      2  N   UNL     1       0.000   3.300   0.000  0.00  0.00    +0.000 N 
ATOM      3  O   UNL     1      -0.715   2.888   0.000  0.00  0.00    +0.000 OA
ATOM      4  O   UNL     1       0.715   2.888   0.000  0.00  0.00    +0.000 OA
ATOM      5 HG   UNL     1       0.715   2.062   0.000  0.00  0.00    +0.000 Hg
ATOM      6  C   UNL     1       0.715   1.238   0.000  0.00  0.00    +0.000 A 
ATOM      7  C   UNL     1       1.429   0.825   0.000  0.00  0.00    +0.000 A 
ATOM      8  C   UNL     1       1.429   0.000   0.000  0.00  0.00    +0.000 A 
ATOM      9  C   UNL     1       0.715  -0.412   0.000  0.00  0.00    +0.000 A 
ATOM     10  C   UNL     1       0.000   0.000   0.000  0.00  0.00    +0.000 A 
ATOM     11  C   UNL     1       0.000   0.825   0.000  0.00  0.00    +0.000 A 
ENDROOT
TORSDOF 0
