ROOT
REMARK  Name = pholcodine
REMARK                            x       y       z     vdW  Elec       q    Type
REMARK                         _______ _______ _______ _____ _____    ______ ____
ATOM      1  C   UNL     1       1.369  -3.617   0.000  0.00  0.00    +0.000 C 
ATOM      2  N   UNL     1       1.491  -2.801   0.000  0.00  0.00    +0.000 NA
ATOM      3  C   UNL     1       0.918  -2.227   0.000  0.00  0.00    +0.000 C 
ATOM      4  C   UNL     1       1.252  -1.277   0.000  0.00  0.00    +0.000 C 
ATOM      5  C   UNL     1       2.088  -1.003   0.000  0.00  0.00    +0.000 C 
ATOM      6  C   UNL     1       1.781  -0.231   0.000  0.00  0.00    +0.000 C 
ATOM      7  O   UNL     1       2.495   0.233   0.000  0.00  0.00    +0.000 OA
ATOM      8  C   UNL     1       3.212  -0.239   0.000  0.00  0.00    +0.000 A 
ATOM      9  C   UNL     1       2.932  -1.004   0.000  0.00  0.00    +0.000 A 
ATOM     10  C   UNL     1       3.391  -1.715   0.000  0.00  0.00    +0.000 A 
ATOM     11  C   UNL     1       3.009  -2.450   0.000  0.00  0.00    +0.000 C 
ATOM     12  C   UNL     1       2.202  -2.424   0.000  0.00  0.00    +0.000 C 
ATOM     13  C   UNL     1       1.866  -1.588   0.000  0.00  0.00    +0.000 C 
ATOM     14  C   UNL     1       0.906  -1.666   0.000  0.00  0.00    +0.000 C 
ATOM     15  C   UNL     1       0.456  -0.958   0.000  0.00  0.00    +0.000 C 
ATOM     16  C   UNL     1       0.913  -0.252   0.000  0.00  0.00    +0.000 C 
ATOM     17  O   UNL     1       0.509   0.468   0.000  0.00  0.00    +0.000 OA
ATOM     18  C   UNL     1       4.211  -1.645   0.000  0.00  0.00    +0.000 A 
ATOM     19  C   UNL     1       4.551  -0.889   0.000  0.00  0.00    +0.000 A 
ATOM     20  C   UNL     1       4.061  -0.206   0.000  0.00  0.00    +0.000 A 
ATOM     21  O   UNL     1       4.423   0.535   0.000  0.00  0.00    +0.000 OA
ATOM     22  C   UNL     1       5.246   0.592   0.000  0.00  0.00    +0.000 C 
ATOM     23  C   UNL     1       5.608   1.333   0.000  0.00  0.00    +0.000 C 
ATOM     24  N   UNL     1       6.431   1.390   0.000  0.00  0.00    +0.000 NA
ATOM     25  C   UNL     1       6.794   2.131   0.000  0.00  0.00    +0.000 C 
ATOM     26  C   UNL     1       7.617   2.188   0.000  0.00  0.00    +0.000 C 
ATOM     27  O   UNL     1       8.077   1.504   0.000  0.00  0.00    +0.000 OA
ATOM     28  C   UNL     1       7.715   0.762   0.000  0.00  0.00    +0.000 C 
ATOM     29  C   UNL     1       6.892   0.706   0.000  0.00  0.00    +0.000 C 
ENDROOT
TORSDOF 0
