ROOT
REMARK  Name = phosphocreatine
REMARK                            x       y       z     vdW  Elec       q    Type
REMARK                         _______ _______ _______ _____ _____    ______ ____
ATOM      1  C   UNL     1       0.825  -2.475   0.000  0.00  0.00    +0.000 C 
ATOM      2  N   UNL     1       0.111  -2.062   0.000  0.00  0.00    +0.000 N 
ATOM      3  C   UNL     1      -0.604  -2.475   0.000  0.00  0.00    +0.000 C 
ATOM      4  C   UNL     1      -0.604  -3.300   0.000  0.00  0.00    +0.000 C 
ATOM      5  O   UNL     1      -1.318  -3.712   0.000  0.00  0.00    +0.000 OA
ATOM      6  O   UNL     1       0.111  -3.712   0.000  0.00  0.00    +0.000 OA
ATOM      7  C   UNL     1       0.111  -1.238   0.000  0.00  0.00    +0.000 C 
ATOM      8  N   UNL     1      -0.604  -0.825   0.000  0.00  0.00    +0.000 NA
ATOM      9  N   UNL     1       0.825  -0.825   0.000  0.00  0.00    +0.000 NA
ATOM     10  P   UNL     1       0.825   0.000   0.000  0.00  0.00    +0.000 P 
ATOM     11  O   UNL     1       0.825   0.825   0.000  0.00  0.00    +0.000 OA
ATOM     12  O   UNL     1       1.650   0.000   0.000  0.00  0.00    +0.000 OA
ATOM     13  O   UNL     1       0.000   0.000   0.000  0.00  0.00    +0.000 OA
ENDROOT
TORSDOF 0
