ROOT
REMARK  Name = phthalylsulfathiazole
REMARK                            x       y       z     vdW  Elec       q    Type
REMARK                         _______ _______ _______ _____ _____    ______ ____
ATOM      1  O   UNL     1      -2.250   9.303   0.000  0.00  0.00    +0.000 OA
ATOM      2  C   UNL     1      -2.250   8.478   0.000  0.00  0.00    +0.000 C 
ATOM      3  O   UNL     1      -1.536   8.065   0.000  0.00  0.00    +0.000 OA
ATOM      4  C   UNL     1      -2.965   8.065   0.000  0.00  0.00    +0.000 A 
ATOM      5  C   UNL     1      -2.965   7.240   0.000  0.00  0.00    +0.000 A 
ATOM      6  C   UNL     1      -3.679   6.828   0.000  0.00  0.00    +0.000 A 
ATOM      7  C   UNL     1      -4.394   7.240   0.000  0.00  0.00    +0.000 A 
ATOM      8  C   UNL     1      -4.394   8.065   0.000  0.00  0.00    +0.000 A 
ATOM      9  C   UNL     1      -3.679   8.478   0.000  0.00  0.00    +0.000 A 
ATOM     10  C   UNL     1      -2.250   6.828   0.000  0.00  0.00    +0.000 C 
ATOM     11  O   UNL     1      -2.250   6.003   0.000  0.00  0.00    +0.000 OA
ATOM     12  N   UNL     1      -1.536   7.240   0.000  0.00  0.00    +0.000 NA
ATOM     13  C   UNL     1      -0.821   6.828   0.000  0.00  0.00    +0.000 A 
ATOM     14  C   UNL     1      -0.107   7.240   0.000  0.00  0.00    +0.000 A 
ATOM     15  C   UNL     1       0.608   6.828   0.000  0.00  0.00    +0.000 A 
ATOM     16  C   UNL     1       0.608   6.003   0.000  0.00  0.00    +0.000 A 
ATOM     17  C   UNL     1      -0.107   5.590   0.000  0.00  0.00    +0.000 A 
ATOM     18  C   UNL     1      -0.821   6.003   0.000  0.00  0.00    +0.000 A 
ATOM     19  S   UNL     1       1.322   5.590   0.000  0.00  0.00    +0.000 S 
ATOM     20  O   UNL     1       0.910   4.876   0.000  0.00  0.00    +0.000 OA
ATOM     21  O   UNL     1       1.735   6.305   0.000  0.00  0.00    +0.000 OA
ATOM     22  N   UNL     1       2.037   5.178   0.000  0.00  0.00    +0.000 NA
ATOM     23  C   UNL     1       2.037   4.353   0.000  0.00  0.00    +0.000 A 
ATOM     24  N   UNL     1       2.704   3.868   0.000  0.00  0.00    +0.000 NA
ATOM     25  C   UNL     1       2.449   3.083   0.000  0.00  0.00    +0.000 A 
ATOM     26  C   UNL     1       1.624   3.083   0.000  0.00  0.00    +0.000 A 
ATOM     27  S   UNL     1       1.369   3.868   0.000  0.00  0.00    +0.000 S 
ENDROOT
TORSDOF 0
