ROOT
REMARK  Name = picrotin
REMARK                            x       y       z     vdW  Elec       q    Type
REMARK                         _______ _______ _______ _____ _____    ______ ____
ATOM      1  C   UNL     1       5.038   0.539   0.000  0.00  0.00    +0.000 C 
ATOM      2  C   UNL     1       4.135   0.600   0.000  0.00  0.00    +0.000 C 
ATOM      3  C   UNL     1       4.668   1.327   0.000  0.00  0.00    +0.000 C 
ATOM      4  O   UNL     1       3.791  -0.315   0.000  0.00  0.00    +0.000 OA
ATOM      5  C   UNL     1       3.109   0.842   0.000  0.00  0.00    +0.000 C 
ATOM      6  C   UNL     1       2.825   1.734   0.000  0.00  0.00    +0.000 C 
ATOM      7  O   UNL     1       3.634   1.738   0.000  0.00  0.00    +0.000 OA
ATOM      8  C   UNL     1       3.713   0.849   0.000  0.00  0.00    +0.000 C 
ATOM      9  O   UNL     1       4.337   0.084   0.000  0.00  0.00    +0.000 OA
ATOM     10  C   UNL     1       2.746   0.432   0.000  0.00  0.00    +0.000 C 
ATOM     11  C   UNL     1       1.820   0.521   0.000  0.00  0.00    +0.000 C 
ATOM     12  O   UNL     1       1.954  -0.350   0.000  0.00  0.00    +0.000 OA
ATOM     13  C   UNL     1       1.064   0.125   0.000  0.00  0.00    +0.000 C 
ATOM     14  C   UNL     1       0.399   0.655   0.000  0.00  0.00    +0.000 C 
ATOM     15  O   UNL     1      -0.142   1.275   0.000  0.00  0.00    +0.000 OA
ATOM     16  C   UNL     1       0.678   1.427   0.000  0.00  0.00    +0.000 C 
ATOM     17  C   UNL     1       0.603   2.283   0.000  0.00  0.00    +0.000 C 
ATOM     18  O   UNL     1      -0.055   2.837   0.000  0.00  0.00    +0.000 OA
ATOM     19  O   UNL     1       1.373   2.607   0.000  0.00  0.00    +0.000 OA
ATOM     20  C   UNL     1       1.988   1.979   0.000  0.00  0.00    +0.000 C 
ATOM     21  C   UNL     1       1.530   1.311   0.000  0.00  0.00    +0.000 C 
ATOM     22  C   UNL     1       2.314   1.191   0.000  0.00  0.00    +0.000 C 
ENDROOT
TORSDOF 0
