ROOT
REMARK  Name = pimobendan
REMARK                            x       y       z     vdW  Elec       q    Type
REMARK                         _______ _______ _______ _____ _____    ______ ____
ATOM      1  C   UNL     1      -4.341  -1.412   0.000  0.00  0.00    +0.000 C 
ATOM      2  O   UNL     1      -3.928  -0.698   0.000  0.00  0.00    +0.000 OA
ATOM      3  C   UNL     1      -3.103  -0.698   0.000  0.00  0.00    +0.000 A 
ATOM      4  C   UNL     1      -2.691   0.017   0.000  0.00  0.00    +0.000 A 
ATOM      5  C   UNL     1      -1.866   0.017   0.000  0.00  0.00    +0.000 A 
ATOM      6  C   UNL     1      -1.453  -0.698   0.000  0.00  0.00    +0.000 A 
ATOM      7  C   UNL     1      -1.866  -1.412   0.000  0.00  0.00    +0.000 A 
ATOM      8  C   UNL     1      -2.691  -1.412   0.000  0.00  0.00    +0.000 A 
ATOM      9  C   UNL     1      -0.628  -0.698   0.000  0.00  0.00    +0.000 C 
ATOM     10  N   UNL     1      -0.143  -1.365   0.000  0.00  0.00    +0.000 NA
ATOM     11  C   UNL     1       0.641  -1.110   0.000  0.00  0.00    +0.000 C 
ATOM     12  C   UNL     1       0.641  -0.285   0.000  0.00  0.00    +0.000 C 
ATOM     13  N   UNL     1      -0.143  -0.030   0.000  0.00  0.00    +0.000 NA
ATOM     14  C   UNL     1       1.356   0.127   0.000  0.00  0.00    +0.000 C 
ATOM     15  C   UNL     1       2.070  -0.285   0.000  0.00  0.00    +0.000 C 
ATOM     16  C   UNL     1       2.070  -1.110   0.000  0.00  0.00    +0.000 C 
ATOM     17  C   UNL     1       1.356  -1.523   0.000  0.00  0.00    +0.000 C 
ATOM     18  C   UNL     1       2.784  -1.523   0.000  0.00  0.00    +0.000 C 
ATOM     19  N   UNL     1       3.499  -1.110   0.000  0.00  0.00    +0.000 NA
ATOM     20  N   UNL     1       4.213  -1.523   0.000  0.00  0.00    +0.000 NA
ATOM     21  C   UNL     1       4.213  -2.348   0.000  0.00  0.00    +0.000 C 
ATOM     22  O   UNL     1       4.928  -2.760   0.000  0.00  0.00    +0.000 OA
ATOM     23  C   UNL     1       3.499  -2.760   0.000  0.00  0.00    +0.000 C 
ATOM     24  C   UNL     1       2.784  -2.348   0.000  0.00  0.00    +0.000 C 
ATOM     25  C   UNL     1       2.070  -2.760   0.000  0.00  0.00    +0.000 C 
ENDROOT
TORSDOF 0
