ROOT
REMARK  Name = pipamperone
REMARK                            x       y       z     vdW  Elec       q    Type
REMARK                         _______ _______ _______ _____ _____    ______ ____
ATOM      1  N   UNL     1      -0.587  -6.141   0.000  0.00  0.00    +0.000 NA
ATOM      2  C   UNL     1      -1.117  -5.509   0.000  0.00  0.00    +0.000 C 
ATOM      3  O   UNL     1      -1.929  -5.652   0.000  0.00  0.00    +0.000 OA
ATOM      4  C   UNL     1      -0.835  -4.734   0.000  0.00  0.00    +0.000 C 
ATOM      5  C   UNL     1      -0.835  -3.909   0.000  0.00  0.00    +0.000 C 
ATOM      6  C   UNL     1      -0.120  -3.496   0.000  0.00  0.00    +0.000 C 
ATOM      7  N   UNL     1       0.594  -3.909   0.000  0.00  0.00    +0.000 NA
ATOM      8  C   UNL     1       1.309  -3.496   0.000  0.00  0.00    +0.000 C 
ATOM      9  C   UNL     1       2.023  -3.909   0.000  0.00  0.00    +0.000 C 
ATOM     10  C   UNL     1       2.738  -3.496   0.000  0.00  0.00    +0.000 C 
ATOM     11  C   UNL     1       3.452  -3.909   0.000  0.00  0.00    +0.000 C 
ATOM     12  O   UNL     1       3.452  -4.734   0.000  0.00  0.00    +0.000 OA
ATOM     13  C   UNL     1       4.167  -3.496   0.000  0.00  0.00    +0.000 A 
ATOM     14  C   UNL     1       4.167  -2.671   0.000  0.00  0.00    +0.000 A 
ATOM     15  C   UNL     1       4.881  -2.259   0.000  0.00  0.00    +0.000 A 
ATOM     16  C   UNL     1       5.596  -2.671   0.000  0.00  0.00    +0.000 A 
ATOM     17  F   UNL     1       6.310  -2.259   0.000  0.00  0.00    +0.000 F 
ATOM     18  C   UNL     1       5.596  -3.496   0.000  0.00  0.00    +0.000 A 
ATOM     19  C   UNL     1       4.881  -3.909   0.000  0.00  0.00    +0.000 A 
ATOM     20  C   UNL     1       0.594  -4.734   0.000  0.00  0.00    +0.000 C 
ATOM     21  C   UNL     1      -0.120  -5.146   0.000  0.00  0.00    +0.000 C 
ATOM     22  N   UNL     1      -1.647  -4.590   0.000  0.00  0.00    +0.000 NA
ATOM     23  C   UNL     1      -2.177  -5.222   0.000  0.00  0.00    +0.000 C 
ATOM     24  C   UNL     1      -2.990  -5.079   0.000  0.00  0.00    +0.000 C 
ATOM     25  C   UNL     1      -3.272  -4.304   0.000  0.00  0.00    +0.000 C 
ATOM     26  C   UNL     1      -2.742  -3.672   0.000  0.00  0.00    +0.000 C 
ATOM     27  C   UNL     1      -1.929  -3.815   0.000  0.00  0.00    +0.000 C 
ENDROOT
TORSDOF 0
