ROOT
REMARK  Name = pipotiazine palmitate
REMARK                            x       y       z     vdW  Elec       q    Type
REMARK                         _______ _______ _______ _____ _____    ______ ____
ATOM      1  C   UNL     1      17.147  -1.650   0.000  0.00  0.00    +0.000 C 
ATOM      2  C   UNL     1      17.862  -2.062   0.000  0.00  0.00    +0.000 C 
ATOM      3  C   UNL     1      18.576  -1.650   0.000  0.00  0.00    +0.000 C 
ATOM      4  C   UNL     1      19.291  -2.062   0.000  0.00  0.00    +0.000 C 
ATOM      5  C   UNL     1      20.005  -1.650   0.000  0.00  0.00    +0.000 C 
ATOM      6  C   UNL     1      20.720  -2.062   0.000  0.00  0.00    +0.000 C 
ATOM      7  C   UNL     1      21.434  -1.650   0.000  0.00  0.00    +0.000 C 
ATOM      8  C   UNL     1      22.149  -2.062   0.000  0.00  0.00    +0.000 C 
ATOM      9  C   UNL     1      22.863  -1.650   0.000  0.00  0.00    +0.000 C 
ATOM     10  C   UNL     1      23.578  -2.062   0.000  0.00  0.00    +0.000 C 
ATOM     11  C   UNL     1      24.292  -1.650   0.000  0.00  0.00    +0.000 C 
ATOM     12  C   UNL     1      25.006  -2.062   0.000  0.00  0.00    +0.000 C 
ATOM     13  C   UNL     1      25.721  -1.650   0.000  0.00  0.00    +0.000 C 
ATOM     14  C   UNL     1      26.435  -2.062   0.000  0.00  0.00    +0.000 C 
ATOM     15  C   UNL     1      27.150  -1.650   0.000  0.00  0.00    +0.000 C 
ATOM     16  C   UNL     1      27.864  -2.062   0.000  0.00  0.00    +0.000 C 
ATOM     17  O   UNL     1      27.864  -2.888   0.000  0.00  0.00    +0.000 OA
ATOM     18  O   UNL     1      28.579  -1.650   0.000  0.00  0.00    +0.000 OA
ATOM     19  C   UNL     1      29.293  -2.062   0.000  0.00  0.00    +0.000 C 
ATOM     20  C   UNL     1      30.008  -1.650   0.000  0.00  0.00    +0.000 C 
ATOM     21  C   UNL     1      30.722  -2.062   0.000  0.00  0.00    +0.000 C 
ATOM     22  C   UNL     1      31.437  -1.650   0.000  0.00  0.00    +0.000 C 
ATOM     23  C   UNL     1      32.151  -2.062   0.000  0.00  0.00    +0.000 C 
ATOM     24  N   UNL     1      32.151  -2.888   0.000  0.00  0.00    +0.000 NA
ATOM     25  C   UNL     1      32.866  -3.300   0.000  0.00  0.00    +0.000 C 
ATOM     26  C   UNL     1      33.580  -2.888   0.000  0.00  0.00    +0.000 C 
ATOM     27  C   UNL     1      34.295  -3.300   0.000  0.00  0.00    +0.000 C 
ATOM     28  N   UNL     1      35.009  -2.888   0.000  0.00  0.00    +0.000 N 
ATOM     29  C   UNL     1      35.009  -2.062   0.000  0.00  0.00    +0.000 A 
ATOM     30  C   UNL     1      34.295  -1.650   0.000  0.00  0.00    +0.000 A 
ATOM     31  C   UNL     1      34.295  -0.825   0.000  0.00  0.00    +0.000 A 
ATOM     32  C   UNL     1      35.009  -0.412   0.000  0.00  0.00    +0.000 A 
ATOM     33  C   UNL     1      35.724  -0.825   0.000  0.00  0.00    +0.000 A 
ATOM     34  C   UNL     1      35.724  -1.650   0.000  0.00  0.00    +0.000 A 
ATOM     35  S   UNL     1      36.438  -2.062   0.000  0.00  0.00    +0.000 S 
ATOM     36  C   UNL     1      36.438  -2.888   0.000  0.00  0.00    +0.000 A 
ATOM     37  C   UNL     1      37.153  -3.300   0.000  0.00  0.00    +0.000 A 
ATOM     38  C   UNL     1      37.153  -4.125   0.000  0.00  0.00    +0.000 A 
ATOM     39  C   UNL     1      36.438  -4.537   0.000  0.00  0.00    +0.000 A 
ATOM     40  C   UNL     1      35.724  -4.125   0.000  0.00  0.00    +0.000 A 
ATOM     41  C   UNL     1      35.724  -3.300   0.000  0.00  0.00    +0.000 A 
ATOM     42  S   UNL     1      36.438  -5.362   0.000  0.00  0.00    +0.000 S 
ATOM     43  O   UNL     1      35.613  -5.362   0.000  0.00  0.00    +0.000 OA
ATOM     44  O   UNL     1      37.263  -5.362   0.000  0.00  0.00    +0.000 OA
ATOM     45  N   UNL     1      36.438  -6.188   0.000  0.00  0.00    +0.000 NA
ATOM     46  C   UNL     1      37.153  -6.600   0.000  0.00  0.00    +0.000 C 
ATOM     47  C   UNL     1      35.724  -6.600   0.000  0.00  0.00    +0.000 C 
ATOM     48  C   UNL     1      31.437  -3.300   0.000  0.00  0.00    +0.000 C 
ATOM     49  C   UNL     1      30.722  -2.888   0.000  0.00  0.00    +0.000 C 
ENDROOT
TORSDOF 0
