ROOT
REMARK  Name = piroheptine
REMARK                            x       y       z     vdW  Elec       q    Type
REMARK                         _______ _______ _______ _____ _____    ______ ____
ATOM      1  C   UNL     1       3.242   3.848   0.000  0.00  0.00    +0.000 C 
ATOM      2  C   UNL     1       2.906   3.094   0.000  0.00  0.00    +0.000 C 
ATOM      3  N   UNL     1       3.391   2.426   0.000  0.00  0.00    +0.000 NA
ATOM      4  C   UNL     1       4.216   2.426   0.000  0.00  0.00    +0.000 C 
ATOM      5  C   UNL     1       4.471   1.642   0.000  0.00  0.00    +0.000 C 
ATOM      6  C   UNL     1       3.804   1.157   0.000  0.00  0.00    +0.000 C 
ATOM      7  C   UNL     1       3.136   1.642   0.000  0.00  0.00    +0.000 C 
ATOM      8  C   UNL     1       2.352   1.387   0.000  0.00  0.00    +0.000 C 
ATOM      9  C   UNL     1       3.804   0.332   0.000  0.00  0.00    +0.000 C 
ATOM     10  C   UNL     1       4.547  -0.026   0.000  0.00  0.00    +0.000 A 
ATOM     11  C   UNL     1       5.152   0.535   0.000  0.00  0.00    +0.000 A 
ATOM     12  C   UNL     1       5.940   0.292   0.000  0.00  0.00    +0.000 A 
ATOM     13  C   UNL     1       6.124  -0.512   0.000  0.00  0.00    +0.000 A 
ATOM     14  C   UNL     1       5.519  -1.073   0.000  0.00  0.00    +0.000 A 
ATOM     15  C   UNL     1       4.731  -0.830   0.000  0.00  0.00    +0.000 A 
ATOM     16  C   UNL     1       4.216  -1.475   0.000  0.00  0.00    +0.000 C 
ATOM     17  C   UNL     1       3.391  -1.475   0.000  0.00  0.00    +0.000 C 
ATOM     18  C   UNL     1       2.877  -0.830   0.000  0.00  0.00    +0.000 A 
ATOM     19  C   UNL     1       3.060  -0.026   0.000  0.00  0.00    +0.000 A 
ATOM     20  C   UNL     1       2.456   0.535   0.000  0.00  0.00    +0.000 A 
ATOM     21  C   UNL     1       1.667   0.292   0.000  0.00  0.00    +0.000 A 
ATOM     22  C   UNL     1       1.484  -0.512   0.000  0.00  0.00    +0.000 A 
ATOM     23  C   UNL     1       2.088  -1.073   0.000  0.00  0.00    +0.000 A 
ENDROOT
TORSDOF 0
