ROOT
REMARK  Name = pixantrone
REMARK                            x       y       z     vdW  Elec       q    Type
REMARK                         _______ _______ _______ _____ _____    ______ ____
ATOM      1  N   UNL     1       2.143  -2.888   0.000  0.00  0.00    +0.000 NA
ATOM      2  C   UNL     1       2.858  -2.475   0.000  0.00  0.00    +0.000 C 
ATOM      3  C   UNL     1       2.858  -1.650   0.000  0.00  0.00    +0.000 C 
ATOM      4  N   UNL     1       3.572  -1.238   0.000  0.00  0.00    +0.000 NA
ATOM      5  C   UNL     1       3.572  -0.412   0.000  0.00  0.00    +0.000 A 
ATOM      6  C   UNL     1       4.287   0.000   0.000  0.00  0.00    +0.000 A 
ATOM      7  C   UNL     1       4.287   0.825   0.000  0.00  0.00    +0.000 A 
ATOM      8  C   UNL     1       3.572   1.238   0.000  0.00  0.00    +0.000 A 
ATOM      9  N   UNL     1       3.572   2.062   0.000  0.00  0.00    +0.000 NA
ATOM     10  C   UNL     1       2.858   2.475   0.000  0.00  0.00    +0.000 C 
ATOM     11  C   UNL     1       2.858   3.300   0.000  0.00  0.00    +0.000 C 
ATOM     12  N   UNL     1       2.143   3.712   0.000  0.00  0.00    +0.000 NA
ATOM     13  C   UNL     1       2.858   0.825   0.000  0.00  0.00    +0.000 A 
ATOM     14  C   UNL     1       2.858   0.000   0.000  0.00  0.00    +0.000 A 
ATOM     15  C   UNL     1       2.143  -0.412   0.000  0.00  0.00    +0.000 C 
ATOM     16  O   UNL     1       2.143  -1.238   0.000  0.00  0.00    +0.000 OA
ATOM     17  C   UNL     1       1.429   0.000   0.000  0.00  0.00    +0.000 A 
ATOM     18  C   UNL     1       0.715  -0.412   0.000  0.00  0.00    +0.000 A 
ATOM     19  C   UNL     1       0.000   0.000   0.000  0.00  0.00    +0.000 A 
ATOM     20  N   UNL     1       0.000   0.825   0.000  0.00  0.00    +0.000 NA
ATOM     21  C   UNL     1       0.715   1.238   0.000  0.00  0.00    +0.000 A 
ATOM     22  C   UNL     1       1.429   0.825   0.000  0.00  0.00    +0.000 A 
ATOM     23  C   UNL     1       2.143   1.238   0.000  0.00  0.00    +0.000 C 
ATOM     24  O   UNL     1       2.143   2.062   0.000  0.00  0.00    +0.000 OA
ENDROOT
TORSDOF 0
