ROOT
REMARK  Name = plecanatide
REMARK                            x       y       z     vdW  Elec       q    Type
REMARK                         _______ _______ _______ _____ _____    ______ ____
ATOM      1  CD1 LEU A  16      -3.249  -0.754   0.000  0.00  0.00    +0.000 C 
ATOM      2  CG  LEU A  16      -2.428  -0.671   0.000  0.00  0.00    +0.000 C 
ATOM      3  CD2 LEU A  16      -2.089   0.081   0.000  0.00  0.00    +0.000 C 
ATOM      4  CB  LEU A  16      -1.947  -1.341   0.000  0.00  0.00    +0.000 C 
ATOM      5  CA  LEU A  16      -1.126  -1.259   0.000  0.00  0.00    +0.000 C 
ATOM      6  N   LEU A  16      -0.644  -1.929   0.000  0.00  0.00    +0.000 NA
ATOM      7  C   CYS A  15       0.177  -1.847   0.000  0.00  0.00    +0.000 C 
ATOM      8  O   CYS A  15       0.658  -2.517   0.000  0.00  0.00    +0.000 OA
ATOM      9  CA  CYS A  15       0.516  -1.095   0.000  0.00  0.00    +0.000 C 
ATOM     10  CB  CYS A  15      -0.112  -0.489   0.000  0.00  0.00    +0.000 C 
ATOM     11  SG  CYS A  15       0.080   0.350   0.000  0.00  0.00    +0.000 S 
ATOM     12  SG  CYS A   7       1.015   0.557   0.000  0.00  0.00    +0.000 S 
ATOM     13  CB  CYS A   7       1.652  -0.007   0.000  0.00  0.00    +0.000 C 
ATOM     14  CA  CYS A   7       1.085  -0.659   0.000  0.00  0.00    +0.000 C 
ATOM     15  N   CYS A   7       0.668   0.109   0.000  0.00  0.00    +0.000 NA
ATOM     16  C   LEU A   6       0.556   1.043   0.000  0.00  0.00    +0.000 C 
ATOM     17  O   LEU A   6      -0.239   1.263   0.000  0.00  0.00    +0.000 OA
ATOM     18  CA  LEU A   6       1.081   1.719   0.000  0.00  0.00    +0.000 C 
ATOM     19  CB  LEU A   6       0.623   2.405   0.000  0.00  0.00    +0.000 C 
ATOM     20  CG  LEU A   6       0.988   3.145   0.000  0.00  0.00    +0.000 C 
ATOM     21  CD1 LEU A   6       0.530   3.831   0.000  0.00  0.00    +0.000 C 
ATOM     22  CD2 LEU A   6       1.811   3.199   0.000  0.00  0.00    +0.000 C 
ATOM     23  N   LEU A   6       1.902   1.944   0.000  0.00  0.00    +0.000 NA
ATOM     24  C   GLU A   5       2.742   1.809   0.000  0.00  0.00    +0.000 C 
ATOM     25  O   GLU A   5       2.902   2.618   0.000  0.00  0.00    +0.000 OA
ATOM     26  CA  GLU A   5       3.554   1.617   0.000  0.00  0.00    +0.000 C 
ATOM     27  CB  GLU A   5       3.675   2.433   0.000  0.00  0.00    +0.000 C 
ATOM     28  CG  GLU A   5       4.442   2.737   0.000  0.00  0.00    +0.000 C 
ATOM     29  CD  GLU A   5       4.562   3.553   0.000  0.00  0.00    +0.000 C 
ATOM     30  OE1 GLU A   5       3.916   4.066   0.000  0.00  0.00    +0.000 OA
ATOM     31  OE2 GLU A   5       5.329   3.857   0.000  0.00  0.00    +0.000 OA
ATOM     32  N   GLU A   5       4.362   1.568   0.000  0.00  0.00    +0.000 NA
ATOM     33  C   CYS A   4       5.164   1.808   0.000  0.00  0.00    +0.000 C 
ATOM     34  O   CYS A   4       5.027   2.622   0.000  0.00  0.00    +0.000 OA
ATOM     35  CA  CYS A   4       5.993   1.844   0.000  0.00  0.00    +0.000 C 
ATOM     36  CB  CYS A   4       6.787   2.122   0.000  0.00  0.00    +0.000 C 
ATOM     37  SG  CYS A   4       7.608   2.242   0.000  0.00  0.00    +0.000 S 
ATOM     38  SG  CYS A  12       8.244   1.713   0.000  0.00  0.00    +0.000 S 
ATOM     39  CB  CYS A  12       8.309   0.873   0.000  0.00  0.00    +0.000 C 
ATOM     40  CA  CYS A  12       8.098   0.063   0.000  0.00  0.00    +0.000 C 
ATOM     41  N   CYS A  12       8.825  -0.345   0.000  0.00  0.00    +0.000 NA
ATOM     42  C   ALA A  11       9.412  -0.932   0.000  0.00  0.00    +0.000 C 
ATOM     43  O   ALA A  11      10.192  -0.662   0.000  0.00  0.00    +0.000 OA
ATOM     44  CA  ALA A  11       9.314  -1.754   0.000  0.00  0.00    +0.000 C 
ATOM     45  CB  ALA A  11      10.061  -2.104   0.000  0.00  0.00    +0.000 C 
ATOM     46  N   ALA A  11       8.730  -2.371   0.000  0.00  0.00    +0.000 NA
ATOM     47  C   VAL A  10       7.883  -2.466   0.000  0.00  0.00    +0.000 C 
ATOM     48  O   VAL A  10       7.787  -1.646   0.000  0.00  0.00    +0.000 OA
ATOM     49  CA  VAL A  10       7.056  -2.567   0.000  0.00  0.00    +0.000 C 
ATOM     50  N   VAL A  10       6.229  -2.694   0.000  0.00  0.00    +0.000 NA
ATOM     51  C   ASN A   9       5.396  -2.845   0.000  0.00  0.00    +0.000 C 
ATOM     52  O   ASN A   9       5.518  -3.660   0.000  0.00  0.00    +0.000 OA
ATOM     53  CA  ASN A   9       4.556  -2.945   0.000  0.00  0.00    +0.000 C 
ATOM     54  CB  ASN A   9       4.674  -3.761   0.000  0.00  0.00    +0.000 C 
ATOM     55  CG  ASN A   9       4.026  -4.272   0.000  0.00  0.00    +0.000 C 
ATOM     56  ND2 ASN A   9       4.144  -5.088   0.000  0.00  0.00    +0.000 NA
ATOM     57  OD1 ASN A   9       3.260  -3.966   0.000  0.00  0.00    +0.000 OA
ATOM     58  N   ASN A   9       3.722  -3.087   0.000  0.00  0.00    +0.000 NA
ATOM     59  C   VAL A   8       2.872  -3.116   0.000  0.00  0.00    +0.000 C 
ATOM     60  O   VAL A   8       2.784  -3.936   0.000  0.00  0.00    +0.000 OA
ATOM     61  CA  VAL A   8       2.038  -2.905   0.000  0.00  0.00    +0.000 C 
ATOM     62  N   VAL A   8       1.344  -2.425   0.000  0.00  0.00    +0.000 NA
ATOM     63  C   CYS A   7       1.015  -1.632   0.000  0.00  0.00    +0.000 C 
ATOM     64  O   CYS A   7       1.601  -2.213   0.000  0.00  0.00    +0.000 OA
ATOM     65  CB  VAL A   8       1.696  -3.656   0.000  0.00  0.00    +0.000 C 
ATOM     66  CG1 VAL A   8       0.875  -3.736   0.000  0.00  0.00    +0.000 C 
ATOM     67  CG2 VAL A   8       2.176  -4.327   0.000  0.00  0.00    +0.000 C 
ATOM     68  CB  VAL A  10       7.169  -3.385   0.000  0.00  0.00    +0.000 C 
ATOM     69  CG1 VAL A  10       6.518  -3.891   0.000  0.00  0.00    +0.000 C 
ATOM     70  CG2 VAL A  10       7.933  -3.695   0.000  0.00  0.00    +0.000 C 
ATOM     71  C   CYS A  12       7.269  -0.195   0.000  0.00  0.00    +0.000 C 
ATOM     72  O   CYS A  12       7.472  -0.995   0.000  0.00  0.00    +0.000 OA
ATOM     73  N   THR A  13       6.443  -0.359   0.000  0.00  0.00    +0.000 NA
ATOM     74  CA  THR A  13       5.623  -0.494   0.000  0.00  0.00    +0.000 C 
ATOM     75  CB  THR A  13       5.725  -1.312   0.000  0.00  0.00    +0.000 C 
ATOM     76  CG2 THR A  13       5.068  -1.810   0.000  0.00  0.00    +0.000 C 
ATOM     77  OG1 THR A  13       6.486  -1.633   0.000  0.00  0.00    +0.000 OA
ATOM     78  C   THR A  13       4.785  -0.567   0.000  0.00  0.00    +0.000 C 
ATOM     79  O   THR A  13       4.701   0.253   0.000  0.00  0.00    +0.000 OA
ATOM     80  N   GLY A  14       3.948  -0.665   0.000  0.00  0.00    +0.000 NA
ATOM     81  CA  GLY A  14       3.121  -0.819   0.000  0.00  0.00    +0.000 C 
ATOM     82  C   GLY A  14       2.333  -1.127   0.000  0.00  0.00    +0.000 C 
ATOM     83  O   GLY A  14       2.507  -1.933   0.000  0.00  0.00    +0.000 OA
ATOM     84  N   CYS A  15       1.476  -1.172   0.000  0.00  0.00    +0.000 NA
ATOM     85  N   CYS A   4       5.837   2.654   0.000  0.00  0.00    +0.000 NA
ATOM     86  C   GLU A   3       6.461   3.194   0.000  0.00  0.00    +0.000 C 
ATOM     87  O   GLU A   3       7.240   2.924   0.000  0.00  0.00    +0.000 OA
ATOM     88  CA  GLU A   3       6.305   4.005   0.000  0.00  0.00    +0.000 C 
ATOM     89  CB  GLU A   3       5.525   4.275   0.000  0.00  0.00    +0.000 C 
ATOM     90  CG  GLU A   3       5.369   5.085   0.000  0.00  0.00    +0.000 C 
ATOM     91  CD  GLU A   3       4.590   5.355   0.000  0.00  0.00    +0.000 C 
ATOM     92  OE1 GLU A   3       3.966   4.815   0.000  0.00  0.00    +0.000 OA
ATOM     93  OE2 GLU A   3       4.434   6.165   0.000  0.00  0.00    +0.000 OA
ATOM     94  N   GLU A   3       6.928   4.545   0.000  0.00  0.00    +0.000 NA
ATOM     95  C   ASP A   2       7.708   4.275   0.000  0.00  0.00    +0.000 C 
ATOM     96  O   ASP A   2       7.864   3.465   0.000  0.00  0.00    +0.000 OA
ATOM     97  CA  ASP A   2       8.332   4.815   0.000  0.00  0.00    +0.000 C 
ATOM     98  CB  ASP A   2       8.176   5.625   0.000  0.00  0.00    +0.000 C 
ATOM     99  CG  ASP A   2       7.396   5.895   0.000  0.00  0.00    +0.000 C 
ATOM    100  OD1 ASP A   2       6.773   5.355   0.000  0.00  0.00    +0.000 OA
ATOM    101  OD2 ASP A   2       7.240   6.705   0.000  0.00  0.00    +0.000 OA
ATOM    102  N   ASP A   2       9.111   4.545   0.000  0.00  0.00    +0.000 NA
ATOM    103  C   ASN A   1       9.735   5.085   0.000  0.00  0.00    +0.000 C 
ATOM    104  O   ASN A   1       9.579   5.895   0.000  0.00  0.00    +0.000 OA
ATOM    105  CA  ASN A   1      10.514   4.815   0.000  0.00  0.00    +0.000 C 
ATOM    106  N   ASN A   1      10.670   4.005   0.000  0.00  0.00    +0.000 NA
ATOM    107  CB  ASN A   1      11.138   5.355   0.000  0.00  0.00    +0.000 C 
ATOM    108  CG  ASN A   1      11.918   5.085   0.000  0.00  0.00    +0.000 C 
ATOM    109  ND2 ASN A   1      12.541   5.625   0.000  0.00  0.00    +0.000 NA
ATOM    110  OD1 ASN A   1      12.073   4.275   0.000  0.00  0.00    +0.000 OA
ATOM    111  C   LEU A  16      -0.787  -0.507   0.000  0.00  0.00    +0.000 C 
ATOM    112  O   LEU A  16      -0.171   0.042   0.000  0.00  0.00    +0.000 OA
ATOM    113  OXT LEU A  16      -1.268   0.163   0.000  0.00  0.00    +0.000 OA
ENDROOT
TORSDOF 0
