ROOT
REMARK  Name = polythiazide
REMARK                            x       y       z     vdW  Elec       q    Type
REMARK                         _______ _______ _______ _____ _____    ______ ____
ATOM      1  C   UNL     1      -1.429   0.000   0.000  0.00  0.00    +0.000 C 
ATOM      2  N   UNL     1      -0.715  -0.412   0.000  0.00  0.00    +0.000 NA
ATOM      3  C   UNL     1      -0.715  -1.238   0.000  0.00  0.00    +0.000 C 
ATOM      4  C   UNL     1      -1.429  -1.650   0.000  0.00  0.00    +0.000 C 
ATOM      5  S   UNL     1      -2.143  -1.238   0.000  0.00  0.00    +0.000 S 
ATOM      6  C   UNL     1      -2.858  -1.650   0.000  0.00  0.00    +0.000 C 
ATOM      7  C   UNL     1      -3.572  -1.238   0.000  0.00  0.00    +0.000 C 
ATOM      8  F   UNL     1      -4.287  -0.825   0.000  0.00  0.00    +0.000 F 
ATOM      9  F   UNL     1      -3.985  -1.952   0.000  0.00  0.00    +0.000 F 
ATOM     10  F   UNL     1      -3.160  -0.523   0.000  0.00  0.00    +0.000 F 
ATOM     11  N   UNL     1       0.000  -1.650   0.000  0.00  0.00    +0.000 NA
ATOM     12  C   UNL     1       0.715  -1.238   0.000  0.00  0.00    +0.000 A 
ATOM     13  C   UNL     1       0.715  -0.412   0.000  0.00  0.00    +0.000 A 
ATOM     14  C   UNL     1       1.429   0.000   0.000  0.00  0.00    +0.000 A 
ATOM     15  C   UNL     1       2.143  -0.412   0.000  0.00  0.00    +0.000 A 
ATOM     16  C   UNL     1       2.143  -1.238   0.000  0.00  0.00    +0.000 A 
ATOM     17 CL   UNL     1       2.858  -1.650   0.000  0.00  0.00    +0.000 Cl
ATOM     18  C   UNL     1       1.429  -1.650   0.000  0.00  0.00    +0.000 A 
ATOM     19  S   UNL     1       2.858   0.000   0.000  0.00  0.00    +0.000 S 
ATOM     20  N   UNL     1       3.572   0.412   0.000  0.00  0.00    +0.000 NA
ATOM     21  O   UNL     1       3.270  -0.715   0.000  0.00  0.00    +0.000 OA
ATOM     22  O   UNL     1       2.445   0.715   0.000  0.00  0.00    +0.000 OA
ATOM     23  S   UNL     1       0.000   0.000   0.000  0.00  0.00    +0.000 S 
ATOM     24  O   UNL     1       0.387   0.728   0.000  0.00  0.00    +0.000 OA
ATOM     25  O   UNL     1      -0.387   0.728   0.000  0.00  0.00    +0.000 OA
ENDROOT
TORSDOF 0
