ROOT
REMARK  Name = pralsetinib
REMARK                            x       y       z     vdW  Elec       q    Type
REMARK                         _______ _______ _______ _____ _____    ______ ____
ATOM      1  C   UNL     1       3.927  -6.911   0.000  0.00  0.00    +0.000 C 
ATOM      2  C   UNL     1       3.927  -7.736   0.000  0.00  0.00    +0.000 A 
ATOM      3  C   UNL     1       4.594  -8.221   0.000  0.00  0.00    +0.000 A 
ATOM      4  C   UNL     1       4.339  -9.005   0.000  0.00  0.00    +0.000 A 
ATOM      5  N   UNL     1       3.514  -9.005   0.000  0.00  0.00    +0.000 NA
ATOM      6  N   UNL     1       3.259  -8.221   0.000  0.00  0.00    +0.000 NA
ATOM      7  N   UNL     1       4.824  -9.673   0.000  0.00  0.00    +0.000 NA
ATOM      8  C   UNL     1       4.489 -10.427   0.000  0.00  0.00    +0.000 A 
ATOM      9  N   UNL     1       4.973 -11.094   0.000  0.00  0.00    +0.000 NA
ATOM     10  C   UNL     1       4.638 -11.848   0.000  0.00  0.00    +0.000 A 
ATOM     11  N   UNL     1       3.817 -11.934   0.000  0.00  0.00    +0.000 NA
ATOM     12  C   UNL     1       3.332 -11.267   0.000  0.00  0.00    +0.000 A 
ATOM     13  C   UNL     1       3.668 -10.513   0.000  0.00  0.00    +0.000 A 
ATOM     14  C   UNL     1       2.512 -11.353   0.000  0.00  0.00    +0.000 C 
ATOM     15  C   UNL     1       5.123 -12.515   0.000  0.00  0.00    +0.000 C 
ATOM     16  C   UNL     1       5.943 -12.429   0.000  0.00  0.00    +0.000 C 
ATOM     17  C   UNL     1       6.428 -13.096   0.000  0.00  0.00    +0.000 C 
ATOM     18  C   UNL     1       6.093 -13.850   0.000  0.00  0.00    +0.000 C 
ATOM     19  C   UNL     1       5.272 -13.936   0.000  0.00  0.00    +0.000 C 
ATOM     20  C   UNL     1       4.787 -13.269   0.000  0.00  0.00    +0.000 C 
ATOM     21  C   UNL     1       6.834 -14.212   0.000  0.00  0.00    +0.000 C 
ATOM     22  O   UNL     1       7.518 -13.750   0.000  0.00  0.00    +0.000 OA
ATOM     23  N   UNL     1       6.892 -15.035   0.000  0.00  0.00    +0.000 NA
ATOM     24  C   UNL     1       7.633 -15.396   0.000  0.00  0.00    +0.000 C 
ATOM     25  C   UNL     1       8.317 -14.935   0.000  0.00  0.00    +0.000 C 
ATOM     26  C   UNL     1       7.691 -16.219   0.000  0.00  0.00    +0.000 A 
ATOM     27  C   UNL     1       8.432 -16.581   0.000  0.00  0.00    +0.000 A 
ATOM     28  N   UNL     1       8.490 -17.404   0.000  0.00  0.00    +0.000 NA
ATOM     29  C   UNL     1       7.806 -17.865   0.000  0.00  0.00    +0.000 A 
ATOM     30  C   UNL     1       7.064 -17.504   0.000  0.00  0.00    +0.000 A 
ATOM     31  C   UNL     1       7.007 -16.681   0.000  0.00  0.00    +0.000 A 
ATOM     32  N   UNL     1       7.863 -18.688   0.000  0.00  0.00    +0.000 N 
ATOM     33  C   UNL     1       8.563 -19.125   0.000  0.00  0.00    +0.000 A 
ATOM     34  C   UNL     1       8.363 -19.926   0.000  0.00  0.00    +0.000 A 
ATOM     35  C   UNL     1       7.540 -19.983   0.000  0.00  0.00    +0.000 A 
ATOM     36  N   UNL     1       7.231 -19.219   0.000  0.00  0.00    +0.000 NA
ATOM     37  F   UNL     1       8.894 -20.558   0.000  0.00  0.00    +0.000 F 
ATOM     38  O   UNL     1       6.207 -14.667   0.000  0.00  0.00    +0.000 OA
ATOM     39  C   UNL     1       5.557 -15.175   0.000  0.00  0.00    +0.000 C 
ENDROOT
TORSDOF 0
