ROOT
REMARK  Name = prozapine
REMARK                            x       y       z     vdW  Elec       q    Type
REMARK                         _______ _______ _______ _____ _____    ______ ____
ATOM      1  C   UNL     1      -2.802  -0.790   0.000  0.00  0.00    +0.000 C 
ATOM      2  C   UNL     1      -2.802   0.035   0.000  0.00  0.00    +0.000 C 
ATOM      3  N   UNL     1      -3.516   0.448   0.000  0.00  0.00    +0.000 NA
ATOM      4  C   UNL     1      -4.198  -0.017   0.000  0.00  0.00    +0.000 C 
ATOM      5  C   UNL     1      -4.986   0.226   0.000  0.00  0.00    +0.000 C 
ATOM      6  C   UNL     1      -5.287   0.994   0.000  0.00  0.00    +0.000 C 
ATOM      7  C   UNL     1      -4.875   1.708   0.000  0.00  0.00    +0.000 C 
ATOM      8  C   UNL     1      -4.059   1.831   0.000  0.00  0.00    +0.000 C 
ATOM      9  C   UNL     1      -3.454   1.270   0.000  0.00  0.00    +0.000 C 
ATOM     10  C   UNL     1      -2.087  -1.202   0.000  0.00  0.00    +0.000 C 
ATOM     11  C   UNL     1      -2.087  -2.027   0.000  0.00  0.00    +0.000 A 
ATOM     12  C   UNL     1      -1.373  -2.440   0.000  0.00  0.00    +0.000 A 
ATOM     13  C   UNL     1      -1.373  -3.265   0.000  0.00  0.00    +0.000 A 
ATOM     14  C   UNL     1      -2.087  -3.678   0.000  0.00  0.00    +0.000 A 
ATOM     15  C   UNL     1      -2.802  -3.265   0.000  0.00  0.00    +0.000 A 
ATOM     16  C   UNL     1      -2.802  -2.440   0.000  0.00  0.00    +0.000 A 
ATOM     17  C   UNL     1      -1.373  -0.790   0.000  0.00  0.00    +0.000 A 
ATOM     18  C   UNL     1      -1.373   0.035   0.000  0.00  0.00    +0.000 A 
ATOM     19  C   UNL     1      -0.658   0.448   0.000  0.00  0.00    +0.000 A 
ATOM     20  C   UNL     1       0.056   0.035   0.000  0.00  0.00    +0.000 A 
ATOM     21  C   UNL     1       0.056  -0.790   0.000  0.00  0.00    +0.000 A 
ATOM     22  C   UNL     1      -0.658  -1.202   0.000  0.00  0.00    +0.000 A 
ENDROOT
TORSDOF 0
