ROOT
REMARK  Name = prulifloxacin
REMARK                            x       y       z     vdW  Elec       q    Type
REMARK                         _______ _______ _______ _____ _____    ______ ____
ATOM      1  C   UNL     1       2.285  -2.207   0.000  0.00  0.00    +0.000 C 
ATOM      2  C   UNL     1       2.444  -1.397   0.000  0.00  0.00    +0.000 C 
ATOM      3  S   UNL     1       1.984  -0.713   0.000  0.00  0.00    +0.000 S 
ATOM      4  C   UNL     1       2.668  -0.253   0.000  0.00  0.00    +0.000 A 
ATOM      5  C   UNL     1       3.031   0.488   0.000  0.00  0.00    +0.000 A 
ATOM      6  C   UNL     1       2.571   1.173   0.000  0.00  0.00    +0.000 C 
ATOM      7  O   UNL     1       1.748   1.117   0.000  0.00  0.00    +0.000 OA
ATOM      8  O   UNL     1       2.934   1.914   0.000  0.00  0.00    +0.000 OA
ATOM      9  C   UNL     1       3.854   0.544   0.000  0.00  0.00    +0.000 A 
ATOM     10  O   UNL     1       4.217   1.285   0.000  0.00  0.00    +0.000 OA
ATOM     11  C   UNL     1       4.314  -0.140   0.000  0.00  0.00    +0.000 A 
ATOM     12  C   UNL     1       5.138  -0.084   0.000  0.00  0.00    +0.000 A 
ATOM     13  C   UNL     1       5.598  -0.769   0.000  0.00  0.00    +0.000 A 
ATOM     14  F   UNL     1       6.421  -0.713   0.000  0.00  0.00    +0.000 F 
ATOM     15  C   UNL     1       5.235  -1.510   0.000  0.00  0.00    +0.000 A 
ATOM     16  C   UNL     1       4.412  -1.566   0.000  0.00  0.00    +0.000 A 
ATOM     17  C   UNL     1       3.951  -0.881   0.000  0.00  0.00    +0.000 A 
ATOM     18  N   UNL     1       3.128  -0.937   0.000  0.00  0.00    +0.000 N 
ATOM     19  N   UNL     1       5.695  -2.195   0.000  0.00  0.00    +0.000 N 
ATOM     20  C   UNL     1       6.518  -2.138   0.000  0.00  0.00    +0.000 C 
ATOM     21  C   UNL     1       6.978  -2.823   0.000  0.00  0.00    +0.000 C 
ATOM     22  N   UNL     1       6.615  -3.564   0.000  0.00  0.00    +0.000 NA
ATOM     23  C   UNL     1       7.075  -4.249   0.000  0.00  0.00    +0.000 C 
ATOM     24  C   UNL     1       7.899  -4.193   0.000  0.00  0.00    +0.000 A 
ATOM     25  C   UNL     1       8.337  -3.494   0.000  0.00  0.00    +0.000 A 
ATOM     26  C   UNL     1       8.029  -2.728   0.000  0.00  0.00    +0.000 C 
ATOM     27  O   UNL     1       9.137  -3.695   0.000  0.00  0.00    +0.000 OA
ATOM     28  C   UNL     1       9.193  -4.518   0.000  0.00  0.00    +0.000 A 
ATOM     29  O   UNL     1       9.892  -4.956   0.000  0.00  0.00    +0.000 OA
ATOM     30  O   UNL     1       8.428  -4.825   0.000  0.00  0.00    +0.000 OA
ATOM     31  C   UNL     1       5.792  -3.620   0.000  0.00  0.00    +0.000 C 
ATOM     32  C   UNL     1       5.332  -2.935   0.000  0.00  0.00    +0.000 C 
ENDROOT
TORSDOF 0
