ROOT
REMARK  Name = pyrantel
REMARK                            x       y       z     vdW  Elec       q    Type
REMARK                         _______ _______ _______ _____ _____    ______ ____
ATOM      1  C   UNL     1       2.037   2.001   0.000  0.00  0.00    +0.000 C 
ATOM      2  N   UNL     1       2.751   2.413   0.000  0.00  0.00    +0.000 N 
ATOM      3  C   UNL     1       2.751   3.238   0.000  0.00  0.00    +0.000 C 
ATOM      4  C   UNL     1       3.466   3.651   0.000  0.00  0.00    +0.000 C 
ATOM      5  C   UNL     1       4.180   3.238   0.000  0.00  0.00    +0.000 C 
ATOM      6  N   UNL     1       4.180   2.413   0.000  0.00  0.00    +0.000 NA
ATOM      7  C   UNL     1       3.466   2.001   0.000  0.00  0.00    +0.000 C 
ATOM      8  C   UNL     1       3.466   1.176   0.000  0.00  0.00    +0.000 C 
ATOM      9  C   UNL     1       4.180   0.763   0.000  0.00  0.00    +0.000 C 
ATOM     10  C   UNL     1       4.180  -0.062   0.000  0.00  0.00    +0.000 A 
ATOM     11  C   UNL     1       4.848  -0.546   0.000  0.00  0.00    +0.000 A 
ATOM     12  C   UNL     1       4.593  -1.331   0.000  0.00  0.00    +0.000 A 
ATOM     13  C   UNL     1       3.768  -1.331   0.000  0.00  0.00    +0.000 A 
ATOM     14  S   UNL     1       3.513  -0.546   0.000  0.00  0.00    +0.000 S 
ENDROOT
TORSDOF 0
