ROOT
REMARK  Name = pyrrobutamine
REMARK                            x       y       z     vdW  Elec       q    Type
REMARK                         _______ _______ _______ _____ _____    ______ ____
ATOM      1 CL   UNL     1       2.037   4.476   0.000  0.00  0.00    +0.000 Cl
ATOM      2  C   UNL     1       2.037   3.651   0.000  0.00  0.00    +0.000 A 
ATOM      3  C   UNL     1       2.751   3.238   0.000  0.00  0.00    +0.000 A 
ATOM      4  C   UNL     1       2.751   2.413   0.000  0.00  0.00    +0.000 A 
ATOM      5  C   UNL     1       2.037   2.001   0.000  0.00  0.00    +0.000 A 
ATOM      6  C   UNL     1       2.037   1.176   0.000  0.00  0.00    +0.000 C 
ATOM      7  C   UNL     1       2.751   0.763   0.000  0.00  0.00    +0.000 C 
ATOM      8  C   UNL     1       2.751  -0.062   0.000  0.00  0.00    +0.000 C 
ATOM      9  C   UNL     1       3.466  -0.474   0.000  0.00  0.00    +0.000 C 
ATOM     10  N   UNL     1       3.466  -1.299   0.000  0.00  0.00    +0.000 NA
ATOM     11  C   UNL     1       4.133  -1.784   0.000  0.00  0.00    +0.000 C 
ATOM     12  C   UNL     1       3.878  -2.569   0.000  0.00  0.00    +0.000 C 
ATOM     13  C   UNL     1       3.053  -2.569   0.000  0.00  0.00    +0.000 C 
ATOM     14  C   UNL     1       2.798  -1.784   0.000  0.00  0.00    +0.000 C 
ATOM     15  C   UNL     1       3.466   1.176   0.000  0.00  0.00    +0.000 A 
ATOM     16  C   UNL     1       3.466   2.001   0.000  0.00  0.00    +0.000 A 
ATOM     17  C   UNL     1       4.180   2.413   0.000  0.00  0.00    +0.000 A 
ATOM     18  C   UNL     1       4.895   2.001   0.000  0.00  0.00    +0.000 A 
ATOM     19  C   UNL     1       4.895   1.176   0.000  0.00  0.00    +0.000 A 
ATOM     20  C   UNL     1       4.180   0.763   0.000  0.00  0.00    +0.000 A 
ATOM     21  C   UNL     1       1.322   2.413   0.000  0.00  0.00    +0.000 A 
ATOM     22  C   UNL     1       1.322   3.238   0.000  0.00  0.00    +0.000 A 
ENDROOT
TORSDOF 0
