ROOT
REMARK  Name = raloxifene
REMARK                            x       y       z     vdW  Elec       q    Type
REMARK                         _______ _______ _______ _____ _____    ______ ____
ATOM      1  O   UNL     1      -3.928  -0.698   0.000  0.00  0.00    +0.000 OA
ATOM      2  C   UNL     1      -3.103  -0.698   0.000  0.00  0.00    +0.000 A 
ATOM      3  C   UNL     1      -2.691   0.017   0.000  0.00  0.00    +0.000 A 
ATOM      4  C   UNL     1      -1.866   0.017   0.000  0.00  0.00    +0.000 A 
ATOM      5  C   UNL     1      -1.453  -0.698   0.000  0.00  0.00    +0.000 A 
ATOM      6  C   UNL     1      -1.866  -1.412   0.000  0.00  0.00    +0.000 A 
ATOM      7  C   UNL     1      -2.691  -1.412   0.000  0.00  0.00    +0.000 A 
ATOM      8  C   UNL     1      -0.628  -0.698   0.000  0.00  0.00    +0.000 A 
ATOM      9  C   UNL     1      -0.143  -1.365   0.000  0.00  0.00    +0.000 A 
ATOM     10  C   UNL     1      -0.398  -2.150   0.000  0.00  0.00    +0.000 C 
ATOM     11  O   UNL     1      -1.205  -2.321   0.000  0.00  0.00    +0.000 OA
ATOM     12  C   UNL     1       0.154  -2.763   0.000  0.00  0.00    +0.000 A 
ATOM     13  C   UNL     1       0.961  -2.592   0.000  0.00  0.00    +0.000 A 
ATOM     14  C   UNL     1       1.513  -3.205   0.000  0.00  0.00    +0.000 A 
ATOM     15  C   UNL     1       1.258  -3.989   0.000  0.00  0.00    +0.000 A 
ATOM     16  O   UNL     1       1.810  -4.602   0.000  0.00  0.00    +0.000 OA
ATOM     17  C   UNL     1       1.555  -5.387   0.000  0.00  0.00    +0.000 C 
ATOM     18  C   UNL     1       2.107  -6.000   0.000  0.00  0.00    +0.000 C 
ATOM     19  N   UNL     1       1.852  -6.785   0.000  0.00  0.00    +0.000 NA
ATOM     20  C   UNL     1       2.404  -7.398   0.000  0.00  0.00    +0.000 C 
ATOM     21  C   UNL     1       2.149  -8.182   0.000  0.00  0.00    +0.000 C 
ATOM     22  C   UNL     1       1.342  -8.354   0.000  0.00  0.00    +0.000 C 
ATOM     23  C   UNL     1       0.790  -7.741   0.000  0.00  0.00    +0.000 C 
ATOM     24  C   UNL     1       1.045  -6.956   0.000  0.00  0.00    +0.000 C 
ATOM     25  C   UNL     1       0.451  -4.161   0.000  0.00  0.00    +0.000 A 
ATOM     26  C   UNL     1      -0.101  -3.548   0.000  0.00  0.00    +0.000 A 
ATOM     27  C   UNL     1       0.641  -1.110   0.000  0.00  0.00    +0.000 A 
ATOM     28  C   UNL     1       0.641  -0.285   0.000  0.00  0.00    +0.000 A 
ATOM     29  S   UNL     1      -0.143  -0.030   0.000  0.00  0.00    +0.000 S 
ATOM     30  C   UNL     1       1.356   0.127   0.000  0.00  0.00    +0.000 A 
ATOM     31  C   UNL     1       2.070  -0.285   0.000  0.00  0.00    +0.000 A 
ATOM     32  O   UNL     1       2.784   0.127   0.000  0.00  0.00    +0.000 OA
ATOM     33  C   UNL     1       2.070  -1.110   0.000  0.00  0.00    +0.000 A 
ATOM     34  C   UNL     1       1.356  -1.523   0.000  0.00  0.00    +0.000 A 
ENDROOT
TORSDOF 0
