ROOT
REMARK  Name = ramosetron
REMARK                            x       y       z     vdW  Elec       q    Type
REMARK                         _______ _______ _______ _____ _____    ______ ____
ATOM      1  C   UNL     1      -1.080  -3.453   0.000  0.00  0.00    +0.000 C 
ATOM      2  N   UNL     1      -0.825  -2.668   0.000  0.00  0.00    +0.000 N 
ATOM      3  C   UNL     1      -1.310  -2.001   0.000  0.00  0.00    +0.000 A 
ATOM      4  C   UNL     1      -0.825  -1.333   0.000  0.00  0.00    +0.000 A 
ATOM      5  C   UNL     1      -1.080  -0.549   0.000  0.00  0.00    +0.000 C 
ATOM      6  O   UNL     1      -0.527   0.064   0.000  0.00  0.00    +0.000 OA
ATOM      7  C   UNL     1      -1.887  -0.377   0.000  0.00  0.00    +0.000 C 
ATOM      8  C   UNL     1      -2.439  -0.990   0.000  0.00  0.00    +0.000 C 
ATOM      9  C   UNL     1      -3.245  -0.819   0.000  0.00  0.00    +0.000 C 
ATOM     10  C   UNL     1      -3.501  -0.034   0.000  0.00  0.00    +0.000 A 
ATOM     11  C   UNL     1      -2.949   0.579   0.000  0.00  0.00    +0.000 A 
ATOM     12  C   UNL     1      -2.142   0.407   0.000  0.00  0.00    +0.000 C 
ATOM     13  N   UNL     1      -3.361   1.293   0.000  0.00  0.00    +0.000 NA
ATOM     14  C   UNL     1      -4.168   1.122   0.000  0.00  0.00    +0.000 A 
ATOM     15  N   UNL     1      -4.254   0.301   0.000  0.00  0.00    +0.000 NA
ATOM     16  C   UNL     1      -0.040  -1.588   0.000  0.00  0.00    +0.000 A 
ATOM     17  C   UNL     1       0.674  -1.176   0.000  0.00  0.00    +0.000 A 
ATOM     18  C   UNL     1       1.389  -1.588   0.000  0.00  0.00    +0.000 A 
ATOM     19  C   UNL     1       1.389  -2.413   0.000  0.00  0.00    +0.000 A 
ATOM     20  C   UNL     1       0.674  -2.826   0.000  0.00  0.00    +0.000 A 
ATOM     21  C   UNL     1      -0.040  -2.413   0.000  0.00  0.00    +0.000 A 
ENDROOT
TORSDOF 0
