ROOT
REMARK  Name = ranolazine
REMARK                            x       y       z     vdW  Elec       q    Type
REMARK                         _______ _______ _______ _____ _____    ______ ____
ATOM      1  C   UNL     1      -5.001  -2.062   0.000  0.00  0.00    +0.000 C 
ATOM      2  O   UNL     1      -5.001  -2.888   0.000  0.00  0.00    +0.000 OA
ATOM      3  C   UNL     1      -5.716  -3.300   0.000  0.00  0.00    +0.000 A 
ATOM      4  C   UNL     1      -5.716  -4.125   0.000  0.00  0.00    +0.000 A 
ATOM      5  O   UNL     1      -5.001  -4.537   0.000  0.00  0.00    +0.000 OA
ATOM      6  C   UNL     1      -4.287  -4.125   0.000  0.00  0.00    +0.000 C 
ATOM      7  C   UNL     1      -3.572  -4.537   0.000  0.00  0.00    +0.000 C 
ATOM      8  O   UNL     1      -3.572  -5.362   0.000  0.00  0.00    +0.000 OA
ATOM      9  C   UNL     1      -2.858  -4.125   0.000  0.00  0.00    +0.000 C 
ATOM     10  N   UNL     1      -2.143  -4.537   0.000  0.00  0.00    +0.000 NA
ATOM     11  C   UNL     1      -1.429  -4.125   0.000  0.00  0.00    +0.000 C 
ATOM     12  C   UNL     1      -0.715  -4.537   0.000  0.00  0.00    +0.000 C 
ATOM     13  N   UNL     1      -0.715  -5.362   0.000  0.00  0.00    +0.000 NA
ATOM     14  C   UNL     1       0.000  -5.775   0.000  0.00  0.00    +0.000 C 
ATOM     15  C   UNL     1       0.000  -6.600   0.000  0.00  0.00    +0.000 C 
ATOM     16  O   UNL     1      -0.715  -7.013   0.000  0.00  0.00    +0.000 OA
ATOM     17  N   UNL     1       0.715  -7.013   0.000  0.00  0.00    +0.000 NA
ATOM     18  C   UNL     1       1.429  -6.600   0.000  0.00  0.00    +0.000 A 
ATOM     19  C   UNL     1       1.429  -5.775   0.000  0.00  0.00    +0.000 A 
ATOM     20  C   UNL     1       0.715  -5.362   0.000  0.00  0.00    +0.000 C 
ATOM     21  C   UNL     1       2.143  -5.362   0.000  0.00  0.00    +0.000 A 
ATOM     22  C   UNL     1       2.858  -5.775   0.000  0.00  0.00    +0.000 A 
ATOM     23  C   UNL     1       2.858  -6.600   0.000  0.00  0.00    +0.000 A 
ATOM     24  C   UNL     1       2.143  -7.013   0.000  0.00  0.00    +0.000 A 
ATOM     25  C   UNL     1       2.143  -7.838   0.000  0.00  0.00    +0.000 C 
ATOM     26  C   UNL     1      -1.429  -5.775   0.000  0.00  0.00    +0.000 C 
ATOM     27  C   UNL     1      -2.143  -5.362   0.000  0.00  0.00    +0.000 C 
ATOM     28  C   UNL     1      -6.430  -4.537   0.000  0.00  0.00    +0.000 A 
ATOM     29  C   UNL     1      -7.145  -4.125   0.000  0.00  0.00    +0.000 A 
ATOM     30  C   UNL     1      -7.145  -3.300   0.000  0.00  0.00    +0.000 A 
ATOM     31  C   UNL     1      -6.430  -2.888   0.000  0.00  0.00    +0.000 A 
ENDROOT
TORSDOF 0
