ROOT
REMARK  Name = rebamipide
REMARK                            x       y       z     vdW  Elec       q    Type
REMARK                         _______ _______ _______ _____ _____    ______ ____
ATOM      1  O   UNL     1       2.858   0.825   0.000  0.00  0.00    +0.000 OA
ATOM      2  C   UNL     1       3.572   0.412   0.000  0.00  0.00    +0.000 C 
ATOM      3  OXT UNL     1       4.287   0.825   0.000  0.00  0.00    +0.000 OA
ATOM      4  CA  UNL     1       3.572  -0.412   0.000  0.00  0.00    +0.000 C 
ATOM      5  C   UNL     1       2.858  -0.825   0.000  0.00  0.00    +0.000 C 
ATOM      6  C   UNL     1       2.858  -1.650   0.000  0.00  0.00    +0.000 A 
ATOM      7  C   UNL     1       3.572  -2.062   0.000  0.00  0.00    +0.000 A 
ATOM      8  C   UNL     1       3.572  -2.888   0.000  0.00  0.00    +0.000 A 
ATOM      9  O   UNL     1       4.287  -3.300   0.000  0.00  0.00    +0.000 OA
ATOM     10  N   UNL     1       2.858  -3.300   0.000  0.00  0.00    +0.000 NA
ATOM     11  C   UNL     1       2.143  -2.888   0.000  0.00  0.00    +0.000 A 
ATOM     12  C   UNL     1       1.429  -3.300   0.000  0.00  0.00    +0.000 A 
ATOM     13  C   UNL     1       0.715  -2.888   0.000  0.00  0.00    +0.000 A 
ATOM     14  C   UNL     1       0.715  -2.062   0.000  0.00  0.00    +0.000 A 
ATOM     15  C   UNL     1       1.429  -1.650   0.000  0.00  0.00    +0.000 A 
ATOM     16  C   UNL     1       2.143  -2.062   0.000  0.00  0.00    +0.000 A 
ATOM     17  N   UNL     1       4.287  -0.825   0.000  0.00  0.00    +0.000 NA
ATOM     18  C   UNL     1       5.001  -0.412   0.000  0.00  0.00    +0.000 C 
ATOM     19  O   UNL     1       5.001   0.412   0.000  0.00  0.00    +0.000 OA
ATOM     20  C   UNL     1       5.716  -0.825   0.000  0.00  0.00    +0.000 A 
ATOM     21  C   UNL     1       6.430  -0.412   0.000  0.00  0.00    +0.000 A 
ATOM     22  C   UNL     1       7.145  -0.825   0.000  0.00  0.00    +0.000 A 
ATOM     23  C   UNL     1       7.145  -1.650   0.000  0.00  0.00    +0.000 A 
ATOM     24 CL   UNL     1       7.859  -2.062   0.000  0.00  0.00    +0.000 Cl
ATOM     25  C   UNL     1       6.430  -2.062   0.000  0.00  0.00    +0.000 A 
ATOM     26  C   UNL     1       5.716  -1.650   0.000  0.00  0.00    +0.000 A 
ENDROOT
TORSDOF 0
