ROOT
REMARK  Name = relugolix
REMARK                            x       y       z     vdW  Elec       q    Type
REMARK                         _______ _______ _______ _____ _____    ______ ____
ATOM      1  C   UNL     1       0.961   1.196   0.000  0.00  0.00    +0.000 C 
ATOM      2  N   UNL     1       0.154   1.367   0.000  0.00  0.00    +0.000 NA
ATOM      3  C   UNL     1      -0.101   2.152   0.000  0.00  0.00    +0.000 C 
ATOM      4  C   UNL     1      -0.398   0.754   0.000  0.00  0.00    +0.000 C 
ATOM      5  C   UNL     1      -0.143  -0.030   0.000  0.00  0.00    +0.000 A 
ATOM      6  C   UNL     1      -0.628  -0.698   0.000  0.00  0.00    +0.000 A 
ATOM      7  S   UNL     1      -0.143  -1.365   0.000  0.00  0.00    +0.000 S 
ATOM      8  C   UNL     1       0.641  -1.110   0.000  0.00  0.00    +0.000 A 
ATOM      9  C   UNL     1       0.641  -0.285   0.000  0.00  0.00    +0.000 A 
ATOM     10  C   UNL     1       1.356   0.127   0.000  0.00  0.00    +0.000 A 
ATOM     11  O   UNL     1       1.356   0.952   0.000  0.00  0.00    +0.000 OA
ATOM     12  N   UNL     1       2.070  -0.285   0.000  0.00  0.00    +0.000 N 
ATOM     13  C   UNL     1       2.070  -1.110   0.000  0.00  0.00    +0.000 A 
ATOM     14  O   UNL     1       2.784  -1.523   0.000  0.00  0.00    +0.000 OA
ATOM     15  N   UNL     1       1.356  -1.523   0.000  0.00  0.00    +0.000 N 
ATOM     16  C   UNL     1       1.356  -2.348   0.000  0.00  0.00    +0.000 C 
ATOM     17  C   UNL     1       2.070  -2.760   0.000  0.00  0.00    +0.000 A 
ATOM     18  C   UNL     1       2.784  -2.348   0.000  0.00  0.00    +0.000 A 
ATOM     19  C   UNL     1       3.499  -2.760   0.000  0.00  0.00    +0.000 A 
ATOM     20  C   UNL     1       3.499  -3.585   0.000  0.00  0.00    +0.000 A 
ATOM     21  C   UNL     1       2.784  -3.998   0.000  0.00  0.00    +0.000 A 
ATOM     22  C   UNL     1       2.070  -3.585   0.000  0.00  0.00    +0.000 A 
ATOM     23  F   UNL     1       1.356  -3.998   0.000  0.00  0.00    +0.000 F 
ATOM     24  F   UNL     1       3.269  -1.681   0.000  0.00  0.00    +0.000 F 
ATOM     25  C   UNL     1       2.784   0.127   0.000  0.00  0.00    +0.000 A 
ATOM     26  N   UNL     1       3.499  -0.285   0.000  0.00  0.00    +0.000 NA
ATOM     27  N   UNL     1       4.213   0.127   0.000  0.00  0.00    +0.000 NA
ATOM     28  C   UNL     1       4.213   0.952   0.000  0.00  0.00    +0.000 A 
ATOM     29  C   UNL     1       3.499   1.365   0.000  0.00  0.00    +0.000 A 
ATOM     30  C   UNL     1       2.784   0.952   0.000  0.00  0.00    +0.000 A 
ATOM     31  O   UNL     1       4.928   1.365   0.000  0.00  0.00    +0.000 OA
ATOM     32  C   UNL     1       4.928   2.190   0.000  0.00  0.00    +0.000 C 
ATOM     33  C   UNL     1      -1.453  -0.698   0.000  0.00  0.00    +0.000 A 
ATOM     34  C   UNL     1      -1.866  -1.412   0.000  0.00  0.00    +0.000 A 
ATOM     35  C   UNL     1      -2.691  -1.412   0.000  0.00  0.00    +0.000 A 
ATOM     36  C   UNL     1      -3.103  -0.698   0.000  0.00  0.00    +0.000 A 
ATOM     37  C   UNL     1      -2.691   0.017   0.000  0.00  0.00    +0.000 A 
ATOM     38  C   UNL     1      -1.866   0.017   0.000  0.00  0.00    +0.000 A 
ATOM     39  N   UNL     1      -3.928  -0.698   0.000  0.00  0.00    +0.000 NA
ATOM     40  C   UNL     1      -4.341   0.017   0.000  0.00  0.00    +0.000 C 
ATOM     41  O   UNL     1      -3.928   0.731   0.000  0.00  0.00    +0.000 OA
ATOM     42  N   UNL     1      -5.166   0.017   0.000  0.00  0.00    +0.000 NA
ATOM     43  O   UNL     1      -5.578   0.731   0.000  0.00  0.00    +0.000 OA
ATOM     44  C   UNL     1      -6.403   0.731   0.000  0.00  0.00    +0.000 C 
ENDROOT
TORSDOF 0
