ROOT
REMARK  Name = rifabutin
REMARK                            x       y       z     vdW  Elec       q    Type
REMARK                         _______ _______ _______ _____ _____    ______ ____
ATOM      1  C   UNL     1       2.019   4.441   0.000  0.00  0.00    +0.000 C 
ATOM      2  O   UNL     1       1.560   3.756   0.000  0.00  0.00    +0.000 OA
ATOM      3  C   UNL     1       1.923   3.015   0.000  0.00  0.00    +0.000 C 
ATOM      4  C   UNL     1       2.707   3.285   0.000  0.00  0.00    +0.000 C 
ATOM      5  C   UNL     1       3.542   3.361   0.000  0.00  0.00    +0.000 C 
ATOM      6  O   UNL     1       4.397   3.326   0.000  0.00  0.00    +0.000 OA
ATOM      7  C   UNL     1       5.050   2.763   0.000  0.00  0.00    +0.000 C 
ATOM      8  C   UNL     1       5.868   2.656   0.000  0.00  0.00    +0.000 C 
ATOM      9  O   UNL     1       4.309   2.402   0.000  0.00  0.00    +0.000 OA
ATOM     10  C   UNL     1       4.349   1.584   0.000  0.00  0.00    +0.000 A 
ATOM     11  C   UNL     1       5.167   1.396   0.000  0.00  0.00    +0.000 A 
ATOM     12  C   UNL     1       5.604   2.122   0.000  0.00  0.00    +0.000 C 
ATOM     13  O   UNL     1       6.426   2.193   0.000  0.00  0.00    +0.000 OA
ATOM     14  C   UNL     1       5.369   0.549   0.000  0.00  0.00    +0.000 A 
ATOM     15  C   UNL     1       4.734  -0.013   0.000  0.00  0.00    +0.000 A 
ATOM     16  C   UNL     1       3.933   0.228   0.000  0.00  0.00    +0.000 A 
ATOM     17  O   UNL     1       3.340  -0.346   0.000  0.00  0.00    +0.000 OA
ATOM     18  C   UNL     1       3.722   1.025   0.000  0.00  0.00    +0.000 A 
ATOM     19  C   UNL     1       2.932   1.263   0.000  0.00  0.00    +0.000 C 
ATOM     20  C   UNL     1       4.910  -0.825   0.000  0.00  0.00    +0.000 C 
ATOM     21  O   UNL     1       4.280  -1.357   0.000  0.00  0.00    +0.000 OA
ATOM     22  C   UNL     1       5.673  -1.132   0.000  0.00  0.00    +0.000 C 
ATOM     23  N   UNL     1       5.318  -1.920   0.000  0.00  0.00    +0.000 NA
ATOM     24  C   UNL     1       4.754  -2.555   0.000  0.00  0.00    +0.000 C 
ATOM     25  O   UNL     1       5.246  -3.217   0.000  0.00  0.00    +0.000 OA
ATOM     26  C   UNL     1       3.961  -2.922   0.000  0.00  0.00    +0.000 C 
ATOM     27  C   UNL     1       4.178  -3.718   0.000  0.00  0.00    +0.000 C 
ATOM     28  C   UNL     1       3.096  -3.010   0.000  0.00  0.00    +0.000 C 
ATOM     29  C   UNL     1       2.227  -2.842   0.000  0.00  0.00    +0.000 C 
ATOM     30  C   UNL     1       1.488  -2.465   0.000  0.00  0.00    +0.000 C 
ATOM     31  C   UNL     1       0.872  -1.908   0.000  0.00  0.00    +0.000 C 
ATOM     32  C   UNL     1       0.243  -2.442   0.000  0.00  0.00    +0.000 C 
ATOM     33  C   UNL     1       0.423  -1.212   0.000  0.00  0.00    +0.000 C 
ATOM     34  O   UNL     1      -0.323  -1.565   0.000  0.00  0.00    +0.000 OA
ATOM     35  C   UNL     1       0.169  -0.423   0.000  0.00  0.00    +0.000 C 
ATOM     36  C   UNL     1      -0.643  -0.572   0.000  0.00  0.00    +0.000 C 
ATOM     37  C   UNL     1       0.128   0.404   0.000  0.00  0.00    +0.000 C 
ATOM     38  O   UNL     1      -0.694   0.471   0.000  0.00  0.00    +0.000 OA
ATOM     39  C   UNL     1       0.302   1.214   0.000  0.00  0.00    +0.000 C 
ATOM     40  C   UNL     1      -0.475   1.491   0.000  0.00  0.00    +0.000 C 
ATOM     41  C   UNL     1       0.680   1.950   0.000  0.00  0.00    +0.000 C 
ATOM     42  O   UNL     1       0.001   2.419   0.000  0.00  0.00    +0.000 OA
ATOM     43  C   UNL     1      -0.745   2.065   0.000  0.00  0.00    +0.000 C 
ATOM     44  C   UNL     1      -1.423   2.534   0.000  0.00  0.00    +0.000 C 
ATOM     45  O   UNL     1      -0.811   1.243   0.000  0.00  0.00    +0.000 OA
ATOM     46  C   UNL     1       1.233   2.563   0.000  0.00  0.00    +0.000 C 
ATOM     47  C   UNL     1       0.697   3.190   0.000  0.00  0.00    +0.000 C 
ATOM     48  C   UNL     1       6.286  -0.558   0.000  0.00  0.00    +0.000 C 
ATOM     49  N   UNL     1       7.102  -0.679   0.000  0.00  0.00    +0.000 NA
ATOM     50  C   UNL     1       7.470   0.060   0.000  0.00  0.00    +0.000 C 
ATOM     51  C   UNL     1       7.758   0.833   0.000  0.00  0.00    +0.000 C 
ATOM     52  C   UNL     1       8.571   0.970   0.000  0.00  0.00    +0.000 C 
ATOM     53  N   UNL     1       9.097   0.334   0.000  0.00  0.00    +0.000 NA
ATOM     54  C   UNL     1       9.910   0.471   0.000  0.00  0.00    +0.000 C 
ATOM     55  C   UNL     1      10.435  -0.165   0.000  0.00  0.00    +0.000 C 
ATOM     56  C   UNL     1      11.249  -0.028   0.000  0.00  0.00    +0.000 C 
ATOM     57  C   UNL     1      10.147  -0.938   0.000  0.00  0.00    +0.000 C 
ATOM     58  C   UNL     1       8.808  -0.439   0.000  0.00  0.00    +0.000 C 
ATOM     59  C   UNL     1       7.995  -0.576   0.000  0.00  0.00    +0.000 C 
ATOM     60  N   UNL     1       6.880   0.637   0.000  0.00  0.00    +0.000 NA
ATOM     61  C   UNL     1       6.149   0.256   0.000  0.00  0.00    +0.000 C 
ENDROOT
TORSDOF 0
