ROOT
REMARK  Name = rotigotine
REMARK                            x       y       z     vdW  Elec       q    Type
REMARK                         _______ _______ _______ _____ _____    ______ ____
ATOM      1  C   UNL     1       2.858  -3.300   0.000  0.00  0.00    +0.000 C 
ATOM      2  C   UNL     1       3.572  -2.888   0.000  0.00  0.00    +0.000 C 
ATOM      3  C   UNL     1       3.572  -2.062   0.000  0.00  0.00    +0.000 C 
ATOM      4  N   UNL     1       4.287  -1.650   0.000  0.00  0.00    +0.000 NA
ATOM      5  C   UNL     1       5.001  -2.062   0.000  0.00  0.00    +0.000 C 
ATOM      6  C   UNL     1       5.001  -2.888   0.000  0.00  0.00    +0.000 C 
ATOM      7  C   UNL     1       5.716  -3.300   0.000  0.00  0.00    +0.000 A 
ATOM      8  C   UNL     1       6.469  -2.964   0.000  0.00  0.00    +0.000 A 
ATOM      9  C   UNL     1       7.021  -3.578   0.000  0.00  0.00    +0.000 A 
ATOM     10  C   UNL     1       6.609  -4.292   0.000  0.00  0.00    +0.000 A 
ATOM     11  S   UNL     1       5.802  -4.120   0.000  0.00  0.00    +0.000 S 
ATOM     12  C   UNL     1       4.287  -0.825   0.000  0.00  0.00    +0.000 C 
ATOM     13  C   UNL     1       3.572  -0.412   0.000  0.00  0.00    +0.000 C 
ATOM     14  C   UNL     1       3.572   0.412   0.000  0.00  0.00    +0.000 C 
ATOM     15  C   UNL     1       4.287   0.825   0.000  0.00  0.00    +0.000 A 
ATOM     16  C   UNL     1       4.287   1.650   0.000  0.00  0.00    +0.000 A 
ATOM     17  O   UNL     1       3.572   2.062   0.000  0.00  0.00    +0.000 OA
ATOM     18  C   UNL     1       5.001   2.062   0.000  0.00  0.00    +0.000 A 
ATOM     19  C   UNL     1       5.716   1.650   0.000  0.00  0.00    +0.000 A 
ATOM     20  C   UNL     1       5.716   0.825   0.000  0.00  0.00    +0.000 A 
ATOM     21  C   UNL     1       5.001   0.412   0.000  0.00  0.00    +0.000 A 
ATOM     22  C   UNL     1       5.001  -0.412   0.000  0.00  0.00    +0.000 C 
ENDROOT
TORSDOF 0
