ROOT
REMARK  Name = salinomycin
REMARK                            x       y       z     vdW  Elec       q    Type
REMARK                         _______ _______ _______ _____ _____    ______ ____
ATOM      1  C   UNL     1      -5.470  -1.611   0.000  0.00  0.00    +0.000 C 
ATOM      2  C   UNL     1      -5.883  -0.896   0.000  0.00  0.00    +0.000 C 
ATOM      3  C   UNL     1      -5.470  -0.182   0.000  0.00  0.00    +0.000 C 
ATOM      4  C   UNL     1      -4.645  -0.182   0.000  0.00  0.00    +0.000 C 
ATOM      5  C   UNL     1      -4.233   0.532   0.000  0.00  0.00    +0.000 C 
ATOM      6  C   UNL     1      -4.233  -0.896   0.000  0.00  0.00    +0.000 C 
ATOM      7  O   UNL     1      -4.645  -1.611   0.000  0.00  0.00    +0.000 OA
ATOM      8  C   UNL     1      -3.408  -0.896   0.000  0.00  0.00    +0.000 C 
ATOM      9  C   UNL     1      -2.995  -1.611   0.000  0.00  0.00    +0.000 C 
ATOM     10  C   UNL     1      -2.995  -0.182   0.000  0.00  0.00    +0.000 C 
ATOM     11  O   UNL     1      -3.408   0.532   0.000  0.00  0.00    +0.000 OA
ATOM     12  C   UNL     1      -2.170  -0.182   0.000  0.00  0.00    +0.000 C 
ATOM     13  C   UNL     1      -1.758  -0.896   0.000  0.00  0.00    +0.000 C 
ATOM     14  C   UNL     1      -1.758   0.532   0.000  0.00  0.00    +0.000 C 
ATOM     15  O   UNL     1      -2.170   1.247   0.000  0.00  0.00    +0.000 OA
ATOM     16  C   UNL     1      -0.933   0.532   0.000  0.00  0.00    +0.000 C 
ATOM     17  C   UNL     1      -0.520  -0.182   0.000  0.00  0.00    +0.000 C 
ATOM     18  C   UNL     1      -0.933  -0.896   0.000  0.00  0.00    +0.000 C 
ATOM     19  C   UNL     1      -0.520   1.247   0.000  0.00  0.00    +0.000 C 
ATOM     20  O   UNL     1      -0.933   1.962   0.000  0.00  0.00    +0.000 OA
ATOM     21  C   UNL     1      -0.520   2.676   0.000  0.00  0.00    +0.000 C 
ATOM     22  O   UNL     1      -1.345   2.676   0.000  0.00  0.00    +0.000 OA
ATOM     23  C   UNL     1      -1.758   3.390   0.000  0.00  0.00    +0.000 C 
ATOM     24  C   UNL     1      -2.243   2.723   0.000  0.00  0.00    +0.000 C 
ATOM     25  C   UNL     1      -3.027   2.978   0.000  0.00  0.00    +0.000 C 
ATOM     26  C   UNL     1      -3.027   3.803   0.000  0.00  0.00    +0.000 C 
ATOM     27  C   UNL     1      -3.848   3.717   0.000  0.00  0.00    +0.000 C 
ATOM     28  O   UNL     1      -2.243   4.058   0.000  0.00  0.00    +0.000 OA
ATOM     29  C   UNL     1      -3.199   4.610   0.000  0.00  0.00    +0.000 C 
ATOM     30  C   UNL     1      -3.983   4.865   0.000  0.00  0.00    +0.000 C 
ATOM     31  C   UNL     1      -4.155   5.672   0.000  0.00  0.00    +0.000 C 
ATOM     32  C   UNL     1      -3.542   6.224   0.000  0.00  0.00    +0.000 C 
ATOM     33  O   UNL     1      -4.192   6.732   0.000  0.00  0.00    +0.000 OA
ATOM     34  C   UNL     1      -3.155   6.952   0.000  0.00  0.00    +0.000 C 
ATOM     35  C   UNL     1      -3.592   7.652   0.000  0.00  0.00    +0.000 C 
ATOM     36  C   UNL     1      -2.757   5.969   0.000  0.00  0.00    +0.000 C 
ATOM     37  C   UNL     1      -2.144   6.521   0.000  0.00  0.00    +0.000 C 
ATOM     38  O   UNL     1      -2.586   5.162   0.000  0.00  0.00    +0.000 OA
ATOM     39  C   UNL     1      -1.345   4.105   0.000  0.00  0.00    +0.000 C 
ATOM     40  O   UNL     1      -1.758   4.819   0.000  0.00  0.00    +0.000 OA
ATOM     41  C   UNL     1      -0.520   4.105   0.000  0.00  0.00    +0.000 C 
ATOM     42  C   UNL     1      -0.108   3.390   0.000  0.00  0.00    +0.000 C 
ATOM     43  C   UNL     1       0.305   2.676   0.000  0.00  0.00    +0.000 C 
ATOM     44  C   UNL     1       0.717   3.390   0.000  0.00  0.00    +0.000 C 
ATOM     45  C   UNL     1       0.717   1.962   0.000  0.00  0.00    +0.000 C 
ATOM     46  C   UNL     1       0.305   1.247   0.000  0.00  0.00    +0.000 C 
ATOM     47  C   UNL     1       0.717   0.532   0.000  0.00  0.00    +0.000 C 
ATOM     48  C   UNL     1      -5.883  -2.325   0.000  0.00  0.00    +0.000 C 
ATOM     49  C   UNL     1      -6.708  -2.325   0.000  0.00  0.00    +0.000 C 
ATOM     50  C   UNL     1      -7.120  -3.040   0.000  0.00  0.00    +0.000 C 
ATOM     51  C   UNL     1      -5.470  -3.040   0.000  0.00  0.00    +0.000 C 
ATOM     52  O   UNL     1      -5.883  -3.754   0.000  0.00  0.00    +0.000 OA
ATOM     53  O   UNL     1      -4.645  -3.040   0.000  0.00  0.00    +0.000 OA
ENDROOT
TORSDOF 0
