ROOT
REMARK  Name = secalciferol
REMARK                            x       y       z     vdW  Elec       q    Type
REMARK                         _______ _______ _______ _____ _____    ______ ____
ATOM      1  C   UNL     1       1.436  -2.763   0.000  0.00  0.00    +0.000 C 
ATOM      2  C   UNL     1       0.884  -2.150   0.000  0.00  0.00    +0.000 C 
ATOM      3  C   UNL     1       0.077  -2.321   0.000  0.00  0.00    +0.000 C 
ATOM      4  C   UNL     1      -0.475  -1.708   0.000  0.00  0.00    +0.000 C 
ATOM      5  C   UNL     1      -1.282  -1.880   0.000  0.00  0.00    +0.000 C 
ATOM      6  O   UNL     1      -1.537  -2.665   0.000  0.00  0.00    +0.000 OA
ATOM      7  C   UNL     1      -1.834  -1.267   0.000  0.00  0.00    +0.000 C 
ATOM      8  C   UNL     1      -2.386  -0.654   0.000  0.00  0.00    +0.000 C 
ATOM      9  C   UNL     1      -2.447  -1.819   0.000  0.00  0.00    +0.000 C 
ATOM     10  O   UNL     1      -1.221  -0.715   0.000  0.00  0.00    +0.000 OA
ATOM     11  C   UNL     1       1.139  -1.365   0.000  0.00  0.00    +0.000 C 
ATOM     12  C   UNL     1       0.654  -0.698   0.000  0.00  0.00    +0.000 C 
ATOM     13  C   UNL     1       1.139  -0.030   0.000  0.00  0.00    +0.000 C 
ATOM     14  C   UNL     1       1.923  -0.285   0.000  0.00  0.00    +0.000 C 
ATOM     15  C   UNL     1       2.638   0.127   0.000  0.00  0.00    +0.000 C 
ATOM     16  C   UNL     1       3.352  -0.285   0.000  0.00  0.00    +0.000 C 
ATOM     17  C   UNL     1       3.352  -1.110   0.000  0.00  0.00    +0.000 C 
ATOM     18  C   UNL     1       2.638  -1.523   0.000  0.00  0.00    +0.000 C 
ATOM     19  C   UNL     1       1.923  -1.110   0.000  0.00  0.00    +0.000 C 
ATOM     20  C   UNL     1       1.837  -1.931   0.000  0.00  0.00    +0.000 C 
ATOM     21  C   UNL     1       2.638   0.952   0.000  0.00  0.00    +0.000 C 
ATOM     22  C   UNL     1       3.352   1.365   0.000  0.00  0.00    +0.000 C 
ATOM     23  C   UNL     1       3.352   2.190   0.000  0.00  0.00    +0.000 C 
ATOM     24  C   UNL     1       4.067   2.602   0.000  0.00  0.00    +0.000 C 
ATOM     25  C   UNL     1       4.067   3.427   0.000  0.00  0.00    +0.000 C 
ATOM     26  O   UNL     1       4.781   3.840   0.000  0.00  0.00    +0.000 OA
ATOM     27  C   UNL     1       3.352   3.840   0.000  0.00  0.00    +0.000 C 
ATOM     28  C   UNL     1       2.638   3.427   0.000  0.00  0.00    +0.000 C 
ATOM     29  C   UNL     1       2.638   2.602   0.000  0.00  0.00    +0.000 C 
ATOM     30  C   UNL     1       1.923   2.190   0.000  0.00  0.00    +0.000 C 
ENDROOT
TORSDOF 0
