ROOT
REMARK  Name = secnidazole
REMARK                            x       y       z     vdW  Elec       q    Type
REMARK                         _______ _______ _______ _____ _____    ______ ____
ATOM      1  C   UNL     1       1.282   3.177   0.000  0.00  0.00    +0.000 C 
ATOM      2  C   UNL     1       1.282   2.352   0.000  0.00  0.00    +0.000 C 
ATOM      3  O   UNL     1       1.997   1.939   0.000  0.00  0.00    +0.000 OA
ATOM      4  C   UNL     1       0.568   1.939   0.000  0.00  0.00    +0.000 C 
ATOM      5  N   UNL     1       0.568   1.114   0.000  0.00  0.00    +0.000 N 
ATOM      6  C   UNL     1       1.235   0.629   0.000  0.00  0.00    +0.000 A 
ATOM      7  C   UNL     1       2.020   0.884   0.000  0.00  0.00    +0.000 C 
ATOM      8  N   UNL     1       0.980  -0.155   0.000  0.00  0.00    +0.000 NA
ATOM      9  C   UNL     1       0.155  -0.155   0.000  0.00  0.00    +0.000 A 
ATOM     10  C   UNL     1      -0.100   0.629   0.000  0.00  0.00    +0.000 A 
ATOM     11  N   UNL     1      -0.884   0.884   0.000  0.00  0.00    +0.000 N 
ATOM     12  O   UNL     1      -1.497   0.332   0.000  0.00  0.00    +0.000 OA
ATOM     13  O   UNL     1      -1.056   1.691   0.000  0.00  0.00    +0.000 OA
ENDROOT
TORSDOF 0
