ROOT
REMARK  Name = secretin porcine
REMARK                            x       y       z     vdW  Elec       q    Type
REMARK                         _______ _______ _______ _____ _____    ______ ____
ATOM      1  C   UNL     1      27.138  -4.435   0.000  0.00  0.00    +0.000 C 
ATOM      2  C   UNL     1      27.363  -3.642   0.000  0.00  0.00    +0.000 C 
ATOM      3  C   UNL     1      28.162  -3.439   0.000  0.00  0.00    +0.000 C 
ATOM      4  C   UNL     1      26.788  -3.050   0.000  0.00  0.00    +0.000 C 
ATOM      5  C   UNL     1      27.013  -2.256   0.000  0.00  0.00    +0.000 C 
ATOM      6  N   UNL     1      26.438  -1.664   0.000  0.00  0.00    +0.000 NA
ATOM      7  C   UNL     1      25.638  -1.867   0.000  0.00  0.00    +0.000 C 
ATOM      8  O   UNL     1      25.413  -2.660   0.000  0.00  0.00    +0.000 OA
ATOM      9  C   UNL     1      25.063  -1.275   0.000  0.00  0.00    +0.000 C 
ATOM     10  N   UNL     1      24.263  -1.477   0.000  0.00  0.00    +0.000 NA
ATOM     11  C   UNL     1      23.688  -0.885   0.000  0.00  0.00    +0.000 C 
ATOM     12  O   UNL     1      23.913  -0.091   0.000  0.00  0.00    +0.000 OA
ATOM     13  C   UNL     1      22.888  -1.087   0.000  0.00  0.00    +0.000 C 
ATOM     14  C   UNL     1      22.663  -1.881   0.000  0.00  0.00    +0.000 C 
ATOM     15  C   UNL     1      21.863  -2.083   0.000  0.00  0.00    +0.000 C 
ATOM     16  C   UNL     1      21.638  -2.877   0.000  0.00  0.00    +0.000 C 
ATOM     17  N   UNL     1      22.213  -3.468   0.000  0.00  0.00    +0.000 NA
ATOM     18  O   UNL     1      20.838  -3.079   0.000  0.00  0.00    +0.000 OA
ATOM     19  N   UNL     1      22.313  -0.495   0.000  0.00  0.00    +0.000 NA
ATOM     20  C   UNL     1      21.513  -0.698   0.000  0.00  0.00    +0.000 C 
ATOM     21  O   UNL     1      21.288  -1.491   0.000  0.00  0.00    +0.000 OA
ATOM     22  C   UNL     1      20.939  -0.106   0.000  0.00  0.00    +0.000 C 
ATOM     23  C   UNL     1      21.163   0.688   0.000  0.00  0.00    +0.000 C 
ATOM     24  C   UNL     1      21.963   0.890   0.000  0.00  0.00    +0.000 C 
ATOM     25  C   UNL     1      22.188   1.684   0.000  0.00  0.00    +0.000 C 
ATOM     26  C   UNL     1      22.538   0.298   0.000  0.00  0.00    +0.000 C 
ATOM     27  N   UNL     1      20.139  -0.308   0.000  0.00  0.00    +0.000 NA
ATOM     28  C   UNL     1      19.564   0.284   0.000  0.00  0.00    +0.000 C 
ATOM     29  O   UNL     1      19.789   1.078   0.000  0.00  0.00    +0.000 OA
ATOM     30  C   UNL     1      18.764   0.082   0.000  0.00  0.00    +0.000 C 
ATOM     31  C   UNL     1      18.539  -0.712   0.000  0.00  0.00    +0.000 C 
ATOM     32  C   UNL     1      19.114  -1.304   0.000  0.00  0.00    +0.000 C 
ATOM     33  C   UNL     1      19.914  -1.102   0.000  0.00  0.00    +0.000 C 
ATOM     34  C   UNL     1      18.889  -2.097   0.000  0.00  0.00    +0.000 C 
ATOM     35  N   UNL     1      18.189   0.673   0.000  0.00  0.00    +0.000 NA
ATOM     36  C   UNL     1      17.389   0.471   0.000  0.00  0.00    +0.000 C 
ATOM     37  O   UNL     1      17.164  -0.322   0.000  0.00  0.00    +0.000 OA
ATOM     38  C   UNL     1      16.814   1.063   0.000  0.00  0.00    +0.000 C 
ATOM     39  C   UNL     1      17.039   1.857   0.000  0.00  0.00    +0.000 C 
ATOM     40  C   UNL     1      17.839   2.059   0.000  0.00  0.00    +0.000 C 
ATOM     41  C   UNL     1      18.064   2.853   0.000  0.00  0.00    +0.000 C 
ATOM     42  N   UNL     1      18.864   3.055   0.000  0.00  0.00    +0.000 NA
ATOM     43  C   UNL     1      19.089   3.848   0.000  0.00  0.00    +0.000 C 
ATOM     44  N   UNL     1      18.514   4.440   0.000  0.00  0.00    +0.000 NA
ATOM     45  N   UNL     1      19.889   4.051   0.000  0.00  0.00    +0.000 NA
ATOM     46  N   UNL     1      16.014   0.861   0.000  0.00  0.00    +0.000 NA
ATOM     47  C   UNL     1      15.439   1.453   0.000  0.00  0.00    +0.000 C 
ATOM     48  O   UNL     1      15.664   2.247   0.000  0.00  0.00    +0.000 OA
ATOM     49  C   UNL     1      14.639   1.251   0.000  0.00  0.00    +0.000 C 
ATOM     50  C   UNL     1      14.415   0.457   0.000  0.00  0.00    +0.000 C 
ATOM     51  C   UNL     1      14.989  -0.135   0.000  0.00  0.00    +0.000 C 
ATOM     52  C   UNL     1      14.764  -0.928   0.000  0.00  0.00    +0.000 C 
ATOM     53  N   UNL     1      13.965  -1.131   0.000  0.00  0.00    +0.000 NA
ATOM     54  O   UNL     1      15.339  -1.520   0.000  0.00  0.00    +0.000 OA
ATOM     55  N   UNL     1      14.065   1.842   0.000  0.00  0.00    +0.000 NA
ATOM     56  C   UNL     1      13.265   1.640   0.000  0.00  0.00    +0.000 C 
ATOM     57  O   UNL     1      13.040   0.847   0.000  0.00  0.00    +0.000 OA
ATOM     58  C   UNL     1      12.690   2.232   0.000  0.00  0.00    +0.000 C 
ATOM     59  C   UNL     1      12.915   3.026   0.000  0.00  0.00    +0.000 C 
ATOM     60  C   UNL     1      13.715   3.228   0.000  0.00  0.00    +0.000 C 
ATOM     61  C   UNL     1      13.940   4.022   0.000  0.00  0.00    +0.000 C 
ATOM     62  C   UNL     1      14.290   2.636   0.000  0.00  0.00    +0.000 C 
ATOM     63  N   UNL     1      11.890   2.030   0.000  0.00  0.00    +0.000 NA
ATOM     64  C   UNL     1      11.315   2.622   0.000  0.00  0.00    +0.000 C 
ATOM     65  O   UNL     1      11.540   3.416   0.000  0.00  0.00    +0.000 OA
ATOM     66  C   UNL     1      10.515   2.420   0.000  0.00  0.00    +0.000 C 
ATOM     67  C   UNL     1      10.290   1.626   0.000  0.00  0.00    +0.000 C 
ATOM     68  C   UNL     1       9.490   1.424   0.000  0.00  0.00    +0.000 C 
ATOM     69  C   UNL     1       9.265   0.630   0.000  0.00  0.00    +0.000 C 
ATOM     70  N   UNL     1       8.465   0.428   0.000  0.00  0.00    +0.000 NA
ATOM     71  C   UNL     1       8.241  -0.366   0.000  0.00  0.00    +0.000 C 
ATOM     72  N   UNL     1       8.815  -0.957   0.000  0.00  0.00    +0.000 NA
ATOM     73  N   UNL     1       7.441  -0.568   0.000  0.00  0.00    +0.000 NA
ATOM     74  N   UNL     1       9.940   3.011   0.000  0.00  0.00    +0.000 NA
ATOM     75  C   UNL     1       9.140   2.809   0.000  0.00  0.00    +0.000 C 
ATOM     76  O   UNL     1       8.915   2.016   0.000  0.00  0.00    +0.000 OA
ATOM     77  C   UNL     1       8.565   3.401   0.000  0.00  0.00    +0.000 C 
ATOM     78  C   UNL     1       8.790   4.195   0.000  0.00  0.00    +0.000 C 
ATOM     79  N   UNL     1       7.766   3.199   0.000  0.00  0.00    +0.000 NA
ATOM     80  C   UNL     1       7.191   3.791   0.000  0.00  0.00    +0.000 C 
ATOM     81  O   UNL     1       7.416   4.584   0.000  0.00  0.00    +0.000 OA
ATOM     82  CA  UNL     1       6.391   3.589   0.000  0.00  0.00    +0.000 C 
ATOM     83  C   UNL     1       6.166   2.795   0.000  0.00  0.00    +0.000 C 
ATOM     84  O   UNL     1       6.741   2.203   0.000  0.00  0.00    +0.000 OA
ATOM     85  N   ACE A  16       5.816   4.180   0.000  0.00  0.00    +0.000 NA
ATOM     86  C   UNL     1       5.016   3.978   0.000  0.00  0.00    +0.000 C 
ATOM     87  O   UNL     1       4.791   3.185   0.000  0.00  0.00    +0.000 OA
ATOM     88  CA  UNL     1       4.441   4.570   0.000  0.00  0.00    +0.000 C 
ATOM     89  CB  UNL     1       4.666   5.364   0.000  0.00  0.00    +0.000 C 
ATOM     90  CG  UNL     1       5.466   5.566   0.000  0.00  0.00    +0.000 C 
ATOM     91  OD1 UNL     1       5.691   6.359   0.000  0.00  0.00    +0.000 OA
ATOM     92  OD2 UNL     1       6.041   4.974   0.000  0.00  0.00    +0.000 OA
ATOM     93  N   UNL     1       3.641   4.368   0.000  0.00  0.00    +0.000 NA
ATOM     94  C   UNL     1       3.066   4.960   0.000  0.00  0.00    +0.000 C 
ATOM     95  O   UNL     1       3.291   5.753   0.000  0.00  0.00    +0.000 OA
ATOM     96  CA  UNL     1       2.266   4.758   0.000  0.00  0.00    +0.000 C 
ATOM     97  CB  UNL     1       2.041   3.964   0.000  0.00  0.00    +0.000 C 
ATOM     98  CG  UNL     1       1.242   3.762   0.000  0.00  0.00    +0.000 C 
ATOM     99  CD  UNL     1       1.017   2.968   0.000  0.00  0.00    +0.000 C 
ATOM    100  NE  UNL     1       0.217   2.766   0.000  0.00  0.00    +0.000 NA
ATOM    101  CZ  UNL     1      -0.008   1.972   0.000  0.00  0.00    +0.000 C 
ATOM    102  NH1 UNL     1       0.567   1.381   0.000  0.00  0.00    +0.000 NA
ATOM    103  NH2 UNL     1      -0.808   1.770   0.000  0.00  0.00    +0.000 NA
ATOM    104  N   UNL     1       1.692   5.349   0.000  0.00  0.00    +0.000 NA
ATOM    105  C   UNL     1       0.892   5.147   0.000  0.00  0.00    +0.000 C 
ATOM    106  O   UNL     1       0.667   4.354   0.000  0.00  0.00    +0.000 OA
ATOM    107  CA  UNL     1       0.317   5.739   0.000  0.00  0.00    +0.000 C 
ATOM    108  CB  UNL     1       0.542   6.533   0.000  0.00  0.00    +0.000 C 
ATOM    109  CG  UNL     1       1.341   6.735   0.000  0.00  0.00    +0.000 C 
ATOM    110  CD1 UNL     1       1.567   7.529   0.000  0.00  0.00    +0.000 C 
ATOM    111  CD2 UNL     1       1.916   6.143   0.000  0.00  0.00    +0.000 C 
ATOM    112  N   UNL     1      -0.483   5.537   0.000  0.00  0.00    +0.000 NA
ATOM    113  C   UNL     1      -1.058   6.129   0.000  0.00  0.00    +0.000 C 
ATOM    114  O   UNL     1      -0.833   6.922   0.000  0.00  0.00    +0.000 OA
ATOM    115  CA  UNL     1      -1.858   5.927   0.000  0.00  0.00    +0.000 C 
ATOM    116  CB  UNL     1      -2.083   5.133   0.000  0.00  0.00    +0.000 C 
ATOM    117  CG  UNL     1      -2.883   4.931   0.000  0.00  0.00    +0.000 C 
ATOM    118  CD  UNL     1      -3.108   4.137   0.000  0.00  0.00    +0.000 C 
ATOM    119  NE  UNL     1      -3.908   3.935   0.000  0.00  0.00    +0.000 NA
ATOM    120  CZ  UNL     1      -4.133   3.141   0.000  0.00  0.00    +0.000 C 
ATOM    121  NH1 UNL     1      -3.558   2.550   0.000  0.00  0.00    +0.000 NA
ATOM    122  NH2 UNL     1      -4.933   2.939   0.000  0.00  0.00    +0.000 NA
ATOM    123  N   UNL     1      -2.433   6.518   0.000  0.00  0.00    +0.000 NA
ATOM    124  C   UNL     1      -3.233   6.316   0.000  0.00  0.00    +0.000 C 
ATOM    125  O   UNL     1      -3.458   5.522   0.000  0.00  0.00    +0.000 OA
ATOM    126  CA  UNL     1      -3.808   6.908   0.000  0.00  0.00    +0.000 C 
ATOM    127  CB  UNL     1      -3.583   7.702   0.000  0.00  0.00    +0.000 C 
ATOM    128  O   UNL     1      -2.783   7.904   0.000  0.00  0.00    +0.000 OA
ATOM    129  N   UNL     1      -4.608   6.706   0.000  0.00  0.00    +0.000 NA
ATOM    130  C   UNL     1      -5.183   7.298   0.000  0.00  0.00    +0.000 C 
ATOM    131  O   UNL     1      -4.957   8.091   0.000  0.00  0.00    +0.000 OA
ATOM    132  CA  UNL     1      -5.982   7.096   0.000  0.00  0.00    +0.000 C 
ATOM    133  CB  UNL     1      -6.207   6.302   0.000  0.00  0.00    +0.000 C 
ATOM    134  CG  UNL     1      -5.632   5.710   0.000  0.00  0.00    +0.000 C 
ATOM    135  CD1 UNL     1      -4.832   5.912   0.000  0.00  0.00    +0.000 C 
ATOM    136  CD2 UNL     1      -5.857   4.916   0.000  0.00  0.00    +0.000 C 
ATOM    137  N   UNL     1      -6.557   7.687   0.000  0.00  0.00    +0.000 NA
ATOM    138  C   UNL     1      -7.357   7.485   0.000  0.00  0.00    +0.000 C 
ATOM    139  O   UNL     1      -7.582   6.691   0.000  0.00  0.00    +0.000 OA
ATOM    140  CA  UNL     1      -7.932   8.077   0.000  0.00  0.00    +0.000 C 
ATOM    141  CB  UNL     1      -7.707   8.871   0.000  0.00  0.00    +0.000 C 
ATOM    142  CG  UNL     1      -6.907   9.073   0.000  0.00  0.00    +0.000 C 
ATOM    143  CD  UNL     1      -6.682   9.866   0.000  0.00  0.00    +0.000 C 
ATOM    144  OE1 UNL     1      -7.257  10.458   0.000  0.00  0.00    +0.000 OA
ATOM    145  OE2 UNL     1      -5.882  10.068   0.000  0.00  0.00    +0.000 OA
ATOM    146  N   UNL     1      -8.732   7.875   0.000  0.00  0.00    +0.000 NA
ATOM    147  C   UNL     1      -9.307   8.466   0.000  0.00  0.00    +0.000 C 
ATOM    148  O   UNL     1      -9.082   9.260   0.000  0.00  0.00    +0.000 OA
ATOM    149  CA  UNL     1     -10.107   8.264   0.000  0.00  0.00    +0.000 C 
ATOM    150  CB  UNL     1     -10.332   7.471   0.000  0.00  0.00    +0.000 C 
ATOM    151  O   UNL     1      -9.757   6.879   0.000  0.00  0.00    +0.000 OA
ATOM    152  N   UNL     1     -10.682   8.856   0.000  0.00  0.00    +0.000 NA
ATOM    153  C   UNL     1     -11.482   8.654   0.000  0.00  0.00    +0.000 C 
ATOM    154  O   UNL     1     -11.707   7.860   0.000  0.00  0.00    +0.000 OA
ATOM    155  CA  UNL     1     -12.056   9.246   0.000  0.00  0.00    +0.000 C 
ATOM    156  N   UNL     1     -12.856   9.044   0.000  0.00  0.00    +0.000 NA
ATOM    157  C   UNL     1     -13.431   9.636   0.000  0.00  0.00    +0.000 C 
ATOM    158  O   UNL     1     -13.206  10.429   0.000  0.00  0.00    +0.000 OA
ATOM    159  CA  UNL     1     -14.231   9.433   0.000  0.00  0.00    +0.000 C 
ATOM    160  CB  UNL     1     -14.806  10.025   0.000  0.00  0.00    +0.000 C 
ATOM    161  CG  UNL     1     -15.606   9.823   0.000  0.00  0.00    +0.000 A 
ATOM    162  CD1 UNL     1     -15.831   9.029   0.000  0.00  0.00    +0.000 A 
ATOM    163  CE1 UNL     1     -16.631   8.827   0.000  0.00  0.00    +0.000 A 
ATOM    164  CZ  UNL     1     -17.206   9.419   0.000  0.00  0.00    +0.000 A 
ATOM    165  CE2 UNL     1     -16.981  10.213   0.000  0.00  0.00    +0.000 A 
ATOM    166  CD2 UNL     1     -16.181  10.415   0.000  0.00  0.00    +0.000 A 
ATOM    167  N   UNL     1     -14.456   8.640   0.000  0.00  0.00    +0.000 NA
ATOM    168  C   UNL     1     -13.881   8.048   0.000  0.00  0.00    +0.000 C 
ATOM    169  O   UNL     1     -13.081   8.250   0.000  0.00  0.00    +0.000 OA
ATOM    170  CA  UNL     1     -14.106   7.254   0.000  0.00  0.00    +0.000 C 
ATOM    171  N   UNL     1     -13.531   6.663   0.000  0.00  0.00    +0.000 NA
ATOM    172  C   UNL     1     -13.756   5.869   0.000  0.00  0.00    +0.000 C 
ATOM    173  O   UNL     1     -14.556   5.667   0.000  0.00  0.00    +0.000 OA
ATOM    174  CA  UNL     1     -13.181   5.277   0.000  0.00  0.00    +0.000 C 
ATOM    175  N   UNL     1     -13.406   4.483   0.000  0.00  0.00    +0.000 NA
ATOM    176  C   UNL     1     -12.831   3.892   0.000  0.00  0.00    +0.000 C 
ATOM    177  O   UNL     1     -12.031   4.094   0.000  0.00  0.00    +0.000 OA
ATOM    178  CA  UNL     1     -13.056   3.098   0.000  0.00  0.00    +0.000 C 
ATOM    179  CB  UNL     1     -13.856   2.896   0.000  0.00  0.00    +0.000 C 
ATOM    180  CG  UNL     1     -14.431   3.488   0.000  0.00  0.00    +0.000 C 
ATOM    181  OD1 UNL     1     -15.231   3.286   0.000  0.00  0.00    +0.000 OA
ATOM    182  OD2 UNL     1     -14.206   4.281   0.000  0.00  0.00    +0.000 OA
ATOM    183  N   UNL     1     -12.481   2.506   0.000  0.00  0.00    +0.000 NA
ATOM    184  C   UNL     1     -12.706   1.713   0.000  0.00  0.00    +0.000 C 
ATOM    185  O   UNL     1     -13.506   1.510   0.000  0.00  0.00    +0.000 OA
ATOM    186  CA  UNL     1     -12.131   1.121   0.000  0.00  0.00    +0.000 C 
ATOM    187  CB  UNL     1     -11.332   1.323   0.000  0.00  0.00    +0.000 C 
ATOM    188  O   UNL     1     -11.107   2.117   0.000  0.00  0.00    +0.000 OA
ATOM    189  N   UNL     1     -12.356   0.327   0.000  0.00  0.00    +0.000 NA
ATOM    190  C   UNL     1     -11.781  -0.265   0.000  0.00  0.00    +0.000 C 
ATOM    191  O   UNL     1     -10.982  -0.062   0.000  0.00  0.00    +0.000 OA
ATOM    192  CA  UNL     1     -12.006  -1.058   0.000  0.00  0.00    +0.000 C 
ATOM    193  N   UNL     1     -12.806  -1.260   0.000  0.00  0.00    +0.000 NA
ATOM    194  CB  UNL     1     -11.431  -1.650   0.000  0.00  0.00    +0.000 C 
ATOM    195  CG  UNL     1     -11.656  -2.444   0.000  0.00  0.00    +0.000 A 
ATOM    196  CD2 UNL     1     -11.147  -3.092   0.000  0.00  0.00    +0.000 A 
ATOM    197  NE2 UNL     1     -11.606  -3.778   0.000  0.00  0.00    +0.000 NA
ATOM    198  CE1 UNL     1     -12.400  -3.553   0.000  0.00  0.00    +0.000 A 
ATOM    199  ND1 UNL     1     -12.431  -2.728   0.000  0.00  0.00    +0.000 NA
ATOM    200  CB  UNL     1     -14.906   7.052   0.000  0.00  0.00    +0.000 C 
ATOM    201  CG2 UNL     1     -15.131   6.258   0.000  0.00  0.00    +0.000 C 
ATOM    202  OG1 UNL     1     -15.481   7.644   0.000  0.00  0.00    +0.000 OA
ATOM    203  CB  UNL     1     -11.832  10.040   0.000  0.00  0.00    +0.000 C 
ATOM    204  CG2 UNL     1     -12.406  10.631   0.000  0.00  0.00    +0.000 C 
ATOM    205  OG1 UNL     1     -11.032  10.242   0.000  0.00  0.00    +0.000 OA
ATOM    206  C   UNL     1      27.812  -2.054   0.000  0.00  0.00    +0.000 C 
ATOM    207  O   UNL     1      28.037  -1.260   0.000  0.00  0.00    +0.000 OA
ATOM    208  N   UNL     1      28.387  -2.646   0.000  0.00  0.00    +0.000 NA
ATOM    209  C   UNL     1      29.187  -2.444   0.000  0.00  0.00    +0.000 C 
ATOM    210  C   UNL     1      29.762  -3.035   0.000  0.00  0.00    +0.000 C 
ATOM    211  C   UNL     1      30.562  -2.833   0.000  0.00  0.00    +0.000 C 
ATOM    212  C   UNL     1      29.537  -3.829   0.000  0.00  0.00    +0.000 C 
ATOM    213  C   UNL     1      29.412  -1.650   0.000  0.00  0.00    +0.000 C 
ATOM    214  N   UNL     1      28.837  -1.058   0.000  0.00  0.00    +0.000 NA
ATOM    215  O   UNL     1      30.212  -1.448   0.000  0.00  0.00    +0.000 OA
ENDROOT
TORSDOF 0
