ROOT
REMARK  Name = selpercatinib
REMARK                            x       y       z     vdW  Elec       q    Type
REMARK                         _______ _______ _______ _____ _____    ______ ____
ATOM      1  C   UNL     1      13.411   6.031   0.000  0.00  0.00    +0.000 C 
ATOM      2  C   UNL     1      13.001   5.315   0.000  0.00  0.00    +0.000 C 
ATOM      3  C   UNL     1      12.285   5.724   0.000  0.00  0.00    +0.000 C 
ATOM      4  C   UNL     1      12.592   4.599   0.000  0.00  0.00    +0.000 C 
ATOM      5  O   UNL     1      11.767   4.595   0.000  0.00  0.00    +0.000 OA
ATOM      6  C   UNL     1      11.357   3.879   0.000  0.00  0.00    +0.000 A 
ATOM      7  C   UNL     1      11.773   3.166   0.000  0.00  0.00    +0.000 A 
ATOM      8  N   UNL     1      11.364   2.450   0.000  0.00  0.00    +0.000 N 
ATOM      9  C   UNL     1      10.539   2.447   0.000  0.00  0.00    +0.000 A 
ATOM     10  C   UNL     1      10.287   1.661   0.000  0.00  0.00    +0.000 A 
ATOM     11  C   UNL     1      10.956   1.179   0.000  0.00  0.00    +0.000 A 
ATOM     12  N   UNL     1      11.622   1.667   0.000  0.00  0.00    +0.000 NA
ATOM     13  C   UNL     1       9.503   1.403   0.000  0.00  0.00    +0.000 C 
ATOM     14  N   UNL     1       8.720   1.144   0.000  0.00  0.00    +0.000 NA
ATOM     15  C   UNL     1      10.123   3.159   0.000  0.00  0.00    +0.000 A 
ATOM     16  C   UNL     1      10.532   3.876   0.000  0.00  0.00    +0.000 A 
ATOM     17  C   UNL     1       9.298   3.156   0.000  0.00  0.00    +0.000 A 
ATOM     18  C   UNL     1       8.889   2.440   0.000  0.00  0.00    +0.000 A 
ATOM     19  N   UNL     1       8.063   2.436   0.000  0.00  0.00    +0.000 NA
ATOM     20  C   UNL     1       7.648   3.149   0.000  0.00  0.00    +0.000 A 
ATOM     21  C   UNL     1       8.057   3.865   0.000  0.00  0.00    +0.000 A 
ATOM     22  C   UNL     1       8.882   3.869   0.000  0.00  0.00    +0.000 A 
ATOM     23  N   UNL     1       6.823   3.145   0.000  0.00  0.00    +0.000 N 
ATOM     24  C   UNL     1       6.414   2.429   0.000  0.00  0.00    +0.000 C 
ATOM     25  C   UNL     1       5.589   2.425   0.000  0.00  0.00    +0.000 C 
ATOM     26  C   UNL     1       5.519   3.170   0.000  0.00  0.00    +0.000 C 
ATOM     27  C   UNL     1       5.582   3.854   0.000  0.00  0.00    +0.000 C 
ATOM     28  C   UNL     1       6.407   3.858   0.000  0.00  0.00    +0.000 C 
ATOM     29  N   UNL     1       5.173   3.138   0.000  0.00  0.00    +0.000 NA
ATOM     30  C   UNL     1       4.348   3.135   0.000  0.00  0.00    +0.000 C 
ATOM     31  C   UNL     1       3.933   3.847   0.000  0.00  0.00    +0.000 A 
ATOM     32  C   UNL     1       3.107   3.844   0.000  0.00  0.00    +0.000 A 
ATOM     33  N   UNL     1       2.692   4.557   0.000  0.00  0.00    +0.000 NA
ATOM     34  C   UNL     1       3.101   5.273   0.000  0.00  0.00    +0.000 A 
ATOM     35  C   UNL     1       3.926   5.276   0.000  0.00  0.00    +0.000 A 
ATOM     36  C   UNL     1       4.342   4.564   0.000  0.00  0.00    +0.000 A 
ATOM     37  O   UNL     1       2.686   5.986   0.000  0.00  0.00    +0.000 OA
ATOM     38  C   UNL     1       1.861   5.982   0.000  0.00  0.00    +0.000 C 
ATOM     39  O   UNL     1      13.717   4.906   0.000  0.00  0.00    +0.000 OA
ENDROOT
TORSDOF 0
