ROOT
REMARK  Name = setmelanotide
REMARK                            x       y       z     vdW  Elec       q    Type
REMARK                         _______ _______ _______ _____ _____    ______ ____
ATOM      1  C   UNL     1       3.790  -0.276   0.000  0.00  0.00    +0.000 C 
ATOM      2  C   UNL     1       2.973  -0.164   0.000  0.00  0.00    +0.000 C 
ATOM      3  C   UNL     1       2.801   0.642   0.000  0.00  0.00    +0.000 C 
ATOM      4  O   UNL     1       2.048   0.978   0.000  0.00  0.00    +0.000 OA
ATOM      5  N   UNL     1       3.516   1.055   0.000  0.00  0.00    +0.000 NA
ATOM      6  C   UNL     1       4.129   0.503   0.000  0.00  0.00    +0.000 C 
ATOM      7  C   UNL     1       5.031   0.464   0.000  0.00  0.00    +0.000 C 
ATOM      8  O   UNL     1       4.963   1.286   0.000  0.00  0.00    +0.000 OA
ATOM      9  N   UNL     1       5.443  -0.251   0.000  0.00  0.00    +0.000 NA
ATOM     10  C   UNL     1       6.268  -0.251   0.000  0.00  0.00    +0.000 C 
ATOM     11  C   UNL     1       6.681  -0.965   0.000  0.00  0.00    +0.000 C 
ATOM     12  O   UNL     1       6.268  -1.680   0.000  0.00  0.00    +0.000 OA
ATOM     13  N   UNL     1       7.506  -0.965   0.000  0.00  0.00    +0.000 NA
ATOM     14  C   UNL     1       7.918  -1.680   0.000  0.00  0.00    +0.000 C 
ATOM     15  C   UNL     1       8.743  -1.680   0.000  0.00  0.00    +0.000 C 
ATOM     16  O   UNL     1       9.156  -0.965   0.000  0.00  0.00    +0.000 OA
ATOM     17  N   UNL     1       9.156  -2.394   0.000  0.00  0.00    +0.000 NA
ATOM     18  C   UNL     1       8.743  -3.109   0.000  0.00  0.00    +0.000 C 
ATOM     19  C   UNL     1       7.918  -3.109   0.000  0.00  0.00    +0.000 C 
ATOM     20  O   UNL     1       7.506  -2.394   0.000  0.00  0.00    +0.000 OA
ATOM     21  N   UNL     1       7.506  -3.823   0.000  0.00  0.00    +0.000 NA
ATOM     22  C   UNL     1       6.681  -3.823   0.000  0.00  0.00    +0.000 C 
ATOM     23  C   UNL     1       6.268  -3.109   0.000  0.00  0.00    +0.000 C 
ATOM     24  S   UNL     1       5.443  -3.109   0.000  0.00  0.00    +0.000 S 
ATOM     25  S   UNL     1       5.031  -2.394   0.000  0.00  0.00    +0.000 S 
ATOM     26  C   UNL     1       4.206  -2.394   0.000  0.00  0.00    +0.000 C 
ATOM     27  C   UNL     1       3.793  -1.680   0.000  0.00  0.00    +0.000 C 
ATOM     28  C   UNL     1       2.968  -1.680   0.000  0.00  0.00    +0.000 C 
ATOM     29  O   UNL     1       2.556  -2.394   0.000  0.00  0.00    +0.000 OA
ATOM     30  N   UNL     1       2.556  -0.965   0.000  0.00  0.00    +0.000 NA
ATOM     31  N   UNL     1       3.381  -2.394   0.000  0.00  0.00    +0.000 NA
ATOM     32  C   UNL     1       3.793  -3.109   0.000  0.00  0.00    +0.000 C 
ATOM     33  O   UNL     1       4.618  -3.109   0.000  0.00  0.00    +0.000 OA
ATOM     34  C   UNL     1       3.381  -3.823   0.000  0.00  0.00    +0.000 C 
ATOM     35  C   UNL     1       2.556  -3.823   0.000  0.00  0.00    +0.000 C 
ATOM     36  C   UNL     1       2.143  -4.537   0.000  0.00  0.00    +0.000 C 
ATOM     37  C   UNL     1       1.318  -4.537   0.000  0.00  0.00    +0.000 C 
ATOM     38  N   UNL     1       0.906  -5.252   0.000  0.00  0.00    +0.000 NA
ATOM     39  C   UNL     1       0.081  -5.252   0.000  0.00  0.00    +0.000 C 
ATOM     40  N   UNL     1      -0.332  -5.966   0.000  0.00  0.00    +0.000 NA
ATOM     41  N   UNL     1      -0.332  -4.537   0.000  0.00  0.00    +0.000 NA
ATOM     42  N   UNL     1       3.793  -4.537   0.000  0.00  0.00    +0.000 NA
ATOM     43  C   UNL     1       4.618  -4.537   0.000  0.00  0.00    +0.000 C 
ATOM     44  O   UNL     1       5.031  -3.823   0.000  0.00  0.00    +0.000 OA
ATOM     45  C   UNL     1       5.031  -5.252   0.000  0.00  0.00    +0.000 C 
ATOM     46  C   UNL     1       6.268  -4.537   0.000  0.00  0.00    +0.000 C 
ATOM     47  O   UNL     1       5.443  -4.537   0.000  0.00  0.00    +0.000 OA
ATOM     48  N   UNL     1       6.681  -5.252   0.000  0.00  0.00    +0.000 NA
ATOM     49  C   UNL     1       9.156  -3.823   0.000  0.00  0.00    +0.000 C 
ATOM     50  C   UNL     1       9.981  -3.823   0.000  0.00  0.00    +0.000 C 
ATOM     51  C   UNL     1      10.466  -3.156   0.000  0.00  0.00    +0.000 C 
ATOM     52  N   UNL     1      11.251  -3.410   0.000  0.00  0.00    +0.000 NA
ATOM     53  C   UNL     1      11.251  -4.236   0.000  0.00  0.00    +0.000 C 
ATOM     54  C   UNL     1      11.864  -4.788   0.000  0.00  0.00    +0.000 C 
ATOM     55  C   UNL     1      11.692  -5.595   0.000  0.00  0.00    +0.000 C 
ATOM     56  C   UNL     1      10.907  -5.849   0.000  0.00  0.00    +0.000 C 
ATOM     57  C   UNL     1      10.294  -5.297   0.000  0.00  0.00    +0.000 C 
ATOM     58  C   UNL     1      10.466  -4.490   0.000  0.00  0.00    +0.000 C 
ATOM     59  C   UNL     1       8.331  -0.965   0.000  0.00  0.00    +0.000 C 
ATOM     60  C   UNL     1       7.918  -0.251   0.000  0.00  0.00    +0.000 C 
ATOM     61  C   UNL     1       8.331   0.464   0.000  0.00  0.00    +0.000 C 
ATOM     62  N   UNL     1       9.156   0.464   0.000  0.00  0.00    +0.000 NA
ATOM     63  C   UNL     1       9.568   1.178   0.000  0.00  0.00    +0.000 C 
ATOM     64  N   UNL     1       9.156   1.893   0.000  0.00  0.00    +0.000 NA
ATOM     65  N   UNL     1      10.393   1.178   0.000  0.00  0.00    +0.000 NA
ATOM     66  C   UNL     1       6.681   0.464   0.000  0.00  0.00    +0.000 C 
ATOM     67  C   UNL     1       6.268   1.178   0.000  0.00  0.00    +0.000 A 
ATOM     68  C   UNL     1       5.443   1.178   0.000  0.00  0.00    +0.000 A 
ATOM     69  C   UNL     1       5.031   1.893   0.000  0.00  0.00    +0.000 A 
ATOM     70  C   UNL     1       5.443   2.607   0.000  0.00  0.00    +0.000 A 
ATOM     71  C   UNL     1       6.268   2.607   0.000  0.00  0.00    +0.000 A 
ATOM     72  C   UNL     1       6.681   1.893   0.000  0.00  0.00    +0.000 A 
ATOM     73  C   UNL     1       4.441   1.267   0.000  0.00  0.00    +0.000 C 
ATOM     74  C   UNL     1       3.936   1.919   0.000  0.00  0.00    +0.000 A 
ATOM     75  C   UNL     1       4.167   2.711   0.000  0.00  0.00    +0.000 A 
ATOM     76  N   UNL     1       3.485   3.175   0.000  0.00  0.00    +0.000 NA
ATOM     77  C   UNL     1       2.833   2.670   0.000  0.00  0.00    +0.000 A 
ATOM     78  N   UNL     1       3.111   1.894   0.000  0.00  0.00    +0.000 NA
ENDROOT
TORSDOF 0
