ROOT
REMARK  Name = sincalide
REMARK                            x       y       z     vdW  Elec       q    Type
REMARK                         _______ _______ _______ _____ _____    ______ ____
ATOM      1  C   UNL     1      -7.562   5.793   0.000  0.00  0.00    +0.000 C 
ATOM      2  S   UNL     1      -6.951   5.238   0.000  0.00  0.00    +0.000 S 
ATOM      3  C   UNL     1      -7.125   4.432   0.000  0.00  0.00    +0.000 C 
ATOM      4  C   UNL     1      -6.514   3.878   0.000  0.00  0.00    +0.000 C 
ATOM      5  C   UNL     1      -6.689   3.071   0.000  0.00  0.00    +0.000 C 
ATOM      6  N   UNL     1      -7.475   2.819   0.000  0.00  0.00    +0.000 NA
ATOM      7  C   UNL     1      -8.086   3.374   0.000  0.00  0.00    +0.000 C 
ATOM      8  O   UNL     1      -7.911   4.180   0.000  0.00  0.00    +0.000 OA
ATOM      9  C   UNL     1      -8.871   3.122   0.000  0.00  0.00    +0.000 C 
ATOM     10  C   UNL     1      -9.482   3.676   0.000  0.00  0.00    +0.000 C 
ATOM     11  C   UNL     1     -10.268   3.424   0.000  0.00  0.00    +0.000 A 
ATOM     12  C   UNL     1     -10.442   2.618   0.000  0.00  0.00    +0.000 A 
ATOM     13  C   UNL     1     -11.228   2.366   0.000  0.00  0.00    +0.000 A 
ATOM     14  C   UNL     1     -11.839   2.920   0.000  0.00  0.00    +0.000 A 
ATOM     15  O   UNL     1     -12.624   2.668   0.000  0.00  0.00    +0.000 OA
ATOM     16  S   UNL     1     -13.236   3.222   0.000  0.00  0.00    +0.000 S 
ATOM     17  O   UNL     1     -13.847   3.777   0.000  0.00  0.00    +0.000 OA
ATOM     18  O   UNL     1     -13.790   2.611   0.000  0.00  0.00    +0.000 OA
ATOM     19  O   UNL     1     -12.681   3.833   0.000  0.00  0.00    +0.000 OA
ATOM     20  C   UNL     1     -11.664   3.726   0.000  0.00  0.00    +0.000 A 
ATOM     21  C   UNL     1     -10.879   3.978   0.000  0.00  0.00    +0.000 A 
ATOM     22  N   UNL     1      -9.046   2.315   0.000  0.00  0.00    +0.000 NA
ATOM     23  C   UNL     1      -8.435   1.761   0.000  0.00  0.00    +0.000 C 
ATOM     24  O   UNL     1      -7.649   2.013   0.000  0.00  0.00    +0.000 OA
ATOM     25  C   UNL     1      -8.609   0.955   0.000  0.00  0.00    +0.000 C 
ATOM     26  N   UNL     1      -9.395   0.703   0.000  0.00  0.00    +0.000 NA
ATOM     27  C   UNL     1      -7.998   0.400   0.000  0.00  0.00    +0.000 C 
ATOM     28  C   UNL     1      -8.173  -0.406   0.000  0.00  0.00    +0.000 C 
ATOM     29  O   UNL     1      -7.562  -0.960   0.000  0.00  0.00    +0.000 OA
ATOM     30  O   UNL     1      -8.959  -0.658   0.000  0.00  0.00    +0.000 OA
ATOM     31  C   UNL     1      -6.078   2.517   0.000  0.00  0.00    +0.000 C 
ATOM     32  O   UNL     1      -6.253   1.711   0.000  0.00  0.00    +0.000 OA
ATOM     33  N   UNL     1      -5.293   2.769   0.000  0.00  0.00    +0.000 NA
ATOM     34  C   UNL     1      -4.681   2.215   0.000  0.00  0.00    +0.000 C 
ATOM     35  C   UNL     1      -3.896   2.466   0.000  0.00  0.00    +0.000 C 
ATOM     36  O   UNL     1      -3.721   3.273   0.000  0.00  0.00    +0.000 OA
ATOM     37  N   UNL     1      -3.285   1.912   0.000  0.00  0.00    +0.000 NA
ATOM     38  C   UNL     1      -2.499   2.164   0.000  0.00  0.00    +0.000 C 
ATOM     39  C   UNL     1      -2.325   2.970   0.000  0.00  0.00    +0.000 C 
ATOM     40  C   UNL     1      -1.539   3.222   0.000  0.00  0.00    +0.000 C 
ATOM     41  C   UNL     1      -0.874   2.735   0.000  0.00  0.00    +0.000 C 
ATOM     42  N   UNL     1      -0.204   3.217   0.000  0.00  0.00    +0.000 NA
ATOM     43  C   UNL     1      -0.456   4.003   0.000  0.00  0.00    +0.000 C 
ATOM     44  C   UNL     1      -1.281   4.006   0.000  0.00  0.00    +0.000 C 
ATOM     45  C   UNL     1      -1.691   4.722   0.000  0.00  0.00    +0.000 C 
ATOM     46  C   UNL     1      -1.276   5.435   0.000  0.00  0.00    +0.000 C 
ATOM     47  C   UNL     1      -0.451   5.432   0.000  0.00  0.00    +0.000 C 
ATOM     48  C   UNL     1      -0.041   4.716   0.000  0.00  0.00    +0.000 C 
ATOM     49  C   UNL     1      -1.888   1.610   0.000  0.00  0.00    +0.000 C 
ATOM     50  O   UNL     1      -2.063   0.803   0.000  0.00  0.00    +0.000 OA
ATOM     51  N   UNL     1      -1.103   1.862   0.000  0.00  0.00    +0.000 NA
ATOM     52  C   UNL     1      -0.492   1.307   0.000  0.00  0.00    +0.000 C 
ATOM     53  C   UNL     1      -0.666   0.501   0.000  0.00  0.00    +0.000 C 
ATOM     54  C   UNL     1      -1.452   0.249   0.000  0.00  0.00    +0.000 C 
ATOM     55  S   UNL     1      -1.626  -0.557   0.000  0.00  0.00    +0.000 S 
ATOM     56  C   UNL     1      -2.412  -0.809   0.000  0.00  0.00    +0.000 C 
ATOM     57  C   UNL     1       0.294   1.559   0.000  0.00  0.00    +0.000 C 
ATOM     58  O   UNL     1       0.468   2.366   0.000  0.00  0.00    +0.000 OA
ATOM     59  N   UNL     1       0.905   1.005   0.000  0.00  0.00    +0.000 NA
ATOM     60  C   UNL     1       1.690   1.257   0.000  0.00  0.00    +0.000 C 
ATOM     61  C   UNL     1       1.865   2.063   0.000  0.00  0.00    +0.000 C 
ATOM     62  C   UNL     1       2.651   2.315   0.000  0.00  0.00    +0.000 C 
ATOM     63  O   UNL     1       2.825   3.122   0.000  0.00  0.00    +0.000 OA
ATOM     64  O   UNL     1       3.262   1.761   0.000  0.00  0.00    +0.000 OA
ATOM     65  C   UNL     1       2.301   0.703   0.000  0.00  0.00    +0.000 C 
ATOM     66  O   UNL     1       2.127  -0.104   0.000  0.00  0.00    +0.000 OA
ATOM     67  N   UNL     1       3.087   0.955   0.000  0.00  0.00    +0.000 NA
ATOM     68  C   UNL     1       3.698   0.400   0.000  0.00  0.00    +0.000 C 
ATOM     69  C   UNL     1       4.484   0.652   0.000  0.00  0.00    +0.000 C 
ATOM     70  C   UNL     1       5.095   0.098   0.000  0.00  0.00    +0.000 A 
ATOM     71  C   UNL     1       5.880   0.350   0.000  0.00  0.00    +0.000 A 
ATOM     72  C   UNL     1       6.491  -0.204   0.000  0.00  0.00    +0.000 A 
ATOM     73  C   UNL     1       6.317  -1.011   0.000  0.00  0.00    +0.000 A 
ATOM     74  C   UNL     1       5.531  -1.263   0.000  0.00  0.00    +0.000 A 
ATOM     75  C   UNL     1       4.920  -0.708   0.000  0.00  0.00    +0.000 A 
ATOM     76  C   UNL     1       3.523  -0.406   0.000  0.00  0.00    +0.000 C 
ATOM     77  N   UNL     1       4.135  -0.960   0.000  0.00  0.00    +0.000 NA
ATOM     78  O   UNL     1       2.738  -0.658   0.000  0.00  0.00    +0.000 OA
ENDROOT
TORSDOF 0
