ROOT
REMARK  Name = siponimod
REMARK                            x       y       z     vdW  Elec       q    Type
REMARK                         _______ _______ _______ _____ _____    ______ ____
ATOM      1  C   UNL     1       1.220  -6.721   0.000  0.00  0.00    +0.000 C 
ATOM      2  C   UNL     1       1.934  -6.308   0.000  0.00  0.00    +0.000 C 
ATOM      3  C   UNL     1       2.649  -6.721   0.000  0.00  0.00    +0.000 A 
ATOM      4  C   UNL     1       3.363  -6.308   0.000  0.00  0.00    +0.000 A 
ATOM      5  C   UNL     1       4.078  -6.721   0.000  0.00  0.00    +0.000 A 
ATOM      6  C   UNL     1       4.078  -7.546   0.000  0.00  0.00    +0.000 A 
ATOM      7  C   UNL     1       3.363  -7.958   0.000  0.00  0.00    +0.000 A 
ATOM      8  C   UNL     1       2.649  -7.546   0.000  0.00  0.00    +0.000 A 
ATOM      9  C   UNL     1       1.934  -7.958   0.000  0.00  0.00    +0.000 C 
ATOM     10  N   UNL     1       1.934  -8.783   0.000  0.00  0.00    +0.000 NA
ATOM     11  C   UNL     1       2.518  -9.367   0.000  0.00  0.00    +0.000 C 
ATOM     12  C   UNL     1       1.934  -9.950   0.000  0.00  0.00    +0.000 C 
ATOM     13  C   UNL     1       1.351  -9.367   0.000  0.00  0.00    +0.000 C 
ATOM     14  C   UNL     1       1.934 -10.775   0.000  0.00  0.00    +0.000 C 
ATOM     15  O   UNL     1       1.220 -11.188   0.000  0.00  0.00    +0.000 OA
ATOM     16  O   UNL     1       2.649 -11.188   0.000  0.00  0.00    +0.000 OA
ATOM     17  C   UNL     1       4.792  -6.308   0.000  0.00  0.00    +0.000 C 
ATOM     18  C   UNL     1       4.792  -5.483   0.000  0.00  0.00    +0.000 C 
ATOM     19  N   UNL     1       5.506  -6.721   0.000  0.00  0.00    +0.000 NA
ATOM     20  O   UNL     1       6.221  -6.308   0.000  0.00  0.00    +0.000 OA
ATOM     21  C   UNL     1       6.221  -5.483   0.000  0.00  0.00    +0.000 C 
ATOM     22  C   UNL     1       6.935  -5.071   0.000  0.00  0.00    +0.000 A 
ATOM     23  C   UNL     1       6.935  -4.246   0.000  0.00  0.00    +0.000 A 
ATOM     24  C   UNL     1       7.650  -3.833   0.000  0.00  0.00    +0.000 A 
ATOM     25  C   UNL     1       8.364  -4.246   0.000  0.00  0.00    +0.000 A 
ATOM     26  C   UNL     1       9.079  -3.833   0.000  0.00  0.00    +0.000 C 
ATOM     27  C   UNL     1       9.079  -3.008   0.000  0.00  0.00    +0.000 C 
ATOM     28  C   UNL     1       9.793  -2.596   0.000  0.00  0.00    +0.000 C 
ATOM     29  C   UNL     1      10.508  -3.008   0.000  0.00  0.00    +0.000 C 
ATOM     30  C   UNL     1      10.508  -3.833   0.000  0.00  0.00    +0.000 C 
ATOM     31  C   UNL     1       9.793  -4.246   0.000  0.00  0.00    +0.000 C 
ATOM     32  C   UNL     1       8.364  -5.071   0.000  0.00  0.00    +0.000 A 
ATOM     33  C   UNL     1       7.650  -5.483   0.000  0.00  0.00    +0.000 A 
ATOM     34  C   UNL     1       9.079  -5.483   0.000  0.00  0.00    +0.000 C 
ATOM     35  F   UNL     1       9.793  -5.896   0.000  0.00  0.00    +0.000 F 
ATOM     36  F   UNL     1       8.666  -6.198   0.000  0.00  0.00    +0.000 F 
ATOM     37  F   UNL     1       9.491  -4.769   0.000  0.00  0.00    +0.000 F 
ENDROOT
TORSDOF 0
