ROOT
REMARK  Name = sodium myristyl sulfate
REMARK                            x       y       z     vdW  Elec       q    Type
REMARK                         _______ _______ _______ _____ _____    ______ ____
ATOM      1  C   UNL     1       4.759   3.572   0.000  0.00  0.00    +0.000 C 
ATOM      2  C   UNL     1       5.473   3.985   0.000  0.00  0.00    +0.000 C 
ATOM      3  C   UNL     1       6.188   3.572   0.000  0.00  0.00    +0.000 C 
ATOM      4  C   UNL     1       6.902   3.985   0.000  0.00  0.00    +0.000 C 
ATOM      5  C   UNL     1       7.616   3.572   0.000  0.00  0.00    +0.000 C 
ATOM      6  C   UNL     1       8.331   3.985   0.000  0.00  0.00    +0.000 C 
ATOM      7  C   UNL     1       9.045   3.572   0.000  0.00  0.00    +0.000 C 
ATOM      8  C   UNL     1       9.760   3.985   0.000  0.00  0.00    +0.000 C 
ATOM      9  C   UNL     1      10.474   3.572   0.000  0.00  0.00    +0.000 C 
ATOM     10  C   UNL     1      11.189   3.985   0.000  0.00  0.00    +0.000 C 
ATOM     11  C   UNL     1      11.903   3.572   0.000  0.00  0.00    +0.000 C 
ATOM     12  C   UNL     1      12.618   3.985   0.000  0.00  0.00    +0.000 C 
ATOM     13  C   UNL     1      13.332   3.572   0.000  0.00  0.00    +0.000 C 
ATOM     14  C   UNL     1      14.047   3.985   0.000  0.00  0.00    +0.000 C 
ATOM     15  O   UNL     1      14.761   3.572   0.000  0.00  0.00    +0.000 OA
ATOM     16  S   UNL     1      15.476   3.985   0.000  0.00  0.00    +0.000 S 
ATOM     17  O   UNL     1      16.190   4.397   0.000  0.00  0.00    +0.000 OA
ATOM     18  O   UNL     1      15.888   3.270   0.000  0.00  0.00    +0.000 OA
ATOM     19  O   UNL     1      15.063   4.699   0.000  0.00  0.00    +0.000 OA
ENDROOT
TORSDOF 0
