ROOT
REMARK  Name = sodium stibogluconate
REMARK                            x       y       z     vdW  Elec       q    Type
REMARK                         _______ _______ _______ _____ _____    ______ ____
ATOM      1  O   UNL     1      -0.899  -4.657   0.000  0.00  0.00    +0.000 OA
ATOM      2  C   UNL     1      -0.184  -4.245   0.000  0.00  0.00    +0.000 C 
ATOM      3  C   UNL     1      -0.184  -3.420   0.000  0.00  0.00    +0.000 C 
ATOM      4  O   UNL     1      -0.899  -3.007   0.000  0.00  0.00    +0.000 OA
ATOM      5  C   UNL     1       0.530  -3.007   0.000  0.00  0.00    +0.000 C 
ATOM      6  O   UNL     1       0.530  -2.183   0.000  0.00  0.00    +0.000 OA
ATOM      7 SB   UNL     1       1.245  -1.770   0.000  0.00  0.00    +0.000 Sb
ATOM      8  O   UNL     1       0.715  -1.138   0.000  0.00  0.00    +0.000 OA
ATOM      9  O   UNL     1       1.775  -1.138   0.000  0.00  0.00    +0.000 OA
ATOM     10 SB   UNL     1       1.493  -0.363   0.000  0.00  0.00    +0.000 Sb
ATOM     11  O   UNL     1       0.778  -0.775   0.000  0.00  0.00    +0.000 OA
ATOM     12  O   UNL     1       0.963   0.269   0.000  0.00  0.00    +0.000 OA
ATOM     13  C   UNL     1       1.245   1.044   0.000  0.00  0.00    +0.000 C 
ATOM     14  C   UNL     1       0.715   1.677   0.000  0.00  0.00    +0.000 C 
ATOM     15  O   UNL     1       0.997   2.452   0.000  0.00  0.00    +0.000 OA
ATOM     16  C   UNL     1      -0.098   1.533   0.000  0.00  0.00    +0.000 C 
ATOM     17  O   UNL     1      -0.628   2.165   0.000  0.00  0.00    +0.000 OA
ATOM     18  C   UNL     1       2.057   1.188   0.000  0.00  0.00    +0.000 C 
ATOM     19  O   UNL     1       2.339   1.963   0.000  0.00  0.00    +0.000 OA
ATOM     20  C   UNL     1       2.587   0.556   0.000  0.00  0.00    +0.000 C 
ATOM     21  O   UNL     1       2.305  -0.220   0.000  0.00  0.00    +0.000 OA
ATOM     22  C   UNL     1       3.400   0.699   0.000  0.00  0.00    +0.000 C 
ATOM     23  O   UNL     1       3.930   0.067   0.000  0.00  0.00    +0.000 OA
ATOM     24  O   UNL     1       3.682   1.474   0.000  0.00  0.00    +0.000 OA
ATOM     25  O   UNL     1       1.959  -2.183   0.000  0.00  0.00    +0.000 OA
ATOM     26  C   UNL     1       1.959  -3.007   0.000  0.00  0.00    +0.000 C 
ATOM     27  C   UNL     1       1.245  -3.420   0.000  0.00  0.00    +0.000 C 
ATOM     28  O   UNL     1       1.245  -4.245   0.000  0.00  0.00    +0.000 OA
ATOM     29  C   UNL     1       2.674  -3.420   0.000  0.00  0.00    +0.000 C 
ATOM     30  O   UNL     1       2.674  -4.245   0.000  0.00  0.00    +0.000 OA
ATOM     31  O   UNL     1       3.388  -3.007   0.000  0.00  0.00    +0.000 OA
ENDROOT
TORSDOF 0
