ROOT
REMARK  Name = sonidegib
REMARK                            x       y       z     vdW  Elec       q    Type
REMARK                         _______ _______ _______ _____ _____    ______ ____
ATOM      1  C   UNL     1       5.716  -4.125   0.000  0.00  0.00    +0.000 C 
ATOM      2  C   UNL     1       5.716  -4.950   0.000  0.00  0.00    +0.000 C 
ATOM      3  C   UNL     1       6.430  -5.362   0.000  0.00  0.00    +0.000 C 
ATOM      4  N   UNL     1       6.430  -6.188   0.000  0.00  0.00    +0.000 N 
ATOM      5  C   UNL     1       5.716  -6.600   0.000  0.00  0.00    +0.000 C 
ATOM      6  C   UNL     1       5.001  -6.188   0.000  0.00  0.00    +0.000 C 
ATOM      7  C   UNL     1       4.287  -6.600   0.000  0.00  0.00    +0.000 C 
ATOM      8  O   UNL     1       5.001  -5.362   0.000  0.00  0.00    +0.000 OA
ATOM      9  C   UNL     1       7.145  -6.600   0.000  0.00  0.00    +0.000 A 
ATOM     10  N   UNL     1       7.859  -6.188   0.000  0.00  0.00    +0.000 NA
ATOM     11  C   UNL     1       8.574  -6.600   0.000  0.00  0.00    +0.000 A 
ATOM     12  C   UNL     1       8.574  -7.425   0.000  0.00  0.00    +0.000 A 
ATOM     13  N   UNL     1       9.288  -7.838   0.000  0.00  0.00    +0.000 NA
ATOM     14  C   UNL     1       9.288  -8.662   0.000  0.00  0.00    +0.000 C 
ATOM     15  O   UNL     1       8.574  -9.075   0.000  0.00  0.00    +0.000 OA
ATOM     16  C   UNL     1      10.003  -9.075   0.000  0.00  0.00    +0.000 A 
ATOM     17  C   UNL     1      10.717  -8.662   0.000  0.00  0.00    +0.000 A 
ATOM     18  C   UNL     1      11.431  -9.075   0.000  0.00  0.00    +0.000 A 
ATOM     19  C   UNL     1      11.431  -9.900   0.000  0.00  0.00    +0.000 A 
ATOM     20  C   UNL     1      10.717 -10.312   0.000  0.00  0.00    +0.000 A 
ATOM     21  C   UNL     1      10.003  -9.900   0.000  0.00  0.00    +0.000 A 
ATOM     22  C   UNL     1       9.288 -10.312   0.000  0.00  0.00    +0.000 C 
ATOM     23  C   UNL     1      10.717 -11.137   0.000  0.00  0.00    +0.000 A 
ATOM     24  C   UNL     1      11.431 -11.550   0.000  0.00  0.00    +0.000 A 
ATOM     25  C   UNL     1      11.431 -12.375   0.000  0.00  0.00    +0.000 A 
ATOM     26  C   UNL     1      10.717 -12.787   0.000  0.00  0.00    +0.000 A 
ATOM     27  O   UNL     1      10.717 -13.613   0.000  0.00  0.00    +0.000 OA
ATOM     28  C   UNL     1      11.431 -14.025   0.000  0.00  0.00    +0.000 C 
ATOM     29  F   UNL     1      12.146 -14.438   0.000  0.00  0.00    +0.000 F 
ATOM     30  F   UNL     1      11.019 -14.739   0.000  0.00  0.00    +0.000 F 
ATOM     31  F   UNL     1      11.844 -13.310   0.000  0.00  0.00    +0.000 F 
ATOM     32  C   UNL     1      10.003 -12.375   0.000  0.00  0.00    +0.000 A 
ATOM     33  C   UNL     1      10.003 -11.550   0.000  0.00  0.00    +0.000 A 
ATOM     34  C   UNL     1       7.859  -7.838   0.000  0.00  0.00    +0.000 A 
ATOM     35  C   UNL     1       7.145  -7.425   0.000  0.00  0.00    +0.000 A 
ENDROOT
TORSDOF 0
