ROOT
REMARK  Name = spaglumic acid
REMARK                            x       y       z     vdW  Elec       q    Type
REMARK                         _______ _______ _______ _____ _____    ______ ____
ATOM      1  C   UNK A   0       3.521   2.858   0.000  0.00  0.00    +0.000 C 
ATOM      2  C   UNK A   0       4.236   3.270   0.000  0.00  0.00    +0.000 C 
ATOM      3  O   UNK A   0       4.236   4.095   0.000  0.00  0.00    +0.000 OA
ATOM      4  N   UNK A   1       4.950   2.858   0.000  0.00  0.00    +0.000 NA
ATOM      5  C   UNK A   1       5.665   3.270   0.000  0.00  0.00    +0.000 C 
ATOM      6  C   UNK A   1       6.379   2.858   0.000  0.00  0.00    +0.000 C 
ATOM      7  C   UNK A   1       7.093   3.270   0.000  0.00  0.00    +0.000 C 
ATOM      8  O   UNK A   1       7.093   4.095   0.000  0.00  0.00    +0.000 OA
ATOM      9  N   UNK A   1       7.808   2.858   0.000  0.00  0.00    +0.000 NA
ATOM     10  C   UNK A   1       8.522   3.270   0.000  0.00  0.00    +0.000 C 
ATOM     11  C   UNK A   1       9.237   2.858   0.000  0.00  0.00    +0.000 C 
ATOM     12  C   UNK A   1       9.951   3.270   0.000  0.00  0.00    +0.000 C 
ATOM     13  C   UNK A   1      10.666   2.858   0.000  0.00  0.00    +0.000 C 
ATOM     14  O   UNK A   1      11.380   3.270   0.000  0.00  0.00    +0.000 OA
ATOM     15  O   UNK A   1      10.666   2.033   0.000  0.00  0.00    +0.000 OA
ATOM     16  C   UNK A   1       8.522   4.095   0.000  0.00  0.00    +0.000 C 
ATOM     17  O   UNK A   1       9.237   4.508   0.000  0.00  0.00    +0.000 OA
ATOM     18  O   UNK A   1       7.808   4.508   0.000  0.00  0.00    +0.000 OA
ATOM     19  C   UNK A   1       5.665   4.095   0.000  0.00  0.00    +0.000 C 
ATOM     20  O   UNK A   1       6.379   4.508   0.000  0.00  0.00    +0.000 OA
ATOM     21  O   UNK A   1       4.950   4.508   0.000  0.00  0.00    +0.000 OA
ENDROOT
TORSDOF 0
