ROOT
REMARK  Name = stepronin
REMARK                            x       y       z     vdW  Elec       q    Type
REMARK                         _______ _______ _______ _____ _____    ______ ____
ATOM      1  C   UNL     1       2.469  -1.865   0.000  0.00  0.00    +0.000 C 
ATOM      2  C   UNL     1       2.469  -1.040   0.000  0.00  0.00    +0.000 C 
ATOM      3  S   UNL     1       1.754  -0.627   0.000  0.00  0.00    +0.000 S 
ATOM      4  C   UNL     1       1.040  -1.040   0.000  0.00  0.00    +0.000 C 
ATOM      5  O   UNL     1       1.040  -1.865   0.000  0.00  0.00    +0.000 OA
ATOM      6  C   UNL     1       0.325  -0.627   0.000  0.00  0.00    +0.000 A 
ATOM      7  C   UNL     1      -0.429  -0.963   0.000  0.00  0.00    +0.000 A 
ATOM      8  C   UNL     1      -0.981  -0.349   0.000  0.00  0.00    +0.000 A 
ATOM      9  C   UNL     1      -0.568   0.365   0.000  0.00  0.00    +0.000 A 
ATOM     10  S   UNL     1       0.239   0.193   0.000  0.00  0.00    +0.000 S 
ATOM     11  C   UNL     1       3.183  -0.627   0.000  0.00  0.00    +0.000 C 
ATOM     12  O   UNL     1       3.183   0.198   0.000  0.00  0.00    +0.000 OA
ATOM     13  N   UNL     1       3.897  -1.040   0.000  0.00  0.00    +0.000 NA
ATOM     14  C   UNL     1       4.612  -0.627   0.000  0.00  0.00    +0.000 C 
ATOM     15  C   UNL     1       5.326  -1.040   0.000  0.00  0.00    +0.000 C 
ATOM     16  O   UNL     1       6.041  -0.627   0.000  0.00  0.00    +0.000 OA
ATOM     17  O   UNL     1       5.326  -1.865   0.000  0.00  0.00    +0.000 OA
ENDROOT
TORSDOF 0
