ROOT
REMARK  Name = sucrose
REMARK                            x       y       z     vdW  Elec       q    Type
REMARK                         _______ _______ _______ _____ _____    ______ ____
ATOM      1  O   UNL     1      -0.779  -4.306   0.000  0.00  0.00    +0.000 OA
ATOM      2  C   UNL     1      -1.114  -3.553   0.000  0.00  0.00    +0.000 C 
ATOM      3  C   UNL     1      -0.629  -2.885   0.000  0.00  0.00    +0.000 C 
ATOM      4  O   UNL     1      -0.884  -2.101   0.000  0.00  0.00    +0.000 OA
ATOM      5  C   UNL     1      -0.217  -1.616   0.000  0.00  0.00    +0.000 C 
ATOM      6  C   UNL     1      -0.769  -1.003   0.000  0.00  0.00    +0.000 C 
ATOM      7  O   UNL     1      -1.576  -1.174   0.000  0.00  0.00    +0.000 OA
ATOM      8  O   UNL     1       0.335  -1.003   0.000  0.00  0.00    +0.000 OA
ATOM      9  C   UNL     1       0.080  -0.218   0.000  0.00  0.00    +0.000 C 
ATOM     10  O   UNL     1      -0.727  -0.046   0.000  0.00  0.00    +0.000 OA
ATOM     11  C   UNL     1      -0.982   0.738   0.000  0.00  0.00    +0.000 C 
ATOM     12  C   UNL     1      -1.789   0.910   0.000  0.00  0.00    +0.000 C 
ATOM     13  O   UNL     1      -2.341   0.297   0.000  0.00  0.00    +0.000 OA
ATOM     14  C   UNL     1      -0.430   1.351   0.000  0.00  0.00    +0.000 C 
ATOM     15  O   UNL     1      -0.685   2.136   0.000  0.00  0.00    +0.000 OA
ATOM     16  C   UNL     1       0.377   1.180   0.000  0.00  0.00    +0.000 C 
ATOM     17  O   UNL     1       0.929   1.793   0.000  0.00  0.00    +0.000 OA
ATOM     18  C   UNL     1       0.632   0.395   0.000  0.00  0.00    +0.000 C 
ATOM     19  O   UNL     1       1.439   0.224   0.000  0.00  0.00    +0.000 OA
ATOM     20  C   UNL     1       0.451  -2.101   0.000  0.00  0.00    +0.000 C 
ATOM     21  O   UNL     1       1.235  -1.846   0.000  0.00  0.00    +0.000 OA
ATOM     22  C   UNL     1       0.196  -2.885   0.000  0.00  0.00    +0.000 C 
ATOM     23  O   UNL     1       0.681  -3.553   0.000  0.00  0.00    +0.000 OA
ENDROOT
TORSDOF 0
