ROOT
REMARK  Name = sulbactam
REMARK                            x       y       z     vdW  Elec       q    Type
REMARK                         _______ _______ _______ _____ _____    ______ ____
ATOM      1  C   UNL     1       2.560   0.793   0.000  0.00  0.00    +0.000 C 
ATOM      2  C   UNL     1       1.947   1.345   0.000  0.00  0.00    +0.000 C 
ATOM      3  C   UNL     1       2.560   1.897   0.000  0.00  0.00    +0.000 C 
ATOM      4  C   UNL     1       1.462   0.677   0.000  0.00  0.00    +0.000 C 
ATOM      5  N   UNL     1       0.677   0.932   0.000  0.00  0.00    +0.000 N 
ATOM      6  C   UNL     1       0.677   1.757   0.000  0.00  0.00    +0.000 C 
ATOM      7  C   UNL     1      -0.148   1.757   0.000  0.00  0.00    +0.000 C 
ATOM      8  C   UNL     1      -0.148   0.932   0.000  0.00  0.00    +0.000 C 
ATOM      9  O   UNL     1      -0.731   0.349   0.000  0.00  0.00    +0.000 OA
ATOM     10  S   UNL     1       1.462   2.012   0.000  0.00  0.00    +0.000 S 
ATOM     11  O   UNL     1       1.299   2.821   0.000  0.00  0.00    +0.000 OA
ATOM     12  O   UNL     1       2.069   2.571   0.000  0.00  0.00    +0.000 OA
ATOM     13  C   UNL     1       1.717  -0.107   0.000  0.00  0.00    +0.000 C 
ATOM     14  O   UNL     1       1.165  -0.720   0.000  0.00  0.00    +0.000 OA
ATOM     15  O   UNL     1       2.524  -0.279   0.000  0.00  0.00    +0.000 OA
ENDROOT
TORSDOF 0
