ROOT
REMARK  Name = sulfaethoxypyridazine
REMARK                            x       y       z     vdW  Elec       q    Type
REMARK                         _______ _______ _______ _____ _____    ______ ____
ATOM      1  C   UNL     1       1.429   0.000   0.000  0.00  0.00    +0.000 C 
ATOM      2  C   UNL     1       1.429  -0.825   0.000  0.00  0.00    +0.000 C 
ATOM      3  O   UNL     1       2.143  -1.238   0.000  0.00  0.00    +0.000 OA
ATOM      4  C   UNL     1       2.143  -2.062   0.000  0.00  0.00    +0.000 A 
ATOM      5  N   UNL     1       2.858  -2.475   0.000  0.00  0.00    +0.000 NA
ATOM      6  N   UNL     1       2.858  -3.300   0.000  0.00  0.00    +0.000 NA
ATOM      7  C   UNL     1       2.143  -3.712   0.000  0.00  0.00    +0.000 A 
ATOM      8  N   UNL     1       2.143  -4.537   0.000  0.00  0.00    +0.000 NA
ATOM      9  S   UNL     1       1.429  -4.950   0.000  0.00  0.00    +0.000 S 
ATOM     10  O   UNL     1       1.016  -4.236   0.000  0.00  0.00    +0.000 OA
ATOM     11  O   UNL     1       1.841  -5.665   0.000  0.00  0.00    +0.000 OA
ATOM     12  C   UNL     1       0.715  -5.362   0.000  0.00  0.00    +0.000 A 
ATOM     13  C   UNL     1       0.715  -6.188   0.000  0.00  0.00    +0.000 A 
ATOM     14  C   UNL     1       0.000  -6.600   0.000  0.00  0.00    +0.000 A 
ATOM     15  C   UNL     1      -0.715  -6.188   0.000  0.00  0.00    +0.000 A 
ATOM     16  N   UNL     1      -1.429  -6.600   0.000  0.00  0.00    +0.000 NA
ATOM     17  C   UNL     1      -0.715  -5.362   0.000  0.00  0.00    +0.000 A 
ATOM     18  C   UNL     1       0.000  -4.950   0.000  0.00  0.00    +0.000 A 
ATOM     19  C   UNL     1       1.429  -3.300   0.000  0.00  0.00    +0.000 A 
ATOM     20  C   UNL     1       1.429  -2.475   0.000  0.00  0.00    +0.000 A 
ENDROOT
TORSDOF 0
