ROOT
REMARK  Name = sulfobromophthalein
REMARK                            x       y       z     vdW  Elec       q    Type
REMARK                         _______ _______ _______ _____ _____    ______ ____
ATOM      1  O   UNL     1      -3.001   1.619   0.000  0.00  0.00    +0.000 OA
ATOM      2  C   UNL     1      -2.287   1.207   0.000  0.00  0.00    +0.000 A 
ATOM      3  C   UNL     1      -1.572   1.619   0.000  0.00  0.00    +0.000 A 
ATOM      4  C   UNL     1      -0.858   1.207   0.000  0.00  0.00    +0.000 A 
ATOM      5  C   UNL     1      -0.858   0.382   0.000  0.00  0.00    +0.000 A 
ATOM      6  C   UNL     1      -1.572  -0.030   0.000  0.00  0.00    +0.000 A 
ATOM      7  C   UNL     1      -2.287   0.382   0.000  0.00  0.00    +0.000 A 
ATOM      8  C   UNL     1      -0.143  -0.030   0.000  0.00  0.00    +0.000 C 
ATOM      9  O   UNL     1      -0.628  -0.698   0.000  0.00  0.00    +0.000 OA
ATOM     10  C   UNL     1      -0.143  -1.365   0.000  0.00  0.00    +0.000 C 
ATOM     11  O   UNL     1      -0.398  -2.150   0.000  0.00  0.00    +0.000 OA
ATOM     12  C   UNL     1       0.641  -1.110   0.000  0.00  0.00    +0.000 A 
ATOM     13  C   UNL     1       0.641  -0.285   0.000  0.00  0.00    +0.000 A 
ATOM     14  C   UNL     1       1.356   0.127   0.000  0.00  0.00    +0.000 A 
ATOM     15 BR   UNL     1       1.356   0.952   0.000  0.00  0.00    +0.000 Br
ATOM     16  C   UNL     1       2.070  -0.285   0.000  0.00  0.00    +0.000 A 
ATOM     17 BR   UNL     1       2.784   0.127   0.000  0.00  0.00    +0.000 Br
ATOM     18  C   UNL     1       2.070  -1.110   0.000  0.00  0.00    +0.000 A 
ATOM     19 BR   UNL     1       2.784  -1.523   0.000  0.00  0.00    +0.000 Br
ATOM     20  C   UNL     1       1.356  -1.523   0.000  0.00  0.00    +0.000 A 
ATOM     21 BR   UNL     1       1.356  -2.348   0.000  0.00  0.00    +0.000 Br
ATOM     22  C   UNL     1       0.192   0.723   0.000  0.00  0.00    +0.000 A 
ATOM     23  C   UNL     1      -0.293   1.391   0.000  0.00  0.00    +0.000 A 
ATOM     24  C   UNL     1       0.043   2.144   0.000  0.00  0.00    +0.000 A 
ATOM     25  C   UNL     1       0.863   2.231   0.000  0.00  0.00    +0.000 A 
ATOM     26  O   UNL     1       1.199   2.984   0.000  0.00  0.00    +0.000 OA
ATOM     27  C   UNL     1       1.348   1.563   0.000  0.00  0.00    +0.000 A 
ATOM     28  C   UNL     1       1.012   0.809   0.000  0.00  0.00    +0.000 A 
ATOM     29  S   UNL     1      -0.442   2.812   0.000  0.00  0.00    +0.000 S 
ATOM     30  O   UNL     1      -0.927   3.479   0.000  0.00  0.00    +0.000 OA
ATOM     31  O   UNL     1       0.225   3.297   0.000  0.00  0.00    +0.000 OA
ATOM     32  O   UNL     1      -1.110   2.327   0.000  0.00  0.00    +0.000 OA
ATOM     33  S   UNL     1      -1.572   2.445   0.000  0.00  0.00    +0.000 S 
ATOM     34  O   UNL     1      -1.572   3.269   0.000  0.00  0.00    +0.000 OA
ATOM     35  O   UNL     1      -0.905   2.929   0.000  0.00  0.00    +0.000 OA
ATOM     36  O   UNL     1      -2.397   2.445   0.000  0.00  0.00    +0.000 OA
ENDROOT
TORSDOF 0
