ROOT
REMARK  Name = sulfadoxine
REMARK                            x       y       z     vdW  Elec       q    Type
REMARK                         _______ _______ _______ _____ _____    ______ ____
ATOM      1  C   UNL     1       1.429  -0.825   0.000  0.00  0.00    +0.000 C 
ATOM      2  O   UNL     1       2.143  -1.238   0.000  0.00  0.00    +0.000 OA
ATOM      3  C   UNL     1       2.143  -2.062   0.000  0.00  0.00    +0.000 A 
ATOM      4  C   UNL     1       2.858  -2.475   0.000  0.00  0.00    +0.000 A 
ATOM      5  O   UNL     1       3.572  -2.062   0.000  0.00  0.00    +0.000 OA
ATOM      6  C   UNL     1       4.287  -2.475   0.000  0.00  0.00    +0.000 C 
ATOM      7  C   UNL     1       2.858  -3.300   0.000  0.00  0.00    +0.000 A 
ATOM      8  N   UNL     1       3.572  -3.712   0.000  0.00  0.00    +0.000 NA
ATOM      9  S   UNL     1       3.572  -4.537   0.000  0.00  0.00    +0.000 S 
ATOM     10  O   UNL     1       2.747  -4.537   0.000  0.00  0.00    +0.000 OA
ATOM     11  O   UNL     1       4.397  -4.537   0.000  0.00  0.00    +0.000 OA
ATOM     12  C   UNL     1       3.572  -5.362   0.000  0.00  0.00    +0.000 A 
ATOM     13  C   UNL     1       4.287  -5.775   0.000  0.00  0.00    +0.000 A 
ATOM     14  C   UNL     1       4.287  -6.600   0.000  0.00  0.00    +0.000 A 
ATOM     15  C   UNL     1       3.572  -7.013   0.000  0.00  0.00    +0.000 A 
ATOM     16  N   UNL     1       3.572  -7.838   0.000  0.00  0.00    +0.000 NA
ATOM     17  C   UNL     1       2.858  -6.600   0.000  0.00  0.00    +0.000 A 
ATOM     18  C   UNL     1       2.858  -5.775   0.000  0.00  0.00    +0.000 A 
ATOM     19  N   UNL     1       2.143  -3.712   0.000  0.00  0.00    +0.000 NA
ATOM     20  C   UNL     1       1.429  -3.300   0.000  0.00  0.00    +0.000 A 
ATOM     21  N   UNL     1       1.429  -2.475   0.000  0.00  0.00    +0.000 NA
ENDROOT
TORSDOF 0
