ROOT
REMARK  Name = sulfamazone
REMARK                            x       y       z     vdW  Elec       q    Type
REMARK                         _______ _______ _______ _____ _____    ______ ____
ATOM      1  C   UNL     1      -2.143   5.362   0.000  0.00  0.00    +0.000 C 
ATOM      2  O   UNL     1      -1.429   5.775   0.000  0.00  0.00    +0.000 OA
ATOM      3  C   UNL     1      -0.715   5.362   0.000  0.00  0.00    +0.000 A 
ATOM      4  C   UNL     1       0.000   5.775   0.000  0.00  0.00    +0.000 A 
ATOM      5  C   UNL     1       0.715   5.362   0.000  0.00  0.00    +0.000 A 
ATOM      6  C   UNL     1       0.715   4.537   0.000  0.00  0.00    +0.000 A 
ATOM      7  N   UNL     1       1.429   4.125   0.000  0.00  0.00    +0.000 NA
ATOM      8  S   UNL     1       1.429   3.300   0.000  0.00  0.00    +0.000 S 
ATOM      9  O   UNL     1       0.604   3.300   0.000  0.00  0.00    +0.000 OA
ATOM     10  O   UNL     1       2.254   3.300   0.000  0.00  0.00    +0.000 OA
ATOM     11  C   UNL     1       1.429   2.475   0.000  0.00  0.00    +0.000 A 
ATOM     12  C   UNL     1       2.143   2.062   0.000  0.00  0.00    +0.000 A 
ATOM     13  C   UNL     1       2.143   1.238   0.000  0.00  0.00    +0.000 A 
ATOM     14  C   UNL     1       1.429   0.825   0.000  0.00  0.00    +0.000 A 
ATOM     15  N   UNL     1       1.429   0.000   0.000  0.00  0.00    +0.000 NA
ATOM     16  C   UNL     1       0.715  -0.412   0.000  0.00  0.00    +0.000 C 
ATOM     17  C   UNL     1       0.715  -1.238   0.000  0.00  0.00    +0.000 A 
ATOM     18  C   UNL     1       1.382  -1.722   0.000  0.00  0.00    +0.000 A 
ATOM     19  C   UNL     1       2.167  -1.468   0.000  0.00  0.00    +0.000 C 
ATOM     20  N   UNL     1       1.127  -2.507   0.000  0.00  0.00    +0.000 N 
ATOM     21  C   UNL     1       1.612  -3.175   0.000  0.00  0.00    +0.000 C 
ATOM     22  N   UNL     1       0.302  -2.507   0.000  0.00  0.00    +0.000 N 
ATOM     23  C   UNL     1       0.047  -1.722   0.000  0.00  0.00    +0.000 A 
ATOM     24  O   UNL     1      -0.738  -1.468   0.000  0.00  0.00    +0.000 OA
ATOM     25  C   UNL     1      -0.183  -3.175   0.000  0.00  0.00    +0.000 A 
ATOM     26  C   UNL     1       0.153  -3.928   0.000  0.00  0.00    +0.000 A 
ATOM     27  C   UNL     1      -0.332  -4.596   0.000  0.00  0.00    +0.000 A 
ATOM     28  C   UNL     1      -1.153  -4.509   0.000  0.00  0.00    +0.000 A 
ATOM     29  C   UNL     1      -1.488  -3.756   0.000  0.00  0.00    +0.000 A 
ATOM     30  C   UNL     1      -1.003  -3.088   0.000  0.00  0.00    +0.000 A 
ATOM     31  S   UNL     1       0.000   0.000   0.000  0.00  0.00    +0.000 S 
ATOM     32  O   UNL     1      -0.715   0.412   0.000  0.00  0.00    +0.000 OA
ATOM     33  O   UNL     1      -0.412  -0.715   0.000  0.00  0.00    +0.000 OA
ATOM     34  O   UNL     1       0.412   0.715   0.000  0.00  0.00    +0.000 OA
ATOM     35  C   UNL     1       0.715   1.238   0.000  0.00  0.00    +0.000 A 
ATOM     36  C   UNL     1       0.715   2.062   0.000  0.00  0.00    +0.000 A 
ATOM     37  N   UNL     1       0.000   4.125   0.000  0.00  0.00    +0.000 NA
ATOM     38  N   UNL     1      -0.715   4.537   0.000  0.00  0.00    +0.000 NA
ENDROOT
TORSDOF 0
