ROOT
REMARK  Name = sulisatin
REMARK                            x       y       z     vdW  Elec       q    Type
REMARK                         _______ _______ _______ _____ _____    ______ ____
ATOM      1  C   UNL     1       3.279   2.062   0.000  0.00  0.00    +0.000 C 
ATOM      2  C   UNL     1       3.279   1.238   0.000  0.00  0.00    +0.000 A 
ATOM      3  C   UNL     1       3.993   0.825   0.000  0.00  0.00    +0.000 A 
ATOM      4  C   UNL     1       3.993   0.000   0.000  0.00  0.00    +0.000 A 
ATOM      5  C   UNL     1       3.279  -0.412   0.000  0.00  0.00    +0.000 A 
ATOM      6  C   UNL     1       2.564   0.000   0.000  0.00  0.00    +0.000 A 
ATOM      7  C   UNL     1       2.564   0.825   0.000  0.00  0.00    +0.000 A 
ATOM      8  N   UNL     1       1.780   1.080   0.000  0.00  0.00    +0.000 NA
ATOM      9  C   UNL     1       1.295   0.412   0.000  0.00  0.00    +0.000 C 
ATOM     10  O   UNL     1       0.470   0.412   0.000  0.00  0.00    +0.000 OA
ATOM     11  C   UNL     1       1.780  -0.255   0.000  0.00  0.00    +0.000 C 
ATOM     12  C   UNL     1       1.030  -0.598   0.000  0.00  0.00    +0.000 A 
ATOM     13  C   UNL     1       0.952  -1.420   0.000  0.00  0.00    +0.000 A 
ATOM     14  C   UNL     1       0.202  -1.763   0.000  0.00  0.00    +0.000 A 
ATOM     15  C   UNL     1      -0.470  -1.285   0.000  0.00  0.00    +0.000 A 
ATOM     16  O   UNL     1      -1.221  -1.629   0.000  0.00  0.00    +0.000 OA
ATOM     17  S   UNL     1      -1.893  -1.151   0.000  0.00  0.00    +0.000 S 
ATOM     18  O   UNL     1      -2.566  -0.673   0.000  0.00  0.00    +0.000 OA
ATOM     19  O   UNL     1      -2.371  -1.823   0.000  0.00  0.00    +0.000 OA
ATOM     20  O   UNL     1      -1.415  -0.478   0.000  0.00  0.00    +0.000 OA
ATOM     21  C   UNL     1      -0.393  -0.464   0.000  0.00  0.00    +0.000 A 
ATOM     22  C   UNL     1       0.357  -0.120   0.000  0.00  0.00    +0.000 A 
ATOM     23  C   UNL     1       1.943  -1.064   0.000  0.00  0.00    +0.000 A 
ATOM     24  C   UNL     1       2.725  -1.327   0.000  0.00  0.00    +0.000 A 
ATOM     25  C   UNL     1       2.888  -2.135   0.000  0.00  0.00    +0.000 A 
ATOM     26  C   UNL     1       2.269  -2.681   0.000  0.00  0.00    +0.000 A 
ATOM     27  O   UNL     1       2.432  -3.490   0.000  0.00  0.00    +0.000 OA
ATOM     28  S   UNL     1       3.214  -3.753   0.000  0.00  0.00    +0.000 S 
ATOM     29  O   UNL     1       3.996  -4.016   0.000  0.00  0.00    +0.000 OA
ATOM     30  O   UNL     1       2.951  -4.535   0.000  0.00  0.00    +0.000 OA
ATOM     31  O   UNL     1       3.477  -2.971   0.000  0.00  0.00    +0.000 OA
ATOM     32  C   UNL     1       1.487  -2.418   0.000  0.00  0.00    +0.000 A 
ATOM     33  C   UNL     1       1.324  -1.609   0.000  0.00  0.00    +0.000 A 
ENDROOT
TORSDOF 0
