ROOT
REMARK  Name = sulprostone
REMARK                            x       y       z     vdW  Elec       q    Type
REMARK                         _______ _______ _______ _____ _____    ______ ____
ATOM      1  C   UNL     1       4.895   2.826   0.000  0.00  0.00    +0.000 C 
ATOM      2  S   UNL     1       4.895   2.001   0.000  0.00  0.00    +0.000 S 
ATOM      3  O   UNL     1       4.070   2.001   0.000  0.00  0.00    +0.000 OA
ATOM      4  O   UNL     1       5.720   2.001   0.000  0.00  0.00    +0.000 OA
ATOM      5  N   UNL     1       4.895   1.176   0.000  0.00  0.00    +0.000 NA
ATOM      6  C   UNL     1       4.180   0.763   0.000  0.00  0.00    +0.000 C 
ATOM      7  O   UNL     1       3.466   1.176   0.000  0.00  0.00    +0.000 OA
ATOM      8  C   UNL     1       4.180  -0.062   0.000  0.00  0.00    +0.000 C 
ATOM      9  C   UNL     1       3.466  -0.474   0.000  0.00  0.00    +0.000 C 
ATOM     10  C   UNL     1       3.466  -1.299   0.000  0.00  0.00    +0.000 C 
ATOM     11  C   UNL     1       2.751  -1.712   0.000  0.00  0.00    +0.000 C 
ATOM     12  C   UNL     1       2.751  -2.537   0.000  0.00  0.00    +0.000 C 
ATOM     13  C   UNL     1       3.466  -2.949   0.000  0.00  0.00    +0.000 C 
ATOM     14  C   UNL     1       3.466  -3.774   0.000  0.00  0.00    +0.000 C 
ATOM     15  C   UNL     1       4.133  -4.259   0.000  0.00  0.00    +0.000 C 
ATOM     16  C   UNL     1       4.918  -4.004   0.000  0.00  0.00    +0.000 C 
ATOM     17  C   UNL     1       5.531  -4.556   0.000  0.00  0.00    +0.000 C 
ATOM     18  C   UNL     1       6.315  -4.301   0.000  0.00  0.00    +0.000 C 
ATOM     19  O   UNL     1       6.487  -3.494   0.000  0.00  0.00    +0.000 OA
ATOM     20  C   UNL     1       6.928  -4.853   0.000  0.00  0.00    +0.000 C 
ATOM     21  O   UNL     1       7.713  -4.598   0.000  0.00  0.00    +0.000 OA
ATOM     22  C   UNL     1       8.326  -5.150   0.000  0.00  0.00    +0.000 A 
ATOM     23  C   UNL     1       9.111  -4.895   0.000  0.00  0.00    +0.000 A 
ATOM     24  C   UNL     1       9.724  -5.447   0.000  0.00  0.00    +0.000 A 
ATOM     25  C   UNL     1       9.552  -6.254   0.000  0.00  0.00    +0.000 A 
ATOM     26  C   UNL     1       8.768  -6.509   0.000  0.00  0.00    +0.000 A 
ATOM     27  C   UNL     1       8.155  -5.957   0.000  0.00  0.00    +0.000 A 
ATOM     28  C   UNL     1       3.878  -5.044   0.000  0.00  0.00    +0.000 C 
ATOM     29  O   UNL     1       4.363  -5.711   0.000  0.00  0.00    +0.000 OA
ATOM     30  C   UNL     1       3.053  -5.044   0.000  0.00  0.00    +0.000 C 
ATOM     31  C   UNL     1       2.798  -4.259   0.000  0.00  0.00    +0.000 C 
ATOM     32  O   UNL     1       2.014  -4.004   0.000  0.00  0.00    +0.000 OA
ENDROOT
TORSDOF 0
