ROOT
REMARK  Name = sultopride
REMARK                            x       y       z     vdW  Elec       q    Type
REMARK                         _______ _______ _______ _____ _____    ______ ____
ATOM      1  C   UNL     1      -0.608  -1.299   0.000  0.00  0.00    +0.000 C 
ATOM      2  C   UNL     1      -1.322  -1.712   0.000  0.00  0.00    +0.000 C 
ATOM      3  N   UNL     1      -1.322  -2.537   0.000  0.00  0.00    +0.000 NA
ATOM      4  C   UNL     1      -0.655  -3.022   0.000  0.00  0.00    +0.000 C 
ATOM      5  C   UNL     1      -0.910  -3.806   0.000  0.00  0.00    +0.000 C 
ATOM      6  C   UNL     1      -1.735  -3.806   0.000  0.00  0.00    +0.000 C 
ATOM      7  C   UNL     1      -1.990  -3.022   0.000  0.00  0.00    +0.000 C 
ATOM      8  C   UNL     1      -2.774  -2.767   0.000  0.00  0.00    +0.000 C 
ATOM      9  N   UNL     1      -3.387  -3.319   0.000  0.00  0.00    +0.000 NA
ATOM     10  C   UNL     1      -4.172  -3.064   0.000  0.00  0.00    +0.000 C 
ATOM     11  O   UNL     1      -4.343  -2.257   0.000  0.00  0.00    +0.000 OA
ATOM     12  C   UNL     1      -4.785  -3.616   0.000  0.00  0.00    +0.000 A 
ATOM     13  C   UNL     1      -4.614  -4.423   0.000  0.00  0.00    +0.000 A 
ATOM     14  O   UNL     1      -3.829  -4.678   0.000  0.00  0.00    +0.000 OA
ATOM     15  C   UNL     1      -3.657  -5.485   0.000  0.00  0.00    +0.000 C 
ATOM     16  C   UNL     1      -5.227  -4.975   0.000  0.00  0.00    +0.000 A 
ATOM     17  C   UNL     1      -6.011  -4.720   0.000  0.00  0.00    +0.000 A 
ATOM     18  C   UNL     1      -6.183  -3.913   0.000  0.00  0.00    +0.000 A 
ATOM     19  C   UNL     1      -5.570  -3.361   0.000  0.00  0.00    +0.000 A 
ATOM     20  S   UNL     1      -6.967  -3.658   0.000  0.00  0.00    +0.000 S 
ATOM     21  O   UNL     1      -6.713  -2.873   0.000  0.00  0.00    +0.000 OA
ATOM     22  O   UNL     1      -7.222  -4.442   0.000  0.00  0.00    +0.000 OA
ATOM     23  C   UNL     1      -7.752  -3.403   0.000  0.00  0.00    +0.000 C 
ATOM     24  C   UNL     1      -8.365  -3.955   0.000  0.00  0.00    +0.000 C 
ENDROOT
TORSDOF 0
