ROOT
REMARK  Name = sultiame
REMARK                            x       y       z     vdW  Elec       q    Type
REMARK                         _______ _______ _______ _____ _____    ______ ____
ATOM      1  N   UNL     1       0.715   0.412   0.000  0.00  0.00    +0.000 NA
ATOM      2  S   UNL     1       0.715  -0.412   0.000  0.00  0.00    +0.000 S 
ATOM      3  O   UNL     1      -0.111  -0.412   0.000  0.00  0.00    +0.000 OA
ATOM      4  O   UNL     1       1.540  -0.412   0.000  0.00  0.00    +0.000 OA
ATOM      5  C   UNL     1       0.715  -1.238   0.000  0.00  0.00    +0.000 A 
ATOM      6  C   UNL     1       1.429  -1.650   0.000  0.00  0.00    +0.000 A 
ATOM      7  C   UNL     1       1.429  -2.475   0.000  0.00  0.00    +0.000 A 
ATOM      8  C   UNL     1       0.715  -2.888   0.000  0.00  0.00    +0.000 A 
ATOM      9  C   UNL     1       0.000  -2.475   0.000  0.00  0.00    +0.000 A 
ATOM     10  C   UNL     1       0.000  -1.650   0.000  0.00  0.00    +0.000 A 
ATOM     11  N   UNL     1       0.715  -3.712   0.000  0.00  0.00    +0.000 N 
ATOM     12  C   UNL     1       1.429  -4.125   0.000  0.00  0.00    +0.000 C 
ATOM     13  C   UNL     1       1.429  -4.950   0.000  0.00  0.00    +0.000 C 
ATOM     14  C   UNL     1       0.715  -5.362   0.000  0.00  0.00    +0.000 C 
ATOM     15  C   UNL     1       0.000  -4.950   0.000  0.00  0.00    +0.000 C 
ATOM     16  S   UNL     1       0.000  -4.125   0.000  0.00  0.00    +0.000 S 
ATOM     17  O   UNL     1      -0.825  -4.096   0.000  0.00  0.00    +0.000 OA
ATOM     18  O   UNL     1      -0.437  -3.425   0.000  0.00  0.00    +0.000 OA
ENDROOT
TORSDOF 0
