ROOT
REMARK  Name = symclosene
REMARK                            x       y       z     vdW  Elec       q    Type
REMARK                         _______ _______ _______ _____ _____    ______ ____
ATOM      1 CL   UNL     1       0.715   2.062   0.000  0.00  0.00    +0.000 Cl
ATOM      2  N   UNL     1       0.715   1.238   0.000  0.00  0.00    +0.000 N 
ATOM      3  C   UNL     1       1.429   0.825   0.000  0.00  0.00    +0.000 A 
ATOM      4  O   UNL     1       2.143   1.238   0.000  0.00  0.00    +0.000 OA
ATOM      5  N   UNL     1       1.429   0.000   0.000  0.00  0.00    +0.000 N 
ATOM      6 CL   UNL     1       2.143  -0.412   0.000  0.00  0.00    +0.000 Cl
ATOM      7  C   UNL     1       0.715  -0.412   0.000  0.00  0.00    +0.000 A 
ATOM      8  O   UNL     1       0.715  -1.238   0.000  0.00  0.00    +0.000 OA
ATOM      9  N   UNL     1       0.000   0.000   0.000  0.00  0.00    +0.000 N 
ATOM     10 CL   UNL     1      -0.715  -0.412   0.000  0.00  0.00    +0.000 Cl
ATOM     11  C   UNL     1       0.000   0.825   0.000  0.00  0.00    +0.000 A 
ATOM     12  O   UNL     1      -0.715   1.238   0.000  0.00  0.00    +0.000 OA
ENDROOT
TORSDOF 0
