ROOT
REMARK  Name = tafluprost
REMARK                            x       y       z     vdW  Elec       q    Type
REMARK                         _______ _______ _______ _____ _____    ______ ____
ATOM      1  C   UNL     1       3.013  -2.551   0.000  0.00  0.00    +0.000 C 
ATOM      2  C   UNL     1       3.838  -2.551   0.000  0.00  0.00    +0.000 C 
ATOM      3  C   UNL     1       4.250  -3.266   0.000  0.00  0.00    +0.000 C 
ATOM      4  O   UNL     1       4.250  -1.837   0.000  0.00  0.00    +0.000 OA
ATOM      5  C   UNL     1       5.075  -1.837   0.000  0.00  0.00    +0.000 C 
ATOM      6  O   UNL     1       5.488  -2.551   0.000  0.00  0.00    +0.000 OA
ATOM      7  C   UNL     1       5.488  -1.122   0.000  0.00  0.00    +0.000 C 
ATOM      8  C   UNL     1       6.313  -1.122   0.000  0.00  0.00    +0.000 C 
ATOM      9  C   UNL     1       6.725  -1.837   0.000  0.00  0.00    +0.000 C 
ATOM     10  C   UNL     1       7.550  -1.837   0.000  0.00  0.00    +0.000 C 
ATOM     11  C   UNL     1       7.963  -2.551   0.000  0.00  0.00    +0.000 C 
ATOM     12  C   UNL     1       7.550  -3.266   0.000  0.00  0.00    +0.000 C 
ATOM     13  C   UNL     1       7.963  -3.980   0.000  0.00  0.00    +0.000 C 
ATOM     14  C   UNL     1       8.783  -4.066   0.000  0.00  0.00    +0.000 C 
ATOM     15  O   UNL     1       9.335  -3.453   0.000  0.00  0.00    +0.000 OA
ATOM     16  C   UNL     1       8.955  -4.873   0.000  0.00  0.00    +0.000 C 
ATOM     17  C   UNL     1       8.240  -5.286   0.000  0.00  0.00    +0.000 C 
ATOM     18  O   UNL     1       8.154  -6.106   0.000  0.00  0.00    +0.000 OA
ATOM     19  C   UNL     1       7.627  -4.734   0.000  0.00  0.00    +0.000 C 
ATOM     20  C   UNL     1       6.820  -4.905   0.000  0.00  0.00    +0.000 C 
ATOM     21  C   UNL     1       6.268  -4.292   0.000  0.00  0.00    +0.000 C 
ATOM     22  C   UNL     1       5.461  -4.464   0.000  0.00  0.00    +0.000 C 
ATOM     23  F   UNL     1       5.290  -3.657   0.000  0.00  0.00    +0.000 F 
ATOM     24  F   UNL     1       5.633  -5.271   0.000  0.00  0.00    +0.000 F 
ATOM     25  C   UNL     1       4.654  -4.635   0.000  0.00  0.00    +0.000 C 
ATOM     26  O   UNL     1       4.399  -5.420   0.000  0.00  0.00    +0.000 OA
ATOM     27  C   UNL     1       3.592  -5.591   0.000  0.00  0.00    +0.000 A 
ATOM     28  C   UNL     1       3.337  -6.376   0.000  0.00  0.00    +0.000 A 
ATOM     29  C   UNL     1       2.530  -6.548   0.000  0.00  0.00    +0.000 A 
ATOM     30  C   UNL     1       1.978  -5.934   0.000  0.00  0.00    +0.000 A 
ATOM     31  C   UNL     1       2.233  -5.150   0.000  0.00  0.00    +0.000 A 
ATOM     32  C   UNL     1       3.040  -4.978   0.000  0.00  0.00    +0.000 A 
ENDROOT
TORSDOF 0
