ROOT
REMARK  Name = taurursodiol
REMARK                            x       y       z     vdW  Elec       q    Type
REMARK                         _______ _______ _______ _____ _____    ______ ____
ATOM      1  C   UNL     1       4.278  -1.206   0.000  0.00  0.00    +0.000 C 
ATOM      2  C   UNL     1       3.524  -1.541   0.000  0.00  0.00    +0.000 C 
ATOM      3  C   UNL     1       2.972  -0.928   0.000  0.00  0.00    +0.000 C 
ATOM      4  C   UNL     1       3.385  -0.213   0.000  0.00  0.00    +0.000 C 
ATOM      5  C   UNL     1       3.130   0.571   0.000  0.00  0.00    +0.000 C 
ATOM      6  C   UNL     1       2.323   0.743   0.000  0.00  0.00    +0.000 C 
ATOM      7  O   UNL     1       1.771   0.130   0.000  0.00  0.00    +0.000 OA
ATOM      8  C   UNL     1       2.068   1.527   0.000  0.00  0.00    +0.000 C 
ATOM      9  C   UNL     1       2.620   2.140   0.000  0.00  0.00    +0.000 C 
ATOM     10  C   UNL     1       2.365   2.925   0.000  0.00  0.00    +0.000 C 
ATOM     11  C   UNL     1       2.917   3.538   0.000  0.00  0.00    +0.000 C 
ATOM     12  O   UNL     1       2.662   4.323   0.000  0.00  0.00    +0.000 OA
ATOM     13  C   UNL     1       3.724   3.367   0.000  0.00  0.00    +0.000 C 
ATOM     14  C   UNL     1       3.979   2.582   0.000  0.00  0.00    +0.000 C 
ATOM     15  C   UNL     1       3.427   1.969   0.000  0.00  0.00    +0.000 C 
ATOM     16  C   UNL     1       4.234   1.797   0.000  0.00  0.00    +0.000 C 
ATOM     17  C   UNL     1       3.682   1.184   0.000  0.00  0.00    +0.000 C 
ATOM     18  C   UNL     1       4.489   1.013   0.000  0.00  0.00    +0.000 C 
ATOM     19  C   UNL     1       4.744   0.228   0.000  0.00  0.00    +0.000 C 
ATOM     20  C   UNL     1       4.192  -0.385   0.000  0.00  0.00    +0.000 C 
ATOM     21  C   UNL     1       4.976  -0.640   0.000  0.00  0.00    +0.000 C 
ATOM     22  C   UNL     1       4.992  -1.618   0.000  0.00  0.00    +0.000 C 
ATOM     23  C   UNL     1       4.992  -2.443   0.000  0.00  0.00    +0.000 C 
ATOM     24  C   UNL     1       5.707  -1.206   0.000  0.00  0.00    +0.000 C 
ATOM     25  C   UNL     1       6.421  -1.618   0.000  0.00  0.00    +0.000 C 
ATOM     26  C   UNL     1       7.136  -1.206   0.000  0.00  0.00    +0.000 C 
ATOM     27  O   UNL     1       7.136  -0.381   0.000  0.00  0.00    +0.000 OA
ATOM     28  N   UNL     1       7.850  -1.618   0.000  0.00  0.00    +0.000 NA
ATOM     29  C   UNL     1       8.565  -1.206   0.000  0.00  0.00    +0.000 C 
ATOM     30  C   UNL     1       9.279  -1.618   0.000  0.00  0.00    +0.000 C 
ATOM     31  S   UNL     1       9.994  -1.206   0.000  0.00  0.00    +0.000 S 
ATOM     32  O   UNL     1      10.708  -0.793   0.000  0.00  0.00    +0.000 OA
ATOM     33  O   UNL     1      10.406  -1.920   0.000  0.00  0.00    +0.000 OA
ATOM     34  O   UNL     1       9.581  -0.491   0.000  0.00  0.00    +0.000 OA
ENDROOT
TORSDOF 0
