ROOT
REMARK  Name = telavancin
REMARK                            x       y       z     vdW  Elec       q    Type
REMARK                         _______ _______ _______ _____ _____    ______ ____
ATOM      1  C   UNK A   3     -12.829   2.598   0.000  0.00  0.00    +0.000 C 
ATOM      2  C   UNK A   3     -12.115   3.010   0.000  0.00  0.00    +0.000 C 
ATOM      3  C   UNK A   3     -11.400   2.598   0.000  0.00  0.00    +0.000 C 
ATOM      4  C   UNK A   3     -10.686   3.010   0.000  0.00  0.00    +0.000 C 
ATOM      5  C   UNK A   3      -9.972   2.598   0.000  0.00  0.00    +0.000 C 
ATOM      6  C   UNK A   3      -9.257   3.010   0.000  0.00  0.00    +0.000 C 
ATOM      7  C   UNK A   3      -8.543   2.598   0.000  0.00  0.00    +0.000 C 
ATOM      8  C   UNK A   3      -7.828   3.010   0.000  0.00  0.00    +0.000 C 
ATOM      9  C   UNK A   3      -7.114   2.598   0.000  0.00  0.00    +0.000 C 
ATOM     10  C   UNK A   3      -6.399   3.010   0.000  0.00  0.00    +0.000 C 
ATOM     11  N   UNK A   3      -5.685   2.598   0.000  0.00  0.00    +0.000 NA
ATOM     12  C   UNK A   3      -4.970   3.010   0.000  0.00  0.00    +0.000 C 
ATOM     13  C   UNK A   3      -4.256   2.598   0.000  0.00  0.00    +0.000 C 
ATOM     14  N   UNK A   3      -3.541   3.010   0.000  0.00  0.00    +0.000 NA
ATOM     15  C   UNK A   3      -3.541   3.835   0.000  0.00  0.00    +0.000 C 
ATOM     16  C   UNK A   3      -4.354   3.692   0.000  0.00  0.00    +0.000 C 
ATOM     17  C   UNK A   3      -2.729   3.692   0.000  0.00  0.00    +0.000 C 
ATOM     18  C   UNK A   3      -2.199   4.324   0.000  0.00  0.00    +0.000 C 
ATOM     19  O   UNK A   3      -1.410   4.181   0.000  0.00  0.00    +0.000 OA
ATOM     20  C   UNK A   3      -1.060   3.283   0.000  0.00  0.00    +0.000 C 
ATOM     21  C   UNK A   3      -1.510   2.592   0.000  0.00  0.00    +0.000 C 
ATOM     22  O   UNK A   3      -2.419   2.283   0.000  0.00  0.00    +0.000 OA
ATOM     23  C   UNK A   3      -1.137   1.856   0.000  0.00  0.00    +0.000 C 
ATOM     24  O   UNK A   3      -1.792   1.391   0.000  0.00  0.00    +0.000 OA
ATOM     25  C   UNK A   3      -0.313   1.812   0.000  0.00  0.00    +0.000 C 
ATOM     26  C   UNK A   3      -0.203   1.333   0.000  0.00  0.00    +0.000 C 
ATOM     27  O   UNK A   3       1.230   1.082   0.000  0.00  0.00    +0.000 OA
ATOM     28  O   UNK A   3       0.137   2.503   0.000  0.00  0.00    +0.000 OA
ATOM     29  C   UNK A   3      -0.179   3.341   0.000  0.00  0.00    +0.000 C 
ATOM     30  O   UNK A   3       0.301   4.066   0.000  0.00  0.00    +0.000 OA
ATOM     31  C   UNK A   3       1.292   3.642   0.000  0.00  0.00    +0.000 A 
ATOM     32  C   UNK A   3       1.248   2.901   0.000  0.00  0.00    +0.000 A 
ATOM     33  O   UNK A   3       0.623   3.607   0.000  0.00  0.00    +0.000 OA
ATOM     34  C   UNK A   1       0.426   4.609   0.000  0.00  0.00    +0.000 A 
ATOM     35  C   UNK A   1       1.218   4.896   0.000  0.00  0.00    +0.000 A 
ATOM     36  C   UNK A   1       1.519   5.644   0.000  0.00  0.00    +0.000 A 
ATOM     37  C   UNK A   1       1.037   6.304   0.000  0.00  0.00    +0.000 A 
ATOM     38  C   UNK A   1       0.204   6.127   0.000  0.00  0.00    +0.000 A 
ATOM     39  C   UNK A   1      -0.074   5.322   0.000  0.00  0.00    +0.000 A 
ATOM     40 CL   UNK A   1      -0.589   6.056   0.000  0.00  0.00    +0.000 Cl
ATOM     41  C   UNK A   1       1.881   6.526   0.000  0.00  0.00    +0.000 C 
ATOM     42  O   UNK A   1       1.376   7.232   0.000  0.00  0.00    +0.000 OA
ATOM     43  C   UNK A   1       2.730   6.429   0.000  0.00  0.00    +0.000 C 
ATOM     44  N   UNK A   1       2.681   7.333   0.000  0.00  0.00    +0.000 NA
ATOM     45  C   UNK A   1       3.346   7.917   0.000  0.00  0.00    +0.000 C 
ATOM     46  O   UNK A   1       3.658   7.080   0.000  0.00  0.00    +0.000 OA
ATOM     47  C   UNK A   1       3.962   8.667   0.000  0.00  0.00    +0.000 C 
ATOM     48  C   UNK A   1       4.706   8.858   0.000  0.00  0.00    +0.000 C 
ATOM     49  C   UNK A   1       5.178   9.675   0.000  0.00  0.00    +0.000 C 
ATOM     50  C   UNK A   1       4.993  10.583   0.000  0.00  0.00    +0.000 C 
ATOM     51  C   UNK A   1       6.066  10.006   0.000  0.00  0.00    +0.000 C 
ATOM     52  N   UNK A   1       3.304   9.264   0.000  0.00  0.00    +0.000 NA
ATOM     53  C   ACE A   0       2.431   9.463   0.000  0.00  0.00    +0.000 C 
ATOM     54  C   UNK A   1       3.506   6.098   0.000  0.00  0.00    +0.000 C 
ATOM     55  O   UNK A   1       4.155   6.826   0.000  0.00  0.00    +0.000 OA
ATOM     56  N   ASN A   2       4.077   5.482   0.000  0.00  0.00    +0.000 NA
ATOM     57  CA  ASN A   2       4.385   4.708   0.000  0.00  0.00    +0.000 C 
ATOM     58  CB  ASN A   2       5.305   4.734   0.000  0.00  0.00    +0.000 C 
ATOM     59  CG  ASN A   2       6.130   5.391   0.000  0.00  0.00    +0.000 C 
ATOM     60  ND2 ASN A   2       6.960   5.332   0.000  0.00  0.00    +0.000 NA
ATOM     61  OD1 ASN A   2       6.517   6.158   0.000  0.00  0.00    +0.000 OA
ATOM     62  C   ASN A   2       4.385   3.874   0.000  0.00  0.00    +0.000 C 
ATOM     63  O   ASN A   2       5.105   3.419   0.000  0.00  0.00    +0.000 OA
ATOM     64  N   UNK A   3       4.081   3.096   0.000  0.00  0.00    +0.000 NA
ATOM     65  C   UNK A   3       3.423   2.572   0.000  0.00  0.00    +0.000 C 
ATOM     66  C   UNK A   3       2.745   3.091   0.000  0.00  0.00    +0.000 A 
ATOM     67  C   UNK A   3       2.594   3.926   0.000  0.00  0.00    +0.000 A 
ATOM     68  C   UNK A   3       1.780   4.211   0.000  0.00  0.00    +0.000 A 
ATOM     69  O   UNK A   3       0.824   4.104   0.000  0.00  0.00    +0.000 OA
ATOM     70  C   UNK A   3      -0.051   3.590   0.000  0.00  0.00    +0.000 A 
ATOM     71  C   UNK A   3       0.238   2.792   0.000  0.00  0.00    +0.000 A 
ATOM     72  C   UNK A   5      -0.183   2.094   0.000  0.00  0.00    +0.000 A 
ATOM     73  C   UNK A   5      -1.009   2.107   0.000  0.00  0.00    +0.000 A 
ATOM     74  C   UNK A   5      -1.386   2.858   0.000  0.00  0.00    +0.000 A 
ATOM     75  C   UNK A   3      -0.915   3.560   0.000  0.00  0.00    +0.000 A 
ATOM     76 CL   UNK A   3      -1.928   3.724   0.000  0.00  0.00    +0.000 Cl
ATOM     77  C   UNK A   5      -0.756   1.299   0.000  0.00  0.00    +0.000 C 
ATOM     78  O   UNK A   5      -1.375   1.046   0.000  0.00  0.00    +0.000 OA
ATOM     79  C   UNK A   5      -0.278   0.607   0.000  0.00  0.00    +0.000 C 
ATOM     80  N   UNK A   5       0.560   0.523   0.000  0.00  0.00    +0.000 NA
ATOM     81  C   UNK A   4       1.388   0.666   0.000  0.00  0.00    +0.000 C 
ATOM     82  O   UNK A   4       1.875   1.612   0.000  0.00  0.00    +0.000 OA
ATOM     83  C   UNK A   4       2.201   0.447   0.000  0.00  0.00    +0.000 C 
ATOM     84  N   UNK A   4       2.827   1.020   0.000  0.00  0.00    +0.000 NA
ATOM     85  C   UNK A   3       3.267   1.738   0.000  0.00  0.00    +0.000 C 
ATOM     86  O   UNK A   3       4.102   1.475   0.000  0.00  0.00    +0.000 OA
ATOM     87  C   UNK A   4       2.304  -0.401   0.000  0.00  0.00    +0.000 A 
ATOM     88  C   UNK A   4       3.078  -0.721   0.000  0.00  0.00    +0.000 A 
ATOM     89  C   UNK A   4       3.213  -1.540   0.000  0.00  0.00    +0.000 A 
ATOM     90  C   UNK A   4       2.564  -2.061   0.000  0.00  0.00    +0.000 A 
ATOM     91  O   UNK A   4       3.087  -2.750   0.000  0.00  0.00    +0.000 OA
ATOM     92  C   UNK A   4       1.776  -1.778   0.000  0.00  0.00    +0.000 A 
ATOM     93  C   UNK A   4       1.669  -0.947   0.000  0.00  0.00    +0.000 A 
ATOM     94  C   UNK A   4       1.084  -2.268   0.000  0.00  0.00    +0.000 A 
ATOM     95  C   UNK A   4       1.325  -3.057   0.000  0.00  0.00    +0.000 A 
ATOM     96  O   UNK A   4       1.955  -3.611   0.000  0.00  0.00    +0.000 OA
ATOM     97  C   UNK A   4       0.761  -3.659   0.000  0.00  0.00    +0.000 A 
ATOM     98  C   UNK A   4       1.000  -4.538   0.000  0.00  0.00    +0.000 C 
ATOM     99  N   UNK A   4       0.795  -5.441   0.000  0.00  0.00    +0.000 NA
ATOM    100  C   UNK A   4       1.153  -6.211   0.000  0.00  0.00    +0.000 C 
ATOM    101  P   UNK A   4       0.583  -6.874   0.000  0.00  0.00    +0.000 P 
ATOM    102  O   UNK A   4      -0.051  -7.515   0.000  0.00  0.00    +0.000 OA
ATOM    103  O   UNK A   4      -0.252  -6.657   0.000  0.00  0.00    +0.000 OA
ATOM    104  O   UNK A   4       1.280  -7.440   0.000  0.00  0.00    +0.000 OA
ATOM    105  C   UNK A   4      -0.042  -3.473   0.000  0.00  0.00    +0.000 A 
ATOM    106  O   UNK A   4      -0.648  -4.069   0.000  0.00  0.00    +0.000 OA
ATOM    107  C   UNK A   4      -0.283  -2.684   0.000  0.00  0.00    +0.000 A 
ATOM    108  C   UNK A   4       0.281  -2.081   0.000  0.00  0.00    +0.000 A 
ATOM    109  C   UNK A   4      -0.071  -1.325   0.000  0.00  0.00    +0.000 C 
ATOM    110  N   UNK A   4      -0.749  -0.848   0.000  0.00  0.00    +0.000 NA
ATOM    111  C   UNK A   5      -0.836  -0.021   0.000  0.00  0.00    +0.000 C 
ATOM    112  O   UNK A   5      -1.723  -0.233   0.000  0.00  0.00    +0.000 OA
ATOM    113  C   UNK A   4      -1.058  -1.771   0.000  0.00  0.00    +0.000 C 
ATOM    114  O   ACE A   6      -2.173  -1.883   0.000  0.00  0.00    +0.000 OA
ATOM    115  O   ACE A   6      -1.888  -2.091   0.000  0.00  0.00    +0.000 OA
ATOM    116  C   UNK A   3       2.048   2.598   0.000  0.00  0.00    +0.000 A 
ATOM    117  O   UNK A   3      -2.481   5.099   0.000  0.00  0.00    +0.000 OA
ATOM    118  C   UNK A   3      -3.293   5.242   0.000  0.00  0.00    +0.000 C 
ATOM    119  C   UNK A   3      -3.575   6.018   0.000  0.00  0.00    +0.000 C 
ATOM    120  C   UNK A   3      -3.824   4.610   0.000  0.00  0.00    +0.000 C 
ATOM    121  O   UNK A   3      -4.636   4.754   0.000  0.00  0.00    +0.000 OA
ENDROOT
TORSDOF 0
