ROOT
REMARK  Name = telotristat ethyl
REMARK                            x       y       z     vdW  Elec       q    Type
REMARK                         _______ _______ _______ _____ _____    ______ ____
ATOM      1  C   UNL     1       7.145  -5.775   0.000  0.00  0.00    +0.000 C 
ATOM      2  C   UNL     1       7.859  -5.362   0.000  0.00  0.00    +0.000 C 
ATOM      3  O   UNL     1       8.574  -5.775   0.000  0.00  0.00    +0.000 OA
ATOM      4  C   UNL     1       9.288  -5.362   0.000  0.00  0.00    +0.000 C 
ATOM      5  O   UNL     1       9.288  -4.537   0.000  0.00  0.00    +0.000 OA
ATOM      6  C   UNL     1      10.003  -5.775   0.000  0.00  0.00    +0.000 C 
ATOM      7  N   UNL     1      10.003  -6.600   0.000  0.00  0.00    +0.000 NA
ATOM      8  C   UNL     1      10.717  -5.362   0.000  0.00  0.00    +0.000 C 
ATOM      9  C   UNL     1      11.431  -5.775   0.000  0.00  0.00    +0.000 A 
ATOM     10  C   UNL     1      12.146  -5.362   0.000  0.00  0.00    +0.000 A 
ATOM     11  C   UNL     1      12.861  -5.775   0.000  0.00  0.00    +0.000 A 
ATOM     12  C   UNL     1      12.861  -6.600   0.000  0.00  0.00    +0.000 A 
ATOM     13  C   UNL     1      12.146  -7.013   0.000  0.00  0.00    +0.000 A 
ATOM     14  C   UNL     1      11.431  -6.600   0.000  0.00  0.00    +0.000 A 
ATOM     15  C   UNL     1      13.575  -7.013   0.000  0.00  0.00    +0.000 A 
ATOM     16  N   UNL     1      14.289  -6.600   0.000  0.00  0.00    +0.000 NA
ATOM     17  C   UNL     1      15.004  -7.013   0.000  0.00  0.00    +0.000 A 
ATOM     18  N   UNL     1      15.718  -6.600   0.000  0.00  0.00    +0.000 NA
ATOM     19  N   UNL     1      15.004  -7.838   0.000  0.00  0.00    +0.000 NA
ATOM     20  C   UNL     1      14.289  -8.250   0.000  0.00  0.00    +0.000 A 
ATOM     21  O   UNL     1      14.289  -9.075   0.000  0.00  0.00    +0.000 OA
ATOM     22  C   UNL     1      15.004  -9.488   0.000  0.00  0.00    +0.000 C 
ATOM     23  C   UNL     1      15.004 -10.312   0.000  0.00  0.00    +0.000 A 
ATOM     24  C   UNL     1      15.718 -10.725   0.000  0.00  0.00    +0.000 A 
ATOM     25  C   UNL     1      15.718 -11.550   0.000  0.00  0.00    +0.000 A 
ATOM     26  C   UNL     1      15.004 -11.963   0.000  0.00  0.00    +0.000 A 
ATOM     27 CL   UNL     1      15.004 -12.787   0.000  0.00  0.00    +0.000 Cl
ATOM     28  C   UNL     1      14.289 -11.550   0.000  0.00  0.00    +0.000 A 
ATOM     29  C   UNL     1      14.289 -10.725   0.000  0.00  0.00    +0.000 A 
ATOM     30  N   UNL     1      16.433 -10.312   0.000  0.00  0.00    +0.000 N 
ATOM     31  C   UNL     1      16.519  -9.492   0.000  0.00  0.00    +0.000 A 
ATOM     32  C   UNL     1      17.326  -9.320   0.000  0.00  0.00    +0.000 A 
ATOM     33  C   UNL     1      17.738 -10.035   0.000  0.00  0.00    +0.000 A 
ATOM     34  C   UNL     1      18.559 -10.121   0.000  0.00  0.00    +0.000 C 
ATOM     35  N   UNL     1      17.186 -10.648   0.000  0.00  0.00    +0.000 NA
ATOM     36  C   UNL     1      15.718  -9.075   0.000  0.00  0.00    +0.000 C 
ATOM     37  F   UNL     1      16.433  -8.662   0.000  0.00  0.00    +0.000 F 
ATOM     38  F   UNL     1      16.131  -9.790   0.000  0.00  0.00    +0.000 F 
ATOM     39  F   UNL     1      15.306  -8.361   0.000  0.00  0.00    +0.000 F 
ATOM     40  C   UNL     1      13.575  -7.838   0.000  0.00  0.00    +0.000 A 
ENDROOT
TORSDOF 0
