ROOT
REMARK  Name = tenonitrozole
REMARK                            x       y       z     vdW  Elec       q    Type
REMARK                         _______ _______ _______ _____ _____    ______ ____
ATOM      1  O   UNL     1       3.033  -0.724   0.000  0.00  0.00    +0.000 OA
ATOM      2  N   UNL     1       2.318  -1.136   0.000  0.00  0.00    +0.000 N 
ATOM      3  O   UNL     1       1.604  -0.724   0.000  0.00  0.00    +0.000 OA
ATOM      4  C   UNL     1       2.318  -1.961   0.000  0.00  0.00    +0.000 A 
ATOM      5  C   UNL     1       2.986  -2.446   0.000  0.00  0.00    +0.000 A 
ATOM      6  N   UNL     1       2.731  -3.231   0.000  0.00  0.00    +0.000 NA
ATOM      7  C   UNL     1       1.906  -3.231   0.000  0.00  0.00    +0.000 A 
ATOM      8  N   UNL     1       1.421  -3.898   0.000  0.00  0.00    +0.000 NA
ATOM      9  C   UNL     1       1.756  -4.652   0.000  0.00  0.00    +0.000 C 
ATOM     10  O   UNL     1       2.577  -4.738   0.000  0.00  0.00    +0.000 OA
ATOM     11  C   UNL     1       1.272  -5.319   0.000  0.00  0.00    +0.000 A 
ATOM     12  C   UNL     1       1.526  -6.104   0.000  0.00  0.00    +0.000 A 
ATOM     13  C   UNL     1       0.859  -6.589   0.000  0.00  0.00    +0.000 A 
ATOM     14  C   UNL     1       0.192  -6.104   0.000  0.00  0.00    +0.000 A 
ATOM     15  S   UNL     1       0.447  -5.319   0.000  0.00  0.00    +0.000 S 
ATOM     16  S   UNL     1       1.651  -2.446   0.000  0.00  0.00    +0.000 S 
ENDROOT
TORSDOF 0
