ROOT
REMARK  Name = terpin
REMARK                            x       y       z     vdW  Elec       q    Type
REMARK                         _______ _______ _______ _____ _____    ______ ____
ATOM      1  C   UNL     1       0.715  -2.062   0.000  0.00  0.00    +0.000 C 
ATOM      2  C   UNL     1       0.715  -1.238   0.000  0.00  0.00    +0.000 C 
ATOM      3  C   UNL     1       1.540  -1.238   0.000  0.00  0.00    +0.000 C 
ATOM      4  O   UNL     1      -0.111  -1.238   0.000  0.00  0.00    +0.000 OA
ATOM      5  C   UNL     1       0.715  -0.412   0.000  0.00  0.00    +0.000 C 
ATOM      6  C   UNL     1       0.000   0.000   0.000  0.00  0.00    +0.000 C 
ATOM      7  C   UNL     1       0.000   0.825   0.000  0.00  0.00    +0.000 C 
ATOM      8  C   UNL     1       0.715   1.238   0.000  0.00  0.00    +0.000 C 
ATOM      9  C   UNL     1       0.184   1.869   0.000  0.00  0.00    +0.000 C 
ATOM     10  O   UNL     1       1.245   1.869   0.000  0.00  0.00    +0.000 OA
ATOM     11  C   UNL     1       1.429   0.825   0.000  0.00  0.00    +0.000 C 
ATOM     12  C   UNL     1       1.429   0.000   0.000  0.00  0.00    +0.000 C 
ENDROOT
TORSDOF 0
