ROOT
REMARK  Name = tetrachloroethylene
REMARK                            x       y       z     vdW  Elec       q    Type
REMARK                         _______ _______ _______ _____ _____    ______ ____
ATOM      1 CL   UNL     1       1.238   0.715   0.000  0.00  0.00    +0.000 Cl
ATOM      2  C   UNL     1       0.825   0.000   0.000  0.00  0.00    +0.000 C 
ATOM      3 CL   UNL     1       1.238  -0.715   0.000  0.00  0.00    +0.000 Cl
ATOM      4  C   UNL     1       0.000   0.000   0.000  0.00  0.00    +0.000 C 
ATOM      5 CL   UNL     1      -0.412  -0.715   0.000  0.00  0.00    +0.000 Cl
ATOM      6 CL   UNL     1      -0.412   0.715   0.000  0.00  0.00    +0.000 Cl
ENDROOT
TORSDOF 0
