ROOT
REMARK  Name = tiamenidine
REMARK                            x       y       z     vdW  Elec       q    Type
REMARK                         _______ _______ _______ _____ _____    ______ ____
ATOM      1  C   UNL     1       0.018  -0.647   0.000  0.00  0.00    +0.000 C 
ATOM      2  C   UNL     1       0.018  -1.472   0.000  0.00  0.00    +0.000 A 
ATOM      3  C   UNL     1       0.685  -1.957   0.000  0.00  0.00    +0.000 A 
ATOM      4  S   UNL     1       0.430  -2.742   0.000  0.00  0.00    +0.000 S 
ATOM      5  C   UNL     1      -0.395  -2.742   0.000  0.00  0.00    +0.000 A 
ATOM      6 CL   UNL     1      -0.879  -3.409   0.000  0.00  0.00    +0.000 Cl
ATOM      7  C   UNL     1      -0.649  -1.957   0.000  0.00  0.00    +0.000 A 
ATOM      8  N   UNL     1      -1.434  -1.702   0.000  0.00  0.00    +0.000 NA
ATOM      9  C   UNL     1      -2.047  -2.254   0.000  0.00  0.00    +0.000 C 
ATOM     10  N   UNL     1      -1.961  -3.075   0.000  0.00  0.00    +0.000 NA
ATOM     11  C   UNL     1      -2.715  -3.410   0.000  0.00  0.00    +0.000 C 
ATOM     12  C   UNL     1      -3.267  -2.797   0.000  0.00  0.00    +0.000 C 
ATOM     13  N   UNL     1      -2.854  -2.083   0.000  0.00  0.00    +0.000 NA
ENDROOT
TORSDOF 0
