ROOT
REMARK  Name = tibezonium
REMARK                            x       y       z     vdW  Elec       q    Type
REMARK                         _______ _______ _______ _____ _____    ______ ____
ATOM      1  C   UNL     1       2.680  -3.341   0.000  0.00  0.00    +0.000 C 
ATOM      2  C   UNL     1       2.165  -2.696   0.000  0.00  0.00    +0.000 C 
ATOM      3  N   UNL     1       2.467  -1.929   0.000  0.00  0.00    +0.000 N 
ATOM      4  C   UNL     1       3.235  -2.230   0.000  0.00  0.00    +0.000 C 
ATOM      5  C   UNL     1       1.699  -1.627   0.000  0.00  0.00    +0.000 C 
ATOM      6  C   UNL     1       1.576  -0.811   0.000  0.00  0.00    +0.000 C 
ATOM      7  C   UNL     1       2.768  -1.161   0.000  0.00  0.00    +0.000 C 
ATOM      8  C   UNL     1       2.254  -0.515   0.000  0.00  0.00    +0.000 C 
ATOM      9  S   UNL     1       2.555   0.253   0.000  0.00  0.00    +0.000 S 
ATOM     10  C   UNL     1       2.041   0.897   0.000  0.00  0.00    +0.000 C 
ATOM     11  N   UNL     1       1.236   0.714   0.000  0.00  0.00    +0.000 NA
ATOM     12  C   UNL     1       0.592   1.228   0.000  0.00  0.00    +0.000 A 
ATOM     13  C   UNL     1      -0.123   0.816   0.000  0.00  0.00    +0.000 A 
ATOM     14  C   UNL     1      -0.837   1.228   0.000  0.00  0.00    +0.000 A 
ATOM     15  C   UNL     1      -0.837   2.053   0.000  0.00  0.00    +0.000 A 
ATOM     16  C   UNL     1      -0.123   2.466   0.000  0.00  0.00    +0.000 A 
ATOM     17  C   UNL     1       0.592   2.053   0.000  0.00  0.00    +0.000 A 
ATOM     18  N   UNL     1       1.236   2.568   0.000  0.00  0.00    +0.000 NA
ATOM     19  C   UNL     1       2.041   2.384   0.000  0.00  0.00    +0.000 C 
ATOM     20  C   UNL     1       2.399   1.641   0.000  0.00  0.00    +0.000 C 
ATOM     21  C   UNL     1       2.555   3.029   0.000  0.00  0.00    +0.000 A 
ATOM     22  C   UNL     1       2.254   3.797   0.000  0.00  0.00    +0.000 A 
ATOM     23  C   UNL     1       2.768   4.442   0.000  0.00  0.00    +0.000 A 
ATOM     24  C   UNL     1       3.584   4.319   0.000  0.00  0.00    +0.000 A 
ATOM     25  S   UNL     1       4.098   4.964   0.000  0.00  0.00    +0.000 S 
ATOM     26  C   UNL     1       3.797   5.732   0.000  0.00  0.00    +0.000 A 
ATOM     27  C   UNL     1       2.981   5.855   0.000  0.00  0.00    +0.000 A 
ATOM     28  C   UNL     1       2.680   6.623   0.000  0.00  0.00    +0.000 A 
ATOM     29  C   UNL     1       3.194   7.268   0.000  0.00  0.00    +0.000 A 
ATOM     30  C   UNL     1       4.010   7.145   0.000  0.00  0.00    +0.000 A 
ATOM     31  C   UNL     1       4.311   6.377   0.000  0.00  0.00    +0.000 A 
ATOM     32  C   UNL     1       3.885   3.551   0.000  0.00  0.00    +0.000 A 
ATOM     33  C   UNL     1       3.371   2.906   0.000  0.00  0.00    +0.000 A 
ENDROOT
TORSDOF 0
