ROOT
REMARK  Name = tirabrutinib hydrochloride
REMARK                            x       y       z     vdW  Elec       q    Type
REMARK                         _______ _______ _______ _____ _____    ______ ____
ATOM      1  C   UNL     1      -0.310   4.780   0.000  0.00  0.00    +0.000 C 
ATOM      2  C   UNL     1      -0.396   3.960   0.000  0.00  0.00    +0.000 C 
ATOM      3  C   UNL     1      -0.482   3.139   0.000  0.00  0.00    +0.000 C 
ATOM      4  C   UNL     1      -0.568   2.319   0.000  0.00  0.00    +0.000 C 
ATOM      5  O   UNL     1      -1.322   1.983   0.000  0.00  0.00    +0.000 OA
ATOM      6  N   UNL     1       0.099   1.834   0.000  0.00  0.00    +0.000 N 
ATOM      7  C   UNL     1       0.884   2.089   0.000  0.00  0.00    +0.000 C 
ATOM      8  C   UNL     1       1.369   1.422   0.000  0.00  0.00    +0.000 C 
ATOM      9  C   UNL     1       0.884   0.754   0.000  0.00  0.00    +0.000 C 
ATOM     10  C   UNL     1       0.099   1.009   0.000  0.00  0.00    +0.000 C 
ATOM     11  N   UNL     1       1.139  -0.030   0.000  0.00  0.00    +0.000 N 
ATOM     12  C   UNL     1       1.923  -0.285   0.000  0.00  0.00    +0.000 A 
ATOM     13  N   UNL     1       2.638   0.127   0.000  0.00  0.00    +0.000 NA
ATOM     14  C   UNL     1       3.352  -0.285   0.000  0.00  0.00    +0.000 A 
ATOM     15  N   UNL     1       3.352  -1.110   0.000  0.00  0.00    +0.000 NA
ATOM     16  C   UNL     1       2.638  -1.523   0.000  0.00  0.00    +0.000 A 
ATOM     17  C   UNL     1       1.923  -1.110   0.000  0.00  0.00    +0.000 A 
ATOM     18  N   UNL     1       1.139  -1.365   0.000  0.00  0.00    +0.000 N 
ATOM     19  C   UNL     1       0.654  -0.698   0.000  0.00  0.00    +0.000 A 
ATOM     20  O   UNL     1      -0.171  -0.698   0.000  0.00  0.00    +0.000 OA
ATOM     21  C   UNL     1       0.884  -2.150   0.000  0.00  0.00    +0.000 A 
ATOM     22  C   UNL     1       1.436  -2.763   0.000  0.00  0.00    +0.000 A 
ATOM     23  C   UNL     1       1.181  -3.548   0.000  0.00  0.00    +0.000 A 
ATOM     24  C   UNL     1       0.374  -3.719   0.000  0.00  0.00    +0.000 A 
ATOM     25  C   UNL     1      -0.178  -3.106   0.000  0.00  0.00    +0.000 A 
ATOM     26  C   UNL     1       0.077  -2.321   0.000  0.00  0.00    +0.000 A 
ATOM     27  O   UNL     1       0.119  -4.504   0.000  0.00  0.00    +0.000 OA
ATOM     28  C   UNL     1      -0.688  -4.675   0.000  0.00  0.00    +0.000 A 
ATOM     29  C   UNL     1      -0.943  -5.460   0.000  0.00  0.00    +0.000 A 
ATOM     30  C   UNL     1      -1.750  -5.631   0.000  0.00  0.00    +0.000 A 
ATOM     31  C   UNL     1      -2.302  -5.018   0.000  0.00  0.00    +0.000 A 
ATOM     32  C   UNL     1      -2.047  -4.234   0.000  0.00  0.00    +0.000 A 
ATOM     33  C   UNL     1      -1.240  -4.062   0.000  0.00  0.00    +0.000 A 
ATOM     34  N   UNL     1       2.638  -2.348   0.000  0.00  0.00    +0.000 NA
ENDROOT
TORSDOF 0
