ROOT
REMARK  Name = tirbanibulin
REMARK                            x       y       z     vdW  Elec       q    Type
REMARK                         _______ _______ _______ _____ _____    ______ ____
ATOM      1  C   UNL     1       5.001 -10.312   0.000  0.00  0.00    +0.000 C 
ATOM      2  C   UNL     1       5.001 -11.137   0.000  0.00  0.00    +0.000 C 
ATOM      3  O   UNL     1       4.287 -11.550   0.000  0.00  0.00    +0.000 OA
ATOM      4  C   UNL     1       3.572 -11.137   0.000  0.00  0.00    +0.000 C 
ATOM      5  C   UNL     1       3.572 -10.312   0.000  0.00  0.00    +0.000 C 
ATOM      6  N   UNL     1       4.287  -9.900   0.000  0.00  0.00    +0.000 NA
ATOM      7  C   UNL     1       4.287  -9.075   0.000  0.00  0.00    +0.000 C 
ATOM      8  C   UNL     1       5.001  -8.662   0.000  0.00  0.00    +0.000 C 
ATOM      9  O   UNL     1       5.001  -7.838   0.000  0.00  0.00    +0.000 OA
ATOM     10  C   UNL     1       5.716  -7.425   0.000  0.00  0.00    +0.000 A 
ATOM     11  C   UNL     1       5.716  -6.600   0.000  0.00  0.00    +0.000 A 
ATOM     12  C   UNL     1       6.430  -6.188   0.000  0.00  0.00    +0.000 A 
ATOM     13  C   UNL     1       7.145  -6.600   0.000  0.00  0.00    +0.000 A 
ATOM     14  C   UNL     1       7.145  -7.425   0.000  0.00  0.00    +0.000 A 
ATOM     15  C   UNL     1       6.430  -7.838   0.000  0.00  0.00    +0.000 A 
ATOM     16  C   UNL     1       7.859  -6.188   0.000  0.00  0.00    +0.000 A 
ATOM     17  C   UNL     1       7.859  -5.362   0.000  0.00  0.00    +0.000 A 
ATOM     18  N   UNL     1       8.574  -4.950   0.000  0.00  0.00    +0.000 NA
ATOM     19  C   UNL     1       9.288  -5.362   0.000  0.00  0.00    +0.000 A 
ATOM     20  C   UNL     1       9.288  -6.188   0.000  0.00  0.00    +0.000 A 
ATOM     21  C   UNL     1       8.574  -6.600   0.000  0.00  0.00    +0.000 A 
ATOM     22  C   UNL     1      10.003  -4.950   0.000  0.00  0.00    +0.000 C 
ATOM     23  C   UNL     1      10.003  -4.125   0.000  0.00  0.00    +0.000 C 
ATOM     24  O   UNL     1       9.288  -3.712   0.000  0.00  0.00    +0.000 OA
ATOM     25  N   UNL     1      10.717  -3.712   0.000  0.00  0.00    +0.000 NA
ATOM     26  C   UNL     1      10.717  -2.888   0.000  0.00  0.00    +0.000 C 
ATOM     27  C   UNL     1      11.431  -2.475   0.000  0.00  0.00    +0.000 A 
ATOM     28  C   UNL     1      11.431  -1.650   0.000  0.00  0.00    +0.000 A 
ATOM     29  C   UNL     1      12.146  -1.238   0.000  0.00  0.00    +0.000 A 
ATOM     30  C   UNL     1      12.861  -1.650   0.000  0.00  0.00    +0.000 A 
ATOM     31  C   UNL     1      12.861  -2.475   0.000  0.00  0.00    +0.000 A 
ATOM     32  C   UNL     1      12.146  -2.888   0.000  0.00  0.00    +0.000 A 
ENDROOT
TORSDOF 0
