ROOT
REMARK  Name = tiropramide
REMARK                            x       y       z     vdW  Elec       q    Type
REMARK                         _______ _______ _______ _____ _____    ______ ____
ATOM      1  C   UNL     1       1.350  -7.601   0.000  0.00  0.00    +0.000 C 
ATOM      2  C   UNL     1       1.620  -6.821   0.000  0.00  0.00    +0.000 C 
ATOM      3  C   UNL     1       1.080  -6.197   0.000  0.00  0.00    +0.000 C 
ATOM      4  N   UNL     1       1.350  -5.418   0.000  0.00  0.00    +0.000 N 
ATOM      5  C   UNL     1       0.810  -4.794   0.000  0.00  0.00    +0.000 C 
ATOM      6  C   UNL     1       0.000  -4.950   0.000  0.00  0.00    +0.000 C 
ATOM      7  C   UNL     1      -0.270  -5.730   0.000  0.00  0.00    +0.000 C 
ATOM      8  C   UNL     1       2.160  -5.262   0.000  0.00  0.00    +0.000 C 
ATOM      9  O   UNL     1       2.430  -4.482   0.000  0.00  0.00    +0.000 OA
ATOM     10  C   UNL     1       2.700  -5.886   0.000  0.00  0.00    +0.000 C 
ATOM     11  C   UNL     1       2.430  -6.665   0.000  0.00  0.00    +0.000 C 
ATOM     12  C   UNL     1       2.970  -7.289   0.000  0.00  0.00    +0.000 A 
ATOM     13  C   UNL     1       3.781  -7.133   0.000  0.00  0.00    +0.000 A 
ATOM     14  C   UNL     1       4.321  -7.756   0.000  0.00  0.00    +0.000 A 
ATOM     15  C   UNL     1       4.051  -8.536   0.000  0.00  0.00    +0.000 A 
ATOM     16  O   UNL     1       4.591  -9.160   0.000  0.00  0.00    +0.000 OA
ATOM     17  C   UNL     1       4.321  -9.939   0.000  0.00  0.00    +0.000 C 
ATOM     18  C   UNL     1       4.861 -10.563   0.000  0.00  0.00    +0.000 C 
ATOM     19  N   UNL     1       4.591 -11.342   0.000  0.00  0.00    +0.000 NA
ATOM     20  C   UNL     1       5.131 -11.966   0.000  0.00  0.00    +0.000 C 
ATOM     21  C   UNL     1       4.861 -12.745   0.000  0.00  0.00    +0.000 C 
ATOM     22  C   UNL     1       3.781 -11.498   0.000  0.00  0.00    +0.000 C 
ATOM     23  C   UNL     1       3.240 -10.875   0.000  0.00  0.00    +0.000 C 
ATOM     24  C   UNL     1       3.240  -8.692   0.000  0.00  0.00    +0.000 A 
ATOM     25  C   UNL     1       2.700  -8.068   0.000  0.00  0.00    +0.000 A 
ATOM     26  N   UNL     1       3.511  -5.730   0.000  0.00  0.00    +0.000 NA
ATOM     27  C   UNL     1       3.781  -4.950   0.000  0.00  0.00    +0.000 C 
ATOM     28  O   UNL     1       3.240  -4.326   0.000  0.00  0.00    +0.000 OA
ATOM     29  C   UNL     1       4.591  -4.794   0.000  0.00  0.00    +0.000 A 
ATOM     30  C   UNL     1       4.861  -4.014   0.000  0.00  0.00    +0.000 A 
ATOM     31  C   UNL     1       5.671  -3.859   0.000  0.00  0.00    +0.000 A 
ATOM     32  C   UNL     1       6.211  -4.482   0.000  0.00  0.00    +0.000 A 
ATOM     33  C   UNL     1       5.941  -5.262   0.000  0.00  0.00    +0.000 A 
ATOM     34  C   UNL     1       5.131  -5.418   0.000  0.00  0.00    +0.000 A 
ENDROOT
TORSDOF 0
