ROOT
REMARK  Name = tobuterol
REMARK                            x       y       z     vdW  Elec       q    Type
REMARK                         _______ _______ _______ _____ _____    ______ ____
ATOM      1  C   UNL     1       4.287  -4.125   0.000  0.00  0.00    +0.000 C 
ATOM      2  C   UNL     1       4.287  -4.950   0.000  0.00  0.00    +0.000 A 
ATOM      3  C   UNL     1       5.001  -5.362   0.000  0.00  0.00    +0.000 A 
ATOM      4  C   UNL     1       5.001  -6.188   0.000  0.00  0.00    +0.000 A 
ATOM      5  C   UNL     1       4.287  -6.600   0.000  0.00  0.00    +0.000 A 
ATOM      6  C   UNL     1       3.572  -6.188   0.000  0.00  0.00    +0.000 A 
ATOM      7  C   UNL     1       3.572  -5.362   0.000  0.00  0.00    +0.000 A 
ATOM      8  C   UNL     1       4.287  -7.425   0.000  0.00  0.00    +0.000 C 
ATOM      9  O   UNL     1       5.001  -7.838   0.000  0.00  0.00    +0.000 OA
ATOM     10  O   UNL     1       3.572  -7.838   0.000  0.00  0.00    +0.000 OA
ATOM     11  C   UNL     1       3.572  -8.662   0.000  0.00  0.00    +0.000 A 
ATOM     12  C   UNL     1       4.287  -9.075   0.000  0.00  0.00    +0.000 A 
ATOM     13  C   UNL     1       4.287  -9.900   0.000  0.00  0.00    +0.000 A 
ATOM     14  C   UNL     1       3.572 -10.312   0.000  0.00  0.00    +0.000 A 
ATOM     15  C   UNL     1       2.858  -9.900   0.000  0.00  0.00    +0.000 A 
ATOM     16  O   UNL     1       2.143 -10.312   0.000  0.00  0.00    +0.000 OA
ATOM     17  C   UNL     1       2.143 -11.137   0.000  0.00  0.00    +0.000 C 
ATOM     18  O   UNL     1       2.858 -11.550   0.000  0.00  0.00    +0.000 OA
ATOM     19  C   UNL     1       1.429 -11.550   0.000  0.00  0.00    +0.000 A 
ATOM     20  C   UNL     1       1.429 -12.375   0.000  0.00  0.00    +0.000 A 
ATOM     21  C   UNL     1       0.715 -12.787   0.000  0.00  0.00    +0.000 A 
ATOM     22  C   UNL     1       0.000 -12.375   0.000  0.00  0.00    +0.000 A 
ATOM     23  C   UNL     1      -0.715 -12.787   0.000  0.00  0.00    +0.000 C 
ATOM     24  C   UNL     1       0.000 -11.550   0.000  0.00  0.00    +0.000 A 
ATOM     25  C   UNL     1       0.715 -11.137   0.000  0.00  0.00    +0.000 A 
ATOM     26  C   UNL     1       2.858  -9.075   0.000  0.00  0.00    +0.000 A 
ATOM     27  C   UNL     1       5.001 -10.312   0.000  0.00  0.00    +0.000 C 
ATOM     28  O   UNL     1       5.001 -11.137   0.000  0.00  0.00    +0.000 OA
ATOM     29  C   UNL     1       5.716  -9.900   0.000  0.00  0.00    +0.000 C 
ATOM     30  N   UNL     1       6.430 -10.312   0.000  0.00  0.00    +0.000 NA
ATOM     31  C   UNL     1       6.430 -11.137   0.000  0.00  0.00    +0.000 C 
ATOM     32  C   UNL     1       5.605 -11.137   0.000  0.00  0.00    +0.000 C 
ATOM     33  C   UNL     1       7.255 -11.137   0.000  0.00  0.00    +0.000 C 
ATOM     34  C   UNL     1       6.430 -11.963   0.000  0.00  0.00    +0.000 C 
ENDROOT
TORSDOF 0
