ROOT
REMARK  Name = tocopherol succinate
REMARK                            x       y       z     vdW  Elec       q    Type
REMARK                         _______ _______ _______ _____ _____    ______ ____
ATOM      1  C   UNL     1       7.710   0.431   0.000  0.00  0.00    +0.000 C 
ATOM      2  C   UNL     1       8.425   0.843   0.000  0.00  0.00    +0.000 C 
ATOM      3  C   UNL     1       8.425   1.668   0.000  0.00  0.00    +0.000 C 
ATOM      4  C   UNL     1       9.139   0.431   0.000  0.00  0.00    +0.000 C 
ATOM      5  C   UNL     1       9.854   0.843   0.000  0.00  0.00    +0.000 C 
ATOM      6  C   UNL     1      10.568   0.431   0.000  0.00  0.00    +0.000 C 
ATOM      7  C   UNL     1      11.283   0.843   0.000  0.00  0.00    +0.000 C 
ATOM      8  C   UNL     1      11.283   1.668   0.000  0.00  0.00    +0.000 C 
ATOM      9  C   UNL     1      11.997   0.431   0.000  0.00  0.00    +0.000 C 
ATOM     10  C   UNL     1      12.712   0.843   0.000  0.00  0.00    +0.000 C 
ATOM     11  C   UNL     1      13.426   0.431   0.000  0.00  0.00    +0.000 C 
ATOM     12  C   UNL     1      14.141   0.843   0.000  0.00  0.00    +0.000 C 
ATOM     13  C   UNL     1      14.141   1.668   0.000  0.00  0.00    +0.000 C 
ATOM     14  C   UNL     1      14.855   0.431   0.000  0.00  0.00    +0.000 C 
ATOM     15  C   UNL     1      15.570   0.843   0.000  0.00  0.00    +0.000 C 
ATOM     16  C   UNL     1      16.284   0.431   0.000  0.00  0.00    +0.000 C 
ATOM     17  C   UNL     1      16.284  -0.394   0.000  0.00  0.00    +0.000 C 
ATOM     18  C   UNL     1      15.472  -0.251   0.000  0.00  0.00    +0.000 C 
ATOM     19  C   UNL     1      17.097  -0.251   0.000  0.00  0.00    +0.000 C 
ATOM     20  C   UNL     1      17.627  -0.883   0.000  0.00  0.00    +0.000 C 
ATOM     21  C   UNL     1      17.345  -1.658   0.000  0.00  0.00    +0.000 A 
ATOM     22  C   UNL     1      17.875  -2.290   0.000  0.00  0.00    +0.000 A 
ATOM     23  C   UNL     1      18.688  -2.147   0.000  0.00  0.00    +0.000 C 
ATOM     24  C   UNL     1      17.593  -3.065   0.000  0.00  0.00    +0.000 A 
ATOM     25  O   UNL     1      18.123  -3.697   0.000  0.00  0.00    +0.000 OA
ATOM     26  C   UNL     1      18.936  -3.554   0.000  0.00  0.00    +0.000 C 
ATOM     27  O   UNL     1      19.218  -2.779   0.000  0.00  0.00    +0.000 OA
ATOM     28  C   UNL     1      19.466  -4.186   0.000  0.00  0.00    +0.000 C 
ATOM     29  C   UNL     1      20.278  -4.043   0.000  0.00  0.00    +0.000 C 
ATOM     30  C   UNL     1      20.809  -4.675   0.000  0.00  0.00    +0.000 C 
ATOM     31  O   UNL     1      21.621  -4.532   0.000  0.00  0.00    +0.000 OA
ATOM     32  O   UNL     1      20.526  -5.450   0.000  0.00  0.00    +0.000 OA
ATOM     33  C   UNL     1      16.780  -3.209   0.000  0.00  0.00    +0.000 A 
ATOM     34  C   UNL     1      16.498  -3.984   0.000  0.00  0.00    +0.000 C 
ATOM     35  C   UNL     1      16.250  -2.577   0.000  0.00  0.00    +0.000 A 
ATOM     36  C   UNL     1      15.438  -2.720   0.000  0.00  0.00    +0.000 C 
ATOM     37  C   UNL     1      16.532  -1.801   0.000  0.00  0.00    +0.000 A 
ATOM     38  O   UNL     1      16.002  -1.169   0.000  0.00  0.00    +0.000 OA
ENDROOT
TORSDOF 0
