ROOT
REMARK  Name = tolciclate
REMARK                            x       y       z     vdW  Elec       q    Type
REMARK                         _______ _______ _______ _____ _____    ______ ____
ATOM      1  C   UNL     1       5.368  -1.026   0.000  0.00  0.00    +0.000 C 
ATOM      2  N   UNL     1       4.654  -1.438   0.000  0.00  0.00    +0.000 N 
ATOM      3  C   UNL     1       3.939  -1.026   0.000  0.00  0.00    +0.000 C 
ATOM      4  S   UNL     1       3.225  -1.438   0.000  0.00  0.00    +0.000 S 
ATOM      5  O   UNL     1       3.939  -0.201   0.000  0.00  0.00    +0.000 OA
ATOM      6  C   UNL     1       3.225   0.212   0.000  0.00  0.00    +0.000 A 
ATOM      7  C   UNL     1       2.510  -0.201   0.000  0.00  0.00    +0.000 A 
ATOM      8  C   UNL     1       1.796   0.212   0.000  0.00  0.00    +0.000 A 
ATOM      9  C   UNL     1       1.796   1.037   0.000  0.00  0.00    +0.000 A 
ATOM     10  C   UNL     1       2.510   1.449   0.000  0.00  0.00    +0.000 A 
ATOM     11  C   UNL     1       3.225   1.037   0.000  0.00  0.00    +0.000 A 
ATOM     12  C   UNL     1       1.081   1.449   0.000  0.00  0.00    +0.000 C 
ATOM     13  C   UNL     1       0.367   1.037   0.000  0.00  0.00    +0.000 C 
ATOM     14  C   UNL     1       0.367   0.212   0.000  0.00  0.00    +0.000 C 
ATOM     15  C   UNL     1       1.081  -0.201   0.000  0.00  0.00    +0.000 C 
ATOM     16  C   UNL     1       1.288   0.624   0.000  0.00  0.00    +0.000 C 
ATOM     17  C   UNL     1       4.654  -2.263   0.000  0.00  0.00    +0.000 A 
ATOM     18  C   UNL     1       5.368  -2.676   0.000  0.00  0.00    +0.000 A 
ATOM     19  C   UNL     1       5.368  -3.501   0.000  0.00  0.00    +0.000 A 
ATOM     20  C   UNL     1       6.083  -3.913   0.000  0.00  0.00    +0.000 C 
ATOM     21  C   UNL     1       4.654  -3.913   0.000  0.00  0.00    +0.000 A 
ATOM     22  C   UNL     1       3.939  -3.501   0.000  0.00  0.00    +0.000 A 
ATOM     23  C   UNL     1       3.939  -2.676   0.000  0.00  0.00    +0.000 A 
ENDROOT
TORSDOF 0
