ROOT
REMARK  Name = tolindate
REMARK                            x       y       z     vdW  Elec       q    Type
REMARK                         _______ _______ _______ _____ _____    ______ ____
ATOM      1  C   UNL     1       4.213  -0.127   0.000  0.00  0.00    +0.000 C 
ATOM      2  N   UNL     1       3.499  -0.540   0.000  0.00  0.00    +0.000 N 
ATOM      3  C   UNL     1       2.784  -0.127   0.000  0.00  0.00    +0.000 C 
ATOM      4  S   UNL     1       2.070  -0.540   0.000  0.00  0.00    +0.000 S 
ATOM      5  O   UNL     1       2.784   0.698   0.000  0.00  0.00    +0.000 OA
ATOM      6  C   UNL     1       2.070   1.110   0.000  0.00  0.00    +0.000 A 
ATOM      7  C   UNL     1       1.356   0.698   0.000  0.00  0.00    +0.000 A 
ATOM      8  C   UNL     1       0.641   1.110   0.000  0.00  0.00    +0.000 A 
ATOM      9  C   UNL     1       0.641   1.935   0.000  0.00  0.00    +0.000 A 
ATOM     10  C   UNL     1      -0.143   2.190   0.000  0.00  0.00    +0.000 C 
ATOM     11  C   UNL     1      -0.628   1.523   0.000  0.00  0.00    +0.000 C 
ATOM     12  C   UNL     1      -0.143   0.856   0.000  0.00  0.00    +0.000 C 
ATOM     13  C   UNL     1       1.356   2.348   0.000  0.00  0.00    +0.000 A 
ATOM     14  C   UNL     1       2.070   1.935   0.000  0.00  0.00    +0.000 A 
ATOM     15  C   UNL     1       3.499  -1.365   0.000  0.00  0.00    +0.000 A 
ATOM     16  C   UNL     1       4.213  -1.777   0.000  0.00  0.00    +0.000 A 
ATOM     17  C   UNL     1       4.213  -2.602   0.000  0.00  0.00    +0.000 A 
ATOM     18  C   UNL     1       4.928  -3.015   0.000  0.00  0.00    +0.000 C 
ATOM     19  C   UNL     1       3.499  -3.015   0.000  0.00  0.00    +0.000 A 
ATOM     20  C   UNL     1       2.784  -2.602   0.000  0.00  0.00    +0.000 A 
ATOM     21  C   UNL     1       2.784  -1.777   0.000  0.00  0.00    +0.000 A 
ENDROOT
TORSDOF 0
