ROOT
REMARK  Name = tonzonium
REMARK                            x       y       z     vdW  Elec       q    Type
REMARK                         _______ _______ _______ _____ _____    ______ ____
ATOM      1  C   UNL     1      12.861  -2.475   0.000  0.00  0.00    +0.000 C 
ATOM      2  C   UNL     1      13.575  -2.062   0.000  0.00  0.00    +0.000 C 
ATOM      3  C   UNL     1      14.289  -2.475   0.000  0.00  0.00    +0.000 C 
ATOM      4  C   UNL     1      15.004  -2.062   0.000  0.00  0.00    +0.000 C 
ATOM      5  C   UNL     1      15.718  -2.475   0.000  0.00  0.00    +0.000 C 
ATOM      6  C   UNL     1      16.433  -2.062   0.000  0.00  0.00    +0.000 C 
ATOM      7  C   UNL     1      17.147  -2.475   0.000  0.00  0.00    +0.000 C 
ATOM      8  C   UNL     1      17.862  -2.062   0.000  0.00  0.00    +0.000 C 
ATOM      9  C   UNL     1      18.576  -2.475   0.000  0.00  0.00    +0.000 C 
ATOM     10  C   UNL     1      19.291  -2.062   0.000  0.00  0.00    +0.000 C 
ATOM     11  C   UNL     1      20.005  -2.475   0.000  0.00  0.00    +0.000 C 
ATOM     12  C   UNL     1      20.720  -2.062   0.000  0.00  0.00    +0.000 C 
ATOM     13  C   UNL     1      21.434  -2.475   0.000  0.00  0.00    +0.000 C 
ATOM     14  C   UNL     1      22.149  -2.062   0.000  0.00  0.00    +0.000 C 
ATOM     15  C   UNL     1      22.863  -2.475   0.000  0.00  0.00    +0.000 C 
ATOM     16  C   UNL     1      23.578  -2.062   0.000  0.00  0.00    +0.000 C 
ATOM     17  N   UNL     1      24.292  -2.475   0.000  0.00  0.00    +0.000 N 
ATOM     18  C   UNL     1      23.880  -3.189   0.000  0.00  0.00    +0.000 C 
ATOM     19  C   UNL     1      24.704  -1.760   0.000  0.00  0.00    +0.000 C 
ATOM     20  C   UNL     1      25.006  -2.888   0.000  0.00  0.00    +0.000 C 
ATOM     21  C   UNL     1      25.721  -2.475   0.000  0.00  0.00    +0.000 C 
ATOM     22  N   UNL     1      26.435  -2.888   0.000  0.00  0.00    +0.000 N 
ATOM     23  C   UNL     1      27.150  -2.475   0.000  0.00  0.00    +0.000 C 
ATOM     24  C   UNL     1      27.864  -2.888   0.000  0.00  0.00    +0.000 A 
ATOM     25  C   UNL     1      28.579  -2.475   0.000  0.00  0.00    +0.000 A 
ATOM     26  C   UNL     1      29.293  -2.888   0.000  0.00  0.00    +0.000 A 
ATOM     27  C   UNL     1      29.293  -3.712   0.000  0.00  0.00    +0.000 A 
ATOM     28  O   UNL     1      30.008  -4.125   0.000  0.00  0.00    +0.000 OA
ATOM     29  C   UNL     1      30.722  -3.712   0.000  0.00  0.00    +0.000 C 
ATOM     30  C   UNL     1      28.579  -4.125   0.000  0.00  0.00    +0.000 A 
ATOM     31  C   UNL     1      27.864  -3.712   0.000  0.00  0.00    +0.000 A 
ATOM     32  C   UNL     1      26.435  -3.712   0.000  0.00  0.00    +0.000 A 
ATOM     33  N   UNL     1      27.150  -4.125   0.000  0.00  0.00    +0.000 NA
ATOM     34  C   UNL     1      27.150  -4.950   0.000  0.00  0.00    +0.000 A 
ATOM     35  C   UNL     1      26.435  -5.362   0.000  0.00  0.00    +0.000 A 
ATOM     36  C   UNL     1      25.721  -4.950   0.000  0.00  0.00    +0.000 A 
ATOM     37  N   UNL     1      25.721  -4.125   0.000  0.00  0.00    +0.000 NA
ENDROOT
TORSDOF 0
