ROOT
REMARK  Name = trazodone
REMARK                            x       y       z     vdW  Elec       q    Type
REMARK                         _______ _______ _______ _____ _____    ______ ____
ATOM      1 CL   UNL     1      -2.646  -6.414   0.000  0.00  0.00    +0.000 Cl
ATOM      2  C   UNL     1      -3.059  -5.699   0.000  0.00  0.00    +0.000 A 
ATOM      3  C   UNL     1      -3.884  -5.699   0.000  0.00  0.00    +0.000 A 
ATOM      4  C   UNL     1      -4.296  -4.985   0.000  0.00  0.00    +0.000 A 
ATOM      5  C   UNL     1      -3.884  -4.270   0.000  0.00  0.00    +0.000 A 
ATOM      6  C   UNL     1      -3.059  -4.270   0.000  0.00  0.00    +0.000 A 
ATOM      7  C   UNL     1      -2.646  -4.985   0.000  0.00  0.00    +0.000 A 
ATOM      8  N   UNL     1      -2.646  -3.556   0.000  0.00  0.00    +0.000 N 
ATOM      9  C   UNL     1      -3.059  -2.841   0.000  0.00  0.00    +0.000 C 
ATOM     10  C   UNL     1      -2.646  -2.127   0.000  0.00  0.00    +0.000 C 
ATOM     11  N   UNL     1      -1.821  -2.127   0.000  0.00  0.00    +0.000 NA
ATOM     12  C   UNL     1      -1.409  -1.412   0.000  0.00  0.00    +0.000 C 
ATOM     13  C   UNL     1      -0.584  -1.412   0.000  0.00  0.00    +0.000 C 
ATOM     14  C   UNL     1      -0.171  -0.698   0.000  0.00  0.00    +0.000 C 
ATOM     15  N   UNL     1       0.654  -0.698   0.000  0.00  0.00    +0.000 N 
ATOM     16  N   UNL     1       1.139  -0.030   0.000  0.00  0.00    +0.000 NA
ATOM     17  C   UNL     1       1.923  -0.285   0.000  0.00  0.00    +0.000 A 
ATOM     18  C   UNL     1       2.638   0.127   0.000  0.00  0.00    +0.000 A 
ATOM     19  C   UNL     1       3.352  -0.285   0.000  0.00  0.00    +0.000 A 
ATOM     20  C   UNL     1       3.352  -1.110   0.000  0.00  0.00    +0.000 A 
ATOM     21  C   UNL     1       2.638  -1.523   0.000  0.00  0.00    +0.000 A 
ATOM     22  N   UNL     1       1.923  -1.110   0.000  0.00  0.00    +0.000 N 
ATOM     23  C   UNL     1       1.139  -1.365   0.000  0.00  0.00    +0.000 A 
ATOM     24  O   UNL     1       0.884  -2.150   0.000  0.00  0.00    +0.000 OA
ATOM     25  C   UNL     1      -1.409  -2.841   0.000  0.00  0.00    +0.000 C 
ATOM     26  C   UNL     1      -1.821  -3.556   0.000  0.00  0.00    +0.000 C 
ENDROOT
TORSDOF 0
