ROOT
REMARK  Name = tretinoin tocoferil
REMARK                            x       y       z     vdW  Elec       q    Type
REMARK                         _______ _______ _______ _____ _____    ______ ____
ATOM      1  C   UNL     1       2.881  -5.950   0.000  0.00  0.00    +0.000 C 
ATOM      2  C   UNL     1       3.706  -5.950   0.000  0.00  0.00    +0.000 C 
ATOM      3  C   UNL     1       4.119  -5.235   0.000  0.00  0.00    +0.000 C 
ATOM      4  C   UNL     1       4.119  -6.664   0.000  0.00  0.00    +0.000 C 
ATOM      5  C   UNL     1       4.944  -6.664   0.000  0.00  0.00    +0.000 C 
ATOM      6  C   UNL     1       5.356  -7.379   0.000  0.00  0.00    +0.000 C 
ATOM      7  C   UNL     1       6.181  -7.379   0.000  0.00  0.00    +0.000 C 
ATOM      8  C   UNL     1       6.594  -6.664   0.000  0.00  0.00    +0.000 C 
ATOM      9  C   UNL     1       6.594  -8.093   0.000  0.00  0.00    +0.000 C 
ATOM     10  C   UNL     1       7.419  -8.093   0.000  0.00  0.00    +0.000 C 
ATOM     11  C   UNL     1       7.831  -8.808   0.000  0.00  0.00    +0.000 C 
ATOM     12  C   UNL     1       8.656  -8.808   0.000  0.00  0.00    +0.000 C 
ATOM     13  C   UNL     1       9.069  -9.522   0.000  0.00  0.00    +0.000 C 
ATOM     14  C   UNL     1       9.069  -8.093   0.000  0.00  0.00    +0.000 C 
ATOM     15  C   UNL     1       8.656  -7.379   0.000  0.00  0.00    +0.000 C 
ATOM     16  C   UNL     1       9.069  -6.664   0.000  0.00  0.00    +0.000 C 
ATOM     17  C   UNL     1       9.894  -6.664   0.000  0.00  0.00    +0.000 C 
ATOM     18  C   UNL     1       9.750  -7.477   0.000  0.00  0.00    +0.000 C 
ATOM     19  C   UNL     1       9.750  -5.852   0.000  0.00  0.00    +0.000 C 
ATOM     20  C   UNL     1      10.382  -5.322   0.000  0.00  0.00    +0.000 C 
ATOM     21  C   UNL     1      11.158  -5.604   0.000  0.00  0.00    +0.000 A 
ATOM     22  C   UNL     1      11.790  -5.073   0.000  0.00  0.00    +0.000 A 
ATOM     23  C   UNL     1      11.646  -4.261   0.000  0.00  0.00    +0.000 C 
ATOM     24  C   UNL     1      12.565  -5.356   0.000  0.00  0.00    +0.000 A 
ATOM     25  O   UNL     1      13.197  -4.825   0.000  0.00  0.00    +0.000 OA
ATOM     26  C   UNL     1      13.972  -5.107   0.000  0.00  0.00    +0.000 C 
ATOM     27  O   UNL     1      14.115  -5.920   0.000  0.00  0.00    +0.000 OA
ATOM     28  C   UNL     1      14.604  -4.577   0.000  0.00  0.00    +0.000 C 
ATOM     29  C   UNL     1      15.379  -4.859   0.000  0.00  0.00    +0.000 C 
ATOM     30  C   UNL     1      15.523  -5.672   0.000  0.00  0.00    +0.000 C 
ATOM     31  C   UNL     1      16.011  -4.329   0.000  0.00  0.00    +0.000 C 
ATOM     32  C   UNL     1      16.787  -4.611   0.000  0.00  0.00    +0.000 C 
ATOM     33  C   UNL     1      17.419  -4.081   0.000  0.00  0.00    +0.000 C 
ATOM     34  C   UNL     1      18.194  -4.363   0.000  0.00  0.00    +0.000 C 
ATOM     35  C   UNL     1      18.337  -5.175   0.000  0.00  0.00    +0.000 C 
ATOM     36  C   UNL     1      18.826  -3.833   0.000  0.00  0.00    +0.000 C 
ATOM     37  C   UNL     1      18.682  -3.020   0.000  0.00  0.00    +0.000 C 
ATOM     38  C   UNL     1      19.314  -2.490   0.000  0.00  0.00    +0.000 C 
ATOM     39  C   UNL     1      19.171  -1.677   0.000  0.00  0.00    +0.000 C 
ATOM     40  C   UNL     1      18.396  -1.395   0.000  0.00  0.00    +0.000 C 
ATOM     41  C   UNL     1      19.803  -1.147   0.000  0.00  0.00    +0.000 C 
ATOM     42  C   UNL     1      20.578  -1.429   0.000  0.00  0.00    +0.000 C 
ATOM     43  C   UNL     1      20.722  -2.242   0.000  0.00  0.00    +0.000 C 
ATOM     44  C   UNL     1      20.090  -2.772   0.000  0.00  0.00    +0.000 C 
ATOM     45  C   UNL     1      20.598  -3.422   0.000  0.00  0.00    +0.000 C 
ATOM     46  C   UNL     1      19.835  -3.557   0.000  0.00  0.00    +0.000 C 
ATOM     47  C   UNL     1      12.708  -6.168   0.000  0.00  0.00    +0.000 A 
ATOM     48  C   UNL     1      13.483  -6.450   0.000  0.00  0.00    +0.000 C 
ATOM     49  C   UNL     1      12.076  -6.698   0.000  0.00  0.00    +0.000 A 
ATOM     50  C   UNL     1      12.219  -7.511   0.000  0.00  0.00    +0.000 C 
ATOM     51  C   UNL     1      11.301  -6.416   0.000  0.00  0.00    +0.000 A 
ATOM     52  O   UNL     1      10.669  -6.946   0.000  0.00  0.00    +0.000 OA
ENDROOT
TORSDOF 0
