ROOT
REMARK  Name = triaziquone
REMARK                            x       y       z     vdW  Elec       q    Type
REMARK                         _______ _______ _______ _____ _____    ______ ____
ATOM      1  O   UNL     1       0.302   4.427   0.000  0.00  0.00    +0.000 OA
ATOM      2  C   UNL     1      -0.412   4.014   0.000  0.00  0.00    +0.000 C 
ATOM      3  C   UNL     1      -0.412   3.189   0.000  0.00  0.00    +0.000 C 
ATOM      4  C   UNL     1      -1.127   2.777   0.000  0.00  0.00    +0.000 C 
ATOM      5  N   UNL     1      -1.127   1.952   0.000  0.00  0.00    +0.000 N 
ATOM      6  C   UNL     1      -0.715   1.238   0.000  0.00  0.00    +0.000 C 
ATOM      7  C   UNL     1      -1.540   1.238   0.000  0.00  0.00    +0.000 C 
ATOM      8  C   UNL     1      -1.841   3.189   0.000  0.00  0.00    +0.000 C 
ATOM      9  O   UNL     1      -2.556   2.777   0.000  0.00  0.00    +0.000 OA
ATOM     10  C   UNL     1      -1.841   4.014   0.000  0.00  0.00    +0.000 C 
ATOM     11  N   UNL     1      -2.556   4.427   0.000  0.00  0.00    +0.000 N 
ATOM     12  C   UNL     1      -3.381   4.427   0.000  0.00  0.00    +0.000 C 
ATOM     13  C   UNL     1      -2.968   5.141   0.000  0.00  0.00    +0.000 C 
ATOM     14  C   UNL     1      -1.127   4.427   0.000  0.00  0.00    +0.000 C 
ATOM     15  N   UNL     1      -1.127   5.252   0.000  0.00  0.00    +0.000 N 
ATOM     16  C   UNL     1      -1.540   5.966   0.000  0.00  0.00    +0.000 C 
ATOM     17  C   UNL     1      -0.715   5.966   0.000  0.00  0.00    +0.000 C 
ENDROOT
TORSDOF 0
