ROOT
REMARK  Name = triamcinolone hexacetonide
REMARK                            x       y       z     vdW  Elec       q    Type
REMARK                         _______ _______ _______ _____ _____    ______ ____
ATOM      1  C   UNL     1       3.671  -7.472   0.000  0.00  0.00    +0.000 C 
ATOM      2  C   UNL     1       4.210  -6.848   0.000  0.00  0.00    +0.000 C 
ATOM      3  C   UNL     1       4.834  -7.387   0.000  0.00  0.00    +0.000 C 
ATOM      4  C   UNL     1       3.585  -6.309   0.000  0.00  0.00    +0.000 C 
ATOM      5  C   UNL     1       4.749  -6.223   0.000  0.00  0.00    +0.000 C 
ATOM      6  C   UNL     1       4.477  -5.444   0.000  0.00  0.00    +0.000 C 
ATOM      7  O   UNL     1       3.667  -5.290   0.000  0.00  0.00    +0.000 OA
ATOM      8  O   UNL     1       5.016  -4.820   0.000  0.00  0.00    +0.000 OA
ATOM      9  C   UNL     1       4.745  -4.041   0.000  0.00  0.00    +0.000 C 
ATOM     10  C   UNL     1       5.240  -3.467   0.000  0.00  0.00    +0.000 C 
ATOM     11  O   UNL     1       6.141  -3.736   0.000  0.00  0.00    +0.000 OA
ATOM     12  C   UNL     1       5.179  -2.679   0.000  0.00  0.00    +0.000 C 
ATOM     13  O   UNL     1       4.467  -3.096   0.000  0.00  0.00    +0.000 OA
ATOM     14  C   UNL     1       3.851  -2.547   0.000  0.00  0.00    +0.000 C 
ATOM     15  C   UNL     1       3.370  -3.217   0.000  0.00  0.00    +0.000 C 
ATOM     16  C   UNL     1       3.134  -2.139   0.000  0.00  0.00    +0.000 C 
ATOM     17  O   UNL     1       4.182  -1.792   0.000  0.00  0.00    +0.000 OA
ATOM     18  C   UNL     1       5.003  -1.873   0.000  0.00  0.00    +0.000 C 
ATOM     19  C   UNL     1       5.715  -1.457   0.000  0.00  0.00    +0.000 C 
ATOM     20  C   UNL     1       6.331  -2.005   0.000  0.00  0.00    +0.000 C 
ATOM     21  C   UNL     1       7.151  -1.914   0.000  0.00  0.00    +0.000 C 
ATOM     22  C   UNL     1       7.483  -1.159   0.000  0.00  0.00    +0.000 C 
ATOM     23  C   UNL     1       8.303  -1.068   0.000  0.00  0.00    +0.000 C 
ATOM     24  C   UNL     1       8.791  -1.733   0.000  0.00  0.00    +0.000 C 
ATOM     25  C   UNL     1       9.611  -1.642   0.000  0.00  0.00    +0.000 C 
ATOM     26  C   UNL     1      10.100  -2.306   0.000  0.00  0.00    +0.000 C 
ATOM     27  O   UNL     1      10.920  -2.216   0.000  0.00  0.00    +0.000 OA
ATOM     28  C   UNL     1       9.769  -3.062   0.000  0.00  0.00    +0.000 C 
ATOM     29  C   UNL     1       8.949  -3.153   0.000  0.00  0.00    +0.000 C 
ATOM     30  C   UNL     1       8.460  -2.488   0.000  0.00  0.00    +0.000 C 
ATOM     31  C   UNL     1       7.783  -3.191   0.000  0.00  0.00    +0.000 C 
ATOM     32  C   UNL     1       7.640  -2.579   0.000  0.00  0.00    +0.000 C 
ATOM     33  F   UNL     1       8.129  -3.244   0.000  0.00  0.00    +0.000 F 
ATOM     34  C   UNL     1       7.309  -3.335   0.000  0.00  0.00    +0.000 C 
ATOM     35  O   UNL     1       7.797  -3.999   0.000  0.00  0.00    +0.000 OA
ATOM     36  C   UNL     1       6.489  -3.425   0.000  0.00  0.00    +0.000 C 
ATOM     37  C   UNL     1       6.000  -2.761   0.000  0.00  0.00    +0.000 C 
ATOM     38  C   UNL     1       5.591  -3.478   0.000  0.00  0.00    +0.000 C 
ENDROOT
TORSDOF 0
