ROOT
REMARK  Name = trimethyldiphenylpropylamine
REMARK                            x       y       z     vdW  Elec       q    Type
REMARK                         _______ _______ _______ _____ _____    ______ ____
ATOM      1  C   UNL     1       0.715  -2.888   0.000  0.00  0.00    +0.000 C 
ATOM      2  C   UNL     1       0.715  -2.062   0.000  0.00  0.00    +0.000 C 
ATOM      3  C   UNL     1       0.000  -1.650   0.000  0.00  0.00    +0.000 C 
ATOM      4  C   UNL     1      -0.715  -2.062   0.000  0.00  0.00    +0.000 C 
ATOM      5  C   UNL     1      -1.429  -1.650   0.000  0.00  0.00    +0.000 A 
ATOM      6  C   UNL     1      -2.143  -2.062   0.000  0.00  0.00    +0.000 A 
ATOM      7  C   UNL     1      -2.858  -1.650   0.000  0.00  0.00    +0.000 A 
ATOM      8  C   UNL     1      -2.858  -0.825   0.000  0.00  0.00    +0.000 A 
ATOM      9  C   UNL     1      -2.143  -0.412   0.000  0.00  0.00    +0.000 A 
ATOM     10  C   UNL     1      -1.429  -0.825   0.000  0.00  0.00    +0.000 A 
ATOM     11  C   UNL     1      -0.715  -2.888   0.000  0.00  0.00    +0.000 A 
ATOM     12  C   UNL     1       0.000  -3.300   0.000  0.00  0.00    +0.000 A 
ATOM     13  C   UNL     1       0.000  -4.125   0.000  0.00  0.00    +0.000 A 
ATOM     14  C   UNL     1      -0.715  -4.537   0.000  0.00  0.00    +0.000 A 
ATOM     15  C   UNL     1      -1.429  -4.125   0.000  0.00  0.00    +0.000 A 
ATOM     16  C   UNL     1      -1.429  -3.300   0.000  0.00  0.00    +0.000 A 
ATOM     17  N   UNL     1       1.429  -1.650   0.000  0.00  0.00    +0.000 NA
ATOM     18  C   UNL     1       1.429  -0.825   0.000  0.00  0.00    +0.000 C 
ATOM     19  C   UNL     1       2.143  -2.062   0.000  0.00  0.00    +0.000 C 
ENDROOT
TORSDOF 0
