ROOT
REMARK  Name = trimethidinium
REMARK                            x       y       z     vdW  Elec       q    Type
REMARK                         _______ _______ _______ _____ _____    ______ ____
ATOM      1  C   UNL     1       2.073   0.469   0.000  0.00  0.00    +0.000 C 
ATOM      2  C   UNL     1       1.394  -0.000   0.000  0.00  0.00    +0.000 C 
ATOM      3  C   UNL     1       2.073  -0.469   0.000  0.00  0.00    +0.000 C 
ATOM      4  C   UNL     1       1.162   0.927   0.000  0.00  0.00    +0.000 C 
ATOM      5  C   UNL     1       0.517   0.412   0.000  0.00  0.00    +0.000 C 
ATOM      6  C   UNL     1       0.517  -0.413   0.000  0.00  0.00    +0.000 C 
ATOM      7  C   UNL     1       1.162  -0.927   0.000  0.00  0.00    +0.000 C 
ATOM      8  C   UNL     1       0.979  -1.731   0.000  0.00  0.00    +0.000 C 
ATOM      9  C   UNL     1       1.967  -0.743   0.000  0.00  0.00    +0.000 C 
ATOM     10  N   UNL     1       2.325  -0.000   0.000  0.00  0.00    +0.000 N 
ATOM     11  C   UNL     1       2.970  -0.514   0.000  0.00  0.00    +0.000 C 
ATOM     12  C   UNL     1       2.970   0.514   0.000  0.00  0.00    +0.000 C 
ATOM     13  C   UNL     1       3.738   0.213   0.000  0.00  0.00    +0.000 C 
ATOM     14  C   UNL     1       3.861  -0.603   0.000  0.00  0.00    +0.000 C 
ATOM     15  N   UNL     1       4.629  -0.904   0.000  0.00  0.00    +0.000 N 
ATOM     16  C   UNL     1       5.397  -1.206   0.000  0.00  0.00    +0.000 C 
ATOM     17  C   UNL     1       4.327  -1.672   0.000  0.00  0.00    +0.000 C 
ATOM     18  C   UNL     1       4.930  -0.136   0.000  0.00  0.00    +0.000 C 
ATOM     19  C   UNL     1       1.967   0.743   0.000  0.00  0.00    +0.000 C 
ENDROOT
TORSDOF 0
