ROOT
REMARK  Name = tripelennamine
REMARK                            x       y       z     vdW  Elec       q    Type
REMARK                         _______ _______ _______ _____ _____    ______ ____
ATOM      1  C   UNL     1       2.143  -2.062   0.000  0.00  0.00    +0.000 C 
ATOM      2  N   UNL     1       2.858  -1.650   0.000  0.00  0.00    +0.000 NA
ATOM      3  C   UNL     1       2.858  -0.825   0.000  0.00  0.00    +0.000 C 
ATOM      4  C   UNL     1       3.572  -2.062   0.000  0.00  0.00    +0.000 C 
ATOM      5  C   UNL     1       4.287  -1.650   0.000  0.00  0.00    +0.000 C 
ATOM      6  N   UNL     1       5.001  -2.062   0.000  0.00  0.00    +0.000 N 
ATOM      7  C   UNL     1       5.716  -1.650   0.000  0.00  0.00    +0.000 C 
ATOM      8  C   UNL     1       6.430  -2.062   0.000  0.00  0.00    +0.000 A 
ATOM      9  C   UNL     1       7.145  -1.650   0.000  0.00  0.00    +0.000 A 
ATOM     10  C   UNL     1       7.859  -2.062   0.000  0.00  0.00    +0.000 A 
ATOM     11  C   UNL     1       7.859  -2.888   0.000  0.00  0.00    +0.000 A 
ATOM     12  C   UNL     1       7.145  -3.300   0.000  0.00  0.00    +0.000 A 
ATOM     13  C   UNL     1       6.430  -2.888   0.000  0.00  0.00    +0.000 A 
ATOM     14  C   UNL     1       5.001  -2.888   0.000  0.00  0.00    +0.000 A 
ATOM     15  C   UNL     1       5.716  -3.300   0.000  0.00  0.00    +0.000 A 
ATOM     16  C   UNL     1       5.716  -4.125   0.000  0.00  0.00    +0.000 A 
ATOM     17  C   UNL     1       5.001  -4.537   0.000  0.00  0.00    +0.000 A 
ATOM     18  C   UNL     1       4.287  -4.125   0.000  0.00  0.00    +0.000 A 
ATOM     19  N   UNL     1       4.287  -3.300   0.000  0.00  0.00    +0.000 NA
ENDROOT
TORSDOF 0
