ROOT
REMARK  Name = trofosfamide
REMARK                            x       y       z     vdW  Elec       q    Type
REMARK                         _______ _______ _______ _____ _____    ______ ____
ATOM      1 CL   UNL     1      -1.984  -1.533   0.000  0.00  0.00    +0.000 Cl
ATOM      2  C   UNL     1      -1.159  -1.533   0.000  0.00  0.00    +0.000 C 
ATOM      3  C   UNL     1      -0.746  -0.819   0.000  0.00  0.00    +0.000 C 
ATOM      4  N   UNL     1       0.079  -0.819   0.000  0.00  0.00    +0.000 NA
ATOM      5  C   UNL     1       0.491  -1.533   0.000  0.00  0.00    +0.000 C 
ATOM      6  C   UNL     1       1.316  -1.533   0.000  0.00  0.00    +0.000 C 
ATOM      7 CL   UNL     1       1.729  -2.248   0.000  0.00  0.00    +0.000 Cl
ATOM      8  P   UNL     1       0.491  -0.104   0.000  0.00  0.00    +0.000 P 
ATOM      9  O   UNL     1       1.123  -0.635   0.000  0.00  0.00    +0.000 OA
ATOM     10  O   UNL     1      -0.284   0.178   0.000  0.00  0.00    +0.000 OA
ATOM     11  C   UNL     1      -0.427   0.990   0.000  0.00  0.00    +0.000 C 
ATOM     12  C   UNL     1       0.205   1.521   0.000  0.00  0.00    +0.000 C 
ATOM     13  C   UNL     1       0.980   1.238   0.000  0.00  0.00    +0.000 C 
ATOM     14  N   UNL     1       1.123   0.426   0.000  0.00  0.00    +0.000 NA
ATOM     15  C   UNL     1       1.899   0.144   0.000  0.00  0.00    +0.000 C 
ATOM     16  C   UNL     1       2.042  -0.669   0.000  0.00  0.00    +0.000 C 
ATOM     17 CL   UNL     1       2.817  -0.951   0.000  0.00  0.00    +0.000 Cl
ENDROOT
TORSDOF 0
