ROOT
REMARK  Name = tropisetron
REMARK                            x       y       z     vdW  Elec       q    Type
REMARK                         _______ _______ _______ _____ _____    ______ ____
ATOM      1  C   UNL     1      -1.263   1.928   0.000  0.00  0.00    +0.000 C 
ATOM      2  N   UNL     1      -1.748   2.595   0.000  0.00  0.00    +0.000 NA
ATOM      3  C   UNL     1      -0.938   3.102   0.000  0.00  0.00    +0.000 C 
ATOM      4  C   UNL     1      -1.627   3.557   0.000  0.00  0.00    +0.000 C 
ATOM      5  C   UNL     1      -2.411   3.302   0.000  0.00  0.00    +0.000 C 
ATOM      6  C   UNL     1      -2.701   2.529   0.000  0.00  0.00    +0.000 C 
ATOM      7  C   UNL     1      -2.278   1.821   0.000  0.00  0.00    +0.000 C 
ATOM      8  C   UNL     1      -1.460   1.710   0.000  0.00  0.00    +0.000 C 
ATOM      9  C   UNL     1      -0.864   2.280   0.000  0.00  0.00    +0.000 C 
ATOM     10  O   UNL     1      -1.205   0.926   0.000  0.00  0.00    +0.000 OA
ATOM     11  C   UNL     1      -0.398   0.754   0.000  0.00  0.00    +0.000 C 
ATOM     12  O   UNL     1       0.154   1.367   0.000  0.00  0.00    +0.000 OA
ATOM     13  C   UNL     1      -0.143  -0.030   0.000  0.00  0.00    +0.000 C 
ATOM     14  C   UNL     1      -0.628  -0.698   0.000  0.00  0.00    +0.000 C 
ATOM     15  N   UNL     1      -0.143  -1.365   0.000  0.00  0.00    +0.000 NA
ATOM     16  C   UNL     1       0.641  -1.110   0.000  0.00  0.00    +0.000 C 
ATOM     17  C   UNL     1       0.641  -0.285   0.000  0.00  0.00    +0.000 C 
ATOM     18  C   UNL     1       1.356   0.127   0.000  0.00  0.00    +0.000 C 
ATOM     19  C   UNL     1       2.070  -0.285   0.000  0.00  0.00    +0.000 C 
ATOM     20  C   UNL     1       2.070  -1.110   0.000  0.00  0.00    +0.000 C 
ATOM     21  C   UNL     1       1.356  -1.523   0.000  0.00  0.00    +0.000 C 
ENDROOT
TORSDOF 0
