ROOT
REMARK  Name = tryptophan
REMARK                            x       y       z     vdW  Elec       q    Type
REMARK                         _______ _______ _______ _____ _____    ______ ____
ATOM      1  N   TRP A   1      -1.758   0.313   0.000  0.00  0.00    +0.000 NA
ATOM      2  CA  TRP A   1      -1.205   0.926   0.000  0.00  0.00    +0.000 C 
ATOM      3  CB  TRP A   1      -0.398   0.754   0.000  0.00  0.00    +0.000 C 
ATOM      4  CG  TRP A   1      -0.143  -0.030   0.000  0.00  0.00    +0.000 C 
ATOM      5  CD1 TRP A   1      -0.628  -0.698   0.000  0.00  0.00    +0.000 C 
ATOM      6  NE1 TRP A   1      -0.143  -1.365   0.000  0.00  0.00    +0.000 NA
ATOM      7  CE2 TRP A   1       0.641  -1.110   0.000  0.00  0.00    +0.000 C 
ATOM      8  CD2 TRP A   1       0.641  -0.285   0.000  0.00  0.00    +0.000 C 
ATOM      9  CE3 TRP A   1       1.356   0.127   0.000  0.00  0.00    +0.000 C 
ATOM     10  CZ3 TRP A   1       2.070  -0.285   0.000  0.00  0.00    +0.000 C 
ATOM     11  CH2 TRP A   1       2.070  -1.110   0.000  0.00  0.00    +0.000 C 
ATOM     12  CZ2 TRP A   1       1.356  -1.523   0.000  0.00  0.00    +0.000 C 
ATOM     13  C   TRP A   1      -1.460   1.710   0.000  0.00  0.00    +0.000 C 
ATOM     14  O   TRP A   1      -2.267   1.882   0.000  0.00  0.00    +0.000 OA
ATOM     15  OXT TRP A   1      -0.908   2.323   0.000  0.00  0.00    +0.000 OA
ENDROOT
TORSDOF 0
