ROOT
REMARK  Name = tymazoline
REMARK                            x       y       z     vdW  Elec       q    Type
REMARK                         _______ _______ _______ _____ _____    ______ ____
ATOM      1  C   UNL     1      -0.608   1.176   0.000  0.00  0.00    +0.000 C 
ATOM      2  C   UNL     1      -1.322   0.763   0.000  0.00  0.00    +0.000 C 
ATOM      3  C   UNL     1      -1.322  -0.062   0.000  0.00  0.00    +0.000 C 
ATOM      4  C   UNL     1      -2.037   1.176   0.000  0.00  0.00    +0.000 A 
ATOM      5  C   UNL     1      -2.751   0.763   0.000  0.00  0.00    +0.000 A 
ATOM      6  O   UNL     1      -2.751  -0.062   0.000  0.00  0.00    +0.000 OA
ATOM      7  C   UNL     1      -2.037  -0.474   0.000  0.00  0.00    +0.000 C 
ATOM      8  C   UNL     1      -2.037  -1.299   0.000  0.00  0.00    +0.000 C 
ATOM      9  N   UNL     1      -1.369  -1.784   0.000  0.00  0.00    +0.000 NA
ATOM     10  C   UNL     1      -1.624  -2.569   0.000  0.00  0.00    +0.000 C 
ATOM     11  C   UNL     1      -2.449  -2.569   0.000  0.00  0.00    +0.000 C 
ATOM     12  N   UNL     1      -2.704  -1.784   0.000  0.00  0.00    +0.000 NA
ATOM     13  C   UNL     1      -3.466   1.176   0.000  0.00  0.00    +0.000 A 
ATOM     14  C   UNL     1      -3.466   2.001   0.000  0.00  0.00    +0.000 A 
ATOM     15  C   UNL     1      -4.180   2.413   0.000  0.00  0.00    +0.000 C 
ATOM     16  C   UNL     1      -2.751   2.413   0.000  0.00  0.00    +0.000 A 
ATOM     17  C   UNL     1      -2.037   2.001   0.000  0.00  0.00    +0.000 A 
ENDROOT
TORSDOF 0
