ROOT
REMARK  Name = tyropanoate
REMARK                            x       y       z     vdW  Elec       q    Type
REMARK                         _______ _______ _______ _____ _____    ______ ____
ATOM      1  C   UNL     1      -1.429  -2.475   0.000  0.00  0.00    +0.000 C 
ATOM      2  C   UNL     1      -0.715  -2.062   0.000  0.00  0.00    +0.000 C 
ATOM      3  C   UNL     1       0.000  -2.475   0.000  0.00  0.00    +0.000 C 
ATOM      4  C   UNL     1       0.715  -2.062   0.000  0.00  0.00    +0.000 C 
ATOM      5  O   UNL     1       0.715  -1.238   0.000  0.00  0.00    +0.000 OA
ATOM      6  N   UNL     1       1.429  -2.475   0.000  0.00  0.00    +0.000 NA
ATOM      7  C   UNL     1       2.143  -2.062   0.000  0.00  0.00    +0.000 A 
ATOM      8  C   UNL     1       2.143  -1.238   0.000  0.00  0.00    +0.000 A 
ATOM      9  I   UNL     1       1.429  -0.825   0.000  0.00  0.00    +0.000 I 
ATOM     10  C   UNL     1       2.858  -0.825   0.000  0.00  0.00    +0.000 A 
ATOM     11  C   UNL     1       3.572  -1.238   0.000  0.00  0.00    +0.000 A 
ATOM     12  I   UNL     1       4.287  -0.825   0.000  0.00  0.00    +0.000 I 
ATOM     13  C   UNL     1       3.572  -2.062   0.000  0.00  0.00    +0.000 A 
ATOM     14  C   UNL     1       4.287  -2.475   0.000  0.00  0.00    +0.000 C 
ATOM     15  C   UNL     1       5.001  -2.062   0.000  0.00  0.00    +0.000 C 
ATOM     16  C   UNL     1       5.001  -1.238   0.000  0.00  0.00    +0.000 C 
ATOM     17  C   UNL     1       5.716  -0.825   0.000  0.00  0.00    +0.000 C 
ATOM     18  C   UNL     1       5.716  -2.475   0.000  0.00  0.00    +0.000 C 
ATOM     19  O   UNL     1       6.430  -2.062   0.000  0.00  0.00    +0.000 OA
ATOM     20  O   UNL     1       5.716  -3.300   0.000  0.00  0.00    +0.000 OA
ATOM     21  C   UNL     1       2.858  -2.475   0.000  0.00  0.00    +0.000 A 
ATOM     22  I   UNL     1       2.858  -3.300   0.000  0.00  0.00    +0.000 I 
ENDROOT
TORSDOF 0
