ROOT
REMARK  Name = umbralisib
REMARK                            x       y       z     vdW  Elec       q    Type
REMARK                         _______ _______ _______ _____ _____    ______ ____
ATOM      1  C   UNL     1      -4.030  -2.510   0.000  0.00  0.00    +0.000 C 
ATOM      2  C   UNL     1      -3.223  -2.339   0.000  0.00  0.00    +0.000 C 
ATOM      3  C   UNL     1      -2.671  -2.952   0.000  0.00  0.00    +0.000 A 
ATOM      4  C   UNL     1      -2.926  -3.736   0.000  0.00  0.00    +0.000 A 
ATOM      5  C   UNL     1      -2.374  -4.349   0.000  0.00  0.00    +0.000 A 
ATOM      6  O   UNL     1      -2.629  -5.134   0.000  0.00  0.00    +0.000 OA
ATOM      7  C   UNL     1      -1.567  -4.178   0.000  0.00  0.00    +0.000 A 
ATOM      8  C   UNL     1      -1.312  -3.393   0.000  0.00  0.00    +0.000 A 
ATOM      9  O   UNL     1      -1.864  -2.780   0.000  0.00  0.00    +0.000 OA
ATOM     10  C   UNL     1      -0.505  -3.222   0.000  0.00  0.00    +0.000 A 
ATOM     11  C   UNL     1       0.047  -3.835   0.000  0.00  0.00    +0.000 A 
ATOM     12  C   UNL     1      -0.208  -4.620   0.000  0.00  0.00    +0.000 A 
ATOM     13  C   UNL     1      -1.015  -4.791   0.000  0.00  0.00    +0.000 A 
ATOM     14  F   UNL     1       0.344  -5.233   0.000  0.00  0.00    +0.000 F 
ATOM     15  C   UNL     1      -3.733  -3.908   0.000  0.00  0.00    +0.000 A 
ATOM     16  C   UNL     1      -3.988  -4.692   0.000  0.00  0.00    +0.000 A 
ATOM     17  C   UNL     1      -4.795  -4.864   0.000  0.00  0.00    +0.000 A 
ATOM     18  C   UNL     1      -5.347  -4.251   0.000  0.00  0.00    +0.000 A 
ATOM     19  C   UNL     1      -5.092  -3.466   0.000  0.00  0.00    +0.000 A 
ATOM     20  C   UNL     1      -4.285  -3.295   0.000  0.00  0.00    +0.000 A 
ATOM     21  F   UNL     1      -5.050  -5.649   0.000  0.00  0.00    +0.000 F 
ATOM     22  N   UNL     1      -2.968  -1.554   0.000  0.00  0.00    +0.000 N 
ATOM     23  C   UNL     1      -2.183  -1.299   0.000  0.00  0.00    +0.000 A 
ATOM     24  N   UNL     1      -1.469  -1.712   0.000  0.00  0.00    +0.000 NA
ATOM     25  C   UNL     1      -0.754  -1.299   0.000  0.00  0.00    +0.000 A 
ATOM     26  N   UNL     1      -0.754  -0.474   0.000  0.00  0.00    +0.000 NA
ATOM     27  C   UNL     1      -1.469  -0.062   0.000  0.00  0.00    +0.000 A 
ATOM     28  C   UNL     1      -2.183  -0.474   0.000  0.00  0.00    +0.000 A 
ATOM     29  C   UNL     1      -2.968  -0.219   0.000  0.00  0.00    +0.000 A 
ATOM     30  N   UNL     1      -3.453  -0.887   0.000  0.00  0.00    +0.000 NA
ATOM     31  C   UNL     1      -3.223   0.566   0.000  0.00  0.00    +0.000 A 
ATOM     32  C   UNL     1      -4.030   0.737   0.000  0.00  0.00    +0.000 A 
ATOM     33  C   UNL     1      -4.285   1.522   0.000  0.00  0.00    +0.000 A 
ATOM     34  C   UNL     1      -3.733   2.135   0.000  0.00  0.00    +0.000 A 
ATOM     35  C   UNL     1      -2.926   1.963   0.000  0.00  0.00    +0.000 A 
ATOM     36  C   UNL     1      -2.671   1.179   0.000  0.00  0.00    +0.000 A 
ATOM     37  O   UNL     1      -3.988   2.919   0.000  0.00  0.00    +0.000 OA
ATOM     38  C   UNL     1      -3.436   3.532   0.000  0.00  0.00    +0.000 C 
ATOM     39  C   UNL     1      -3.691   4.317   0.000  0.00  0.00    +0.000 C 
ATOM     40  C   UNL     1      -2.629   3.361   0.000  0.00  0.00    +0.000 C 
ATOM     41  F   UNL     1      -5.092   1.693   0.000  0.00  0.00    +0.000 F 
ATOM     42  N   UNL     1      -1.469   0.763   0.000  0.00  0.00    +0.000 NA
ENDROOT
TORSDOF 0
