ROOT
REMARK  Name = verapamil
REMARK                            x       y       z     vdW  Elec       q    Type
REMARK                         _______ _______ _______ _____ _____    ______ ____
ATOM      1  C   UNL     1      -2.143  -3.712   0.000  0.00  0.00    +0.000 C 
ATOM      2  O   UNL     1      -1.429  -3.300   0.000  0.00  0.00    +0.000 OA
ATOM      3  C   UNL     1      -0.715  -3.712   0.000  0.00  0.00    +0.000 A 
ATOM      4  C   UNL     1       0.000  -3.300   0.000  0.00  0.00    +0.000 A 
ATOM      5  O   UNL     1       0.000  -2.475   0.000  0.00  0.00    +0.000 OA
ATOM      6  C   UNL     1       0.715  -2.062   0.000  0.00  0.00    +0.000 C 
ATOM      7  C   UNL     1       0.715  -3.712   0.000  0.00  0.00    +0.000 A 
ATOM      8  C   UNL     1       0.715  -4.537   0.000  0.00  0.00    +0.000 A 
ATOM      9  C   UNL     1       1.429  -4.950   0.000  0.00  0.00    +0.000 C 
ATOM     10  C   UNL     1       2.143  -4.537   0.000  0.00  0.00    +0.000 C 
ATOM     11  N   UNL     1       2.858  -4.950   0.000  0.00  0.00    +0.000 NA
ATOM     12  C   UNL     1       2.858  -5.775   0.000  0.00  0.00    +0.000 C 
ATOM     13  C   UNL     1       3.572  -4.537   0.000  0.00  0.00    +0.000 C 
ATOM     14  C   UNL     1       4.287  -4.950   0.000  0.00  0.00    +0.000 C 
ATOM     15  C   UNL     1       5.001  -4.537   0.000  0.00  0.00    +0.000 C 
ATOM     16  C   UNL     1       5.716  -4.950   0.000  0.00  0.00    +0.000 C 
ATOM     17  C   UNL     1       5.303  -5.665   0.000  0.00  0.00    +0.000 C 
ATOM     18  N   UNL     1       4.891  -6.379   0.000  0.00  0.00    +0.000 NA
ATOM     19  C   UNL     1       6.128  -4.236   0.000  0.00  0.00    +0.000 C 
ATOM     20  C   UNL     1       6.953  -4.236   0.000  0.00  0.00    +0.000 C 
ATOM     21  C   UNL     1       5.716  -3.521   0.000  0.00  0.00    +0.000 C 
ATOM     22  C   UNL     1       6.430  -5.362   0.000  0.00  0.00    +0.000 A 
ATOM     23  C   UNL     1       7.145  -4.950   0.000  0.00  0.00    +0.000 A 
ATOM     24  C   UNL     1       7.859  -5.362   0.000  0.00  0.00    +0.000 A 
ATOM     25  O   UNL     1       8.574  -4.950   0.000  0.00  0.00    +0.000 OA
ATOM     26  C   UNL     1       9.288  -5.362   0.000  0.00  0.00    +0.000 C 
ATOM     27  C   UNL     1       7.859  -6.188   0.000  0.00  0.00    +0.000 A 
ATOM     28  O   UNL     1       8.574  -6.600   0.000  0.00  0.00    +0.000 OA
ATOM     29  C   UNL     1       9.288  -6.188   0.000  0.00  0.00    +0.000 C 
ATOM     30  C   UNL     1       7.145  -6.600   0.000  0.00  0.00    +0.000 A 
ATOM     31  C   UNL     1       6.430  -6.188   0.000  0.00  0.00    +0.000 A 
ATOM     32  C   UNL     1       0.000  -4.950   0.000  0.00  0.00    +0.000 A 
ATOM     33  C   UNL     1      -0.715  -4.537   0.000  0.00  0.00    +0.000 A 
ENDROOT
TORSDOF 0
