ROOT
REMARK  Name = vildagliptin
REMARK                            x       y       z     vdW  Elec       q    Type
REMARK                         _______ _______ _______ _____ _____    ______ ____
ATOM      1  O   UNL     1       0.852  -2.483   0.000  0.00  0.00    +0.000 OA
ATOM      2  C   UNL     1       0.852  -1.659   0.000  0.00  0.00    +0.000 C 
ATOM      3  C   UNL     1       0.116  -2.032   0.000  0.00  0.00    +0.000 C 
ATOM      4  C   UNL     1       0.566  -1.242   0.000  0.00  0.00    +0.000 C 
ATOM      5  C   UNL     1       0.566  -0.494   0.000  0.00  0.00    +0.000 C 
ATOM      6  C   UNL     1       1.301  -0.121   0.000  0.00  0.00    +0.000 C 
ATOM      7  C   UNL     1       0.852  -0.911   0.000  0.00  0.00    +0.000 C 
ATOM      8  C   UNL     1       2.037  -0.494   0.000  0.00  0.00    +0.000 C 
ATOM      9  C   UNL     1       2.037  -1.242   0.000  0.00  0.00    +0.000 C 
ATOM     10  C   UNL     1       1.301  -1.616   0.000  0.00  0.00    +0.000 C 
ATOM     11  C   UNL     1       1.587  -2.032   0.000  0.00  0.00    +0.000 C 
ATOM     12  N   UNL     1       2.834  -1.453   0.000  0.00  0.00    +0.000 NA
ATOM     13  C   UNL     1       3.416  -0.868   0.000  0.00  0.00    +0.000 C 
ATOM     14  C   UNL     1       4.213  -1.079   0.000  0.00  0.00    +0.000 C 
ATOM     15  O   UNL     1       4.429  -1.875   0.000  0.00  0.00    +0.000 OA
ATOM     16  N   UNL     1       4.795  -0.493   0.000  0.00  0.00    +0.000 N 
ATOM     17  C   UNL     1       4.663   0.321   0.000  0.00  0.00    +0.000 C 
ATOM     18  C   UNL     1       5.397   0.698   0.000  0.00  0.00    +0.000 C 
ATOM     19  C   UNL     1       5.982   0.117   0.000  0.00  0.00    +0.000 C 
ATOM     20  C   UNL     1       5.610  -0.620   0.000  0.00  0.00    +0.000 C 
ATOM     21  C   UNL     1       5.987  -1.354   0.000  0.00  0.00    +0.000 C 
ATOM     22  N   UNL     1       6.364  -2.087   0.000  0.00  0.00    +0.000 NA
ENDROOT
TORSDOF 0
