ROOT
REMARK  Name = viminol
REMARK                            x       y       z     vdW  Elec       q    Type
REMARK                         _______ _______ _______ _____ _____    ______ ____
ATOM      1  C   UNL     1       1.956  -6.322   0.000  0.00  0.00    +0.000 C 
ATOM      2  C   UNL     1       1.956  -5.497   0.000  0.00  0.00    +0.000 C 
ATOM      3  C   UNL     1       1.241  -5.085   0.000  0.00  0.00    +0.000 C 
ATOM      4  C   UNL     1       0.527  -5.497   0.000  0.00  0.00    +0.000 C 
ATOM      5  N   UNL     1       1.241  -4.260   0.000  0.00  0.00    +0.000 NA
ATOM      6  C   UNL     1       0.527  -3.848   0.000  0.00  0.00    +0.000 C 
ATOM      7  C   UNL     1       0.527  -3.022   0.000  0.00  0.00    +0.000 C 
ATOM      8  O   UNL     1       1.241  -2.610   0.000  0.00  0.00    +0.000 OA
ATOM      9  C   UNL     1      -0.188  -2.610   0.000  0.00  0.00    +0.000 A 
ATOM     10  C   UNL     1      -0.941  -2.946   0.000  0.00  0.00    +0.000 A 
ATOM     11  C   UNL     1      -1.493  -2.333   0.000  0.00  0.00    +0.000 A 
ATOM     12  C   UNL     1      -1.081  -1.618   0.000  0.00  0.00    +0.000 A 
ATOM     13  N   UNL     1      -0.274  -1.790   0.000  0.00  0.00    +0.000 N 
ATOM     14  C   UNL     1       0.339  -1.238   0.000  0.00  0.00    +0.000 C 
ATOM     15  C   UNL     1       0.168  -0.430   0.000  0.00  0.00    +0.000 A 
ATOM     16  C   UNL     1      -0.617  -0.176   0.000  0.00  0.00    +0.000 A 
ATOM     17 CL   UNL     1      -1.230  -0.728   0.000  0.00  0.00    +0.000 Cl
ATOM     18  C   UNL     1      -0.788   0.631   0.000  0.00  0.00    +0.000 A 
ATOM     19  C   UNL     1      -0.175   1.183   0.000  0.00  0.00    +0.000 A 
ATOM     20  C   UNL     1       0.609   0.928   0.000  0.00  0.00    +0.000 A 
ATOM     21  C   UNL     1       0.781   0.121   0.000  0.00  0.00    +0.000 A 
ATOM     22  C   UNL     1       1.956  -3.848   0.000  0.00  0.00    +0.000 C 
ATOM     23  C   UNL     1       2.670  -4.260   0.000  0.00  0.00    +0.000 C 
ATOM     24  C   UNL     1       1.956  -3.022   0.000  0.00  0.00    +0.000 C 
ATOM     25  C   UNL     1       2.670  -2.610   0.000  0.00  0.00    +0.000 C 
ENDROOT
TORSDOF 0
