ROOT
REMARK  Name = vinflunine
REMARK                            x       y       z     vdW  Elec       q    Type
REMARK                         _______ _______ _______ _____ _____    ______ ____
ATOM      1  C   UNL     1      -2.235  -2.321   0.000  0.00  0.00    +0.000 C 
ATOM      2  C   UNL     1      -1.465  -2.616   0.000  0.00  0.00    +0.000 C 
ATOM      3  C   UNL     1      -0.824  -2.096   0.000  0.00  0.00    +0.000 C 
ATOM      4  C   UNL     1      -1.595  -1.802   0.000  0.00  0.00    +0.000 C 
ATOM      5  C   UNL     1      -1.724  -0.987   0.000  0.00  0.00    +0.000 C 
ATOM      6  C   UNL     1      -1.084  -0.467   0.000  0.00  0.00    +0.000 C 
ATOM      7  N   UNL     1      -0.313  -0.762   0.000  0.00  0.00    +0.000 NA
ATOM      8  C   UNL     1       0.655  -0.538   0.000  0.00  0.00    +0.000 C 
ATOM      9  C   UNL     1       1.106  -1.230   0.000  0.00  0.00    +0.000 C 
ATOM     10  C   UNL     1       0.587  -1.871   0.000  0.00  0.00    +0.000 C 
ATOM     11  C   UNL     1      -0.183  -1.577   0.000  0.00  0.00    +0.000 C 
ATOM     12  C   UNL     1       0.717  -2.686   0.000  0.00  0.00    +0.000 C 
ATOM     13  N   UNL     1       1.532  -2.814   0.000  0.00  0.00    +0.000 N 
ATOM     14  C   UNL     1       1.907  -3.549   0.000  0.00  0.00    +0.000 C 
ATOM     15  C   UNL     1       1.906  -2.079   0.000  0.00  0.00    +0.000 A 
ATOM     16  C   UNL     1       1.322  -1.496   0.000  0.00  0.00    +0.000 A 
ATOM     17  C   UNL     1       1.534  -0.699   0.000  0.00  0.00    +0.000 A 
ATOM     18  C   UNL     1       2.331  -0.484   0.000  0.00  0.00    +0.000 A 
ATOM     19  C   UNL     1       2.915  -1.067   0.000  0.00  0.00    +0.000 A 
ATOM     20  O   UNL     1       3.712  -0.853   0.000  0.00  0.00    +0.000 OA
ATOM     21  C   UNL     1       4.296  -1.436   0.000  0.00  0.00    +0.000 C 
ATOM     22  C   UNL     1       2.702  -1.864   0.000  0.00  0.00    +0.000 A 
ATOM     23  C   UNL     1       2.287   0.339   0.000  0.00  0.00    +0.000 C 
ATOM     24  C   UNL     1       1.841   1.070   0.000  0.00  0.00    +0.000 C 
ATOM     25  C   UNL     1       1.974   1.933   0.000  0.00  0.00    +0.000 C 
ATOM     26  C   UNL     1       1.838   2.788   0.000  0.00  0.00    +0.000 C 
ATOM     27  C   UNL     1       2.449   3.373   0.000  0.00  0.00    +0.000 C 
ATOM     28  C   UNL     1       3.241   3.078   0.000  0.00  0.00    +0.000 C 
ATOM     29  N   UNL     1       3.454   2.238   0.000  0.00  0.00    +0.000 NA
ATOM     30  C   UNL     1       2.728   2.020   0.000  0.00  0.00    +0.000 C 
ATOM     31  C   UNL     1       3.918   1.498   0.000  0.00  0.00    +0.000 C 
ATOM     32  C   UNL     1       3.798   0.651   0.000  0.00  0.00    +0.000 C 
ATOM     33  C   UNL     1       3.124   0.175   0.000  0.00  0.00    +0.000 C 
ATOM     34  N   UNL     1       3.368  -0.613   0.000  0.00  0.00    +0.000 NA
ATOM     35  C   UNL     1       4.193  -0.624   0.000  0.00  0.00    +0.000 C 
ATOM     36  C   UNL     1       4.458   0.157   0.000  0.00  0.00    +0.000 C 
ATOM     37  C   UNL     1       5.268   0.318   0.000  0.00  0.00    +0.000 C 
ATOM     38  C   UNL     1       5.811  -0.303   0.000  0.00  0.00    +0.000 C 
ATOM     39  C   UNL     1       5.546  -1.084   0.000  0.00  0.00    +0.000 C 
ATOM     40  C   UNL     1       4.737  -1.245   0.000  0.00  0.00    +0.000 C 
ATOM     41  C   UNL     1       2.282   4.181   0.000  0.00  0.00    +0.000 C 
ATOM     42  C   UNL     1       1.474   4.014   0.000  0.00  0.00    +0.000 C 
ATOM     43  F   UNL     1       2.115   4.989   0.000  0.00  0.00    +0.000 F 
ATOM     44  F   UNL     1       3.090   4.347   0.000  0.00  0.00    +0.000 F 
ATOM     45  C   UNL     1       1.499   0.095   0.000  0.00  0.00    +0.000 C 
ATOM     46  O   UNL     1       1.077  -0.614   0.000  0.00  0.00    +0.000 OA
ATOM     47  O   UNL     1       0.893   0.655   0.000  0.00  0.00    +0.000 OA
ATOM     48  C   UNL     1       0.105   0.411   0.000  0.00  0.00    +0.000 C 
ATOM     49  C   UNL     1       0.076  -3.206   0.000  0.00  0.00    +0.000 C 
ATOM     50  O   UNL     1       0.700  -3.747   0.000  0.00  0.00    +0.000 OA
ATOM     51  C   UNL     1      -0.694  -2.911   0.000  0.00  0.00    +0.000 C 
ATOM     52  O   UNL     1      -1.335  -3.431   0.000  0.00  0.00    +0.000 OA
ATOM     53  C   UNL     1      -2.105  -3.136   0.000  0.00  0.00    +0.000 C 
ATOM     54  C   UNL     1      -2.746  -3.656   0.000  0.00  0.00    +0.000 C 
ATOM     55  O   UNL     1      -2.689  -2.553   0.000  0.00  0.00    +0.000 OA
ATOM     56  C   UNL     1      -0.348  -3.913   0.000  0.00  0.00    +0.000 C 
ATOM     57  O   UNL     1      -1.173  -3.900   0.000  0.00  0.00    +0.000 OA
ATOM     58  O   UNL     1       0.053  -4.635   0.000  0.00  0.00    +0.000 OA
ATOM     59  C   UNL     1      -0.371  -5.342   0.000  0.00  0.00    +0.000 C 
ENDROOT
TORSDOF 0
