ROOT
REMARK  Name = zinostatin
REMARK                            x       y       z     vdW  Elec       q    Type
REMARK                         _______ _______ _______ _____ _____    ______ ____
ATOM      1  C   UNL     1      -0.974  -4.831   0.000  0.00  0.00    +0.000 C 
ATOM      2  N   UNL     1      -0.600  -4.095   0.000  0.00  0.00    +0.000 NA
ATOM      3  C   UNL     1       0.224  -4.051   0.000  0.00  0.00    +0.000 C 
ATOM      4  C   UNL     1       0.597  -3.315   0.000  0.00  0.00    +0.000 C 
ATOM      5  O   UNL     1       0.147  -2.624   0.000  0.00  0.00    +0.000 OA
ATOM      6  C   UNL     1       0.520  -1.889   0.000  0.00  0.00    +0.000 C 
ATOM      7  C   UNL     1       0.145  -1.154   0.000  0.00  0.00    +0.000 C 
ATOM      8  O   UNL     1      -0.670  -1.026   0.000  0.00  0.00    +0.000 OA
ATOM      9  C   UNL     1      -1.189  -1.668   0.000  0.00  0.00    +0.000 C 
ATOM     10  O   UNL     1      -0.892  -2.438   0.000  0.00  0.00    +0.000 OA
ATOM     11  C   UNL     1      -2.004  -1.540   0.000  0.00  0.00    +0.000 A 
ATOM     12  C   UNL     1      -2.300  -0.770   0.000  0.00  0.00    +0.000 A 
ATOM     13  O   UNL     1      -1.782  -0.129   0.000  0.00  0.00    +0.000 OA
ATOM     14  C   UNL     1      -3.115  -0.642   0.000  0.00  0.00    +0.000 A 
ATOM     15  C   UNL     1      -3.634  -1.284   0.000  0.00  0.00    +0.000 A 
ATOM     16  C   UNL     1      -3.337  -2.054   0.000  0.00  0.00    +0.000 A 
ATOM     17  C   UNL     1      -2.522  -2.182   0.000  0.00  0.00    +0.000 A 
ATOM     18  C   UNL     1      -2.225  -2.952   0.000  0.00  0.00    +0.000 A 
ATOM     19  C   UNL     1      -2.743  -3.594   0.000  0.00  0.00    +0.000 A 
ATOM     20  O   UNL     1      -2.447  -4.364   0.000  0.00  0.00    +0.000 OA
ATOM     21  C   UNL     1      -2.965  -5.005   0.000  0.00  0.00    +0.000 C 
ATOM     22  C   UNL     1      -3.558  -3.466   0.000  0.00  0.00    +0.000 A 
ATOM     23  C   UNL     1      -3.855  -2.696   0.000  0.00  0.00    +0.000 A 
ATOM     24  C   UNL     1      -4.670  -2.568   0.000  0.00  0.00    +0.000 C 
ATOM     25  C   UNL     1       0.727  -0.570   0.000  0.00  0.00    +0.000 C 
ATOM     26  C   UNL     1       1.463  -0.943   0.000  0.00  0.00    +0.000 C 
ATOM     27  C   UNL     1       2.085  -0.401   0.000  0.00  0.00    +0.000 C 
ATOM     28  C   UNL     1       2.909  -0.386   0.000  0.00  0.00    +0.000 C 
ATOM     29  C   UNL     1       3.551  -0.904   0.000  0.00  0.00    +0.000 C 
ATOM     30  O   UNL     1       4.332  -1.171   0.000  0.00  0.00    +0.000 OA
ATOM     31  C   UNL     1       3.710  -1.713   0.000  0.00  0.00    +0.000 C 
ATOM     32  C   UNL     1       3.311  -2.436   0.000  0.00  0.00    +0.000 C 
ATOM     33  C   UNL     1       2.541  -2.732   0.000  0.00  0.00    +0.000 C 
ATOM     34  C   UNL     1       1.761  -2.465   0.000  0.00  0.00    +0.000 C 
ATOM     35  C   UNL     1       1.335  -1.758   0.000  0.00  0.00    +0.000 C 
ATOM     36  C   UNL     1       3.950  -0.182   0.000  0.00  0.00    +0.000 C 
ATOM     37  C   UNL     1       3.600   0.566   0.000  0.00  0.00    +0.000 C 
ATOM     38  O   UNL     1       4.203   1.129   0.000  0.00  0.00    +0.000 OA
ATOM     39  C   UNL     1       4.925   0.730   0.000  0.00  0.00    +0.000 C 
ATOM     40  O   UNL     1       5.672   1.080   0.000  0.00  0.00    +0.000 OA
ATOM     41  O   UNL     1       4.769  -0.080   0.000  0.00  0.00    +0.000 OA
ATOM     42  O   UNL     1       1.421  -3.271   0.000  0.00  0.00    +0.000 OA
ATOM     43  C   UNL     1       1.871  -3.962   0.000  0.00  0.00    +0.000 C 
ATOM     44  C   UNL     1       2.695  -3.918   0.000  0.00  0.00    +0.000 C 
ATOM     45  C   UNL     1       1.498  -4.698   0.000  0.00  0.00    +0.000 C 
ATOM     46  O   UNL     1       1.948  -5.389   0.000  0.00  0.00    +0.000 OA
ATOM     47  C   UNL     1       0.674  -4.742   0.000  0.00  0.00    +0.000 C 
ATOM     48  O   UNL     1       0.300  -5.478   0.000  0.00  0.00    +0.000 OA
ENDROOT
TORSDOF 0
