ROOT
REMARK  Name = zolimidine
REMARK                            x       y       z     vdW  Elec       q    Type
REMARK                         _______ _______ _______ _____ _____    ______ ____
ATOM      1  C   UNL     1      -3.471  -0.698   0.000  0.00  0.00    +0.000 C 
ATOM      2  S   UNL     1      -2.646  -0.698   0.000  0.00  0.00    +0.000 S 
ATOM      3  O   UNL     1      -2.646  -1.523   0.000  0.00  0.00    +0.000 OA
ATOM      4  O   UNL     1      -2.646   0.127   0.000  0.00  0.00    +0.000 OA
ATOM      5  C   UNL     1      -1.821  -0.698   0.000  0.00  0.00    +0.000 A 
ATOM      6  C   UNL     1      -1.409   0.017   0.000  0.00  0.00    +0.000 A 
ATOM      7  C   UNL     1      -0.584   0.017   0.000  0.00  0.00    +0.000 A 
ATOM      8  C   UNL     1      -0.171  -0.698   0.000  0.00  0.00    +0.000 A 
ATOM      9  C   UNL     1      -0.584  -1.412   0.000  0.00  0.00    +0.000 A 
ATOM     10  C   UNL     1      -1.409  -1.412   0.000  0.00  0.00    +0.000 A 
ATOM     11  C   UNL     1       0.654  -0.698   0.000  0.00  0.00    +0.000 A 
ATOM     12  C   UNL     1       1.139  -0.030   0.000  0.00  0.00    +0.000 A 
ATOM     13  N   UNL     1       1.923  -0.285   0.000  0.00  0.00    +0.000 N 
ATOM     14  C   UNL     1       2.638   0.127   0.000  0.00  0.00    +0.000 A 
ATOM     15  C   UNL     1       3.352  -0.285   0.000  0.00  0.00    +0.000 A 
ATOM     16  C   UNL     1       3.352  -1.110   0.000  0.00  0.00    +0.000 A 
ATOM     17  C   UNL     1       2.638  -1.523   0.000  0.00  0.00    +0.000 A 
ATOM     18  C   UNL     1       1.923  -1.110   0.000  0.00  0.00    +0.000 A 
ATOM     19  N   UNL     1       1.139  -1.365   0.000  0.00  0.00    +0.000 NA
ENDROOT
TORSDOF 0
