ROOT
REMARK  Name = zolpidem
REMARK                            x       y       z     vdW  Elec       q    Type
REMARK                         _______ _______ _______ _____ _____    ______ ____
ATOM      1  C   UNL     1       1.733  -4.161   0.000  0.00  0.00    +0.000 C 
ATOM      2  N   UNL     1       1.181  -3.548   0.000  0.00  0.00    +0.000 N 
ATOM      3  C   UNL     1       0.374  -3.719   0.000  0.00  0.00    +0.000 C 
ATOM      4  C   UNL     1       1.436  -2.763   0.000  0.00  0.00    +0.000 C 
ATOM      5  O   UNL     1       2.243  -2.592   0.000  0.00  0.00    +0.000 OA
ATOM      6  C   UNL     1       0.884  -2.150   0.000  0.00  0.00    +0.000 C 
ATOM      7  C   UNL     1       1.139  -1.365   0.000  0.00  0.00    +0.000 A 
ATOM      8  C   UNL     1       0.654  -0.698   0.000  0.00  0.00    +0.000 A 
ATOM      9  N   UNL     1       1.139  -0.030   0.000  0.00  0.00    +0.000 NA
ATOM     10  C   UNL     1       1.923  -0.285   0.000  0.00  0.00    +0.000 A 
ATOM     11  C   UNL     1       2.638   0.127   0.000  0.00  0.00    +0.000 A 
ATOM     12  C   UNL     1       3.352  -0.285   0.000  0.00  0.00    +0.000 A 
ATOM     13  C   UNL     1       3.352  -1.110   0.000  0.00  0.00    +0.000 A 
ATOM     14  C   UNL     1       4.067  -1.523   0.000  0.00  0.00    +0.000 C 
ATOM     15  C   UNL     1       2.638  -1.523   0.000  0.00  0.00    +0.000 A 
ATOM     16  N   UNL     1       1.923  -1.110   0.000  0.00  0.00    +0.000 N 
ATOM     17  C   UNL     1      -0.171  -0.698   0.000  0.00  0.00    +0.000 A 
ATOM     18  C   UNL     1      -0.584  -1.412   0.000  0.00  0.00    +0.000 A 
ATOM     19  C   UNL     1      -1.409  -1.412   0.000  0.00  0.00    +0.000 A 
ATOM     20  C   UNL     1      -1.821  -0.698   0.000  0.00  0.00    +0.000 A 
ATOM     21  C   UNL     1      -2.646  -0.698   0.000  0.00  0.00    +0.000 C 
ATOM     22  C   UNL     1      -1.409   0.017   0.000  0.00  0.00    +0.000 A 
ATOM     23  C   UNL     1      -0.584   0.017   0.000  0.00  0.00    +0.000 A 
ENDROOT
TORSDOF 0
