REMARK  Name = 3672
REMARK  8 active torsions:
REMARK  status: ('A' for Active; 'I' for Inactive)
REMARK    1  A    between atoms: O_1  and  C_15
REMARK    2  A    between atoms: C_3  and  C_4
REMARK    3  A    between atoms: C_3  and  C_8
REMARK    4  A    between atoms: C_3  and  C_9
REMARK    5  A    between atoms: C_4  and  C_5
REMARK    6  A    between atoms: C_6  and  C_7
REMARK    7  A    between atoms: C_7  and  C_14
REMARK    8  A    between atoms: C_7  and  C_15
REMARK                            x       y       z     vdW  Elec       q    Type
REMARK                         _______ _______ _______ _____ _____    ______ ____
ROOT
ATOM      1  C   UNL     1       1.653   0.739  -0.247  0.00  0.00    +0.000 A 
ATOM      2  C   UNL     1      -1.095   0.594   0.090  0.00  0.00    +0.000 A 
ATOM      3  C   UNL     1       0.869   0.228  -1.270  0.00  0.00    +0.000 A 
ATOM      4  C   UNL     1       1.090   1.179   0.941  0.00  0.00    +0.000 A 
ATOM      5  C   UNL     1      -0.513   0.155  -1.100  0.00  0.00    +0.000 A 
ATOM      6  C   UNL     1      -0.293   1.106   1.110  0.00  0.00    +0.000 A 
ATOM      7  H   UNL     1       1.308  -0.110  -2.204  0.00  0.00    +0.000 HD
ATOM      8  H   UNL     1       1.702   1.585   1.740  0.00  0.00    +0.000 HD
ATOM      9  H   UNL     1      -1.121  -0.245  -1.907  0.00  0.00    +0.000 HD
ATOM     10  H   UNL     1      -0.729   1.453   2.043  0.00  0.00    +0.000 HD
ENDROOT
BRANCH   1  11
ATOM     11  C   UNL     1       3.149   0.819  -0.431  0.00  0.00    +0.000 C 
ATOM     12  H   UNL     1       3.379   1.024  -1.485  0.00  0.00    +0.000 HD
ATOM     13  H   UNL     1       3.530   1.691   0.118  0.00  0.00    +0.000 HD
BRANCH  11  14
ATOM     14  C   UNL     1       3.902  -0.441   0.036  0.00  0.00    +0.000 C 
ATOM     15  H   UNL     1       4.978  -0.253  -0.073  0.00  0.00    +0.000 HD
BRANCH  14  16
ATOM     16  C   UNL     1       3.608  -0.776   1.500  0.00  0.00    +0.000 C 
ATOM     17  H   UNL     1       2.579  -1.117   1.657  0.00  0.00    +0.000 HD
ATOM     18  H   UNL     1       3.796   0.088   2.146  0.00  0.00    +0.000 HD
ATOM     19  H   UNL     1       4.266  -1.585   1.837  0.00  0.00    +0.000 HD
ENDBRANCH  14  16
BRANCH  14  20
ATOM     20  C   UNL     1       3.524  -1.630  -0.851  0.00  0.00    +0.000 C 
ATOM     21  H   UNL     1       4.178  -2.481  -0.630  0.00  0.00    +0.000 HD
ATOM     22  H   UNL     1       2.496  -1.969  -0.686  0.00  0.00    +0.000 HD
ATOM     23  H   UNL     1       3.649  -1.389  -1.911  0.00  0.00    +0.000 HD
ENDBRANCH  14  20
ENDBRANCH  11  14
ENDBRANCH   1  11
BRANCH   2  24
ATOM     24  C   UNL     1      -2.573   0.515   0.272  0.00  0.00    +0.000 C 
ATOM     25  H   UNL     1      -2.824   0.890   1.274  0.00  0.00    +0.000 HD
BRANCH  24  26
ATOM     26  C   UNL     1      -3.374   1.349  -0.749  0.00  0.00    +0.000 C 
ATOM     27  H   UNL     1      -3.001   2.379  -0.784  0.00  0.00    +0.000 HD
ATOM     28  H   UNL     1      -3.303   0.929  -1.758  0.00  0.00    +0.000 HD
ATOM     29  H   UNL     1      -4.436   1.389  -0.483  0.00  0.00    +0.000 HD
ENDBRANCH  24  26
BRANCH  24  31
ATOM     30  O   UNL     1      -2.401  -1.911   0.053  0.00  0.00    +0.000 OA
ATOM     31  C   UNL     1      -3.100  -0.923   0.233  0.00  0.00    +0.000 C 
BRANCH  31  32
ATOM     32  O   UNL     1      -4.446  -1.003   0.411  0.00  0.00    +0.000 OA
ATOM     33  H   UNL     1      -4.764  -1.931   0.378  0.00  0.00    +0.000 HD
ENDBRANCH  31  32
ENDBRANCH  24  31
ENDBRANCH   2  24
TORSDOF 8
