MODEL 4
REMARK VINA RESULT:    -8.683      4.960      6.311
REMARK INTER + INTRA:         -11.521
REMARK INTER:                 -11.019
REMARK INTRA:                  -0.502
REMARK UNBOUND:                -0.300
REMARK  Name = 2662
REMARK  6 active torsions:
REMARK  status: ('A' for Active; 'I' for Inactive)
REMARK    1  A    between atoms: S_1  and  N_9
REMARK    2  A    between atoms: S_1  and  C_17
REMARK    3  A    between atoms: N_7  and  C_11
REMARK    4  A    between atoms: C_10  and  C_12
REMARK    5  A    between atoms: C_14  and  C_25
REMARK    6  A    between atoms: C_22  and  C_26
REMARK                            x       y       z     vdW  Elec       q    Type
REMARK                         _______ _______ _______ _____ _____    ______ ____
ROOT
ATOM      1  N   UNL     1      22.380   0.323  34.179  0.00  0.00    +0.000 N 
ATOM      2  N   UNL     1      21.566  -0.618  34.689  0.00  0.00    +0.000 NA
ATOM      3  C   UNL     1      23.446   0.624  34.976  0.00  0.00    +0.000 A 
ATOM      4  C   UNL     1      23.319  -0.178  36.085  0.00  0.00    +0.000 A 
ATOM      5  C   UNL     1      22.145  -0.920  35.853  0.00  0.00    +0.000 A 
ATOM      6  H   UNL     1      23.981  -0.220  36.939  0.00  0.00    +0.000 HD
ENDROOT
BRANCH   1   7
ATOM      7  C   UNL     1      22.082   0.888  32.937  0.00  0.00    +0.000 A 
ATOM      8  C   UNL     1      21.157   1.921  32.860  0.00  0.00    +0.000 A 
ATOM      9  C   UNL     1      22.713   0.408  31.798  0.00  0.00    +0.000 A 
ATOM     10  C   UNL     1      21.488   2.011  30.469  0.00  0.00    +0.000 A 
ATOM     11  C   UNL     1      20.859   2.486  31.619  0.00  0.00    +0.000 A 
ATOM     12  C   UNL     1      22.414   0.972  30.557  0.00  0.00    +0.000 A 
ATOM     13  H   UNL     1      20.768   2.476  33.688  0.00  0.00    +0.000 HD
ATOM     14  H   UNL     1      23.431  -0.408  31.833  0.00  0.00    +0.000 HD
ATOM     15  H   UNL     1      20.169   3.324  31.577  0.00  0.00    +0.000 HD
ATOM     16  H   UNL     1      22.919   0.590  29.675  0.00  0.00    +0.000 HD
BRANCH  10  17
ATOM     17  S   UNL     1      21.115   2.718  28.916  0.00  0.00    +0.000 S 
ATOM     18  O   UNL     1      20.356   3.941  29.139  0.00  0.00    +0.000 OA
ATOM     19  O   UNL     1      22.334   2.757  28.121  0.00  0.00    +0.000 OA
BRANCH  17  20
ATOM     20  N   UNL     1      20.070   1.533  28.262  0.00  0.00    +0.000 NA
ATOM     21  H   UNL     1      19.071   1.603  28.487  0.00  0.00    +0.000 HD
ATOM     22  H   UNL     1      20.261   1.206  27.308  0.00  0.00    +0.000 HD
ENDBRANCH  17  20
ENDBRANCH  10  17
ENDBRANCH   1   7
BRANCH   3  23
ATOM     23  C   UNL     1      24.461   1.597  34.654  0.00  0.00    +0.000 A 
ATOM     24  C   UNL     1      24.809   2.575  35.586  0.00  0.00    +0.000 A 
ATOM     25  C   UNL     1      25.094   1.560  33.412  0.00  0.00    +0.000 A 
ATOM     26  C   UNL     1      26.423   3.480  34.033  0.00  0.00    +0.000 A 
ATOM     27  C   UNL     1      25.791   3.517  35.275  0.00  0.00    +0.000 A 
ATOM     28  C   UNL     1      26.075   2.502  33.101  0.00  0.00    +0.000 A 
ATOM     29  H   UNL     1      24.313   2.632  36.552  0.00  0.00    +0.000 HD
ATOM     30  H   UNL     1      24.835   0.804  32.675  0.00  0.00    +0.000 HD
ATOM     31  H   UNL     1      26.052   4.275  36.008  0.00  0.00    +0.000 HD
ATOM     32  H   UNL     1      26.563   2.461  32.130  0.00  0.00    +0.000 HD
BRANCH  26  33
ATOM     33  C   UNL     1      27.472   4.486  33.699  0.00  0.00    +0.000 C 
ATOM     34  H   UNL     1      27.986   4.227  32.767  0.00  0.00    +0.000 HD
ATOM     35  H   UNL     1      27.036   5.481  33.557  0.00  0.00    +0.000 HD
ATOM     36  H   UNL     1      28.211   4.539  34.504  0.00  0.00    +0.000 HD
ENDBRANCH  26  33
ENDBRANCH   3  23
BRANCH   5  40
ATOM     37  F   UNL     1      20.223  -1.698  36.992  0.00  0.00    +0.000 F 
ATOM     38  F   UNL     1      21.589  -3.196  36.206  0.00  0.00    +0.000 F 
ATOM     39  F   UNL     1      22.162  -2.005  37.940  0.00  0.00    +0.000 F 
ATOM     40  C   UNL     1      21.540  -1.937  36.729  0.00  0.00    +0.000 C 
ENDBRANCH   5  40
TORSDOF 6
ENDMDL
