MODEL 1
REMARK VINA RESULT:   -12.546      0.000      0.000
REMARK INTER + INTRA:         -12.546
REMARK INTER:                 -12.546
REMARK INTRA:                   0.000
REMARK UNBOUND:                 0.000
ROOT
REMARK  Name = (2-benzhydryloxyethyl)diethyl-methylammonium iodide
REMARK                            x       y       z     vdW  Elec       q    Type
REMARK                         _______ _______ _______ _____ _____    ______ ____
ATOM      1  C   UNL     1      61.793  64.429  69.976  0.00  0.00    +0.000 C 
ATOM      2  C   UNL     1      61.304  64.043  69.435  0.00  0.00    +0.000 C 
ATOM      3  N   UNL     1      61.616  63.767  68.722  0.00  0.00    +0.000 N 
ATOM      4  C   UNL     1      62.361  64.053  68.936  0.00  0.00    +0.000 C 
ATOM      5  C   UNL     1      60.873  63.480  68.508  0.00  0.00    +0.000 C 
ATOM      6  C   UNL     1      60.771  63.098  67.784  0.00  0.00    +0.000 C 
ATOM      7  C   UNL     1      61.928  63.491  68.010  0.00  0.00    +0.000 C 
ATOM      8  C   UNL     1      61.440  63.104  67.469  0.00  0.00    +0.000 C 
ATOM      9  O   UNL     1      61.752  62.828  66.756  0.00  0.00    +0.000 OA
ATOM     10  C   UNL     1      61.264  62.442  66.215  0.00  0.00    +0.000 C 
ATOM     11  C   UNL     1      61.576  62.166  65.502  0.00  0.00    +0.000 A 
ATOM     12  C   UNL     1      61.087  61.779  64.961  0.00  0.00    +0.000 A 
ATOM     13  C   UNL     1      61.399  61.503  64.249  0.00  0.00    +0.000 A 
ATOM     14  C   UNL     1      62.199  61.613  64.078  0.00  0.00    +0.000 A 
ATOM     15  C   UNL     1      62.686  61.999  64.620  0.00  0.00    +0.000 A 
ATOM     16  C   UNL     1      62.375  62.275  65.332  0.00  0.00    +0.000 A 
ATOM     17  C   UNL     1      60.464  62.332  66.385  0.00  0.00    +0.000 A 
ATOM     18  C   UNL     1      60.152  62.608  67.098  0.00  0.00    +0.000 A 
ATOM     19  C   UNL     1      59.353  62.499  67.269  0.00  0.00    +0.000 A 
ATOM     20  C   UNL     1      58.864  62.112  66.727  0.00  0.00    +0.000 A 
ATOM     21  C   UNL     1      59.176  61.836  66.014  0.00  0.00    +0.000 A 
ATOM     22  C   UNL     1      59.976  61.946  65.844  0.00  0.00    +0.000 A 
ENDROOT
TORSDOF 0
ENDMDL
MODEL 2
REMARK VINA RESULT:   -11.428      3.108      4.918
REMARK INTER + INTRA:         -11.428
REMARK INTER:                 -11.428
REMARK INTRA:                   0.000
REMARK UNBOUND:                 0.000
ROOT
REMARK  Name = (2-benzhydryloxyethyl)diethyl-methylammonium iodide
REMARK                            x       y       z     vdW  Elec       q    Type
REMARK                         _______ _______ _______ _____ _____    ______ ____
ATOM      1  C   UNL     1      59.464  66.908  69.182  0.00  0.00    +0.000 C 
ATOM      2  C   UNL     1      59.615  66.098  69.130  0.00  0.00    +0.000 C 
ATOM      3  N   UNL     1      59.920  65.692  69.781  0.00  0.00    +0.000 N 
ATOM      4  C   UNL     1      59.921  66.393  70.218  0.00  0.00    +0.000 C 
ATOM      5  C   UNL     1      59.919  64.992  69.345  0.00  0.00    +0.000 C 
ATOM      6  C   UNL     1      60.182  64.291  69.690  0.00  0.00    +0.000 C 
ATOM      7  C   UNL     1      60.224  65.287  70.431  0.00  0.00    +0.000 C 
ATOM      8  C   UNL     1      60.375  64.478  70.379  0.00  0.00    +0.000 C 
ATOM      9  O   UNL     1      60.680  64.072  71.030  0.00  0.00    +0.000 OA
ATOM     10  C   UNL     1      60.831  63.263  70.978  0.00  0.00    +0.000 C 
ATOM     11  C   UNL     1      61.136  62.857  71.629  0.00  0.00    +0.000 A 
ATOM     12  C   UNL     1      61.287  62.048  71.576  0.00  0.00    +0.000 A 
ATOM     13  C   UNL     1      61.592  61.642  72.227  0.00  0.00    +0.000 A 
ATOM     14  C   UNL     1      61.745  62.046  72.930  0.00  0.00    +0.000 A 
ATOM     15  C   UNL     1      61.593  62.855  72.982  0.00  0.00    +0.000 A 
ATOM     16  C   UNL     1      61.289  63.261  72.331  0.00  0.00    +0.000 A 
ATOM     17  C   UNL     1      60.678  62.859  70.275  0.00  0.00    +0.000 A 
ATOM     18  C   UNL     1      60.374  63.265  69.624  0.00  0.00    +0.000 A 
ATOM     19  C   UNL     1      60.220  62.862  68.921  0.00  0.00    +0.000 A 
ATOM     20  C   UNL     1      60.372  62.052  68.869  0.00  0.00    +0.000 A 
ATOM     21  C   UNL     1      60.676  61.646  69.519  0.00  0.00    +0.000 A 
ATOM     22  C   UNL     1      60.829  62.050  70.222  0.00  0.00    +0.000 A 
ENDROOT
TORSDOF 0
ENDMDL
MODEL 3
REMARK VINA RESULT:   -11.242      2.605      5.838
REMARK INTER + INTRA:         -11.242
REMARK INTER:                 -11.242
REMARK INTRA:                   0.000
REMARK UNBOUND:                 0.000
ROOT
REMARK  Name = (2-benzhydryloxyethyl)diethyl-methylammonium iodide
REMARK                            x       y       z     vdW  Elec       q    Type
REMARK                         _______ _______ _______ _____ _____    ______ ____
ATOM      1  C   UNL     1      60.599  62.009  67.525  0.00  0.00    +0.000 C 
ATOM      2  C   UNL     1      60.789  62.031  68.328  0.00  0.00    +0.000 C 
ATOM      3  N   UNL     1      60.499  62.640  68.804  0.00  0.00    +0.000 N 
ATOM      4  C   UNL     1      60.112  62.966  68.151  0.00  0.00    +0.000 C 
ATOM      5  C   UNL     1      60.885  62.315  69.456  0.00  0.00    +0.000 C 
ATOM      6  C   UNL     1      60.827  62.679  70.193  0.00  0.00    +0.000 C 
ATOM      7  C   UNL     1      60.209  63.248  69.279  0.00  0.00    +0.000 C 
ATOM      8  C   UNL     1      60.398  63.271  70.081  0.00  0.00    +0.000 C 
ATOM      9  O   UNL     1      60.108  63.880  70.557  0.00  0.00    +0.000 OA
ATOM     10  C   UNL     1      60.298  63.902  71.359  0.00  0.00    +0.000 C 
ATOM     11  C   UNL     1      60.008  64.512  71.835  0.00  0.00    +0.000 A 
ATOM     12  C   UNL     1      60.198  64.534  72.637  0.00  0.00    +0.000 A 
ATOM     13  C   UNL     1      59.908  65.143  73.113  0.00  0.00    +0.000 A 
ATOM     14  C   UNL     1      59.428  65.730  72.785  0.00  0.00    +0.000 A 
ATOM     15  C   UNL     1      59.239  65.706  71.983  0.00  0.00    +0.000 A 
ATOM     16  C   UNL     1      59.529  65.098  71.507  0.00  0.00    +0.000 A 
ATOM     17  C   UNL     1      60.778  63.316  71.687  0.00  0.00    +0.000 A 
ATOM     18  C   UNL     1      61.067  62.708  71.211  0.00  0.00    +0.000 A 
ATOM     19  C   UNL     1      61.547  62.121  71.538  0.00  0.00    +0.000 A 
ATOM     20  C   UNL     1      61.737  62.144  72.341  0.00  0.00    +0.000 A 
ATOM     21  C   UNL     1      61.447  62.753  72.816  0.00  0.00    +0.000 A 
ATOM     22  C   UNL     1      60.967  63.339  72.488  0.00  0.00    +0.000 A 
ENDROOT
TORSDOF 0
ENDMDL
MODEL 4
REMARK VINA RESULT:   -11.171      3.013      5.027
REMARK INTER + INTRA:         -11.171
REMARK INTER:                 -11.171
REMARK INTRA:                   0.000
REMARK UNBOUND:                 0.000
ROOT
REMARK  Name = (2-benzhydryloxyethyl)diethyl-methylammonium iodide
REMARK                            x       y       z     vdW  Elec       q    Type
REMARK                         _______ _______ _______ _____ _____    ______ ____
ATOM      1  C   UNL     1      59.350  66.719  73.222  0.00  0.00    +0.000 C 
ATOM      2  C   UNL     1      59.723  65.989  73.131  0.00  0.00    +0.000 C 
ATOM      3  N   UNL     1      59.722  65.615  72.394  0.00  0.00    +0.000 N 
ATOM      4  C   UNL     1      59.290  66.242  72.076  0.00  0.00    +0.000 C 
ATOM      5  C   UNL     1      60.154  64.988  72.713  0.00  0.00    +0.000 C 
ATOM      6  C   UNL     1      60.369  64.351  72.235  0.00  0.00    +0.000 C 
ATOM      7  C   UNL     1      59.721  65.241  71.660  0.00  0.00    +0.000 C 
ATOM      8  C   UNL     1      60.095  64.512  71.567  0.00  0.00    +0.000 C 
ATOM      9  O   UNL     1      60.094  64.138  70.832  0.00  0.00    +0.000 OA
ATOM     10  C   UNL     1      60.467  63.408  70.740  0.00  0.00    +0.000 C 
ATOM     11  C   UNL     1      60.466  63.034  70.004  0.00  0.00    +0.000 A 
ATOM     12  C   UNL     1      60.840  62.304  69.912  0.00  0.00    +0.000 A 
ATOM     13  C   UNL     1      60.839  61.930  69.177  0.00  0.00    +0.000 A 
ATOM     14  C   UNL     1      60.464  62.286  68.533  0.00  0.00    +0.000 A 
ATOM     15  C   UNL     1      60.091  63.016  68.626  0.00  0.00    +0.000 A 
ATOM     16  C   UNL     1      60.092  63.390  69.361  0.00  0.00    +0.000 A 
ATOM     17  C   UNL     1      60.842  63.052  71.383  0.00  0.00    +0.000 A 
ATOM     18  C   UNL     1      60.843  63.426  72.118  0.00  0.00    +0.000 A 
ATOM     19  C   UNL     1      61.217  63.071  72.762  0.00  0.00    +0.000 A 
ATOM     20  C   UNL     1      61.591  62.340  72.670  0.00  0.00    +0.000 A 
ATOM     21  C   UNL     1      61.590  61.966  71.934  0.00  0.00    +0.000 A 
ATOM     22  C   UNL     1      61.215  62.323  71.291  0.00  0.00    +0.000 A 
ENDROOT
TORSDOF 0
ENDMDL
MODEL 5
REMARK VINA RESULT:   -11.169      1.568      4.495
REMARK INTER + INTRA:         -11.169
REMARK INTER:                 -11.169
REMARK INTRA:                   0.000
REMARK UNBOUND:                 0.000
ROOT
REMARK  Name = (2-benzhydryloxyethyl)diethyl-methylammonium iodide
REMARK                            x       y       z     vdW  Elec       q    Type
REMARK                         _______ _______ _______ _____ _____    ______ ____
ATOM      1  C   UNL     1      60.199  62.061  65.993  0.00  0.00    +0.000 C 
ATOM      2  C   UNL     1      60.228  62.006  66.816  0.00  0.00    +0.000 C 
ATOM      3  N   UNL     1      60.697  62.531  67.248  0.00  0.00    +0.000 N 
ATOM      4  C   UNL     1      60.934  62.897  66.546  0.00  0.00    +0.000 C 
ATOM      5  C   UNL     1      60.461  62.166  67.949  0.00  0.00    +0.000 C 
ATOM      6  C   UNL     1      60.748  62.438  68.672  0.00  0.00    +0.000 C 
ATOM      7  C   UNL     1      61.165  63.055  67.678  0.00  0.00    +0.000 C 
ATOM      8  C   UNL     1      61.195  63.002  68.501  0.00  0.00    +0.000 C 
ATOM      9  O   UNL     1      61.664  63.527  68.932  0.00  0.00    +0.000 OA
ATOM     10  C   UNL     1      61.693  63.473  69.754  0.00  0.00    +0.000 C 
ATOM     11  C   UNL     1      62.162  63.998  70.186  0.00  0.00    +0.000 A 
ATOM     12  C   UNL     1      62.191  63.944  71.009  0.00  0.00    +0.000 A 
ATOM     13  C   UNL     1      62.660  64.468  71.440  0.00  0.00    +0.000 A 
ATOM     14  C   UNL     1      63.100  65.047  71.048  0.00  0.00    +0.000 A 
ATOM     15  C   UNL     1      63.070  65.100  70.226  0.00  0.00    +0.000 A 
ATOM     16  C   UNL     1      62.601  64.576  69.794  0.00  0.00    +0.000 A 
ATOM     17  C   UNL     1      61.254  62.895  70.146  0.00  0.00    +0.000 A 
ATOM     18  C   UNL     1      60.786  62.370  69.715  0.00  0.00    +0.000 A 
ATOM     19  C   UNL     1      60.347  61.791  70.106  0.00  0.00    +0.000 A 
ATOM     20  C   UNL     1      60.376  61.738  70.930  0.00  0.00    +0.000 A 
ATOM     21  C   UNL     1      60.845  62.262  71.361  0.00  0.00    +0.000 A 
ATOM     22  C   UNL     1      61.284  62.841  70.968  0.00  0.00    +0.000 A 
ENDROOT
TORSDOF 0
ENDMDL
MODEL 6
REMARK VINA RESULT:   -11.148      1.730      3.213
REMARK INTER + INTRA:         -11.148
REMARK INTER:                 -11.148
REMARK INTRA:                   0.000
REMARK UNBOUND:                 0.000
ROOT
REMARK  Name = (2-benzhydryloxyethyl)diethyl-methylammonium iodide
REMARK                            x       y       z     vdW  Elec       q    Type
REMARK                         _______ _______ _______ _____ _____    ______ ____
ATOM      1  C   UNL     1      63.639  65.746  71.357  0.00  0.00    +0.000 C 
ATOM      2  C   UNL     1      63.131  65.098  71.304  0.00  0.00    +0.000 C 
ATOM      3  N   UNL     1      62.833  64.867  70.570  0.00  0.00    +0.000 N 
ATOM      4  C   UNL     1      63.247  65.483  70.208  0.00  0.00    +0.000 C 
ATOM      5  C   UNL     1      62.418  64.253  70.931  0.00  0.00    +0.000 C 
ATOM      6  C   UNL     1      61.953  63.746  70.477  0.00  0.00    +0.000 C 
ATOM      7  C   UNL     1      62.535  64.637  69.837  0.00  0.00    +0.000 C 
ATOM      8  C   UNL     1      62.027  63.990  69.782  0.00  0.00    +0.000 C 
ATOM      9  O   UNL     1      61.728  63.759  69.049  0.00  0.00    +0.000 OA
ATOM     10  C   UNL     1      61.220  63.112  68.995  0.00  0.00    +0.000 C 
ATOM     11  C   UNL     1      60.922  62.881  68.260  0.00  0.00    +0.000 A 
ATOM     12  C   UNL     1      60.414  62.233  68.207  0.00  0.00    +0.000 A 
ATOM     13  C   UNL     1      60.115  62.003  67.473  0.00  0.00    +0.000 A 
ATOM     14  C   UNL     1      60.325  62.420  66.793  0.00  0.00    +0.000 A 
ATOM     15  C   UNL     1      60.833  63.068  66.847  0.00  0.00    +0.000 A 
ATOM     16  C   UNL     1      61.131  63.298  67.581  0.00  0.00    +0.000 A 
ATOM     17  C   UNL     1      61.010  62.694  69.675  0.00  0.00    +0.000 A 
ATOM     18  C   UNL     1      61.309  62.925  70.409  0.00  0.00    +0.000 A 
ATOM     19  C   UNL     1      61.099  62.508  71.089  0.00  0.00    +0.000 A 
ATOM     20  C   UNL     1      60.591  61.860  71.035  0.00  0.00    +0.000 A 
ATOM     21  C   UNL     1      60.292  61.629  70.301  0.00  0.00    +0.000 A 
ATOM     22  C   UNL     1      60.503  62.047  69.621  0.00  0.00    +0.000 A 
ENDROOT
TORSDOF 0
ENDMDL
MODEL 7
REMARK VINA RESULT:   -10.933      3.904      5.315
REMARK INTER + INTRA:         -10.933
REMARK INTER:                 -10.933
REMARK INTRA:                   0.000
REMARK UNBOUND:                 0.000
ROOT
REMARK  Name = (2-benzhydryloxyethyl)diethyl-methylammonium iodide
REMARK                            x       y       z     vdW  Elec       q    Type
REMARK                         _______ _______ _______ _____ _____    ______ ____
ATOM      1  C   UNL     1      65.002  66.045  69.816  0.00  0.00    +0.000 C 
ATOM      2  C   UNL     1      64.395  65.870  70.347  0.00  0.00    +0.000 C 
ATOM      3  N   UNL     1      63.902  65.221  70.210  0.00  0.00    +0.000 N 
ATOM      4  C   UNL     1      64.320  65.049  69.518  0.00  0.00    +0.000 C 
ATOM      5  C   UNL     1      63.485  65.391  70.901  0.00  0.00    +0.000 C 
ATOM      6  C   UNL     1      62.851  64.916  71.127  0.00  0.00    +0.000 C 
ATOM      7  C   UNL     1      63.412  64.573  70.074  0.00  0.00    +0.000 C 
ATOM      8  C   UNL     1      62.804  64.396  70.603  0.00  0.00    +0.000 C 
ATOM      9  O   UNL     1      62.313  63.748  70.466  0.00  0.00    +0.000 OA
ATOM     10  C   UNL     1      61.706  63.572  70.996  0.00  0.00    +0.000 C 
ATOM     11  C   UNL     1      61.214  62.923  70.859  0.00  0.00    +0.000 A 
ATOM     12  C   UNL     1      60.607  62.747  71.390  0.00  0.00    +0.000 A 
ATOM     13  C   UNL     1      60.115  62.099  71.253  0.00  0.00    +0.000 A 
ATOM     14  C   UNL     1      60.231  61.626  70.586  0.00  0.00    +0.000 A 
ATOM     15  C   UNL     1      60.839  61.803  70.057  0.00  0.00    +0.000 A 
ATOM     16  C   UNL     1      61.330  62.451  70.193  0.00  0.00    +0.000 A 
ATOM     17  C   UNL     1      61.590  64.044  71.663  0.00  0.00    +0.000 A 
ATOM     18  C   UNL     1      62.081  64.692  71.799  0.00  0.00    +0.000 A 
ATOM     19  C   UNL     1      61.966  65.165  72.466  0.00  0.00    +0.000 A 
ATOM     20  C   UNL     1      61.358  64.988  72.996  0.00  0.00    +0.000 A 
ATOM     21  C   UNL     1      60.867  64.340  72.859  0.00  0.00    +0.000 A 
ATOM     22  C   UNL     1      60.983  63.868  72.192  0.00  0.00    +0.000 A 
ENDROOT
TORSDOF 0
ENDMDL
MODEL 8
REMARK VINA RESULT:   -10.663      5.248      7.008
REMARK INTER + INTRA:         -10.663
REMARK INTER:                 -10.663
REMARK INTRA:                   0.000
REMARK UNBOUND:                 0.000
ROOT
REMARK  Name = (2-benzhydryloxyethyl)diethyl-methylammonium iodide
REMARK                            x       y       z     vdW  Elec       q    Type
REMARK                         _______ _______ _______ _____ _____    ______ ____
ATOM      1  C   UNL     1      60.723  63.028  71.919  0.00  0.00    +0.000 C 
ATOM      2  C   UNL     1      60.945  63.798  72.119  0.00  0.00    +0.000 C 
ATOM      3  N   UNL     1      61.666  64.101  71.853  0.00  0.00    +0.000 N 
ATOM      4  C   UNL     1      61.825  63.387  71.470  0.00  0.00    +0.000 C 
ATOM      5  C   UNL     1      61.507  64.814  72.237  0.00  0.00    +0.000 C 
ATOM      6  C   UNL     1      62.050  65.433  72.198  0.00  0.00    +0.000 C 
ATOM      7  C   UNL     1      62.385  64.404  71.588  0.00  0.00    +0.000 C 
ATOM      8  C   UNL     1      62.607  65.173  71.787  0.00  0.00    +0.000 C 
ATOM      9  O   UNL     1      63.327  65.476  71.522  0.00  0.00    +0.000 OA
ATOM     10  C   UNL     1      63.549  66.245  71.721  0.00  0.00    +0.000 C 
ATOM     11  C   UNL     1      64.270  66.548  71.456  0.00  0.00    +0.000 A 
ATOM     12  C   UNL     1      64.492  67.318  71.656  0.00  0.00    +0.000 A 
ATOM     13  C   UNL     1      65.212  67.621  71.391  0.00  0.00    +0.000 A 
ATOM     14  C   UNL     1      65.710  67.155  70.926  0.00  0.00    +0.000 A 
ATOM     15  C   UNL     1      65.487  66.386  70.727  0.00  0.00    +0.000 A 
ATOM     16  C   UNL     1      64.767  66.083  70.992  0.00  0.00    +0.000 A 
ATOM     17  C   UNL     1      63.052  66.711  72.186  0.00  0.00    +0.000 A 
ATOM     18  C   UNL     1      62.332  66.408  72.451  0.00  0.00    +0.000 A 
ATOM     19  C   UNL     1      61.834  66.873  72.916  0.00  0.00    +0.000 A 
ATOM     20  C   UNL     1      62.056  67.643  73.115  0.00  0.00    +0.000 A 
ATOM     21  C   UNL     1      62.776  67.946  72.850  0.00  0.00    +0.000 A 
ATOM     22  C   UNL     1      63.273  67.480  72.385  0.00  0.00    +0.000 A 
ENDROOT
TORSDOF 0
ENDMDL
MODEL 9
REMARK VINA RESULT:   -10.639      5.660      6.818
REMARK INTER + INTRA:         -10.639
REMARK INTER:                 -10.639
REMARK INTRA:                   0.000
REMARK UNBOUND:                 0.000
ROOT
REMARK  Name = (2-benzhydryloxyethyl)diethyl-methylammonium iodide
REMARK                            x       y       z     vdW  Elec       q    Type
REMARK                         _______ _______ _______ _____ _____    ______ ____
ATOM      1  C   UNL     1      65.836  67.213  70.936  0.00  0.00    +0.000 C 
ATOM      2  C   UNL     1      65.084  67.231  71.276  0.00  0.00    +0.000 C 
ATOM      3  N   UNL     1      64.641  66.536  71.333  0.00  0.00    +0.000 N 
ATOM      4  C   UNL     1      65.254  66.115  70.973  0.00  0.00    +0.000 C 
ATOM      5  C   UNL     1      64.029  66.956  71.693  0.00  0.00    +0.000 C 
ATOM      6  C   UNL     1      63.340  66.566  71.921  0.00  0.00    +0.000 C 
ATOM      7  C   UNL     1      64.199  65.843  71.390  0.00  0.00    +0.000 C 
ATOM      8  C   UNL     1      63.447  65.859  71.729  0.00  0.00    +0.000 C 
ATOM      9  O   UNL     1      63.004  65.166  71.786  0.00  0.00    +0.000 OA
ATOM     10  C   UNL     1      62.253  65.183  72.126  0.00  0.00    +0.000 C 
ATOM     11  C   UNL     1      61.810  64.488  72.183  0.00  0.00    +0.000 A 
ATOM     12  C   UNL     1      61.058  64.506  72.523  0.00  0.00    +0.000 A 
ATOM     13  C   UNL     1      60.616  63.812  72.579  0.00  0.00    +0.000 A 
ATOM     14  C   UNL     1      60.924  63.101  72.296  0.00  0.00    +0.000 A 
ATOM     15  C   UNL     1      61.676  63.084  71.956  0.00  0.00    +0.000 A 
ATOM     16  C   UNL     1      62.119  63.778  71.900  0.00  0.00    +0.000 A 
ATOM     17  C   UNL     1      61.944  65.893  72.409  0.00  0.00    +0.000 A 
ATOM     18  C   UNL     1      62.387  66.587  72.352  0.00  0.00    +0.000 A 
ATOM     19  C   UNL     1      62.078  67.298  72.635  0.00  0.00    +0.000 A 
ATOM     20  C   UNL     1      61.326  67.315  72.975  0.00  0.00    +0.000 A 
ATOM     21  C   UNL     1      60.883  66.621  73.032  0.00  0.00    +0.000 A 
ATOM     22  C   UNL     1      61.193  65.910  72.749  0.00  0.00    +0.000 A 
ENDROOT
TORSDOF 0
ENDMDL
