MODEL 1
REMARK VINA RESULT:   -16.586      0.000      0.000
REMARK INTER + INTRA:         -16.586
REMARK INTER:                 -16.586
REMARK INTRA:                   0.000
REMARK UNBOUND:                 0.000
ROOT
REMARK  Name = abemaciclib
REMARK                            x       y       z     vdW  Elec       q    Type
REMARK                         _______ _______ _______ _____ _____    ______ ____
ATOM      1  C   UNL     1      66.699  67.237  70.829  0.00  0.00    +0.000 C 
ATOM      2  C   UNL     1      66.129  67.372  71.410  0.00  0.00    +0.000 C 
ATOM      3  N   UNL     1      65.374  67.048  71.331  0.00  0.00    +0.000 NA
ATOM      4  C   UNL     1      64.804  67.184  71.912  0.00  0.00    +0.000 C 
ATOM      5  C   UNL     1      64.050  66.860  71.833  0.00  0.00    +0.000 C 
ATOM      6  N   UNL     1      63.864  66.401  71.173  0.00  0.00    +0.000 NA
ATOM      7  C   UNL     1      63.110  66.077  71.094  0.00  0.00    +0.000 C 
ATOM      8  C   UNL     1      62.925  65.619  70.434  0.00  0.00    +0.000 A 
ATOM      9  C   UNL     1      62.170  65.296  70.355  0.00  0.00    +0.000 A 
ATOM     10  C   UNL     1      61.985  64.836  69.694  0.00  0.00    +0.000 A 
ATOM     11  C   UNL     1      62.555  64.702  69.113  0.00  0.00    +0.000 A 
ATOM     12  N   UNL     1      62.369  64.242  68.453  0.00  0.00    +0.000 NA
ATOM     13  C   UNL     1      61.614  63.919  68.374  0.00  0.00    +0.000 A 
ATOM     14  N   UNL     1      61.045  64.054  68.955  0.00  0.00    +0.000 NA
ATOM     15  C   UNL     1      60.290  63.731  68.876  0.00  0.00    +0.000 A 
ATOM     16  C   UNL     1      60.105  63.272  68.215  0.00  0.00    +0.000 A 
ATOM     17  F   UNL     1      59.350  62.948  68.136  0.00  0.00    +0.000 F 
ATOM     18  C   UNL     1      60.675  63.137  67.635  0.00  0.00    +0.000 A 
ATOM     19  N   UNL     1      61.430  63.461  67.714  0.00  0.00    +0.000 NA
ATOM     20  C   UNL     1      60.489  62.678  66.974  0.00  0.00    +0.000 A 
ATOM     21  C   UNL     1      59.735  62.354  66.895  0.00  0.00    +0.000 A 
ATOM     22  C   UNL     1      59.550  61.896  66.235  0.00  0.00    +0.000 A 
ATOM     23  F   UNL     1      58.795  61.572  66.156  0.00  0.00    +0.000 F 
ATOM     24  C   UNL     1      60.119  61.760  65.653  0.00  0.00    +0.000 A 
ATOM     25  N   UNL     1      60.098  61.335  64.948  0.00  0.00    +0.000 NA
ATOM     26  C   UNL     1      60.839  61.395  64.590  0.00  0.00    +0.000 A 
ATOM     27  C   UNL     1      61.061  61.052  63.874  0.00  0.00    +0.000 C 
ATOM     28  N   UNL     1      61.318  61.858  65.076  0.00  0.00    +0.000 N 
ATOM     29  C   UNL     1      62.105  62.060  64.929  0.00  0.00    +0.000 C 
ATOM     30  C   UNL     1      62.517  62.530  65.468  0.00  0.00    +0.000 C 
ATOM     31  C   UNL     1      62.480  61.792  64.245  0.00  0.00    +0.000 C 
ATOM     32  C   UNL     1      60.874  62.084  65.732  0.00  0.00    +0.000 A 
ATOM     33  C   UNL     1      61.059  62.543  66.393  0.00  0.00    +0.000 A 
ATOM     34  N   UNL     1      63.309  65.025  69.192  0.00  0.00    +0.000 NA
ATOM     35  C   UNL     1      63.494  65.483  69.852  0.00  0.00    +0.000 A 
ATOM     36  C   UNL     1      64.434  66.266  70.592  0.00  0.00    +0.000 C 
ATOM     37  C   UNL     1      65.189  66.590  70.671  0.00  0.00    +0.000 C 
ENDROOT
TORSDOF 0
ENDMDL
MODEL 2
REMARK VINA RESULT:   -15.904      1.499      6.986
REMARK INTER + INTRA:         -15.904
REMARK INTER:                 -15.904
REMARK INTRA:                   0.000
REMARK UNBOUND:                 0.000
ROOT
REMARK  Name = abemaciclib
REMARK                            x       y       z     vdW  Elec       q    Type
REMARK                         _______ _______ _______ _____ _____    ______ ____
ATOM      1  C   UNL     1      62.370  61.541  63.377  0.00  0.00    +0.000 C 
ATOM      2  C   UNL     1      61.644  61.238  63.626  0.00  0.00    +0.000 C 
ATOM      3  N   UNL     1      61.344  61.442  64.366  0.00  0.00    +0.000 NA
ATOM      4  C   UNL     1      60.617  61.138  64.614  0.00  0.00    +0.000 C 
ATOM      5  C   UNL     1      60.317  61.342  65.355  0.00  0.00    +0.000 C 
ATOM      6  N   UNL     1      60.743  61.850  65.848  0.00  0.00    +0.000 NA
ATOM      7  C   UNL     1      60.442  62.054  66.589  0.00  0.00    +0.000 C 
ATOM      8  C   UNL     1      60.867  62.560  67.081  0.00  0.00    +0.000 A 
ATOM      9  C   UNL     1      60.567  62.764  67.822  0.00  0.00    +0.000 A 
ATOM     10  C   UNL     1      60.993  63.271  68.315  0.00  0.00    +0.000 A 
ATOM     11  C   UNL     1      61.719  63.574  68.066  0.00  0.00    +0.000 A 
ATOM     12  N   UNL     1      62.144  64.082  68.559  0.00  0.00    +0.000 NA
ATOM     13  C   UNL     1      61.844  64.285  69.299  0.00  0.00    +0.000 A 
ATOM     14  N   UNL     1      61.118  63.982  69.547  0.00  0.00    +0.000 NA
ATOM     15  C   UNL     1      60.817  64.186  70.288  0.00  0.00    +0.000 A 
ATOM     16  C   UNL     1      61.243  64.693  70.781  0.00  0.00    +0.000 A 
ATOM     17  F   UNL     1      60.942  64.897  71.522  0.00  0.00    +0.000 F 
ATOM     18  C   UNL     1      61.969  64.996  70.532  0.00  0.00    +0.000 A 
ATOM     19  N   UNL     1      62.269  64.792  69.791  0.00  0.00    +0.000 NA
ATOM     20  C   UNL     1      62.395  65.503  71.025  0.00  0.00    +0.000 A 
ATOM     21  C   UNL     1      62.094  65.707  71.766  0.00  0.00    +0.000 A 
ATOM     22  C   UNL     1      62.519  66.214  72.258  0.00  0.00    +0.000 A 
ATOM     23  F   UNL     1      62.219  66.418  72.999  0.00  0.00    +0.000 F 
ATOM     24  C   UNL     1      63.246  66.517  72.010  0.00  0.00    +0.000 A 
ATOM     25  N   UNL     1      63.785  67.024  72.372  0.00  0.00    +0.000 NA
ATOM     26  C   UNL     1      64.419  67.135  71.856  0.00  0.00    +0.000 A 
ATOM     27  C   UNL     1      65.084  67.602  71.997  0.00  0.00    +0.000 C 
ATOM     28  N   UNL     1      64.271  66.695  71.174  0.00  0.00    +0.000 N 
ATOM     29  C   UNL     1      64.762  66.645  70.513  0.00  0.00    +0.000 C 
ATOM     30  C   UNL     1      64.541  66.181  69.868  0.00  0.00    +0.000 C 
ATOM     31  C   UNL     1      65.475  67.060  70.496  0.00  0.00    +0.000 C 
ATOM     32  C   UNL     1      63.546  66.313  71.269  0.00  0.00    +0.000 A 
ATOM     33  C   UNL     1      63.120  65.806  70.776  0.00  0.00    +0.000 A 
ATOM     34  N   UNL     1      62.019  63.370  67.325  0.00  0.00    +0.000 NA
ATOM     35  C   UNL     1      61.594  62.864  66.833  0.00  0.00    +0.000 A 
ATOM     36  C   UNL     1      61.468  62.152  65.599  0.00  0.00    +0.000 C 
ATOM     37  C   UNL     1      61.769  61.948  64.858  0.00  0.00    +0.000 C 
ENDROOT
TORSDOF 0
ENDMDL
