MODEL 1
REMARK VINA RESULT:   -15.899      0.000      0.000
REMARK INTER + INTRA:         -15.899
REMARK INTER:                 -15.899
REMARK INTRA:                   0.000
REMARK UNBOUND:                 0.000
ROOT
REMARK  Name = acarbose
REMARK                            x       y       z     vdW  Elec       q    Type
REMARK                         _______ _______ _______ _____ _____    ______ ____
ATOM      1  C   UNL     1      63.430  65.732  70.544  0.00  0.00    +0.000 C 
ATOM      2  C   UNL     1      62.948  65.703  71.214  0.00  0.00    +0.000 C 
ATOM      3  O   UNL     1      62.281  65.218  71.222  0.00  0.00    +0.000 OA
ATOM      4  C   UNL     1      61.800  65.190  71.892  0.00  0.00    +0.000 C 
ATOM      5  O   UNL     1      61.133  64.705  71.900  0.00  0.00    +0.000 OA
ATOM      6  C   UNL     1      60.947  64.249  71.238  0.00  0.00    +0.000 C 
ATOM      7  C   UNL     1      61.428  64.277  70.568  0.00  0.00    +0.000 C 
ATOM      8  C   UNL     1      62.095  64.763  70.561  0.00  0.00    +0.000 C 
ATOM      9  O   UNL     1      62.577  64.791  69.890  0.00  0.00    +0.000 OA
ATOM     10  O   UNL     1      61.241  63.822  69.907  0.00  0.00    +0.000 OA
ATOM     11  C   UNL     1      60.574  63.336  69.914  0.00  0.00    +0.000 C 
ATOM     12  O   UNL     1      60.387  62.881  69.253  0.00  0.00    +0.000 OA
ATOM     13  C   UNL     1      60.869  62.909  68.583  0.00  0.00    +0.000 C 
ATOM     14  C   UNL     1      61.536  63.394  68.575  0.00  0.00    +0.000 C 
ATOM     15  C   UNL     1      61.723  63.850  69.237  0.00  0.00    +0.000 C 
ATOM     16  O   UNL     1      62.390  64.335  69.229  0.00  0.00    +0.000 OA
ATOM     17  O   UNL     1      62.017  63.423  67.905  0.00  0.00    +0.000 OA
ATOM     18  C   UNL     1      61.831  62.967  67.244  0.00  0.00    +0.000 C 
ATOM     19  O   UNL     1      62.311  62.996  66.575  0.00  0.00    +0.000 OA
ATOM     20  C   UNL     1      61.163  62.482  67.252  0.00  0.00    +0.000 C 
ATOM     21  O   UNL     1      60.977  62.026  66.590  0.00  0.00    +0.000 OA
ATOM     22  C   UNL     1      60.682  62.453  67.921  0.00  0.00    +0.000 C 
ATOM     23  O   UNL     1      60.015  61.968  67.929  0.00  0.00    +0.000 OA
ATOM     24  C   UNL     1      60.093  63.308  70.584  0.00  0.00    +0.000 C 
ATOM     25  O   UNL     1      59.425  62.823  70.593  0.00  0.00    +0.000 OA
ATOM     26  C   UNL     1      60.279  63.764  71.246  0.00  0.00    +0.000 C 
ATOM     27  O   UNL     1      59.799  63.735  71.915  0.00  0.00    +0.000 OA
ATOM     28  C   UNL     1      61.986  65.645  72.554  0.00  0.00    +0.000 C 
ATOM     29  O   UNL     1      61.506  65.617  73.222  0.00  0.00    +0.000 OA
ATOM     30  C   UNL     1      62.654  66.131  72.545  0.00  0.00    +0.000 C 
ATOM     31  O   UNL     1      62.841  66.587  73.208  0.00  0.00    +0.000 OA
ATOM     32  C   UNL     1      63.135  66.159  71.876  0.00  0.00    +0.000 C 
ATOM     33  N   UNL     1      63.803  66.645  71.868  0.00  0.00    +0.000 NA
ATOM     34  C   UNL     1      64.284  66.674  71.198  0.00  0.00    +0.000 C 
ATOM     35  C   UNL     1      64.097  66.217  70.536  0.00  0.00    +0.000 C 
ATOM     36  C   UNL     1      64.578  66.246  69.867  0.00  0.00    +0.000 C 
ATOM     37  C   UNL     1      64.392  65.789  69.204  0.00  0.00    +0.000 C 
ATOM     38  O   UNL     1      63.724  65.305  69.213  0.00  0.00    +0.000 OA
ATOM     39  C   UNL     1      65.246  66.731  69.859  0.00  0.00    +0.000 C 
ATOM     40  O   UNL     1      65.727  66.760  69.190  0.00  0.00    +0.000 OA
ATOM     41  C   UNL     1      65.432  67.187  70.521  0.00  0.00    +0.000 C 
ATOM     42  O   UNL     1      66.100  67.671  70.512  0.00  0.00    +0.000 OA
ATOM     43  C   UNL     1      64.951  67.158  71.190  0.00  0.00    +0.000 C 
ATOM     44  O   UNL     1      65.138  67.614  71.851  0.00  0.00    +0.000 OA
ENDROOT
TORSDOF 0
ENDMDL
MODEL 2
REMARK VINA RESULT:   -14.535      1.049      4.916
REMARK INTER + INTRA:         -14.535
REMARK INTER:                 -14.535
REMARK INTRA:                   0.000
REMARK UNBOUND:                 0.000
ROOT
REMARK  Name = acarbose
REMARK                            x       y       z     vdW  Elec       q    Type
REMARK                         _______ _______ _______ _____ _____    ______ ____
ATOM      1  C   UNL     1      61.517  63.602  69.235  0.00  0.00    +0.000 C 
ATOM      2  C   UNL     1      61.095  63.560  69.944  0.00  0.00    +0.000 C 
ATOM      3  O   UNL     1      61.321  64.025  70.586  0.00  0.00    +0.000 OA
ATOM      4  C   UNL     1      60.900  63.982  71.294  0.00  0.00    +0.000 C 
ATOM      5  O   UNL     1      61.125  64.447  71.937  0.00  0.00    +0.000 OA
ATOM      6  C   UNL     1      61.773  64.955  71.872  0.00  0.00    +0.000 C 
ATOM      7  C   UNL     1      62.194  64.998  71.164  0.00  0.00    +0.000 C 
ATOM      8  C   UNL     1      61.968  64.532  70.521  0.00  0.00    +0.000 C 
ATOM      9  O   UNL     1      62.389  64.575  69.812  0.00  0.00    +0.000 OA
ATOM     10  O   UNL     1      62.841  65.505  71.099  0.00  0.00    +0.000 OA
ATOM     11  C   UNL     1      63.067  65.970  71.741  0.00  0.00    +0.000 C 
ATOM     12  O   UNL     1      63.714  66.478  71.676  0.00  0.00    +0.000 OA
ATOM     13  C   UNL     1      64.135  66.520  70.967  0.00  0.00    +0.000 C 
ATOM     14  C   UNL     1      63.910  66.055  70.325  0.00  0.00    +0.000 C 
ATOM     15  C   UNL     1      63.262  65.547  70.390  0.00  0.00    +0.000 C 
ATOM     16  O   UNL     1      63.037  65.083  69.748  0.00  0.00    +0.000 OA
ATOM     17  O   UNL     1      64.331  66.098  69.617  0.00  0.00    +0.000 OA
ATOM     18  C   UNL     1      64.978  66.605  69.551  0.00  0.00    +0.000 C 
ATOM     19  O   UNL     1      65.398  66.648  68.844  0.00  0.00    +0.000 OA
ATOM     20  C   UNL     1      65.204  67.071  70.195  0.00  0.00    +0.000 C 
ATOM     21  O   UNL     1      65.851  67.578  70.129  0.00  0.00    +0.000 OA
ATOM     22  C   UNL     1      64.782  67.028  70.903  0.00  0.00    +0.000 C 
ATOM     23  O   UNL     1      65.008  67.493  71.545  0.00  0.00    +0.000 OA
ATOM     24  C   UNL     1      62.646  65.928  72.450  0.00  0.00    +0.000 C 
ATOM     25  O   UNL     1      62.871  66.393  73.093  0.00  0.00    +0.000 OA
ATOM     26  C   UNL     1      61.998  65.420  72.515  0.00  0.00    +0.000 C 
ATOM     27  O   UNL     1      61.578  65.377  73.222  0.00  0.00    +0.000 OA
ATOM     28  C   UNL     1      60.253  63.475  71.360  0.00  0.00    +0.000 C 
ATOM     29  O   UNL     1      59.832  63.432  72.067  0.00  0.00    +0.000 OA
ATOM     30  C   UNL     1      60.027  63.009  70.717  0.00  0.00    +0.000 C 
ATOM     31  O   UNL     1      59.380  62.501  70.782  0.00  0.00    +0.000 OA
ATOM     32  C   UNL     1      60.448  63.052  70.009  0.00  0.00    +0.000 C 
ATOM     33  N   UNL     1      60.222  62.586  69.366  0.00  0.00    +0.000 NA
ATOM     34  C   UNL     1      60.644  62.629  68.657  0.00  0.00    +0.000 C 
ATOM     35  C   UNL     1      61.291  63.137  68.592  0.00  0.00    +0.000 C 
ATOM     36  C   UNL     1      61.712  63.179  67.884  0.00  0.00    +0.000 C 
ATOM     37  C   UNL     1      62.360  63.687  67.819  0.00  0.00    +0.000 C 
ATOM     38  O   UNL     1      62.585  64.152  68.462  0.00  0.00    +0.000 OA
ATOM     39  C   UNL     1      61.486  62.714  67.241  0.00  0.00    +0.000 C 
ATOM     40  O   UNL     1      61.907  62.756  66.534  0.00  0.00    +0.000 OA
ATOM     41  C   UNL     1      60.839  62.207  67.307  0.00  0.00    +0.000 C 
ATOM     42  O   UNL     1      60.614  61.742  66.664  0.00  0.00    +0.000 OA
ATOM     43  C   UNL     1      60.418  62.164  68.015  0.00  0.00    +0.000 C 
ATOM     44  O   UNL     1      59.771  61.657  68.080  0.00  0.00    +0.000 OA
ENDROOT
TORSDOF 0
ENDMDL
MODEL 3
REMARK VINA RESULT:   -14.327      1.739      2.299
REMARK INTER + INTRA:         -14.327
REMARK INTER:                 -14.327
REMARK INTRA:                   0.000
REMARK UNBOUND:                 0.000
ROOT
REMARK  Name = acarbose
REMARK                            x       y       z     vdW  Elec       q    Type
REMARK                         _______ _______ _______ _____ _____    ______ ____
ATOM      1  C   UNL     1      63.306  66.197  71.611  0.00  0.00    +0.000 C 
ATOM      2  C   UNL     1      62.797  66.707  72.014  0.00  0.00    +0.000 C 
ATOM      3  O   UNL     1      62.026  66.469  72.185  0.00  0.00    +0.000 OA
ATOM      4  C   UNL     1      61.517  66.978  72.588  0.00  0.00    +0.000 C 
ATOM      5  O   UNL     1      60.746  66.741  72.759  0.00  0.00    +0.000 OA
ATOM      6  C   UNL     1      60.483  65.993  72.526  0.00  0.00    +0.000 C 
ATOM      7  C   UNL     1      60.992  65.484  72.123  0.00  0.00    +0.000 C 
ATOM      8  C   UNL     1      61.764  65.722  71.953  0.00  0.00    +0.000 C 
ATOM      9  O   UNL     1      62.274  65.213  71.549  0.00  0.00    +0.000 OA
ATOM     10  O   UNL     1      60.730  64.738  71.891  0.00  0.00    +0.000 OA
ATOM     11  C   UNL     1      59.959  64.499  72.062  0.00  0.00    +0.000 C 
ATOM     12  O   UNL     1      59.697  63.753  71.830  0.00  0.00    +0.000 OA
ATOM     13  C   UNL     1      60.206  63.243  71.426  0.00  0.00    +0.000 C 
ATOM     14  C   UNL     1      60.977  63.481  71.256  0.00  0.00    +0.000 C 
ATOM     15  C   UNL     1      61.240  64.228  71.488  0.00  0.00    +0.000 C 
ATOM     16  O   UNL     1      62.011  64.466  71.317  0.00  0.00    +0.000 OA
ATOM     17  O   UNL     1      61.486  62.972  70.853  0.00  0.00    +0.000 OA
ATOM     18  C   UNL     1      61.225  62.225  70.621  0.00  0.00    +0.000 C 
ATOM     19  O   UNL     1      61.733  61.716  70.218  0.00  0.00    +0.000 OA
ATOM     20  C   UNL     1      60.453  61.987  70.791  0.00  0.00    +0.000 C 
ATOM     21  O   UNL     1      60.191  61.240  70.559  0.00  0.00    +0.000 OA
ATOM     22  C   UNL     1      59.943  62.496  71.194  0.00  0.00    +0.000 C 
ATOM     23  O   UNL     1      59.173  62.258  71.365  0.00  0.00    +0.000 OA
ATOM     24  C   UNL     1      59.450  65.008  72.464  0.00  0.00    +0.000 C 
ATOM     25  O   UNL     1      58.678  64.771  72.635  0.00  0.00    +0.000 OA
ATOM     26  C   UNL     1      59.712  65.756  72.697  0.00  0.00    +0.000 C 
ATOM     27  O   UNL     1      59.204  66.264  73.099  0.00  0.00    +0.000 OA
ATOM     28  C   UNL     1      61.779  67.725  72.820  0.00  0.00    +0.000 C 
ATOM     29  O   UNL     1      61.270  68.233  73.222  0.00  0.00    +0.000 OA
ATOM     30  C   UNL     1      62.551  67.963  72.649  0.00  0.00    +0.000 C 
ATOM     31  O   UNL     1      62.813  68.710  72.882  0.00  0.00    +0.000 OA
ATOM     32  C   UNL     1      63.060  67.454  72.246  0.00  0.00    +0.000 C 
ATOM     33  N   UNL     1      63.831  67.692  72.076  0.00  0.00    +0.000 NA
ATOM     34  C   UNL     1      64.341  67.182  71.673  0.00  0.00    +0.000 C 
ATOM     35  C   UNL     1      64.078  66.435  71.441  0.00  0.00    +0.000 C 
ATOM     36  C   UNL     1      64.587  65.926  71.038  0.00  0.00    +0.000 C 
ATOM     37  C   UNL     1      64.325  65.179  70.805  0.00  0.00    +0.000 C 
ATOM     38  O   UNL     1      63.553  64.941  70.976  0.00  0.00    +0.000 OA
ATOM     39  C   UNL     1      65.359  66.164  70.867  0.00  0.00    +0.000 C 
ATOM     40  O   UNL     1      65.867  65.656  70.465  0.00  0.00    +0.000 OA
ATOM     41  C   UNL     1      65.620  66.911  71.099  0.00  0.00    +0.000 C 
ATOM     42  O   UNL     1      66.392  67.148  70.929  0.00  0.00    +0.000 OA
ATOM     43  C   UNL     1      65.111  67.420  71.502  0.00  0.00    +0.000 C 
ATOM     44  O   UNL     1      65.374  68.167  71.734  0.00  0.00    +0.000 OA
ENDROOT
TORSDOF 0
ENDMDL
MODEL 4
REMARK VINA RESULT:   -14.204      1.917      5.225
REMARK INTER + INTRA:         -14.204
REMARK INTER:                 -14.204
REMARK INTRA:                   0.000
REMARK UNBOUND:                 0.000
ROOT
REMARK  Name = acarbose
REMARK                            x       y       z     vdW  Elec       q    Type
REMARK                         _______ _______ _______ _____ _____    ______ ____
ATOM      1  C   UNL     1      61.198  64.238  71.506  0.00  0.00    +0.000 C 
ATOM      2  C   UNL     1      60.691  64.756  71.901  0.00  0.00    +0.000 C 
ATOM      3  O   UNL     1      60.960  65.500  72.132  0.00  0.00    +0.000 OA
ATOM      4  C   UNL     1      60.453  66.017  72.527  0.00  0.00    +0.000 C 
ATOM      5  O   UNL     1      60.722  66.762  72.759  0.00  0.00    +0.000 OA
ATOM      6  C   UNL     1      61.499  66.989  72.596  0.00  0.00    +0.000 C 
ATOM      7  C   UNL     1      62.006  66.471  72.202  0.00  0.00    +0.000 C 
ATOM      8  C   UNL     1      61.736  65.727  71.970  0.00  0.00    +0.000 C 
ATOM      9  O   UNL     1      62.243  65.208  71.575  0.00  0.00    +0.000 OA
ATOM     10  O   UNL     1      62.782  66.698  72.039  0.00  0.00    +0.000 OA
ATOM     11  C   UNL     1      63.052  67.443  72.271  0.00  0.00    +0.000 C 
ATOM     12  O   UNL     1      63.827  67.669  72.109  0.00  0.00    +0.000 OA
ATOM     13  C   UNL     1      64.335  67.151  71.714  0.00  0.00    +0.000 C 
ATOM     14  C   UNL     1      64.066  66.407  71.482  0.00  0.00    +0.000 C 
ATOM     15  C   UNL     1      63.289  66.180  71.644  0.00  0.00    +0.000 C 
ATOM     16  O   UNL     1      63.020  65.436  71.413  0.00  0.00    +0.000 OA
ATOM     17  O   UNL     1      64.573  65.890  71.088  0.00  0.00    +0.000 OA
ATOM     18  C   UNL     1      65.349  66.116  70.925  0.00  0.00    +0.000 C 
ATOM     19  O   UNL     1      65.855  65.599  70.531  0.00  0.00    +0.000 OA
ATOM     20  C   UNL     1      65.618  66.861  71.157  0.00  0.00    +0.000 C 
ATOM     21  O   UNL     1      66.395  67.087  70.994  0.00  0.00    +0.000 OA
ATOM     22  C   UNL     1      65.111  67.379  71.552  0.00  0.00    +0.000 C 
ATOM     23  O   UNL     1      65.381  68.123  71.783  0.00  0.00    +0.000 OA
ATOM     24  C   UNL     1      62.545  67.960  72.666  0.00  0.00    +0.000 C 
ATOM     25  O   UNL     1      62.813  68.705  72.898  0.00  0.00    +0.000 OA
ATOM     26  C   UNL     1      61.768  67.733  72.828  0.00  0.00    +0.000 C 
ATOM     27  O   UNL     1      61.261  68.250  73.222  0.00  0.00    +0.000 OA
ATOM     28  C   UNL     1      59.677  65.791  72.690  0.00  0.00    +0.000 C 
ATOM     29  O   UNL     1      59.170  66.308  73.084  0.00  0.00    +0.000 OA
ATOM     30  C   UNL     1      59.407  65.046  72.457  0.00  0.00    +0.000 C 
ATOM     31  O   UNL     1      58.630  64.819  72.620  0.00  0.00    +0.000 OA
ATOM     32  C   UNL     1      59.914  64.528  72.063  0.00  0.00    +0.000 C 
ATOM     33  N   UNL     1      59.644  63.784  71.831  0.00  0.00    +0.000 NA
ATOM     34  C   UNL     1      60.152  63.266  71.436  0.00  0.00    +0.000 C 
ATOM     35  C   UNL     1      60.928  63.493  71.274  0.00  0.00    +0.000 C 
ATOM     36  C   UNL     1      61.435  62.976  70.879  0.00  0.00    +0.000 C 
ATOM     37  C   UNL     1      62.212  63.203  70.716  0.00  0.00    +0.000 C 
ATOM     38  O   UNL     1      62.481  63.947  70.949  0.00  0.00    +0.000 OA
ATOM     39  C   UNL     1      61.166  62.230  70.647  0.00  0.00    +0.000 C 
ATOM     40  O   UNL     1      61.672  61.713  70.253  0.00  0.00    +0.000 OA
ATOM     41  C   UNL     1      60.390  62.004  70.810  0.00  0.00    +0.000 C 
ATOM     42  O   UNL     1      60.121  61.260  70.578  0.00  0.00    +0.000 OA
ATOM     43  C   UNL     1      59.883  62.522  71.204  0.00  0.00    +0.000 C 
ATOM     44  O   UNL     1      59.107  62.295  71.367  0.00  0.00    +0.000 OA
ENDROOT
TORSDOF 0
ENDMDL
MODEL 5
REMARK VINA RESULT:   -13.822      1.825      3.753
REMARK INTER + INTRA:         -13.822
REMARK INTER:                 -13.822
REMARK INTRA:                   0.000
REMARK UNBOUND:                 0.000
ROOT
REMARK  Name = acarbose
REMARK                            x       y       z     vdW  Elec       q    Type
REMARK                         _______ _______ _______ _____ _____    ______ ____
ATOM      1  C   UNL     1      63.057  66.040  71.447  0.00  0.00    +0.000 C 
ATOM      2  C   UNL     1      63.120  65.278  71.135  0.00  0.00    +0.000 C 
ATOM      3  O   UNL     1      62.461  64.783  71.119  0.00  0.00    +0.000 OA
ATOM      4  C   UNL     1      62.524  64.022  70.807  0.00  0.00    +0.000 C 
ATOM      5  O   UNL     1      61.864  63.526  70.791  0.00  0.00    +0.000 OA
ATOM      6  C   UNL     1      61.141  63.793  71.087  0.00  0.00    +0.000 C 
ATOM      7  C   UNL     1      61.078  64.554  71.399  0.00  0.00    +0.000 C 
ATOM      8  C   UNL     1      61.738  65.049  71.415  0.00  0.00    +0.000 C 
ATOM      9  O   UNL     1      61.675  65.811  71.727  0.00  0.00    +0.000 OA
ATOM     10  O   UNL     1      60.356  64.819  71.695  0.00  0.00    +0.000 OA
ATOM     11  C   UNL     1      59.696  64.325  71.679  0.00  0.00    +0.000 C 
ATOM     12  O   UNL     1      58.974  64.590  71.975  0.00  0.00    +0.000 OA
ATOM     13  C   UNL     1      58.911  65.352  72.287  0.00  0.00    +0.000 C 
ATOM     14  C   UNL     1      59.570  65.847  72.303  0.00  0.00    +0.000 C 
ATOM     15  C   UNL     1      60.293  65.582  72.007  0.00  0.00    +0.000 C 
ATOM     16  O   UNL     1      60.952  66.076  72.023  0.00  0.00    +0.000 OA
ATOM     17  O   UNL     1      59.507  66.608  72.615  0.00  0.00    +0.000 OA
ATOM     18  C   UNL     1      58.785  66.875  72.911  0.00  0.00    +0.000 C 
ATOM     19  O   UNL     1      58.722  67.635  73.222  0.00  0.00    +0.000 OA
ATOM     20  C   UNL     1      58.125  66.379  72.895  0.00  0.00    +0.000 C 
ATOM     21  O   UNL     1      57.402  66.646  73.191  0.00  0.00    +0.000 OA
ATOM     22  C   UNL     1      58.187  65.618  72.583  0.00  0.00    +0.000 C 
ATOM     23  O   UNL     1      57.528  65.123  72.567  0.00  0.00    +0.000 OA
ATOM     24  C   UNL     1      59.759  63.563  71.367  0.00  0.00    +0.000 C 
ATOM     25  O   UNL     1      59.100  63.068  71.351  0.00  0.00    +0.000 OA
ATOM     26  C   UNL     1      60.482  63.297  71.071  0.00  0.00    +0.000 C 
ATOM     27  O   UNL     1      60.545  62.537  70.760  0.00  0.00    +0.000 OA
ATOM     28  C   UNL     1      63.246  63.755  70.511  0.00  0.00    +0.000 C 
ATOM     29  O   UNL     1      63.309  62.995  70.199  0.00  0.00    +0.000 OA
ATOM     30  C   UNL     1      63.906  64.251  70.527  0.00  0.00    +0.000 C 
ATOM     31  O   UNL     1      64.629  63.985  70.231  0.00  0.00    +0.000 OA
ATOM     32  C   UNL     1      63.843  65.012  70.839  0.00  0.00    +0.000 C 
ATOM     33  N   UNL     1      64.503  65.507  70.854  0.00  0.00    +0.000 NA
ATOM     34  C   UNL     1      64.440  66.269  71.167  0.00  0.00    +0.000 C 
ATOM     35  C   UNL     1      63.717  66.534  71.463  0.00  0.00    +0.000 C 
ATOM     36  C   UNL     1      63.654  67.296  71.774  0.00  0.00    +0.000 C 
ATOM     37  C   UNL     1      62.931  67.562  72.071  0.00  0.00    +0.000 C 
ATOM     38  O   UNL     1      62.272  67.067  72.055  0.00  0.00    +0.000 OA
ATOM     39  C   UNL     1      64.314  67.791  71.790  0.00  0.00    +0.000 C 
ATOM     40  O   UNL     1      64.251  68.552  72.102  0.00  0.00    +0.000 OA
ATOM     41  C   UNL     1      65.037  67.525  71.494  0.00  0.00    +0.000 C 
ATOM     42  O   UNL     1      65.696  68.020  71.510  0.00  0.00    +0.000 OA
ATOM     43  C   UNL     1      65.100  66.764  71.182  0.00  0.00    +0.000 C 
ATOM     44  O   UNL     1      65.822  66.498  70.887  0.00  0.00    +0.000 OA
ENDROOT
TORSDOF 0
ENDMDL
MODEL 6
REMARK VINA RESULT:   -13.348     16.516     18.538
REMARK INTER + INTRA:         -13.348
REMARK INTER:                 -13.348
REMARK INTRA:                   0.000
REMARK UNBOUND:                 0.000
ROOT
REMARK  Name = acarbose
REMARK                            x       y       z     vdW  Elec       q    Type
REMARK                         _______ _______ _______ _____ _____    ______ ____
ATOM      1  C   UNL     1      61.376  60.382  52.157  0.00  0.00    +0.000 C 
ATOM      2  C   UNL     1      62.083  60.058  52.436  0.00  0.00    +0.000 C 
ATOM      3  O   UNL     1      62.631  60.538  52.823  0.00  0.00    +0.000 OA
ATOM      4  C   UNL     1      63.337  60.215  53.102  0.00  0.00    +0.000 C 
ATOM      5  O   UNL     1      63.886  60.694  53.489  0.00  0.00    +0.000 OA
ATOM      6  C   UNL     1      63.728  61.497  53.596  0.00  0.00    +0.000 C 
ATOM      7  C   UNL     1      63.022  61.820  53.317  0.00  0.00    +0.000 C 
ATOM      8  C   UNL     1      62.474  61.340  52.930  0.00  0.00    +0.000 C 
ATOM      9  O   UNL     1      61.767  61.663  52.651  0.00  0.00    +0.000 OA
ATOM     10  O   UNL     1      62.865  62.622  53.425  0.00  0.00    +0.000 OA
ATOM     11  C   UNL     1      63.414  63.102  53.811  0.00  0.00    +0.000 C 
ATOM     12  O   UNL     1      63.257  63.905  53.919  0.00  0.00    +0.000 OA
ATOM     13  C   UNL     1      62.550  64.228  53.639  0.00  0.00    +0.000 C 
ATOM     14  C   UNL     1      62.002  63.749  53.253  0.00  0.00    +0.000 C 
ATOM     15  C   UNL     1      62.159  62.946  53.145  0.00  0.00    +0.000 C 
ATOM     16  O   UNL     1      61.611  62.466  52.758  0.00  0.00    +0.000 OA
ATOM     17  O   UNL     1      61.296  64.072  52.973  0.00  0.00    +0.000 OA
ATOM     18  C   UNL     1      61.138  64.874  53.081  0.00  0.00    +0.000 C 
ATOM     19  O   UNL     1      60.433  65.197  52.802  0.00  0.00    +0.000 OA
ATOM     20  C   UNL     1      61.687  65.354  53.468  0.00  0.00    +0.000 C 
ATOM     21  O   UNL     1      61.530  66.157  53.575  0.00  0.00    +0.000 OA
ATOM     22  C   UNL     1      62.393  65.031  53.747  0.00  0.00    +0.000 C 
ATOM     23  O   UNL     1      62.941  65.510  54.134  0.00  0.00    +0.000 OA
ATOM     24  C   UNL     1      64.119  62.779  54.091  0.00  0.00    +0.000 C 
ATOM     25  O   UNL     1      64.668  63.258  54.478  0.00  0.00    +0.000 OA
ATOM     26  C   UNL     1      64.277  61.976  53.983  0.00  0.00    +0.000 C 
ATOM     27  O   UNL     1      64.982  61.653  54.262  0.00  0.00    +0.000 OA
ATOM     28  C   UNL     1      63.495  59.412  52.995  0.00  0.00    +0.000 C 
ATOM     29  O   UNL     1      64.200  59.089  53.274  0.00  0.00    +0.000 OA
ATOM     30  C   UNL     1      62.945  58.932  52.608  0.00  0.00    +0.000 C 
ATOM     31  O   UNL     1      63.103  58.129  52.500  0.00  0.00    +0.000 OA
ATOM     32  C   UNL     1      62.239  59.255  52.328  0.00  0.00    +0.000 C 
ATOM     33  N   UNL     1      61.691  58.775  51.941  0.00  0.00    +0.000 NA
ATOM     34  C   UNL     1      60.984  59.099  51.662  0.00  0.00    +0.000 C 
ATOM     35  C   UNL     1      60.828  59.902  51.770  0.00  0.00    +0.000 C 
ATOM     36  C   UNL     1      60.122  60.225  51.490  0.00  0.00    +0.000 C 
ATOM     37  C   UNL     1      59.964  61.028  51.598  0.00  0.00    +0.000 C 
ATOM     38  O   UNL     1      60.513  61.507  51.985  0.00  0.00    +0.000 OA
ATOM     39  C   UNL     1      59.573  59.745  51.103  0.00  0.00    +0.000 C 
ATOM     40  O   UNL     1      58.868  60.067  50.824  0.00  0.00    +0.000 OA
ATOM     41  C   UNL     1      59.731  58.942  50.996  0.00  0.00    +0.000 C 
ATOM     42  O   UNL     1      59.182  58.463  50.609  0.00  0.00    +0.000 OA
ATOM     43  C   UNL     1      60.436  58.619  51.275  0.00  0.00    +0.000 C 
ATOM     44  O   UNL     1      60.593  57.817  51.168  0.00  0.00    +0.000 OA
ENDROOT
TORSDOF 0
ENDMDL
MODEL 7
REMARK VINA RESULT:   -13.083     14.686     17.281
REMARK INTER + INTRA:         -13.083
REMARK INTER:                 -13.083
REMARK INTRA:                   0.000
REMARK UNBOUND:                 0.000
ROOT
REMARK  Name = acarbose
REMARK                            x       y       z     vdW  Elec       q    Type
REMARK                         _______ _______ _______ _____ _____    ______ ____
ATOM      1  C   UNL     1      61.998  67.297  54.075  0.00  0.00    +0.000 C 
ATOM      2  C   UNL     1      61.561  67.524  53.412  0.00  0.00    +0.000 C 
ATOM      3  O   UNL     1      61.433  66.988  52.799  0.00  0.00    +0.000 OA
ATOM      4  C   UNL     1      60.997  67.215  52.137  0.00  0.00    +0.000 C 
ATOM      5  O   UNL     1      60.868  66.679  51.523  0.00  0.00    +0.000 OA
ATOM      6  C   UNL     1      61.177  65.915  51.572  0.00  0.00    +0.000 C 
ATOM      7  C   UNL     1      61.614  65.688  52.234  0.00  0.00    +0.000 C 
ATOM      8  C   UNL     1      61.742  66.225  52.847  0.00  0.00    +0.000 C 
ATOM      9  O   UNL     1      62.179  65.998  53.510  0.00  0.00    +0.000 OA
ATOM     10  O   UNL     1      61.922  64.925  52.282  0.00  0.00    +0.000 OA
ATOM     11  C   UNL     1      61.795  64.388  51.669  0.00  0.00    +0.000 C 
ATOM     12  O   UNL     1      62.103  63.625  51.718  0.00  0.00    +0.000 OA
ATOM     13  C   UNL     1      62.540  63.397  52.381  0.00  0.00    +0.000 C 
ATOM     14  C   UNL     1      62.668  63.934  52.993  0.00  0.00    +0.000 C 
ATOM     15  C   UNL     1      62.360  64.698  52.945  0.00  0.00    +0.000 C 
ATOM     16  O   UNL     1      62.487  65.234  53.558  0.00  0.00    +0.000 OA
ATOM     17  O   UNL     1      63.105  63.707  53.656  0.00  0.00    +0.000 OA
ATOM     18  C   UNL     1      63.414  62.943  53.705  0.00  0.00    +0.000 C 
ATOM     19  O   UNL     1      63.850  62.717  54.366  0.00  0.00    +0.000 OA
ATOM     20  C   UNL     1      63.286  62.407  53.091  0.00  0.00    +0.000 C 
ATOM     21  O   UNL     1      63.595  61.643  53.140  0.00  0.00    +0.000 OA
ATOM     22  C   UNL     1      62.849  62.634  52.429  0.00  0.00    +0.000 C 
ATOM     23  O   UNL     1      62.721  62.097  51.816  0.00  0.00    +0.000 OA
ATOM     24  C   UNL     1      61.358  64.614  51.007  0.00  0.00    +0.000 C 
ATOM     25  O   UNL     1      61.230  64.078  50.393  0.00  0.00    +0.000 OA
ATOM     26  C   UNL     1      61.049  65.379  50.958  0.00  0.00    +0.000 C 
ATOM     27  O   UNL     1      60.613  65.605  50.297  0.00  0.00    +0.000 OA
ATOM     28  C   UNL     1      60.688  67.978  52.087  0.00  0.00    +0.000 C 
ATOM     29  O   UNL     1      60.252  68.205  51.426  0.00  0.00    +0.000 OA
ATOM     30  C   UNL     1      60.816  68.515  52.702  0.00  0.00    +0.000 C 
ATOM     31  O   UNL     1      60.507  69.279  52.653  0.00  0.00    +0.000 OA
ATOM     32  C   UNL     1      61.253  68.288  53.364  0.00  0.00    +0.000 C 
ATOM     33  N   UNL     1      61.380  68.825  53.977  0.00  0.00    +0.000 NA
ATOM     34  C   UNL     1      61.818  68.598  54.640  0.00  0.00    +0.000 C 
ATOM     35  C   UNL     1      62.126  67.834  54.688  0.00  0.00    +0.000 C 
ATOM     36  C   UNL     1      62.563  67.607  55.350  0.00  0.00    +0.000 C 
ATOM     37  C   UNL     1      62.872  66.843  55.399  0.00  0.00    +0.000 C 
ATOM     38  O   UNL     1      62.743  66.307  54.785  0.00  0.00    +0.000 OA
ATOM     39  C   UNL     1      62.691  68.144  55.964  0.00  0.00    +0.000 C 
ATOM     40  O   UNL     1      63.127  67.917  56.625  0.00  0.00    +0.000 OA
ATOM     41  C   UNL     1      62.382  68.907  55.915  0.00  0.00    +0.000 C 
ATOM     42  O   UNL     1      62.510  69.443  56.528  0.00  0.00    +0.000 OA
ATOM     43  C   UNL     1      61.945  69.134  55.253  0.00  0.00    +0.000 C 
ATOM     44  O   UNL     1      61.637  69.897  55.204  0.00  0.00    +0.000 OA
ENDROOT
TORSDOF 0
ENDMDL
MODEL 8
REMARK VINA RESULT:   -13.050     14.631     17.701
REMARK INTER + INTRA:         -13.050
REMARK INTER:                 -13.050
REMARK INTRA:                   0.000
REMARK UNBOUND:                 0.000
ROOT
REMARK  Name = acarbose
REMARK                            x       y       z     vdW  Elec       q    Type
REMARK                         _______ _______ _______ _____ _____    ______ ____
ATOM      1  C   UNL     1      61.874  64.610  53.071  0.00  0.00    +0.000 C 
ATOM      2  C   UNL     1      61.460  64.885  52.412  0.00  0.00    +0.000 C 
ATOM      3  O   UNL     1      61.247  65.680  52.361  0.00  0.00    +0.000 OA
ATOM      4  C   UNL     1      60.833  65.955  51.703  0.00  0.00    +0.000 C 
ATOM      5  O   UNL     1      60.619  66.750  51.652  0.00  0.00    +0.000 OA
ATOM      6  C   UNL     1      60.820  67.271  52.260  0.00  0.00    +0.000 C 
ATOM      7  C   UNL     1      61.234  66.996  52.918  0.00  0.00    +0.000 C 
ATOM      8  C   UNL     1      61.447  66.200  52.969  0.00  0.00    +0.000 C 
ATOM      9  O   UNL     1      61.861  65.925  53.628  0.00  0.00    +0.000 OA
ATOM     10  O   UNL     1      61.434  67.516  53.526  0.00  0.00    +0.000 OA
ATOM     11  C   UNL     1      61.221  68.312  53.476  0.00  0.00    +0.000 C 
ATOM     12  O   UNL     1      61.421  68.832  54.083  0.00  0.00    +0.000 OA
ATOM     13  C   UNL     1      61.836  68.557  54.742  0.00  0.00    +0.000 C 
ATOM     14  C   UNL     1      62.049  67.762  54.793  0.00  0.00    +0.000 C 
ATOM     15  C   UNL     1      61.849  67.241  54.185  0.00  0.00    +0.000 C 
ATOM     16  O   UNL     1      62.062  66.446  54.236  0.00  0.00    +0.000 OA
ATOM     17  O   UNL     1      62.463  67.487  55.451  0.00  0.00    +0.000 OA
ATOM     18  C   UNL     1      62.664  68.007  56.059  0.00  0.00    +0.000 C 
ATOM     19  O   UNL     1      63.077  67.733  56.717  0.00  0.00    +0.000 OA
ATOM     20  C   UNL     1      62.450  68.803  56.008  0.00  0.00    +0.000 C 
ATOM     21  O   UNL     1      62.651  69.323  56.616  0.00  0.00    +0.000 OA
ATOM     22  C   UNL     1      62.036  69.078  55.350  0.00  0.00    +0.000 C 
ATOM     23  O   UNL     1      61.823  69.873  55.299  0.00  0.00    +0.000 OA
ATOM     24  C   UNL     1      60.807  68.586  52.817  0.00  0.00    +0.000 C 
ATOM     25  O   UNL     1      60.593  69.381  52.766  0.00  0.00    +0.000 OA
ATOM     26  C   UNL     1      60.606  68.066  52.209  0.00  0.00    +0.000 C 
ATOM     27  O   UNL     1      60.193  68.340  51.551  0.00  0.00    +0.000 OA
ATOM     28  C   UNL     1      60.632  65.435  51.095  0.00  0.00    +0.000 C 
ATOM     29  O   UNL     1      60.218  65.709  50.437  0.00  0.00    +0.000 OA
ATOM     30  C   UNL     1      60.845  64.639  51.146  0.00  0.00    +0.000 C 
ATOM     31  O   UNL     1      60.645  64.118  50.537  0.00  0.00    +0.000 OA
ATOM     32  C   UNL     1      61.259  64.364  51.804  0.00  0.00    +0.000 C 
ATOM     33  N   UNL     1      61.473  63.568  51.855  0.00  0.00    +0.000 NA
ATOM     34  C   UNL     1      61.887  63.293  52.514  0.00  0.00    +0.000 C 
ATOM     35  C   UNL     1      62.087  63.815  53.122  0.00  0.00    +0.000 C 
ATOM     36  C   UNL     1      62.502  63.540  53.780  0.00  0.00    +0.000 C 
ATOM     37  C   UNL     1      62.702  64.061  54.389  0.00  0.00    +0.000 C 
ATOM     38  O   UNL     1      62.489  64.856  54.337  0.00  0.00    +0.000 OA
ATOM     39  C   UNL     1      62.715  62.744  53.831  0.00  0.00    +0.000 C 
ATOM     40  O   UNL     1      63.129  62.469  54.489  0.00  0.00    +0.000 OA
ATOM     41  C   UNL     1      62.514  62.224  53.223  0.00  0.00    +0.000 C 
ATOM     42  O   UNL     1      62.728  61.429  53.275  0.00  0.00    +0.000 OA
ATOM     43  C   UNL     1      62.100  62.499  52.565  0.00  0.00    +0.000 C 
ATOM     44  O   UNL     1      61.900  61.978  51.957  0.00  0.00    +0.000 OA
ENDROOT
TORSDOF 0
ENDMDL
