MODEL 1
REMARK VINA RESULT:   -17.511      0.000      0.000
REMARK INTER + INTRA:         -17.511
REMARK INTER:                 -17.511
REMARK INTRA:                   0.000
REMARK UNBOUND:                 0.000
ROOT
REMARK  Name = acetyldigitoxin
REMARK                            x       y       z     vdW  Elec       q    Type
REMARK                         _______ _______ _______ _____ _____    ______ ____
ATOM      1  C   UNL     1      62.772  57.128  48.984  0.00  0.00    +0.000 C 
ATOM      2  C   UNL     1      62.776  57.796  49.466  0.00  0.00    +0.000 C 
ATOM      3  O   UNL     1      63.047  57.743  50.244  0.00  0.00    +0.000 OA
ATOM      4  C   UNL     1      63.051  58.412  50.727  0.00  0.00    +0.000 C 
ATOM      5  C   UNL     1      62.783  59.135  50.432  0.00  0.00    +0.000 C 
ATOM      6  C   UNL     1      62.511  59.188  49.655  0.00  0.00    +0.000 C 
ATOM      7  O   UNL     1      62.244  59.911  49.361  0.00  0.00    +0.000 OA
ATOM      8  C   UNL     1      61.972  59.965  48.584  0.00  0.00    +0.000 C 
ATOM      9  C   UNL     1      61.704  60.688  48.290  0.00  0.00    +0.000 C 
ATOM     10  O   UNL     1      61.968  59.296  48.102  0.00  0.00    +0.000 OA
ATOM     11  C   UNL     1      62.508  58.519  49.172  0.00  0.00    +0.000 C 
ATOM     12  O   UNL     1      62.236  58.574  48.395  0.00  0.00    +0.000 OA
ATOM     13  O   UNL     1      63.323  58.358  51.504  0.00  0.00    +0.000 OA
ATOM     14  C   UNL     1      63.326  59.027  51.986  0.00  0.00    +0.000 C 
ATOM     15  C   UNL     1      63.598  58.972  52.763  0.00  0.00    +0.000 C 
ATOM     16  O   UNL     1      63.866  58.250  53.058  0.00  0.00    +0.000 OA
ATOM     17  C   UNL     1      63.602  59.641  53.246  0.00  0.00    +0.000 C 
ATOM     18  C   UNL     1      63.334  60.364  52.953  0.00  0.00    +0.000 C 
ATOM     19  O   UNL     1      63.338  61.034  53.436  0.00  0.00    +0.000 OA
ATOM     20  C   UNL     1      63.070  61.756  53.141  0.00  0.00    +0.000 C 
ATOM     21  C   UNL     1      63.073  62.424  53.624  0.00  0.00    +0.000 C 
ATOM     22  O   UNL     1      63.345  62.371  54.401  0.00  0.00    +0.000 OA
ATOM     23  C   UNL     1      62.806  63.147  53.330  0.00  0.00    +0.000 C 
ATOM     24  C   UNL     1      62.534  63.201  52.553  0.00  0.00    +0.000 C 
ATOM     25  O   UNL     1      62.266  63.924  52.259  0.00  0.00    +0.000 OA
ATOM     26  C   UNL     1      62.270  64.593  52.742  0.00  0.00    +0.000 C 
ATOM     27  C   UNL     1      62.541  64.539  53.519  0.00  0.00    +0.000 C 
ATOM     28  C   UNL     1      62.545  65.208  54.002  0.00  0.00    +0.000 C 
ATOM     29  C   UNL     1      62.277  65.930  53.708  0.00  0.00    +0.000 C 
ATOM     30  C   UNL     1      62.549  65.876  54.485  0.00  0.00    +0.000 C 
ATOM     31  C   UNL     1      62.006  65.984  52.931  0.00  0.00    +0.000 C 
ATOM     32  C   UNL     1      61.738  66.707  52.637  0.00  0.00    +0.000 C 
ATOM     33  C   UNL     1      61.741  67.376  53.120  0.00  0.00    +0.000 C 
ATOM     34  C   UNL     1      62.013  67.322  53.897  0.00  0.00    +0.000 C 
ATOM     35  C   UNL     1      62.281  66.599  54.191  0.00  0.00    +0.000 C 
ATOM     36  C   UNL     1      62.553  66.545  54.968  0.00  0.00    +0.000 C 
ATOM     37  C   UNL     1      62.556  67.215  55.451  0.00  0.00    +0.000 C 
ATOM     38  C   UNL     1      62.288  67.938  55.157  0.00  0.00    +0.000 C 
ATOM     39  C   UNL     1      62.543  67.967  55.941  0.00  0.00    +0.000 C 
ATOM     40  C   UNL     1      62.228  68.684  55.501  0.00  0.00    +0.000 C 
ATOM     41  C   UNL     1      61.918  69.200  54.936  0.00  0.00    +0.000 C 
ATOM     42  C   UNL     1      61.788  68.772  54.244  0.00  0.00    +0.000 C 
ATOM     43  C   UNL     1      62.017  67.991  54.379  0.00  0.00    +0.000 C 
ATOM     44  O   UNL     1      61.731  68.128  53.618  0.00  0.00    +0.000 OA
ATOM     45  C   UNL     1      62.439  68.881  56.274  0.00  0.00    +0.000 C 
ATOM     46  C   UNL     1      62.748  68.366  56.838  0.00  0.00    +0.000 C 
ATOM     47  C   UNL     1      62.878  68.794  57.531  0.00  0.00    +0.000 C 
ATOM     48  O   UNL     1      63.184  68.495  58.237  0.00  0.00    +0.000 OA
ATOM     49  O   UNL     1      62.649  69.575  57.394  0.00  0.00    +0.000 OA
ATOM     50  C   UNL     1      62.378  69.629  56.617  0.00  0.00    +0.000 C 
ATOM     51  C   UNL     1      62.002  65.316  52.448  0.00  0.00    +0.000 C 
ATOM     52  O   UNL     1      62.530  62.532  52.071  0.00  0.00    +0.000 OA
ATOM     53  C   UNL     1      62.798  61.810  52.364  0.00  0.00    +0.000 C 
ATOM     54  C   UNL     1      62.794  61.141  51.881  0.00  0.00    +0.000 C 
ATOM     55  O   UNL     1      63.062  60.418  52.176  0.00  0.00    +0.000 OA
ATOM     56  C   UNL     1      63.058  59.750  51.692  0.00  0.00    +0.000 C 
ATOM     57  C   UNL     1      62.787  59.803  50.916  0.00  0.00    +0.000 C 
ENDROOT
TORSDOF 0
ENDMDL
MODEL 2
REMARK VINA RESULT:   -17.181      1.516      3.019
REMARK INTER + INTRA:         -17.181
REMARK INTER:                 -17.181
REMARK INTRA:                   0.000
REMARK UNBOUND:                 0.000
ROOT
REMARK  Name = acetyldigitoxin
REMARK                            x       y       z     vdW  Elec       q    Type
REMARK                         _______ _______ _______ _____ _____    ______ ____
ATOM      1  C   UNL     1      62.722  57.129  51.096  0.00  0.00    +0.000 C 
ATOM      2  C   UNL     1      62.563  57.924  51.251  0.00  0.00    +0.000 C 
ATOM      3  O   UNL     1      62.018  58.334  50.787  0.00  0.00    +0.000 OA
ATOM      4  C   UNL     1      61.860  59.129  50.941  0.00  0.00    +0.000 C 
ATOM      5  C   UNL     1      62.245  59.514  51.561  0.00  0.00    +0.000 C 
ATOM      6  C   UNL     1      62.790  59.103  52.026  0.00  0.00    +0.000 C 
ATOM      7  O   UNL     1      63.176  59.488  52.645  0.00  0.00    +0.000 OA
ATOM      8  C   UNL     1      63.720  59.079  53.110  0.00  0.00    +0.000 C 
ATOM      9  C   UNL     1      64.106  59.464  53.729  0.00  0.00    +0.000 C 
ATOM     10  O   UNL     1      63.879  58.284  52.955  0.00  0.00    +0.000 OA
ATOM     11  C   UNL     1      62.949  58.309  51.871  0.00  0.00    +0.000 C 
ATOM     12  O   UNL     1      63.494  57.899  52.336  0.00  0.00    +0.000 OA
ATOM     13  O   UNL     1      61.315  59.538  50.477  0.00  0.00    +0.000 OA
ATOM     14  C   UNL     1      61.156  60.333  50.631  0.00  0.00    +0.000 C 
ATOM     15  C   UNL     1      60.611  60.742  50.167  0.00  0.00    +0.000 C 
ATOM     16  O   UNL     1      60.225  60.358  49.547  0.00  0.00    +0.000 OA
ATOM     17  C   UNL     1      60.452  61.536  50.321  0.00  0.00    +0.000 C 
ATOM     18  C   UNL     1      60.837  61.922  50.940  0.00  0.00    +0.000 C 
ATOM     19  O   UNL     1      60.679  62.717  51.096  0.00  0.00    +0.000 OA
ATOM     20  C   UNL     1      61.064  63.101  51.715  0.00  0.00    +0.000 C 
ATOM     21  C   UNL     1      60.906  63.895  51.870  0.00  0.00    +0.000 C 
ATOM     22  O   UNL     1      60.361  64.306  51.405  0.00  0.00    +0.000 OA
ATOM     23  C   UNL     1      61.291  64.281  52.489  0.00  0.00    +0.000 C 
ATOM     24  C   UNL     1      61.836  63.871  52.954  0.00  0.00    +0.000 C 
ATOM     25  O   UNL     1      62.222  64.256  53.573  0.00  0.00    +0.000 OA
ATOM     26  C   UNL     1      62.063  65.051  53.728  0.00  0.00    +0.000 C 
ATOM     27  C   UNL     1      61.518  65.460  53.263  0.00  0.00    +0.000 C 
ATOM     28  C   UNL     1      61.359  66.255  53.418  0.00  0.00    +0.000 C 
ATOM     29  C   UNL     1      61.744  66.640  54.037  0.00  0.00    +0.000 C 
ATOM     30  C   UNL     1      61.199  67.049  53.572  0.00  0.00    +0.000 C 
ATOM     31  C   UNL     1      62.289  66.230  54.502  0.00  0.00    +0.000 C 
ATOM     32  C   UNL     1      62.675  66.615  55.122  0.00  0.00    +0.000 C 
ATOM     33  C   UNL     1      62.516  67.410  55.277  0.00  0.00    +0.000 C 
ATOM     34  C   UNL     1      61.971  67.819  54.812  0.00  0.00    +0.000 C 
ATOM     35  C   UNL     1      61.585  67.434  54.192  0.00  0.00    +0.000 C 
ATOM     36  C   UNL     1      61.041  67.844  53.727  0.00  0.00    +0.000 C 
ATOM     37  C   UNL     1      60.882  68.639  53.882  0.00  0.00    +0.000 C 
ATOM     38  C   UNL     1      61.268  69.024  54.502  0.00  0.00    +0.000 C 
ATOM     39  C   UNL     1      60.739  69.502  54.086  0.00  0.00    +0.000 C 
ATOM     40  C   UNL     1      61.223  69.798  54.783  0.00  0.00    +0.000 C 
ATOM     41  C   UNL     1      61.741  69.866  55.422  0.00  0.00    +0.000 C 
ATOM     42  C   UNL     1      62.105  69.135  55.535  0.00  0.00    +0.000 C 
ATOM     43  C   UNL     1      61.812  68.614  54.967  0.00  0.00    +0.000 C 
ATOM     44  O   UNL     1      62.368  68.277  55.476  0.00  0.00    +0.000 OA
ATOM     45  C   UNL     1      60.746  70.398  54.479  0.00  0.00    +0.000 C 
ATOM     46  C   UNL     1      60.228  70.329  53.841  0.00  0.00    +0.000 C 
ATOM     47  C   UNL     1      59.865  71.061  53.728  0.00  0.00    +0.000 C 
ATOM     48  O   UNL     1      59.306  71.240  53.147  0.00  0.00    +0.000 OA
ATOM     49  O   UNL     1      60.157  71.582  54.296  0.00  0.00    +0.000 OA
ATOM     50  C   UNL     1      60.702  71.172  54.761  0.00  0.00    +0.000 C 
ATOM     51  C   UNL     1      62.448  65.436  54.347  0.00  0.00    +0.000 C 
ATOM     52  O   UNL     1      61.995  63.077  52.799  0.00  0.00    +0.000 OA
ATOM     53  C   UNL     1      61.609  62.692  52.180  0.00  0.00    +0.000 C 
ATOM     54  C   UNL     1      61.768  61.897  52.025  0.00  0.00    +0.000 C 
ATOM     55  O   UNL     1      61.382  61.512  51.405  0.00  0.00    +0.000 OA
ATOM     56  C   UNL     1      61.542  60.718  51.251  0.00  0.00    +0.000 C 
ATOM     57  C   UNL     1      62.086  60.308  51.715  0.00  0.00    +0.000 C 
ENDROOT
TORSDOF 0
ENDMDL
MODEL 3
REMARK VINA RESULT:   -17.156      1.082      9.328
REMARK INTER + INTRA:         -17.156
REMARK INTER:                 -17.156
REMARK INTRA:                   0.000
REMARK UNBOUND:                 0.000
ROOT
REMARK  Name = acetyldigitoxin
REMARK                            x       y       z     vdW  Elec       q    Type
REMARK                         _______ _______ _______ _____ _____    ______ ____
ATOM      1  C   UNL     1      61.895  71.028  55.577  0.00  0.00    +0.000 C 
ATOM      2  C   UNL     1      61.947  70.274  55.246  0.00  0.00    +0.000 C 
ATOM      3  O   UNL     1      61.721  70.151  54.462  0.00  0.00    +0.000 OA
ATOM      4  C   UNL     1      61.773  69.397  54.132  0.00  0.00    +0.000 C 
ATOM      5  C   UNL     1      62.051  68.766  54.585  0.00  0.00    +0.000 C 
ATOM      6  C   UNL     1      62.277  68.889  55.369  0.00  0.00    +0.000 C 
ATOM      7  O   UNL     1      62.555  68.258  55.821  0.00  0.00    +0.000 OA
ATOM      8  C   UNL     1      62.781  68.381  56.605  0.00  0.00    +0.000 C 
ATOM      9  C   UNL     1      63.059  67.750  57.058  0.00  0.00    +0.000 C 
ATOM     10  O   UNL     1      62.729  69.135  56.936  0.00  0.00    +0.000 OA
ATOM     11  C   UNL     1      62.225  69.643  55.700  0.00  0.00    +0.000 C 
ATOM     12  O   UNL     1      62.451  69.766  56.483  0.00  0.00    +0.000 OA
ATOM     13  O   UNL     1      61.547  69.274  53.348  0.00  0.00    +0.000 OA
ATOM     14  C   UNL     1      61.599  68.520  53.017  0.00  0.00    +0.000 C 
ATOM     15  C   UNL     1      61.373  68.398  52.233  0.00  0.00    +0.000 C 
ATOM     16  O   UNL     1      61.095  69.028  51.780  0.00  0.00    +0.000 OA
ATOM     17  C   UNL     1      61.426  67.644  51.902  0.00  0.00    +0.000 C 
ATOM     18  C   UNL     1      61.703  67.013  52.355  0.00  0.00    +0.000 C 
ATOM     19  O   UNL     1      61.756  66.258  52.024  0.00  0.00    +0.000 OA
ATOM     20  C   UNL     1      62.034  65.628  52.477  0.00  0.00    +0.000 C 
ATOM     21  C   UNL     1      62.086  64.874  52.146  0.00  0.00    +0.000 C 
ATOM     22  O   UNL     1      61.860  64.751  51.362  0.00  0.00    +0.000 OA
ATOM     23  C   UNL     1      62.364  64.243  52.599  0.00  0.00    +0.000 C 
ATOM     24  C   UNL     1      62.590  64.366  53.382  0.00  0.00    +0.000 C 
ATOM     25  O   UNL     1      62.868  63.734  53.836  0.00  0.00    +0.000 OA
ATOM     26  C   UNL     1      62.920  62.981  53.505  0.00  0.00    +0.000 C 
ATOM     27  C   UNL     1      62.694  62.858  52.721  0.00  0.00    +0.000 C 
ATOM     28  C   UNL     1      62.746  62.104  52.390  0.00  0.00    +0.000 C 
ATOM     29  C   UNL     1      63.024  61.473  52.843  0.00  0.00    +0.000 C 
ATOM     30  C   UNL     1      62.798  61.351  52.059  0.00  0.00    +0.000 C 
ATOM     31  C   UNL     1      63.250  61.596  53.626  0.00  0.00    +0.000 C 
ATOM     32  C   UNL     1      63.529  60.965  54.080  0.00  0.00    +0.000 C 
ATOM     33  C   UNL     1      63.581  60.211  53.749  0.00  0.00    +0.000 C 
ATOM     34  C   UNL     1      63.355  60.088  52.965  0.00  0.00    +0.000 C 
ATOM     35  C   UNL     1      63.077  60.719  52.512  0.00  0.00    +0.000 C 
ATOM     36  C   UNL     1      62.851  60.597  51.728  0.00  0.00    +0.000 C 
ATOM     37  C   UNL     1      62.903  59.842  51.397  0.00  0.00    +0.000 C 
ATOM     38  C   UNL     1      63.181  59.211  51.850  0.00  0.00    +0.000 C 
ATOM     39  C   UNL     1      62.976  59.006  51.078  0.00  0.00    +0.000 C 
ATOM     40  C   UNL     1      63.292  58.413  51.674  0.00  0.00    +0.000 C 
ATOM     41  C   UNL     1      63.587  58.043  52.350  0.00  0.00    +0.000 C 
ATOM     42  C   UNL     1      63.658  58.611  52.943  0.00  0.00    +0.000 C 
ATOM     43  C   UNL     1      63.407  59.334  52.634  0.00  0.00    +0.000 C 
ATOM     44  O   UNL     1      63.652  59.373  53.421  0.00  0.00    +0.000 OA
ATOM     45  C   UNL     1      63.136  58.049  50.951  0.00  0.00    +0.000 C 
ATOM     46  C   UNL     1      62.842  58.419  50.276  0.00  0.00    +0.000 C 
ATOM     47  C   UNL     1      62.771  57.850  49.683  0.00  0.00    +0.000 C 
ATOM     48  O   UNL     1      62.497  57.980  48.915  0.00  0.00    +0.000 OA
ATOM     49  O   UNL     1      63.022  57.128  49.992  0.00  0.00    +0.000 OA
ATOM     50  C   UNL     1      63.248  57.250  50.776  0.00  0.00    +0.000 C 
ATOM     51  C   UNL     1      63.198  62.350  53.957  0.00  0.00    +0.000 C 
ATOM     52  O   UNL     1      62.538  65.120  53.713  0.00  0.00    +0.000 OA
ATOM     53  C   UNL     1      62.260  65.751  53.261  0.00  0.00    +0.000 C 
ATOM     54  C   UNL     1      62.208  66.504  53.592  0.00  0.00    +0.000 C 
ATOM     55  O   UNL     1      61.929  67.136  53.138  0.00  0.00    +0.000 OA
ATOM     56  C   UNL     1      61.878  67.889  53.470  0.00  0.00    +0.000 C 
ATOM     57  C   UNL     1      62.103  68.012  54.253  0.00  0.00    +0.000 C 
ENDROOT
TORSDOF 0
ENDMDL
MODEL 4
REMARK VINA RESULT:   -15.999      2.051      9.083
REMARK INTER + INTRA:         -15.999
REMARK INTER:                 -15.999
REMARK INTRA:                   0.000
REMARK UNBOUND:                 0.000
ROOT
REMARK  Name = acetyldigitoxin
REMARK                            x       y       z     vdW  Elec       q    Type
REMARK                         _______ _______ _______ _____ _____    ______ ____
ATOM      1  C   UNL     1      59.375  72.416  53.515  0.00  0.00    +0.000 C 
ATOM      2  C   UNL     1      59.627  71.631  53.510  0.00  0.00    +0.000 C 
ATOM      3  O   UNL     1      60.156  71.363  54.084  0.00  0.00    +0.000 OA
ATOM      4  C   UNL     1      60.407  70.577  54.079  0.00  0.00    +0.000 C 
ATOM      5  C   UNL     1      60.130  70.059  53.499  0.00  0.00    +0.000 C 
ATOM      6  C   UNL     1      59.602  70.327  52.925  0.00  0.00    +0.000 C 
ATOM      7  O   UNL     1      59.325  69.809  52.346  0.00  0.00    +0.000 OA
ATOM      8  C   UNL     1      58.797  70.076  51.772  0.00  0.00    +0.000 C 
ATOM      9  C   UNL     1      58.520  69.557  51.193  0.00  0.00    +0.000 C 
ATOM     10  O   UNL     1      58.545  70.861  51.777  0.00  0.00    +0.000 OA
ATOM     11  C   UNL     1      59.350  71.112  52.930  0.00  0.00    +0.000 C 
ATOM     12  O   UNL     1      58.821  71.380  52.356  0.00  0.00    +0.000 OA
ATOM     13  O   UNL     1      60.936  70.310  54.653  0.00  0.00    +0.000 OA
ATOM     14  C   UNL     1      61.187  69.525  54.648  0.00  0.00    +0.000 C 
ATOM     15  C   UNL     1      61.716  69.257  55.222  0.00  0.00    +0.000 C 
ATOM     16  O   UNL     1      61.993  69.775  55.802  0.00  0.00    +0.000 OA
ATOM     17  C   UNL     1      61.968  68.472  55.217  0.00  0.00    +0.000 C 
ATOM     18  C   UNL     1      61.691  67.954  54.638  0.00  0.00    +0.000 C 
ATOM     19  O   UNL     1      61.943  67.167  54.633  0.00  0.00    +0.000 OA
ATOM     20  C   UNL     1      61.666  66.650  54.054  0.00  0.00    +0.000 C 
ATOM     21  C   UNL     1      61.918  65.864  54.049  0.00  0.00    +0.000 C 
ATOM     22  O   UNL     1      62.446  65.596  54.623  0.00  0.00    +0.000 OA
ATOM     23  C   UNL     1      61.641  65.346  53.470  0.00  0.00    +0.000 C 
ATOM     24  C   UNL     1      61.113  65.613  52.896  0.00  0.00    +0.000 C 
ATOM     25  O   UNL     1      60.836  65.095  52.316  0.00  0.00    +0.000 OA
ATOM     26  C   UNL     1      61.088  64.309  52.311  0.00  0.00    +0.000 C 
ATOM     27  C   UNL     1      61.616  64.042  52.885  0.00  0.00    +0.000 C 
ATOM     28  C   UNL     1      61.868  63.256  52.880  0.00  0.00    +0.000 C 
ATOM     29  C   UNL     1      61.592  62.738  52.302  0.00  0.00    +0.000 C 
ATOM     30  C   UNL     1      62.120  62.471  52.876  0.00  0.00    +0.000 C 
ATOM     31  C   UNL     1      61.063  63.005  51.727  0.00  0.00    +0.000 C 
ATOM     32  C   UNL     1      60.786  62.487  51.148  0.00  0.00    +0.000 C 
ATOM     33  C   UNL     1      61.038  61.701  51.143  0.00  0.00    +0.000 C 
ATOM     34  C   UNL     1      61.566  61.434  51.717  0.00  0.00    +0.000 C 
ATOM     35  C   UNL     1      61.843  61.953  52.296  0.00  0.00    +0.000 C 
ATOM     36  C   UNL     1      62.372  61.685  52.871  0.00  0.00    +0.000 C 
ATOM     37  C   UNL     1      62.624  60.899  52.865  0.00  0.00    +0.000 C 
ATOM     38  C   UNL     1      62.347  60.381  52.286  0.00  0.00    +0.000 C 
ATOM     39  C   UNL     1      62.871  60.037  52.822  0.00  0.00    +0.000 C 
ATOM     40  C   UNL     1      62.497  59.583  52.143  0.00  0.00    +0.000 C 
ATOM     41  C   UNL     1      62.060  59.357  51.480  0.00  0.00    +0.000 C 
ATOM     42  C   UNL     1      61.641  60.015  51.214  0.00  0.00    +0.000 C 
ATOM     43  C   UNL     1      61.818  60.649  51.712  0.00  0.00    +0.000 C 
ATOM     44  O   UNL     1      61.291  60.836  51.105  0.00  0.00    +0.000 OA
ATOM     45  C   UNL     1      62.995  59.096  52.585  0.00  0.00    +0.000 C 
ATOM     46  C   UNL     1      63.431  59.322  53.247  0.00  0.00    +0.000 C 
ATOM     47  C   UNL     1      63.850  58.663  53.514  0.00  0.00    +0.000 C 
ATOM     48  O   UNL     1      64.357  58.641  54.164  0.00  0.00    +0.000 OA
ATOM     49  O   UNL     1      63.673  58.030  53.016  0.00  0.00    +0.000 OA
ATOM     50  C   UNL     1      63.144  58.297  52.441  0.00  0.00    +0.000 C 
ATOM     51  C   UNL     1      60.811  63.791  51.732  0.00  0.00    +0.000 C 
ATOM     52  O   UNL     1      60.861  66.398  52.901  0.00  0.00    +0.000 OA
ATOM     53  C   UNL     1      61.138  66.917  53.479  0.00  0.00    +0.000 C 
ATOM     54  C   UNL     1      60.886  67.702  53.485  0.00  0.00    +0.000 C 
ATOM     55  O   UNL     1      61.163  68.221  54.064  0.00  0.00    +0.000 OA
ATOM     56  C   UNL     1      60.910  69.006  54.068  0.00  0.00    +0.000 C 
ATOM     57  C   UNL     1      60.383  69.273  53.495  0.00  0.00    +0.000 C 
ENDROOT
TORSDOF 0
ENDMDL
MODEL 5
REMARK VINA RESULT:   -15.396      3.230      4.985
REMARK INTER + INTRA:         -15.396
REMARK INTER:                 -15.396
REMARK INTRA:                   0.000
REMARK UNBOUND:                 0.000
ROOT
REMARK  Name = acetyldigitoxin
REMARK                            x       y       z     vdW  Elec       q    Type
REMARK                         _______ _______ _______ _____ _____    ______ ____
ATOM      1  C   UNL     1      63.703  61.038  50.699  0.00  0.00    +0.000 C 
ATOM      2  C   UNL     1      63.407  61.758  50.970  0.00  0.00    +0.000 C 
ATOM      3  O   UNL     1      63.389  61.920  51.779  0.00  0.00    +0.000 OA
ATOM      4  C   UNL     1      63.093  62.640  52.050  0.00  0.00    +0.000 C 
ATOM      5  C   UNL     1      62.814  63.200  51.512  0.00  0.00    +0.000 C 
ATOM      6  C   UNL     1      62.832  63.039  50.703  0.00  0.00    +0.000 C 
ATOM      7  O   UNL     1      62.554  63.600  50.166  0.00  0.00    +0.000 OA
ATOM      8  C   UNL     1      62.572  63.439  49.356  0.00  0.00    +0.000 C 
ATOM      9  C   UNL     1      62.294  64.000  48.818  0.00  0.00    +0.000 C 
ATOM     10  O   UNL     1      62.868  62.719  49.086  0.00  0.00    +0.000 OA
ATOM     11  C   UNL     1      63.129  62.319  50.432  0.00  0.00    +0.000 C 
ATOM     12  O   UNL     1      63.147  62.158  49.623  0.00  0.00    +0.000 OA
ATOM     13  O   UNL     1      63.075  62.800  52.859  0.00  0.00    +0.000 OA
ATOM     14  C   UNL     1      62.778  63.521  53.130  0.00  0.00    +0.000 C 
ATOM     15  C   UNL     1      62.760  63.681  53.939  0.00  0.00    +0.000 C 
ATOM     16  O   UNL     1      63.038  63.122  54.478  0.00  0.00    +0.000 OA
ATOM     17  C   UNL     1      62.464  64.402  54.210  0.00  0.00    +0.000 C 
ATOM     18  C   UNL     1      62.186  64.962  53.673  0.00  0.00    +0.000 C 
ATOM     19  O   UNL     1      61.889  65.684  53.944  0.00  0.00    +0.000 OA
ATOM     20  C   UNL     1      61.611  66.243  53.405  0.00  0.00    +0.000 C 
ATOM     21  C   UNL     1      61.315  66.964  53.676  0.00  0.00    +0.000 C 
ATOM     22  O   UNL     1      61.297  67.125  54.485  0.00  0.00    +0.000 OA
ATOM     23  C   UNL     1      61.037  67.524  53.139  0.00  0.00    +0.000 C 
ATOM     24  C   UNL     1      61.055  67.364  52.330  0.00  0.00    +0.000 C 
ATOM     25  O   UNL     1      60.776  67.924  51.791  0.00  0.00    +0.000 OA
ATOM     26  C   UNL     1      60.480  68.644  52.062  0.00  0.00    +0.000 C 
ATOM     27  C   UNL     1      60.462  68.805  52.871  0.00  0.00    +0.000 C 
ATOM     28  C   UNL     1      60.166  69.525  53.142  0.00  0.00    +0.000 C 
ATOM     29  C   UNL     1      59.888  70.086  52.605  0.00  0.00    +0.000 C 
ATOM     30  C   UNL     1      59.870  70.246  53.414  0.00  0.00    +0.000 C 
ATOM     31  C   UNL     1      59.905  69.925  51.796  0.00  0.00    +0.000 C 
ATOM     32  C   UNL     1      59.627  70.486  51.258  0.00  0.00    +0.000 C 
ATOM     33  C   UNL     1      59.331  71.206  51.528  0.00  0.00    +0.000 C 
ATOM     34  C   UNL     1      59.313  71.366  52.337  0.00  0.00    +0.000 C 
ATOM     35  C   UNL     1      59.591  70.806  52.876  0.00  0.00    +0.000 C 
ATOM     36  C   UNL     1      59.573  70.966  53.685  0.00  0.00    +0.000 C 
ATOM     37  C   UNL     1      59.277  71.688  53.956  0.00  0.00    +0.000 C 
ATOM     38  C   UNL     1      58.998  72.248  53.417  0.00  0.00    +0.000 C 
ATOM     39  C   UNL     1      58.946  72.484  54.206  0.00  0.00    +0.000 C 
ATOM     40  C   UNL     1      58.678  73.001  53.522  0.00  0.00    +0.000 C 
ATOM     41  C   UNL     1      58.497  73.305  52.776  0.00  0.00    +0.000 C 
ATOM     42  C   UNL     1      58.707  72.741  52.212  0.00  0.00    +0.000 C 
ATOM     43  C   UNL     1      59.017  72.087  52.608  0.00  0.00    +0.000 C 
ATOM     44  O   UNL     1      59.000  72.004  51.787  0.00  0.00    +0.000 OA
ATOM     45  C   UNL     1      58.558  73.381  54.243  0.00  0.00    +0.000 C 
ATOM     46  C   UNL     1      58.738  73.077  54.988  0.00  0.00    +0.000 C 
ATOM     47  C   UNL     1      58.529  73.642  55.552  0.00  0.00    +0.000 C 
ATOM     48  O   UNL     1      58.614  73.566  56.369  0.00  0.00    +0.000 OA
ATOM     49  O   UNL     1      58.219  74.295  55.155  0.00  0.00    +0.000 OA
ATOM     50  C   UNL     1      58.237  74.135  54.346  0.00  0.00    +0.000 C 
ATOM     51  C   UNL     1      60.202  69.205  51.525  0.00  0.00    +0.000 C 
ATOM     52  O   UNL     1      61.351  66.643  52.059  0.00  0.00    +0.000 OA
ATOM     53  C   UNL     1      61.629  66.083  52.596  0.00  0.00    +0.000 C 
ATOM     54  C   UNL     1      61.925  65.362  52.325  0.00  0.00    +0.000 C 
ATOM     55  O   UNL     1      62.204  64.802  52.864  0.00  0.00    +0.000 OA
ATOM     56  C   UNL     1      62.500  64.081  52.592  0.00  0.00    +0.000 C 
ATOM     57  C   UNL     1      62.518  63.921  51.784  0.00  0.00    +0.000 C 
ENDROOT
TORSDOF 0
ENDMDL
MODEL 6
REMARK VINA RESULT:   -15.375      2.594      4.543
REMARK INTER + INTRA:         -15.375
REMARK INTER:                 -15.375
REMARK INTRA:                   0.000
REMARK UNBOUND:                 0.000
ROOT
REMARK  Name = acetyldigitoxin
REMARK                            x       y       z     vdW  Elec       q    Type
REMARK                         _______ _______ _______ _____ _____    ______ ____
ATOM      1  C   UNL     1      64.002  59.618  51.007  0.00  0.00    +0.000 C 
ATOM      2  C   UNL     1      63.681  60.372  51.096  0.00  0.00    +0.000 C 
ATOM      3  O   UNL     1      63.235  60.706  50.487  0.00  0.00    +0.000 OA
ATOM      4  C   UNL     1      62.913  61.460  50.576  0.00  0.00    +0.000 C 
ATOM      5  C   UNL     1      63.038  61.882  51.274  0.00  0.00    +0.000 C 
ATOM      6  C   UNL     1      63.484  61.549  51.883  0.00  0.00    +0.000 C 
ATOM      7  O   UNL     1      63.608  61.971  52.580  0.00  0.00    +0.000 OA
ATOM      8  C   UNL     1      64.054  61.638  53.190  0.00  0.00    +0.000 C 
ATOM      9  C   UNL     1      64.179  62.060  53.888  0.00  0.00    +0.000 C 
ATOM     10  O   UNL     1      64.375  60.884  53.101  0.00  0.00    +0.000 OA
ATOM     11  C   UNL     1      63.805  60.794  51.794  0.00  0.00    +0.000 C 
ATOM     12  O   UNL     1      64.251  60.462  52.403  0.00  0.00    +0.000 OA
ATOM     13  O   UNL     1      62.467  61.793  49.966  0.00  0.00    +0.000 OA
ATOM     14  C   UNL     1      62.146  62.547  50.055  0.00  0.00    +0.000 C 
ATOM     15  C   UNL     1      61.700  62.880  49.446  0.00  0.00    +0.000 C 
ATOM     16  O   UNL     1      61.575  62.459  48.748  0.00  0.00    +0.000 OA
ATOM     17  C   UNL     1      61.379  63.634  49.535  0.00  0.00    +0.000 C 
ATOM     18  C   UNL     1      61.503  64.056  50.232  0.00  0.00    +0.000 C 
ATOM     19  O   UNL     1      61.181  64.811  50.322  0.00  0.00    +0.000 OA
ATOM     20  C   UNL     1      61.306  65.233  51.020  0.00  0.00    +0.000 C 
ATOM     21  C   UNL     1      60.985  65.987  51.109  0.00  0.00    +0.000 C 
ATOM     22  O   UNL     1      60.538  66.320  50.500  0.00  0.00    +0.000 OA
ATOM     23  C   UNL     1      61.109  66.409  51.806  0.00  0.00    +0.000 C 
ATOM     24  C   UNL     1      61.555  66.077  52.416  0.00  0.00    +0.000 C 
ATOM     25  O   UNL     1      61.679  66.499  53.114  0.00  0.00    +0.000 OA
ATOM     26  C   UNL     1      61.358  67.253  53.203  0.00  0.00    +0.000 C 
ATOM     27  C   UNL     1      60.912  67.585  52.594  0.00  0.00    +0.000 C 
ATOM     28  C   UNL     1      60.590  68.340  52.683  0.00  0.00    +0.000 C 
ATOM     29  C   UNL     1      60.715  68.762  53.380  0.00  0.00    +0.000 C 
ATOM     30  C   UNL     1      60.269  69.094  52.771  0.00  0.00    +0.000 C 
ATOM     31  C   UNL     1      61.160  68.429  53.989  0.00  0.00    +0.000 C 
ATOM     32  C   UNL     1      61.285  68.851  54.688  0.00  0.00    +0.000 C 
ATOM     33  C   UNL     1      60.964  69.606  54.777  0.00  0.00    +0.000 C 
ATOM     34  C   UNL     1      60.518  69.938  54.167  0.00  0.00    +0.000 C 
ATOM     35  C   UNL     1      60.393  69.516  53.469  0.00  0.00    +0.000 C 
ATOM     36  C   UNL     1      59.947  69.849  52.860  0.00  0.00    +0.000 C 
ATOM     37  C   UNL     1      59.626  70.604  52.949  0.00  0.00    +0.000 C 
ATOM     38  C   UNL     1      59.750  71.026  53.647  0.00  0.00    +0.000 C 
ATOM     39  C   UNL     1      59.295  71.427  53.088  0.00  0.00    +0.000 C 
ATOM     40  C   UNL     1      59.504  71.774  53.890  0.00  0.00    +0.000 C 
ATOM     41  C   UNL     1      59.798  71.904  54.650  0.00  0.00    +0.000 C 
ATOM     42  C   UNL     1      60.226  71.236  54.877  0.00  0.00    +0.000 C 
ATOM     43  C   UNL     1      60.196  70.693  54.256  0.00  0.00    +0.000 C 
ATOM     44  O   UNL     1      60.628  70.432  54.910  0.00  0.00    +0.000 OA
ATOM     45  C   UNL     1      59.045  72.300  53.452  0.00  0.00    +0.000 C 
ATOM     46  C   UNL     1      58.751  72.171  52.692  0.00  0.00    +0.000 C 
ATOM     47  C   UNL     1      58.323  72.839  52.467  0.00  0.00    +0.000 C 
ATOM     48  O   UNL     1      57.934  72.946  51.746  0.00  0.00    +0.000 OA
ATOM     49  O   UNL     1      58.353  73.382  53.086  0.00  0.00    +0.000 OA
ATOM     50  C   UNL     1      58.799  73.050  53.696  0.00  0.00    +0.000 C 
ATOM     51  C   UNL     1      61.482  67.675  53.900  0.00  0.00    +0.000 C 
ATOM     52  O   UNL     1      61.876  65.322  52.326  0.00  0.00    +0.000 OA
ATOM     53  C   UNL     1      61.752  64.900  51.629  0.00  0.00    +0.000 C 
ATOM     54  C   UNL     1      62.073  64.146  51.540  0.00  0.00    +0.000 C 
ATOM     55  O   UNL     1      61.949  63.724  50.842  0.00  0.00    +0.000 OA
ATOM     56  C   UNL     1      62.271  62.969  50.754  0.00  0.00    +0.000 C 
ATOM     57  C   UNL     1      62.716  62.637  51.362  0.00  0.00    +0.000 C 
ENDROOT
TORSDOF 0
ENDMDL
MODEL 7
REMARK VINA RESULT:   -15.340      3.233      9.774
REMARK INTER + INTRA:         -15.340
REMARK INTER:                 -15.340
REMARK INTRA:                   0.000
REMARK UNBOUND:                 0.000
ROOT
REMARK  Name = acetyldigitoxin
REMARK                            x       y       z     vdW  Elec       q    Type
REMARK                         _______ _______ _______ _____ _____    ______ ____
ATOM      1  C   UNL     1      58.170  74.093  52.345  0.00  0.00    +0.000 C 
ATOM      2  C   UNL     1      58.494  73.337  52.291  0.00  0.00    +0.000 C 
ATOM      3  O   UNL     1      58.674  73.016  51.553  0.00  0.00    +0.000 OA
ATOM      4  C   UNL     1      58.999  72.260  51.499  0.00  0.00    +0.000 C 
ATOM      5  C   UNL     1      59.144  71.823  52.184  0.00  0.00    +0.000 C 
ATOM      6  C   UNL     1      58.964  72.144  52.923  0.00  0.00    +0.000 C 
ATOM      7  O   UNL     1      59.109  71.707  53.607  0.00  0.00    +0.000 OA
ATOM      8  C   UNL     1      58.930  72.026  54.346  0.00  0.00    +0.000 C 
ATOM      9  C   UNL     1      59.075  71.589  55.031  0.00  0.00    +0.000 C 
ATOM     10  O   UNL     1      58.605  72.783  54.400  0.00  0.00    +0.000 OA
ATOM     11  C   UNL     1      58.640  72.900  52.977  0.00  0.00    +0.000 C 
ATOM     12  O   UNL     1      58.460  73.220  53.716  0.00  0.00    +0.000 OA
ATOM     13  O   UNL     1      59.178  71.940  50.759  0.00  0.00    +0.000 OA
ATOM     14  C   UNL     1      59.503  71.184  50.705  0.00  0.00    +0.000 C 
ATOM     15  C   UNL     1      59.682  70.864  49.966  0.00  0.00    +0.000 C 
ATOM     16  O   UNL     1      59.538  71.300  49.281  0.00  0.00    +0.000 OA
ATOM     17  C   UNL     1      60.007  70.108  49.912  0.00  0.00    +0.000 C 
ATOM     18  C   UNL     1      60.152  69.671  50.596  0.00  0.00    +0.000 C 
ATOM     19  O   UNL     1      60.477  68.914  50.543  0.00  0.00    +0.000 OA
ATOM     20  C   UNL     1      60.622  68.478  51.228  0.00  0.00    +0.000 C 
ATOM     21  C   UNL     1      60.947  67.722  51.174  0.00  0.00    +0.000 C 
ATOM     22  O   UNL     1      61.127  67.401  50.435  0.00  0.00    +0.000 OA
ATOM     23  C   UNL     1      61.092  67.285  51.858  0.00  0.00    +0.000 C 
ATOM     24  C   UNL     1      60.912  67.604  52.597  0.00  0.00    +0.000 C 
ATOM     25  O   UNL     1      61.058  67.168  53.282  0.00  0.00    +0.000 OA
ATOM     26  C   UNL     1      61.382  66.411  53.228  0.00  0.00    +0.000 C 
ATOM     27  C   UNL     1      61.562  66.092  52.489  0.00  0.00    +0.000 C 
ATOM     28  C   UNL     1      61.886  65.335  52.435  0.00  0.00    +0.000 C 
ATOM     29  C   UNL     1      62.031  64.898  53.119  0.00  0.00    +0.000 C 
ATOM     30  C   UNL     1      62.211  64.579  52.380  0.00  0.00    +0.000 C 
ATOM     31  C   UNL     1      61.852  65.218  53.858  0.00  0.00    +0.000 C 
ATOM     32  C   UNL     1      61.997  64.781  54.543  0.00  0.00    +0.000 C 
ATOM     33  C   UNL     1      62.322  64.025  54.489  0.00  0.00    +0.000 C 
ATOM     34  C   UNL     1      62.501  63.705  53.750  0.00  0.00    +0.000 C 
ATOM     35  C   UNL     1      62.356  64.142  53.065  0.00  0.00    +0.000 C 
ATOM     36  C   UNL     1      62.535  63.822  52.326  0.00  0.00    +0.000 C 
ATOM     37  C   UNL     1      62.860  63.065  52.272  0.00  0.00    +0.000 C 
ATOM     38  C   UNL     1      63.006  62.628  52.957  0.00  0.00    +0.000 C 
ATOM     39  C   UNL     1      63.212  62.239  52.259  0.00  0.00    +0.000 C 
ATOM     40  C   UNL     1      63.319  61.875  53.074  0.00  0.00    +0.000 C 
ATOM     41  C   UNL     1      63.333  61.729  53.886  0.00  0.00    +0.000 C 
ATOM     42  C   UNL     1      63.028  62.392  54.270  0.00  0.00    +0.000 C 
ATOM     43  C   UNL     1      62.826  62.949  53.696  0.00  0.00    +0.000 C 
ATOM     44  O   UNL     1      62.675  63.195  54.469  0.00  0.00    +0.000 OA
ATOM     45  C   UNL     1      63.573  61.358  52.484  0.00  0.00    +0.000 C 
ATOM     46  C   UNL     1      63.559  61.504  51.673  0.00  0.00    +0.000 C 
ATOM     47  C   UNL     1      63.864  60.840  51.289  0.00  0.00    +0.000 C 
ATOM     48  O   UNL     1      63.951  60.749  50.473  0.00  0.00    +0.000 OA
ATOM     49  O   UNL     1      64.066  60.284  51.863  0.00  0.00    +0.000 OA
ATOM     50  C   UNL     1      63.887  60.604  52.602  0.00  0.00    +0.000 C 
ATOM     51  C   UNL     1      61.527  65.974  53.912  0.00  0.00    +0.000 C 
ATOM     52  O   UNL     1      60.588  68.361  52.651  0.00  0.00    +0.000 OA
ATOM     53  C   UNL     1      60.443  68.798  51.967  0.00  0.00    +0.000 C 
ATOM     54  C   UNL     1      60.118  69.554  52.021  0.00  0.00    +0.000 C 
ATOM     55  O   UNL     1      59.973  69.991  51.336  0.00  0.00    +0.000 OA
ATOM     56  C   UNL     1      59.648  70.747  51.391  0.00  0.00    +0.000 C 
ATOM     57  C   UNL     1      59.469  71.067  52.129  0.00  0.00    +0.000 C 
ENDROOT
TORSDOF 0
ENDMDL
MODEL 8
REMARK VINA RESULT:   -14.839     19.935     21.402
REMARK INTER + INTRA:         -14.839
REMARK INTER:                 -14.839
REMARK INTRA:                   0.000
REMARK UNBOUND:                 0.000
ROOT
REMARK  Name = acetyldigitoxin
REMARK                            x       y       z     vdW  Elec       q    Type
REMARK                         _______ _______ _______ _____ _____    ______ ____
ATOM      1  C   UNL     1      81.055  65.890  54.765  0.00  0.00    +0.000 C 
ATOM      2  C   UNL     1      81.101  66.670  54.500  0.00  0.00    +0.000 C 
ATOM      3  O   UNL     1      81.345  66.829  53.728  0.00  0.00    +0.000 OA
ATOM      4  C   UNL     1      81.391  67.609  53.462  0.00  0.00    +0.000 C 
ATOM      5  C   UNL     1      81.194  68.230  53.969  0.00  0.00    +0.000 C 
ATOM      6  C   UNL     1      80.950  68.070  54.741  0.00  0.00    +0.000 C 
ATOM      7  O   UNL     1      80.752  68.691  55.247  0.00  0.00    +0.000 OA
ATOM      8  C   UNL     1      80.509  68.532  56.019  0.00  0.00    +0.000 C 
ATOM      9  C   UNL     1      80.311  69.153  56.525  0.00  0.00    +0.000 C 
ATOM     10  O   UNL     1      80.462  67.753  56.284  0.00  0.00    +0.000 OA
ATOM     11  C   UNL     1      80.904  67.291  55.006  0.00  0.00    +0.000 C 
ATOM     12  O   UNL     1      80.660  67.132  55.778  0.00  0.00    +0.000 OA
ATOM     13  O   UNL     1      81.635  67.768  52.690  0.00  0.00    +0.000 OA
ATOM     14  C   UNL     1      81.682  68.547  52.425  0.00  0.00    +0.000 C 
ATOM     15  C   UNL     1      81.925  68.706  51.653  0.00  0.00    +0.000 C 
ATOM     16  O   UNL     1      82.123  68.086  51.146  0.00  0.00    +0.000 OA
ATOM     17  C   UNL     1      81.972  69.486  51.388  0.00  0.00    +0.000 C 
ATOM     18  C   UNL     1      81.774  70.106  51.893  0.00  0.00    +0.000 C 
ATOM     19  O   UNL     1      81.820  70.887  51.628  0.00  0.00    +0.000 OA
ATOM     20  C   UNL     1      81.623  71.507  52.134  0.00  0.00    +0.000 C 
ATOM     21  C   UNL     1      81.669  72.287  51.869  0.00  0.00    +0.000 C 
ATOM     22  O   UNL     1      81.913  72.446  51.097  0.00  0.00    +0.000 OA
ATOM     23  C   UNL     1      81.472  72.907  52.375  0.00  0.00    +0.000 C 
ATOM     24  C   UNL     1      81.228  72.749  53.146  0.00  0.00    +0.000 C 
ATOM     25  O   UNL     1      81.030  73.370  53.653  0.00  0.00    +0.000 OA
ATOM     26  C   UNL     1      81.076  74.149  53.388  0.00  0.00    +0.000 C 
ATOM     27  C   UNL     1      81.320  74.308  52.616  0.00  0.00    +0.000 C 
ATOM     28  C   UNL     1      81.366  75.087  52.350  0.00  0.00    +0.000 C 
ATOM     29  C   UNL     1      81.169  75.708  52.856  0.00  0.00    +0.000 C 
ATOM     30  C   UNL     1      81.413  75.867  52.084  0.00  0.00    +0.000 C 
ATOM     31  C   UNL     1      80.925  75.550  53.628  0.00  0.00    +0.000 C 
ATOM     32  C   UNL     1      80.727  76.170  54.134  0.00  0.00    +0.000 C 
ATOM     33  C   UNL     1      80.773  76.950  53.869  0.00  0.00    +0.000 C 
ATOM     34  C   UNL     1      81.017  77.109  53.097  0.00  0.00    +0.000 C 
ATOM     35  C   UNL     1      81.215  76.488  52.590  0.00  0.00    +0.000 C 
ATOM     36  C   UNL     1      81.459  76.647  51.818  0.00  0.00    +0.000 C 
ATOM     37  C   UNL     1      81.505  77.427  51.553  0.00  0.00    +0.000 C 
ATOM     38  C   UNL     1      81.307  78.048  52.059  0.00  0.00    +0.000 C 
ATOM     39  C   UNL     1      81.541  78.290  51.306  0.00  0.00    +0.000 C 
ATOM     40  C   UNL     1      81.300  78.865  51.952  0.00  0.00    +0.000 C 
ATOM     41  C   UNL     1      81.051  79.212  52.659  0.00  0.00    +0.000 C 
ATOM     42  C   UNL     1      80.905  78.609  53.202  0.00  0.00    +0.000 C 
ATOM     43  C   UNL     1      81.064  77.888  52.832  0.00  0.00    +0.000 C 
ATOM     44  O   UNL     1      80.812  77.814  53.614  0.00  0.00    +0.000 OA
ATOM     45  C   UNL     1      81.505  79.266  51.262  0.00  0.00    +0.000 C 
ATOM     46  C   UNL     1      81.753  78.920  50.556  0.00  0.00    +0.000 C 
ATOM     47  C   UNL     1      81.899  79.524  50.013  0.00  0.00    +0.000 C 
ATOM     48  O   UNL     1      82.158  79.426  49.235  0.00  0.00    +0.000 OA
ATOM     49  O   UNL     1      81.741  80.243  50.383  0.00  0.00    +0.000 OA
ATOM     50  C   UNL     1      81.497  80.085  51.155  0.00  0.00    +0.000 C 
ATOM     51  C   UNL     1      80.879  74.770  53.893  0.00  0.00    +0.000 C 
ATOM     52  O   UNL     1      81.181  71.969  53.412  0.00  0.00    +0.000 OA
ATOM     53  C   UNL     1      81.379  71.348  52.906  0.00  0.00    +0.000 C 
ATOM     54  C   UNL     1      81.333  70.569  53.172  0.00  0.00    +0.000 C 
ATOM     55  O   UNL     1      81.530  69.948  52.665  0.00  0.00    +0.000 OA
ATOM     56  C   UNL     1      81.484  69.168  52.932  0.00  0.00    +0.000 C 
ATOM     57  C   UNL     1      81.240  69.009  53.703  0.00  0.00    +0.000 C 
ENDROOT
TORSDOF 0
ENDMDL
