MODEL 1
REMARK VINA RESULT:   -12.948      0.000      0.000
REMARK INTER + INTRA:         -12.948
REMARK INTER:                 -12.948
REMARK INTRA:                   0.000
REMARK UNBOUND:                 0.000
ROOT
REMARK  Name = acotiamide
REMARK                            x       y       z     vdW  Elec       q    Type
REMARK                         _______ _______ _______ _____ _____    ______ ____
ATOM      1  C   UNL     1      62.385  68.364  73.222  0.00  0.00    +0.000 C 
ATOM      2  O   UNL     1      61.727  68.009  72.875  0.00  0.00    +0.000 OA
ATOM      3  C   UNL     1      61.826  67.482  72.247  0.00  0.00    +0.000 A 
ATOM      4  C   UNL     1      61.168  67.128  71.899  0.00  0.00    +0.000 A 
ATOM      5  C   UNL     1      61.267  66.601  71.271  0.00  0.00    +0.000 A 
ATOM      6  O   UNL     1      60.609  66.246  70.923  0.00  0.00    +0.000 OA
ATOM      7  C   UNL     1      62.024  66.429  70.993  0.00  0.00    +0.000 A 
ATOM      8  C   UNL     1      62.682  66.784  71.341  0.00  0.00    +0.000 A 
ATOM      9  C   UNL     1      62.584  67.311  71.969  0.00  0.00    +0.000 A 
ATOM     10  O   UNL     1      63.241  67.665  72.317  0.00  0.00    +0.000 OA
ATOM     11  C   UNL     1      63.142  68.192  72.944  0.00  0.00    +0.000 C 
ATOM     12  C   UNL     1      62.123  65.902  70.366  0.00  0.00    +0.000 C 
ATOM     13  O   UNL     1      62.880  65.730  70.087  0.00  0.00    +0.000 OA
ATOM     14  N   UNL     1      61.464  65.547  70.017  0.00  0.00    +0.000 NA
ATOM     15  C   UNL     1      61.563  65.021  69.390  0.00  0.00    +0.000 A 
ATOM     16  N   UNL     1      60.960  64.625  68.989  0.00  0.00    +0.000 NA
ATOM     17  C   UNL     1      61.307  64.157  68.404  0.00  0.00    +0.000 A 
ATOM     18  C   UNL     1      62.124  64.263  68.445  0.00  0.00    +0.000 A 
ATOM     19  S   UNL     1      62.283  64.796  69.054  0.00  0.00    +0.000 S 
ATOM     20  C   UNL     1      60.907  63.668  67.873  0.00  0.00    +0.000 C 
ATOM     21  O   UNL     1      60.084  63.619  67.899  0.00  0.00    +0.000 OA
ATOM     22  N   UNL     1      61.330  63.231  67.317  0.00  0.00    +0.000 NA
ATOM     23  C   UNL     1      60.930  62.742  66.786  0.00  0.00    +0.000 C 
ATOM     24  C   UNL     1      61.353  62.304  66.229  0.00  0.00    +0.000 C 
ATOM     25  N   UNL     1      60.952  61.815  65.698  0.00  0.00    +0.000 NA
ATOM     26  C   UNL     1      61.375  61.378  65.142  0.00  0.00    +0.000 C 
ATOM     27  C   UNL     1      60.975  60.889  64.611  0.00  0.00    +0.000 C 
ATOM     28  C   UNL     1      62.198  61.427  65.116  0.00  0.00    +0.000 C 
ATOM     29  C   UNL     1      60.129  61.766  65.724  0.00  0.00    +0.000 C 
ATOM     30  C   UNL     1      59.706  62.204  66.280  0.00  0.00    +0.000 C 
ATOM     31  C   UNL     1      59.729  61.278  65.193  0.00  0.00    +0.000 C 
ENDROOT
TORSDOF 0
ENDMDL
MODEL 2
REMARK VINA RESULT:   -11.336     14.993     15.403
REMARK INTER + INTRA:         -11.336
REMARK INTER:                 -11.336
REMARK INTRA:                   0.000
REMARK UNBOUND:                 0.000
ROOT
REMARK  Name = acotiamide
REMARK                            x       y       z     vdW  Elec       q    Type
REMARK                         _______ _______ _______ _____ _____    ______ ____
ATOM      1  C   UNL     1      62.027  70.153  54.849  0.00  0.00    +0.000 C 
ATOM      2  O   UNL     1      62.612  69.584  54.963  0.00  0.00    +0.000 OA
ATOM      3  C   UNL     1      62.469  68.797  54.756  0.00  0.00    +0.000 A 
ATOM      4  C   UNL     1      63.054  68.228  54.870  0.00  0.00    +0.000 A 
ATOM      5  C   UNL     1      62.911  67.441  54.663  0.00  0.00    +0.000 A 
ATOM      6  O   UNL     1      63.496  66.872  54.777  0.00  0.00    +0.000 OA
ATOM      7  C   UNL     1      62.182  67.226  54.343  0.00  0.00    +0.000 A 
ATOM      8  C   UNL     1      61.596  67.796  54.229  0.00  0.00    +0.000 A 
ATOM      9  C   UNL     1      61.739  68.582  54.436  0.00  0.00    +0.000 A 
ATOM     10  O   UNL     1      61.155  69.151  54.322  0.00  0.00    +0.000 OA
ATOM     11  C   UNL     1      61.298  69.938  54.529  0.00  0.00    +0.000 C 
ATOM     12  C   UNL     1      62.038  66.440  54.137  0.00  0.00    +0.000 C 
ATOM     13  O   UNL     1      61.310  66.224  53.817  0.00  0.00    +0.000 OA
ATOM     14  N   UNL     1      62.625  65.870  54.251  0.00  0.00    +0.000 NA
ATOM     15  C   UNL     1      62.481  65.085  54.044  0.00  0.00    +0.000 A 
ATOM     16  N   UNL     1      63.011  64.457  54.125  0.00  0.00    +0.000 NA
ATOM     17  C   UNL     1      62.639  63.773  53.851  0.00  0.00    +0.000 A 
ATOM     18  C   UNL     1      61.881  63.977  53.601  0.00  0.00    +0.000 A 
ATOM     19  S   UNL     1      61.783  64.788  53.720  0.00  0.00    +0.000 S 
ATOM     20  C   UNL     1      62.969  63.017  53.832  0.00  0.00    +0.000 C 
ATOM     21  O   UNL     1      63.740  62.896  54.103  0.00  0.00    +0.000 OA
ATOM     22  N   UNL     1      62.530  62.383  53.541  0.00  0.00    +0.000 NA
ATOM     23  C   UNL     1      62.860  61.627  53.521  0.00  0.00    +0.000 C 
ATOM     24  C   UNL     1      62.420  60.992  53.231  0.00  0.00    +0.000 C 
ATOM     25  N   UNL     1      62.750  60.236  53.211  0.00  0.00    +0.000 NA
ATOM     26  C   UNL     1      62.311  59.602  52.921  0.00  0.00    +0.000 C 
ATOM     27  C   UNL     1      62.641  58.846  52.901  0.00  0.00    +0.000 C 
ATOM     28  C   UNL     1      61.540  59.722  52.650  0.00  0.00    +0.000 C 
ATOM     29  C   UNL     1      63.520  60.115  53.482  0.00  0.00    +0.000 C 
ATOM     30  C   UNL     1      63.960  60.750  53.772  0.00  0.00    +0.000 C 
ATOM     31  C   UNL     1      63.850  59.360  53.462  0.00  0.00    +0.000 C 
ENDROOT
TORSDOF 0
ENDMDL
MODEL 3
REMARK VINA RESULT:   -11.277     15.001     16.539
REMARK INTER + INTRA:         -11.277
REMARK INTER:                 -11.277
REMARK INTRA:                   0.000
REMARK UNBOUND:                 0.000
ROOT
REMARK  Name = acotiamide
REMARK                            x       y       z     vdW  Elec       q    Type
REMARK                         _______ _______ _______ _____ _____    ______ ____
ATOM      1  C   UNL     1      63.821  59.516  53.356  0.00  0.00    +0.000 C 
ATOM      2  O   UNL     1      64.184  60.177  53.690  0.00  0.00    +0.000 OA
ATOM      3  C   UNL     1      63.804  60.910  53.672  0.00  0.00    +0.000 A 
ATOM      4  C   UNL     1      64.166  61.571  54.005  0.00  0.00    +0.000 A 
ATOM      5  C   UNL     1      63.786  62.303  53.987  0.00  0.00    +0.000 A 
ATOM      6  O   UNL     1      64.148  62.964  54.321  0.00  0.00    +0.000 OA
ATOM      7  C   UNL     1      63.044  62.374  53.634  0.00  0.00    +0.000 A 
ATOM      8  C   UNL     1      62.681  61.712  53.300  0.00  0.00    +0.000 A 
ATOM      9  C   UNL     1      63.061  60.980  53.319  0.00  0.00    +0.000 A 
ATOM     10  O   UNL     1      62.699  60.318  52.985  0.00  0.00    +0.000 OA
ATOM     11  C   UNL     1      63.079  59.586  53.004  0.00  0.00    +0.000 C 
ATOM     12  C   UNL     1      62.664  63.106  53.615  0.00  0.00    +0.000 C 
ATOM     13  O   UNL     1      61.922  63.176  53.263  0.00  0.00    +0.000 OA
ATOM     14  N   UNL     1      63.026  63.767  53.950  0.00  0.00    +0.000 NA
ATOM     15  C   UNL     1      62.646  64.499  53.931  0.00  0.00    +0.000 A 
ATOM     16  N   UNL     1      62.939  65.206  54.241  0.00  0.00    +0.000 NA
ATOM     17  C   UNL     1      62.380  65.797  54.100  0.00  0.00    +0.000 A 
ATOM     18  C   UNL     1      61.743  65.455  53.704  0.00  0.00    +0.000 A 
ATOM     19  S   UNL     1      61.907  64.653  53.599  0.00  0.00    +0.000 S 
ATOM     20  C   UNL     1      62.448  66.589  54.318  0.00  0.00    +0.000 C 
ATOM     21  O   UNL     1      63.122  66.852  54.714  0.00  0.00    +0.000 OA
ATOM     22  N   UNL     1      61.841  67.119  54.140  0.00  0.00    +0.000 NA
ATOM     23  C   UNL     1      61.909  67.912  54.358  0.00  0.00    +0.000 C 
ATOM     24  C   UNL     1      61.302  68.442  54.179  0.00  0.00    +0.000 C 
ATOM     25  N   UNL     1      61.369  69.235  54.397  0.00  0.00    +0.000 NA
ATOM     26  C   UNL     1      60.763  69.764  54.219  0.00  0.00    +0.000 C 
ATOM     27  C   UNL     1      60.831  70.557  54.437  0.00  0.00    +0.000 C 
ATOM     28  C   UNL     1      60.089  69.502  53.822  0.00  0.00    +0.000 C 
ATOM     29  C   UNL     1      62.044  69.497  54.793  0.00  0.00    +0.000 C 
ATOM     30  C   UNL     1      62.650  68.968  54.972  0.00  0.00    +0.000 C 
ATOM     31  C   UNL     1      62.111  70.290  55.011  0.00  0.00    +0.000 C 
ENDROOT
TORSDOF 0
ENDMDL
