MODEL 1
REMARK VINA RESULT:   -13.961      0.000      0.000
REMARK INTER + INTRA:         -13.961
REMARK INTER:                 -13.961
REMARK INTRA:                   0.000
REMARK UNBOUND:                 0.000
ROOT
REMARK  Name = afatinib
REMARK                            x       y       z     vdW  Elec       q    Type
REMARK                         _______ _______ _______ _____ _____    ______ ____
ATOM      1  C   UNL     1      64.793  66.287  71.058  0.00  0.00    +0.000 C 
ATOM      2  N   UNL     1      64.435  65.571  70.858  0.00  0.00    +0.000 NA
ATOM      3  C   UNL     1      64.845  65.014  70.407  0.00  0.00    +0.000 C 
ATOM      4  C   UNL     1      63.666  65.410  71.111  0.00  0.00    +0.000 C 
ATOM      5  C   UNL     1      63.307  64.693  70.912  0.00  0.00    +0.000 C 
ATOM      6  C   UNL     1      62.539  64.533  71.164  0.00  0.00    +0.000 C 
ATOM      7  C   UNL     1      62.180  63.817  70.966  0.00  0.00    +0.000 C 
ATOM      8  O   UNL     1      62.591  63.262  70.514  0.00  0.00    +0.000 OA
ATOM      9  N   UNL     1      61.411  63.657  71.218  0.00  0.00    +0.000 NA
ATOM     10  C   UNL     1      61.001  64.212  71.669  0.00  0.00    +0.000 A 
ATOM     11  C   UNL     1      61.359  64.928  71.868  0.00  0.00    +0.000 A 
ATOM     12  C   UNL     1      60.949  65.484  72.319  0.00  0.00    +0.000 A 
ATOM     13  C   UNL     1      60.179  65.324  72.572  0.00  0.00    +0.000 A 
ATOM     14  C   UNL     1      59.822  64.607  72.373  0.00  0.00    +0.000 A 
ATOM     15  C   UNL     1      60.232  64.051  71.922  0.00  0.00    +0.000 A 
ATOM     16  O   UNL     1      59.874  63.336  71.723  0.00  0.00    +0.000 OA
ATOM     17  C   UNL     1      60.284  62.781  71.272  0.00  0.00    +0.000 C 
ATOM     18  C   UNL     1      61.052  62.863  70.981  0.00  0.00    +0.000 C 
ATOM     19  C   UNL     1      61.242  62.178  70.562  0.00  0.00    +0.000 C 
ATOM     20  O   UNL     1      60.590  61.673  70.593  0.00  0.00    +0.000 OA
ATOM     21  C   UNL     1      59.999  62.044  71.032  0.00  0.00    +0.000 C 
ATOM     22  N   UNL     1      59.769  65.879  73.023  0.00  0.00    +0.000 NA
ATOM     23  C   UNL     1      60.127  66.594  73.222  0.00  0.00    +0.000 A 
ATOM     24  N   UNL     1      60.897  66.755  72.969  0.00  0.00    +0.000 NA
ATOM     25  C   UNL     1      61.307  66.200  72.518  0.00  0.00    +0.000 A 
ATOM     26  N   UNL     1      62.076  66.360  72.266  0.00  0.00    +0.000 NA
ATOM     27  C   UNL     1      62.435  67.076  72.464  0.00  0.00    +0.000 A 
ATOM     28  C   UNL     1      63.203  67.236  72.212  0.00  0.00    +0.000 A 
ATOM     29  C   UNL     1      63.562  67.953  72.411  0.00  0.00    +0.000 A 
ATOM     30 CL   UNL     1      64.330  68.114  72.158  0.00  0.00    +0.000 Cl
ATOM     31  C   UNL     1      63.151  68.508  72.862  0.00  0.00    +0.000 A 
ATOM     32  F   UNL     1      63.509  69.225  73.061  0.00  0.00    +0.000 F 
ATOM     33  C   UNL     1      62.383  68.348  73.114  0.00  0.00    +0.000 A 
ATOM     34  C   UNL     1      62.024  67.632  72.916  0.00  0.00    +0.000 A 
ENDROOT
TORSDOF 0
ENDMDL
MODEL 2
REMARK VINA RESULT:   -13.629      1.663      3.491
REMARK INTER + INTRA:         -13.629
REMARK INTER:                 -13.629
REMARK INTRA:                   0.000
REMARK UNBOUND:                 0.000
ROOT
REMARK  Name = afatinib
REMARK                            x       y       z     vdW  Elec       q    Type
REMARK                         _______ _______ _______ _____ _____    ______ ____
ATOM      1  C   UNL     1      63.468  67.768  72.470  0.00  0.00    +0.000 C 
ATOM      2  N   UNL     1      62.676  67.772  72.700  0.00  0.00    +0.000 NA
ATOM      3  C   UNL     1      62.378  68.400  73.145  0.00  0.00    +0.000 C 
ATOM      4  C   UNL     1      62.180  67.148  72.486  0.00  0.00    +0.000 C 
ATOM      5  C   UNL     1      61.388  67.152  72.716  0.00  0.00    +0.000 C 
ATOM      6  C   UNL     1      60.893  66.529  72.502  0.00  0.00    +0.000 C 
ATOM      7  C   UNL     1      60.101  66.532  72.732  0.00  0.00    +0.000 C 
ATOM      8  O   UNL     1      59.804  67.160  73.177  0.00  0.00    +0.000 OA
ATOM      9  N   UNL     1      59.606  65.908  72.518  0.00  0.00    +0.000 NA
ATOM     10  C   UNL     1      59.903  65.280  72.074  0.00  0.00    +0.000 A 
ATOM     11  C   UNL     1      60.695  65.276  71.843  0.00  0.00    +0.000 A 
ATOM     12  C   UNL     1      60.993  64.648  71.398  0.00  0.00    +0.000 A 
ATOM     13  C   UNL     1      60.497  64.023  71.184  0.00  0.00    +0.000 A 
ATOM     14  C   UNL     1      59.705  64.027  71.414  0.00  0.00    +0.000 A 
ATOM     15  C   UNL     1      59.407  64.655  71.859  0.00  0.00    +0.000 A 
ATOM     16  O   UNL     1      58.616  64.660  72.089  0.00  0.00    +0.000 OA
ATOM     17  C   UNL     1      58.319  65.287  72.533  0.00  0.00    +0.000 C 
ATOM     18  C   UNL     1      58.745  65.947  72.788  0.00  0.00    +0.000 C 
ATOM     19  C   UNL     1      58.233  66.434  73.214  0.00  0.00    +0.000 C 
ATOM     20  O   UNL     1      57.490  66.075  73.222  0.00  0.00    +0.000 OA
ATOM     21  C   UNL     1      57.543  65.367  72.802  0.00  0.00    +0.000 C 
ATOM     22  N   UNL     1      60.795  63.395  70.739  0.00  0.00    +0.000 NA
ATOM     23  C   UNL     1      61.586  63.391  70.509  0.00  0.00    +0.000 A 
ATOM     24  N   UNL     1      62.082  64.016  70.724  0.00  0.00    +0.000 NA
ATOM     25  C   UNL     1      61.785  64.643  71.168  0.00  0.00    +0.000 A 
ATOM     26  N   UNL     1      62.280  65.268  71.382  0.00  0.00    +0.000 NA
ATOM     27  C   UNL     1      63.072  65.264  71.152  0.00  0.00    +0.000 A 
ATOM     28  C   UNL     1      63.566  65.888  71.367  0.00  0.00    +0.000 A 
ATOM     29  C   UNL     1      64.359  65.884  71.136  0.00  0.00    +0.000 A 
ATOM     30 CL   UNL     1      64.854  66.508  71.351  0.00  0.00    +0.000 Cl
ATOM     31  C   UNL     1      64.656  65.255  70.692  0.00  0.00    +0.000 A 
ATOM     32  F   UNL     1      65.449  65.251  70.461  0.00  0.00    +0.000 F 
ATOM     33  C   UNL     1      64.161  64.632  70.477  0.00  0.00    +0.000 A 
ATOM     34  C   UNL     1      63.369  64.635  70.707  0.00  0.00    +0.000 A 
ENDROOT
TORSDOF 0
ENDMDL
MODEL 3
REMARK VINA RESULT:   -13.127      2.225      4.277
REMARK INTER + INTRA:         -13.127
REMARK INTER:                 -13.127
REMARK INTRA:                   0.000
REMARK UNBOUND:                 0.000
ROOT
REMARK  Name = afatinib
REMARK                            x       y       z     vdW  Elec       q    Type
REMARK                         _______ _______ _______ _____ _____    ______ ____
ATOM      1  C   UNL     1      60.947  63.133  70.712  0.00  0.00    +0.000 C 
ATOM      2  N   UNL     1      61.718  63.398  70.588  0.00  0.00    +0.000 NA
ATOM      3  C   UNL     1      62.244  62.946  70.141  0.00  0.00    +0.000 C 
ATOM      4  C   UNL     1      61.964  64.116  70.911  0.00  0.00    +0.000 C 
ATOM      5  C   UNL     1      62.736  64.382  70.788  0.00  0.00    +0.000 C 
ATOM      6  C   UNL     1      62.981  65.099  71.111  0.00  0.00    +0.000 C 
ATOM      7  C   UNL     1      63.752  65.365  70.988  0.00  0.00    +0.000 C 
ATOM      8  O   UNL     1      64.277  64.913  70.541  0.00  0.00    +0.000 OA
ATOM      9  N   UNL     1      63.998  66.083  71.311  0.00  0.00    +0.000 NA
ATOM     10  C   UNL     1      63.473  66.535  71.758  0.00  0.00    +0.000 A 
ATOM     11  C   UNL     1      62.701  66.270  71.882  0.00  0.00    +0.000 A 
ATOM     12  C   UNL     1      62.175  66.722  72.329  0.00  0.00    +0.000 A 
ATOM     13  C   UNL     1      62.421  67.441  72.652  0.00  0.00    +0.000 A 
ATOM     14  C   UNL     1      63.193  67.707  72.528  0.00  0.00    +0.000 A 
ATOM     15  C   UNL     1      63.719  67.254  72.081  0.00  0.00    +0.000 A 
ATOM     16  O   UNL     1      64.489  67.520  71.958  0.00  0.00    +0.000 OA
ATOM     17  C   UNL     1      65.015  67.068  71.511  0.00  0.00    +0.000 C 
ATOM     18  C   UNL     1      64.849  66.342  71.155  0.00  0.00    +0.000 C 
ATOM     19  C   UNL     1      65.530  66.087  70.765  0.00  0.00    +0.000 C 
ATOM     20  O   UNL     1      66.117  66.655  70.881  0.00  0.00    +0.000 OA
ATOM     21  C   UNL     1      65.799  67.261  71.341  0.00  0.00    +0.000 C 
ATOM     22  N   UNL     1      61.896  67.893  73.099  0.00  0.00    +0.000 NA
ATOM     23  C   UNL     1      61.125  67.628  73.222  0.00  0.00    +0.000 A 
ATOM     24  N   UNL     1      60.879  66.909  72.899  0.00  0.00    +0.000 NA
ATOM     25  C   UNL     1      61.404  66.457  72.452  0.00  0.00    +0.000 A 
ATOM     26  N   UNL     1      61.159  65.739  72.129  0.00  0.00    +0.000 NA
ATOM     27  C   UNL     1      60.388  65.473  72.252  0.00  0.00    +0.000 A 
ATOM     28  C   UNL     1      60.142  64.756  71.929  0.00  0.00    +0.000 A 
ATOM     29  C   UNL     1      59.370  64.490  72.053  0.00  0.00    +0.000 A 
ATOM     30 CL   UNL     1      59.125  63.772  71.729  0.00  0.00    +0.000 Cl
ATOM     31  C   UNL     1      58.846  64.942  72.500  0.00  0.00    +0.000 A 
ATOM     32  F   UNL     1      58.074  64.676  72.623  0.00  0.00    +0.000 F 
ATOM     33  C   UNL     1      59.091  65.660  72.823  0.00  0.00    +0.000 A 
ATOM     34  C   UNL     1      59.862  65.926  72.699  0.00  0.00    +0.000 A 
ENDROOT
TORSDOF 0
ENDMDL
MODEL 4
REMARK VINA RESULT:   -12.445      1.511      3.228
REMARK INTER + INTRA:         -12.445
REMARK INTER:                 -12.445
REMARK INTRA:                   0.000
REMARK UNBOUND:                 0.000
ROOT
REMARK  Name = afatinib
REMARK                            x       y       z     vdW  Elec       q    Type
REMARK                         _______ _______ _______ _____ _____    ______ ____
ATOM      1  C   UNL     1      60.725  67.132  72.835  0.00  0.00    +0.000 C 
ATOM      2  N   UNL     1      60.408  66.556  72.336  0.00  0.00    +0.000 NA
ATOM      3  C   UNL     1      59.614  66.342  72.405  0.00  0.00    +0.000 C 
ATOM      4  C   UNL     1      60.885  66.195  71.769  0.00  0.00    +0.000 C 
ATOM      5  C   UNL     1      60.568  65.618  71.270  0.00  0.00    +0.000 C 
ATOM      6  C   UNL     1      61.044  65.257  70.703  0.00  0.00    +0.000 C 
ATOM      7  C   UNL     1      60.728  64.681  70.204  0.00  0.00    +0.000 C 
ATOM      8  O   UNL     1      59.934  64.467  70.273  0.00  0.00    +0.000 OA
ATOM      9  N   UNL     1      61.205  64.319  69.636  0.00  0.00    +0.000 NA
ATOM     10  C   UNL     1      61.998  64.533  69.567  0.00  0.00    +0.000 A 
ATOM     11  C   UNL     1      62.316  65.109  70.066  0.00  0.00    +0.000 A 
ATOM     12  C   UNL     1      63.109  65.324  69.997  0.00  0.00    +0.000 A 
ATOM     13  C   UNL     1      63.587  64.962  69.429  0.00  0.00    +0.000 A 
ATOM     14  C   UNL     1      63.269  64.386  68.930  0.00  0.00    +0.000 A 
ATOM     15  C   UNL     1      62.475  64.171  68.999  0.00  0.00    +0.000 A 
ATOM     16  O   UNL     1      62.159  63.596  68.501  0.00  0.00    +0.000 OA
ATOM     17  C   UNL     1      61.366  63.382  68.570  0.00  0.00    +0.000 C 
ATOM     18  C   UNL     1      60.823  63.694  69.108  0.00  0.00    +0.000 C 
ATOM     19  C   UNL     1      60.097  63.323  68.984  0.00  0.00    +0.000 C 
ATOM     20  O   UNL     1      60.190  62.782  68.368  0.00  0.00    +0.000 OA
ATOM     21  C   UNL     1      60.973  62.818  68.112  0.00  0.00    +0.000 C 
ATOM     22  N   UNL     1      64.380  65.176  69.360  0.00  0.00    +0.000 NA
ATOM     23  C   UNL     1      64.697  65.751  69.858  0.00  0.00    +0.000 A 
ATOM     24  N   UNL     1      64.219  66.113  70.426  0.00  0.00    +0.000 NA
ATOM     25  C   UNL     1      63.426  65.899  70.495  0.00  0.00    +0.000 A 
ATOM     26  N   UNL     1      62.949  66.261  71.063  0.00  0.00    +0.000 NA
ATOM     27  C   UNL     1      63.265  66.837  71.562  0.00  0.00    +0.000 A 
ATOM     28  C   UNL     1      62.789  67.198  72.129  0.00  0.00    +0.000 A 
ATOM     29  C   UNL     1      63.106  67.775  72.628  0.00  0.00    +0.000 A 
ATOM     30 CL   UNL     1      62.629  68.136  73.195  0.00  0.00    +0.000 Cl
ATOM     31  C   UNL     1      63.900  67.988  72.558  0.00  0.00    +0.000 A 
ATOM     32  F   UNL     1      64.217  68.565  73.057  0.00  0.00    +0.000 F 
ATOM     33  C   UNL     1      64.376  67.627  71.991  0.00  0.00    +0.000 A 
ATOM     34  C   UNL     1      64.060  67.051  71.492  0.00  0.00    +0.000 A 
ENDROOT
TORSDOF 0
ENDMDL
MODEL 5
REMARK VINA RESULT:   -12.336      3.032      4.530
REMARK INTER + INTRA:         -12.336
REMARK INTER:                 -12.336
REMARK INTRA:                   0.000
REMARK UNBOUND:                 0.000
ROOT
REMARK  Name = afatinib
REMARK                            x       y       z     vdW  Elec       q    Type
REMARK                         _______ _______ _______ _____ _____    ______ ____
ATOM      1  C   UNL     1      60.781  61.376  69.767  0.00  0.00    +0.000 C 
ATOM      2  N   UNL     1      60.501  62.049  69.379  0.00  0.00    +0.000 NA
ATOM      3  C   UNL     1      60.203  61.990  68.612  0.00  0.00    +0.000 C 
ATOM      4  C   UNL     1      60.519  62.781  69.759  0.00  0.00    +0.000 C 
ATOM      5  C   UNL     1      60.240  63.454  69.371  0.00  0.00    +0.000 C 
ATOM      6  C   UNL     1      60.258  64.186  69.750  0.00  0.00    +0.000 C 
ATOM      7  C   UNL     1      59.979  64.859  69.363  0.00  0.00    +0.000 C 
ATOM      8  O   UNL     1      59.681  64.798  68.597  0.00  0.00    +0.000 OA
ATOM      9  N   UNL     1      59.997  65.591  69.743  0.00  0.00    +0.000 NA
ATOM     10  C   UNL     1      60.295  65.650  70.510  0.00  0.00    +0.000 A 
ATOM     11  C   UNL     1      60.574  64.978  70.898  0.00  0.00    +0.000 A 
ATOM     12  C   UNL     1      60.872  65.037  71.665  0.00  0.00    +0.000 A 
ATOM     13  C   UNL     1      60.891  65.770  72.045  0.00  0.00    +0.000 A 
ATOM     14  C   UNL     1      60.611  66.442  71.657  0.00  0.00    +0.000 A 
ATOM     15  C   UNL     1      60.313  66.383  70.890  0.00  0.00    +0.000 A 
ATOM     16  O   UNL     1      60.034  67.055  70.502  0.00  0.00    +0.000 OA
ATOM     17  C   UNL     1      59.736  66.996  69.736  0.00  0.00    +0.000 C 
ATOM     18  C   UNL     1      59.683  66.305  69.288  0.00  0.00    +0.000 C 
ATOM     19  C   UNL     1      59.353  66.498  68.557  0.00  0.00    +0.000 C 
ATOM     20  O   UNL     1      59.203  67.310  68.553  0.00  0.00    +0.000 OA
ATOM     21  C   UNL     1      59.439  67.617  69.281  0.00  0.00    +0.000 C 
ATOM     22  N   UNL     1      61.188  65.829  72.812  0.00  0.00    +0.000 NA
ATOM     23  C   UNL     1      61.467  65.157  73.199  0.00  0.00    +0.000 A 
ATOM     24  N   UNL     1      61.449  64.424  72.819  0.00  0.00    +0.000 NA
ATOM     25  C   UNL     1      61.152  64.365  72.052  0.00  0.00    +0.000 A 
ATOM     26  N   UNL     1      61.133  63.632  71.673  0.00  0.00    +0.000 NA
ATOM     27  C   UNL     1      61.412  62.960  72.059  0.00  0.00    +0.000 A 
ATOM     28  C   UNL     1      61.394  62.228  71.680  0.00  0.00    +0.000 A 
ATOM     29  C   UNL     1      61.674  61.555  72.068  0.00  0.00    +0.000 A 
ATOM     30 CL   UNL     1      61.655  60.823  71.688  0.00  0.00    +0.000 Cl
ATOM     31  C   UNL     1      61.971  61.615  72.835  0.00  0.00    +0.000 A 
ATOM     32  F   UNL     1      62.251  60.942  73.223  0.00  0.00    +0.000 F 
ATOM     33  C   UNL     1      61.990  62.347  73.214  0.00  0.00    +0.000 A 
ATOM     34  C   UNL     1      61.710  63.019  72.827  0.00  0.00    +0.000 A 
ENDROOT
TORSDOF 0
ENDMDL
MODEL 6
REMARK VINA RESULT:   -11.353     19.602     21.266
REMARK INTER + INTRA:         -11.353
REMARK INTER:                 -11.353
REMARK INTRA:                   0.000
REMARK UNBOUND:                 0.000
ROOT
REMARK  Name = afatinib
REMARK                            x       y       z     vdW  Elec       q    Type
REMARK                         _______ _______ _______ _____ _____    ______ ____
ATOM      1  C   UNL     1      62.446  58.540  51.104  0.00  0.00    +0.000 C 
ATOM      2  N   UNL     1      62.710  59.065  50.525  0.00  0.00    +0.000 NA
ATOM      3  C   UNL     1      62.544  58.923  49.730  0.00  0.00    +0.000 C 
ATOM      4  C   UNL     1      63.142  59.734  50.743  0.00  0.00    +0.000 C 
ATOM      5  C   UNL     1      63.407  60.260  50.164  0.00  0.00    +0.000 C 
ATOM      6  C   UNL     1      63.838  60.928  50.381  0.00  0.00    +0.000 C 
ATOM      7  C   UNL     1      64.103  61.454  49.804  0.00  0.00    +0.000 C 
ATOM      8  O   UNL     1      63.936  61.311  49.009  0.00  0.00    +0.000 OA
ATOM      9  N   UNL     1      64.535  62.123  50.021  0.00  0.00    +0.000 NA
ATOM     10  C   UNL     1      64.702  62.265  50.816  0.00  0.00    +0.000 A 
ATOM     11  C   UNL     1      64.438  61.740  51.394  0.00  0.00    +0.000 A 
ATOM     12  C   UNL     1      64.605  61.882  52.190  0.00  0.00    +0.000 A 
ATOM     13  C   UNL     1      65.037  62.551  52.407  0.00  0.00    +0.000 A 
ATOM     14  C   UNL     1      65.301  63.077  51.829  0.00  0.00    +0.000 A 
ATOM     15  C   UNL     1      65.134  62.935  51.033  0.00  0.00    +0.000 A 
ATOM     16  O   UNL     1      65.399  63.460  50.455  0.00  0.00    +0.000 OA
ATOM     17  C   UNL     1      65.232  63.318  49.661  0.00  0.00    +0.000 C 
ATOM     18  C   UNL     1      64.808  62.676  49.361  0.00  0.00    +0.000 C 
ATOM     19  C   UNL     1      64.773  62.753  48.540  0.00  0.00    +0.000 C 
ATOM     20  O   UNL     1      65.175  63.443  48.333  0.00  0.00    +0.000 OA
ATOM     21  C   UNL     1      65.458  63.791  49.024  0.00  0.00    +0.000 C 
ATOM     22  N   UNL     1      65.204  62.694  53.202  0.00  0.00    +0.000 NA
ATOM     23  C   UNL     1      64.940  62.168  53.779  0.00  0.00    +0.000 A 
ATOM     24  N   UNL     1      64.507  61.499  53.562  0.00  0.00    +0.000 NA
ATOM     25  C   UNL     1      64.340  61.357  52.767  0.00  0.00    +0.000 A 
ATOM     26  N   UNL     1      63.908  60.688  52.550  0.00  0.00    +0.000 NA
ATOM     27  C   UNL     1      63.644  60.162  53.128  0.00  0.00    +0.000 A 
ATOM     28  C   UNL     1      63.212  59.494  52.911  0.00  0.00    +0.000 A 
ATOM     29  C   UNL     1      62.948  58.968  53.489  0.00  0.00    +0.000 A 
ATOM     30 CL   UNL     1      62.516  58.299  53.272  0.00  0.00    +0.000 Cl
ATOM     31  C   UNL     1      63.115  59.111  54.284  0.00  0.00    +0.000 A 
ATOM     32  F   UNL     1      62.850  58.584  54.862  0.00  0.00    +0.000 F 
ATOM     33  C   UNL     1      63.546  59.779  54.501  0.00  0.00    +0.000 A 
ATOM     34  C   UNL     1      63.811  60.305  53.923  0.00  0.00    +0.000 A 
ENDROOT
TORSDOF 0
ENDMDL
MODEL 7
REMARK VINA RESULT:   -11.066     19.363     20.797
REMARK INTER + INTRA:         -11.066
REMARK INTER:                 -11.066
REMARK INTRA:                   0.000
REMARK UNBOUND:                 0.000
ROOT
REMARK  Name = afatinib
REMARK                            x       y       z     vdW  Elec       q    Type
REMARK                         _______ _______ _______ _____ _____    ______ ____
ATOM      1  C   UNL     1      65.288  62.577  50.410  0.00  0.00    +0.000 C 
ATOM      2  N   UNL     1      64.910  61.942  50.043  0.00  0.00    +0.000 NA
ATOM      3  C   UNL     1      64.913  61.879  49.220  0.00  0.00    +0.000 C 
ATOM      4  C   UNL     1      64.528  61.370  50.498  0.00  0.00    +0.000 C 
ATOM      5  C   UNL     1      64.149  60.735  50.131  0.00  0.00    +0.000 C 
ATOM      6  C   UNL     1      63.767  60.164  50.586  0.00  0.00    +0.000 C 
ATOM      7  C   UNL     1      63.389  59.530  50.220  0.00  0.00    +0.000 C 
ATOM      8  O   UNL     1      63.392  59.467  49.397  0.00  0.00    +0.000 OA
ATOM      9  N   UNL     1      63.007  58.958  50.676  0.00  0.00    +0.000 NA
ATOM     10  C   UNL     1      63.003  59.020  51.497  0.00  0.00    +0.000 A 
ATOM     11  C   UNL     1      63.382  59.655  51.865  0.00  0.00    +0.000 A 
ATOM     12  C   UNL     1      63.379  59.718  52.688  0.00  0.00    +0.000 A 
ATOM     13  C   UNL     1      62.996  59.145  53.144  0.00  0.00    +0.000 A 
ATOM     14  C   UNL     1      62.618  58.511  52.776  0.00  0.00    +0.000 A 
ATOM     15  C   UNL     1      62.621  58.448  51.954  0.00  0.00    +0.000 A 
ATOM     16  O   UNL     1      62.242  57.814  51.587  0.00  0.00    +0.000 OA
ATOM     17  C   UNL     1      62.246  57.751  50.765  0.00  0.00    +0.000 C 
ATOM     18  C   UNL     1      62.603  58.278  50.239  0.00  0.00    +0.000 C 
ATOM     19  C   UNL     1      62.471  58.003  49.472  0.00  0.00    +0.000 C 
ATOM     20  O   UNL     1      62.032  57.307  49.524  0.00  0.00    +0.000 OA
ATOM     21  C   UNL     1      61.893  57.151  50.322  0.00  0.00    +0.000 C 
ATOM     22  N   UNL     1      62.993  59.208  53.966  0.00  0.00    +0.000 NA
ATOM     23  C   UNL     1      63.371  59.842  54.333  0.00  0.00    +0.000 A 
ATOM     24  N   UNL     1      63.754  60.415  53.877  0.00  0.00    +0.000 NA
ATOM     25  C   UNL     1      63.757  60.352  53.055  0.00  0.00    +0.000 A 
ATOM     26  N   UNL     1      64.139  60.924  52.599  0.00  0.00    +0.000 NA
ATOM     27  C   UNL     1      64.518  61.558  52.966  0.00  0.00    +0.000 A 
ATOM     28  C   UNL     1      64.899  62.130  52.511  0.00  0.00    +0.000 A 
ATOM     29  C   UNL     1      65.278  62.765  52.878  0.00  0.00    +0.000 A 
ATOM     30 CL   UNL     1      65.660  63.337  52.422  0.00  0.00    +0.000 Cl
ATOM     31  C   UNL     1      65.274  62.827  53.700  0.00  0.00    +0.000 A 
ATOM     32  F   UNL     1      65.653  63.462  54.067  0.00  0.00    +0.000 F 
ATOM     33  C   UNL     1      64.893  62.256  54.155  0.00  0.00    +0.000 A 
ATOM     34  C   UNL     1      64.514  61.621  53.789  0.00  0.00    +0.000 A 
ENDROOT
TORSDOF 0
ENDMDL
