MODEL 1
REMARK VINA RESULT:    -9.245      0.000      0.000
REMARK INTER + INTRA:          -9.245
REMARK INTER:                  -9.245
REMARK INTRA:                   0.000
REMARK UNBOUND:                 0.000
ROOT
REMARK  Name = albendazole sulfoxide
REMARK                            x       y       z     vdW  Elec       q    Type
REMARK                         _______ _______ _______ _____ _____    ______ ____
ATOM      1  C   UNL     1      60.129  63.109  71.742  0.00  0.00    +0.000 C 
ATOM      2  C   UNL     1      60.560  63.430  71.116  0.00  0.00    +0.000 C 
ATOM      3  C   UNL     1      60.549  63.062  70.377  0.00  0.00    +0.000 C 
ATOM      4  S   UNL     1      60.980  63.382  69.751  0.00  0.00    +0.000 S 
ATOM      5  O   UNL     1      61.421  64.070  69.863  0.00  0.00    +0.000 OA
ATOM      6  C   UNL     1      60.969  63.014  69.012  0.00  0.00    +0.000 C 
ATOM      7  C   UNL     1      60.527  62.326  68.900  0.00  0.00    +0.000 C 
ATOM      8  C   UNL     1      60.516  61.959  68.162  0.00  0.00    +0.000 C 
ATOM      9  C   UNL     1      60.946  62.279  67.535  0.00  0.00    +0.000 C 
ATOM     10  N   UNL     1      61.041  62.041  66.752  0.00  0.00    +0.000 NA
ATOM     11  C   UNL     1      61.540  62.581  66.379  0.00  0.00    +0.000 C 
ATOM     12  N   UNL     1      61.783  62.553  65.591  0.00  0.00    +0.000 NA
ATOM     13  C   UNL     1      61.521  61.944  65.099  0.00  0.00    +0.000 C 
ATOM     14  O   UNL     1      61.017  61.362  65.397  0.00  0.00    +0.000 OA
ATOM     15  O   UNL     1      61.763  61.916  64.311  0.00  0.00    +0.000 OA
ATOM     16  C   UNL     1      61.502  61.307  63.821  0.00  0.00    +0.000 C 
ATOM     17  N   UNL     1      61.755  63.153  66.932  0.00  0.00    +0.000 NA
ATOM     18  C   UNL     1      61.388  62.966  67.647  0.00  0.00    +0.000 C 
ATOM     19  C   UNL     1      61.399  63.335  68.386  0.00  0.00    +0.000 C 
ENDROOT
TORSDOF 0
ENDMDL
MODEL 2
REMARK VINA RESULT:    -9.223      1.652      4.662
REMARK INTER + INTRA:          -9.223
REMARK INTER:                  -9.223
REMARK INTRA:                   0.000
REMARK UNBOUND:                 0.000
ROOT
REMARK  Name = albendazole sulfoxide
REMARK                            x       y       z     vdW  Elec       q    Type
REMARK                         _______ _______ _______ _____ _____    ______ ____
ATOM      1  C   UNL     1      60.878  60.913  63.738  0.00  0.00    +0.000 C 
ATOM      2  C   UNL     1      61.363  61.318  64.267  0.00  0.00    +0.000 C 
ATOM      3  C   UNL     1      61.043  61.643  64.955  0.00  0.00    +0.000 C 
ATOM      4  S   UNL     1      61.528  62.048  65.485  0.00  0.00    +0.000 S 
ATOM      5  O   UNL     1      62.334  62.128  65.327  0.00  0.00    +0.000 OA
ATOM      6  C   UNL     1      61.208  62.373  66.173  0.00  0.00    +0.000 C 
ATOM      7  C   UNL     1      60.402  62.293  66.330  0.00  0.00    +0.000 C 
ATOM      8  C   UNL     1      60.082  62.617  67.017  0.00  0.00    +0.000 C 
ATOM      9  C   UNL     1      60.567  63.023  67.547  0.00  0.00    +0.000 C 
ATOM     10  N   UNL     1      60.409  63.399  68.263  0.00  0.00    +0.000 NA
ATOM     11  C   UNL     1      61.117  63.711  68.549  0.00  0.00    +0.000 C 
ATOM     12  N   UNL     1      61.212  64.133  69.252  0.00  0.00    +0.000 NA
ATOM     13  C   UNL     1      60.561  64.274  69.740  0.00  0.00    +0.000 C 
ATOM     14  O   UNL     1      59.816  63.994  69.525  0.00  0.00    +0.000 OA
ATOM     15  O   UNL     1      60.656  64.696  70.443  0.00  0.00    +0.000 OA
ATOM     16  C   UNL     1      60.006  64.837  70.930  0.00  0.00    +0.000 C 
ATOM     17  N   UNL     1      61.712  63.528  68.009  0.00  0.00    +0.000 NA
ATOM     18  C   UNL     1      61.372  63.103  67.390  0.00  0.00    +0.000 C 
ATOM     19  C   UNL     1      61.693  62.778  66.702  0.00  0.00    +0.000 C 
ENDROOT
TORSDOF 0
ENDMDL
MODEL 3
REMARK VINA RESULT:    -8.850      4.069      5.358
REMARK INTER + INTRA:          -8.850
REMARK INTER:                  -8.850
REMARK INTRA:                   0.000
REMARK UNBOUND:                 0.000
ROOT
REMARK  Name = albendazole sulfoxide
REMARK                            x       y       z     vdW  Elec       q    Type
REMARK                         _______ _______ _______ _____ _____    ______ ____
ATOM      1  C   UNL     1      66.481  67.816  69.847  0.00  0.00    +0.000 C 
ATOM      2  C   UNL     1      66.022  67.427  70.411  0.00  0.00    +0.000 C 
ATOM      3  C   UNL     1      65.473  66.857  70.174  0.00  0.00    +0.000 C 
ATOM      4  S   UNL     1      65.015  66.467  70.738  0.00  0.00    +0.000 S 
ATOM      5  O   UNL     1      65.103  66.647  71.538  0.00  0.00    +0.000 OA
ATOM      6  C   UNL     1      64.466  65.897  70.500  0.00  0.00    +0.000 C 
ATOM      7  C   UNL     1      64.378  65.718  69.700  0.00  0.00    +0.000 C 
ATOM      8  C   UNL     1      63.830  65.148  69.464  0.00  0.00    +0.000 C 
ATOM      9  C   UNL     1      63.371  64.758  70.027  0.00  0.00    +0.000 C 
ATOM     10  N   UNL     1      62.791  64.176  69.959  0.00  0.00    +0.000 NA
ATOM     11  C   UNL     1      62.521  63.995  70.717  0.00  0.00    +0.000 C 
ATOM     12  N   UNL     1      61.939  63.441  70.906  0.00  0.00    +0.000 NA
ATOM     13  C   UNL     1      61.571  63.008  70.307  0.00  0.00    +0.000 C 
ATOM     14  O   UNL     1      61.786  63.130  69.520  0.00  0.00    +0.000 OA
ATOM     15  O   UNL     1      60.990  62.454  70.495  0.00  0.00    +0.000 OA
ATOM     16  C   UNL     1      60.623  62.022  69.897  0.00  0.00    +0.000 C 
ATOM     17  N   UNL     1      62.934  64.466  71.254  0.00  0.00    +0.000 NA
ATOM     18  C   UNL     1      63.459  64.937  70.827  0.00  0.00    +0.000 C 
ATOM     19  C   UNL     1      64.007  65.507  71.064  0.00  0.00    +0.000 C 
ENDROOT
TORSDOF 0
ENDMDL
MODEL 4
REMARK VINA RESULT:    -8.516      2.286      4.863
REMARK INTER + INTRA:          -8.516
REMARK INTER:                  -8.516
REMARK INTRA:                   0.000
REMARK UNBOUND:                 0.000
ROOT
REMARK  Name = albendazole sulfoxide
REMARK                            x       y       z     vdW  Elec       q    Type
REMARK                         _______ _______ _______ _____ _____    ______ ____
ATOM      1  C   UNL     1      59.352  62.007  66.097  0.00  0.00    +0.000 C 
ATOM      2  C   UNL     1      60.111  62.221  66.337  0.00  0.00    +0.000 C 
ATOM      3  C   UNL     1      60.217  62.656  67.031  0.00  0.00    +0.000 C 
ATOM      4  S   UNL     1      60.976  62.870  67.272  0.00  0.00    +0.000 S 
ATOM      5  O   UNL     1      61.630  62.649  66.820  0.00  0.00    +0.000 OA
ATOM      6  C   UNL     1      61.082  63.305  67.965  0.00  0.00    +0.000 C 
ATOM      7  C   UNL     1      60.428  63.526  68.417  0.00  0.00    +0.000 C 
ATOM      8  C   UNL     1      60.533  63.961  69.109  0.00  0.00    +0.000 C 
ATOM      9  C   UNL     1      61.292  64.175  69.351  0.00  0.00    +0.000 C 
ATOM     10  N   UNL     1      61.566  64.599  70.003  0.00  0.00    +0.000 NA
ATOM     11  C   UNL     1      62.388  64.641  69.955  0.00  0.00    +0.000 C 
ATOM     12  N   UNL     1      62.887  65.015  70.494  0.00  0.00    +0.000 NA
ATOM     13  C   UNL     1      62.570  65.395  71.156  0.00  0.00    +0.000 C 
ATOM     14  O   UNL     1      61.754  65.399  71.277  0.00  0.00    +0.000 OA
ATOM     15  O   UNL     1      63.070  65.769  71.695  0.00  0.00    +0.000 OA
ATOM     16  C   UNL     1      62.753  66.148  72.356  0.00  0.00    +0.000 C 
ATOM     17  N   UNL     1      62.623  64.242  69.273  0.00  0.00    +0.000 NA
ATOM     18  C   UNL     1      61.946  63.954  68.900  0.00  0.00    +0.000 C 
ATOM     19  C   UNL     1      61.841  63.519  68.206  0.00  0.00    +0.000 C 
ENDROOT
TORSDOF 0
ENDMDL
MODEL 5
REMARK VINA RESULT:    -8.489      4.547      5.638
REMARK INTER + INTRA:          -8.489
REMARK INTER:                  -8.489
REMARK INTRA:                   0.000
REMARK UNBOUND:                 0.000
ROOT
REMARK  Name = albendazole sulfoxide
REMARK                            x       y       z     vdW  Elec       q    Type
REMARK                         _______ _______ _______ _____ _____    ______ ____
ATOM      1  C   UNL     1      60.513  62.067  71.153  0.00  0.00    +0.000 C 
ATOM      2  C   UNL     1      60.811  62.728  71.547  0.00  0.00    +0.000 C 
ATOM      3  C   UNL     1      61.434  63.158  71.216  0.00  0.00    +0.000 C 
ATOM      4  S   UNL     1      61.732  63.819  71.610  0.00  0.00    +0.000 S 
ATOM      5  O   UNL     1      61.408  64.050  72.333  0.00  0.00    +0.000 OA
ATOM      6  C   UNL     1      62.354  64.250  71.280  0.00  0.00    +0.000 C 
ATOM      7  C   UNL     1      62.678  64.019  70.557  0.00  0.00    +0.000 C 
ATOM      8  C   UNL     1      63.299  64.449  70.227  0.00  0.00    +0.000 C 
ATOM      9  C   UNL     1      63.598  65.110  70.620  0.00  0.00    +0.000 C 
ATOM     10  N   UNL     1      64.202  65.638  70.432  0.00  0.00    +0.000 NA
ATOM     11  C   UNL     1      64.253  66.195  71.038  0.00  0.00    +0.000 C 
ATOM     12  N   UNL     1      64.785  66.825  71.074  0.00  0.00    +0.000 NA
ATOM     13  C   UNL     1      65.331  66.940  70.466  0.00  0.00    +0.000 C 
ATOM     14  O   UNL     1      65.345  66.425  69.822  0.00  0.00    +0.000 OA
ATOM     15  O   UNL     1      65.862  67.570  70.502  0.00  0.00    +0.000 OA
ATOM     16  C   UNL     1      66.408  67.685  69.895  0.00  0.00    +0.000 C 
ATOM     17  N   UNL     1      63.679  66.011  71.601  0.00  0.00    +0.000 NA
ATOM     18  C   UNL     1      63.274  65.341  71.343  0.00  0.00    +0.000 C 
ATOM     19  C   UNL     1      62.652  64.911  71.673  0.00  0.00    +0.000 C 
ENDROOT
TORSDOF 0
ENDMDL
MODEL 6
REMARK VINA RESULT:    -8.254      4.426      6.068
REMARK INTER + INTRA:          -8.254
REMARK INTER:                  -8.254
REMARK INTRA:                   0.000
REMARK UNBOUND:                 0.000
ROOT
REMARK  Name = albendazole sulfoxide
REMARK                            x       y       z     vdW  Elec       q    Type
REMARK                         _______ _______ _______ _____ _____    ______ ____
ATOM      1  C   UNL     1      62.414  60.516  72.096  0.00  0.00    +0.000 C 
ATOM      2  C   UNL     1      61.898  60.967  71.637  0.00  0.00    +0.000 C 
ATOM      3  C   UNL     1      61.610  61.685  71.925  0.00  0.00    +0.000 C 
ATOM      4  S   UNL     1      61.094  62.136  71.466  0.00  0.00    +0.000 S 
ATOM      5  O   UNL     1      60.866  61.870  70.719  0.00  0.00    +0.000 OA
ATOM      6  C   UNL     1      60.806  62.854  71.754  0.00  0.00    +0.000 C 
ATOM      7  C   UNL     1      61.034  63.120  72.501  0.00  0.00    +0.000 C 
ATOM      8  C   UNL     1      60.746  63.837  72.788  0.00  0.00    +0.000 C 
ATOM      9  C   UNL     1      60.230  64.289  72.330  0.00  0.00    +0.000 C 
ATOM     10  N   UNL     1      59.859  65.012  72.466  0.00  0.00    +0.000 NA
ATOM     11  C   UNL     1      59.402  65.194  71.804  0.00  0.00    +0.000 C 
ATOM     12  N   UNL     1      58.938  65.869  71.705  0.00  0.00    +0.000 NA
ATOM     13  C   UNL     1      58.903  66.437  72.303  0.00  0.00    +0.000 C 
ATOM     14  O   UNL     1      59.333  66.330  72.999  0.00  0.00    +0.000 OA
ATOM     15  O   UNL     1      58.439  67.112  72.204  0.00  0.00    +0.000 OA
ATOM     16  C   UNL     1      58.404  67.679  72.801  0.00  0.00    +0.000 C 
ATOM     17  N   UNL     1      59.491  64.582  71.258  0.00  0.00    +0.000 NA
ATOM     18  C   UNL     1      60.002  64.023  71.583  0.00  0.00    +0.000 C 
ATOM     19  C   UNL     1      60.290  63.305  71.294  0.00  0.00    +0.000 C 
ENDROOT
TORSDOF 0
ENDMDL
MODEL 7
REMARK VINA RESULT:    -8.121      3.080      3.726
REMARK INTER + INTRA:          -8.121
REMARK INTER:                  -8.121
REMARK INTRA:                   0.000
REMARK UNBOUND:                 0.000
ROOT
REMARK  Name = albendazole sulfoxide
REMARK                            x       y       z     vdW  Elec       q    Type
REMARK                         _______ _______ _______ _____ _____    ______ ____
ATOM      1  C   UNL     1      65.320  66.531  71.908  0.00  0.00    +0.000 C 
ATOM      2  C   UNL     1      64.542  66.588  71.640  0.00  0.00    +0.000 C 
ATOM      3  C   UNL     1      64.245  66.025  71.113  0.00  0.00    +0.000 C 
ATOM      4  S   UNL     1      63.467  66.082  70.845  0.00  0.00    +0.000 S 
ATOM      5  O   UNL     1      62.986  66.701  71.103  0.00  0.00    +0.000 OA
ATOM      6  C   UNL     1      63.170  65.520  70.319  0.00  0.00    +0.000 C 
ATOM      7  C   UNL     1      63.652  64.902  70.061  0.00  0.00    +0.000 C 
ATOM      8  C   UNL     1      63.355  64.340  69.535  0.00  0.00    +0.000 C 
ATOM      9  C   UNL     1      62.577  64.396  69.266  0.00  0.00    +0.000 C 
ATOM     10  N   UNL     1      62.136  63.929  68.750  0.00  0.00    +0.000 NA
ATOM     11  C   UNL     1      61.382  64.257  68.689  0.00  0.00    +0.000 C 
ATOM     12  N   UNL     1      60.761  63.965  68.230  0.00  0.00    +0.000 NA
ATOM     13  C   UNL     1      60.868  63.283  67.777  0.00  0.00    +0.000 C 
ATOM     14  O   UNL     1      61.595  62.894  67.784  0.00  0.00    +0.000 OA
ATOM     15  O   UNL     1      60.248  62.992  67.318  0.00  0.00    +0.000 OA
ATOM     16  C   UNL     1      60.355  62.311  66.866  0.00  0.00    +0.000 C 
ATOM     17  N   UNL     1      61.357  64.929  69.167  0.00  0.00    +0.000 NA
ATOM     18  C   UNL     1      62.096  65.015  69.524  0.00  0.00    +0.000 C 
ATOM     19  C   UNL     1      62.392  65.577  70.051  0.00  0.00    +0.000 C 
ENDROOT
TORSDOF 0
ENDMDL
MODEL 8
REMARK VINA RESULT:    -7.878      5.303      6.384
REMARK INTER + INTRA:          -7.878
REMARK INTER:                  -7.878
REMARK INTRA:                   0.000
REMARK UNBOUND:                 0.000
ROOT
REMARK  Name = albendazole sulfoxide
REMARK                            x       y       z     vdW  Elec       q    Type
REMARK                         _______ _______ _______ _____ _____    ______ ____
ATOM      1  C   UNL     1      66.215  67.544  70.826  0.00  0.00    +0.000 C 
ATOM      2  C   UNL     1      65.823  66.818  70.829  0.00  0.00    +0.000 C 
ATOM      3  C   UNL     1      65.025  66.781  71.040  0.00  0.00    +0.000 C 
ATOM      4  S   UNL     1      64.633  66.056  71.043  0.00  0.00    +0.000 S 
ATOM      5  O   UNL     1      65.037  65.367  70.835  0.00  0.00    +0.000 OA
ATOM      6  C   UNL     1      63.836  66.019  71.254  0.00  0.00    +0.000 C 
ATOM      7  C   UNL     1      63.432  66.707  71.462  0.00  0.00    +0.000 C 
ATOM      8  C   UNL     1      62.636  66.670  71.673  0.00  0.00    +0.000 C 
ATOM      9  C   UNL     1      62.242  65.945  71.676  0.00  0.00    +0.000 C 
ATOM     10  N   UNL     1      61.465  65.739  71.857  0.00  0.00    +0.000 NA
ATOM     11  C   UNL     1      61.388  64.923  71.761  0.00  0.00    +0.000 C 
ATOM     12  N   UNL     1      60.701  64.483  71.885  0.00  0.00    +0.000 NA
ATOM     13  C   UNL     1      60.007  64.859  72.127  0.00  0.00    +0.000 C 
ATOM     14  O   UNL     1      60.002  65.676  72.245  0.00  0.00    +0.000 OA
ATOM     15  O   UNL     1      59.321  64.419  72.251  0.00  0.00    +0.000 OA
ATOM     16  C   UNL     1      58.628  64.795  72.492  0.00  0.00    +0.000 C 
ATOM     17  N   UNL     1      62.118  64.625  71.521  0.00  0.00    +0.000 NA
ATOM     18  C   UNL     1      62.646  65.256  71.468  0.00  0.00    +0.000 C 
ATOM     19  C   UNL     1      63.443  65.293  71.257  0.00  0.00    +0.000 C 
ENDROOT
TORSDOF 0
ENDMDL
MODEL 9
REMARK VINA RESULT:    -7.725      3.741      4.633
REMARK INTER + INTRA:          -7.725
REMARK INTER:                  -7.725
REMARK INTRA:                   0.000
REMARK UNBOUND:                 0.000
ROOT
REMARK  Name = albendazole sulfoxide
REMARK                            x       y       z     vdW  Elec       q    Type
REMARK                         _______ _______ _______ _____ _____    ______ ____
ATOM      1  C   UNL     1      62.229  60.370  72.092  0.00  0.00    +0.000 C 
ATOM      2  C   UNL     1      61.997  61.119  72.349  0.00  0.00    +0.000 C 
ATOM      3  C   UNL     1      61.705  61.669  71.806  0.00  0.00    +0.000 C 
ATOM      4  S   UNL     1      61.474  62.418  72.063  0.00  0.00    +0.000 S 
ATOM      5  O   UNL     1      61.534  62.618  72.861  0.00  0.00    +0.000 OA
ATOM      6  C   UNL     1      61.181  62.967  71.520  0.00  0.00    +0.000 C 
ATOM      7  C   UNL     1      61.121  62.767  70.722  0.00  0.00    +0.000 C 
ATOM      8  C   UNL     1      60.830  63.316  70.181  0.00  0.00    +0.000 C 
ATOM      9  C   UNL     1      60.597  64.065  70.436  0.00  0.00    +0.000 C 
ATOM     10  N   UNL     1      60.292  64.716  70.033  0.00  0.00    +0.000 NA
ATOM     11  C   UNL     1      60.162  65.318  70.581  0.00  0.00    +0.000 C 
ATOM     12  N   UNL     1      59.860  66.068  70.416  0.00  0.00    +0.000 NA
ATOM     13  C   UNL     1      59.657  66.270  69.642  0.00  0.00    +0.000 C 
ATOM     14  O   UNL     1      59.756  65.721  69.034  0.00  0.00    +0.000 OA
ATOM     15  O   UNL     1      59.354  67.020  69.477  0.00  0.00    +0.000 OA
ATOM     16  C   UNL     1      59.151  67.221  68.704  0.00  0.00    +0.000 C 
ATOM     17  N   UNL     1      60.389  65.040  71.324  0.00  0.00    +0.000 NA
ATOM     18  C   UNL     1      60.658  64.265  71.234  0.00  0.00    +0.000 C 
ATOM     19  C   UNL     1      60.950  63.716  71.777  0.00  0.00    +0.000 C 
ENDROOT
TORSDOF 0
ENDMDL
