MODEL 1
REMARK VINA RESULT:   -13.411      0.000      0.000
REMARK INTER + INTRA:         -13.411
REMARK INTER:                 -13.411
REMARK INTRA:                   0.000
REMARK UNBOUND:                 0.000
ROOT
REMARK  Name = alfaxalone
REMARK                            x       y       z     vdW  Elec       q    Type
REMARK                         _______ _______ _______ _____ _____    ______ ____
ATOM      1  C   UNL     1      60.502  63.724  69.147  0.00  0.00    +0.000 C 
ATOM      2  C   UNL     1      60.920  63.525  68.464  0.00  0.00    +0.000 C 
ATOM      3  O   UNL     1      61.695  63.790  68.363  0.00  0.00    +0.000 OA
ATOM      4  C   UNL     1      60.564  63.061  67.883  0.00  0.00    +0.000 C 
ATOM      5  C   UNL     1      59.797  62.757  67.908  0.00  0.00    +0.000 C 
ATOM      6  C   UNL     1      59.671  62.327  67.214  0.00  0.00    +0.000 C 
ATOM      7  C   UNL     1      60.359  62.366  66.762  0.00  0.00    +0.000 C 
ATOM      8  C   UNL     1      60.555  62.047  66.027  0.00  0.00    +0.000 C 
ATOM      9  C   UNL     1      60.003  61.593  65.613  0.00  0.00    +0.000 C 
ATOM     10  C   UNL     1      60.199  61.274  64.878  0.00  0.00    +0.000 C 
ATOM     11  C   UNL     1      60.947  61.409  64.557  0.00  0.00    +0.000 C 
ATOM     12  C   UNL     1      61.142  61.089  63.821  0.00  0.00    +0.000 C 
ATOM     13  C   UNL     1      61.890  61.223  63.500  0.00  0.00    +0.000 C 
ATOM     14  O   UNL     1      62.086  60.904  62.765  0.00  0.00    +0.000 OA
ATOM     15  C   UNL     1      62.442  61.677  63.912  0.00  0.00    +0.000 C 
ATOM     16  C   UNL     1      62.246  61.996  64.647  0.00  0.00    +0.000 C 
ATOM     17  C   UNL     1      61.499  61.862  64.970  0.00  0.00    +0.000 C 
ATOM     18  C   UNL     1      62.051  62.315  65.383  0.00  0.00    +0.000 C 
ATOM     19  C   UNL     1      61.303  62.181  65.705  0.00  0.00    +0.000 C 
ATOM     20  C   UNL     1      61.855  62.634  66.118  0.00  0.00    +0.000 C 
ATOM     21  O   UNL     1      62.602  62.768  65.795  0.00  0.00    +0.000 OA
ATOM     22  C   UNL     1      61.659  62.953  66.853  0.00  0.00    +0.000 C 
ATOM     23  C   UNL     1      60.911  62.819  67.175  0.00  0.00    +0.000 C 
ATOM     24  C   UNL     1      61.403  63.281  67.650  0.00  0.00    +0.000 C 
ENDROOT
TORSDOF 0
ENDMDL
MODEL 2
REMARK VINA RESULT:   -13.018      0.713      3.776
REMARK INTER + INTRA:         -13.018
REMARK INTER:                 -13.018
REMARK INTRA:                   0.000
REMARK UNBOUND:                 0.000
ROOT
REMARK  Name = alfaxalone
REMARK                            x       y       z     vdW  Elec       q    Type
REMARK                         _______ _______ _______ _____ _____    ______ ____
ATOM      1  C   UNL     1      62.246  61.248  63.100  0.00  0.00    +0.000 C 
ATOM      2  C   UNL     1      62.255  61.625  63.834  0.00  0.00    +0.000 C 
ATOM      3  O   UNL     1      62.928  62.031  64.082  0.00  0.00    +0.000 OA
ATOM      4  C   UNL     1      61.589  61.595  64.319  0.00  0.00    +0.000 C 
ATOM      5  C   UNL     1      60.878  61.212  64.146  0.00  0.00    +0.000 C 
ATOM      6  C   UNL     1      60.367  61.324  64.784  0.00  0.00    +0.000 C 
ATOM      7  C   UNL     1      60.760  61.775  65.351  0.00  0.00    +0.000 C 
ATOM      8  C   UNL     1      60.529  62.056  66.091  0.00  0.00    +0.000 C 
ATOM      9  C   UNL     1      59.774  61.888  66.379  0.00  0.00    +0.000 C 
ATOM     10  C   UNL     1      59.542  62.169  67.119  0.00  0.00    +0.000 C 
ATOM     11  C   UNL     1      60.066  62.617  67.572  0.00  0.00    +0.000 C 
ATOM     12  C   UNL     1      59.834  62.897  68.313  0.00  0.00    +0.000 C 
ATOM     13  C   UNL     1      60.358  63.345  68.766  0.00  0.00    +0.000 C 
ATOM     14  O   UNL     1      60.126  63.625  69.507  0.00  0.00    +0.000 OA
ATOM     15  C   UNL     1      61.113  63.513  68.479  0.00  0.00    +0.000 C 
ATOM     16  C   UNL     1      61.344  63.232  67.739  0.00  0.00    +0.000 C 
ATOM     17  C   UNL     1      60.821  62.784  67.285  0.00  0.00    +0.000 C 
ATOM     18  C   UNL     1      61.576  62.952  66.999  0.00  0.00    +0.000 C 
ATOM     19  C   UNL     1      61.053  62.504  66.545  0.00  0.00    +0.000 C 
ATOM     20  C   UNL     1      61.808  62.672  66.258  0.00  0.00    +0.000 C 
ATOM     21  O   UNL     1      62.331  63.120  66.712  0.00  0.00    +0.000 OA
ATOM     22  C   UNL     1      62.039  62.391  65.518  0.00  0.00    +0.000 C 
ATOM     23  C   UNL     1      61.515  61.943  65.064  0.00  0.00    +0.000 C 
ATOM     24  C   UNL     1      62.249  62.066  64.706  0.00  0.00    +0.000 C 
ENDROOT
TORSDOF 0
ENDMDL
MODEL 3
REMARK VINA RESULT:   -12.189      2.070      5.170
REMARK INTER + INTRA:         -12.189
REMARK INTER:                 -12.189
REMARK INTRA:                   0.000
REMARK UNBOUND:                 0.000
ROOT
REMARK  Name = alfaxalone
REMARK                            x       y       z     vdW  Elec       q    Type
REMARK                         _______ _______ _______ _____ _____    ______ ____
ATOM      1  C   UNL     1      60.555  62.484  66.206  0.00  0.00    +0.000 C 
ATOM      2  C   UNL     1      60.836  62.793  66.917  0.00  0.00    +0.000 C 
ATOM      3  O   UNL     1      61.313  63.465  66.916  0.00  0.00    +0.000 OA
ATOM      4  C   UNL     1      60.639  62.429  67.630  0.00  0.00    +0.000 C 
ATOM      5  C   UNL     1      60.168  61.756  67.719  0.00  0.00    +0.000 C 
ATOM      6  C   UNL     1      60.116  61.585  68.524  0.00  0.00    +0.000 C 
ATOM      7  C   UNL     1      60.554  62.151  68.934  0.00  0.00    +0.000 C 
ATOM      8  C   UNL     1      60.700  62.259  69.738  0.00  0.00    +0.000 C 
ATOM      9  C   UNL     1      60.377  61.738  70.291  0.00  0.00    +0.000 C 
ATOM     10  C   UNL     1      60.524  61.847  71.095  0.00  0.00    +0.000 C 
ATOM     11  C   UNL     1      60.993  62.476  71.347  0.00  0.00    +0.000 C 
ATOM     12  C   UNL     1      61.139  62.584  72.153  0.00  0.00    +0.000 C 
ATOM     13  C   UNL     1      61.608  63.214  72.405  0.00  0.00    +0.000 C 
ATOM     14  O   UNL     1      61.754  63.323  73.209  0.00  0.00    +0.000 OA
ATOM     15  C   UNL     1      61.931  63.736  71.853  0.00  0.00    +0.000 C 
ATOM     16  C   UNL     1      61.784  63.627  71.049  0.00  0.00    +0.000 C 
ATOM     17  C   UNL     1      61.316  62.998  70.796  0.00  0.00    +0.000 C 
ATOM     18  C   UNL     1      61.639  63.520  70.244  0.00  0.00    +0.000 C 
ATOM     19  C   UNL     1      61.169  62.889  69.991  0.00  0.00    +0.000 C 
ATOM     20  C   UNL     1      61.492  63.411  69.440  0.00  0.00    +0.000 C 
ATOM     21  O   UNL     1      61.961  64.040  69.693  0.00  0.00    +0.000 OA
ATOM     22  C   UNL     1      61.346  63.302  68.635  0.00  0.00    +0.000 C 
ATOM     23  C   UNL     1      60.876  62.672  68.382  0.00  0.00    +0.000 C 
ATOM     24  C   UNL     1      61.161  63.147  67.769  0.00  0.00    +0.000 C 
ENDROOT
TORSDOF 0
ENDMDL
MODEL 4
REMARK VINA RESULT:   -12.083      5.684      6.928
REMARK INTER + INTRA:         -12.083
REMARK INTER:                 -12.083
REMARK INTRA:                   0.000
REMARK UNBOUND:                 0.000
ROOT
REMARK  Name = alfaxalone
REMARK                            x       y       z     vdW  Elec       q    Type
REMARK                         _______ _______ _______ _____ _____    ______ ____
ATOM      1  C   UNL     1      60.976  63.513  72.243  0.00  0.00    +0.000 C 
ATOM      2  C   UNL     1      61.528  64.126  72.219  0.00  0.00    +0.000 C 
ATOM      3  O   UNL     1      61.552  64.683  72.826  0.00  0.00    +0.000 OA
ATOM      4  C   UNL     1      62.056  64.181  71.588  0.00  0.00    +0.000 C 
ATOM      5  C   UNL     1      62.097  63.667  70.943  0.00  0.00    +0.000 C 
ATOM      6  C   UNL     1      62.702  63.928  70.447  0.00  0.00    +0.000 C 
ATOM      7  C   UNL     1      63.035  64.603  70.784  0.00  0.00    +0.000 C 
ATOM      8  C   UNL     1      63.649  65.096  70.540  0.00  0.00    +0.000 C 
ATOM      9  C   UNL     1      64.049  64.940  69.835  0.00  0.00    +0.000 C 
ATOM     10  C   UNL     1      64.664  65.433  69.591  0.00  0.00    +0.000 C 
ATOM     11  C   UNL     1      64.879  66.082  70.052  0.00  0.00    +0.000 C 
ATOM     12  C   UNL     1      65.495  66.575  69.808  0.00  0.00    +0.000 C 
ATOM     13  C   UNL     1      65.710  67.224  70.269  0.00  0.00    +0.000 C 
ATOM     14  O   UNL     1      66.324  67.717  70.025  0.00  0.00    +0.000 OA
ATOM     15  C   UNL     1      65.311  67.381  70.974  0.00  0.00    +0.000 C 
ATOM     16  C   UNL     1      64.696  66.888  71.218  0.00  0.00    +0.000 C 
ATOM     17  C   UNL     1      64.480  66.239  70.757  0.00  0.00    +0.000 C 
ATOM     18  C   UNL     1      64.081  66.395  71.462  0.00  0.00    +0.000 C 
ATOM     19  C   UNL     1      63.865  65.746  71.001  0.00  0.00    +0.000 C 
ATOM     20  C   UNL     1      63.466  65.902  71.706  0.00  0.00    +0.000 C 
ATOM     21  O   UNL     1      63.682  66.552  72.166  0.00  0.00    +0.000 OA
ATOM     22  C   UNL     1      62.851  65.409  71.949  0.00  0.00    +0.000 C 
ATOM     23  C   UNL     1      62.636  64.760  71.488  0.00  0.00    +0.000 C 
ATOM     24  C   UNL     1      62.188  64.847  72.177  0.00  0.00    +0.000 C 
ENDROOT
TORSDOF 0
ENDMDL
MODEL 5
REMARK VINA RESULT:   -11.959      5.677      7.204
REMARK INTER + INTRA:         -11.959
REMARK INTER:                 -11.959
REMARK INTRA:                   0.000
REMARK UNBOUND:                 0.000
ROOT
REMARK  Name = alfaxalone
REMARK                            x       y       z     vdW  Elec       q    Type
REMARK                         _______ _______ _______ _____ _____    ______ ____
ATOM      1  C   UNL     1      66.072  67.529  70.223  0.00  0.00    +0.000 C 
ATOM      2  C   UNL     1      65.446  67.252  70.681  0.00  0.00    +0.000 C 
ATOM      3  O   UNL     1      65.236  67.646  71.375  0.00  0.00    +0.000 OA
ATOM      4  C   UNL     1      65.029  66.580  70.447  0.00  0.00    +0.000 C 
ATOM      5  C   UNL     1      65.174  66.130  69.771  0.00  0.00    +0.000 C 
ATOM      6  C   UNL     1      64.627  65.512  69.753  0.00  0.00    +0.000 C 
ATOM      7  C   UNL     1      64.145  65.580  70.418  0.00  0.00    +0.000 C 
ATOM      8  C   UNL     1      63.511  65.126  70.689  0.00  0.00    +0.000 C 
ATOM      9  C   UNL     1      63.263  64.466  70.261  0.00  0.00    +0.000 C 
ATOM     10  C   UNL     1      62.630  64.012  70.532  0.00  0.00    +0.000 C 
ATOM     11  C   UNL     1      62.245  64.218  71.231  0.00  0.00    +0.000 C 
ATOM     12  C   UNL     1      61.611  63.763  71.502  0.00  0.00    +0.000 C 
ATOM     13  C   UNL     1      61.226  63.970  72.201  0.00  0.00    +0.000 C 
ATOM     14  O   UNL     1      60.593  63.516  72.472  0.00  0.00    +0.000 OA
ATOM     15  C   UNL     1      61.473  64.630  72.630  0.00  0.00    +0.000 C 
ATOM     16  C   UNL     1      62.106  65.084  72.359  0.00  0.00    +0.000 C 
ATOM     17  C   UNL     1      62.492  64.878  71.660  0.00  0.00    +0.000 C 
ATOM     18  C   UNL     1      62.740  65.538  72.089  0.00  0.00    +0.000 C 
ATOM     19  C   UNL     1      63.126  65.332  71.389  0.00  0.00    +0.000 C 
ATOM     20  C   UNL     1      63.373  65.992  71.818  0.00  0.00    +0.000 C 
ATOM     21  O   UNL     1      62.987  66.197  72.517  0.00  0.00    +0.000 OA
ATOM     22  C   UNL     1      64.006  66.446  71.547  0.00  0.00    +0.000 C 
ATOM     23  C   UNL     1      64.392  66.240  70.847  0.00  0.00    +0.000 C 
ATOM     24  C   UNL     1      64.700  66.911  71.215  0.00  0.00    +0.000 C 
ENDROOT
TORSDOF 0
ENDMDL
MODEL 6
REMARK VINA RESULT:   -11.675      4.729      6.293
REMARK INTER + INTRA:         -11.675
REMARK INTER:                 -11.675
REMARK INTRA:                   0.000
REMARK UNBOUND:                 0.000
ROOT
REMARK  Name = alfaxalone
REMARK                            x       y       z     vdW  Elec       q    Type
REMARK                         _______ _______ _______ _____ _____    ______ ____
ATOM      1  C   UNL     1      63.932  67.203  72.099  0.00  0.00    +0.000 C 
ATOM      2  C   UNL     1      63.654  66.528  71.714  0.00  0.00    +0.000 C 
ATOM      3  O   UNL     1      63.994  66.291  71.001  0.00  0.00    +0.000 OA
ATOM      4  C   UNL     1      63.037  66.091  72.042  0.00  0.00    +0.000 C 
ATOM      5  C   UNL     1      62.644  66.260  72.748  0.00  0.00    +0.000 C 
ATOM      6  C   UNL     1      62.067  65.681  72.864  0.00  0.00    +0.000 C 
ATOM      7  C   UNL     1      62.103  65.155  72.231  0.00  0.00    +0.000 C 
ATOM      8  C   UNL     1      61.668  64.478  72.050  0.00  0.00    +0.000 C 
ATOM      9  C   UNL     1      61.069  64.224  72.558  0.00  0.00    +0.000 C 
ATOM     10  C   UNL     1      60.634  63.547  72.378  0.00  0.00    +0.000 C 
ATOM     11  C   UNL     1      60.798  63.124  71.689  0.00  0.00    +0.000 C 
ATOM     12  C   UNL     1      60.362  62.446  71.509  0.00  0.00    +0.000 C 
ATOM     13  C   UNL     1      60.526  62.022  70.821  0.00  0.00    +0.000 C 
ATOM     14  O   UNL     1      60.091  61.345  70.640  0.00  0.00    +0.000 OA
ATOM     15  C   UNL     1      61.124  62.275  70.312  0.00  0.00    +0.000 C 
ATOM     16  C   UNL     1      61.559  62.952  70.493  0.00  0.00    +0.000 C 
ATOM     17  C   UNL     1      61.397  63.377  71.181  0.00  0.00    +0.000 C 
ATOM     18  C   UNL     1      61.995  63.629  70.673  0.00  0.00    +0.000 C 
ATOM     19  C   UNL     1      61.832  64.054  71.361  0.00  0.00    +0.000 C 
ATOM     20  C   UNL     1      62.430  64.306  70.853  0.00  0.00    +0.000 C 
ATOM     21  O   UNL     1      62.593  63.882  70.165  0.00  0.00    +0.000 OA
ATOM     22  C   UNL     1      62.865  64.984  71.033  0.00  0.00    +0.000 C 
ATOM     23  C   UNL     1      62.702  65.408  71.722  0.00  0.00    +0.000 C 
ATOM     24  C   UNL     1      63.314  65.726  71.269  0.00  0.00    +0.000 C 
ENDROOT
TORSDOF 0
ENDMDL
MODEL 7
REMARK VINA RESULT:   -11.483      5.140      6.318
REMARK INTER + INTRA:         -11.483
REMARK INTER:                 -11.483
REMARK INTRA:                   0.000
REMARK UNBOUND:                 0.000
ROOT
REMARK  Name = alfaxalone
REMARK                            x       y       z     vdW  Elec       q    Type
REMARK                         _______ _______ _______ _____ _____    ______ ____
ATOM      1  C   UNL     1      59.321  67.524  71.227  0.00  0.00    +0.000 C 
ATOM      2  C   UNL     1      59.505  66.749  71.013  0.00  0.00    +0.000 C 
ATOM      3  O   UNL     1      59.294  66.467  70.267  0.00  0.00    +0.000 OA
ATOM      4  C   UNL     1      59.898  66.257  71.544  0.00  0.00    +0.000 C 
ATOM      5  C   UNL     1      60.143  66.461  72.305  0.00  0.00    +0.000 C 
ATOM      6  C   UNL     1      60.513  65.804  72.639  0.00  0.00    +0.000 C 
ATOM      7  C   UNL     1      60.497  65.193  72.085  0.00  0.00    +0.000 C 
ATOM      8  C   UNL     1      60.780  64.419  72.109  0.00  0.00    +0.000 C 
ATOM      9  C   UNL     1      61.160  64.138  72.786  0.00  0.00    +0.000 C 
ATOM     10  C   UNL     1      61.442  63.363  72.810  0.00  0.00    +0.000 C 
ATOM     11  C   UNL     1      61.344  62.869  72.157  0.00  0.00    +0.000 C 
ATOM     12  C   UNL     1      61.627  62.094  72.181  0.00  0.00    +0.000 C 
ATOM     13  C   UNL     1      61.530  61.600  71.528  0.00  0.00    +0.000 C 
ATOM     14  O   UNL     1      61.812  60.825  71.552  0.00  0.00    +0.000 OA
ATOM     15  C   UNL     1      61.150  61.879  70.851  0.00  0.00    +0.000 C 
ATOM     16  C   UNL     1      60.868  62.654  70.827  0.00  0.00    +0.000 C 
ATOM     17  C   UNL     1      60.965  63.149  71.480  0.00  0.00    +0.000 C 
ATOM     18  C   UNL     1      60.585  63.429  70.803  0.00  0.00    +0.000 C 
ATOM     19  C   UNL     1      60.682  63.924  71.456  0.00  0.00    +0.000 C 
ATOM     20  C   UNL     1      60.303  64.203  70.779  0.00  0.00    +0.000 C 
ATOM     21  O   UNL     1      60.206  63.708  70.127  0.00  0.00    +0.000 OA
ATOM     22  C   UNL     1      60.021  64.978  70.755  0.00  0.00    +0.000 C 
ATOM     23  C   UNL     1      60.118  65.473  71.408  0.00  0.00    +0.000 C 
ATOM     24  C   UNL     1      59.729  65.828  70.773  0.00  0.00    +0.000 C 
ENDROOT
TORSDOF 0
ENDMDL
MODEL 8
REMARK VINA RESULT:   -10.982      1.586      4.757
REMARK INTER + INTRA:         -10.982
REMARK INTER:                 -10.982
REMARK INTRA:                   0.000
REMARK UNBOUND:                 0.000
ROOT
REMARK  Name = alfaxalone
REMARK                            x       y       z     vdW  Elec       q    Type
REMARK                         _______ _______ _______ _____ _____    ______ ____
ATOM      1  C   UNL     1      61.570  61.801  65.348  0.00  0.00    +0.000 C 
ATOM      2  C   UNL     1      61.429  61.727  66.157  0.00  0.00    +0.000 C 
ATOM      3  O   UNL     1      61.510  60.993  66.525  0.00  0.00    +0.000 OA
ATOM      4  C   UNL     1      61.207  62.387  66.598  0.00  0.00    +0.000 C 
ATOM      5  C   UNL     1      61.105  63.153  66.308  0.00  0.00    +0.000 C 
ATOM      6  C   UNL     1      60.883  63.637  66.939  0.00  0.00    +0.000 C 
ATOM      7  C   UNL     1      60.848  63.171  67.618  0.00  0.00    +0.000 C 
ATOM      8  C   UNL     1      60.660  63.349  68.401  0.00  0.00    +0.000 C 
ATOM      9  C   UNL     1      60.459  64.122  68.612  0.00  0.00    +0.000 C 
ATOM     10  C   UNL     1      60.271  64.300  69.395  0.00  0.00    +0.000 C 
ATOM     11  C   UNL     1      60.283  63.706  69.967  0.00  0.00    +0.000 C 
ATOM     12  C   UNL     1      60.095  63.886  70.751  0.00  0.00    +0.000 C 
ATOM     13  C   UNL     1      60.107  63.292  71.323  0.00  0.00    +0.000 C 
ATOM     14  O   UNL     1      59.919  63.471  72.106  0.00  0.00    +0.000 OA
ATOM     15  C   UNL     1      60.307  62.520  71.113  0.00  0.00    +0.000 C 
ATOM     16  C   UNL     1      60.496  62.341  70.330  0.00  0.00    +0.000 C 
ATOM     17  C   UNL     1      60.484  62.934  69.757  0.00  0.00    +0.000 C 
ATOM     18  C   UNL     1      60.684  62.162  69.547  0.00  0.00    +0.000 C 
ATOM     19  C   UNL     1      60.672  62.756  68.974  0.00  0.00    +0.000 C 
ATOM     20  C   UNL     1      60.872  61.983  68.764  0.00  0.00    +0.000 C 
ATOM     21  O   UNL     1      60.884  61.391  69.337  0.00  0.00    +0.000 OA
ATOM     22  C   UNL     1      61.060  61.805  67.981  0.00  0.00    +0.000 C 
ATOM     23  C   UNL     1      61.048  62.399  67.408  0.00  0.00    +0.000 C 
ATOM     24  C   UNL     1      61.258  61.655  67.117  0.00  0.00    +0.000 C 
ENDROOT
TORSDOF 0
ENDMDL
MODEL 9
REMARK VINA RESULT:   -10.609      6.275      7.480
REMARK INTER + INTRA:         -10.609
REMARK INTER:                 -10.609
REMARK INTRA:                   0.000
REMARK UNBOUND:                 0.000
ROOT
REMARK  Name = alfaxalone
REMARK                            x       y       z     vdW  Elec       q    Type
REMARK                         _______ _______ _______ _____ _____    ______ ____
ATOM      1  C   UNL     1      65.152  66.141  71.278  0.00  0.00    +0.000 C 
ATOM      2  C   UNL     1      64.420  65.762  71.255  0.00  0.00    +0.000 C 
ATOM      3  O   UNL     1      64.327  65.070  70.815  0.00  0.00    +0.000 OA
ATOM      4  C   UNL     1      63.781  66.074  71.672  0.00  0.00    +0.000 C 
ATOM      5  C   UNL     1      63.790  66.758  72.134  0.00  0.00    +0.000 C 
ATOM      6  C   UNL     1      63.035  66.864  72.449  0.00  0.00    +0.000 C 
ATOM      7  C   UNL     1      62.559  66.246  72.182  0.00  0.00    +0.000 C 
ATOM      8  C   UNL     1      61.765  66.064  72.314  0.00  0.00    +0.000 C 
ATOM      9  C   UNL     1      61.303  66.552  72.794  0.00  0.00    +0.000 C 
ATOM     10  C   UNL     1      60.510  66.370  72.925  0.00  0.00    +0.000 C 
ATOM     11  C   UNL     1      60.177  65.701  72.577  0.00  0.00    +0.000 C 
ATOM     12  C   UNL     1      59.382  65.519  72.709  0.00  0.00    +0.000 C 
ATOM     13  C   UNL     1      59.050  64.850  72.361  0.00  0.00    +0.000 C 
ATOM     14  O   UNL     1      58.256  64.668  72.493  0.00  0.00    +0.000 OA
ATOM     15  C   UNL     1      59.511  64.361  71.882  0.00  0.00    +0.000 C 
ATOM     16  C   UNL     1      60.304  64.543  71.750  0.00  0.00    +0.000 C 
ATOM     17  C   UNL     1      60.638  65.212  72.097  0.00  0.00    +0.000 C 
ATOM     18  C   UNL     1      61.098  64.724  71.618  0.00  0.00    +0.000 C 
ATOM     19  C   UNL     1      61.432  65.394  71.966  0.00  0.00    +0.000 C 
ATOM     20  C   UNL     1      61.892  64.906  71.486  0.00  0.00    +0.000 C 
ATOM     21  O   UNL     1      61.559  64.237  71.139  0.00  0.00    +0.000 OA
ATOM     22  C   UNL     1      62.686  65.088  71.354  0.00  0.00    +0.000 C 
ATOM     23  C   UNL     1      63.019  65.758  71.703  0.00  0.00    +0.000 C 
ATOM     24  C   UNL     1      63.546  65.323  71.238  0.00  0.00    +0.000 C 
ENDROOT
TORSDOF 0
ENDMDL
