MODEL 1
REMARK VINA RESULT:   -15.193      0.000      0.000
REMARK INTER + INTRA:         -15.193
REMARK INTER:                 -15.193
REMARK INTRA:                   0.000
REMARK UNBOUND:                 0.000
ROOT
REMARK  Name = alfacalcidol
REMARK                            x       y       z     vdW  Elec       q    Type
REMARK                         _______ _______ _______ _____ _____    ______ ____
ATOM      1  C   UNL     1      62.750  66.065  72.541  0.00  0.00    +0.000 C 
ATOM      2  C   UNL     1      62.260  65.474  72.239  0.00  0.00    +0.000 C 
ATOM      3  C   UNL     1      61.692  65.122  72.723  0.00  0.00    +0.000 C 
ATOM      4  C   UNL     1      62.337  65.236  71.453  0.00  0.00    +0.000 C 
ATOM      5  C   UNL     1      61.846  64.645  71.151  0.00  0.00    +0.000 C 
ATOM      6  C   UNL     1      61.924  64.407  70.365  0.00  0.00    +0.000 C 
ATOM      7  C   UNL     1      61.433  63.816  70.063  0.00  0.00    +0.000 C 
ATOM      8  C   UNL     1      60.866  63.464  70.547  0.00  0.00    +0.000 C 
ATOM      9  C   UNL     1      61.511  63.578  69.277  0.00  0.00    +0.000 C 
ATOM     10  C   UNL     1      62.050  63.878  68.730  0.00  0.00    +0.000 C 
ATOM     11  C   UNL     1      61.935  63.483  68.014  0.00  0.00    +0.000 C 
ATOM     12  C   UNL     1      61.324  62.939  68.120  0.00  0.00    +0.000 C 
ATOM     13  C   UNL     1      60.973  62.397  67.606  0.00  0.00    +0.000 C 
ATOM     14  C   UNL     1      60.359  61.914  67.873  0.00  0.00    +0.000 C 
ATOM     15  C   UNL     1      60.097  61.972  68.653  0.00  0.00    +0.000 C 
ATOM     16  C   UNL     1      60.449  62.514  69.166  0.00  0.00    +0.000 C 
ATOM     17  C   UNL     1      61.062  62.997  68.900  0.00  0.00    +0.000 C 
ATOM     18  C   UNL     1      60.859  63.117  69.691  0.00  0.00    +0.000 C 
ATOM     19  C   UNL     1      61.235  62.339  66.826  0.00  0.00    +0.000 C 
ATOM     20  C   UNL     1      60.883  61.797  66.313  0.00  0.00    +0.000 C 
ATOM     21  C   UNL     1      61.145  61.739  65.533  0.00  0.00    +0.000 C 
ATOM     22  C   UNL     1      60.794  61.198  65.019  0.00  0.00    +0.000 C 
ATOM     23  C   UNL     1      61.056  61.139  64.239  0.00  0.00    +0.000 C 
ATOM     24  O   UNL     1      60.705  60.598  63.725  0.00  0.00    +0.000 OA
ATOM     25  C   UNL     1      61.670  61.623  63.972  0.00  0.00    +0.000 C 
ATOM     26  C   UNL     1      62.021  62.164  64.486  0.00  0.00    +0.000 C 
ATOM     27  O   UNL     1      62.634  62.647  64.220  0.00  0.00    +0.000 OA
ATOM     28  C   UNL     1      61.759  62.222  65.266  0.00  0.00    +0.000 C 
ATOM     29  C   UNL     1      62.110  62.764  65.780  0.00  0.00    +0.000 C 
ENDROOT
TORSDOF 0
ENDMDL
MODEL 2
REMARK VINA RESULT:   -14.925      2.871      6.078
REMARK INTER + INTRA:         -14.925
REMARK INTER:                 -14.925
REMARK INTRA:                   0.000
REMARK UNBOUND:                 0.000
ROOT
REMARK  Name = alfacalcidol
REMARK                            x       y       z     vdW  Elec       q    Type
REMARK                         _______ _______ _______ _____ _____    ______ ____
ATOM      1  C   UNL     1      62.373  62.242  63.850  0.00  0.00    +0.000 C 
ATOM      2  C   UNL     1      62.160  61.975  64.601  0.00  0.00    +0.000 C 
ATOM      3  C   UNL     1      62.206  61.172  64.783  0.00  0.00    +0.000 C 
ATOM      4  C   UNL     1      61.900  62.513  65.171  0.00  0.00    +0.000 C 
ATOM      5  C   UNL     1      61.687  62.247  65.922  0.00  0.00    +0.000 C 
ATOM      6  C   UNL     1      61.427  62.784  66.491  0.00  0.00    +0.000 C 
ATOM      7  C   UNL     1      61.214  62.518  67.242  0.00  0.00    +0.000 C 
ATOM      8  C   UNL     1      61.260  61.715  67.424  0.00  0.00    +0.000 C 
ATOM      9  C   UNL     1      60.954  63.056  67.811  0.00  0.00    +0.000 C 
ATOM     10  C   UNL     1      60.879  63.871  67.711  0.00  0.00    +0.000 C 
ATOM     11  C   UNL     1      60.603  64.192  68.419  0.00  0.00    +0.000 C 
ATOM     12  C   UNL     1      60.507  63.574  68.958  0.00  0.00    +0.000 C 
ATOM     13  C   UNL     1      60.249  63.561  69.741  0.00  0.00    +0.000 C 
ATOM     14  C   UNL     1      60.209  62.844  70.150  0.00  0.00    +0.000 C 
ATOM     15  C   UNL     1      60.426  62.143  69.775  0.00  0.00    +0.000 C 
ATOM     16  C   UNL     1      60.684  62.157  68.991  0.00  0.00    +0.000 C 
ATOM     17  C   UNL     1      60.724  62.872  68.582  0.00  0.00    +0.000 C 
ATOM     18  C   UNL     1      60.958  62.218  68.137  0.00  0.00    +0.000 C 
ATOM     19  C   UNL     1      60.032  64.262  70.116  0.00  0.00    +0.000 C 
ATOM     20  C   UNL     1      59.775  64.248  70.900  0.00  0.00    +0.000 C 
ATOM     21  C   UNL     1      59.557  64.950  71.275  0.00  0.00    +0.000 C 
ATOM     22  C   UNL     1      59.300  64.937  72.059  0.00  0.00    +0.000 C 
ATOM     23  C   UNL     1      59.083  65.638  72.434  0.00  0.00    +0.000 C 
ATOM     24  O   UNL     1      58.825  65.625  73.218  0.00  0.00    +0.000 OA
ATOM     25  C   UNL     1      59.123  66.354  72.026  0.00  0.00    +0.000 C 
ATOM     26  C   UNL     1      59.380  66.368  71.242  0.00  0.00    +0.000 C 
ATOM     27  O   UNL     1      59.421  67.084  70.833  0.00  0.00    +0.000 OA
ATOM     28  C   UNL     1      59.598  65.666  70.867  0.00  0.00    +0.000 C 
ATOM     29  C   UNL     1      59.855  65.680  70.083  0.00  0.00    +0.000 C 
ENDROOT
TORSDOF 0
ENDMDL
MODEL 3
REMARK VINA RESULT:   -13.966      2.900      6.108
REMARK INTER + INTRA:         -13.966
REMARK INTER:                 -13.966
REMARK INTRA:                   0.000
REMARK UNBOUND:                 0.000
ROOT
REMARK  Name = alfacalcidol
REMARK                            x       y       z     vdW  Elec       q    Type
REMARK                         _______ _______ _______ _____ _____    ______ ____
ATOM      1  C   UNL     1      59.354  62.044  65.836  0.00  0.00    +0.000 C 
ATOM      2  C   UNL     1      59.562  62.098  66.632  0.00  0.00    +0.000 C 
ATOM      3  C   UNL     1      59.161  61.649  67.196  0.00  0.00    +0.000 C 
ATOM      4  C   UNL     1      60.173  62.603  66.865  0.00  0.00    +0.000 C 
ATOM      5  C   UNL     1      60.381  62.658  67.661  0.00  0.00    +0.000 C 
ATOM      6  C   UNL     1      60.991  63.162  67.893  0.00  0.00    +0.000 C 
ATOM      7  C   UNL     1      61.200  63.218  68.689  0.00  0.00    +0.000 C 
ATOM      8  C   UNL     1      60.799  62.768  69.253  0.00  0.00    +0.000 C 
ATOM      9  C   UNL     1      61.810  63.722  68.921  0.00  0.00    +0.000 C 
ATOM     10  C   UNL     1      62.259  64.203  68.423  0.00  0.00    +0.000 C 
ATOM     11  C   UNL     1      62.805  64.613  68.887  0.00  0.00    +0.000 C 
ATOM     12  C   UNL     1      62.694  64.384  69.672  0.00  0.00    +0.000 C 
ATOM     13  C   UNL     1      63.073  64.607  70.370  0.00  0.00    +0.000 C 
ATOM     14  C   UNL     1      62.838  64.280  71.090  0.00  0.00    +0.000 C 
ATOM     15  C   UNL     1      62.223  63.730  71.111  0.00  0.00    +0.000 C 
ATOM     16  C   UNL     1      61.844  63.507  70.413  0.00  0.00    +0.000 C 
ATOM     17  C   UNL     1      62.079  63.834  69.693  0.00  0.00    +0.000 C 
ATOM     18  C   UNL     1      61.459  63.294  69.629  0.00  0.00    +0.000 C 
ATOM     19  C   UNL     1      63.687  65.157  70.348  0.00  0.00    +0.000 C 
ATOM     20  C   UNL     1      64.066  65.380  71.046  0.00  0.00    +0.000 C 
ATOM     21  C   UNL     1      64.681  65.930  71.025  0.00  0.00    +0.000 C 
ATOM     22  C   UNL     1      65.060  66.153  71.722  0.00  0.00    +0.000 C 
ATOM     23  C   UNL     1      65.675  66.703  71.701  0.00  0.00    +0.000 C 
ATOM     24  O   UNL     1      66.054  66.926  72.399  0.00  0.00    +0.000 OA
ATOM     25  C   UNL     1      65.910  67.030  70.981  0.00  0.00    +0.000 C 
ATOM     26  C   UNL     1      65.531  66.807  70.283  0.00  0.00    +0.000 C 
ATOM     27  O   UNL     1      65.766  67.135  69.563  0.00  0.00    +0.000 OA
ATOM     28  C   UNL     1      64.916  66.257  70.305  0.00  0.00    +0.000 C 
ATOM     29  C   UNL     1      64.537  66.035  69.606  0.00  0.00    +0.000 C 
ENDROOT
TORSDOF 0
ENDMDL
MODEL 4
REMARK VINA RESULT:   -13.911      1.608      1.990
REMARK INTER + INTRA:         -13.911
REMARK INTER:                 -13.911
REMARK INTRA:                   0.000
REMARK UNBOUND:                 0.000
ROOT
REMARK  Name = alfacalcidol
REMARK                            x       y       z     vdW  Elec       q    Type
REMARK                         _______ _______ _______ _____ _____    ______ ____
ATOM      1  C   UNL     1      58.788  67.294  72.729  0.00  0.00    +0.000 C 
ATOM      2  C   UNL     1      58.970  66.500  72.603  0.00  0.00    +0.000 C 
ATOM      3  C   UNL     1      58.900  65.957  73.221  0.00  0.00    +0.000 C 
ATOM      4  C   UNL     1      59.222  66.247  71.859  0.00  0.00    +0.000 C 
ATOM      5  C   UNL     1      59.405  65.453  71.733  0.00  0.00    +0.000 C 
ATOM      6  C   UNL     1      59.657  65.201  70.989  0.00  0.00    +0.000 C 
ATOM      7  C   UNL     1      59.839  64.406  70.863  0.00  0.00    +0.000 C 
ATOM      8  C   UNL     1      59.770  63.863  71.481  0.00  0.00    +0.000 C 
ATOM      9  C   UNL     1      60.091  64.154  70.119  0.00  0.00    +0.000 C 
ATOM     10  C   UNL     1      60.187  64.630  69.452  0.00  0.00    +0.000 C 
ATOM     11  C   UNL     1      60.447  64.152  68.832  0.00  0.00    +0.000 C 
ATOM     12  C   UNL     1      60.512  63.380  69.116  0.00  0.00    +0.000 C 
ATOM     13  C   UNL     1      60.743  62.676  68.753  0.00  0.00    +0.000 C 
ATOM     14  C   UNL     1      60.754  61.973  69.186  0.00  0.00    +0.000 C 
ATOM     15  C   UNL     1      60.535  61.975  69.981  0.00  0.00    +0.000 C 
ATOM     16  C   UNL     1      60.304  62.679  70.343  0.00  0.00    +0.000 C 
ATOM     17  C   UNL     1      60.292  63.381  69.912  0.00  0.00    +0.000 C 
ATOM     18  C   UNL     1      60.059  63.467  70.698  0.00  0.00    +0.000 C 
ATOM     19  C   UNL     1      60.963  62.675  67.958  0.00  0.00    +0.000 C 
ATOM     20  C   UNL     1      61.194  61.970  67.595  0.00  0.00    +0.000 C 
ATOM     21  C   UNL     1      61.413  61.969  66.800  0.00  0.00    +0.000 C 
ATOM     22  C   UNL     1      61.644  61.265  66.437  0.00  0.00    +0.000 C 
ATOM     23  C   UNL     1      61.864  61.264  65.642  0.00  0.00    +0.000 C 
ATOM     24  O   UNL     1      62.095  60.560  65.278  0.00  0.00    +0.000 OA
ATOM     25  C   UNL     1      61.853  61.967  65.209  0.00  0.00    +0.000 C 
ATOM     26  C   UNL     1      61.622  62.671  65.572  0.00  0.00    +0.000 C 
ATOM     27  O   UNL     1      61.610  63.373  65.140  0.00  0.00    +0.000 OA
ATOM     28  C   UNL     1      61.402  62.672  66.368  0.00  0.00    +0.000 C 
ATOM     29  C   UNL     1      61.171  63.376  66.730  0.00  0.00    +0.000 C 
ENDROOT
TORSDOF 0
ENDMDL
MODEL 5
REMARK VINA RESULT:   -13.528      1.646      2.601
REMARK INTER + INTRA:         -13.528
REMARK INTER:                 -13.528
REMARK INTRA:                   0.000
REMARK UNBOUND:                 0.000
ROOT
REMARK  Name = alfacalcidol
REMARK                            x       y       z     vdW  Elec       q    Type
REMARK                         _______ _______ _______ _____ _____    ______ ____
ATOM      1  C   UNL     1      66.330  66.891  71.647  0.00  0.00    +0.000 C 
ATOM      2  C   UNL     1      65.548  66.636  71.717  0.00  0.00    +0.000 C 
ATOM      3  C   UNL     1      65.122  66.795  72.405  0.00  0.00    +0.000 C 
ATOM      4  C   UNL     1      65.193  66.221  71.098  0.00  0.00    +0.000 C 
ATOM      5  C   UNL     1      64.412  65.966  71.168  0.00  0.00    +0.000 C 
ATOM      6  C   UNL     1      64.057  65.552  70.549  0.00  0.00    +0.000 C 
ATOM      7  C   UNL     1      63.275  65.296  70.618  0.00  0.00    +0.000 C 
ATOM      8  C   UNL     1      62.849  65.455  71.307  0.00  0.00    +0.000 C 
ATOM      9  C   UNL     1      62.921  64.882  69.999  0.00  0.00    +0.000 C 
ATOM     10  C   UNL     1      63.275  64.683  69.282  0.00  0.00    +0.000 C 
ATOM     11  C   UNL     1      62.722  64.272  68.828  0.00  0.00    +0.000 C 
ATOM     12  C   UNL     1      62.025  64.216  69.266  0.00  0.00    +0.000 C 
ATOM     13  C   UNL     1      61.295  63.871  69.099  0.00  0.00    +0.000 C 
ATOM     14  C   UNL     1      60.687  63.903  69.656  0.00  0.00    +0.000 C 
ATOM     15  C   UNL     1      60.809  64.280  70.379  0.00  0.00    +0.000 C 
ATOM     16  C   UNL     1      61.540  64.625  70.546  0.00  0.00    +0.000 C 
ATOM     17  C   UNL     1      62.148  64.593  69.990  0.00  0.00    +0.000 C 
ATOM     18  C   UNL     1      62.350  64.987  70.686  0.00  0.00    +0.000 C 
ATOM     19  C   UNL     1      61.173  63.494  68.375  0.00  0.00    +0.000 C 
ATOM     20  C   UNL     1      60.442  63.149  68.209  0.00  0.00    +0.000 C 
ATOM     21  C   UNL     1      60.320  62.772  67.485  0.00  0.00    +0.000 C 
ATOM     22  C   UNL     1      59.590  62.427  67.318  0.00  0.00    +0.000 C 
ATOM     23  C   UNL     1      59.467  62.050  66.594  0.00  0.00    +0.000 C 
ATOM     24  O   UNL     1      58.737  61.705  66.427  0.00  0.00    +0.000 OA
ATOM     25  C   UNL     1      60.076  62.019  66.037  0.00  0.00    +0.000 C 
ATOM     26  C   UNL     1      60.806  62.364  66.205  0.00  0.00    +0.000 C 
ATOM     27  O   UNL     1      61.414  62.332  65.648  0.00  0.00    +0.000 OA
ATOM     28  C   UNL     1      60.928  62.741  66.928  0.00  0.00    +0.000 C 
ATOM     29  C   UNL     1      61.659  63.086  67.095  0.00  0.00    +0.000 C 
ENDROOT
TORSDOF 0
ENDMDL
MODEL 6
REMARK VINA RESULT:   -12.286      2.955      4.913
REMARK INTER + INTRA:         -12.286
REMARK INTER:                 -12.286
REMARK INTRA:                   0.000
REMARK UNBOUND:                 0.000
ROOT
REMARK  Name = alfacalcidol
REMARK                            x       y       z     vdW  Elec       q    Type
REMARK                         _______ _______ _______ _____ _____    ______ ____
ATOM      1  C   UNL     1      67.106  68.378  69.206  0.00  0.00    +0.000 C 
ATOM      2  C   UNL     1      66.619  68.082  69.802  0.00  0.00    +0.000 C 
ATOM      3  C   UNL     1      66.668  68.388  70.567  0.00  0.00    +0.000 C 
ATOM      4  C   UNL     1      66.081  67.478  69.633  0.00  0.00    +0.000 C 
ATOM      5  C   UNL     1      65.594  67.181  70.229  0.00  0.00    +0.000 C 
ATOM      6  C   UNL     1      65.058  66.578  70.060  0.00  0.00    +0.000 C 
ATOM      7  C   UNL     1      64.570  66.281  70.656  0.00  0.00    +0.000 C 
ATOM      8  C   UNL     1      64.619  66.588  71.421  0.00  0.00    +0.000 C 
ATOM      9  C   UNL     1      64.033  65.678  70.487  0.00  0.00    +0.000 C 
ATOM     10  C   UNL     1      63.922  65.319  69.753  0.00  0.00    +0.000 C 
ATOM     11  C   UNL     1      63.333  64.746  69.835  0.00  0.00    +0.000 C 
ATOM     12  C   UNL     1      63.080  64.752  70.620  0.00  0.00    +0.000 C 
ATOM     13  C   UNL     1      62.512  64.308  71.020  0.00  0.00    +0.000 C 
ATOM     14  C   UNL     1      62.376  64.438  71.823  0.00  0.00    +0.000 C 
ATOM     15  C   UNL     1      62.809  65.014  72.226  0.00  0.00    +0.000 C 
ATOM     16  C   UNL     1      63.377  65.458  71.826  0.00  0.00    +0.000 C 
ATOM     17  C   UNL     1      63.513  65.328  71.023  0.00  0.00    +0.000 C 
ATOM     18  C   UNL     1      63.985  65.919  71.352  0.00  0.00    +0.000 C 
ATOM     19  C   UNL     1      62.080  63.732  70.617  0.00  0.00    +0.000 C 
ATOM     20  C   UNL     1      61.512  63.288  71.017  0.00  0.00    +0.000 C 
ATOM     21  C   UNL     1      61.079  62.712  70.614  0.00  0.00    +0.000 C 
ATOM     22  C   UNL     1      60.511  62.267  71.014  0.00  0.00    +0.000 C 
ATOM     23  C   UNL     1      60.079  61.692  70.610  0.00  0.00    +0.000 C 
ATOM     24  O   UNL     1      59.510  61.247  71.010  0.00  0.00    +0.000 OA
ATOM     25  C   UNL     1      60.214  61.561  69.807  0.00  0.00    +0.000 C 
ATOM     26  C   UNL     1      60.783  62.006  69.407  0.00  0.00    +0.000 C 
ATOM     27  O   UNL     1      60.919  61.875  68.604  0.00  0.00    +0.000 OA
ATOM     28  C   UNL     1      61.215  62.581  69.810  0.00  0.00    +0.000 C 
ATOM     29  C   UNL     1      61.783  63.026  69.410  0.00  0.00    +0.000 C 
ENDROOT
TORSDOF 0
ENDMDL
