MODEL 1
REMARK VINA RESULT:    -5.840      0.000      0.000
REMARK INTER + INTRA:          -5.840
REMARK INTER:                  -5.840
REMARK INTRA:                   0.000
REMARK UNBOUND:                 0.000
ROOT
REMARK  Name = allantoin
REMARK                            x       y       z     vdW  Elec       q    Type
REMARK                         _______ _______ _______ _____ _____    ______ ____
ATOM      1  N   UNL     1      61.133  63.116  67.182  0.00  0.00    +0.000 NA
ATOM      2  C   UNL     1      61.144  62.684  66.479  0.00  0.00    +0.000 C 
ATOM      3  O   UNL     1      60.516  62.183  66.292  0.00  0.00    +0.000 OA
ATOM      4  N   UNL     1      61.784  62.753  65.962  0.00  0.00    +0.000 NA
ATOM      5  C   UNL     1      61.795  62.321  65.259  0.00  0.00    +0.000 C 
ATOM      6  N   UNL     1      62.394  62.333  64.692  0.00  0.00    +0.000 NA
ATOM      7  C   UNL     1      62.178  61.821  64.083  0.00  0.00    +0.000 C 
ATOM      8  O   UNL     1      62.618  61.665  63.402  0.00  0.00    +0.000 OA
ATOM      9  N   UNL     1      61.446  61.492  64.273  0.00  0.00    +0.000 NA
ATOM     10  C   UNL     1      61.209  61.801  65.000  0.00  0.00    +0.000 C 
ATOM     11  O   UNL     1      60.510  61.622  65.398  0.00  0.00    +0.000 OA
ENDROOT
TORSDOF 0
ENDMDL
MODEL 2
REMARK VINA RESULT:    -5.803      0.892      2.485
REMARK INTER + INTRA:          -5.803
REMARK INTER:                  -5.803
REMARK INTRA:                   0.000
REMARK UNBOUND:                 0.000
ROOT
REMARK  Name = allantoin
REMARK                            x       y       z     vdW  Elec       q    Type
REMARK                         _______ _______ _______ _____ _____    ______ ____
ATOM      1  N   UNL     1      62.561  61.597  63.376  0.00  0.00    +0.000 NA
ATOM      2  C   UNL     1      62.083  61.702  64.040  0.00  0.00    +0.000 C 
ATOM      3  O   UNL     1      61.334  61.357  64.069  0.00  0.00    +0.000 OA
ATOM      4  N   UNL     1      62.353  62.153  64.677  0.00  0.00    +0.000 NA
ATOM      5  C   UNL     1      61.875  62.258  65.341  0.00  0.00    +0.000 C 
ATOM      6  N   UNL     1      62.070  62.691  66.015  0.00  0.00    +0.000 NA
ATOM      7  C   UNL     1      61.433  62.649  66.537  0.00  0.00    +0.000 C 
ATOM      8  O   UNL     1      61.392  63.005  67.281  0.00  0.00    +0.000 OA
ATOM      9  N   UNL     1      60.845  62.190  66.186  0.00  0.00    +0.000 NA
ATOM     10  C   UNL     1      61.117  61.948  65.447  0.00  0.00    +0.000 C 
ATOM     11  O   UNL     1      60.706  61.479  64.908  0.00  0.00    +0.000 OA
ENDROOT
TORSDOF 0
ENDMDL
MODEL 3
REMARK VINA RESULT:    -5.461      1.111      1.245
REMARK INTER + INTRA:          -5.461
REMARK INTER:                  -5.461
REMARK INTRA:                   0.000
REMARK UNBOUND:                 0.000
ROOT
REMARK  Name = allantoin
REMARK                            x       y       z     vdW  Elec       q    Type
REMARK                         _______ _______ _______ _____ _____    ______ ____
ATOM      1  N   UNL     1      60.376  63.243  67.893  0.00  0.00    +0.000 NA
ATOM      2  C   UNL     1      60.826  62.803  67.359  0.00  0.00    +0.000 C 
ATOM      3  O   UNL     1      61.045  62.029  67.542  0.00  0.00    +0.000 OA
ATOM      4  N   UNL     1      61.057  63.137  66.640  0.00  0.00    +0.000 NA
ATOM      5  C   UNL     1      61.507  62.697  66.106  0.00  0.00    +0.000 C 
ATOM      6  N   UNL     1      61.777  62.956  65.371  0.00  0.00    +0.000 NA
ATOM      7  C   UNL     1      62.202  62.341  65.025  0.00  0.00    +0.000 C 
ATOM      8  O   UNL     1      62.570  62.361  64.286  0.00  0.00    +0.000 OA
ATOM      9  N   UNL     1      62.194  61.701  65.545  0.00  0.00    +0.000 NA
ATOM     10  C   UNL     1      61.765  61.921  66.214  0.00  0.00    +0.000 C 
ATOM     11  O   UNL     1      61.619  61.449  66.874  0.00  0.00    +0.000 OA
ENDROOT
TORSDOF 0
ENDMDL
MODEL 4
REMARK VINA RESULT:    -4.905     24.268     25.032
REMARK INTER + INTRA:          -4.905
REMARK INTER:                  -4.905
REMARK INTRA:                   0.000
REMARK UNBOUND:                 0.000
ROOT
REMARK  Name = allantoin
REMARK                            x       y       z     vdW  Elec       q    Type
REMARK                         _______ _______ _______ _____ _____    ______ ____
ATOM      1  N   UNL     1      69.572  79.984  50.935  0.00  0.00    +0.000 NA
ATOM      2  C   UNL     1      70.003  79.548  50.383  0.00  0.00    +0.000 C 
ATOM      3  O   UNL     1      69.709  78.831  50.102  0.00  0.00    +0.000 OA
ATOM      4  N   UNL     1      70.730  79.831  50.110  0.00  0.00    +0.000 NA
ATOM      5  C   UNL     1      71.161  79.395  49.558  0.00  0.00    +0.000 C 
ATOM      6  N   UNL     1      71.891  79.606  49.237  0.00  0.00    +0.000 NA
ATOM      7  C   UNL     1      72.119  79.014  48.711  0.00  0.00    +0.000 C 
ATOM      8  O   UNL     1      72.814  79.001  48.267  0.00  0.00    +0.000 OA
ATOM      9  N   UNL     1      71.530  78.436  48.707  0.00  0.00    +0.000 NA
ATOM     10  C   UNL     1      70.938  78.672  49.230  0.00  0.00    +0.000 C 
ATOM     11  O   UNL     1      70.244  78.257  49.396  0.00  0.00    +0.000 OA
ENDROOT
TORSDOF 0
ENDMDL
MODEL 5
REMARK VINA RESULT:    -4.859     24.181     25.091
REMARK INTER + INTRA:          -4.859
REMARK INTER:                  -4.859
REMARK INTRA:                   0.000
REMARK UNBOUND:                 0.000
ROOT
REMARK  Name = allantoin
REMARK                            x       y       z     vdW  Elec       q    Type
REMARK                         _______ _______ _______ _____ _____    ______ ____
ATOM      1  N   UNL     1      72.859  79.290  48.580  0.00  0.00    +0.000 NA
ATOM      2  C   UNL     1      72.112  79.102  48.875  0.00  0.00    +0.000 C 
ATOM      3  O   UNL     1      71.730  78.414  48.627  0.00  0.00    +0.000 OA
ATOM      4  N   UNL     1      71.745  79.604  49.418  0.00  0.00    +0.000 NA
ATOM      5  C   UNL     1      70.997  79.417  49.714  0.00  0.00    +0.000 C 
ATOM      6  N   UNL     1      70.565  79.862  50.256  0.00  0.00    +0.000 NA
ATOM      7  C   UNL     1      69.852  79.472  50.396  0.00  0.00    +0.000 C 
ATOM      8  O   UNL     1      69.252  79.724  50.903  0.00  0.00    +0.000 OA
ATOM      9  N   UNL     1      69.844  78.785  49.939  0.00  0.00    +0.000 NA
ATOM     10  C   UNL     1      70.551  78.750  49.517  0.00  0.00    +0.000 C 
ATOM     11  O   UNL     1      70.775  78.155  48.992  0.00  0.00    +0.000 OA
ENDROOT
TORSDOF 0
ENDMDL
MODEL 6
REMARK VINA RESULT:    -4.848      3.706      4.920
REMARK INTER + INTRA:          -4.848
REMARK INTER:                  -4.848
REMARK INTRA:                   0.000
REMARK UNBOUND:                 0.000
ROOT
REMARK  Name = allantoin
REMARK                            x       y       z     vdW  Elec       q    Type
REMARK                         _______ _______ _______ _____ _____    ______ ____
ATOM      1  N   UNL     1      60.233  63.887  71.721  0.00  0.00    +0.000 NA
ATOM      2  C   UNL     1      60.267  63.275  71.169  0.00  0.00    +0.000 C 
ATOM      3  O   UNL     1      60.151  62.495  71.410  0.00  0.00    +0.000 OA
ATOM      4  N   UNL     1      60.419  63.443  70.375  0.00  0.00    +0.000 NA
ATOM      5  C   UNL     1      60.454  62.830  69.823  0.00  0.00    +0.000 C 
ATOM      6  N   UNL     1      60.599  62.913  69.016  0.00  0.00    +0.000 NA
ATOM      7  C   UNL     1      60.584  62.161  68.676  0.00  0.00    +0.000 C 
ATOM      8  O   UNL     1      60.704  61.987  67.878  0.00  0.00    +0.000 OA
ATOM      9  N   UNL     1      60.430  61.614  69.274  0.00  0.00    +0.000 NA
ATOM     10  C   UNL     1      60.349  62.027  69.983  0.00  0.00    +0.000 C 
ATOM     11  O   UNL     1      60.191  61.696  70.722  0.00  0.00    +0.000 OA
ENDROOT
TORSDOF 0
ENDMDL
MODEL 7
REMARK VINA RESULT:    -4.813      3.101      4.600
REMARK INTER + INTRA:          -4.813
REMARK INTER:                  -4.813
REMARK INTRA:                   0.000
REMARK UNBOUND:                 0.000
ROOT
REMARK  Name = allantoin
REMARK                            x       y       z     vdW  Elec       q    Type
REMARK                         _______ _______ _______ _____ _____    ______ ____
ATOM      1  N   UNL     1      59.822  62.413  66.904  0.00  0.00    +0.000 NA
ATOM      2  C   UNL     1      60.122  62.581  67.653  0.00  0.00    +0.000 C 
ATOM      3  O   UNL     1      60.444  63.323  67.813  0.00  0.00    +0.000 OA
ATOM      4  N   UNL     1      60.102  62.005  68.245  0.00  0.00    +0.000 NA
ATOM      5  C   UNL     1      60.402  62.172  68.995  0.00  0.00    +0.000 C 
ATOM      6  N   UNL     1      60.419  61.655  69.637  0.00  0.00    +0.000 NA
ATOM      7  C   UNL     1      60.766  62.050  70.273  0.00  0.00    +0.000 C 
ATOM      8  O   UNL     1      60.893  61.738  71.026  0.00  0.00    +0.000 OA
ATOM      9  N   UNL     1      60.963  62.811  70.023  0.00  0.00    +0.000 NA
ATOM     10  C   UNL     1      60.739  62.887  69.234  0.00  0.00    +0.000 C 
ATOM     11  O   UNL     1      60.833  63.559  68.765  0.00  0.00    +0.000 OA
ENDROOT
TORSDOF 0
ENDMDL
MODEL 8
REMARK VINA RESULT:    -4.781      6.335      6.830
REMARK INTER + INTRA:          -4.781
REMARK INTER:                  -4.781
REMARK INTRA:                   0.000
REMARK UNBOUND:                 0.000
ROOT
REMARK  Name = allantoin
REMARK                            x       y       z     vdW  Elec       q    Type
REMARK                         _______ _______ _______ _____ _____    ______ ____
ATOM      1  N   UNL     1      59.794  63.930  71.572  0.00  0.00    +0.000 NA
ATOM      2  C   UNL     1      59.658  64.692  71.288  0.00  0.00    +0.000 C 
ATOM      3  O   UNL     1      59.335  65.266  71.785  0.00  0.00    +0.000 OA
ATOM      4  N   UNL     1      59.846  64.882  70.507  0.00  0.00    +0.000 NA
ATOM      5  C   UNL     1      59.710  65.645  70.223  0.00  0.00    +0.000 C 
ATOM      6  N   UNL     1      59.869  65.914  69.460  0.00  0.00    +0.000 NA
ATOM      7  C   UNL     1      59.648  66.707  69.419  0.00  0.00    +0.000 C 
ATOM      8  O   UNL     1      59.712  67.194  68.755  0.00  0.00    +0.000 OA
ATOM      9  N   UNL     1      59.353  66.929  70.156  0.00  0.00    +0.000 NA
ATOM     10  C   UNL     1      59.391  66.273  70.654  0.00  0.00    +0.000 C 
ATOM     11  O   UNL     1      59.153  66.248  71.443  0.00  0.00    +0.000 OA
ENDROOT
TORSDOF 0
ENDMDL
MODEL 9
REMARK VINA RESULT:    -4.779      6.760      7.706
REMARK INTER + INTRA:          -4.779
REMARK INTER:                  -4.779
REMARK INTRA:                   0.000
REMARK UNBOUND:                 0.000
ROOT
REMARK  Name = allantoin
REMARK                            x       y       z     vdW  Elec       q    Type
REMARK                         _______ _______ _______ _____ _____    ______ ____
ATOM      1  N   UNL     1      63.703  64.542  70.243  0.00  0.00    +0.000 NA
ATOM      2  C   UNL     1      64.156  65.190  70.478  0.00  0.00    +0.000 C 
ATOM      3  O   UNL     1      64.236  65.370  71.279  0.00  0.00    +0.000 OA
ATOM      4  N   UNL     1      64.531  65.659  69.911  0.00  0.00    +0.000 NA
ATOM      5  C   UNL     1      64.985  66.307  70.146  0.00  0.00    +0.000 C 
ATOM      6  N   UNL     1      65.389  66.823  69.646  0.00  0.00    +0.000 NA
ATOM      7  C   UNL     1      65.767  67.387  70.113  0.00  0.00    +0.000 C 
ATOM      8  O   UNL     1      66.235  68.009  69.839  0.00  0.00    +0.000 OA
ATOM      9  N   UNL     1      65.597  67.220  70.903  0.00  0.00    +0.000 NA
ATOM     10  C   UNL     1      65.113  66.552  70.923  0.00  0.00    +0.000 C 
ATOM     11  O   UNL     1      64.811  66.193  71.601  0.00  0.00    +0.000 OA
ENDROOT
TORSDOF 0
ENDMDL
