MODEL 1
REMARK VINA RESULT:   -18.095      0.000      0.000
REMARK INTER + INTRA:         -18.095
REMARK INTER:                 -18.095
REMARK INTRA:                   0.000
REMARK UNBOUND:                 0.000
ROOT
REMARK  Name = alpha-Ergocryptine
REMARK                            x       y       z     vdW  Elec       q    Type
REMARK                         _______ _______ _______ _____ _____    ______ ____
ATOM      1  C   UNL     1      58.455  64.520  72.098  0.00  0.00    +0.000 C 
ATOM      2  C   UNL     1      59.236  64.783  72.130  0.00  0.00    +0.000 C 
ATOM      3  C   UNL     1      59.503  65.206  72.786  0.00  0.00    +0.000 C 
ATOM      4  C   UNL     1      59.751  64.623  71.504  0.00  0.00    +0.000 C 
ATOM      5  C   UNL     1      60.532  64.886  71.536  0.00  0.00    +0.000 C 
ATOM      6  N   UNL     1      61.047  64.726  70.912  0.00  0.00    +0.000 N 
ATOM      7  C   UNL     1      60.942  64.325  70.198  0.00  0.00    +0.000 C 
ATOM      8  O   UNL     1      60.242  63.971  69.940  0.00  0.00    +0.000 OA
ATOM      9  C   UNL     1      61.658  64.340  69.789  0.00  0.00    +0.000 C 
ATOM     10  N   UNL     1      61.241  63.914  69.218  0.00  0.00    +0.000 NA
ATOM     11  C   UNL     1      61.619  63.676  68.525  0.00  0.00    +0.000 C 
ATOM     12  O   UNL     1      62.412  63.863  68.402  0.00  0.00    +0.000 OA
ATOM     13  C   UNL     1      61.202  63.250  67.953  0.00  0.00    +0.000 C 
ATOM     14  C   UNL     1      60.408  63.062  68.076  0.00  0.00    +0.000 C 
ATOM     15  N   UNL     1      59.992  62.637  67.506  0.00  0.00    +0.000 NA
ATOM     16  C   UNL     1      59.197  62.450  67.629  0.00  0.00    +0.000 C 
ATOM     17  C   UNL     1      60.369  62.398  66.812  0.00  0.00    +0.000 C 
ATOM     18  C   UNL     1      59.953  61.973  66.241  0.00  0.00    +0.000 C 
ATOM     19  C   UNL     1      60.330  61.734  65.547  0.00  0.00    +0.000 C 
ATOM     20  C   UNL     1      60.063  61.311  64.891  0.00  0.00    +0.000 C 
ATOM     21  N   UNL     1      60.692  61.237  64.363  0.00  0.00    +0.000 NA
ATOM     22  C   UNL     1      61.348  61.614  64.693  0.00  0.00    +0.000 C 
ATOM     23  C   UNL     1      62.120  61.717  64.420  0.00  0.00    +0.000 C 
ATOM     24  C   UNL     1      62.668  62.127  64.881  0.00  0.00    +0.000 C 
ATOM     25  C   UNL     1      62.444  62.434  65.613  0.00  0.00    +0.000 C 
ATOM     26  C   UNL     1      61.541  62.347  65.996  0.00  0.00    +0.000 C 
ATOM     27  C   UNL     1      61.124  61.921  65.424  0.00  0.00    +0.000 C 
ATOM     28  C   UNL     1      61.163  62.585  66.689  0.00  0.00    +0.000 C 
ATOM     29  C   UNL     1      61.580  63.011  67.260  0.00  0.00    +0.000 C 
ATOM     30  O   UNL     1      62.206  64.750  70.249  0.00  0.00    +0.000 OA
ATOM     31  C   UNL     1      61.828  64.989  70.943  0.00  0.00    +0.000 C 
ATOM     32  O   UNL     1      62.620  65.215  70.898  0.00  0.00    +0.000 OA
ATOM     33  C   UNL     1      62.095  65.411  71.599  0.00  0.00    +0.000 C 
ATOM     34  C   UNL     1      62.830  65.739  71.785  0.00  0.00    +0.000 C 
ATOM     35  C   UNL     1      62.769  66.100  72.523  0.00  0.00    +0.000 C 
ATOM     36  C   UNL     1      61.997  65.997  72.795  0.00  0.00    +0.000 C 
ATOM     37  N   UNL     1      61.581  65.571  72.224  0.00  0.00    +0.000 N 
ATOM     38  C   UNL     1      60.799  65.309  72.193  0.00  0.00    +0.000 C 
ATOM     39  O   UNL     1      60.285  65.469  72.818  0.00  0.00    +0.000 OA
ATOM     40  C   UNL     1      62.287  64.266  69.261  0.00  0.00    +0.000 C 
ATOM     41  C   UNL     1      63.022  64.593  69.445  0.00  0.00    +0.000 C 
ATOM     42  C   UNL     1      62.664  64.027  68.567  0.00  0.00    +0.000 C 
ENDROOT
TORSDOF 0
ENDMDL
MODEL 2
REMARK VINA RESULT:   -16.961      1.472      2.221
REMARK INTER + INTRA:         -16.961
REMARK INTER:                 -16.961
REMARK INTRA:                   0.000
REMARK UNBOUND:                 0.000
ROOT
REMARK  Name = alpha-Ergocryptine
REMARK                            x       y       z     vdW  Elec       q    Type
REMARK                         _______ _______ _______ _____ _____    ______ ____
ATOM      1  C   UNL     1      60.955  67.258  72.754  0.00  0.00    +0.000 C 
ATOM      2  C   UNL     1      61.754  67.158  72.578  0.00  0.00    +0.000 C 
ATOM      3  C   UNL     1      62.328  67.544  73.027  0.00  0.00    +0.000 C 
ATOM      4  C   UNL     1      61.980  66.671  71.951  0.00  0.00    +0.000 C 
ATOM      5  C   UNL     1      62.780  66.571  71.774  0.00  0.00    +0.000 C 
ATOM      6  N   UNL     1      63.006  66.084  71.147  0.00  0.00    +0.000 N 
ATOM      7  C   UNL     1      62.568  65.636  70.610  0.00  0.00    +0.000 C 
ATOM      8  O   UNL     1      61.745  65.576  70.587  0.00  0.00    +0.000 OA
ATOM      9  C   UNL     1      63.097  65.258  70.102  0.00  0.00    +0.000 C 
ATOM     10  N   UNL     1      62.412  64.951  69.759  0.00  0.00    +0.000 NA
ATOM     11  C   UNL     1      62.469  64.441  69.113  0.00  0.00    +0.000 C 
ATOM     12  O   UNL     1      63.208  64.238  68.811  0.00  0.00    +0.000 OA
ATOM     13  C   UNL     1      61.784  64.133  68.769  0.00  0.00    +0.000 C 
ATOM     14  C   UNL     1      61.044  64.336  69.072  0.00  0.00    +0.000 C 
ATOM     15  N   UNL     1      60.360  64.029  68.728  0.00  0.00    +0.000 NA
ATOM     16  C   UNL     1      59.619  64.232  69.031  0.00  0.00    +0.000 C 
ATOM     17  C   UNL     1      60.416  63.518  68.082  0.00  0.00    +0.000 C 
ATOM     18  C   UNL     1      59.732  63.211  67.739  0.00  0.00    +0.000 C 
ATOM     19  C   UNL     1      59.788  62.700  67.093  0.00  0.00    +0.000 C 
ATOM     20  C   UNL     1      59.214  62.314  66.644  0.00  0.00    +0.000 C 
ATOM     21  N   UNL     1      59.600  61.873  66.063  0.00  0.00    +0.000 NA
ATOM     22  C   UNL     1      60.412  61.986  66.155  0.00  0.00    +0.000 C 
ATOM     23  C   UNL     1      61.061  61.689  65.740  0.00  0.00    +0.000 C 
ATOM     24  C   UNL     1      61.826  61.904  65.962  0.00  0.00    +0.000 C 
ATOM     25  C   UNL     1      61.942  62.416  66.599  0.00  0.00    +0.000 C 
ATOM     26  C   UNL     1      61.213  62.805  67.134  0.00  0.00    +0.000 C 
ATOM     27  C   UNL     1      60.528  62.497  66.791  0.00  0.00    +0.000 C 
ATOM     28  C   UNL     1      61.156  63.315  67.780  0.00  0.00    +0.000 C 
ATOM     29  C   UNL     1      61.841  63.623  68.124  0.00  0.00    +0.000 C 
ATOM     30  O   UNL     1      63.862  65.473  70.325  0.00  0.00    +0.000 OA
ATOM     31  C   UNL     1      63.805  65.984  70.970  0.00  0.00    +0.000 C 
ATOM     32  O   UNL     1      64.579  65.832  70.730  0.00  0.00    +0.000 OA
ATOM     33  C   UNL     1      64.379  66.370  71.420  0.00  0.00    +0.000 C 
ATOM     34  C   UNL     1      65.203  66.377  71.377  0.00  0.00    +0.000 C 
ATOM     35  C   UNL     1      65.485  66.868  71.976  0.00  0.00    +0.000 C 
ATOM     36  C   UNL     1      64.837  67.165  72.391  0.00  0.00    +0.000 C 
ATOM     37  N   UNL     1      64.153  66.857  72.047  0.00  0.00    +0.000 N 
ATOM     38  C   UNL     1      63.353  66.957  72.224  0.00  0.00    +0.000 C 
ATOM     39  O   UNL     1      63.128  67.444  72.851  0.00  0.00    +0.000 OA
ATOM     40  C   UNL     1      63.482  64.817  69.522  0.00  0.00    +0.000 C 
ATOM     41  C   UNL     1      64.306  64.823  69.478  0.00  0.00    +0.000 C 
ATOM     42  C   UNL     1      63.538  64.306  68.876  0.00  0.00    +0.000 C 
ENDROOT
TORSDOF 0
ENDMDL
