MODEL 1
REMARK VINA RESULT:   -11.096      0.000      0.000
REMARK INTER + INTRA:         -11.096
REMARK INTER:                 -11.096
REMARK INTRA:                   0.000
REMARK UNBOUND:                 0.000
ROOT
REMARK  Name = altizide
REMARK                            x       y       z     vdW  Elec       q    Type
REMARK                         _______ _______ _______ _____ _____    ______ ____
ATOM      1  N   UNL     1      60.969  60.811  63.569  0.00  0.00    +0.000 NA
ATOM      2  S   UNL     1      61.097  61.261  64.249  0.00  0.00    +0.000 S 
ATOM      3  O   UNL     1      60.315  61.134  64.480  0.00  0.00    +0.000 OA
ATOM      4  O   UNL     1      61.879  61.388  64.018  0.00  0.00    +0.000 OA
ATOM      5  C   UNL     1      61.225  61.711  64.928  0.00  0.00    +0.000 A 
ATOM      6  C   UNL     1      60.612  61.827  65.469  0.00  0.00    +0.000 A 
ATOM      7  C   UNL     1      60.739  62.276  66.148  0.00  0.00    +0.000 A 
ATOM      8  C   UNL     1      61.480  62.611  66.287  0.00  0.00    +0.000 A 
ATOM      9  N   UNL     1      61.608  63.062  66.967  0.00  0.00    +0.000 NA
ATOM     10  C   UNL     1      60.995  63.177  67.507  0.00  0.00    +0.000 C 
ATOM     11  C   UNL     1      61.123  63.627  68.187  0.00  0.00    +0.000 C 
ATOM     12  S   UNL     1      60.509  63.742  68.726  0.00  0.00    +0.000 S 
ATOM     13  C   UNL     1      60.637  64.192  69.405  0.00  0.00    +0.000 C 
ATOM     14  C   UNL     1      60.024  64.307  69.945  0.00  0.00    +0.000 C 
ATOM     15  C   UNL     1      60.152  64.758  70.624  0.00  0.00    +0.000 C 
ATOM     16  N   UNL     1      60.254  62.842  67.367  0.00  0.00    +0.000 NA
ATOM     17  S   UNL     1      60.127  62.392  66.687  0.00  0.00    +0.000 S 
ATOM     18  O   UNL     1      59.340  62.249  66.895  0.00  0.00    +0.000 OA
ATOM     19  O   UNL     1      59.604  61.942  66.234  0.00  0.00    +0.000 OA
ATOM     20  C   UNL     1      62.094  62.497  65.748  0.00  0.00    +0.000 A 
ATOM     21  C   UNL     1      61.966  62.046  65.068  0.00  0.00    +0.000 A 
ATOM     22 CL   UNL     1      62.579  61.931  64.529  0.00  0.00    +0.000 Cl
ENDROOT
TORSDOF 0
ENDMDL
MODEL 2
REMARK VINA RESULT:   -10.853      2.703      5.032
REMARK INTER + INTRA:         -10.853
REMARK INTER:                 -10.853
REMARK INTRA:                   0.000
REMARK UNBOUND:                 0.000
ROOT
REMARK  Name = altizide
REMARK                            x       y       z     vdW  Elec       q    Type
REMARK                         _______ _______ _______ _____ _____    ______ ____
ATOM      1  N   UNL     1      60.186  63.801  71.766  0.00  0.00    +0.000 NA
ATOM      2  S   UNL     1      60.340  63.418  71.051  0.00  0.00    +0.000 S 
ATOM      3  O   UNL     1      60.585  64.134  70.722  0.00  0.00    +0.000 OA
ATOM      4  O   UNL     1      60.095  62.703  71.381  0.00  0.00    +0.000 OA
ATOM      5  C   UNL     1      60.494  63.037  70.336  0.00  0.00    +0.000 A 
ATOM      6  C   UNL     1      60.783  63.465  69.693  0.00  0.00    +0.000 A 
ATOM      7  C   UNL     1      60.937  63.084  68.978  0.00  0.00    +0.000 A 
ATOM      8  C   UNL     1      60.801  62.273  68.906  0.00  0.00    +0.000 A 
ATOM      9  N   UNL     1      60.955  61.891  68.192  0.00  0.00    +0.000 NA
ATOM     10  C   UNL     1      61.244  62.320  67.548  0.00  0.00    +0.000 C 
ATOM     11  C   UNL     1      61.398  61.938  66.833  0.00  0.00    +0.000 C 
ATOM     12  S   UNL     1      61.687  62.368  66.191  0.00  0.00    +0.000 S 
ATOM     13  C   UNL     1      61.840  61.985  65.476  0.00  0.00    +0.000 C 
ATOM     14  C   UNL     1      62.130  62.415  64.833  0.00  0.00    +0.000 C 
ATOM     15  C   UNL     1      62.283  62.032  64.118  0.00  0.00    +0.000 C 
ATOM     16  N   UNL     1      61.379  63.131  67.621  0.00  0.00    +0.000 NA
ATOM     17  S   UNL     1      61.225  63.512  68.336  0.00  0.00    +0.000 S 
ATOM     18  O   UNL     1      61.465  64.241  68.031  0.00  0.00    +0.000 OA
ATOM     19  O   UNL     1      61.225  64.216  68.768  0.00  0.00    +0.000 OA
ATOM     20  C   UNL     1      60.512  61.844  69.549  0.00  0.00    +0.000 A 
ATOM     21  C   UNL     1      60.359  62.226  70.264  0.00  0.00    +0.000 A 
ATOM     22 CL   UNL     1      60.070  61.797  70.906  0.00  0.00    +0.000 Cl
ENDROOT
TORSDOF 0
ENDMDL
MODEL 3
REMARK VINA RESULT:   -10.203      4.908      6.026
REMARK INTER + INTRA:         -10.203
REMARK INTER:                 -10.203
REMARK INTRA:                   0.000
REMARK UNBOUND:                 0.000
ROOT
REMARK  Name = altizide
REMARK                            x       y       z     vdW  Elec       q    Type
REMARK                         _______ _______ _______ _____ _____    ______ ____
ATOM      1  N   UNL     1      60.284  62.055  70.958  0.00  0.00    +0.000 NA
ATOM      2  S   UNL     1      60.840  62.654  71.078  0.00  0.00    +0.000 S 
ATOM      3  O   UNL     1      61.065  62.603  70.286  0.00  0.00    +0.000 OA
ATOM      4  O   UNL     1      60.614  62.704  71.870  0.00  0.00    +0.000 OA
ATOM      5  C   UNL     1      61.395  63.252  71.198  0.00  0.00    +0.000 A 
ATOM      6  C   UNL     1      61.868  63.508  70.573  0.00  0.00    +0.000 A 
ATOM      7  C   UNL     1      62.423  64.105  70.692  0.00  0.00    +0.000 A 
ATOM      8  C   UNL     1      62.506  64.448  71.438  0.00  0.00    +0.000 A 
ATOM      9  N   UNL     1      63.061  65.046  71.559  0.00  0.00    +0.000 NA
ATOM     10  C   UNL     1      63.534  65.302  70.932  0.00  0.00    +0.000 C 
ATOM     11  C   UNL     1      64.090  65.900  71.053  0.00  0.00    +0.000 C 
ATOM     12  S   UNL     1      64.562  66.155  70.427  0.00  0.00    +0.000 S 
ATOM     13  C   UNL     1      65.117  66.753  70.547  0.00  0.00    +0.000 C 
ATOM     14  C   UNL     1      65.591  67.009  69.921  0.00  0.00    +0.000 C 
ATOM     15  C   UNL     1      66.146  67.607  70.041  0.00  0.00    +0.000 C 
ATOM     16  N   UNL     1      63.452  64.959  70.186  0.00  0.00    +0.000 NA
ATOM     17  S   UNL     1      62.896  64.361  70.067  0.00  0.00    +0.000 S 
ATOM     18  O   UNL     1      63.102  64.290  69.271  0.00  0.00    +0.000 OA
ATOM     19  O   UNL     1      62.545  63.827  69.545  0.00  0.00    +0.000 OA
ATOM     20  C   UNL     1      62.033  64.193  72.064  0.00  0.00    +0.000 A 
ATOM     21  C   UNL     1      61.477  63.594  71.944  0.00  0.00    +0.000 A 
ATOM     22 CL   UNL     1      61.005  63.340  72.570  0.00  0.00    +0.000 Cl
ENDROOT
TORSDOF 0
ENDMDL
MODEL 4
REMARK VINA RESULT:   -10.067      5.321      6.860
REMARK INTER + INTRA:         -10.067
REMARK INTER:                 -10.067
REMARK INTRA:                   0.000
REMARK UNBOUND:                 0.000
ROOT
REMARK  Name = altizide
REMARK                            x       y       z     vdW  Elec       q    Type
REMARK                         _______ _______ _______ _____ _____    ______ ____
ATOM      1  N   UNL     1      66.218  67.598  70.219  0.00  0.00    +0.000 NA
ATOM      2  S   UNL     1      65.597  67.118  70.475  0.00  0.00    +0.000 S 
ATOM      3  O   UNL     1      65.679  66.653  69.799  0.00  0.00    +0.000 OA
ATOM      4  O   UNL     1      65.517  67.584  71.151  0.00  0.00    +0.000 OA
ATOM      5  C   UNL     1      64.978  66.638  70.731  0.00  0.00    +0.000 A 
ATOM      6  C   UNL     1      64.737  65.995  70.274  0.00  0.00    +0.000 A 
ATOM      7  C   UNL     1      64.118  65.515  70.529  0.00  0.00    +0.000 A 
ATOM      8  C   UNL     1      63.737  65.678  71.243  0.00  0.00    +0.000 A 
ATOM      9  N   UNL     1      63.117  65.198  71.499  0.00  0.00    +0.000 NA
ATOM     10  C   UNL     1      62.877  64.555  71.041  0.00  0.00    +0.000 C 
ATOM     11  C   UNL     1      62.257  64.074  71.297  0.00  0.00    +0.000 C 
ATOM     12  S   UNL     1      62.017  63.431  70.839  0.00  0.00    +0.000 S 
ATOM     13  C   UNL     1      61.397  62.952  71.095  0.00  0.00    +0.000 C 
ATOM     14  C   UNL     1      61.158  62.308  70.637  0.00  0.00    +0.000 C 
ATOM     15  C   UNL     1      60.537  61.828  70.894  0.00  0.00    +0.000 C 
ATOM     16  N   UNL     1      63.258  64.392  70.327  0.00  0.00    +0.000 NA
ATOM     17  S   UNL     1      63.878  64.872  70.072  0.00  0.00    +0.000 S 
ATOM     18  O   UNL     1      63.981  64.423  69.386  0.00  0.00    +0.000 OA
ATOM     19  O   UNL     1      64.447  65.032  69.496  0.00  0.00    +0.000 OA
ATOM     20  C   UNL     1      63.976  66.321  71.701  0.00  0.00    +0.000 A 
ATOM     21  C   UNL     1      64.597  66.801  71.444  0.00  0.00    +0.000 A 
ATOM     22 CL   UNL     1      64.836  67.444  71.903  0.00  0.00    +0.000 Cl
ENDROOT
TORSDOF 0
ENDMDL
MODEL 5
REMARK VINA RESULT:   -10.025      1.868      2.493
REMARK INTER + INTRA:         -10.025
REMARK INTER:                 -10.025
REMARK INTRA:                   0.000
REMARK UNBOUND:                 0.000
ROOT
REMARK  Name = altizide
REMARK                            x       y       z     vdW  Elec       q    Type
REMARK                         _______ _______ _______ _____ _____    ______ ____
ATOM      1  N   UNL     1      61.599  62.249  65.133  0.00  0.00    +0.000 NA
ATOM      2  S   UNL     1      61.280  62.414  65.877  0.00  0.00    +0.000 S 
ATOM      3  O   UNL     1      61.997  62.749  66.110  0.00  0.00    +0.000 OA
ATOM      4  O   UNL     1      60.563  62.080  65.643  0.00  0.00    +0.000 OA
ATOM      5  C   UNL     1      60.961  62.579  66.619  0.00  0.00    +0.000 A 
ATOM      6  C   UNL     1      61.422  62.952  67.193  0.00  0.00    +0.000 A 
ATOM      7  C   UNL     1      61.104  63.117  67.935  0.00  0.00    +0.000 A 
ATOM      8  C   UNL     1      60.324  62.909  68.105  0.00  0.00    +0.000 A 
ATOM      9  N   UNL     1      60.004  63.074  68.847  0.00  0.00    +0.000 NA
ATOM     10  C   UNL     1      60.467  63.447  69.421  0.00  0.00    +0.000 C 
ATOM     11  C   UNL     1      60.147  63.612  70.164  0.00  0.00    +0.000 C 
ATOM     12  S   UNL     1      60.609  63.984  70.738  0.00  0.00    +0.000 S 
ATOM     13  C   UNL     1      60.290  64.149  71.480  0.00  0.00    +0.000 C 
ATOM     14  C   UNL     1      60.752  64.521  72.054  0.00  0.00    +0.000 C 
ATOM     15  C   UNL     1      60.433  64.686  72.796  0.00  0.00    +0.000 C 
ATOM     16  N   UNL     1      61.247  63.654  69.252  0.00  0.00    +0.000 NA
ATOM     17  S   UNL     1      61.565  63.488  68.509  0.00  0.00    +0.000 S 
ATOM     18  O   UNL     1      62.294  63.817  68.717  0.00  0.00    +0.000 OA
ATOM     19  O   UNL     1      62.216  63.526  68.003  0.00  0.00    +0.000 OA
ATOM     20  C   UNL     1      59.862  62.537  67.532  0.00  0.00    +0.000 A 
ATOM     21  C   UNL     1      60.181  62.372  66.788  0.00  0.00    +0.000 A 
ATOM     22 CL   UNL     1      59.719  62.000  66.215  0.00  0.00    +0.000 Cl
ENDROOT
TORSDOF 0
ENDMDL
MODEL 6
REMARK VINA RESULT:    -9.784      4.945      6.537
REMARK INTER + INTRA:          -9.784
REMARK INTER:                  -9.784
REMARK INTRA:                   0.000
REMARK UNBOUND:                 0.000
ROOT
REMARK  Name = altizide
REMARK                            x       y       z     vdW  Elec       q    Type
REMARK                         _______ _______ _______ _____ _____    ______ ____
ATOM      1  N   UNL     1      65.456  67.239  71.966  0.00  0.00    +0.000 NA
ATOM      2  S   UNL     1      65.032  66.772  71.433  0.00  0.00    +0.000 S 
ATOM      3  O   UNL     1      64.575  66.480  72.055  0.00  0.00    +0.000 OA
ATOM      4  O   UNL     1      65.490  67.064  70.813  0.00  0.00    +0.000 OA
ATOM      5  C   UNL     1      64.609  66.306  70.902  0.00  0.00    +0.000 A 
ATOM      6  C   UNL     1      64.000  65.819  71.173  0.00  0.00    +0.000 A 
ATOM      7  C   UNL     1      63.576  65.352  70.641  0.00  0.00    +0.000 A 
ATOM      8  C   UNL     1      63.761  65.372  69.837  0.00  0.00    +0.000 A 
ATOM      9  N   UNL     1      63.338  64.905  69.305  0.00  0.00    +0.000 NA
ATOM     10  C   UNL     1      62.729  64.419  69.577  0.00  0.00    +0.000 C 
ATOM     11  C   UNL     1      62.305  63.952  69.045  0.00  0.00    +0.000 C 
ATOM     12  S   UNL     1      61.696  63.466  69.317  0.00  0.00    +0.000 S 
ATOM     13  C   UNL     1      61.273  62.999  68.784  0.00  0.00    +0.000 C 
ATOM     14  C   UNL     1      60.664  62.512  69.057  0.00  0.00    +0.000 C 
ATOM     15  C   UNL     1      60.241  62.046  68.524  0.00  0.00    +0.000 C 
ATOM     16  N   UNL     1      62.544  64.399  70.381  0.00  0.00    +0.000 NA
ATOM     17  S   UNL     1      62.968  64.866  70.913  0.00  0.00    +0.000 S 
ATOM     18  O   UNL     1      62.525  64.590  71.552  0.00  0.00    +0.000 OA
ATOM     19  O   UNL     1      63.085  65.107  71.693  0.00  0.00    +0.000 OA
ATOM     20  C   UNL     1      64.369  65.858  69.565  0.00  0.00    +0.000 A 
ATOM     21  C   UNL     1      64.793  66.325  70.098  0.00  0.00    +0.000 A 
ATOM     22 CL   UNL     1      65.402  66.811  69.825  0.00  0.00    +0.000 Cl
ENDROOT
TORSDOF 0
ENDMDL
MODEL 7
REMARK VINA RESULT:    -9.758      3.547      5.874
REMARK INTER + INTRA:          -9.758
REMARK INTER:                  -9.758
REMARK INTRA:                   0.000
REMARK UNBOUND:                 0.000
ROOT
REMARK  Name = altizide
REMARK                            x       y       z     vdW  Elec       q    Type
REMARK                         _______ _______ _______ _____ _____    ______ ____
ATOM      1  N   UNL     1      60.928  65.492  73.010  0.00  0.00    +0.000 NA
ATOM      2  S   UNL     1      60.907  64.958  72.380  0.00  0.00    +0.000 S 
ATOM      3  O   UNL     1      60.488  65.507  71.929  0.00  0.00    +0.000 OA
ATOM      4  O   UNL     1      61.326  64.410  72.832  0.00  0.00    +0.000 OA
ATOM      5  C   UNL     1      60.886  64.425  71.751  0.00  0.00    +0.000 A 
ATOM      6  C   UNL     1      60.513  64.633  71.046  0.00  0.00    +0.000 A 
ATOM      7  C   UNL     1      60.492  64.100  70.417  0.00  0.00    +0.000 A 
ATOM      8  C   UNL     1      60.844  63.358  70.493  0.00  0.00    +0.000 A 
ATOM      9  N   UNL     1      60.824  62.824  69.865  0.00  0.00    +0.000 NA
ATOM     10  C   UNL     1      60.450  63.033  69.159  0.00  0.00    +0.000 C 
ATOM     11  C   UNL     1      60.429  62.499  68.529  0.00  0.00    +0.000 C 
ATOM     12  S   UNL     1      60.055  62.708  67.824  0.00  0.00    +0.000 S 
ATOM     13  C   UNL     1      60.035  62.175  67.196  0.00  0.00    +0.000 C 
ATOM     14  C   UNL     1      59.661  62.383  66.490  0.00  0.00    +0.000 C 
ATOM     15  C   UNL     1      59.640  61.850  65.861  0.00  0.00    +0.000 C 
ATOM     16  N   UNL     1      60.097  63.775  69.082  0.00  0.00    +0.000 NA
ATOM     17  S   UNL     1      60.119  64.308  69.712  0.00  0.00    +0.000 S 
ATOM     18  O   UNL     1      59.700  64.876  69.282  0.00  0.00    +0.000 OA
ATOM     19  O   UNL     1      59.914  65.052  70.006  0.00  0.00    +0.000 OA
ATOM     20  C   UNL     1      61.218  63.149  71.199  0.00  0.00    +0.000 A 
ATOM     21  C   UNL     1      61.239  63.683  71.828  0.00  0.00    +0.000 A 
ATOM     22 CL   UNL     1      61.612  63.474  72.533  0.00  0.00    +0.000 Cl
ENDROOT
TORSDOF 0
ENDMDL
MODEL 8
REMARK VINA RESULT:    -9.413      5.988      7.601
REMARK INTER + INTRA:          -9.413
REMARK INTER:                  -9.413
REMARK INTRA:                   0.000
REMARK UNBOUND:                 0.000
ROOT
REMARK  Name = altizide
REMARK                            x       y       z     vdW  Elec       q    Type
REMARK                         _______ _______ _______ _____ _____    ______ ____
ATOM      1  N   UNL     1      62.844  68.755  73.222  0.00  0.00    +0.000 NA
ATOM      2  S   UNL     1      62.804  68.008  72.873  0.00  0.00    +0.000 S 
ATOM      3  O   UNL     1      62.040  67.911  73.168  0.00  0.00    +0.000 OA
ATOM      4  O   UNL     1      63.569  68.105  72.580  0.00  0.00    +0.000 OA
ATOM      5  C   UNL     1      62.765  67.261  72.525  0.00  0.00    +0.000 A 
ATOM      6  C   UNL     1      62.083  66.803  72.605  0.00  0.00    +0.000 A 
ATOM      7  C   UNL     1      62.044  66.057  72.257  0.00  0.00    +0.000 A 
ATOM      8  C   UNL     1      62.687  65.768  71.828  0.00  0.00    +0.000 A 
ATOM      9  N   UNL     1      62.648  65.022  71.479  0.00  0.00    +0.000 NA
ATOM     10  C   UNL     1      61.965  64.564  71.559  0.00  0.00    +0.000 C 
ATOM     11  C   UNL     1      61.926  63.817  71.210  0.00  0.00    +0.000 C 
ATOM     12  S   UNL     1      61.244  63.360  71.291  0.00  0.00    +0.000 S 
ATOM     13  C   UNL     1      61.206  62.613  70.942  0.00  0.00    +0.000 C 
ATOM     14  C   UNL     1      60.523  62.155  71.023  0.00  0.00    +0.000 C 
ATOM     15  C   UNL     1      60.485  61.409  70.674  0.00  0.00    +0.000 C 
ATOM     16  N   UNL     1      61.323  64.853  71.988  0.00  0.00    +0.000 NA
ATOM     17  S   UNL     1      61.363  65.600  72.337  0.00  0.00    +0.000 S 
ATOM     18  O   UNL     1      60.599  65.529  72.643  0.00  0.00    +0.000 OA
ATOM     19  O   UNL     1      60.990  66.182  72.789  0.00  0.00    +0.000 OA
ATOM     20  C   UNL     1      63.368  66.225  71.747  0.00  0.00    +0.000 A 
ATOM     21  C   UNL     1      63.408  66.972  72.096  0.00  0.00    +0.000 A 
ATOM     22 CL   UNL     1      64.090  67.429  72.015  0.00  0.00    +0.000 Cl
ENDROOT
TORSDOF 0
ENDMDL
MODEL 9
REMARK VINA RESULT:    -9.015      4.922      6.110
REMARK INTER + INTRA:          -9.015
REMARK INTER:                  -9.015
REMARK INTRA:                   0.000
REMARK UNBOUND:                 0.000
ROOT
REMARK  Name = altizide
REMARK                            x       y       z     vdW  Elec       q    Type
REMARK                         _______ _______ _______ _____ _____    ______ ____
ATOM      1  N   UNL     1      60.947  61.658  70.281  0.00  0.00    +0.000 NA
ATOM      2  S   UNL     1      60.973  62.375  70.690  0.00  0.00    +0.000 S 
ATOM      3  O   UNL     1      61.692  62.555  70.328  0.00  0.00    +0.000 OA
ATOM      4  O   UNL     1      60.254  62.194  71.051  0.00  0.00    +0.000 OA
ATOM      5  C   UNL     1      60.999  63.091  71.098  0.00  0.00    +0.000 A 
ATOM      6  C   UNL     1      61.635  63.606  70.989  0.00  0.00    +0.000 A 
ATOM      7  C   UNL     1      61.661  64.322  71.397  0.00  0.00    +0.000 A 
ATOM      8  C   UNL     1      61.051  64.524  71.915  0.00  0.00    +0.000 A 
ATOM      9  N   UNL     1      61.076  65.240  72.324  0.00  0.00    +0.000 NA
ATOM     10  C   UNL     1      61.712  65.754  72.215  0.00  0.00    +0.000 C 
ATOM     11  C   UNL     1      61.738  66.471  72.624  0.00  0.00    +0.000 C 
ATOM     12  S   UNL     1      62.374  66.985  72.514  0.00  0.00    +0.000 S 
ATOM     13  C   UNL     1      62.399  67.701  72.923  0.00  0.00    +0.000 C 
ATOM     14  C   UNL     1      63.035  68.216  72.814  0.00  0.00    +0.000 C 
ATOM     15  C   UNL     1      63.061  68.932  73.222  0.00  0.00    +0.000 C 
ATOM     16  N   UNL     1      62.322  65.552  71.697  0.00  0.00    +0.000 NA
ATOM     17  S   UNL     1      62.296  64.836  71.289  0.00  0.00    +0.000 S 
ATOM     18  O   UNL     1      63.014  64.992  70.913  0.00  0.00    +0.000 OA
ATOM     19  O   UNL     1      62.655  64.324  70.750  0.00  0.00    +0.000 OA
ATOM     20  C   UNL     1      60.415  64.010  72.025  0.00  0.00    +0.000 A 
ATOM     21  C   UNL     1      60.389  63.293  71.616  0.00  0.00    +0.000 A 
ATOM     22 CL   UNL     1      59.753  62.779  71.725  0.00  0.00    +0.000 Cl
ENDROOT
TORSDOF 0
ENDMDL
