MODEL 1
REMARK VINA RESULT:   -10.734      0.000      0.000
REMARK INTER + INTRA:         -10.734
REMARK INTER:                 -10.734
REMARK INTRA:                   0.000
REMARK UNBOUND:                 0.000
ROOT
REMARK  Name = ambuside
REMARK                            x       y       z     vdW  Elec       q    Type
REMARK                         _______ _______ _______ _____ _____    ______ ____
ATOM      1  C   UNL     1      65.718  67.263  69.899  0.00  0.00    +0.000 C 
ATOM      2  C   UNL     1      65.172  66.681  70.109  0.00  0.00    +0.000 C 
ATOM      3  O   UNL     1      65.186  65.948  69.732  0.00  0.00    +0.000 OA
ATOM      4  C   UNL     1      64.614  66.833  70.697  0.00  0.00    +0.000 C 
ATOM      5  C   UNL     1      64.068  66.251  70.907  0.00  0.00    +0.000 C 
ATOM      6  N   UNL     1      63.509  66.402  71.496  0.00  0.00    +0.000 NA
ATOM      7  C   UNL     1      62.964  65.821  71.705  0.00  0.00    +0.000 A 
ATOM      8  C   UNL     1      62.405  65.972  72.293  0.00  0.00    +0.000 A 
ATOM      9  C   UNL     1      61.859  65.390  72.503  0.00  0.00    +0.000 A 
ATOM     10  C   UNL     1      61.873  64.657  72.126  0.00  0.00    +0.000 A 
ATOM     11  C   UNL     1      62.431  64.505  71.538  0.00  0.00    +0.000 A 
ATOM     12 CL   UNL     1      62.445  63.771  71.160  0.00  0.00    +0.000 Cl
ATOM     13  C   UNL     1      62.977  65.087  71.328  0.00  0.00    +0.000 A 
ATOM     14  S   UNL     1      61.326  64.074  72.336  0.00  0.00    +0.000 S 
ATOM     15  N   UNL     1      60.781  63.493  72.546  0.00  0.00    +0.000 NA
ATOM     16  O   UNL     1      61.657  63.563  71.778  0.00  0.00    +0.000 OA
ATOM     17  O   UNL     1      60.996  64.585  72.893  0.00  0.00    +0.000 OA
ATOM     18  S   UNL     1      62.392  66.705  72.670  0.00  0.00    +0.000 S 
ATOM     19  O   UNL     1      61.754  66.456  73.131  0.00  0.00    +0.000 OA
ATOM     20  O   UNL     1      63.029  66.954  72.210  0.00  0.00    +0.000 OA
ATOM     21  N   UNL     1      62.378  67.439  73.048  0.00  0.00    +0.000 NA
ATOM     22  C   UNL     1      62.924  68.021  72.838  0.00  0.00    +0.000 C 
ATOM     23  C   UNL     1      62.911  68.754  73.215  0.00  0.00    +0.000 C 
ATOM     24  C   UNL     1      63.456  69.336  73.005  0.00  0.00    +0.000 C 
ENDROOT
TORSDOF 0
ENDMDL
MODEL 2
REMARK VINA RESULT:   -10.703      3.394      4.747
REMARK INTER + INTRA:         -10.703
REMARK INTER:                 -10.703
REMARK INTRA:                   0.000
REMARK UNBOUND:                 0.000
ROOT
REMARK  Name = ambuside
REMARK                            x       y       z     vdW  Elec       q    Type
REMARK                         _______ _______ _______ _____ _____    ______ ____
ATOM      1  C   UNL     1      64.203  65.367  70.486  0.00  0.00    +0.000 C 
ATOM      2  C   UNL     1      63.722  65.055  69.893  0.00  0.00    +0.000 C 
ATOM      3  O   UNL     1      63.834  65.284  69.108  0.00  0.00    +0.000 OA
ATOM      4  C   UNL     1      63.129  64.515  70.085  0.00  0.00    +0.000 C 
ATOM      5  C   UNL     1      62.647  64.203  69.492  0.00  0.00    +0.000 C 
ATOM      6  N   UNL     1      62.053  63.663  69.684  0.00  0.00    +0.000 NA
ATOM      7  C   UNL     1      61.573  63.351  69.092  0.00  0.00    +0.000 A 
ATOM      8  C   UNL     1      60.979  62.811  69.283  0.00  0.00    +0.000 A 
ATOM      9  C   UNL     1      60.498  62.499  68.690  0.00  0.00    +0.000 A 
ATOM     10  C   UNL     1      60.610  62.727  67.906  0.00  0.00    +0.000 A 
ATOM     11  C   UNL     1      61.203  63.267  67.713  0.00  0.00    +0.000 A 
ATOM     12 CL   UNL     1      61.316  63.496  66.928  0.00  0.00    +0.000 Cl
ATOM     13  C   UNL     1      61.685  63.579  68.306  0.00  0.00    +0.000 A 
ATOM     14  S   UNL     1      60.128  62.415  67.312  0.00  0.00    +0.000 S 
ATOM     15  N   UNL     1      59.647  62.103  66.720  0.00  0.00    +0.000 NA
ATOM     16  O   UNL     1      60.536  62.859  66.748  0.00  0.00    +0.000 OA
ATOM     17  O   UNL     1      59.721  61.971  67.876  0.00  0.00    +0.000 OA
ATOM     18  S   UNL     1      60.868  62.583  70.068  0.00  0.00    +0.000 S 
ATOM     19  O   UNL     1      60.247  62.090  69.836  0.00  0.00    +0.000 OA
ATOM     20  O   UNL     1      61.488  63.074  70.299  0.00  0.00    +0.000 OA
ATOM     21  N   UNL     1      60.756  62.354  70.853  0.00  0.00    +0.000 NA
ATOM     22  C   UNL     1      61.237  62.666  71.446  0.00  0.00    +0.000 C 
ATOM     23  C   UNL     1      61.126  62.438  72.231  0.00  0.00    +0.000 C 
ATOM     24  C   UNL     1      61.606  62.750  72.823  0.00  0.00    +0.000 C 
ENDROOT
TORSDOF 0
ENDMDL
MODEL 3
REMARK VINA RESULT:   -10.111      1.899      2.358
REMARK INTER + INTRA:         -10.111
REMARK INTER:                 -10.111
REMARK INTRA:                   0.000
REMARK UNBOUND:                 0.000
ROOT
REMARK  Name = ambuside
REMARK                            x       y       z     vdW  Elec       q    Type
REMARK                         _______ _______ _______ _____ _____    ______ ____
ATOM      1  C   UNL     1      64.062  64.942  70.472  0.00  0.00    +0.000 C 
ATOM      2  C   UNL     1      63.275  64.839  70.696  0.00  0.00    +0.000 C 
ATOM      3  O   UNL     1      62.861  64.169  70.452  0.00  0.00    +0.000 OA
ATOM      4  C   UNL     1      62.902  65.407  71.165  0.00  0.00    +0.000 C 
ATOM      5  C   UNL     1      62.115  65.303  71.389  0.00  0.00    +0.000 C 
ATOM      6  N   UNL     1      61.741  65.871  71.858  0.00  0.00    +0.000 NA
ATOM      7  C   UNL     1      60.955  65.767  72.082  0.00  0.00    +0.000 A 
ATOM      8  C   UNL     1      60.581  66.334  72.551  0.00  0.00    +0.000 A 
ATOM      9  C   UNL     1      59.794  66.231  72.775  0.00  0.00    +0.000 A 
ATOM     10  C   UNL     1      59.381  65.560  72.531  0.00  0.00    +0.000 A 
ATOM     11  C   UNL     1      59.753  64.993  72.063  0.00  0.00    +0.000 A 
ATOM     12 CL   UNL     1      59.340  64.321  71.818  0.00  0.00    +0.000 Cl
ATOM     13  C   UNL     1      60.541  65.096  71.838  0.00  0.00    +0.000 A 
ATOM     14  S   UNL     1      58.593  65.457  72.756  0.00  0.00    +0.000 S 
ATOM     15  N   UNL     1      57.806  65.353  72.980  0.00  0.00    +0.000 NA
ATOM     16  O   UNL     1      58.569  64.741  72.344  0.00  0.00    +0.000 OA
ATOM     17  O   UNL     1      58.616  66.171  73.167  0.00  0.00    +0.000 OA
ATOM     18  S   UNL     1      60.995  67.004  72.794  0.00  0.00    +0.000 S 
ATOM     19  O   UNL     1      60.325  67.272  73.195  0.00  0.00    +0.000 OA
ATOM     20  O   UNL     1      61.665  66.737  72.395  0.00  0.00    +0.000 OA
ATOM     21  N   UNL     1      61.409  67.676  73.039  0.00  0.00    +0.000 NA
ATOM     22  C   UNL     1      62.196  67.779  72.814  0.00  0.00    +0.000 C 
ATOM     23  C   UNL     1      62.610  68.449  73.058  0.00  0.00    +0.000 C 
ATOM     24  C   UNL     1      63.396  68.553  72.834  0.00  0.00    +0.000 C 
ENDROOT
TORSDOF 0
ENDMDL
MODEL 4
REMARK VINA RESULT:   -10.100      1.952      4.589
REMARK INTER + INTRA:         -10.100
REMARK INTER:                 -10.100
REMARK INTRA:                   0.000
REMARK UNBOUND:                 0.000
ROOT
REMARK  Name = ambuside
REMARK                            x       y       z     vdW  Elec       q    Type
REMARK                         _______ _______ _______ _____ _____    ______ ____
ATOM      1  C   UNL     1      58.953  65.385  73.139  0.00  0.00    +0.000 C 
ATOM      2  C   UNL     1      59.714  65.641  72.950  0.00  0.00    +0.000 C 
ATOM      3  O   UNL     1      59.982  66.372  73.222  0.00  0.00    +0.000 OA
ATOM      4  C   UNL     1      60.206  65.166  72.489  0.00  0.00    +0.000 C 
ATOM      5  C   UNL     1      60.967  65.422  72.301  0.00  0.00    +0.000 C 
ATOM      6  N   UNL     1      61.460  64.946  71.839  0.00  0.00    +0.000 NA
ATOM      7  C   UNL     1      62.221  65.202  71.651  0.00  0.00    +0.000 A 
ATOM      8  C   UNL     1      62.714  64.728  71.190  0.00  0.00    +0.000 A 
ATOM      9  C   UNL     1      63.475  64.984  71.001  0.00  0.00    +0.000 A 
ATOM     10  C   UNL     1      63.743  65.714  71.273  0.00  0.00    +0.000 A 
ATOM     11  C   UNL     1      63.251  66.190  71.734  0.00  0.00    +0.000 A 
ATOM     12 CL   UNL     1      63.519  66.921  72.007  0.00  0.00    +0.000 Cl
ATOM     13  C   UNL     1      62.490  65.934  71.923  0.00  0.00    +0.000 A 
ATOM     14  S   UNL     1      64.505  65.971  71.084  0.00  0.00    +0.000 S 
ATOM     15  N   UNL     1      65.265  66.227  70.896  0.00  0.00    +0.000 NA
ATOM     16  O   UNL     1      64.376  66.668  71.508  0.00  0.00    +0.000 OA
ATOM     17  O   UNL     1      64.634  65.274  70.661  0.00  0.00    +0.000 OA
ATOM     18  S   UNL     1      62.444  63.997  70.919  0.00  0.00    +0.000 S 
ATOM     19  O   UNL     1      63.169  63.870  70.543  0.00  0.00    +0.000 OA
ATOM     20  O   UNL     1      61.721  64.123  71.293  0.00  0.00    +0.000 OA
ATOM     21  N   UNL     1      62.176  63.266  70.646  0.00  0.00    +0.000 NA
ATOM     22  C   UNL     1      61.415  63.009  70.835  0.00  0.00    +0.000 C 
ATOM     23  C   UNL     1      61.146  62.279  70.563  0.00  0.00    +0.000 C 
ATOM     24  C   UNL     1      60.386  62.023  70.752  0.00  0.00    +0.000 C 
ENDROOT
TORSDOF 0
ENDMDL
MODEL 5
REMARK VINA RESULT:   -10.064      2.483      3.946
REMARK INTER + INTRA:         -10.064
REMARK INTER:                 -10.064
REMARK INTRA:                   0.000
REMARK UNBOUND:                 0.000
ROOT
REMARK  Name = ambuside
REMARK                            x       y       z     vdW  Elec       q    Type
REMARK                         _______ _______ _______ _____ _____    ______ ____
ATOM      1  C   UNL     1      64.174  64.608  69.874  0.00  0.00    +0.000 C 
ATOM      2  C   UNL     1      63.570  65.111  70.124  0.00  0.00    +0.000 C 
ATOM      3  O   UNL     1      63.684  65.928  70.116  0.00  0.00    +0.000 OA
ATOM      4  C   UNL     1      62.852  64.797  70.381  0.00  0.00    +0.000 C 
ATOM      5  C   UNL     1      62.248  65.300  70.630  0.00  0.00    +0.000 C 
ATOM      6  N   UNL     1      61.528  64.987  70.888  0.00  0.00    +0.000 NA
ATOM      7  C   UNL     1      60.925  65.490  71.137  0.00  0.00    +0.000 A 
ATOM      8  C   UNL     1      60.207  65.177  71.394  0.00  0.00    +0.000 A 
ATOM      9  C   UNL     1      59.602  65.680  71.644  0.00  0.00    +0.000 A 
ATOM     10  C   UNL     1      59.717  66.496  71.635  0.00  0.00    +0.000 A 
ATOM     11  C   UNL     1      60.435  66.811  71.378  0.00  0.00    +0.000 A 
ATOM     12 CL   UNL     1      60.550  67.628  71.370  0.00  0.00    +0.000 Cl
ATOM     13  C   UNL     1      61.039  66.307  71.129  0.00  0.00    +0.000 A 
ATOM     14  S   UNL     1      59.112  67.000  71.885  0.00  0.00    +0.000 S 
ATOM     15  N   UNL     1      58.508  67.503  72.134  0.00  0.00    +0.000 NA
ATOM     16  O   UNL     1      59.593  67.654  71.732  0.00  0.00    +0.000 OA
ATOM     17  O   UNL     1      58.631  66.348  72.038  0.00  0.00    +0.000 OA
ATOM     18  S   UNL     1      60.093  64.360  71.402  0.00  0.00    +0.000 S 
ATOM     19  O   UNL     1      59.329  64.469  71.695  0.00  0.00    +0.000 OA
ATOM     20  O   UNL     1      60.856  64.250  71.110  0.00  0.00    +0.000 OA
ATOM     21  N   UNL     1      59.978  63.543  71.410  0.00  0.00    +0.000 NA
ATOM     22  C   UNL     1      60.582  63.039  71.161  0.00  0.00    +0.000 C 
ATOM     23  C   UNL     1      60.469  62.222  71.169  0.00  0.00    +0.000 C 
ATOM     24  C   UNL     1      61.072  61.719  70.920  0.00  0.00    +0.000 C 
ENDROOT
TORSDOF 0
ENDMDL
MODEL 6
REMARK VINA RESULT:    -9.342     25.211     26.221
REMARK INTER + INTRA:          -9.342
REMARK INTER:                  -9.342
REMARK INTRA:                   0.000
REMARK UNBOUND:                 0.000
ROOT
REMARK  Name = ambuside
REMARK                            x       y       z     vdW  Elec       q    Type
REMARK                         _______ _______ _______ _____ _____    ______ ____
ATOM      1  C   UNL     1      71.998  78.843  48.382  0.00  0.00    +0.000 C 
ATOM      2  C   UNL     1      71.336  79.046  48.830  0.00  0.00    +0.000 C 
ATOM      3  O   UNL     1      70.580  78.872  48.550  0.00  0.00    +0.000 OA
ATOM      4  C   UNL     1      71.430  79.425  49.557  0.00  0.00    +0.000 C 
ATOM      5  C   UNL     1      70.768  79.628  50.005  0.00  0.00    +0.000 C 
ATOM      6  N   UNL     1      70.862  80.006  50.733  0.00  0.00    +0.000 NA
ATOM      7  C   UNL     1      70.200  80.209  51.180  0.00  0.00    +0.000 A 
ATOM      8  C   UNL     1      70.293  80.587  51.907  0.00  0.00    +0.000 A 
ATOM      9  C   UNL     1      69.631  80.790  52.355  0.00  0.00    +0.000 A 
ATOM     10  C   UNL     1      68.875  80.616  52.076  0.00  0.00    +0.000 A 
ATOM     11  C   UNL     1      68.781  80.238  51.348  0.00  0.00    +0.000 A 
ATOM     12 CL   UNL     1      68.024  80.063  51.068  0.00  0.00    +0.000 Cl
ATOM     13  C   UNL     1      69.443  80.034  50.900  0.00  0.00    +0.000 A 
ATOM     14  S   UNL     1      68.212  80.819  52.524  0.00  0.00    +0.000 S 
ATOM     15  N   UNL     1      67.550  81.022  52.971  0.00  0.00    +0.000 NA
ATOM     16  O   UNL     1      67.721  80.500  51.942  0.00  0.00    +0.000 OA
ATOM     17  O   UNL     1      68.703  81.138  53.105  0.00  0.00    +0.000 OA
ATOM     18  S   UNL     1      71.050  80.762  52.186  0.00  0.00    +0.000 S 
ATOM     19  O   UNL     1      70.721  81.097  52.865  0.00  0.00    +0.000 OA
ATOM     20  O   UNL     1      71.378  80.426  51.508  0.00  0.00    +0.000 OA
ATOM     21  N   UNL     1      71.806  80.937  52.466  0.00  0.00    +0.000 NA
ATOM     22  C   UNL     1      72.468  80.733  52.018  0.00  0.00    +0.000 C 
ATOM     23  C   UNL     1      73.225  80.908  52.297  0.00  0.00    +0.000 C 
ATOM     24  C   UNL     1      73.886  80.705  51.850  0.00  0.00    +0.000 C 
ENDROOT
TORSDOF 0
ENDMDL
MODEL 7
REMARK VINA RESULT:    -9.004     25.108     26.103
REMARK INTER + INTRA:          -9.004
REMARK INTER:                  -9.004
REMARK INTRA:                   0.000
REMARK UNBOUND:                 0.000
ROOT
REMARK  Name = ambuside
REMARK                            x       y       z     vdW  Elec       q    Type
REMARK                         _______ _______ _______ _____ _____    ______ ____
ATOM      1  C   UNL     1      73.883  80.847  51.837  0.00  0.00    +0.000 C 
ATOM      2  C   UNL     1      73.116  80.981  52.109  0.00  0.00    +0.000 C 
ATOM      3  O   UNL     1      72.991  81.443  52.780  0.00  0.00    +0.000 OA
ATOM      4  C   UNL     1      72.474  80.652  51.709  0.00  0.00    +0.000 C 
ATOM      5  C   UNL     1      71.706  80.786  51.980  0.00  0.00    +0.000 C 
ATOM      6  N   UNL     1      71.063  80.457  51.580  0.00  0.00    +0.000 NA
ATOM      7  C   UNL     1      70.297  80.591  51.852  0.00  0.00    +0.000 A 
ATOM      8  C   UNL     1      69.654  80.262  51.452  0.00  0.00    +0.000 A 
ATOM      9  C   UNL     1      68.887  80.396  51.724  0.00  0.00    +0.000 A 
ATOM     10  C   UNL     1      68.762  80.858  52.395  0.00  0.00    +0.000 A 
ATOM     11  C   UNL     1      69.404  81.187  52.796  0.00  0.00    +0.000 A 
ATOM     12 CL   UNL     1      69.280  81.650  53.468  0.00  0.00    +0.000 Cl
ATOM     13  C   UNL     1      70.172  81.053  52.524  0.00  0.00    +0.000 A 
ATOM     14  S   UNL     1      67.994  80.992  52.667  0.00  0.00    +0.000 S 
ATOM     15  N   UNL     1      67.227  81.126  52.939  0.00  0.00    +0.000 NA
ATOM     16  O   UNL     1      68.293  81.449  53.287  0.00  0.00    +0.000 OA
ATOM     17  O   UNL     1      67.695  80.535  52.049  0.00  0.00    +0.000 OA
ATOM     18  S   UNL     1      69.780  79.800  50.781  0.00  0.00    +0.000 S 
ATOM     19  O   UNL     1      68.965  79.687  50.707  0.00  0.00    +0.000 OA
ATOM     20  O   UNL     1      70.593  79.912  50.855  0.00  0.00    +0.000 OA
ATOM     21  N   UNL     1      69.904  79.337  50.109  0.00  0.00    +0.000 NA
ATOM     22  C   UNL     1      70.671  79.203  49.837  0.00  0.00    +0.000 C 
ATOM     23  C   UNL     1      70.797  78.741  49.166  0.00  0.00    +0.000 C 
ATOM     24  C   UNL     1      71.564  78.608  48.894  0.00  0.00    +0.000 C 
ENDROOT
TORSDOF 0
ENDMDL
MODEL 8
REMARK VINA RESULT:    -8.772     18.986     20.425
REMARK INTER + INTRA:          -8.772
REMARK INTER:                  -8.772
REMARK INTRA:                   0.000
REMARK UNBOUND:                 0.000
ROOT
REMARK  Name = ambuside
REMARK                            x       y       z     vdW  Elec       q    Type
REMARK                         _______ _______ _______ _____ _____    ______ ____
ATOM      1  C   UNL     1      63.160  59.690  49.302  0.00  0.00    +0.000 C 
ATOM      2  C   UNL     1      63.581  60.271  49.708  0.00  0.00    +0.000 C 
ATOM      3  O   UNL     1      63.994  60.849  49.288  0.00  0.00    +0.000 OA
ATOM      4  C   UNL     1      63.590  60.275  50.533  0.00  0.00    +0.000 C 
ATOM      5  C   UNL     1      64.011  60.856  50.938  0.00  0.00    +0.000 C 
ATOM      6  N   UNL     1      64.020  60.860  51.764  0.00  0.00    +0.000 NA
ATOM      7  C   UNL     1      64.441  61.441  52.169  0.00  0.00    +0.000 A 
ATOM      8  C   UNL     1      64.451  61.445  52.994  0.00  0.00    +0.000 A 
ATOM      9  C   UNL     1      64.872  62.027  53.399  0.00  0.00    +0.000 A 
ATOM     10  C   UNL     1      65.285  62.605  52.980  0.00  0.00    +0.000 A 
ATOM     11  C   UNL     1      65.276  62.602  52.155  0.00  0.00    +0.000 A 
ATOM     12 CL   UNL     1      65.689  63.180  51.735  0.00  0.00    +0.000 Cl
ATOM     13  C   UNL     1      64.855  62.020  51.749  0.00  0.00    +0.000 A 
ATOM     14  S   UNL     1      65.707  63.187  53.386  0.00  0.00    +0.000 S 
ATOM     15  N   UNL     1      66.128  63.768  53.791  0.00  0.00    +0.000 NA
ATOM     16  O   UNL     1      65.940  63.520  52.666  0.00  0.00    +0.000 OA
ATOM     17  O   UNL     1      65.474  62.856  54.104  0.00  0.00    +0.000 OA
ATOM     18  S   UNL     1      64.038  60.867  53.413  0.00  0.00    +0.000 S 
ATOM     19  O   UNL     1      64.287  61.205  54.124  0.00  0.00    +0.000 OA
ATOM     20  O   UNL     1      63.789  60.529  52.703  0.00  0.00    +0.000 OA
ATOM     21  N   UNL     1      63.625  60.289  53.833  0.00  0.00    +0.000 NA
ATOM     22  C   UNL     1      63.204  59.707  53.427  0.00  0.00    +0.000 C 
ATOM     23  C   UNL     1      62.791  59.129  53.846  0.00  0.00    +0.000 C 
ATOM     24  C   UNL     1      62.370  58.548  53.441  0.00  0.00    +0.000 C 
ENDROOT
TORSDOF 0
ENDMDL
MODEL 9
REMARK VINA RESULT:    -8.702     18.528     19.839
REMARK INTER + INTRA:          -8.702
REMARK INTER:                  -8.702
REMARK INTRA:                   0.000
REMARK UNBOUND:                 0.000
ROOT
REMARK  Name = ambuside
REMARK                            x       y       z     vdW  Elec       q    Type
REMARK                         _______ _______ _______ _____ _____    ______ ____
ATOM      1  C   UNL     1      65.382  62.797  49.536  0.00  0.00    +0.000 C 
ATOM      2  C   UNL     1      65.003  62.209  49.973  0.00  0.00    +0.000 C 
ATOM      3  O   UNL     1      64.621  61.589  49.586  0.00  0.00    +0.000 OA
ATOM      4  C   UNL     1      65.008  62.241  50.798  0.00  0.00    +0.000 C 
ATOM      5  C   UNL     1      64.629  61.652  51.235  0.00  0.00    +0.000 C 
ATOM      6  N   UNL     1      64.633  61.684  52.060  0.00  0.00    +0.000 NA
ATOM      7  C   UNL     1      64.255  61.096  52.497  0.00  0.00    +0.000 A 
ATOM      8  C   UNL     1      64.259  61.127  53.321  0.00  0.00    +0.000 A 
ATOM      9  C   UNL     1      63.880  60.539  53.758  0.00  0.00    +0.000 A 
ATOM     10  C   UNL     1      63.498  59.920  53.371  0.00  0.00    +0.000 A 
ATOM     11  C   UNL     1      63.493  59.887  52.547  0.00  0.00    +0.000 A 
ATOM     12 CL   UNL     1      63.111  59.268  52.159  0.00  0.00    +0.000 Cl
ATOM     13  C   UNL     1      63.872  60.476  52.109  0.00  0.00    +0.000 A 
ATOM     14  S   UNL     1      63.119  59.331  53.809  0.00  0.00    +0.000 S 
ATOM     15  N   UNL     1      62.741  58.743  54.246  0.00  0.00    +0.000 NA
ATOM     16  O   UNL     1      62.895  58.954  53.109  0.00  0.00    +0.000 OA
ATOM     17  O   UNL     1      63.342  59.707  54.508  0.00  0.00    +0.000 OA
ATOM     18  S   UNL     1      64.642  61.747  53.707  0.00  0.00    +0.000 S 
ATOM     19  O   UNL     1      64.425  61.426  54.437  0.00  0.00    +0.000 OA
ATOM     20  O   UNL     1      64.858  62.069  52.980  0.00  0.00    +0.000 OA
ATOM     21  N   UNL     1      65.024  62.367  54.095  0.00  0.00    +0.000 NA
ATOM     22  C   UNL     1      65.403  62.955  53.658  0.00  0.00    +0.000 C 
ATOM     23  C   UNL     1      65.786  63.575  54.045  0.00  0.00    +0.000 C 
ATOM     24  C   UNL     1      66.164  64.163  53.608  0.00  0.00    +0.000 C 
ENDROOT
TORSDOF 0
ENDMDL
