MODEL 1
REMARK VINA RESULT:   -13.634      0.000      0.000
REMARK INTER + INTRA:         -13.634
REMARK INTER:                 -13.634
REMARK INTRA:                   0.000
REMARK UNBOUND:                 0.000
ROOT
REMARK  Name = amineptine
REMARK                            x       y       z     vdW  Elec       q    Type
REMARK                         _______ _______ _______ _____ _____    ______ ____
ATOM      1  O   UNL     1      66.295  67.736  69.912  0.00  0.00    +0.000 OA
ATOM      2  C   UNL     1      65.753  67.249  70.298  0.00  0.00    +0.000 C 
ATOM      3  O   UNL     1      65.693  67.266  71.120  0.00  0.00    +0.000 OA
ATOM      4  C   UNL     1      65.268  66.743  69.860  0.00  0.00    +0.000 C 
ATOM      5  C   UNL     1      64.725  66.257  70.245  0.00  0.00    +0.000 C 
ATOM      6  C   UNL     1      64.241  65.751  69.807  0.00  0.00    +0.000 C 
ATOM      7  C   UNL     1      63.698  65.264  70.193  0.00  0.00    +0.000 C 
ATOM      8  C   UNL     1      63.214  64.759  69.754  0.00  0.00    +0.000 C 
ATOM      9  C   UNL     1      62.671  64.272  70.140  0.00  0.00    +0.000 C 
ATOM     10  N   UNL     1      62.187  63.767  69.702  0.00  0.00    +0.000 NA
ATOM     11  C   UNL     1      61.644  63.280  70.087  0.00  0.00    +0.000 C 
ATOM     12  C   UNL     1      61.187  62.797  69.598  0.00  0.00    +0.000 A 
ATOM     13  C   UNL     1      61.377  62.907  68.803  0.00  0.00    +0.000 A 
ATOM     14  C   UNL     1      60.983  62.475  68.221  0.00  0.00    +0.000 A 
ATOM     15  C   UNL     1      60.399  61.933  68.434  0.00  0.00    +0.000 A 
ATOM     16  C   UNL     1      60.209  61.823  69.230  0.00  0.00    +0.000 A 
ATOM     17  C   UNL     1      60.604  62.255  69.812  0.00  0.00    +0.000 A 
ATOM     18  C   UNL     1      60.331  62.061  70.566  0.00  0.00    +0.000 C 
ATOM     19  C   UNL     1      60.577  62.363  71.294  0.00  0.00    +0.000 C 
ATOM     20  C   UNL     1      61.155  62.933  71.446  0.00  0.00    +0.000 A 
ATOM     21  C   UNL     1      61.229  63.077  72.256  0.00  0.00    +0.000 A 
ATOM     22  C   UNL     1      61.777  63.629  72.527  0.00  0.00    +0.000 A 
ATOM     23  C   UNL     1      62.253  64.037  71.990  0.00  0.00    +0.000 A 
ATOM     24  C   UNL     1      62.179  63.893  71.181  0.00  0.00    +0.000 A 
ATOM     25  C   UNL     1      61.629  63.340  70.909  0.00  0.00    +0.000 A 
ENDROOT
TORSDOF 0
ENDMDL
MODEL 2
REMARK VINA RESULT:   -13.477      2.722      4.530
REMARK INTER + INTRA:         -13.477
REMARK INTER:                 -13.477
REMARK INTRA:                   0.000
REMARK UNBOUND:                 0.000
ROOT
REMARK  Name = amineptine
REMARK                            x       y       z     vdW  Elec       q    Type
REMARK                         _______ _______ _______ _____ _____    ______ ____
ATOM      1  O   UNL     1      62.790  65.595  71.540  0.00  0.00    +0.000 OA
ATOM      2  C   UNL     1      62.269  65.195  71.041  0.00  0.00    +0.000 C 
ATOM      3  O   UNL     1      61.481  65.092  71.263  0.00  0.00    +0.000 OA
ATOM      4  C   UNL     1      62.537  64.897  70.319  0.00  0.00    +0.000 C 
ATOM      5  C   UNL     1      62.017  64.496  69.820  0.00  0.00    +0.000 C 
ATOM      6  C   UNL     1      62.285  64.198  69.098  0.00  0.00    +0.000 C 
ATOM      7  C   UNL     1      61.764  63.798  68.599  0.00  0.00    +0.000 C 
ATOM      8  C   UNL     1      62.032  63.500  67.877  0.00  0.00    +0.000 C 
ATOM      9  C   UNL     1      61.511  63.100  67.378  0.00  0.00    +0.000 C 
ATOM     10  N   UNL     1      61.780  62.802  66.656  0.00  0.00    +0.000 NA
ATOM     11  C   UNL     1      61.259  62.401  66.157  0.00  0.00    +0.000 C 
ATOM     12  C   UNL     1      61.582  62.126  65.450  0.00  0.00    +0.000 A 
ATOM     13  C   UNL     1      62.383  62.316  65.391  0.00  0.00    +0.000 A 
ATOM     14  C   UNL     1      62.813  62.091  64.723  0.00  0.00    +0.000 A 
ATOM     15  C   UNL     1      62.441  61.675  64.115  0.00  0.00    +0.000 A 
ATOM     16  C   UNL     1      61.640  61.485  64.174  0.00  0.00    +0.000 A 
ATOM     17  C   UNL     1      61.211  61.711  64.842  0.00  0.00    +0.000 A 
ATOM     18  C   UNL     1      60.424  61.467  64.790  0.00  0.00    +0.000 C 
ATOM     19  C   UNL     1      59.815  61.580  65.335  0.00  0.00    +0.000 C 
ATOM     20  C   UNL     1      59.842  61.963  66.065  0.00  0.00    +0.000 A 
ATOM     21  C   UNL     1      59.106  61.952  66.438  0.00  0.00    +0.000 A 
ATOM     22  C   UNL     1      59.013  62.307  67.177  0.00  0.00    +0.000 A 
ATOM     23  C   UNL     1      59.656  62.673  67.543  0.00  0.00    +0.000 A 
ATOM     24  C   UNL     1      60.392  62.684  67.170  0.00  0.00    +0.000 A 
ATOM     25  C   UNL     1      60.485  62.328  66.431  0.00  0.00    +0.000 A 
ENDROOT
TORSDOF 0
ENDMDL
MODEL 3
REMARK VINA RESULT:   -13.422      3.650      4.522
REMARK INTER + INTRA:         -13.422
REMARK INTER:                 -13.422
REMARK INTRA:                   0.000
REMARK UNBOUND:                 0.000
ROOT
REMARK  Name = amineptine
REMARK                            x       y       z     vdW  Elec       q    Type
REMARK                         _______ _______ _______ _____ _____    ______ ____
ATOM      1  O   UNL     1      62.359  62.095  64.207  0.00  0.00    +0.000 OA
ATOM      2  C   UNL     1      62.155  61.976  64.997  0.00  0.00    +0.000 C 
ATOM      3  O   UNL     1      62.234  61.229  65.337  0.00  0.00    +0.000 OA
ATOM      4  C   UNL     1      61.873  62.607  65.449  0.00  0.00    +0.000 C 
ATOM      5  C   UNL     1      61.669  62.489  66.239  0.00  0.00    +0.000 C 
ATOM      6  C   UNL     1      61.386  63.120  66.691  0.00  0.00    +0.000 C 
ATOM      7  C   UNL     1      61.183  63.002  67.481  0.00  0.00    +0.000 C 
ATOM      8  C   UNL     1      60.900  63.633  67.933  0.00  0.00    +0.000 C 
ATOM      9  C   UNL     1      60.697  63.515  68.723  0.00  0.00    +0.000 C 
ATOM     10  N   UNL     1      60.414  64.146  69.175  0.00  0.00    +0.000 NA
ATOM     11  C   UNL     1      60.211  64.028  69.965  0.00  0.00    +0.000 C 
ATOM     12  C   UNL     1      59.934  64.694  70.367  0.00  0.00    +0.000 A 
ATOM     13  C   UNL     1      59.920  65.357  69.876  0.00  0.00    +0.000 A 
ATOM     14  C   UNL     1      59.660  66.083  70.171  0.00  0.00    +0.000 A 
ATOM     15  C   UNL     1      59.416  66.146  70.955  0.00  0.00    +0.000 A 
ATOM     16  C   UNL     1      59.430  65.482  71.447  0.00  0.00    +0.000 A 
ATOM     17  C   UNL     1      59.689  64.756  71.152  0.00  0.00    +0.000 A 
ATOM     18  C   UNL     1      59.660  64.169  71.730  0.00  0.00    +0.000 C 
ATOM     19  C   UNL     1      59.869  63.373  71.665  0.00  0.00    +0.000 C 
ATOM     20  C   UNL     1      60.158  62.969  71.007  0.00  0.00    +0.000 A 
ATOM     21  C   UNL     1      60.297  62.174  71.179  0.00  0.00    +0.000 A 
ATOM     22  C   UNL     1      60.589  61.671  70.594  0.00  0.00    +0.000 A 
ATOM     23  C   UNL     1      60.741  61.962  69.837  0.00  0.00    +0.000 A 
ATOM     24  C   UNL     1      60.602  62.757  69.665  0.00  0.00    +0.000 A 
ATOM     25  C   UNL     1      60.310  63.261  70.251  0.00  0.00    +0.000 A 
ENDROOT
TORSDOF 0
ENDMDL
MODEL 4
REMARK VINA RESULT:   -12.437      3.015      4.446
REMARK INTER + INTRA:         -12.437
REMARK INTER:                 -12.437
REMARK INTRA:                   0.000
REMARK UNBOUND:                 0.000
ROOT
REMARK  Name = amineptine
REMARK                            x       y       z     vdW  Elec       q    Type
REMARK                         _______ _______ _______ _____ _____    ______ ____
ATOM      1  O   UNL     1      61.558  62.300  64.750  0.00  0.00    +0.000 OA
ATOM      2  C   UNL     1      61.481  62.135  65.554  0.00  0.00    +0.000 C 
ATOM      3  O   UNL     1      61.283  61.374  65.803  0.00  0.00    +0.000 OA
ATOM      4  C   UNL     1      61.603  62.734  66.110  0.00  0.00    +0.000 C 
ATOM      5  C   UNL     1      61.526  62.569  66.915  0.00  0.00    +0.000 C 
ATOM      6  C   UNL     1      61.648  63.167  67.471  0.00  0.00    +0.000 C 
ATOM      7  C   UNL     1      61.571  63.003  68.276  0.00  0.00    +0.000 C 
ATOM      8  C   UNL     1      61.693  63.601  68.832  0.00  0.00    +0.000 C 
ATOM      9  C   UNL     1      61.616  63.437  69.637  0.00  0.00    +0.000 C 
ATOM     10  N   UNL     1      61.738  64.035  70.193  0.00  0.00    +0.000 NA
ATOM     11  C   UNL     1      61.661  63.871  70.998  0.00  0.00    +0.000 C 
ATOM     12  C   UNL     1      61.794  64.507  71.507  0.00  0.00    +0.000 A 
ATOM     13  C   UNL     1      61.982  65.193  71.089  0.00  0.00    +0.000 A 
ATOM     14  C   UNL     1      62.135  65.895  71.495  0.00  0.00    +0.000 A 
ATOM     15  C   UNL     1      62.102  65.910  72.319  0.00  0.00    +0.000 A 
ATOM     16  C   UNL     1      61.915  65.223  72.737  0.00  0.00    +0.000 A 
ATOM     17  C   UNL     1      61.761  64.522  72.330  0.00  0.00    +0.000 A 
ATOM     18  C   UNL     1      61.586  63.905  72.850  0.00  0.00    +0.000 C 
ATOM     19  C   UNL     1      61.402  63.121  72.672  0.00  0.00    +0.000 C 
ATOM     20  C   UNL     1      61.347  62.760  71.932  0.00  0.00    +0.000 A 
ATOM     21  C   UNL     1      61.148  61.961  72.001  0.00  0.00    +0.000 A 
ATOM     22  C   UNL     1      61.065  61.498  71.324  0.00  0.00    +0.000 A 
ATOM     23  C   UNL     1      61.180  61.832  70.579  0.00  0.00    +0.000 A 
ATOM     24  C   UNL     1      61.379  62.630  70.510  0.00  0.00    +0.000 A 
ATOM     25  C   UNL     1      61.462  63.094  71.188  0.00  0.00    +0.000 A 
ENDROOT
TORSDOF 0
ENDMDL
MODEL 5
REMARK VINA RESULT:   -12.010      2.970      4.981
REMARK INTER + INTRA:         -12.010
REMARK INTER:                 -12.010
REMARK INTRA:                   0.000
REMARK UNBOUND:                 0.000
ROOT
REMARK  Name = amineptine
REMARK                            x       y       z     vdW  Elec       q    Type
REMARK                         _______ _______ _______ _____ _____    ______ ____
ATOM      1  O   UNL     1      59.414  61.778  65.596  0.00  0.00    +0.000 OA
ATOM      2  C   UNL     1      59.554  62.044  66.364  0.00  0.00    +0.000 C 
ATOM      3  O   UNL     1      59.008  61.884  66.962  0.00  0.00    +0.000 OA
ATOM      4  C   UNL     1      60.241  62.469  66.535  0.00  0.00    +0.000 C 
ATOM      5  C   UNL     1      60.380  62.735  67.303  0.00  0.00    +0.000 C 
ATOM      6  C   UNL     1      61.067  63.161  67.474  0.00  0.00    +0.000 C 
ATOM      7  C   UNL     1      61.207  63.426  68.242  0.00  0.00    +0.000 C 
ATOM      8  C   UNL     1      61.894  63.852  68.412  0.00  0.00    +0.000 C 
ATOM      9  C   UNL     1      62.033  64.117  69.181  0.00  0.00    +0.000 C 
ATOM     10  N   UNL     1      62.720  64.543  69.351  0.00  0.00    +0.000 NA
ATOM     11  C   UNL     1      62.860  64.809  70.119  0.00  0.00    +0.000 C 
ATOM     12  C   UNL     1      63.562  65.228  70.230  0.00  0.00    +0.000 A 
ATOM     13  C   UNL     1      63.987  65.295  69.527  0.00  0.00    +0.000 A 
ATOM     14  C   UNL     1      64.709  65.696  69.517  0.00  0.00    +0.000 A 
ATOM     15  C   UNL     1      65.004  66.030  70.211  0.00  0.00    +0.000 A 
ATOM     16  C   UNL     1      64.578  65.964  70.915  0.00  0.00    +0.000 A 
ATOM     17  C   UNL     1      63.857  65.563  70.924  0.00  0.00    +0.000 A 
ATOM     18  C   UNL     1      63.524  65.560  71.679  0.00  0.00    +0.000 C 
ATOM     19  C   UNL     1      62.812  65.223  71.925  0.00  0.00    +0.000 C 
ATOM     20  C   UNL     1      62.259  64.804  71.478  0.00  0.00    +0.000 A 
ATOM     21  C   UNL     1      61.621  64.560  71.941  0.00  0.00    +0.000 A 
ATOM     22  C   UNL     1      61.004  64.132  71.600  0.00  0.00    +0.000 A 
ATOM     23  C   UNL     1      61.025  63.948  70.796  0.00  0.00    +0.000 A 
ATOM     24  C   UNL     1      61.664  64.192  70.333  0.00  0.00    +0.000 A 
ATOM     25  C   UNL     1      62.281  64.620  70.675  0.00  0.00    +0.000 A 
ENDROOT
TORSDOF 0
ENDMDL
MODEL 6
REMARK VINA RESULT:   -11.965      2.058      2.347
REMARK INTER + INTRA:         -11.965
REMARK INTER:                 -11.965
REMARK INTRA:                   0.000
REMARK UNBOUND:                 0.000
ROOT
REMARK  Name = amineptine
REMARK                            x       y       z     vdW  Elec       q    Type
REMARK                         _______ _______ _______ _____ _____    ______ ____
ATOM      1  O   UNL     1      62.451  68.757  72.577  0.00  0.00    +0.000 OA
ATOM      2  C   UNL     1      62.219  67.966  72.529  0.00  0.00    +0.000 C 
ATOM      3  O   UNL     1      62.074  67.536  73.217  0.00  0.00    +0.000 OA
ATOM      4  C   UNL     1      62.133  67.607  71.791  0.00  0.00    +0.000 C 
ATOM      5  C   UNL     1      61.901  66.817  71.742  0.00  0.00    +0.000 C 
ATOM      6  C   UNL     1      61.814  66.457  71.004  0.00  0.00    +0.000 C 
ATOM      7  C   UNL     1      61.582  65.667  70.956  0.00  0.00    +0.000 C 
ATOM      8  C   UNL     1      61.496  65.307  70.217  0.00  0.00    +0.000 C 
ATOM      9  C   UNL     1      61.264  64.517  70.169  0.00  0.00    +0.000 C 
ATOM     10  N   UNL     1      61.177  64.157  69.431  0.00  0.00    +0.000 NA
ATOM     11  C   UNL     1      60.946  63.367  69.383  0.00  0.00    +0.000 C 
ATOM     12  C   UNL     1      60.875  63.061  68.619  0.00  0.00    +0.000 A 
ATOM     13  C   UNL     1      61.058  63.629  68.049  0.00  0.00    +0.000 A 
ATOM     14  C   UNL     1      61.022  63.436  67.247  0.00  0.00    +0.000 A 
ATOM     15  C   UNL     1      60.804  62.675  67.016  0.00  0.00    +0.000 A 
ATOM     16  C   UNL     1      60.621  62.107  67.587  0.00  0.00    +0.000 A 
ATOM     17  C   UNL     1      60.657  62.301  68.388  0.00  0.00    +0.000 A 
ATOM     18  C   UNL     1      60.455  61.657  68.863  0.00  0.00    +0.000 C 
ATOM     19  C   UNL     1      60.421  61.616  69.686  0.00  0.00    +0.000 C 
ATOM     20  C   UNL     1      60.581  62.208  70.238  0.00  0.00    +0.000 A 
ATOM     21  C   UNL     1      60.480  61.935  71.010  0.00  0.00    +0.000 A 
ATOM     22  C   UNL     1      60.613  62.442  71.647  0.00  0.00    +0.000 A 
ATOM     23  C   UNL     1      60.847  63.222  71.512  0.00  0.00    +0.000 A 
ATOM     24  C   UNL     1      60.948  63.495  70.739  0.00  0.00    +0.000 A 
ATOM     25  C   UNL     1      60.814  62.987  70.102  0.00  0.00    +0.000 A 
ENDROOT
TORSDOF 0
ENDMDL
MODEL 7
REMARK VINA RESULT:   -11.470      2.227      2.738
REMARK INTER + INTRA:         -11.470
REMARK INTER:                 -11.470
REMARK INTRA:                   0.000
REMARK UNBOUND:                 0.000
ROOT
REMARK  Name = amineptine
REMARK                            x       y       z     vdW  Elec       q    Type
REMARK                         _______ _______ _______ _____ _____    ______ ____
ATOM      1  O   UNL     1      67.625  67.180  72.023  0.00  0.00    +0.000 OA
ATOM      2  C   UNL     1      66.922  66.757  72.103  0.00  0.00    +0.000 C 
ATOM      3  O   UNL     1      66.877  66.128  72.635  0.00  0.00    +0.000 OA
ATOM      4  C   UNL     1      66.263  66.963  71.650  0.00  0.00    +0.000 C 
ATOM      5  C   UNL     1      65.559  66.540  71.731  0.00  0.00    +0.000 C 
ATOM      6  C   UNL     1      64.900  66.746  71.278  0.00  0.00    +0.000 C 
ATOM      7  C   UNL     1      64.197  66.323  71.358  0.00  0.00    +0.000 C 
ATOM      8  C   UNL     1      63.538  66.530  70.906  0.00  0.00    +0.000 C 
ATOM      9  C   UNL     1      62.834  66.106  70.986  0.00  0.00    +0.000 C 
ATOM     10  N   UNL     1      62.175  66.313  70.534  0.00  0.00    +0.000 NA
ATOM     11  C   UNL     1      61.472  65.889  70.614  0.00  0.00    +0.000 C 
ATOM     12  C   UNL     1      60.847  66.140  70.137  0.00  0.00    +0.000 A 
ATOM     13  C   UNL     1      61.067  66.781  69.666  0.00  0.00    +0.000 A 
ATOM     14  C   UNL     1      60.521  67.118  69.146  0.00  0.00    +0.000 A 
ATOM     15  C   UNL     1      59.756  66.813  69.097  0.00  0.00    +0.000 A 
ATOM     16  C   UNL     1      59.536  66.172  69.569  0.00  0.00    +0.000 A 
ATOM     17  C   UNL     1      60.082  65.836  70.088  0.00  0.00    +0.000 A 
ATOM     18  C   UNL     1      59.752  65.204  70.504  0.00  0.00    +0.000 C 
ATOM     19  C   UNL     1      60.107  64.723  71.072  0.00  0.00    +0.000 C 
ATOM     20  C   UNL     1      60.878  64.753  71.364  0.00  0.00    +0.000 A 
ATOM     21  C   UNL     1      61.009  64.167  71.931  0.00  0.00    +0.000 A 
ATOM     22  C   UNL     1      61.747  64.101  72.293  0.00  0.00    +0.000 A 
ATOM     23  C   UNL     1      62.354  64.621  72.089  0.00  0.00    +0.000 A 
ATOM     24  C   UNL     1      62.224  65.206  71.522  0.00  0.00    +0.000 A 
ATOM     25  C   UNL     1      61.485  65.272  71.160  0.00  0.00    +0.000 A 
ENDROOT
TORSDOF 0
ENDMDL
MODEL 8
REMARK VINA RESULT:   -11.441      2.501      3.458
REMARK INTER + INTRA:         -11.441
REMARK INTER:                 -11.441
REMARK INTRA:                   0.000
REMARK UNBOUND:                 0.000
ROOT
REMARK  Name = amineptine
REMARK                            x       y       z     vdW  Elec       q    Type
REMARK                         _______ _______ _______ _____ _____    ______ ____
ATOM      1  O   UNL     1      66.504  67.417  71.558  0.00  0.00    +0.000 OA
ATOM      2  C   UNL     1      65.889  66.869  71.517  0.00  0.00    +0.000 C 
ATOM      3  O   UNL     1      66.029  66.111  71.224  0.00  0.00    +0.000 OA
ATOM      4  C   UNL     1      65.132  67.080  71.772  0.00  0.00    +0.000 C 
ATOM      5  C   UNL     1      64.517  66.533  71.732  0.00  0.00    +0.000 C 
ATOM      6  C   UNL     1      63.760  66.744  71.986  0.00  0.00    +0.000 C 
ATOM      7  C   UNL     1      63.144  66.196  71.946  0.00  0.00    +0.000 C 
ATOM      8  C   UNL     1      62.388  66.407  72.200  0.00  0.00    +0.000 C 
ATOM      9  C   UNL     1      61.772  65.860  72.160  0.00  0.00    +0.000 C 
ATOM     10  N   UNL     1      61.016  66.071  72.414  0.00  0.00    +0.000 NA
ATOM     11  C   UNL     1      60.400  65.523  72.374  0.00  0.00    +0.000 C 
ATOM     12  C   UNL     1      59.666  65.790  72.641  0.00  0.00    +0.000 A 
ATOM     13  C   UNL     1      59.706  66.572  72.900  0.00  0.00    +0.000 A 
ATOM     14  C   UNL     1      59.030  66.946  73.191  0.00  0.00    +0.000 A 
ATOM     15  C   UNL     1      58.315  66.537  73.222  0.00  0.00    +0.000 A 
ATOM     16  C   UNL     1      58.275  65.754  72.963  0.00  0.00    +0.000 A 
ATOM     17  C   UNL     1      58.951  65.381  72.673  0.00  0.00    +0.000 A 
ATOM     18  C   UNL     1      58.791  64.605  72.445  0.00  0.00    +0.000 C 
ATOM     19  C   UNL     1      59.309  64.046  72.129  0.00  0.00    +0.000 C 
ATOM     20  C   UNL     1      60.113  64.125  71.963  0.00  0.00    +0.000 A 
ATOM     21  C   UNL     1      60.426  63.428  71.649  0.00  0.00    +0.000 A 
ATOM     22  C   UNL     1      61.224  63.390  71.444  0.00  0.00    +0.000 A 
ATOM     23  C   UNL     1      61.709  64.048  71.553  0.00  0.00    +0.000 A 
ATOM     24  C   UNL     1      61.397  64.745  71.867  0.00  0.00    +0.000 A 
ATOM     25  C   UNL     1      60.598  64.782  72.072  0.00  0.00    +0.000 A 
ENDROOT
TORSDOF 0
ENDMDL
