MODEL 1
REMARK VINA RESULT:    -6.999      0.000      0.000
REMARK INTER + INTRA:          -6.999
REMARK INTER:                  -6.999
REMARK INTRA:                   0.000
REMARK UNBOUND:                 0.000
ROOT
REMARK  Name = aminomethylbenzoic acid
REMARK                            x       y       z     vdW  Elec       q    Type
REMARK                         _______ _______ _______ _____ _____    ______ ____
ATOM      1  N   UNL     1      60.988  62.635  67.125  0.00  0.00    +0.000 NA
ATOM      2  C   UNL     1      61.661  62.686  66.649  0.00  0.00    +0.000 C 
ATOM      3  C   UNL     1      61.665  62.335  65.903  0.00  0.00    +0.000 A 
ATOM      4  C   UNL     1      62.337  62.386  65.427  0.00  0.00    +0.000 A 
ATOM      5  C   UNL     1      62.342  62.034  64.681  0.00  0.00    +0.000 A 
ATOM      6  C   UNL     1      61.675  61.631  64.411  0.00  0.00    +0.000 A 
ATOM      7  C   UNL     1      61.003  61.579  64.887  0.00  0.00    +0.000 A 
ATOM      8  C   UNL     1      60.998  61.931  65.633  0.00  0.00    +0.000 A 
ATOM      9  C   UNL     1      61.680  61.278  63.664  0.00  0.00    +0.000 C 
ATOM     10  O   UNL     1      62.352  61.330  63.189  0.00  0.00    +0.000 OA
ATOM     11  O   UNL     1      61.012  60.875  63.394  0.00  0.00    +0.000 OA
ENDROOT
TORSDOF 0
ENDMDL
MODEL 2
REMARK VINA RESULT:    -6.977      2.179      2.906
REMARK INTER + INTRA:          -6.977
REMARK INTER:                  -6.977
REMARK INTRA:                   0.000
REMARK UNBOUND:                 0.000
ROOT
REMARK  Name = aminomethylbenzoic acid
REMARK                            x       y       z     vdW  Elec       q    Type
REMARK                         _______ _______ _______ _____ _____    ______ ____
ATOM      1  N   UNL     1      62.769  61.645  63.240  0.00  0.00    +0.000 NA
ATOM      2  C   UNL     1      62.047  61.421  63.573  0.00  0.00    +0.000 C 
ATOM      3  C   UNL     1      61.848  61.672  64.332  0.00  0.00    +0.000 A 
ATOM      4  C   UNL     1      61.127  61.449  64.665  0.00  0.00    +0.000 A 
ATOM      5  C   UNL     1      60.928  61.699  65.425  0.00  0.00    +0.000 A 
ATOM      6  C   UNL     1      61.450  62.173  65.853  0.00  0.00    +0.000 A 
ATOM      7  C   UNL     1      62.171  62.397  65.521  0.00  0.00    +0.000 A 
ATOM      8  C   UNL     1      62.370  62.146  64.761  0.00  0.00    +0.000 A 
ATOM      9  C   UNL     1      61.250  62.424  66.614  0.00  0.00    +0.000 C 
ATOM     10  O   UNL     1      60.529  62.201  66.946  0.00  0.00    +0.000 OA
ATOM     11  O   UNL     1      61.773  62.898  67.042  0.00  0.00    +0.000 OA
ENDROOT
TORSDOF 0
ENDMDL
MODEL 3
REMARK VINA RESULT:    -6.103      6.395      7.111
REMARK INTER + INTRA:          -6.103
REMARK INTER:                  -6.103
REMARK INTRA:                   0.000
REMARK UNBOUND:                 0.000
ROOT
REMARK  Name = aminomethylbenzoic acid
REMARK                            x       y       z     vdW  Elec       q    Type
REMARK                         _______ _______ _______ _____ _____    ______ ____
ATOM      1  N   UNL     1      59.930  65.114  72.702  0.00  0.00    +0.000 NA
ATOM      2  C   UNL     1      60.563  64.613  72.873  0.00  0.00    +0.000 C 
ATOM      3  C   UNL     1      60.666  63.917  72.444  0.00  0.00    +0.000 A 
ATOM      4  C   UNL     1      61.298  63.416  72.614  0.00  0.00    +0.000 A 
ATOM      5  C   UNL     1      61.401  62.719  72.185  0.00  0.00    +0.000 A 
ATOM      6  C   UNL     1      60.871  62.523  71.585  0.00  0.00    +0.000 A 
ATOM      7  C   UNL     1      60.237  63.023  71.413  0.00  0.00    +0.000 A 
ATOM      8  C   UNL     1      60.135  63.720  71.843  0.00  0.00    +0.000 A 
ATOM      9  C   UNL     1      60.974  61.825  71.155  0.00  0.00    +0.000 C 
ATOM     10  O   UNL     1      61.606  61.325  71.325  0.00  0.00    +0.000 OA
ATOM     11  O   UNL     1      60.443  61.630  70.554  0.00  0.00    +0.000 OA
ENDROOT
TORSDOF 0
ENDMDL
MODEL 4
REMARK VINA RESULT:    -6.090      5.920      6.954
REMARK INTER + INTRA:          -6.090
REMARK INTER:                  -6.090
REMARK INTRA:                   0.000
REMARK UNBOUND:                 0.000
ROOT
REMARK  Name = aminomethylbenzoic acid
REMARK                            x       y       z     vdW  Elec       q    Type
REMARK                         _______ _______ _______ _____ _____    ______ ____
ATOM      1  N   UNL     1      60.233  62.295  69.121  0.00  0.00    +0.000 NA
ATOM      2  C   UNL     1      60.596  61.808  69.681  0.00  0.00    +0.000 C 
ATOM      3  C   UNL     1      60.793  62.108  70.422  0.00  0.00    +0.000 A 
ATOM      4  C   UNL     1      61.155  61.622  70.982  0.00  0.00    +0.000 A 
ATOM      5  C   UNL     1      61.353  61.922  71.724  0.00  0.00    +0.000 A 
ATOM      6  C   UNL     1      61.188  62.709  71.907  0.00  0.00    +0.000 A 
ATOM      7  C   UNL     1      60.826  63.196  71.349  0.00  0.00    +0.000 A 
ATOM      8  C   UNL     1      60.628  62.896  70.606  0.00  0.00    +0.000 A 
ATOM      9  C   UNL     1      61.386  63.010  72.651  0.00  0.00    +0.000 C 
ATOM     10  O   UNL     1      61.748  62.523  73.209  0.00  0.00    +0.000 OA
ATOM     11  O   UNL     1      61.220  63.797  72.834  0.00  0.00    +0.000 OA
ENDROOT
TORSDOF 0
ENDMDL
MODEL 5
REMARK VINA RESULT:    -5.933      6.978      7.655
REMARK INTER + INTRA:          -5.933
REMARK INTER:                  -5.933
REMARK INTRA:                   0.000
REMARK UNBOUND:                 0.000
ROOT
REMARK  Name = aminomethylbenzoic acid
REMARK                            x       y       z     vdW  Elec       q    Type
REMARK                         _______ _______ _______ _____ _____    ______ ____
ATOM      1  N   UNL     1      61.955  61.217  71.727  0.00  0.00    +0.000 NA
ATOM      2  C   UNL     1      61.303  61.566  71.361  0.00  0.00    +0.000 C 
ATOM      3  C   UNL     1      61.016  62.290  71.632  0.00  0.00    +0.000 A 
ATOM      4  C   UNL     1      60.364  62.639  71.267  0.00  0.00    +0.000 A 
ATOM      5  C   UNL     1      60.077  63.363  71.539  0.00  0.00    +0.000 A 
ATOM      6  C   UNL     1      60.442  63.738  72.175  0.00  0.00    +0.000 A 
ATOM      7  C   UNL     1      61.095  63.390  72.542  0.00  0.00    +0.000 A 
ATOM      8  C   UNL     1      61.382  62.666  72.270  0.00  0.00    +0.000 A 
ATOM      9  C   UNL     1      60.155  64.464  72.447  0.00  0.00    +0.000 C 
ATOM     10  O   UNL     1      59.504  64.812  72.082  0.00  0.00    +0.000 OA
ATOM     11  O   UNL     1      60.521  64.839  73.085  0.00  0.00    +0.000 OA
ENDROOT
TORSDOF 0
ENDMDL
MODEL 6
REMARK VINA RESULT:    -5.897      2.828      3.684
REMARK INTER + INTRA:          -5.897
REMARK INTER:                  -5.897
REMARK INTRA:                   0.000
REMARK UNBOUND:                 0.000
ROOT
REMARK  Name = aminomethylbenzoic acid
REMARK                            x       y       z     vdW  Elec       q    Type
REMARK                         _______ _______ _______ _____ _____    ______ ____
ATOM      1  N   UNL     1      60.779  61.344  64.839  0.00  0.00    +0.000 NA
ATOM      2  C   UNL     1      60.138  61.592  65.297  0.00  0.00    +0.000 C 
ATOM      3  C   UNL     1      60.268  61.959  66.024  0.00  0.00    +0.000 A 
ATOM      4  C   UNL     1      59.629  62.208  66.481  0.00  0.00    +0.000 A 
ATOM      5  C   UNL     1      59.759  62.574  67.209  0.00  0.00    +0.000 A 
ATOM      6  C   UNL     1      60.529  62.693  67.478  0.00  0.00    +0.000 A 
ATOM      7  C   UNL     1      61.170  62.444  67.021  0.00  0.00    +0.000 A 
ATOM      8  C   UNL     1      61.040  62.077  66.294  0.00  0.00    +0.000 A 
ATOM      9  C   UNL     1      60.660  63.060  68.207  0.00  0.00    +0.000 C 
ATOM     10  O   UNL     1      60.020  63.308  68.663  0.00  0.00    +0.000 OA
ATOM     11  O   UNL     1      61.431  63.178  68.476  0.00  0.00    +0.000 OA
ENDROOT
TORSDOF 0
ENDMDL
MODEL 7
REMARK VINA RESULT:    -5.827      7.389      8.303
REMARK INTER + INTRA:          -5.827
REMARK INTER:                  -5.827
REMARK INTRA:                   0.000
REMARK UNBOUND:                 0.000
ROOT
REMARK  Name = aminomethylbenzoic acid
REMARK                            x       y       z     vdW  Elec       q    Type
REMARK                         _______ _______ _______ _____ _____    ______ ____
ATOM      1  N   UNL     1      63.108  65.751  69.468  0.00  0.00    +0.000 NA
ATOM      2  C   UNL     1      63.470  65.743  70.210  0.00  0.00    +0.000 C 
ATOM      3  C   UNL     1      64.194  66.121  70.320  0.00  0.00    +0.000 A 
ATOM      4  C   UNL     1      64.556  66.114  71.061  0.00  0.00    +0.000 A 
ATOM      5  C   UNL     1      65.280  66.493  71.171  0.00  0.00    +0.000 A 
ATOM      6  C   UNL     1      65.643  66.878  70.540  0.00  0.00    +0.000 A 
ATOM      7  C   UNL     1      65.283  66.887  69.797  0.00  0.00    +0.000 A 
ATOM      8  C   UNL     1      64.558  66.508  69.688  0.00  0.00    +0.000 A 
ATOM      9  C   UNL     1      66.369  67.258  70.649  0.00  0.00    +0.000 C 
ATOM     10  O   UNL     1      66.730  67.250  71.391  0.00  0.00    +0.000 OA
ATOM     11  O   UNL     1      66.732  67.644  70.017  0.00  0.00    +0.000 OA
ENDROOT
TORSDOF 0
ENDMDL
MODEL 8
REMARK VINA RESULT:    -5.771      4.464      5.508
REMARK INTER + INTRA:          -5.771
REMARK INTER:                  -5.771
REMARK INTRA:                   0.000
REMARK UNBOUND:                 0.000
ROOT
REMARK  Name = aminomethylbenzoic acid
REMARK                            x       y       z     vdW  Elec       q    Type
REMARK                         _______ _______ _______ _____ _____    ______ ____
ATOM      1  N   UNL     1      61.255  63.415  72.408  0.00  0.00    +0.000 NA
ATOM      2  C   UNL     1      61.006  62.690  72.100  0.00  0.00    +0.000 C 
ATOM      3  C   UNL     1      60.884  62.607  71.289  0.00  0.00    +0.000 A 
ATOM      4  C   UNL     1      60.636  61.883  70.982  0.00  0.00    +0.000 A 
ATOM      5  C   UNL     1      60.513  61.799  70.170  0.00  0.00    +0.000 A 
ATOM      6  C   UNL     1      60.638  62.440  69.666  0.00  0.00    +0.000 A 
ATOM      7  C   UNL     1      60.887  63.164  69.973  0.00  0.00    +0.000 A 
ATOM      8  C   UNL     1      61.010  63.248  70.785  0.00  0.00    +0.000 A 
ATOM      9  C   UNL     1      60.516  62.356  68.854  0.00  0.00    +0.000 C 
ATOM     10  O   UNL     1      60.267  61.632  68.547  0.00  0.00    +0.000 OA
ATOM     11  O   UNL     1      60.642  62.997  68.350  0.00  0.00    +0.000 OA
ENDROOT
TORSDOF 0
ENDMDL
MODEL 9
REMARK VINA RESULT:    -5.653      7.336      8.092
REMARK INTER + INTRA:          -5.653
REMARK INTER:                  -5.653
REMARK INTRA:                   0.000
REMARK UNBOUND:                 0.000
ROOT
REMARK  Name = aminomethylbenzoic acid
REMARK                            x       y       z     vdW  Elec       q    Type
REMARK                         _______ _______ _______ _____ _____    ______ ____
ATOM      1  N   UNL     1      66.483  67.635  70.381  0.00  0.00    +0.000 NA
ATOM      2  C   UNL     1      65.950  67.262  69.872  0.00  0.00    +0.000 C 
ATOM      3  C   UNL     1      65.285  66.885  70.178  0.00  0.00    +0.000 A 
ATOM      4  C   UNL     1      64.752  66.512  69.670  0.00  0.00    +0.000 A 
ATOM      5  C   UNL     1      64.085  66.134  69.976  0.00  0.00    +0.000 A 
ATOM      6  C   UNL     1      63.951  66.130  70.789  0.00  0.00    +0.000 A 
ATOM      7  C   UNL     1      64.483  66.502  71.298  0.00  0.00    +0.000 A 
ATOM      8  C   UNL     1      65.150  66.880  70.992  0.00  0.00    +0.000 A 
ATOM      9  C   UNL     1      63.284  65.751  71.095  0.00  0.00    +0.000 C 
ATOM     10  O   UNL     1      62.752  65.379  70.587  0.00  0.00    +0.000 OA
ATOM     11  O   UNL     1      63.150  65.747  71.909  0.00  0.00    +0.000 OA
ENDROOT
TORSDOF 0
ENDMDL
