MODEL 1
REMARK VINA RESULT:    -6.732      0.000      0.000
REMARK INTER + INTRA:          -6.732
REMARK INTER:                  -6.732
REMARK INTRA:                   0.000
REMARK UNBOUND:                 0.000
ROOT
REMARK  Name = aminosalicylic acid
REMARK                            x       y       z     vdW  Elec       q    Type
REMARK                         _______ _______ _______ _____ _____    ______ ____
ATOM      1  N   UNL     1      61.669  62.746  66.716  0.00  0.00    +0.000 NA
ATOM      2  C   UNL     1      61.683  62.403  65.967  0.00  0.00    +0.000 A 
ATOM      3  C   UNL     1      61.036  61.966  65.700  0.00  0.00    +0.000 A 
ATOM      4  C   UNL     1      61.049  61.623  64.950  0.00  0.00    +0.000 A 
ATOM      5  O   UNL     1      60.402  61.187  64.685  0.00  0.00    +0.000 OA
ATOM      6  C   UNL     1      61.710  61.716  64.467  0.00  0.00    +0.000 A 
ATOM      7  C   UNL     1      62.359  62.152  64.732  0.00  0.00    +0.000 A 
ATOM      8  C   UNL     1      62.345  62.496  65.482  0.00  0.00    +0.000 A 
ATOM      9  C   UNL     1      61.724  61.372  63.716  0.00  0.00    +0.000 C 
ATOM     10  O   UNL     1      61.077  60.936  63.451  0.00  0.00    +0.000 OA
ATOM     11  O   UNL     1      62.386  61.465  63.232  0.00  0.00    +0.000 OA
ENDROOT
TORSDOF 0
ENDMDL
MODEL 2
REMARK VINA RESULT:    -6.706      1.577      2.286
REMARK INTER + INTRA:          -6.706
REMARK INTER:                  -6.706
REMARK INTRA:                   0.000
REMARK UNBOUND:                 0.000
ROOT
REMARK  Name = aminosalicylic acid
REMARK                            x       y       z     vdW  Elec       q    Type
REMARK                         _______ _______ _______ _____ _____    ______ ____
ATOM      1  N   UNL     1      62.440  61.541  63.434  0.00  0.00    +0.000 NA
ATOM      2  C   UNL     1      62.098  61.750  64.154  0.00  0.00    +0.000 A 
ATOM      3  C   UNL     1      61.340  61.486  64.344  0.00  0.00    +0.000 A 
ATOM      4  C   UNL     1      60.998  61.696  65.065  0.00  0.00    +0.000 A 
ATOM      5  O   UNL     1      60.240  61.432  65.254  0.00  0.00    +0.000 OA
ATOM      6  C   UNL     1      61.414  62.169  65.596  0.00  0.00    +0.000 A 
ATOM      7  C   UNL     1      62.172  62.434  65.408  0.00  0.00    +0.000 A 
ATOM      8  C   UNL     1      62.515  62.225  64.687  0.00  0.00    +0.000 A 
ATOM      9  C   UNL     1      61.071  62.379  66.318  0.00  0.00    +0.000 C 
ATOM     10  O   UNL     1      60.314  62.115  66.507  0.00  0.00    +0.000 OA
ATOM     11  O   UNL     1      61.488  62.853  66.849  0.00  0.00    +0.000 OA
ENDROOT
TORSDOF 0
ENDMDL
MODEL 3
REMARK VINA RESULT:    -5.655      7.653      8.315
REMARK INTER + INTRA:          -5.655
REMARK INTER:                  -5.655
REMARK INTRA:                   0.000
REMARK UNBOUND:                 0.000
ROOT
REMARK  Name = aminosalicylic acid
REMARK                            x       y       z     vdW  Elec       q    Type
REMARK                         _______ _______ _______ _____ _____    ______ ____
ATOM      1  N   UNL     1      63.787  64.763  70.030  0.00  0.00    +0.000 NA
ATOM      2  C   UNL     1      64.314  65.385  70.147  0.00  0.00    +0.000 A 
ATOM      3  C   UNL     1      64.662  65.498  70.886  0.00  0.00    +0.000 A 
ATOM      4  C   UNL     1      65.190  66.122  71.003  0.00  0.00    +0.000 A 
ATOM      5  O   UNL     1      65.537  66.234  71.742  0.00  0.00    +0.000 OA
ATOM      6  C   UNL     1      65.369  66.632  70.381  0.00  0.00    +0.000 A 
ATOM      7  C   UNL     1      65.021  66.520  69.641  0.00  0.00    +0.000 A 
ATOM      8  C   UNL     1      64.493  65.897  69.524  0.00  0.00    +0.000 A 
ATOM      9  C   UNL     1      65.897  67.256  70.498  0.00  0.00    +0.000 C 
ATOM     10  O   UNL     1      66.245  67.369  71.237  0.00  0.00    +0.000 OA
ATOM     11  O   UNL     1      66.076  67.767  69.876  0.00  0.00    +0.000 OA
ENDROOT
TORSDOF 0
ENDMDL
MODEL 4
REMARK VINA RESULT:    -5.565      8.002      8.759
REMARK INTER + INTRA:          -5.565
REMARK INTER:                  -5.565
REMARK INTRA:                   0.000
REMARK UNBOUND:                 0.000
ROOT
REMARK  Name = aminosalicylic acid
REMARK                            x       y       z     vdW  Elec       q    Type
REMARK                         _______ _______ _______ _____ _____    ______ ____
ATOM      1  N   UNL     1      66.416  67.683  69.831  0.00  0.00    +0.000 NA
ATOM      2  C   UNL     1      65.795  67.300  70.215  0.00  0.00    +0.000 A 
ATOM      3  C   UNL     1      65.604  67.501  70.992  0.00  0.00    +0.000 A 
ATOM      4  C   UNL     1      64.983  67.119  71.377  0.00  0.00    +0.000 A 
ATOM      5  O   UNL     1      64.793  67.320  72.153  0.00  0.00    +0.000 OA
ATOM      6  C   UNL     1      64.553  66.535  70.985  0.00  0.00    +0.000 A 
ATOM      7  C   UNL     1      64.743  66.333  70.208  0.00  0.00    +0.000 A 
ATOM      8  C   UNL     1      65.364  66.716  69.823  0.00  0.00    +0.000 A 
ATOM      9  C   UNL     1      63.931  66.151  71.370  0.00  0.00    +0.000 C 
ATOM     10  O   UNL     1      63.740  66.353  72.147  0.00  0.00    +0.000 OA
ATOM     11  O   UNL     1      63.500  65.567  70.977  0.00  0.00    +0.000 OA
ENDROOT
TORSDOF 0
ENDMDL
MODEL 5
REMARK VINA RESULT:    -5.550      6.555      7.129
REMARK INTER + INTRA:          -5.550
REMARK INTER:                  -5.550
REMARK INTRA:                   0.000
REMARK UNBOUND:                 0.000
ROOT
REMARK  Name = aminosalicylic acid
REMARK                            x       y       z     vdW  Elec       q    Type
REMARK                         _______ _______ _______ _____ _____    ______ ____
ATOM      1  N   UNL     1      60.569  64.624  72.861  0.00  0.00    +0.000 NA
ATOM      2  C   UNL     1      60.759  63.923  72.473  0.00  0.00    +0.000 A 
ATOM      3  C   UNL     1      60.347  63.703  71.793  0.00  0.00    +0.000 A 
ATOM      4  C   UNL     1      60.537  63.000  71.404  0.00  0.00    +0.000 A 
ATOM      5  O   UNL     1      60.124  62.781  70.725  0.00  0.00    +0.000 OA
ATOM      6  C   UNL     1      61.139  62.518  71.695  0.00  0.00    +0.000 A 
ATOM      7  C   UNL     1      61.552  62.737  72.375  0.00  0.00    +0.000 A 
ATOM      8  C   UNL     1      61.362  63.440  72.764  0.00  0.00    +0.000 A 
ATOM      9  C   UNL     1      61.329  61.815  71.305  0.00  0.00    +0.000 C 
ATOM     10  O   UNL     1      60.917  61.596  70.626  0.00  0.00    +0.000 OA
ATOM     11  O   UNL     1      61.932  61.333  71.597  0.00  0.00    +0.000 OA
ENDROOT
TORSDOF 0
ENDMDL
MODEL 6
REMARK VINA RESULT:    -5.522     24.910     25.451
REMARK INTER + INTRA:          -5.522
REMARK INTER:                  -5.522
REMARK INTRA:                   0.000
REMARK UNBOUND:                 0.000
ROOT
REMARK  Name = aminosalicylic acid
REMARK                            x       y       z     vdW  Elec       q    Type
REMARK                         _______ _______ _______ _____ _____    ______ ____
ATOM      1  N   UNL     1      69.617  78.821  50.053  0.00  0.00    +0.000 NA
ATOM      2  C   UNL     1      70.364  78.958  49.732  0.00  0.00    +0.000 A 
ATOM      3  C   UNL     1      70.788  79.633  49.946  0.00  0.00    +0.000 A 
ATOM      4  C   UNL     1      71.535  79.770  49.625  0.00  0.00    +0.000 A 
ATOM      5  O   UNL     1      71.959  80.444  49.839  0.00  0.00    +0.000 OA
ATOM      6  C   UNL     1      71.859  79.233  49.090  0.00  0.00    +0.000 A 
ATOM      7  C   UNL     1      71.435  78.558  48.875  0.00  0.00    +0.000 A 
ATOM      8  C   UNL     1      70.688  78.421  49.196  0.00  0.00    +0.000 A 
ATOM      9  C   UNL     1      72.607  79.370  48.768  0.00  0.00    +0.000 C 
ATOM     10  O   UNL     1      73.030  80.044  48.983  0.00  0.00    +0.000 OA
ATOM     11  O   UNL     1      72.930  78.832  48.232  0.00  0.00    +0.000 OA
ENDROOT
TORSDOF 0
ENDMDL
MODEL 7
REMARK VINA RESULT:    -5.394     24.502     25.123
REMARK INTER + INTRA:          -5.394
REMARK INTER:                  -5.394
REMARK INTRA:                   0.000
REMARK UNBOUND:                 0.000
ROOT
REMARK  Name = aminosalicylic acid
REMARK                            x       y       z     vdW  Elec       q    Type
REMARK                         _______ _______ _______ _____ _____    ______ ____
ATOM      1  N   UNL     1      72.480  78.863  48.133  0.00  0.00    +0.000 NA
ATOM      2  C   UNL     1      71.853  78.972  48.656  0.00  0.00    +0.000 A 
ATOM      3  C   UNL     1      71.874  79.589  49.203  0.00  0.00    +0.000 A 
ATOM      4  C   UNL     1      71.246  79.698  49.727  0.00  0.00    +0.000 A 
ATOM      5  O   UNL     1      71.268  80.315  50.273  0.00  0.00    +0.000 OA
ATOM      6  C   UNL     1      70.597  79.190  49.704  0.00  0.00    +0.000 A 
ATOM      7  C   UNL     1      70.575  78.572  49.157  0.00  0.00    +0.000 A 
ATOM      8  C   UNL     1      71.203  78.463  48.633  0.00  0.00    +0.000 A 
ATOM      9  C   UNL     1      69.969  79.298  50.228  0.00  0.00    +0.000 C 
ATOM     10  O   UNL     1      69.990  79.915  50.775  0.00  0.00    +0.000 OA
ATOM     11  O   UNL     1      69.320  78.789  50.205  0.00  0.00    +0.000 OA
ENDROOT
TORSDOF 0
ENDMDL
MODEL 8
REMARK VINA RESULT:    -5.394      4.760      5.477
REMARK INTER + INTRA:          -5.394
REMARK INTER:                  -5.394
REMARK INTRA:                   0.000
REMARK UNBOUND:                 0.000
ROOT
REMARK  Name = aminosalicylic acid
REMARK                            x       y       z     vdW  Elec       q    Type
REMARK                         _______ _______ _______ _____ _____    ______ ____
ATOM      1  N   UNL     1      60.741  63.073  67.538  0.00  0.00    +0.000 NA
ATOM      2  C   UNL     1      60.642  62.825  68.317  0.00  0.00    +0.000 A 
ATOM      3  C   UNL     1      60.659  63.375  68.931  0.00  0.00    +0.000 A 
ATOM      4  C   UNL     1      60.559  63.126  69.712  0.00  0.00    +0.000 A 
ATOM      5  O   UNL     1      60.576  63.676  70.325  0.00  0.00    +0.000 OA
ATOM      6  C   UNL     1      60.443  62.327  69.878  0.00  0.00    +0.000 A 
ATOM      7  C   UNL     1      60.427  61.775  69.264  0.00  0.00    +0.000 A 
ATOM      8  C   UNL     1      60.526  62.024  68.484  0.00  0.00    +0.000 A 
ATOM      9  C   UNL     1      60.344  62.078  70.659  0.00  0.00    +0.000 C 
ATOM     10  O   UNL     1      60.361  62.628  71.272  0.00  0.00    +0.000 OA
ATOM     11  O   UNL     1      60.228  61.278  70.825  0.00  0.00    +0.000 OA
ENDROOT
TORSDOF 0
ENDMDL
MODEL 9
REMARK VINA RESULT:    -5.390      7.213      8.012
REMARK INTER + INTRA:          -5.390
REMARK INTER:                  -5.390
REMARK INTRA:                   0.000
REMARK UNBOUND:                 0.000
ROOT
REMARK  Name = aminosalicylic acid
REMARK                            x       y       z     vdW  Elec       q    Type
REMARK                         _______ _______ _______ _____ _____    ______ ____
ATOM      1  N   UNL     1      61.615  62.031  71.712  0.00  0.00    +0.000 NA
ATOM      2  C   UNL     1      61.252  62.732  71.948  0.00  0.00    +0.000 A 
ATOM      3  C   UNL     1      60.519  62.944  71.633  0.00  0.00    +0.000 A 
ATOM      4  C   UNL     1      60.156  63.646  71.869  0.00  0.00    +0.000 A 
ATOM      5  O   UNL     1      59.424  63.857  71.555  0.00  0.00    +0.000 OA
ATOM      6  C   UNL     1      60.525  64.136  72.420  0.00  0.00    +0.000 A 
ATOM      7  C   UNL     1      61.258  63.925  72.735  0.00  0.00    +0.000 A 
ATOM      8  C   UNL     1      61.621  63.223  72.499  0.00  0.00    +0.000 A 
ATOM      9  C   UNL     1      60.161  64.839  72.656  0.00  0.00    +0.000 C 
ATOM     10  O   UNL     1      59.429  65.050  72.342  0.00  0.00    +0.000 OA
ATOM     11  O   UNL     1      60.531  65.329  73.208  0.00  0.00    +0.000 OA
ENDROOT
TORSDOF 0
ENDMDL
