MODEL 1
REMARK VINA RESULT:   -12.310      0.000      0.000
REMARK INTER + INTRA:         -12.310
REMARK INTER:                 -12.310
REMARK INTRA:                   0.000
REMARK UNBOUND:                 0.000
ROOT
REMARK  Name = amitriptyline
REMARK                            x       y       z     vdW  Elec       q    Type
REMARK                         _______ _______ _______ _____ _____    ______ ____
ATOM      1  C   UNL     1      61.928  64.184  68.888  0.00  0.00    +0.000 C 
ATOM      2  N   UNL     1      61.466  63.741  68.368  0.00  0.00    +0.000 NA
ATOM      3  C   UNL     1      60.680  63.573  68.555  0.00  0.00    +0.000 C 
ATOM      4  C   UNL     1      61.789  63.466  67.661  0.00  0.00    +0.000 C 
ATOM      5  C   UNL     1      61.327  63.022  67.140  0.00  0.00    +0.000 C 
ATOM      6  C   UNL     1      61.652  62.747  66.433  0.00  0.00    +0.000 C 
ATOM      7  C   UNL     1      61.190  62.304  65.913  0.00  0.00    +0.000 C 
ATOM      8  C   UNL     1      61.566  62.056  65.222  0.00  0.00    +0.000 A 
ATOM      9  C   UNL     1      62.350  62.312  65.197  0.00  0.00    +0.000 A 
ATOM     10  C   UNL     1      62.825  62.123  64.551  0.00  0.00    +0.000 A 
ATOM     11  C   UNL     1      62.518  61.677  63.929  0.00  0.00    +0.000 A 
ATOM     12  C   UNL     1      61.734  61.421  63.954  0.00  0.00    +0.000 A 
ATOM     13  C   UNL     1      61.258  61.611  64.600  0.00  0.00    +0.000 A 
ATOM     14  C   UNL     1      60.497  61.303  64.516  0.00  0.00    +0.000 C 
ATOM     15  C   UNL     1      59.857  61.364  65.032  0.00  0.00    +0.000 C 
ATOM     16  C   UNL     1      59.819  61.749  65.760  0.00  0.00    +0.000 A 
ATOM     17  C   UNL     1      60.411  62.168  66.153  0.00  0.00    +0.000 A 
ATOM     18  C   UNL     1      60.257  62.514  66.884  0.00  0.00    +0.000 A 
ATOM     19  C   UNL     1      59.508  62.443  67.225  0.00  0.00    +0.000 A 
ATOM     20  C   UNL     1      58.916  62.025  66.833  0.00  0.00    +0.000 A 
ATOM     21  C   UNL     1      59.070  61.678  66.101  0.00  0.00    +0.000 A 
ENDROOT
TORSDOF 0
ENDMDL
MODEL 2
REMARK VINA RESULT:   -11.328      2.975      5.793
REMARK INTER + INTRA:         -11.328
REMARK INTER:                 -11.328
REMARK INTRA:                   0.000
REMARK UNBOUND:                 0.000
ROOT
REMARK  Name = amitriptyline
REMARK                            x       y       z     vdW  Elec       q    Type
REMARK                         _______ _______ _______ _____ _____    ______ ____
ATOM      1  C   UNL     1      60.539  62.065  67.463  0.00  0.00    +0.000 C 
ATOM      2  N   UNL     1      60.489  62.497  68.164  0.00  0.00    +0.000 NA
ATOM      3  C   UNL     1      60.133  63.242  68.165  0.00  0.00    +0.000 C 
ATOM      4  C   UNL     1      60.793  62.185  68.864  0.00  0.00    +0.000 C 
ATOM      5  C   UNL     1      60.743  62.617  69.565  0.00  0.00    +0.000 C 
ATOM      6  C   UNL     1      61.048  62.304  70.265  0.00  0.00    +0.000 C 
ATOM      7  C   UNL     1      60.997  62.735  70.966  0.00  0.00    +0.000 C 
ATOM      8  C   UNL     1      61.318  62.373  71.634  0.00  0.00    +0.000 A 
ATOM      9  C   UNL     1      61.632  61.632  71.453  0.00  0.00    +0.000 A 
ATOM     10  C   UNL     1      61.981  61.176  72.045  0.00  0.00    +0.000 A 
ATOM     11  C   UNL     1      62.017  61.461  72.818  0.00  0.00    +0.000 A 
ATOM     12  C   UNL     1      61.703  62.202  72.999  0.00  0.00    +0.000 A 
ATOM     13  C   UNL     1      61.354  62.658  72.407  0.00  0.00    +0.000 A 
ATOM     14  C   UNL     1      61.077  63.377  72.703  0.00  0.00    +0.000 C 
ATOM     15  C   UNL     1      60.696  63.987  72.300  0.00  0.00    +0.000 C 
ATOM     16  C   UNL     1      60.498  64.030  71.500  0.00  0.00    +0.000 A 
ATOM     17  C   UNL     1      60.632  63.473  70.907  0.00  0.00    +0.000 A 
ATOM     18  C   UNL     1      60.387  63.627  70.134  0.00  0.00    +0.000 A 
ATOM     19  C   UNL     1      60.007  64.337  69.955  0.00  0.00    +0.000 A 
ATOM     20  C   UNL     1      59.874  64.894  70.549  0.00  0.00    +0.000 A 
ATOM     21  C   UNL     1      60.118  64.741  71.321  0.00  0.00    +0.000 A 
ENDROOT
TORSDOF 0
ENDMDL
MODEL 3
REMARK VINA RESULT:   -11.291      3.251      5.349
REMARK INTER + INTRA:         -11.291
REMARK INTER:                 -11.291
REMARK INTRA:                   0.000
REMARK UNBOUND:                 0.000
ROOT
REMARK  Name = amitriptyline
REMARK                            x       y       z     vdW  Elec       q    Type
REMARK                         _______ _______ _______ _____ _____    ______ ____
ATOM      1  C   UNL     1      59.743  66.660  69.725  0.00  0.00    +0.000 C 
ATOM      2  N   UNL     1      59.887  65.851  69.659  0.00  0.00    +0.000 NA
ATOM      3  C   UNL     1      59.737  65.461  68.946  0.00  0.00    +0.000 C 
ATOM      4  C   UNL     1      60.180  65.430  70.304  0.00  0.00    +0.000 C 
ATOM      5  C   UNL     1      60.324  64.620  70.239  0.00  0.00    +0.000 C 
ATOM      6  C   UNL     1      60.618  64.200  70.885  0.00  0.00    +0.000 C 
ATOM      7  C   UNL     1      60.762  63.390  70.819  0.00  0.00    +0.000 C 
ATOM      8  C   UNL     1      61.055  63.023  71.497  0.00  0.00    +0.000 A 
ATOM      9  C   UNL     1      61.145  63.560  72.117  0.00  0.00    +0.000 A 
ATOM     10  C   UNL     1      61.432  63.304  72.846  0.00  0.00    +0.000 A 
ATOM     11  C   UNL     1      61.629  62.511  72.957  0.00  0.00    +0.000 A 
ATOM     12  C   UNL     1      61.539  61.974  72.337  0.00  0.00    +0.000 A 
ATOM     13  C   UNL     1      61.253  62.229  71.608  0.00  0.00    +0.000 A 
ATOM     14  C   UNL     1      61.205  61.608  71.067  0.00  0.00    +0.000 C 
ATOM     15  C   UNL     1      60.949  61.626  70.283  0.00  0.00    +0.000 C 
ATOM     16  C   UNL     1      60.677  62.270  69.846  0.00  0.00    +0.000 A 
ATOM     17  C   UNL     1      60.594  63.055  70.084  0.00  0.00    +0.000 A 
ATOM     18  C   UNL     1      60.308  63.619  69.554  0.00  0.00    +0.000 A 
ATOM     19  C   UNL     1      60.106  63.398  68.785  0.00  0.00    +0.000 A 
ATOM     20  C   UNL     1      60.190  62.613  68.547  0.00  0.00    +0.000 A 
ATOM     21  C   UNL     1      60.475  62.049  69.076  0.00  0.00    +0.000 A 
ENDROOT
TORSDOF 0
ENDMDL
MODEL 4
REMARK VINA RESULT:   -11.256      2.995      5.003
REMARK INTER + INTRA:         -11.256
REMARK INTER:                 -11.256
REMARK INTRA:                   0.000
REMARK UNBOUND:                 0.000
ROOT
REMARK  Name = amitriptyline
REMARK                            x       y       z     vdW  Elec       q    Type
REMARK                         _______ _______ _______ _____ _____    ______ ____
ATOM      1  C   UNL     1      63.097  66.440  70.667  0.00  0.00    +0.000 C 
ATOM      2  N   UNL     1      62.752  65.734  70.920  0.00  0.00    +0.000 NA
ATOM      3  C   UNL     1      62.758  65.537  71.722  0.00  0.00    +0.000 C 
ATOM      4  C   UNL     1      62.402  65.225  70.373  0.00  0.00    +0.000 C 
ATOM      5  C   UNL     1      62.058  64.520  70.627  0.00  0.00    +0.000 C 
ATOM      6  C   UNL     1      61.708  64.012  70.079  0.00  0.00    +0.000 C 
ATOM      7  C   UNL     1      61.364  63.306  70.332  0.00  0.00    +0.000 C 
ATOM      8  C   UNL     1      61.029  62.839  69.741  0.00  0.00    +0.000 A 
ATOM      9  C   UNL     1      61.113  63.187  68.998  0.00  0.00    +0.000 A 
ATOM     10  C   UNL     1      60.816  62.807  68.329  0.00  0.00    +0.000 A 
ATOM     11  C   UNL     1      60.434  62.080  68.402  0.00  0.00    +0.000 A 
ATOM     12  C   UNL     1      60.351  61.732  69.146  0.00  0.00    +0.000 A 
ATOM     13  C   UNL     1      60.648  62.111  69.815  0.00  0.00    +0.000 A 
ATOM     14  C   UNL     1      60.507  61.671  70.499  0.00  0.00    +0.000 C 
ATOM     15  C   UNL     1      60.712  61.851  71.278  0.00  0.00    +0.000 C 
ATOM     16  C   UNL     1      61.109  62.515  71.564  0.00  0.00    +0.000 A 
ATOM     17  C   UNL     1      61.400  63.162  71.145  0.00  0.00    +0.000 A 
ATOM     18  C   UNL     1      61.784  63.774  71.542  0.00  0.00    +0.000 A 
ATOM     19  C   UNL     1      61.879  63.737  72.362  0.00  0.00    +0.000 A 
ATOM     20  C   UNL     1      61.589  63.090  72.781  0.00  0.00    +0.000 A 
ATOM     21  C   UNL     1      61.204  62.479  72.384  0.00  0.00    +0.000 A 
ENDROOT
TORSDOF 0
ENDMDL
MODEL 5
REMARK VINA RESULT:   -10.997      2.327      5.419
REMARK INTER + INTRA:         -10.997
REMARK INTER:                 -10.997
REMARK INTRA:                   0.000
REMARK UNBOUND:                 0.000
ROOT
REMARK  Name = amitriptyline
REMARK                            x       y       z     vdW  Elec       q    Type
REMARK                         _______ _______ _______ _____ _____    ______ ____
ATOM      1  C   UNL     1      61.295  63.096  66.844  0.00  0.00    +0.000 C 
ATOM      2  N   UNL     1      61.192  62.937  67.647  0.00  0.00    +0.000 NA
ATOM      3  C   UNL     1      60.753  62.278  67.885  0.00  0.00    +0.000 C 
ATOM      4  C   UNL     1      61.526  63.435  68.213  0.00  0.00    +0.000 C 
ATOM      5  C   UNL     1      61.423  63.275  69.016  0.00  0.00    +0.000 C 
ATOM      6  C   UNL     1      61.758  63.774  69.582  0.00  0.00    +0.000 C 
ATOM      7  C   UNL     1      61.655  63.615  70.385  0.00  0.00    +0.000 C 
ATOM      8  C   UNL     1      62.012  64.147  70.904  0.00  0.00    +0.000 A 
ATOM      9  C   UNL     1      62.409  64.745  70.497  0.00  0.00    +0.000 A 
ATOM     10  C   UNL     1      62.805  65.335  70.915  0.00  0.00    +0.000 A 
ATOM     11  C   UNL     1      62.804  65.329  71.740  0.00  0.00    +0.000 A 
ATOM     12  C   UNL     1      62.407  64.731  72.147  0.00  0.00    +0.000 A 
ATOM     13  C   UNL     1      62.011  64.140  71.729  0.00  0.00    +0.000 A 
ATOM     14  C   UNL     1      61.652  63.599  72.238  0.00  0.00    +0.000 C 
ATOM     15  C   UNL     1      61.206  62.931  72.048  0.00  0.00    +0.000 C 
ATOM     16  C   UNL     1      61.009  62.640  71.302  0.00  0.00    +0.000 A 
ATOM     17  C   UNL     1      61.208  62.943  70.562  0.00  0.00    +0.000 A 
ATOM     18  C   UNL     1      60.952  62.563  69.877  0.00  0.00    +0.000 A 
ATOM     19  C   UNL     1      60.495  61.878  69.932  0.00  0.00    +0.000 A 
ATOM     20  C   UNL     1      60.295  61.574  70.672  0.00  0.00    +0.000 A 
ATOM     21  C   UNL     1      60.552  61.954  71.357  0.00  0.00    +0.000 A 
ENDROOT
TORSDOF 0
ENDMDL
MODEL 6
REMARK VINA RESULT:   -10.922      3.834      7.250
REMARK INTER + INTRA:         -10.922
REMARK INTER:                 -10.922
REMARK INTRA:                   0.000
REMARK UNBOUND:                 0.000
ROOT
REMARK  Name = amitriptyline
REMARK                            x       y       z     vdW  Elec       q    Type
REMARK                         _______ _______ _______ _____ _____    ______ ____
ATOM      1  C   UNL     1      62.029  63.873  68.836  0.00  0.00    +0.000 C 
ATOM      2  N   UNL     1      62.233  64.350  69.478  0.00  0.00    +0.000 NA
ATOM      3  C   UNL     1      61.764  64.351  70.157  0.00  0.00    +0.000 C 
ATOM      4  C   UNL     1      62.906  64.825  69.441  0.00  0.00    +0.000 C 
ATOM      5  C   UNL     1      63.110  65.302  70.083  0.00  0.00    +0.000 C 
ATOM      6  C   UNL     1      63.784  65.778  70.045  0.00  0.00    +0.000 C 
ATOM      7  C   UNL     1      63.988  66.254  70.686  0.00  0.00    +0.000 C 
ATOM      8  C   UNL     1      64.670  66.708  70.592  0.00  0.00    +0.000 A 
ATOM      9  C   UNL     1      65.015  66.584  69.853  0.00  0.00    +0.000 A 
ATOM     10  C   UNL     1      65.705  66.986  69.647  0.00  0.00    +0.000 A 
ATOM     11  C   UNL     1      66.051  67.512  70.180  0.00  0.00    +0.000 A 
ATOM     12  C   UNL     1      65.707  67.635  70.920  0.00  0.00    +0.000 A 
ATOM     13  C   UNL     1      65.016  67.234  71.125  0.00  0.00    +0.000 A 
ATOM     14  C   UNL     1      64.764  67.436  71.885  0.00  0.00    +0.000 C 
ATOM     15  C   UNL     1      64.105  67.162  72.298  0.00  0.00    +0.000 C 
ATOM     16  C   UNL     1      63.534  66.619  72.054  0.00  0.00    +0.000 A 
ATOM     17  C   UNL     1      63.482  66.215  71.337  0.00  0.00    +0.000 A 
ATOM     18  C   UNL     1      62.860  65.690  71.204  0.00  0.00    +0.000 A 
ATOM     19  C   UNL     1      62.289  65.569  71.788  0.00  0.00    +0.000 A 
ATOM     20  C   UNL     1      62.342  65.973  72.505  0.00  0.00    +0.000 A 
ATOM     21  C   UNL     1      62.964  66.498  72.638  0.00  0.00    +0.000 A 
ENDROOT
TORSDOF 0
ENDMDL
MODEL 7
REMARK VINA RESULT:   -10.445      5.006      6.928
REMARK INTER + INTRA:         -10.445
REMARK INTER:                 -10.445
REMARK INTRA:                   0.000
REMARK UNBOUND:                 0.000
ROOT
REMARK  Name = amitriptyline
REMARK                            x       y       z     vdW  Elec       q    Type
REMARK                         _______ _______ _______ _____ _____    ______ ____
ATOM      1  C   UNL     1      60.619  65.711  73.214  0.00  0.00    +0.000 C 
ATOM      2  N   UNL     1      61.145  65.497  72.616  0.00  0.00    +0.000 NA
ATOM      3  C   UNL     1      60.979  64.849  72.132  0.00  0.00    +0.000 C 
ATOM      4  C   UNL     1      61.837  65.931  72.501  0.00  0.00    +0.000 C 
ATOM      5  C   UNL     1      62.364  65.717  71.903  0.00  0.00    +0.000 C 
ATOM      6  C   UNL     1      63.056  66.152  71.789  0.00  0.00    +0.000 C 
ATOM      7  C   UNL     1      63.583  65.938  71.191  0.00  0.00    +0.000 C 
ATOM      8  C   UNL     1      64.257  66.408  71.123  0.00  0.00    +0.000 A 
ATOM      9  C   UNL     1      64.262  67.011  71.686  0.00  0.00    +0.000 A 
ATOM     10  C   UNL     1      64.891  67.544  71.714  0.00  0.00    +0.000 A 
ATOM     11  C   UNL     1      65.514  67.475  71.178  0.00  0.00    +0.000 A 
ATOM     12  C   UNL     1      65.509  66.872  70.615  0.00  0.00    +0.000 A 
ATOM     13  C   UNL     1      64.881  66.339  70.588  0.00  0.00    +0.000 A 
ATOM     14  C   UNL     1      64.983  65.782  69.987  0.00  0.00    +0.000 C 
ATOM     15  C   UNL     1      64.488  65.157  69.774  0.00  0.00    +0.000 C 
ATOM     16  C   UNL     1      63.768  64.935  70.109  0.00  0.00    +0.000 A 
ATOM     17  C   UNL     1      63.365  65.282  70.739  0.00  0.00    +0.000 A 
ATOM     18  C   UNL     1      62.644  64.970  70.990  0.00  0.00    +0.000 A 
ATOM     19  C   UNL     1      62.325  64.310  70.610  0.00  0.00    +0.000 A 
ATOM     20  C   UNL     1      62.729  63.963  69.980  0.00  0.00    +0.000 A 
ATOM     21  C   UNL     1      63.449  64.275  69.729  0.00  0.00    +0.000 A 
ENDROOT
TORSDOF 0
ENDMDL
MODEL 8
REMARK VINA RESULT:   -10.412      5.516      7.002
REMARK INTER + INTRA:         -10.412
REMARK INTER:                 -10.412
REMARK INTRA:                   0.000
REMARK UNBOUND:                 0.000
ROOT
REMARK  Name = amitriptyline
REMARK                            x       y       z     vdW  Elec       q    Type
REMARK                         _______ _______ _______ _____ _____    ______ ____
ATOM      1  C   UNL     1      63.024  68.350  73.179  0.00  0.00    +0.000 C 
ATOM      2  N   UNL     1      63.156  67.717  72.666  0.00  0.00    +0.000 NA
ATOM      3  C   UNL     1      63.736  67.773  72.081  0.00  0.00    +0.000 C 
ATOM      4  C   UNL     1      62.709  67.027  72.738  0.00  0.00    +0.000 C 
ATOM      5  C   UNL     1      62.840  66.394  72.226  0.00  0.00    +0.000 C 
ATOM      6  C   UNL     1      62.392  65.705  72.299  0.00  0.00    +0.000 C 
ATOM      7  C   UNL     1      62.524  65.072  71.787  0.00  0.00    +0.000 C 
ATOM      8  C   UNL     1      62.047  64.410  71.907  0.00  0.00    +0.000 A 
ATOM      9  C   UNL     1      61.523  64.525  72.533  0.00  0.00    +0.000 A 
ATOM     10  C   UNL     1      60.996  63.927  72.745  0.00  0.00    +0.000 A 
ATOM     11  C   UNL     1      60.992  63.214  72.330  0.00  0.00    +0.000 A 
ATOM     12  C   UNL     1      61.516  63.099  71.704  0.00  0.00    +0.000 A 
ATOM     13  C   UNL     1      62.043  63.697  71.492  0.00  0.00    +0.000 A 
ATOM     14  C   UNL     1      62.516  63.470  70.855  0.00  0.00    +0.000 C 
ATOM     15  C   UNL     1      63.109  63.901  70.475  0.00  0.00    +0.000 C 
ATOM     16  C   UNL     1      63.375  64.664  70.639  0.00  0.00    +0.000 A 
ATOM     17  C   UNL     1      63.116  65.185  71.222  0.00  0.00    +0.000 A 
ATOM     18  C   UNL     1      63.460  65.931  71.293  0.00  0.00    +0.000 A 
ATOM     19  C   UNL     1      64.066  66.156  70.779  0.00  0.00    +0.000 A 
ATOM     20  C   UNL     1      64.326  65.634  70.196  0.00  0.00    +0.000 A 
ATOM     21  C   UNL     1      63.981  64.889  70.125  0.00  0.00    +0.000 A 
ENDROOT
TORSDOF 0
ENDMDL
MODEL 9
REMARK VINA RESULT:   -10.002      6.693      8.051
REMARK INTER + INTRA:         -10.002
REMARK INTER:                 -10.002
REMARK INTRA:                   0.000
REMARK UNBOUND:                 0.000
ROOT
REMARK  Name = amitriptyline
REMARK                            x       y       z     vdW  Elec       q    Type
REMARK                         _______ _______ _______ _____ _____    ______ ____
ATOM      1  C   UNL     1      62.773  68.383  72.878  0.00  0.00    +0.000 C 
ATOM      2  N   UNL     1      62.404  67.652  72.778  0.00  0.00    +0.000 NA
ATOM      3  C   UNL     1      62.851  66.988  72.577  0.00  0.00    +0.000 C 
ATOM      4  C   UNL     1      61.588  67.584  72.878  0.00  0.00    +0.000 C 
ATOM      5  C   UNL     1      61.219  66.853  72.777  0.00  0.00    +0.000 C 
ATOM      6  C   UNL     1      60.403  66.786  72.878  0.00  0.00    +0.000 C 
ATOM      7  C   UNL     1      60.034  66.055  72.777  0.00  0.00    +0.000 C 
ATOM      8  C   UNL     1      59.217  66.048  72.890  0.00  0.00    +0.000 A 
ATOM      9  C   UNL     1      58.933  66.798  73.086  0.00  0.00    +0.000 A 
ATOM     10  C   UNL     1      58.127  66.911  73.222  0.00  0.00    +0.000 A 
ATOM     11  C   UNL     1      57.605  66.276  73.163  0.00  0.00    +0.000 A 
ATOM     12  C   UNL     1      57.889  65.526  72.968  0.00  0.00    +0.000 A 
ATOM     13  C   UNL     1      58.694  65.413  72.831  0.00  0.00    +0.000 A 
ATOM     14  C   UNL     1      58.861  64.626  72.644  0.00  0.00    +0.000 C 
ATOM     15  C   UNL     1      59.590  64.282  72.470  0.00  0.00    +0.000 C 
ATOM     16  C   UNL     1      60.333  64.639  72.441  0.00  0.00    +0.000 A 
ATOM     17  C   UNL     1      60.531  65.428  72.577  0.00  0.00    +0.000 A 
ATOM     18  C   UNL     1      61.316  65.673  72.518  0.00  0.00    +0.000 A 
ATOM     19  C   UNL     1      61.905  65.128  72.322  0.00  0.00    +0.000 A 
ATOM     20  C   UNL     1      61.707  64.339  72.186  0.00  0.00    +0.000 A 
ATOM     21  C   UNL     1      60.922  64.094  72.245  0.00  0.00    +0.000 A 
ENDROOT
TORSDOF 0
ENDMDL
