MODEL 1
REMARK VINA RESULT:   -12.313      0.000      0.000
REMARK INTER + INTRA:         -12.313
REMARK INTER:                 -12.313
REMARK INTRA:                   0.000
REMARK UNBOUND:                 0.000
ROOT
REMARK  Name = amocarzine
REMARK                            x       y       z     vdW  Elec       q    Type
REMARK                         _______ _______ _______ _____ _____    ______ ____
ATOM      1  C   UNL     1      62.188  61.747  64.372  0.00  0.00    +0.000 C 
ATOM      2  N   UNL     1      61.934  61.977  65.122  0.00  0.00    +0.000 NA
ATOM      3  C   UNL     1      61.869  61.418  65.725  0.00  0.00    +0.000 C 
ATOM      4  C   UNL     1      61.615  61.648  66.475  0.00  0.00    +0.000 C 
ATOM      5  N   UNL     1      61.425  62.436  66.623  0.00  0.00    +0.000 N 
ATOM      6  C   UNL     1      61.490  62.996  66.019  0.00  0.00    +0.000 C 
ATOM      7  C   UNL     1      61.744  62.767  65.270  0.00  0.00    +0.000 C 
ATOM      8  C   UNL     1      61.171  62.666  67.373  0.00  0.00    +0.000 C 
ATOM      9  S   UNL     1      60.981  63.456  67.520  0.00  0.00    +0.000 S 
ATOM     10  N   UNL     1      61.107  62.107  67.976  0.00  0.00    +0.000 NA
ATOM     11  C   UNL     1      60.853  62.338  68.727  0.00  0.00    +0.000 A 
ATOM     12  C   UNL     1      60.788  61.778  69.330  0.00  0.00    +0.000 A 
ATOM     13  C   UNL     1      60.534  62.007  70.080  0.00  0.00    +0.000 A 
ATOM     14  C   UNL     1      60.344  62.797  70.228  0.00  0.00    +0.000 A 
ATOM     15  N   UNL     1      60.090  63.027  70.978  0.00  0.00    +0.000 NA
ATOM     16  C   UNL     1      59.900  63.816  71.126  0.00  0.00    +0.000 A 
ATOM     17  C   UNL     1      59.646  64.046  71.876  0.00  0.00    +0.000 A 
ATOM     18  C   UNL     1      59.457  64.835  72.023  0.00  0.00    +0.000 A 
ATOM     19  C   UNL     1      59.521  65.394  71.420  0.00  0.00    +0.000 A 
ATOM     20  C   UNL     1      59.775  65.164  70.670  0.00  0.00    +0.000 A 
ATOM     21  C   UNL     1      59.965  64.376  70.522  0.00  0.00    +0.000 A 
ATOM     22  N   UNL     1      59.331  66.184  71.567  0.00  0.00    +0.000 N 
ATOM     23  O   UNL     1      59.077  66.414  72.318  0.00  0.00    +0.000 OA
ATOM     24  O   UNL     1      59.395  66.743  70.965  0.00  0.00    +0.000 OA
ATOM     25  C   UNL     1      60.409  63.356  69.625  0.00  0.00    +0.000 A 
ATOM     26  C   UNL     1      60.663  63.126  68.874  0.00  0.00    +0.000 A 
ENDROOT
TORSDOF 0
ENDMDL
MODEL 2
REMARK VINA RESULT:   -11.978      3.137      5.782
REMARK INTER + INTRA:         -11.978
REMARK INTER:                 -11.978
REMARK INTRA:                   0.000
REMARK UNBOUND:                 0.000
ROOT
REMARK  Name = amocarzine
REMARK                            x       y       z     vdW  Elec       q    Type
REMARK                         _______ _______ _______ _____ _____    ______ ____
ATOM      1  C   UNL     1      63.096  66.081  72.071  0.00  0.00    +0.000 C 
ATOM      2  N   UNL     1      62.841  65.630  71.429  0.00  0.00    +0.000 NA
ATOM      3  C   UNL     1      62.144  65.192  71.482  0.00  0.00    +0.000 C 
ATOM      4  C   UNL     1      61.890  64.743  70.840  0.00  0.00    +0.000 C 
ATOM      5  N   UNL     1      62.332  64.730  70.143  0.00  0.00    +0.000 N 
ATOM      6  C   UNL     1      63.029  65.168  70.090  0.00  0.00    +0.000 C 
ATOM      7  C   UNL     1      63.284  65.618  70.732  0.00  0.00    +0.000 C 
ATOM      8  C   UNL     1      62.077  64.280  69.501  0.00  0.00    +0.000 C 
ATOM      9  S   UNL     1      62.520  64.268  68.804  0.00  0.00    +0.000 S 
ATOM     10  N   UNL     1      61.380  63.842  69.554  0.00  0.00    +0.000 NA
ATOM     11  C   UNL     1      61.125  63.392  68.911  0.00  0.00    +0.000 A 
ATOM     12  C   UNL     1      60.428  62.954  68.965  0.00  0.00    +0.000 A 
ATOM     13  C   UNL     1      60.173  62.504  68.322  0.00  0.00    +0.000 A 
ATOM     14  C   UNL     1      60.616  62.491  67.625  0.00  0.00    +0.000 A 
ATOM     15  N   UNL     1      60.361  62.042  66.983  0.00  0.00    +0.000 NA
ATOM     16  C   UNL     1      60.803  62.029  66.287  0.00  0.00    +0.000 A 
ATOM     17  C   UNL     1      60.549  61.579  65.644  0.00  0.00    +0.000 A 
ATOM     18  C   UNL     1      60.992  61.567  64.948  0.00  0.00    +0.000 A 
ATOM     19  C   UNL     1      61.688  62.004  64.895  0.00  0.00    +0.000 A 
ATOM     20  C   UNL     1      61.943  62.454  65.537  0.00  0.00    +0.000 A 
ATOM     21  C   UNL     1      61.501  62.467  66.234  0.00  0.00    +0.000 A 
ATOM     22  N   UNL     1      62.131  61.992  64.199  0.00  0.00    +0.000 N 
ATOM     23  O   UNL     1      61.877  61.542  63.556  0.00  0.00    +0.000 OA
ATOM     24  O   UNL     1      62.828  62.430  64.145  0.00  0.00    +0.000 OA
ATOM     25  C   UNL     1      61.313  62.929  67.572  0.00  0.00    +0.000 A 
ATOM     26  C   UNL     1      61.568  63.379  68.215  0.00  0.00    +0.000 A 
ENDROOT
TORSDOF 0
ENDMDL
MODEL 3
REMARK VINA RESULT:   -11.420      3.930      5.354
REMARK INTER + INTRA:         -11.420
REMARK INTER:                 -11.420
REMARK INTRA:                   0.000
REMARK UNBOUND:                 0.000
ROOT
REMARK  Name = amocarzine
REMARK                            x       y       z     vdW  Elec       q    Type
REMARK                         _______ _______ _______ _____ _____    ______ ____
ATOM      1  C   UNL     1      66.311  67.271  71.315  0.00  0.00    +0.000 C 
ATOM      2  N   UNL     1      65.707  66.773  71.055  0.00  0.00    +0.000 NA
ATOM      3  C   UNL     1      65.250  66.358  71.602  0.00  0.00    +0.000 C 
ATOM      4  C   UNL     1      64.646  65.860  71.342  0.00  0.00    +0.000 C 
ATOM      5  N   UNL     1      64.499  65.776  70.535  0.00  0.00    +0.000 N 
ATOM      6  C   UNL     1      64.956  66.191  69.987  0.00  0.00    +0.000 C 
ATOM      7  C   UNL     1      65.560  66.689  70.247  0.00  0.00    +0.000 C 
ATOM      8  C   UNL     1      63.895  65.278  70.275  0.00  0.00    +0.000 C 
ATOM      9  S   UNL     1      63.748  65.195  69.468  0.00  0.00    +0.000 S 
ATOM     10  N   UNL     1      63.438  64.864  70.823  0.00  0.00    +0.000 NA
ATOM     11  C   UNL     1      62.833  64.365  70.562  0.00  0.00    +0.000 A 
ATOM     12  C   UNL     1      62.377  63.950  71.111  0.00  0.00    +0.000 A 
ATOM     13  C   UNL     1      61.773  63.452  70.851  0.00  0.00    +0.000 A 
ATOM     14  C   UNL     1      61.625  63.369  70.043  0.00  0.00    +0.000 A 
ATOM     15  N   UNL     1      61.022  62.871  69.783  0.00  0.00    +0.000 NA
ATOM     16  C   UNL     1      60.874  62.787  68.976  0.00  0.00    +0.000 A 
ATOM     17  C   UNL     1      60.270  62.289  68.716  0.00  0.00    +0.000 A 
ATOM     18  C   UNL     1      60.124  62.206  67.908  0.00  0.00    +0.000 A 
ATOM     19  C   UNL     1      60.580  62.620  67.361  0.00  0.00    +0.000 A 
ATOM     20  C   UNL     1      61.184  63.118  67.621  0.00  0.00    +0.000 A 
ATOM     21  C   UNL     1      61.332  63.202  68.428  0.00  0.00    +0.000 A 
ATOM     22  N   UNL     1      60.433  62.537  66.553  0.00  0.00    +0.000 N 
ATOM     23  O   UNL     1      59.829  62.039  66.293  0.00  0.00    +0.000 OA
ATOM     24  O   UNL     1      60.890  62.952  66.006  0.00  0.00    +0.000 OA
ATOM     25  C   UNL     1      62.083  63.783  69.496  0.00  0.00    +0.000 A 
ATOM     26  C   UNL     1      62.687  64.282  69.756  0.00  0.00    +0.000 A 
ENDROOT
TORSDOF 0
ENDMDL
MODEL 4
REMARK VINA RESULT:   -11.283      3.906      4.315
REMARK INTER + INTRA:         -11.283
REMARK INTER:                 -11.283
REMARK INTRA:                   0.000
REMARK UNBOUND:                 0.000
ROOT
REMARK  Name = amocarzine
REMARK                            x       y       z     vdW  Elec       q    Type
REMARK                         _______ _______ _______ _____ _____    ______ ____
ATOM      1  C   UNL     1      59.709  62.005  66.993  0.00  0.00    +0.000 C 
ATOM      2  N   UNL     1      60.213  62.444  67.477  0.00  0.00    +0.000 NA
ATOM      3  C   UNL     1      60.125  62.419  68.296  0.00  0.00    +0.000 C 
ATOM      4  C   UNL     1      60.628  62.857  68.779  0.00  0.00    +0.000 C 
ATOM      5  N   UNL     1      61.220  63.323  68.444  0.00  0.00    +0.000 N 
ATOM      6  C   UNL     1      61.308  63.349  67.623  0.00  0.00    +0.000 C 
ATOM      7  C   UNL     1      60.805  62.910  67.140  0.00  0.00    +0.000 C 
ATOM      8  C   UNL     1      61.724  63.763  68.927  0.00  0.00    +0.000 C 
ATOM      9  S   UNL     1      62.316  64.228  68.590  0.00  0.00    +0.000 S 
ATOM     10  N   UNL     1      61.635  63.736  69.746  0.00  0.00    +0.000 NA
ATOM     11  C   UNL     1      62.140  64.176  70.230  0.00  0.00    +0.000 A 
ATOM     12  C   UNL     1      62.051  64.150  71.050  0.00  0.00    +0.000 A 
ATOM     13  C   UNL     1      62.554  64.589  71.534  0.00  0.00    +0.000 A 
ATOM     14  C   UNL     1      63.147  65.055  71.197  0.00  0.00    +0.000 A 
ATOM     15  N   UNL     1      63.650  65.494  71.680  0.00  0.00    +0.000 NA
ATOM     16  C   UNL     1      64.243  65.960  71.344  0.00  0.00    +0.000 A 
ATOM     17  C   UNL     1      64.746  66.399  71.828  0.00  0.00    +0.000 A 
ATOM     18  C   UNL     1      65.339  66.865  71.491  0.00  0.00    +0.000 A 
ATOM     19  C   UNL     1      65.427  66.891  70.672  0.00  0.00    +0.000 A 
ATOM     20  C   UNL     1      64.923  66.451  70.188  0.00  0.00    +0.000 A 
ATOM     21  C   UNL     1      64.331  65.986  70.524  0.00  0.00    +0.000 A 
ATOM     22  N   UNL     1      66.019  67.356  70.335  0.00  0.00    +0.000 N 
ATOM     23  O   UNL     1      66.523  67.796  70.818  0.00  0.00    +0.000 OA
ATOM     24  O   UNL     1      66.108  67.383  69.516  0.00  0.00    +0.000 OA
ATOM     25  C   UNL     1      63.235  65.081  70.377  0.00  0.00    +0.000 A 
ATOM     26  C   UNL     1      62.731  64.641  69.894  0.00  0.00    +0.000 A 
ENDROOT
TORSDOF 0
ENDMDL
MODEL 5
REMARK VINA RESULT:   -10.825      4.279      5.452
REMARK INTER + INTRA:         -10.825
REMARK INTER:                 -10.825
REMARK INTRA:                   0.000
REMARK UNBOUND:                 0.000
ROOT
REMARK  Name = amocarzine
REMARK                            x       y       z     vdW  Elec       q    Type
REMARK                         _______ _______ _______ _____ _____    ______ ____
ATOM      1  C   UNL     1      66.748  68.028  70.076  0.00  0.00    +0.000 C 
ATOM      2  N   UNL     1      66.112  67.541  70.274  0.00  0.00    +0.000 NA
ATOM      3  C   UNL     1      65.688  67.677  70.968  0.00  0.00    +0.000 C 
ATOM      4  C   UNL     1      65.053  67.191  71.166  0.00  0.00    +0.000 C 
ATOM      5  N   UNL     1      64.841  66.567  70.670  0.00  0.00    +0.000 N 
ATOM      6  C   UNL     1      65.265  66.431  69.974  0.00  0.00    +0.000 C 
ATOM      7  C   UNL     1      65.900  66.917  69.777  0.00  0.00    +0.000 C 
ATOM      8  C   UNL     1      64.205  66.080  70.867  0.00  0.00    +0.000 C 
ATOM      9  S   UNL     1      63.993  65.456  70.370  0.00  0.00    +0.000 S 
ATOM     10  N   UNL     1      63.782  66.217  71.562  0.00  0.00    +0.000 NA
ATOM     11  C   UNL     1      63.145  65.729  71.760  0.00  0.00    +0.000 A 
ATOM     12  C   UNL     1      62.722  65.866  72.455  0.00  0.00    +0.000 A 
ATOM     13  C   UNL     1      62.086  65.379  72.653  0.00  0.00    +0.000 A 
ATOM     14  C   UNL     1      61.874  64.755  72.156  0.00  0.00    +0.000 A 
ATOM     15  N   UNL     1      61.239  64.268  72.353  0.00  0.00    +0.000 NA
ATOM     16  C   UNL     1      61.026  63.644  71.857  0.00  0.00    +0.000 A 
ATOM     17  C   UNL     1      60.390  63.157  72.055  0.00  0.00    +0.000 A 
ATOM     18  C   UNL     1      60.179  62.534  71.558  0.00  0.00    +0.000 A 
ATOM     19  C   UNL     1      60.602  62.397  70.864  0.00  0.00    +0.000 A 
ATOM     20  C   UNL     1      61.238  62.884  70.666  0.00  0.00    +0.000 A 
ATOM     21  C   UNL     1      61.450  63.508  71.162  0.00  0.00    +0.000 A 
ATOM     22  N   UNL     1      60.390  61.774  70.366  0.00  0.00    +0.000 N 
ATOM     23  O   UNL     1      59.755  61.286  70.564  0.00  0.00    +0.000 OA
ATOM     24  O   UNL     1      60.813  61.637  69.672  0.00  0.00    +0.000 OA
ATOM     25  C   UNL     1      62.298  64.619  71.461  0.00  0.00    +0.000 A 
ATOM     26  C   UNL     1      62.933  65.106  71.263  0.00  0.00    +0.000 A 
ENDROOT
TORSDOF 0
ENDMDL
MODEL 6
REMARK VINA RESULT:   -10.024      4.263      5.548
REMARK INTER + INTRA:         -10.024
REMARK INTER:                 -10.024
REMARK INTRA:                   0.000
REMARK UNBOUND:                 0.000
ROOT
REMARK  Name = amocarzine
REMARK                            x       y       z     vdW  Elec       q    Type
REMARK                         _______ _______ _______ _____ _____    ______ ____
ATOM      1  C   UNL     1      59.995  61.241  70.608  0.00  0.00    +0.000 C 
ATOM      2  N   UNL     1      60.480  61.896  70.737  0.00  0.00    +0.000 NA
ATOM      3  C   UNL     1      60.349  62.385  71.389  0.00  0.00    +0.000 C 
ATOM      4  C   UNL     1      60.834  63.039  71.517  0.00  0.00    +0.000 C 
ATOM      5  N   UNL     1      61.450  63.206  70.995  0.00  0.00    +0.000 N 
ATOM      6  C   UNL     1      61.581  62.717  70.342  0.00  0.00    +0.000 C 
ATOM      7  C   UNL     1      61.096  62.063  70.213  0.00  0.00    +0.000 C 
ATOM      8  C   UNL     1      61.934  63.861  71.124  0.00  0.00    +0.000 C 
ATOM      9  S   UNL     1      62.550  64.027  70.600  0.00  0.00    +0.000 S 
ATOM     10  N   UNL     1      61.803  64.349  71.775  0.00  0.00    +0.000 NA
ATOM     11  C   UNL     1      62.289  65.005  71.904  0.00  0.00    +0.000 A 
ATOM     12  C   UNL     1      62.157  65.493  72.556  0.00  0.00    +0.000 A 
ATOM     13  C   UNL     1      62.642  66.147  72.685  0.00  0.00    +0.000 A 
ATOM     14  C   UNL     1      63.259  66.314  72.162  0.00  0.00    +0.000 A 
ATOM     15  N   UNL     1      63.743  66.968  72.290  0.00  0.00    +0.000 NA
ATOM     16  C   UNL     1      64.359  67.136  71.768  0.00  0.00    +0.000 A 
ATOM     17  C   UNL     1      64.844  67.791  71.897  0.00  0.00    +0.000 A 
ATOM     18  C   UNL     1      65.459  67.957  71.373  0.00  0.00    +0.000 A 
ATOM     19  C   UNL     1      65.590  67.469  70.722  0.00  0.00    +0.000 A 
ATOM     20  C   UNL     1      65.106  66.814  70.593  0.00  0.00    +0.000 A 
ATOM     21  C   UNL     1      64.490  66.647  71.115  0.00  0.00    +0.000 A 
ATOM     22  N   UNL     1      66.206  67.635  70.198  0.00  0.00    +0.000 N 
ATOM     23  O   UNL     1      66.691  68.290  70.327  0.00  0.00    +0.000 OA
ATOM     24  O   UNL     1      66.337  67.147  69.547  0.00  0.00    +0.000 OA
ATOM     25  C   UNL     1      63.389  65.826  71.510  0.00  0.00    +0.000 A 
ATOM     26  C   UNL     1      62.904  65.171  71.381  0.00  0.00    +0.000 A 
ENDROOT
TORSDOF 0
ENDMDL
MODEL 7
REMARK VINA RESULT:    -9.582     15.197     16.065
REMARK INTER + INTRA:          -9.582
REMARK INTER:                  -9.582
REMARK INTRA:                   0.000
REMARK UNBOUND:                 0.000
ROOT
REMARK  Name = amocarzine
REMARK                            x       y       z     vdW  Elec       q    Type
REMARK                         _______ _______ _______ _____ _____    ______ ____
ATOM      1  C   UNL     1      61.993  70.293  55.222  0.00  0.00    +0.000 C 
ATOM      2  N   UNL     1      62.016  69.496  55.009  0.00  0.00    +0.000 NA
ATOM      3  C   UNL     1      61.411  69.173  54.551  0.00  0.00    +0.000 C 
ATOM      4  C   UNL     1      61.433  68.377  54.338  0.00  0.00    +0.000 C 
ATOM      5  N   UNL     1      62.062  67.902  54.583  0.00  0.00    +0.000 N 
ATOM      6  C   UNL     1      62.669  68.225  55.041  0.00  0.00    +0.000 C 
ATOM      7  C   UNL     1      62.646  69.021  55.254  0.00  0.00    +0.000 C 
ATOM      8  C   UNL     1      62.085  67.106  54.370  0.00  0.00    +0.000 C 
ATOM      9  S   UNL     1      62.715  66.632  54.615  0.00  0.00    +0.000 S 
ATOM     10  N   UNL     1      61.479  66.784  53.912  0.00  0.00    +0.000 NA
ATOM     11  C   UNL     1      61.502  65.986  53.699  0.00  0.00    +0.000 A 
ATOM     12  C   UNL     1      60.896  65.665  53.241  0.00  0.00    +0.000 A 
ATOM     13  C   UNL     1      60.919  64.868  53.028  0.00  0.00    +0.000 A 
ATOM     14  C   UNL     1      61.548  64.393  53.273  0.00  0.00    +0.000 A 
ATOM     15  N   UNL     1      61.571  63.597  53.060  0.00  0.00    +0.000 NA
ATOM     16  C   UNL     1      62.200  63.122  53.305  0.00  0.00    +0.000 A 
ATOM     17  C   UNL     1      62.223  62.326  53.092  0.00  0.00    +0.000 A 
ATOM     18  C   UNL     1      62.852  61.852  53.337  0.00  0.00    +0.000 A 
ATOM     19  C   UNL     1      63.458  62.173  53.794  0.00  0.00    +0.000 A 
ATOM     20  C   UNL     1      63.435  62.970  54.007  0.00  0.00    +0.000 A 
ATOM     21  C   UNL     1      62.806  63.445  53.763  0.00  0.00    +0.000 A 
ATOM     22  N   UNL     1      64.087  61.699  54.039  0.00  0.00    +0.000 N 
ATOM     23  O   UNL     1      64.110  60.903  53.826  0.00  0.00    +0.000 OA
ATOM     24  O   UNL     1      64.693  62.021  54.496  0.00  0.00    +0.000 OA
ATOM     25  C   UNL     1      62.154  64.716  53.731  0.00  0.00    +0.000 A 
ATOM     26  C   UNL     1      62.131  65.512  53.944  0.00  0.00    +0.000 A 
ENDROOT
TORSDOF 0
ENDMDL
MODEL 8
REMARK VINA RESULT:    -9.504     15.183     15.499
REMARK INTER + INTRA:          -9.504
REMARK INTER:                  -9.504
REMARK INTRA:                   0.000
REMARK UNBOUND:                 0.000
ROOT
REMARK  Name = amocarzine
REMARK                            x       y       z     vdW  Elec       q    Type
REMARK                         _______ _______ _______ _____ _____    ______ ____
ATOM      1  C   UNL     1      62.359  62.158  53.183  0.00  0.00    +0.000 C 
ATOM      2  N   UNL     1      62.324  62.961  53.366  0.00  0.00    +0.000 NA
ATOM      3  C   UNL     1      62.965  63.330  53.731  0.00  0.00    +0.000 C 
ATOM      4  C   UNL     1      62.930  64.133  53.914  0.00  0.00    +0.000 C 
ATOM      5  N   UNL     1      62.254  64.569  53.733  0.00  0.00    +0.000 N 
ATOM      6  C   UNL     1      61.611  64.200  53.368  0.00  0.00    +0.000 C 
ATOM      7  C   UNL     1      61.646  63.397  53.185  0.00  0.00    +0.000 C 
ATOM      8  C   UNL     1      62.218  65.372  53.916  0.00  0.00    +0.000 C 
ATOM      9  S   UNL     1      61.541  65.807  53.735  0.00  0.00    +0.000 S 
ATOM     10  N   UNL     1      62.860  65.740  54.281  0.00  0.00    +0.000 NA
ATOM     11  C   UNL     1      62.825  66.545  54.464  0.00  0.00    +0.000 A 
ATOM     12  C   UNL     1      63.467  66.912  54.829  0.00  0.00    +0.000 A 
ATOM     13  C   UNL     1      63.432  67.716  55.013  0.00  0.00    +0.000 A 
ATOM     14  C   UNL     1      62.754  68.152  54.831  0.00  0.00    +0.000 A 
ATOM     15  N   UNL     1      62.719  68.954  55.014  0.00  0.00    +0.000 NA
ATOM     16  C   UNL     1      62.043  69.390  54.833  0.00  0.00    +0.000 A 
ATOM     17  C   UNL     1      62.008  70.194  55.017  0.00  0.00    +0.000 A 
ATOM     18  C   UNL     1      61.330  70.629  54.835  0.00  0.00    +0.000 A 
ATOM     19  C   UNL     1      60.689  70.261  54.470  0.00  0.00    +0.000 A 
ATOM     20  C   UNL     1      60.724  69.457  54.287  0.00  0.00    +0.000 A 
ATOM     21  C   UNL     1      61.401  69.021  54.468  0.00  0.00    +0.000 A 
ATOM     22  N   UNL     1      60.012  70.696  54.289  0.00  0.00    +0.000 N 
ATOM     23  O   UNL     1      59.976  71.499  54.472  0.00  0.00    +0.000 OA
ATOM     24  O   UNL     1      59.370  70.328  53.924  0.00  0.00    +0.000 OA
ATOM     25  C   UNL     1      62.113  67.783  54.467  0.00  0.00    +0.000 A 
ATOM     26  C   UNL     1      62.148  66.979  54.283  0.00  0.00    +0.000 A 
ENDROOT
TORSDOF 0
ENDMDL
MODEL 9
REMARK VINA RESULT:    -9.441     14.824     15.570
REMARK INTER + INTRA:          -9.441
REMARK INTER:                  -9.441
REMARK INTRA:                   0.000
REMARK UNBOUND:                 0.000
ROOT
REMARK  Name = amocarzine
REMARK                            x       y       z     vdW  Elec       q    Type
REMARK                         _______ _______ _______ _____ _____    ______ ____
ATOM      1  C   UNL     1      63.799  59.321  53.387  0.00  0.00    +0.000 C 
ATOM      2  N   UNL     1      63.561  60.110  53.420  0.00  0.00    +0.000 NA
ATOM      3  C   UNL     1      63.008  60.397  52.880  0.00  0.00    +0.000 C 
ATOM      4  C   UNL     1      62.770  61.186  52.913  0.00  0.00    +0.000 C 
ATOM      5  N   UNL     1      63.084  61.688  53.486  0.00  0.00    +0.000 N 
ATOM      6  C   UNL     1      63.638  61.401  54.027  0.00  0.00    +0.000 C 
ATOM      7  C   UNL     1      63.876  60.613  53.994  0.00  0.00    +0.000 C 
ATOM      8  C   UNL     1      62.846  62.477  53.519  0.00  0.00    +0.000 C 
ATOM      9  S   UNL     1      63.161  62.979  54.093  0.00  0.00    +0.000 S 
ATOM     10  N   UNL     1      62.293  62.764  52.979  0.00  0.00    +0.000 NA
ATOM     11  C   UNL     1      62.055  63.554  53.012  0.00  0.00    +0.000 A 
ATOM     12  C   UNL     1      61.501  63.840  52.471  0.00  0.00    +0.000 A 
ATOM     13  C   UNL     1      61.263  64.629  52.504  0.00  0.00    +0.000 A 
ATOM     14  C   UNL     1      61.578  65.132  53.078  0.00  0.00    +0.000 A 
ATOM     15  N   UNL     1      61.340  65.920  53.111  0.00  0.00    +0.000 NA
ATOM     16  C   UNL     1      61.654  66.423  53.684  0.00  0.00    +0.000 A 
ATOM     17  C   UNL     1      61.416  67.212  53.717  0.00  0.00    +0.000 A 
ATOM     18  C   UNL     1      61.731  67.714  54.292  0.00  0.00    +0.000 A 
ATOM     19  C   UNL     1      62.284  67.428  54.832  0.00  0.00    +0.000 A 
ATOM     20  C   UNL     1      62.522  66.639  54.799  0.00  0.00    +0.000 A 
ATOM     21  C   UNL     1      62.208  66.136  54.226  0.00  0.00    +0.000 A 
ATOM     22  N   UNL     1      62.599  67.930  55.406  0.00  0.00    +0.000 N 
ATOM     23  O   UNL     1      62.360  68.719  55.439  0.00  0.00    +0.000 OA
ATOM     24  O   UNL     1      63.151  67.643  55.947  0.00  0.00    +0.000 OA
ATOM     25  C   UNL     1      62.131  64.845  53.618  0.00  0.00    +0.000 A 
ATOM     26  C   UNL     1      62.369  64.056  53.585  0.00  0.00    +0.000 A 
ENDROOT
TORSDOF 0
ENDMDL
