MODEL 1
REMARK VINA RESULT:   -11.716      0.000      0.000
REMARK INTER + INTRA:         -11.716
REMARK INTER:                 -11.716
REMARK INTRA:                   0.000
REMARK UNBOUND:                 0.000
ROOT
REMARK  Name = amoxicillin
REMARK                            x       y       z     vdW  Elec       q    Type
REMARK                         _______ _______ _______ _____ _____    ______ ____
ATOM      1  C   UNL     1      60.039  64.004  71.033  0.00  0.00    +0.000 C 
ATOM      2  C   UNL     1      60.706  64.081  70.554  0.00  0.00    +0.000 C 
ATOM      3  C   UNL     1      61.008  64.509  71.192  0.00  0.00    +0.000 C 
ATOM      4  S   UNL     1      60.265  63.637  70.017  0.00  0.00    +0.000 S 
ATOM      5  C   UNL     1      60.723  63.529  69.339  0.00  0.00    +0.000 C 
ATOM      6  CA  UNL     1      60.969  63.293  68.587  0.00  0.00    +0.000 C 
ATOM      7  N   UNL     1      60.631  62.859  67.973  0.00  0.00    +0.000 NA
ATOM      8  C   UNL     1      61.056  62.728  67.278  0.00  0.00    +0.000 C 
ATOM      9  O   UNL     1      61.819  63.032  67.198  0.00  0.00    +0.000 OA
ATOM     10  CA  UNL     1      60.718  62.295  66.663  0.00  0.00    +0.000 C 
ATOM     11  N   UNL     1      59.955  61.991  66.742  0.00  0.00    +0.000 NA
ATOM     12  C   UNL     1      61.144  62.165  65.968  0.00  0.00    +0.000 A 
ATOM     13  C   UNL     1      60.805  61.731  65.353  0.00  0.00    +0.000 A 
ATOM     14  C   UNL     1      61.231  61.600  64.658  0.00  0.00    +0.000 A 
ATOM     15  C   UNL     1      61.994  61.904  64.578  0.00  0.00    +0.000 A 
ATOM     16  O   UNL     1      62.419  61.773  63.883  0.00  0.00    +0.000 OA
ATOM     17  C   UNL     1      62.332  62.337  65.193  0.00  0.00    +0.000 A 
ATOM     18  C   UNL     1      61.907  62.468  65.888  0.00  0.00    +0.000 A 
ATOM     19  C   UNL     1      61.693  63.670  68.706  0.00  0.00    +0.000 C 
ATOM     20  O   UNL     1      62.379  63.770  68.259  0.00  0.00    +0.000 OA
ATOM     21  N   UNL     1      61.447  63.906  69.457  0.00  0.00    +0.000 N 
ATOM     22  CA  UNL     1      61.436  64.248  70.209  0.00  0.00    +0.000 C 
ATOM     23  C   UNL     1      62.049  64.680  70.554  0.00  0.00    +0.000 C 
ATOM     24  O   UNL     1      62.752  64.802  70.139  0.00  0.00    +0.000 OA
ATOM     25  OXT UNL     1      61.958  64.989  71.313  0.00  0.00    +0.000 OA
ENDROOT
TORSDOF 0
ENDMDL
MODEL 2
REMARK VINA RESULT:   -11.582      1.589      5.283
REMARK INTER + INTRA:         -11.582
REMARK INTER:                 -11.582
REMARK INTRA:                   0.000
REMARK UNBOUND:                 0.000
ROOT
REMARK  Name = amoxicillin
REMARK                            x       y       z     vdW  Elec       q    Type
REMARK                         _______ _______ _______ _____ _____    ______ ____
ATOM      1  C   UNL     1      62.473  62.231  64.441  0.00  0.00    +0.000 C 
ATOM      2  C   UNL     1      61.823  62.042  64.913  0.00  0.00    +0.000 C 
ATOM      3  C   UNL     1      61.571  61.625  64.247  0.00  0.00    +0.000 C 
ATOM      4  S   UNL     1      62.212  62.498  65.480  0.00  0.00    +0.000 S 
ATOM      5  C   UNL     1      61.750  62.505  66.163  0.00  0.00    +0.000 C 
ATOM      6  CA  UNL     1      61.482  62.658  66.929  0.00  0.00    +0.000 C 
ATOM      7  N   UNL     1      61.770  63.086  67.572  0.00  0.00    +0.000 NA
ATOM      8  C   UNL     1      61.338  63.117  68.274  0.00  0.00    +0.000 C 
ATOM      9  O   UNL     1      60.617  62.720  68.331  0.00  0.00    +0.000 OA
ATOM     10  CA  UNL     1      61.626  63.545  68.917  0.00  0.00    +0.000 C 
ATOM     11  N   UNL     1      62.346  63.943  68.859  0.00  0.00    +0.000 NA
ATOM     12  C   UNL     1      61.193  63.576  69.619  0.00  0.00    +0.000 A 
ATOM     13  C   UNL     1      61.481  64.005  70.262  0.00  0.00    +0.000 A 
ATOM     14  C   UNL     1      61.048  64.035  70.964  0.00  0.00    +0.000 A 
ATOM     15  C   UNL     1      60.327  63.638  71.022  0.00  0.00    +0.000 A 
ATOM     16  O   UNL     1      59.895  63.670  71.724  0.00  0.00    +0.000 OA
ATOM     17  C   UNL     1      60.040  63.210  70.379  0.00  0.00    +0.000 A 
ATOM     18  C   UNL     1      60.472  63.179  69.677  0.00  0.00    +0.000 A 
ATOM     19  C   UNL     1      60.808  62.205  66.784  0.00  0.00    +0.000 C 
ATOM     20  O   UNL     1      60.142  61.994  67.222  0.00  0.00    +0.000 OA
ATOM     21  N   UNL     1      61.075  62.052  66.018  0.00  0.00    +0.000 N 
ATOM     22  CA  UNL     1      61.121  61.766  65.245  0.00  0.00    +0.000 C 
ATOM     23  C   UNL     1      60.562  61.289  64.871  0.00  0.00    +0.000 C 
ATOM     24  O   UNL     1      59.882  61.055  65.275  0.00  0.00    +0.000 OA
ATOM     25  OXT UNL     1      60.683  61.045  64.092  0.00  0.00    +0.000 OA
ENDROOT
TORSDOF 0
ENDMDL
MODEL 3
REMARK VINA RESULT:   -11.172      2.719      5.320
REMARK INTER + INTRA:         -11.172
REMARK INTER:                 -11.172
REMARK INTRA:                   0.000
REMARK UNBOUND:                 0.000
ROOT
REMARK  Name = amoxicillin
REMARK                            x       y       z     vdW  Elec       q    Type
REMARK                         _______ _______ _______ _____ _____    ______ ____
ATOM      1  C   UNL     1      60.510  62.821  71.347  0.00  0.00    +0.000 C 
ATOM      2  C   UNL     1      60.964  63.055  70.699  0.00  0.00    +0.000 C 
ATOM      3  C   UNL     1      60.501  62.512  70.287  0.00  0.00    +0.000 C 
ATOM      4  S   UNL     1      61.333  63.551  71.248  0.00  0.00    +0.000 S 
ATOM      5  C   UNL     1      61.919  63.977  70.853  0.00  0.00    +0.000 C 
ATOM      6  CA  UNL     1      62.537  64.500  70.695  0.00  0.00    +0.000 C 
ATOM      7  N   UNL     1      62.978  65.034  71.143  0.00  0.00    +0.000 NA
ATOM      8  C   UNL     1      63.573  65.480  70.786  0.00  0.00    +0.000 C 
ATOM      9  O   UNL     1      63.726  65.391  69.980  0.00  0.00    +0.000 OA
ATOM     10  CA  UNL     1      64.014  66.013  71.233  0.00  0.00    +0.000 C 
ATOM     11  N   UNL     1      63.861  66.102  72.039  0.00  0.00    +0.000 NA
ATOM     12  C   UNL     1      64.609  66.459  70.875  0.00  0.00    +0.000 A 
ATOM     13  C   UNL     1      65.051  66.992  71.324  0.00  0.00    +0.000 A 
ATOM     14  C   UNL     1      65.646  67.438  70.966  0.00  0.00    +0.000 A 
ATOM     15  C   UNL     1      65.800  67.350  70.160  0.00  0.00    +0.000 A 
ATOM     16  O   UNL     1      66.395  67.796  69.803  0.00  0.00    +0.000 OA
ATOM     17  C   UNL     1      65.359  66.817  69.712  0.00  0.00    +0.000 A 
ATOM     18  C   UNL     1      64.763  66.371  70.070  0.00  0.00    +0.000 A 
ATOM     19  C   UNL     1      62.530  64.269  69.903  0.00  0.00    +0.000 C 
ATOM     20  O   UNL     1      62.962  64.475  69.231  0.00  0.00    +0.000 OA
ATOM     21  N   UNL     1      61.912  63.746  70.061  0.00  0.00    +0.000 N 
ATOM     22  CA  UNL     1      61.323  63.176  69.966  0.00  0.00    +0.000 C 
ATOM     23  C   UNL     1      61.125  62.794  69.262  0.00  0.00    +0.000 C 
ATOM     24  O   UNL     1      61.534  62.972  68.568  0.00  0.00    +0.000 OA
ATOM     25  OXT UNL     1      60.520  62.234  69.252  0.00  0.00    +0.000 OA
ENDROOT
TORSDOF 0
ENDMDL
MODEL 4
REMARK VINA RESULT:   -10.858      3.719      4.938
REMARK INTER + INTRA:         -10.858
REMARK INTER:                 -10.858
REMARK INTRA:                   0.000
REMARK UNBOUND:                 0.000
ROOT
REMARK  Name = amoxicillin
REMARK                            x       y       z     vdW  Elec       q    Type
REMARK                         _______ _______ _______ _____ _____    ______ ____
ATOM      1  C   UNL     1      64.995  67.355  71.874  0.00  0.00    +0.000 C 
ATOM      2  C   UNL     1      64.815  66.868  71.233  0.00  0.00    +0.000 C 
ATOM      3  C   UNL     1      65.398  67.307  70.847  0.00  0.00    +0.000 C 
ATOM      4  S   UNL     1      64.270  66.532  71.753  0.00  0.00    +0.000 S 
ATOM      5  C   UNL     1      63.874  65.928  71.352  0.00  0.00    +0.000 C 
ATOM      6  CA  UNL     1      63.361  65.305  71.180  0.00  0.00    +0.000 C 
ATOM      7  N   UNL     1      62.786  64.891  71.600  0.00  0.00    +0.000 NA
ATOM      8  C   UNL     1      62.368  64.280  71.236  0.00  0.00    +0.000 C 
ATOM      9  O   UNL     1      62.527  64.084  70.450  0.00  0.00    +0.000 OA
ATOM     10  CA  UNL     1      61.793  63.865  71.657  0.00  0.00    +0.000 C 
ATOM     11  N   UNL     1      61.634  64.061  72.442  0.00  0.00    +0.000 NA
ATOM     12  C   UNL     1      61.375  63.254  71.291  0.00  0.00    +0.000 A 
ATOM     13  C   UNL     1      60.800  62.840  71.713  0.00  0.00    +0.000 A 
ATOM     14  C   UNL     1      60.382  62.229  71.347  0.00  0.00    +0.000 A 
ATOM     15  C   UNL     1      60.540  62.032  70.562  0.00  0.00    +0.000 A 
ATOM     16  O   UNL     1      60.122  61.421  70.197  0.00  0.00    +0.000 OA
ATOM     17  C   UNL     1      61.115  62.447  70.141  0.00  0.00    +0.000 A 
ATOM     18  C   UNL     1      61.533  63.058  70.505  0.00  0.00    +0.000 A 
ATOM     19  C   UNL     1      63.663  65.269  70.413  0.00  0.00    +0.000 C 
ATOM     20  O   UNL     1      63.513  64.803  69.748  0.00  0.00    +0.000 OA
ATOM     21  N   UNL     1      64.176  65.892  70.585  0.00  0.00    +0.000 N 
ATOM     22  CA  UNL     1      64.757  66.473  70.511  0.00  0.00    +0.000 C 
ATOM     23  C   UNL     1      65.202  66.631  69.835  0.00  0.00    +0.000 C 
ATOM     24  O   UNL     1      65.083  66.188  69.149  0.00  0.00    +0.000 OA
ATOM     25  OXT UNL     1      65.766  67.233  69.844  0.00  0.00    +0.000 OA
ENDROOT
TORSDOF 0
ENDMDL
MODEL 5
REMARK VINA RESULT:   -10.836      1.161      4.986
REMARK INTER + INTRA:         -10.836
REMARK INTER:                 -10.836
REMARK INTRA:                   0.000
REMARK UNBOUND:                 0.000
ROOT
REMARK  Name = amoxicillin
REMARK                            x       y       z     vdW  Elec       q    Type
REMARK                         _______ _______ _______ _____ _____    ______ ____
ATOM      1  C   UNL     1      59.311  61.989  66.326  0.00  0.00    +0.000 C 
ATOM      2  C   UNL     1      60.066  62.280  66.489  0.00  0.00    +0.000 C 
ATOM      3  C   UNL     1      60.243  61.997  65.734  0.00  0.00    +0.000 C 
ATOM      4  S   UNL     1      59.731  62.502  67.209  0.00  0.00    +0.000 S 
ATOM      5  C   UNL     1      60.316  62.871  67.659  0.00  0.00    +0.000 C 
ATOM      6  CA  UNL     1      60.705  63.258  68.276  0.00  0.00    +0.000 C 
ATOM      7  N   UNL     1      60.488  63.526  69.025  0.00  0.00    +0.000 NA
ATOM      8  C   UNL     1      61.043  63.901  69.506  0.00  0.00    +0.000 C 
ATOM      9  O   UNL     1      61.816  64.007  69.238  0.00  0.00    +0.000 OA
ATOM     10  CA  UNL     1      60.826  64.170  70.255  0.00  0.00    +0.000 C 
ATOM     11  N   UNL     1      60.053  64.064  70.523  0.00  0.00    +0.000 NA
ATOM     12  C   UNL     1      61.382  64.545  70.736  0.00  0.00    +0.000 A 
ATOM     13  C   UNL     1      61.164  64.813  71.485  0.00  0.00    +0.000 A 
ATOM     14  C   UNL     1      61.720  65.188  71.966  0.00  0.00    +0.000 A 
ATOM     15  C   UNL     1      62.493  65.294  71.698  0.00  0.00    +0.000 A 
ATOM     16  O   UNL     1      63.049  65.669  72.179  0.00  0.00    +0.000 OA
ATOM     17  C   UNL     1      62.711  65.025  70.949  0.00  0.00    +0.000 A 
ATOM     18  C   UNL     1      62.155  64.650  70.468  0.00  0.00    +0.000 A 
ATOM     19  C   UNL     1      61.401  63.264  67.833  0.00  0.00    +0.000 C 
ATOM     20  O   UNL     1      62.168  63.541  67.956  0.00  0.00    +0.000 OA
ATOM     21  N   UNL     1      61.012  62.877  67.217  0.00  0.00    +0.000 N 
ATOM     22  CA  UNL     1      60.857  62.512  66.493  0.00  0.00    +0.000 C 
ATOM     23  C   UNL     1      61.400  62.398  65.881  0.00  0.00    +0.000 C 
ATOM     24  O   UNL     1      62.177  62.661  65.965  0.00  0.00    +0.000 OA
ATOM     25  OXT UNL     1      61.164  62.021  65.186  0.00  0.00    +0.000 OA
ENDROOT
TORSDOF 0
ENDMDL
MODEL 6
REMARK VINA RESULT:   -10.422      1.423      2.152
REMARK INTER + INTRA:         -10.422
REMARK INTER:                 -10.422
REMARK INTRA:                   0.000
REMARK UNBOUND:                 0.000
ROOT
REMARK  Name = amoxicillin
REMARK                            x       y       z     vdW  Elec       q    Type
REMARK                         _______ _______ _______ _____ _____    ______ ____
ATOM      1  C   UNL     1      61.841  65.110  72.846  0.00  0.00    +0.000 C 
ATOM      2  C   UNL     1      62.137  65.244  72.088  0.00  0.00    +0.000 C 
ATOM      3  C   UNL     1      62.558  65.852  72.454  0.00  0.00    +0.000 C 
ATOM      4  S   UNL     1      61.654  64.607  71.881  0.00  0.00    +0.000 S 
ATOM      5  C   UNL     1      61.741  64.474  71.071  0.00  0.00    +0.000 C 
ATOM      6  CA  UNL     1      61.657  64.155  70.315  0.00  0.00    +0.000 C 
ATOM      7  N   UNL     1      61.220  63.537  69.988  0.00  0.00    +0.000 NA
ATOM      8  C   UNL     1      61.278  63.372  69.182  0.00  0.00    +0.000 C 
ATOM      9  O   UNL     1      61.773  63.825  68.704  0.00  0.00    +0.000 OA
ATOM     10  CA  UNL     1      60.840  62.754  68.855  0.00  0.00    +0.000 C 
ATOM     11  N   UNL     1      60.344  62.301  69.334  0.00  0.00    +0.000 NA
ATOM     12  C   UNL     1      60.898  62.589  68.049  0.00  0.00    +0.000 A 
ATOM     13  C   UNL     1      60.460  61.971  67.722  0.00  0.00    +0.000 A 
ATOM     14  C   UNL     1      60.519  61.806  66.916  0.00  0.00    +0.000 A 
ATOM     15  C   UNL     1      61.014  62.259  66.436  0.00  0.00    +0.000 A 
ATOM     16  O   UNL     1      61.072  62.093  65.630  0.00  0.00    +0.000 OA
ATOM     17  C   UNL     1      61.452  62.877  66.763  0.00  0.00    +0.000 A 
ATOM     18  C   UNL     1      61.394  63.042  67.569  0.00  0.00    +0.000 A 
ATOM     19  C   UNL     1      62.193  64.709  70.022  0.00  0.00    +0.000 C 
ATOM     20  O   UNL     1      62.513  64.876  69.280  0.00  0.00    +0.000 OA
ATOM     21  N   UNL     1      62.276  65.029  70.778  0.00  0.00    +0.000 N 
ATOM     22  CA  UNL     1      62.521  65.504  71.406  0.00  0.00    +0.000 C 
ATOM     23  C   UNL     1      63.057  66.131  71.361  0.00  0.00    +0.000 C 
ATOM     24  O   UNL     1      63.399  66.329  70.637  0.00  0.00    +0.000 OA
ATOM     25  OXT UNL     1      63.249  66.558  72.040  0.00  0.00    +0.000 OA
ENDROOT
TORSDOF 0
ENDMDL
MODEL 7
REMARK VINA RESULT:   -10.337      1.788      5.411
REMARK INTER + INTRA:         -10.337
REMARK INTER:                 -10.337
REMARK INTRA:                   0.000
REMARK UNBOUND:                 0.000
ROOT
REMARK  Name = amoxicillin
REMARK                            x       y       z     vdW  Elec       q    Type
REMARK                         _______ _______ _______ _____ _____    ______ ____
ATOM      1  C   UNL     1      60.205  61.657  69.097  0.00  0.00    +0.000 C 
ATOM      2  C   UNL     1      60.708  62.262  68.849  0.00  0.00    +0.000 C 
ATOM      3  C   UNL     1      60.616  61.917  68.105  0.00  0.00    +0.000 C 
ATOM      4  S   UNL     1      60.695  62.481  69.645  0.00  0.00    +0.000 S 
ATOM      5  C   UNL     1      61.171  63.149  69.733  0.00  0.00    +0.000 C 
ATOM      6  CA  UNL     1      61.571  63.789  70.067  0.00  0.00    +0.000 C 
ATOM      7  N   UNL     1      61.637  64.104  70.826  0.00  0.00    +0.000 NA
ATOM      8  C   UNL     1      62.104  64.772  70.957  0.00  0.00    +0.000 C 
ATOM      9  O   UNL     1      62.504  65.124  70.328  0.00  0.00    +0.000 OA
ATOM     10  CA  UNL     1      62.170  65.086  71.716  0.00  0.00    +0.000 C 
ATOM     11  N   UNL     1      61.770  64.734  72.346  0.00  0.00    +0.000 NA
ATOM     12  C   UNL     1      62.636  65.754  71.846  0.00  0.00    +0.000 A 
ATOM     13  C   UNL     1      62.702  66.069  72.607  0.00  0.00    +0.000 A 
ATOM     14  C   UNL     1      63.169  66.737  72.737  0.00  0.00    +0.000 A 
ATOM     15  C   UNL     1      63.569  67.090  72.108  0.00  0.00    +0.000 A 
ATOM     16  O   UNL     1      64.035  67.758  72.239  0.00  0.00    +0.000 OA
ATOM     17  C   UNL     1      63.503  66.776  71.348  0.00  0.00    +0.000 A 
ATOM     18  C   UNL     1      63.037  66.108  71.217  0.00  0.00    +0.000 A 
ATOM     19  C   UNL     1      61.878  63.983  69.326  0.00  0.00    +0.000 C 
ATOM     20  O   UNL     1      62.379  64.572  69.038  0.00  0.00    +0.000 OA
ATOM     21  N   UNL     1      61.478  63.344  68.993  0.00  0.00    +0.000 N 
ATOM     22  CA  UNL     1      61.192  62.795  68.446  0.00  0.00    +0.000 C 
ATOM     23  C   UNL     1      61.360  62.782  67.638  0.00  0.00    +0.000 C 
ATOM     24  O   UNL     1      61.856  63.354  67.311  0.00  0.00    +0.000 OA
ATOM     25  OXT UNL     1      61.032  62.197  67.158  0.00  0.00    +0.000 OA
ENDROOT
TORSDOF 0
ENDMDL
MODEL 8
REMARK VINA RESULT:    -9.752      2.158      3.381
REMARK INTER + INTRA:          -9.752
REMARK INTER:                  -9.752
REMARK INTRA:                   0.000
REMARK UNBOUND:                 0.000
ROOT
REMARK  Name = amoxicillin
REMARK                            x       y       z     vdW  Elec       q    Type
REMARK                         _______ _______ _______ _____ _____    ______ ____
ATOM      1  C   UNL     1      61.441  66.571  73.059  0.00  0.00    +0.000 C 
ATOM      2  C   UNL     1      60.797  66.398  72.574  0.00  0.00    +0.000 C 
ATOM      3  C   UNL     1      60.382  66.880  73.100  0.00  0.00    +0.000 C 
ATOM      4  S   UNL     1      61.346  65.952  72.150  0.00  0.00    +0.000 S 
ATOM      5  C   UNL     1      60.955  65.605  71.512  0.00  0.00    +0.000 C 
ATOM      6  CA  UNL     1      60.800  65.164  70.832  0.00  0.00    +0.000 C 
ATOM      7  N   UNL     1      61.250  64.690  70.329  0.00  0.00    +0.000 NA
ATOM      8  C   UNL     1      60.896  64.324  69.680  0.00  0.00    +0.000 C 
ATOM      9  O   UNL     1      60.091  64.433  69.534  0.00  0.00    +0.000 OA
ATOM     10  CA  UNL     1      61.346  63.849  69.178  0.00  0.00    +0.000 C 
ATOM     11  N   UNL     1      62.150  63.739  69.324  0.00  0.00    +0.000 NA
ATOM     12  C   UNL     1      60.991  63.483  68.529  0.00  0.00    +0.000 A 
ATOM     13  C   UNL     1      61.442  63.009  68.027  0.00  0.00    +0.000 A 
ATOM     14  C   UNL     1      61.087  62.643  67.377  0.00  0.00    +0.000 A 
ATOM     15  C   UNL     1      60.282  62.752  67.230  0.00  0.00    +0.000 A 
ATOM     16  O   UNL     1      59.929  62.386  66.581  0.00  0.00    +0.000 OA
ATOM     17  C   UNL     1      59.833  63.227  67.732  0.00  0.00    +0.000 A 
ATOM     18  C   UNL     1      60.186  63.593  68.382  0.00  0.00    +0.000 A 
ATOM     19  C   UNL     1      60.008  65.395  70.862  0.00  0.00    +0.000 C 
ATOM     20  O   UNL     1      59.339  65.248  70.403  0.00  0.00    +0.000 OA
ATOM     21  N   UNL     1      60.163  65.836  71.542  0.00  0.00    +0.000 N 
ATOM     22  CA  UNL     1      60.066  66.326  72.199  0.00  0.00    +0.000 C 
ATOM     23  C   UNL     1      59.361  66.683  72.438  0.00  0.00    +0.000 C 
ATOM     24  O   UNL     1      58.669  66.560  72.005  0.00  0.00    +0.000 OA
ATOM     25  OXT UNL     1      59.348  67.161  73.109  0.00  0.00    +0.000 OA
ENDROOT
TORSDOF 0
ENDMDL
MODEL 9
REMARK VINA RESULT:    -9.441      5.166      6.409
REMARK INTER + INTRA:          -9.441
REMARK INTER:                  -9.441
REMARK INTRA:                   0.000
REMARK UNBOUND:                 0.000
ROOT
REMARK  Name = amoxicillin
REMARK                            x       y       z     vdW  Elec       q    Type
REMARK                         _______ _______ _______ _____ _____    ______ ____
ATOM      1  C   UNL     1      65.270  67.658  71.685  0.00  0.00    +0.000 C 
ATOM      2  C   UNL     1      64.809  67.051  71.370  0.00  0.00    +0.000 C 
ATOM      3  C   UNL     1      65.488  66.879  70.933  0.00  0.00    +0.000 C 
ATOM      4  S   UNL     1      64.227  67.350  71.872  0.00  0.00    +0.000 S 
ATOM      5  C   UNL     1      63.547  66.891  71.777  0.00  0.00    +0.000 C 
ATOM      6  CA  UNL     1      62.780  66.599  71.858  0.00  0.00    +0.000 C 
ATOM      7  N   UNL     1      62.123  66.803  72.313  0.00  0.00    +0.000 NA
ATOM      8  C   UNL     1      61.424  66.370  72.247  0.00  0.00    +0.000 C 
ATOM      9  O   UNL     1      61.383  65.732  71.726  0.00  0.00    +0.000 OA
ATOM     10  CA  UNL     1      60.768  66.574  72.701  0.00  0.00    +0.000 C 
ATOM     11  N   UNL     1      60.809  67.213  73.222  0.00  0.00    +0.000 NA
ATOM     12  C   UNL     1      60.069  66.140  72.635  0.00  0.00    +0.000 A 
ATOM     13  C   UNL     1      59.412  66.346  73.090  0.00  0.00    +0.000 A 
ATOM     14  C   UNL     1      58.713  65.912  73.023  0.00  0.00    +0.000 A 
ATOM     15  C   UNL     1      58.671  65.273  72.502  0.00  0.00    +0.000 A 
ATOM     16  O   UNL     1      57.972  64.840  72.436  0.00  0.00    +0.000 OA
ATOM     17  C   UNL     1      59.328  65.068  72.048  0.00  0.00    +0.000 A 
ATOM     18  C   UNL     1      60.027  65.502  72.114  0.00  0.00    +0.000 A 
ATOM     19  C   UNL     1      62.943  66.016  71.297  0.00  0.00    +0.000 C 
ATOM     20  O   UNL     1      62.516  65.397  70.958  0.00  0.00    +0.000 OA
ATOM     21  N   UNL     1      63.710  66.309  71.215  0.00  0.00    +0.000 N 
ATOM     22  CA  UNL     1      64.490  66.408  70.964  0.00  0.00    +0.000 C 
ATOM     23  C   UNL     1      64.881  65.944  70.405  0.00  0.00    +0.000 C 
ATOM     24  O   UNL     1      64.489  65.315  70.042  0.00  0.00    +0.000 OA
ATOM     25  OXT UNL     1      65.665  66.110  70.208  0.00  0.00    +0.000 OA
ENDROOT
TORSDOF 0
ENDMDL
