MODEL 1
REMARK VINA RESULT:   -11.375      0.000      0.000
REMARK INTER + INTRA:         -11.375
REMARK INTER:                 -11.375
REMARK INTRA:                   0.000
REMARK UNBOUND:                 0.000
ROOT
REMARK  Name = ampicillin
REMARK                            x       y       z     vdW  Elec       q    Type
REMARK                         _______ _______ _______ _____ _____    ______ ____
ATOM      1  C   UNL     1      59.900  64.095  70.578  0.00  0.00    +0.000 C 
ATOM      2  C   UNL     1      60.607  64.085  70.152  0.00  0.00    +0.000 C 
ATOM      3  C   UNL     1      60.907  64.487  70.807  0.00  0.00    +0.000 C 
ATOM      4  S   UNL     1      60.159  63.685  69.586  0.00  0.00    +0.000 S 
ATOM      5  C   UNL     1      60.651  63.512  68.947  0.00  0.00    +0.000 C 
ATOM      6  CA  UNL     1      60.925  63.235  68.219  0.00  0.00    +0.000 C 
ATOM      7  N   UNL     1      60.587  62.833  67.584  0.00  0.00    +0.000 NA
ATOM      8  C   UNL     1      61.045  62.641  66.926  0.00  0.00    +0.000 C 
ATOM      9  O   UNL     1      61.842  62.852  66.903  0.00  0.00    +0.000 OA
ATOM     10  CA  UNL     1      60.707  62.238  66.291  0.00  0.00    +0.000 C 
ATOM     11  N   UNL     1      59.910  62.027  66.313  0.00  0.00    +0.000 NA
ATOM     12  C   UNL     1      61.166  62.047  65.632  0.00  0.00    +0.000 A 
ATOM     13  C   UNL     1      60.827  61.644  64.997  0.00  0.00    +0.000 A 
ATOM     14  C   UNL     1      61.286  61.452  64.339  0.00  0.00    +0.000 A 
ATOM     15  C   UNL     1      62.084  61.663  64.316  0.00  0.00    +0.000 A 
ATOM     16  C   UNL     1      62.422  62.066  64.951  0.00  0.00    +0.000 A 
ATOM     17  C   UNL     1      61.964  62.258  65.609  0.00  0.00    +0.000 A 
ATOM     18  C   UNL     1      61.677  63.528  68.391  0.00  0.00    +0.000 C 
ATOM     19  O   UNL     1      62.402  63.540  67.998  0.00  0.00    +0.000 OA
ATOM     20  N   UNL     1      61.403  63.805  69.118  0.00  0.00    +0.000 N 
ATOM     21  CA  UNL     1      61.375  64.159  69.863  0.00  0.00    +0.000 C 
ATOM     22  C   UNL     1      62.006  64.523  70.251  0.00  0.00    +0.000 C 
ATOM     23  O   UNL     1      62.748  64.556  69.892  0.00  0.00    +0.000 OA
ATOM     24  OXT UNL     1      61.895  64.855  70.998  0.00  0.00    +0.000 OA
ENDROOT
TORSDOF 0
ENDMDL
MODEL 2
REMARK VINA RESULT:   -11.275      1.600      5.035
REMARK INTER + INTRA:         -11.275
REMARK INTER:                 -11.275
REMARK INTRA:                   0.000
REMARK UNBOUND:                 0.000
ROOT
REMARK  Name = ampicillin
REMARK                            x       y       z     vdW  Elec       q    Type
REMARK                         _______ _______ _______ _____ _____    ______ ____
ATOM      1  C   UNL     1      62.383  62.245  64.466  0.00  0.00    +0.000 C 
ATOM      2  C   UNL     1      61.747  62.059  64.958  0.00  0.00    +0.000 C 
ATOM      3  C   UNL     1      61.479  61.632  64.305  0.00  0.00    +0.000 C 
ATOM      4  S   UNL     1      62.150  62.525  65.508  0.00  0.00    +0.000 S 
ATOM      5  C   UNL     1      61.706  62.537  66.204  0.00  0.00    +0.000 C 
ATOM      6  CA  UNL     1      61.460  62.699  66.974  0.00  0.00    +0.000 C 
ATOM      7  N   UNL     1      61.763  63.137  67.604  0.00  0.00    +0.000 NA
ATOM      8  C   UNL     1      61.351  63.175  68.317  0.00  0.00    +0.000 C 
ATOM      9  O   UNL     1      60.634  62.775  68.400  0.00  0.00    +0.000 OA
ATOM     10  CA  UNL     1      61.654  63.614  68.946  0.00  0.00    +0.000 C 
ATOM     11  N   UNL     1      62.370  64.014  68.863  0.00  0.00    +0.000 NA
ATOM     12  C   UNL     1      61.240  63.651  69.659  0.00  0.00    +0.000 A 
ATOM     13  C   UNL     1      61.545  64.090  70.289  0.00  0.00    +0.000 A 
ATOM     14  C   UNL     1      61.131  64.127  71.002  0.00  0.00    +0.000 A 
ATOM     15  C   UNL     1      60.415  63.727  71.086  0.00  0.00    +0.000 A 
ATOM     16  C   UNL     1      60.111  63.289  70.457  0.00  0.00    +0.000 A 
ATOM     17  C   UNL     1      60.524  63.251  69.744  0.00  0.00    +0.000 A 
ATOM     18  C   UNL     1      60.784  62.241  66.855  0.00  0.00    +0.000 C 
ATOM     19  O   UNL     1      60.132  62.031  67.314  0.00  0.00    +0.000 OA
ATOM     20  N   UNL     1      61.031  62.079  66.084  0.00  0.00    +0.000 N 
ATOM     21  CA  UNL     1      61.056  61.784  65.314  0.00  0.00    +0.000 C 
ATOM     22  C   UNL     1      60.490  61.298  64.962  0.00  0.00    +0.000 C 
ATOM     23  O   UNL     1      59.823  61.066  65.388  0.00  0.00    +0.000 OA
ATOM     24  OXT UNL     1      60.591  61.045  64.183  0.00  0.00    +0.000 OA
ENDROOT
TORSDOF 0
ENDMDL
MODEL 3
REMARK VINA RESULT:   -11.208      1.557      2.214
REMARK INTER + INTRA:         -11.208
REMARK INTER:                 -11.208
REMARK INTRA:                   0.000
REMARK UNBOUND:                 0.000
ROOT
REMARK  Name = ampicillin
REMARK                            x       y       z     vdW  Elec       q    Type
REMARK                         _______ _______ _______ _____ _____    ______ ____
ATOM      1  C   UNL     1      63.886  64.865  70.438  0.00  0.00    +0.000 C 
ATOM      2  C   UNL     1      63.079  64.697  70.465  0.00  0.00    +0.000 C 
ATOM      3  C   UNL     1      63.122  65.035  71.216  0.00  0.00    +0.000 C 
ATOM      4  S   UNL     1      63.205  64.394  69.708  0.00  0.00    +0.000 S 
ATOM      5  C   UNL     1      62.484  64.110  69.423  0.00  0.00    +0.000 C 
ATOM      6  CA  UNL     1      61.912  63.770  68.936  0.00  0.00    +0.000 C 
ATOM      7  N   UNL     1      61.911  63.440  68.181  0.00  0.00    +0.000 NA
ATOM      8  C   UNL     1      61.210  63.144  67.860  0.00  0.00    +0.000 C 
ATOM      9  O   UNL     1      60.511  63.179  68.296  0.00  0.00    +0.000 OA
ATOM     10  CA  UNL     1      61.210  62.814  67.104  0.00  0.00    +0.000 C 
ATOM     11  N   UNL     1      61.909  62.779  66.668  0.00  0.00    +0.000 NA
ATOM     12  C   UNL     1      60.509  62.519  66.784  0.00  0.00    +0.000 A 
ATOM     13  C   UNL     1      60.509  62.188  66.028  0.00  0.00    +0.000 A 
ATOM     14  C   UNL     1      59.808  61.893  65.708  0.00  0.00    +0.000 A 
ATOM     15  C   UNL     1      59.108  61.928  66.144  0.00  0.00    +0.000 A 
ATOM     16  C   UNL     1      59.108  62.258  66.899  0.00  0.00    +0.000 A 
ATOM     17  C   UNL     1      59.809  62.553  67.220  0.00  0.00    +0.000 A 
ATOM     18  C   UNL     1      61.340  63.897  69.518  0.00  0.00    +0.000 C 
ATOM     19  O   UNL     1      60.532  63.747  69.585  0.00  0.00    +0.000 OA
ATOM     20  N   UNL     1      61.913  64.237  70.005  0.00  0.00    +0.000 N 
ATOM     21  CA  UNL     1      62.281  64.600  70.649  0.00  0.00    +0.000 C 
ATOM     22  C   UNL     1      61.914  64.826  71.353  0.00  0.00    +0.000 C 
ATOM     23  O   UNL     1      61.107  64.693  71.459  0.00  0.00    +0.000 OA
ATOM     24  OXT UNL     1      62.356  65.185  71.950  0.00  0.00    +0.000 OA
ENDROOT
TORSDOF 0
ENDMDL
MODEL 4
REMARK VINA RESULT:   -10.885      2.830      5.301
REMARK INTER + INTRA:         -10.885
REMARK INTER:                 -10.885
REMARK INTRA:                   0.000
REMARK UNBOUND:                 0.000
ROOT
REMARK  Name = ampicillin
REMARK                            x       y       z     vdW  Elec       q    Type
REMARK                         _______ _______ _______ _____ _____    ______ ____
ATOM      1  C   UNL     1      60.503  62.872  71.363  0.00  0.00    +0.000 C 
ATOM      2  C   UNL     1      60.964  63.100  70.718  0.00  0.00    +0.000 C 
ATOM      3  C   UNL     1      60.499  62.558  70.305  0.00  0.00    +0.000 C 
ATOM      4  S   UNL     1      61.332  63.595  71.266  0.00  0.00    +0.000 S 
ATOM      5  C   UNL     1      61.924  64.015  70.873  0.00  0.00    +0.000 C 
ATOM      6  CA  UNL     1      62.547  64.533  70.717  0.00  0.00    +0.000 C 
ATOM      7  N   UNL     1      62.989  65.065  71.165  0.00  0.00    +0.000 NA
ATOM      8  C   UNL     1      63.590  65.505  70.810  0.00  0.00    +0.000 C 
ATOM      9  O   UNL     1      63.747  65.412  70.006  0.00  0.00    +0.000 OA
ATOM     10  CA  UNL     1      64.032  66.037  71.259  0.00  0.00    +0.000 C 
ATOM     11  N   UNL     1      63.874  66.130  72.063  0.00  0.00    +0.000 NA
ATOM     12  C   UNL     1      64.633  66.477  70.903  0.00  0.00    +0.000 A 
ATOM     13  C   UNL     1      65.075  67.009  71.352  0.00  0.00    +0.000 A 
ATOM     14  C   UNL     1      65.676  67.449  70.996  0.00  0.00    +0.000 A 
ATOM     15  C   UNL     1      65.834  67.356  70.191  0.00  0.00    +0.000 A 
ATOM     16  C   UNL     1      65.392  66.824  69.743  0.00  0.00    +0.000 A 
ATOM     17  C   UNL     1      64.791  66.384  70.098  0.00  0.00    +0.000 A 
ATOM     18  C   UNL     1      62.543  64.299  69.926  0.00  0.00    +0.000 C 
ATOM     19  O   UNL     1      62.981  64.499  69.256  0.00  0.00    +0.000 OA
ATOM     20  N   UNL     1      61.921  63.781  70.082  0.00  0.00    +0.000 N 
ATOM     21  CA  UNL     1      61.327  63.215  69.987  0.00  0.00    +0.000 C 
ATOM     22  C   UNL     1      61.131  62.832  69.282  0.00  0.00    +0.000 C 
ATOM     23  O   UNL     1      61.546  63.004  68.590  0.00  0.00    +0.000 OA
ATOM     24  OXT UNL     1      60.522  62.276  69.271  0.00  0.00    +0.000 OA
ENDROOT
TORSDOF 0
ENDMDL
MODEL 5
REMARK VINA RESULT:   -10.745      1.315      4.811
REMARK INTER + INTRA:         -10.745
REMARK INTER:                 -10.745
REMARK INTRA:                   0.000
REMARK UNBOUND:                 0.000
ROOT
REMARK  Name = ampicillin
REMARK                            x       y       z     vdW  Elec       q    Type
REMARK                         _______ _______ _______ _____ _____    ______ ____
ATOM      1  C   UNL     1      59.408  61.999  66.322  0.00  0.00    +0.000 C 
ATOM      2  C   UNL     1      60.121  62.325  66.577  0.00  0.00    +0.000 C 
ATOM      3  C   UNL     1      60.342  62.241  65.787  0.00  0.00    +0.000 C 
ATOM      4  S   UNL     1      59.751  62.341  67.315  0.00  0.00    +0.000 S 
ATOM      5  C   UNL     1      60.283  62.659  67.860  0.00  0.00    +0.000 C 
ATOM      6  CA  UNL     1      60.614  62.935  68.563  0.00  0.00    +0.000 C 
ATOM      7  N   UNL     1      60.355  63.002  69.343  0.00  0.00    +0.000 NA
ATOM      8  C   UNL     1      60.856  63.315  69.919  0.00  0.00    +0.000 C 
ATOM      9  O   UNL     1      61.616  63.560  69.714  0.00  0.00    +0.000 OA
ATOM     10  CA  UNL     1      60.597  63.382  70.699  0.00  0.00    +0.000 C 
ATOM     11  N   UNL     1      59.837  63.136  70.904  0.00  0.00    +0.000 NA
ATOM     12  C   UNL     1      61.099  63.695  71.275  0.00  0.00    +0.000 A 
ATOM     13  C   UNL     1      60.839  63.762  72.055  0.00  0.00    +0.000 A 
ATOM     14  C   UNL     1      61.340  64.075  72.631  0.00  0.00    +0.000 A 
ATOM     15  C   UNL     1      62.101  64.321  72.426  0.00  0.00    +0.000 A 
ATOM     16  C   UNL     1      62.360  64.254  71.646  0.00  0.00    +0.000 A 
ATOM     17  C   UNL     1      61.859  63.941  71.070  0.00  0.00    +0.000 A 
ATOM     18  C   UNL     1      61.313  63.115  68.163  0.00  0.00    +0.000 C 
ATOM     19  O   UNL     1      62.041  63.438  68.377  0.00  0.00    +0.000 OA
ATOM     20  N   UNL     1      60.981  62.840  67.460  0.00  0.00    +0.000 N 
ATOM     21  CA  UNL     1      60.881  62.633  66.667  0.00  0.00    +0.000 C 
ATOM     22  C   UNL     1      61.443  62.720  66.069  0.00  0.00    +0.000 C 
ATOM     23  O   UNL     1      62.184  63.039  66.242  0.00  0.00    +0.000 OA
ATOM     24  OXT UNL     1      61.263  62.488  65.298  0.00  0.00    +0.000 OA
ENDROOT
TORSDOF 0
ENDMDL
MODEL 6
REMARK VINA RESULT:   -10.705      1.972      2.726
REMARK INTER + INTRA:         -10.705
REMARK INTER:                 -10.705
REMARK INTRA:                   0.000
REMARK UNBOUND:                 0.000
ROOT
REMARK  Name = ampicillin
REMARK                            x       y       z     vdW  Elec       q    Type
REMARK                         _______ _______ _______ _____ _____    ______ ____
ATOM      1  C   UNL     1      59.311  65.490  72.340  0.00  0.00    +0.000 C 
ATOM      2  C   UNL     1      59.437  65.724  71.559  0.00  0.00    +0.000 C 
ATOM      3  C   UNL     1      59.223  66.470  71.839  0.00  0.00    +0.000 C 
ATOM      4  S   UNL     1      59.624  64.928  71.443  0.00  0.00    +0.000 S 
ATOM      5  C   UNL     1      59.822  64.826  70.648  0.00  0.00    +0.000 C 
ATOM      6  CA  UNL     1      60.050  64.481  69.935  0.00  0.00    +0.000 C 
ATOM      7  N   UNL     1      60.258  63.720  69.695  0.00  0.00    +0.000 NA
ATOM      8  C   UNL     1      60.462  63.575  68.909  0.00  0.00    +0.000 C 
ATOM      9  O   UNL     1      60.458  64.193  68.363  0.00  0.00    +0.000 OA
ATOM     10  CA  UNL     1      60.670  62.814  68.670  0.00  0.00    +0.000 C 
ATOM     11  N   UNL     1      60.674  62.196  69.216  0.00  0.00    +0.000 NA
ATOM     12  C   UNL     1      60.874  62.671  67.883  0.00  0.00    +0.000 A 
ATOM     13  C   UNL     1      61.082  61.909  67.644  0.00  0.00    +0.000 A 
ATOM     14  C   UNL     1      61.286  61.765  66.858  0.00  0.00    +0.000 A 
ATOM     15  C   UNL     1      61.282  62.383  66.310  0.00  0.00    +0.000 A 
ATOM     16  C   UNL     1      61.074  63.144  66.550  0.00  0.00    +0.000 A 
ATOM     17  C   UNL     1      60.870  63.288  67.336  0.00  0.00    +0.000 A 
ATOM     18  C   UNL     1      59.985  65.213  69.560  0.00  0.00    +0.000 C 
ATOM     19  O   UNL     1      60.100  65.487  68.790  0.00  0.00    +0.000 OA
ATOM     20  N   UNL     1      59.756  65.558  70.273  0.00  0.00    +0.000 N 
ATOM     21  CA  UNL     1      59.518  66.113  70.836  0.00  0.00    +0.000 C 
ATOM     22  C   UNL     1      59.386  66.916  70.700  0.00  0.00    +0.000 C 
ATOM     23  O   UNL     1      59.490  67.229  69.944  0.00  0.00    +0.000 OA
ATOM     24  OXT UNL     1      59.148  67.405  71.321  0.00  0.00    +0.000 OA
ENDROOT
TORSDOF 0
ENDMDL
MODEL 7
REMARK VINA RESULT:   -10.680      3.800      5.078
REMARK INTER + INTRA:         -10.680
REMARK INTER:                 -10.680
REMARK INTRA:                   0.000
REMARK UNBOUND:                 0.000
ROOT
REMARK  Name = ampicillin
REMARK                            x       y       z     vdW  Elec       q    Type
REMARK                         _______ _______ _______ _____ _____    ______ ____
ATOM      1  C   UNL     1      64.963  67.308  71.869  0.00  0.00    +0.000 C 
ATOM      2  C   UNL     1      64.783  66.814  71.233  0.00  0.00    +0.000 C 
ATOM      3  C   UNL     1      65.374  67.241  70.847  0.00  0.00    +0.000 C 
ATOM      4  S   UNL     1      64.229  66.491  71.752  0.00  0.00    +0.000 S 
ATOM      5  C   UNL     1      63.831  65.887  71.356  0.00  0.00    +0.000 C 
ATOM      6  CA  UNL     1      63.312  65.268  71.187  0.00  0.00    +0.000 C 
ATOM      7  N   UNL     1      62.728  64.866  71.608  0.00  0.00    +0.000 NA
ATOM      8  C   UNL     1      62.306  64.255  71.248  0.00  0.00    +0.000 C 
ATOM      9  O   UNL     1      62.469  64.047  70.467  0.00  0.00    +0.000 OA
ATOM     10  CA  UNL     1      61.722  63.853  71.669  0.00  0.00    +0.000 C 
ATOM     11  N   UNL     1      61.559  64.061  72.450  0.00  0.00    +0.000 NA
ATOM     12  C   UNL     1      61.300  63.242  71.308  0.00  0.00    +0.000 A 
ATOM     13  C   UNL     1      60.716  62.840  71.730  0.00  0.00    +0.000 A 
ATOM     14  C   UNL     1      60.295  62.229  71.369  0.00  0.00    +0.000 A 
ATOM     15  C   UNL     1      60.457  62.020  70.587  0.00  0.00    +0.000 A 
ATOM     16  C   UNL     1      61.041  62.423  70.166  0.00  0.00    +0.000 A 
ATOM     17  C   UNL     1      61.463  63.033  70.526  0.00  0.00    +0.000 A 
ATOM     18  C   UNL     1      63.619  65.218  70.423  0.00  0.00    +0.000 C 
ATOM     19  O   UNL     1      63.470  64.745  69.764  0.00  0.00    +0.000 OA
ATOM     20  N   UNL     1      64.138  65.837  70.592  0.00  0.00    +0.000 N 
ATOM     21  CA  UNL     1      64.727  66.410  70.516  0.00  0.00    +0.000 C 
ATOM     22  C   UNL     1      65.180  66.554  69.841  0.00  0.00    +0.000 C 
ATOM     23  O   UNL     1      65.061  66.103  69.161  0.00  0.00    +0.000 OA
ATOM     24  OXT UNL     1      65.751  67.149  69.848  0.00  0.00    +0.000 OA
ENDROOT
TORSDOF 0
ENDMDL
MODEL 8
REMARK VINA RESULT:    -9.999      1.820      5.245
REMARK INTER + INTRA:          -9.999
REMARK INTER:                  -9.999
REMARK INTRA:                   0.000
REMARK UNBOUND:                 0.000
ROOT
REMARK  Name = ampicillin
REMARK                            x       y       z     vdW  Elec       q    Type
REMARK                         _______ _______ _______ _____ _____    ______ ____
ATOM      1  C   UNL     1      60.177  61.629  68.970  0.00  0.00    +0.000 C 
ATOM      2  C   UNL     1      60.680  62.244  68.747  0.00  0.00    +0.000 C 
ATOM      3  C   UNL     1      60.614  61.909  67.996  0.00  0.00    +0.000 C 
ATOM      4  S   UNL     1      60.641  62.450  69.545  0.00  0.00    +0.000 S 
ATOM      5  C   UNL     1      61.106  63.122  69.658  0.00  0.00    +0.000 C 
ATOM      6  CA  UNL     1      61.489  63.761  70.013  0.00  0.00    +0.000 C 
ATOM      7  N   UNL     1      61.529  64.065  70.778  0.00  0.00    +0.000 NA
ATOM      8  C   UNL     1      61.984  64.736  70.933  0.00  0.00    +0.000 C 
ATOM      9  O   UNL     1      62.398  65.102  70.321  0.00  0.00    +0.000 OA
ATOM     10  CA  UNL     1      62.024  65.039  71.698  0.00  0.00    +0.000 C 
ATOM     11  N   UNL     1      61.609  64.673  72.310  0.00  0.00    +0.000 NA
ATOM     12  C   UNL     1      62.479  65.710  71.852  0.00  0.00    +0.000 A 
ATOM     13  C   UNL     1      62.518  66.014  72.619  0.00  0.00    +0.000 A 
ATOM     14  C   UNL     1      62.973  66.685  72.773  0.00  0.00    +0.000 A 
ATOM     15  C   UNL     1      63.388  67.052  72.161  0.00  0.00    +0.000 A 
ATOM     16  C   UNL     1      63.348  66.749  71.396  0.00  0.00    +0.000 A 
ATOM     17  C   UNL     1      62.893  66.078  71.241  0.00  0.00    +0.000 A 
ATOM     18  C   UNL     1      61.816  63.970  69.284  0.00  0.00    +0.000 C 
ATOM     19  O   UNL     1      62.318  64.569  69.020  0.00  0.00    +0.000 OA
ATOM     20  N   UNL     1      61.433  63.331  68.929  0.00  0.00    +0.000 N 
ATOM     21  CA  UNL     1      61.169  62.788  68.367  0.00  0.00    +0.000 C 
ATOM     22  C   UNL     1      61.362  62.789  67.564  0.00  0.00    +0.000 C 
ATOM     23  O   UNL     1      61.861  63.371  67.260  0.00  0.00    +0.000 OA
ATOM     24  OXT UNL     1      61.055  62.208  67.066  0.00  0.00    +0.000 OA
ENDROOT
TORSDOF 0
ENDMDL
MODEL 9
REMARK VINA RESULT:    -9.959      2.291      5.514
REMARK INTER + INTRA:          -9.959
REMARK INTER:                  -9.959
REMARK INTRA:                   0.000
REMARK UNBOUND:                 0.000
ROOT
REMARK  Name = ampicillin
REMARK                            x       y       z     vdW  Elec       q    Type
REMARK                         _______ _______ _______ _____ _____    ______ ____
ATOM      1  C   UNL     1      60.942  63.203  67.184  0.00  0.00    +0.000 C 
ATOM      2  C   UNL     1      60.732  63.062  67.969  0.00  0.00    +0.000 C 
ATOM      3  C   UNL     1      60.897  62.276  67.781  0.00  0.00    +0.000 C 
ATOM      4  S   UNL     1      60.610  63.878  67.992  0.00  0.00    +0.000 S 
ATOM      5  C   UNL     1      60.359  64.076  68.753  0.00  0.00    +0.000 C 
ATOM      6  CA  UNL     1      60.106  64.510  69.408  0.00  0.00    +0.000 C 
ATOM      7  N   UNL     1      59.952  65.306  69.555  0.00  0.00    +0.000 NA
ATOM      8  C   UNL     1      59.699  65.546  70.303  0.00  0.00    +0.000 C 
ATOM      9  O   UNL     1      59.601  64.989  70.903  0.00  0.00    +0.000 OA
ATOM     10  CA  UNL     1      59.544  66.343  70.451  0.00  0.00    +0.000 C 
ATOM     11  N   UNL     1      59.642  66.900  69.851  0.00  0.00    +0.000 NA
ATOM     12  C   UNL     1      59.291  66.582  71.199  0.00  0.00    +0.000 A 
ATOM     13  C   UNL     1      59.136  67.379  71.346  0.00  0.00    +0.000 A 
ATOM     14  C   UNL     1      58.883  67.618  72.094  0.00  0.00    +0.000 A 
ATOM     15  C   UNL     1      58.785  67.061  72.695  0.00  0.00    +0.000 A 
ATOM     16  C   UNL     1      58.940  66.264  72.547  0.00  0.00    +0.000 A 
ATOM     17  C   UNL     1      59.193  66.025  71.800  0.00  0.00    +0.000 A 
ATOM     18  C   UNL     1      60.073  63.817  69.854  0.00  0.00    +0.000 C 
ATOM     19  O   UNL     1      59.871  63.633  70.633  0.00  0.00    +0.000 OA
ATOM     20  N   UNL     1      60.326  63.383  69.199  0.00  0.00    +0.000 N 
ATOM     21  CA  UNL     1      60.556  62.756  68.714  0.00  0.00    +0.000 C 
ATOM     22  C   UNL     1      60.602  61.963  68.936  0.00  0.00    +0.000 C 
ATOM     23  O   UNL     1      60.408  61.738  69.706  0.00  0.00    +0.000 OA
ATOM     24  OXT UNL     1      60.842  61.395  68.388  0.00  0.00    +0.000 OA
ENDROOT
TORSDOF 0
ENDMDL
