MODEL 1
REMARK VINA RESULT:    -9.630      0.000      0.000
REMARK INTER + INTRA:          -9.630
REMARK INTER:                  -9.630
REMARK INTRA:                   0.000
REMARK UNBOUND:                 0.000
ROOT
REMARK  Name = amylocaine
REMARK                            x       y       z     vdW  Elec       q    Type
REMARK                         _______ _______ _______ _____ _____    ______ ____
ATOM      1  C   UNL     1      59.540  62.362  67.233  0.00  0.00    +0.000 C 
ATOM      2  C   UNL     1      60.244  62.372  66.803  0.00  0.00    +0.000 C 
ATOM      3  C   UNL     1      60.915  62.732  67.118  0.00  0.00    +0.000 C 
ATOM      4  C   UNL     1      61.587  63.093  67.434  0.00  0.00    +0.000 C 
ATOM      5  C   UNL     1      60.491  62.929  67.798  0.00  0.00    +0.000 C 
ATOM      6  N   UNL     1      60.861  63.340  68.410  0.00  0.00    +0.000 NA
ATOM      7  C   UNL     1      60.436  63.537  69.090  0.00  0.00    +0.000 C 
ATOM      8  C   UNL     1      61.654  63.554  68.344  0.00  0.00    +0.000 C 
ATOM      9  O   UNL     1      61.340  62.535  66.439  0.00  0.00    +0.000 OA
ATOM     10  C   UNL     1      60.971  62.124  65.826  0.00  0.00    +0.000 C 
ATOM     11  O   UNL     1      60.177  61.911  65.893  0.00  0.00    +0.000 OA
ATOM     12  C   UNL     1      61.395  61.927  65.147  0.00  0.00    +0.000 A 
ATOM     13  C   UNL     1      61.026  61.516  64.534  0.00  0.00    +0.000 A 
ATOM     14  C   UNL     1      61.451  61.319  63.855  0.00  0.00    +0.000 A 
ATOM     15  C   UNL     1      62.244  61.533  63.789  0.00  0.00    +0.000 A 
ATOM     16  C   UNL     1      62.614  61.944  64.402  0.00  0.00    +0.000 A 
ATOM     17  C   UNL     1      62.190  62.141  65.081  0.00  0.00    +0.000 A 
ENDROOT
TORSDOF 0
ENDMDL
MODEL 2
REMARK VINA RESULT:    -8.785      1.363      3.825
REMARK INTER + INTRA:          -8.785
REMARK INTER:                  -8.785
REMARK INTRA:                   0.000
REMARK UNBOUND:                 0.000
ROOT
REMARK  Name = amylocaine
REMARK                            x       y       z     vdW  Elec       q    Type
REMARK                         _______ _______ _______ _____ _____    ______ ____
ATOM      1  C   UNL     1      62.361  62.544  65.101  0.00  0.00    +0.000 C 
ATOM      2  C   UNL     1      61.831  62.344  65.701  0.00  0.00    +0.000 C 
ATOM      3  C   UNL     1      61.224  61.804  65.553  0.00  0.00    +0.000 C 
ATOM      4  C   UNL     1      60.618  61.265  65.405  0.00  0.00    +0.000 C 
ATOM      5  C   UNL     1      61.486  61.724  64.774  0.00  0.00    +0.000 C 
ATOM      6  N   UNL     1      61.091  61.216  64.258  0.00  0.00    +0.000 NA
ATOM      7  C   UNL     1      61.352  61.135  63.479  0.00  0.00    +0.000 C 
ATOM      8  C   UNL     1      60.435  60.789  64.518  0.00  0.00    +0.000 C 
ATOM      9  O   UNL     1      60.963  61.885  66.331  0.00  0.00    +0.000 OA
ATOM     10  C   UNL     1      61.358  62.393  66.849  0.00  0.00    +0.000 C 
ATOM     11  O   UNL     1      62.013  62.819  66.587  0.00  0.00    +0.000 OA
ATOM     12  C   UNL     1      61.096  62.474  67.626  0.00  0.00    +0.000 A 
ATOM     13  C   UNL     1      61.490  62.981  68.144  0.00  0.00    +0.000 A 
ATOM     14  C   UNL     1      61.229  63.062  68.922  0.00  0.00    +0.000 A 
ATOM     15  C   UNL     1      60.573  62.635  69.183  0.00  0.00    +0.000 A 
ATOM     16  C   UNL     1      60.178  62.127  68.666  0.00  0.00    +0.000 A 
ATOM     17  C   UNL     1      60.440  62.047  67.888  0.00  0.00    +0.000 A 
ENDROOT
TORSDOF 0
ENDMDL
MODEL 3
REMARK VINA RESULT:    -8.690      2.658      5.297
REMARK INTER + INTRA:          -8.690
REMARK INTER:                  -8.690
REMARK INTRA:                   0.000
REMARK UNBOUND:                 0.000
ROOT
REMARK  Name = amylocaine
REMARK                            x       y       z     vdW  Elec       q    Type
REMARK                         _______ _______ _______ _____ _____    ______ ____
ATOM      1  C   UNL     1      60.108  64.280  69.040  0.00  0.00    +0.000 C 
ATOM      2  C   UNL     1      60.407  63.716  69.562  0.00  0.00    +0.000 C 
ATOM      3  C   UNL     1      60.536  62.942  69.305  0.00  0.00    +0.000 C 
ATOM      4  C   UNL     1      60.664  62.169  69.048  0.00  0.00    +0.000 C 
ATOM      5  C   UNL     1      60.264  63.147  68.553  0.00  0.00    +0.000 C 
ATOM      6  N   UNL     1      60.240  62.578  67.956  0.00  0.00    +0.000 NA
ATOM      7  C   UNL     1      59.968  62.783  67.204  0.00  0.00    +0.000 C 
ATOM      8  C   UNL     1      60.487  61.807  68.109  0.00  0.00    +0.000 C 
ATOM      9  O   UNL     1      60.808  62.738  70.057  0.00  0.00    +0.000 OA
ATOM     10  C   UNL     1      60.832  63.306  70.656  0.00  0.00    +0.000 C 
ATOM     11  O   UNL     1      60.585  64.078  70.501  0.00  0.00    +0.000 OA
ATOM     12  C   UNL     1      61.104  63.102  71.406  0.00  0.00    +0.000 A 
ATOM     13  C   UNL     1      61.129  63.669  72.005  0.00  0.00    +0.000 A 
ATOM     14  C   UNL     1      61.400  63.465  72.756  0.00  0.00    +0.000 A 
ATOM     15  C   UNL     1      61.647  62.693  72.910  0.00  0.00    +0.000 A 
ATOM     16  C   UNL     1      61.623  62.125  72.312  0.00  0.00    +0.000 A 
ATOM     17  C   UNL     1      61.351  62.329  71.560  0.00  0.00    +0.000 A 
ENDROOT
TORSDOF 0
ENDMDL
MODEL 4
REMARK VINA RESULT:    -8.535      4.786      6.586
REMARK INTER + INTRA:          -8.535
REMARK INTER:                  -8.535
REMARK INTRA:                   0.000
REMARK UNBOUND:                 0.000
ROOT
REMARK  Name = amylocaine
REMARK                            x       y       z     vdW  Elec       q    Type
REMARK                         _______ _______ _______ _____ _____    ______ ____
ATOM      1  C   UNL     1      63.185  64.397  69.410  0.00  0.00    +0.000 C 
ATOM      2  C   UNL     1      63.518  64.946  69.927  0.00  0.00    +0.000 C 
ATOM      3  C   UNL     1      63.254  64.992  70.707  0.00  0.00    +0.000 C 
ATOM      4  C   UNL     1      62.989  65.038  71.487  0.00  0.00    +0.000 C 
ATOM      5  C   UNL     1      62.716  64.384  70.561  0.00  0.00    +0.000 C 
ATOM      6  N   UNL     1      62.218  64.120  71.164  0.00  0.00    +0.000 NA
ATOM      7  C   UNL     1      61.681  63.512  71.017  0.00  0.00    +0.000 C 
ATOM      8  C   UNL     1      62.258  64.464  71.912  0.00  0.00    +0.000 C 
ATOM      9  O   UNL     1      63.792  65.601  70.854  0.00  0.00    +0.000 OA
ATOM     10  C   UNL     1      64.290  65.865  70.251  0.00  0.00    +0.000 C 
ATOM     11  O   UNL     1      64.250  65.521  69.502  0.00  0.00    +0.000 OA
ATOM     12  C   UNL     1      64.827  66.473  70.397  0.00  0.00    +0.000 A 
ATOM     13  C   UNL     1      65.325  66.737  69.795  0.00  0.00    +0.000 A 
ATOM     14  C   UNL     1      65.863  67.346  69.942  0.00  0.00    +0.000 A 
ATOM     15  C   UNL     1      65.903  67.689  70.690  0.00  0.00    +0.000 A 
ATOM     16  C   UNL     1      65.405  67.425  71.293  0.00  0.00    +0.000 A 
ATOM     17  C   UNL     1      64.867  66.817  71.146  0.00  0.00    +0.000 A 
ENDROOT
TORSDOF 0
ENDMDL
MODEL 5
REMARK VINA RESULT:    -8.376      4.088      5.635
REMARK INTER + INTRA:          -8.376
REMARK INTER:                  -8.376
REMARK INTRA:                   0.000
REMARK UNBOUND:                 0.000
ROOT
REMARK  Name = amylocaine
REMARK                            x       y       z     vdW  Elec       q    Type
REMARK                         _______ _______ _______ _____ _____    ______ ____
ATOM      1  C   UNL     1      60.117  64.341  69.008  0.00  0.00    +0.000 C 
ATOM      2  C   UNL     1      60.315  64.279  69.807  0.00  0.00    +0.000 C 
ATOM      3  C   UNL     1      60.202  64.921  70.312  0.00  0.00    +0.000 C 
ATOM      4  C   UNL     1      60.089  65.564  70.817  0.00  0.00    +0.000 C 
ATOM      5  C   UNL     1      59.908  65.365  69.681  0.00  0.00    +0.000 C 
ATOM      6  N   UNL     1      59.663  66.143  69.804  0.00  0.00    +0.000 NA
ATOM      7  C   UNL     1      59.368  66.587  69.174  0.00  0.00    +0.000 C 
ATOM      8  C   UNL     1      59.712  66.478  70.556  0.00  0.00    +0.000 C 
ATOM      9  O   UNL     1      60.496  64.478  70.942  0.00  0.00    +0.000 OA
ATOM     10  C   UNL     1      60.742  63.699  70.820  0.00  0.00    +0.000 C 
ATOM     11  O   UNL     1      60.692  63.365  70.067  0.00  0.00    +0.000 OA
ATOM     12  C   UNL     1      61.036  63.256  71.449  0.00  0.00    +0.000 A 
ATOM     13  C   UNL     1      61.281  62.478  71.328  0.00  0.00    +0.000 A 
ATOM     14  C   UNL     1      61.575  62.034  71.958  0.00  0.00    +0.000 A 
ATOM     15  C   UNL     1      61.624  62.368  72.710  0.00  0.00    +0.000 A 
ATOM     16  C   UNL     1      61.379  63.147  72.833  0.00  0.00    +0.000 A 
ATOM     17  C   UNL     1      61.085  63.590  72.203  0.00  0.00    +0.000 A 
ENDROOT
TORSDOF 0
ENDMDL
MODEL 6
REMARK VINA RESULT:    -8.342      5.519      6.538
REMARK INTER + INTRA:          -8.342
REMARK INTER:                  -8.342
REMARK INTRA:                   0.000
REMARK UNBOUND:                 0.000
ROOT
REMARK  Name = amylocaine
REMARK                            x       y       z     vdW  Elec       q    Type
REMARK                         _______ _______ _______ _____ _____    ______ ____
ATOM      1  C   UNL     1      63.493  66.437  71.623  0.00  0.00    +0.000 C 
ATOM      2  C   UNL     1      63.231  65.671  71.464  0.00  0.00    +0.000 C 
ATOM      3  C   UNL     1      63.549  65.249  70.830  0.00  0.00    +0.000 C 
ATOM      4  C   UNL     1      63.866  64.828  70.196  0.00  0.00    +0.000 C 
ATOM      5  C   UNL     1      64.035  65.890  70.647  0.00  0.00    +0.000 C 
ATOM      6  N   UNL     1      64.553  65.845  70.006  0.00  0.00    +0.000 NA
ATOM      7  C   UNL     1      65.039  66.486  69.823  0.00  0.00    +0.000 C 
ATOM      8  C   UNL     1      64.585  65.160  69.549  0.00  0.00    +0.000 C 
ATOM      9  O   UNL     1      63.063  64.608  71.013  0.00  0.00    +0.000 OA
ATOM     10  C   UNL     1      62.544  64.653  71.654  0.00  0.00    +0.000 C 
ATOM     11  O   UNL     1      62.513  65.339  72.111  0.00  0.00    +0.000 OA
ATOM     12  C   UNL     1      62.059  64.013  71.837  0.00  0.00    +0.000 A 
ATOM     13  C   UNL     1      61.541  64.057  72.477  0.00  0.00    +0.000 A 
ATOM     14  C   UNL     1      61.055  63.416  72.660  0.00  0.00    +0.000 A 
ATOM     15  C   UNL     1      61.087  62.731  72.203  0.00  0.00    +0.000 A 
ATOM     16  C   UNL     1      61.605  62.685  71.562  0.00  0.00    +0.000 A 
ATOM     17  C   UNL     1      62.091  63.326  71.379  0.00  0.00    +0.000 A 
ENDROOT
TORSDOF 0
ENDMDL
MODEL 7
REMARK VINA RESULT:    -8.135      2.877      4.337
REMARK INTER + INTRA:          -8.135
REMARK INTER:                  -8.135
REMARK INTRA:                   0.000
REMARK UNBOUND:                 0.000
ROOT
REMARK  Name = amylocaine
REMARK                            x       y       z     vdW  Elec       q    Type
REMARK                         _______ _______ _______ _____ _____    ______ ____
ATOM      1  C   UNL     1      59.748  66.147  69.487  0.00  0.00    +0.000 C 
ATOM      2  C   UNL     1      59.866  65.338  69.593  0.00  0.00    +0.000 C 
ATOM      3  C   UNL     1      59.807  65.007  70.347  0.00  0.00    +0.000 C 
ATOM      4  C   UNL     1      59.747  64.677  71.100  0.00  0.00    +0.000 C 
ATOM      5  C   UNL     1      59.635  65.751  70.659  0.00  0.00    +0.000 C 
ATOM      6  N   UNL     1      59.498  65.837  71.469  0.00  0.00    +0.000 NA
ATOM      7  C   UNL     1      59.326  66.581  71.781  0.00  0.00    +0.000 C 
ATOM      8  C   UNL     1      59.532  65.179  71.965  0.00  0.00    +0.000 C 
ATOM      9  O   UNL     1      59.978  64.263  70.034  0.00  0.00    +0.000 OA
ATOM     10  C   UNL     1      60.116  64.177  69.225  0.00  0.00    +0.000 C 
ATOM     11  O   UNL     1      60.082  64.836  68.729  0.00  0.00    +0.000 OA
ATOM     12  C   UNL     1      60.287  63.434  68.912  0.00  0.00    +0.000 A 
ATOM     13  C   UNL     1      60.425  63.348  68.104  0.00  0.00    +0.000 A 
ATOM     14  C   UNL     1      60.596  62.604  67.791  0.00  0.00    +0.000 A 
ATOM     15  C   UNL     1      60.630  61.946  68.287  0.00  0.00    +0.000 A 
ATOM     16  C   UNL     1      60.493  62.032  69.096  0.00  0.00    +0.000 A 
ATOM     17  C   UNL     1      60.321  62.776  69.409  0.00  0.00    +0.000 A 
ENDROOT
TORSDOF 0
ENDMDL
MODEL 8
REMARK VINA RESULT:    -7.960      2.044      3.185
REMARK INTER + INTRA:          -7.960
REMARK INTER:                  -7.960
REMARK INTRA:                   0.000
REMARK UNBOUND:                 0.000
ROOT
REMARK  Name = amylocaine
REMARK                            x       y       z     vdW  Elec       q    Type
REMARK                         _______ _______ _______ _____ _____    ______ ____
ATOM      1  C   UNL     1      61.197  63.749  70.608  0.00  0.00    +0.000 C 
ATOM      2  C   UNL     1      61.343  63.627  69.806  0.00  0.00    +0.000 C 
ATOM      3  C   UNL     1      62.062  63.862  69.476  0.00  0.00    +0.000 C 
ATOM      4  C   UNL     1      62.781  64.097  69.147  0.00  0.00    +0.000 C 
ATOM      5  C   UNL     1      62.309  64.139  70.213  0.00  0.00    +0.000 C 
ATOM      6  N   UNL     1      63.055  64.480  70.295  0.00  0.00    +0.000 NA
ATOM      7  C   UNL     1      63.303  64.757  71.032  0.00  0.00    +0.000 C 
ATOM      8  C   UNL     1      63.554  64.545  69.642  0.00  0.00    +0.000 C 
ATOM      9  O   UNL     1      61.815  63.585  68.739  0.00  0.00    +0.000 OA
ATOM     10  C   UNL     1      61.068  63.243  68.656  0.00  0.00    +0.000 C 
ATOM     11  O   UNL     1      60.569  63.178  69.310  0.00  0.00    +0.000 OA
ATOM     12  C   UNL     1      60.821  62.966  67.920  0.00  0.00    +0.000 A 
ATOM     13  C   UNL     1      60.075  62.625  67.836  0.00  0.00    +0.000 A 
ATOM     14  C   UNL     1      59.828  62.348  67.099  0.00  0.00    +0.000 A 
ATOM     15  C   UNL     1      60.326  62.413  66.446  0.00  0.00    +0.000 A 
ATOM     16  C   UNL     1      61.073  62.755  66.529  0.00  0.00    +0.000 A 
ATOM     17  C   UNL     1      61.320  63.031  67.266  0.00  0.00    +0.000 A 
ENDROOT
TORSDOF 0
ENDMDL
MODEL 9
REMARK VINA RESULT:    -7.789      2.739      5.669
REMARK INTER + INTRA:          -7.789
REMARK INTER:                  -7.789
REMARK INTRA:                   0.000
REMARK UNBOUND:                 0.000
ROOT
REMARK  Name = amylocaine
REMARK                            x       y       z     vdW  Elec       q    Type
REMARK                         _______ _______ _______ _____ _____    ______ ____
ATOM      1  C   UNL     1      60.744  61.929  70.186  0.00  0.00    +0.000 C 
ATOM      2  C   UNL     1      60.489  62.709  70.262  0.00  0.00    +0.000 C 
ATOM      3  C   UNL     1      60.382  63.177  69.591  0.00  0.00    +0.000 C 
ATOM      4  C   UNL     1      60.274  63.644  68.919  0.00  0.00    +0.000 C 
ATOM      5  C   UNL     1      60.615  62.545  69.114  0.00  0.00    +0.000 C 
ATOM      6  N   UNL     1      60.638  62.634  68.294  0.00  0.00    +0.000 NA
ATOM      7  C   UNL     1      60.871  62.003  67.817  0.00  0.00    +0.000 C 
ATOM      8  C   UNL     1      60.429  63.354  67.951  0.00  0.00    +0.000 C 
ATOM      9  O   UNL     1      60.148  63.808  70.068  0.00  0.00    +0.000 OA
ATOM     10  C   UNL     1      60.125  63.720  70.888  0.00  0.00    +0.000 C 
ATOM     11  O   UNL     1      60.334  62.999  71.231  0.00  0.00    +0.000 OA
ATOM     12  C   UNL     1      59.892  64.351  71.364  0.00  0.00    +0.000 A 
ATOM     13  C   UNL     1      59.868  64.262  72.184  0.00  0.00    +0.000 A 
ATOM     14  C   UNL     1      59.635  64.894  72.661  0.00  0.00    +0.000 A 
ATOM     15  C   UNL     1      59.425  65.614  72.318  0.00  0.00    +0.000 A 
ATOM     16  C   UNL     1      59.449  65.703  71.498  0.00  0.00    +0.000 A 
ATOM     17  C   UNL     1      59.682  65.072  71.021  0.00  0.00    +0.000 A 
ENDROOT
TORSDOF 0
ENDMDL
