MODEL 1
REMARK VINA RESULT:   -12.989      0.000      0.000
REMARK INTER + INTRA:         -12.989
REMARK INTER:                 -12.989
REMARK INTRA:                   0.000
REMARK UNBOUND:                 0.000
ROOT
REMARK  Name = androstenediol
REMARK                            x       y       z     vdW  Elec       q    Type
REMARK                         _______ _______ _______ _____ _____    ______ ____
ATOM      1  C   UNL     1      62.406  61.772  64.166  0.00  0.00    +0.000 C 
ATOM      2  C   UNL     1      61.650  61.667  64.481  0.00  0.00    +0.000 C 
ATOM      3  C   UNL     1      62.153  62.116  64.957  0.00  0.00    +0.000 C 
ATOM      4  C   UNL     1      61.883  62.414  65.677  0.00  0.00    +0.000 C 
ATOM      5  C   UNL     1      61.109  62.263  65.921  0.00  0.00    +0.000 C 
ATOM      6  C   UNL     1      60.606  61.814  65.445  0.00  0.00    +0.000 C 
ATOM      7  C   UNL     1      59.833  61.663  65.690  0.00  0.00    +0.000 C 
ATOM      8  C   UNL     1      59.562  61.961  66.410  0.00  0.00    +0.000 C 
ATOM      9  C   UNL     1      60.066  62.409  66.885  0.00  0.00    +0.000 C 
ATOM     10  C   UNL     1      59.794  62.707  67.606  0.00  0.00    +0.000 C 
ATOM     11  C   UNL     1      60.297  63.156  68.081  0.00  0.00    +0.000 C 
ATOM     12  O   UNL     1      60.027  63.454  68.801  0.00  0.00    +0.000 OA
ATOM     13  C   UNL     1      61.070  63.307  67.837  0.00  0.00    +0.000 C 
ATOM     14  C   UNL     1      61.341  63.009  67.117  0.00  0.00    +0.000 C 
ATOM     15  C   UNL     1      60.839  62.560  66.641  0.00  0.00    +0.000 C 
ATOM     16  C   UNL     1      61.612  62.712  66.397  0.00  0.00    +0.000 C 
ATOM     17  C   UNL     1      60.877  61.516  64.725  0.00  0.00    +0.000 C 
ATOM     18  C   UNL     1      60.511  61.060  64.144  0.00  0.00    +0.000 C 
ATOM     19  C   UNL     1      61.058  60.928  63.540  0.00  0.00    +0.000 C 
ATOM     20  C   UNL     1      61.763  61.304  63.748  0.00  0.00    +0.000 C 
ATOM     21  O   UNL     1      62.457  61.314  63.303  0.00  0.00    +0.000 OA
ENDROOT
TORSDOF 0
ENDMDL
MODEL 2
REMARK VINA RESULT:   -12.519      0.442      3.528
REMARK INTER + INTRA:         -12.519
REMARK INTER:                 -12.519
REMARK INTRA:                   0.000
REMARK UNBOUND:                 0.000
ROOT
REMARK  Name = androstenediol
REMARK                            x       y       z     vdW  Elec       q    Type
REMARK                         _______ _______ _______ _____ _____    ______ ____
ATOM      1  C   UNL     1      60.880  63.236  67.587  0.00  0.00    +0.000 C 
ATOM      2  C   UNL     1      60.556  62.732  67.019  0.00  0.00    +0.000 C 
ATOM      3  C   UNL     1      61.314  63.002  66.835  0.00  0.00    +0.000 C 
ATOM      4  C   UNL     1      61.678  62.764  66.134  0.00  0.00    +0.000 C 
ATOM      5  C   UNL     1      61.284  62.256  65.617  0.00  0.00    +0.000 C 
ATOM      6  C   UNL     1      60.526  61.986  65.801  0.00  0.00    +0.000 C 
ATOM      7  C   UNL     1      60.133  61.478  65.283  0.00  0.00    +0.000 C 
ATOM      8  C   UNL     1      60.497  61.240  64.582  0.00  0.00    +0.000 C 
ATOM      9  C   UNL     1      61.254  61.510  64.399  0.00  0.00    +0.000 C 
ATOM     10  C   UNL     1      61.618  61.271  63.697  0.00  0.00    +0.000 C 
ATOM     11  C   UNL     1      62.376  61.542  63.514  0.00  0.00    +0.000 C 
ATOM     12  O   UNL     1      62.740  61.304  62.813  0.00  0.00    +0.000 OA
ATOM     13  C   UNL     1      62.769  62.050  64.031  0.00  0.00    +0.000 C 
ATOM     14  C   UNL     1      62.405  62.288  64.732  0.00  0.00    +0.000 C 
ATOM     15  C   UNL     1      61.648  62.018  64.916  0.00  0.00    +0.000 C 
ATOM     16  C   UNL     1      62.042  62.526  65.433  0.00  0.00    +0.000 C 
ATOM     17  C   UNL     1      60.162  62.224  66.502  0.00  0.00    +0.000 C 
ATOM     18  C   UNL     1      59.425  62.049  66.828  0.00  0.00    +0.000 C 
ATOM     19  C   UNL     1      59.363  62.450  67.547  0.00  0.00    +0.000 C 
ATOM     20  C   UNL     1      60.062  62.872  67.665  0.00  0.00    +0.000 C 
ATOM     21  O   UNL     1      60.237  63.349  68.315  0.00  0.00    +0.000 OA
ENDROOT
TORSDOF 0
ENDMDL
MODEL 3
REMARK VINA RESULT:   -11.725      3.097      5.880
REMARK INTER + INTRA:         -11.725
REMARK INTER:                 -11.725
REMARK INTRA:                   0.000
REMARK UNBOUND:                 0.000
ROOT
REMARK  Name = androstenediol
REMARK                            x       y       z     vdW  Elec       q    Type
REMARK                         _______ _______ _______ _____ _____    ______ ____
ATOM      1  C   UNL     1      61.620  61.949  72.304  0.00  0.00    +0.000 C 
ATOM      2  C   UNL     1      61.354  62.620  71.904  0.00  0.00    +0.000 C 
ATOM      3  C   UNL     1      61.358  61.934  71.444  0.00  0.00    +0.000 C 
ATOM      4  C   UNL     1      61.111  61.962  70.658  0.00  0.00    +0.000 C 
ATOM      5  C   UNL     1      60.858  62.676  70.331  0.00  0.00    +0.000 C 
ATOM      6  C   UNL     1      60.853  63.362  70.790  0.00  0.00    +0.000 C 
ATOM      7  C   UNL     1      60.601  64.076  70.462  0.00  0.00    +0.000 C 
ATOM      8  C   UNL     1      60.353  64.104  69.676  0.00  0.00    +0.000 C 
ATOM      9  C   UNL     1      60.358  63.418  69.218  0.00  0.00    +0.000 C 
ATOM     10  C   UNL     1      60.110  63.447  68.430  0.00  0.00    +0.000 C 
ATOM     11  C   UNL     1      60.115  62.762  67.972  0.00  0.00    +0.000 C 
ATOM     12  O   UNL     1      59.867  62.790  67.186  0.00  0.00    +0.000 OA
ATOM     13  C   UNL     1      60.367  62.048  68.299  0.00  0.00    +0.000 C 
ATOM     14  C   UNL     1      60.615  62.019  69.086  0.00  0.00    +0.000 C 
ATOM     15  C   UNL     1      60.610  62.704  69.545  0.00  0.00    +0.000 C 
ATOM     16  C   UNL     1      60.863  61.990  69.872  0.00  0.00    +0.000 C 
ATOM     17  C   UNL     1      61.101  63.334  71.576  0.00  0.00    +0.000 C 
ATOM     18  C   UNL     1      61.157  63.915  72.159  0.00  0.00    +0.000 C 
ATOM     19  C   UNL     1      61.444  63.560  72.846  0.00  0.00    +0.000 C 
ATOM     20  C   UNL     1      61.566  62.759  72.689  0.00  0.00    +0.000 C 
ATOM     21  O   UNL     1      61.849  62.198  73.222  0.00  0.00    +0.000 OA
ENDROOT
TORSDOF 0
ENDMDL
MODEL 4
REMARK VINA RESULT:   -11.331      5.667      7.400
REMARK INTER + INTRA:         -11.331
REMARK INTER:                 -11.331
REMARK INTRA:                   0.000
REMARK UNBOUND:                 0.000
ROOT
REMARK  Name = androstenediol
REMARK                            x       y       z     vdW  Elec       q    Type
REMARK                         _______ _______ _______ _____ _____    ______ ____
ATOM      1  C   UNL     1      58.975  65.425  71.767  0.00  0.00    +0.000 C 
ATOM      2  C   UNL     1      59.618  65.133  72.195  0.00  0.00    +0.000 C 
ATOM      3  C   UNL     1      59.363  64.634  71.589  0.00  0.00    +0.000 C 
ATOM      4  C   UNL     1      59.745  63.915  71.457  0.00  0.00    +0.000 C 
ATOM      5  C   UNL     1      60.383  63.695  71.932  0.00  0.00    +0.000 C 
ATOM      6  C   UNL     1      60.638  64.193  72.539  0.00  0.00    +0.000 C 
ATOM      7  C   UNL     1      61.275  63.972  73.013  0.00  0.00    +0.000 C 
ATOM      8  C   UNL     1      61.658  63.253  72.882  0.00  0.00    +0.000 C 
ATOM      9  C   UNL     1      61.403  62.755  72.276  0.00  0.00    +0.000 C 
ATOM     10  C   UNL     1      61.786  62.036  72.145  0.00  0.00    +0.000 C 
ATOM     11  C   UNL     1      61.531  61.538  71.539  0.00  0.00    +0.000 C 
ATOM     12  O   UNL     1      61.913  60.819  71.408  0.00  0.00    +0.000 OA
ATOM     13  C   UNL     1      60.893  61.758  71.064  0.00  0.00    +0.000 C 
ATOM     14  C   UNL     1      60.511  62.477  71.195  0.00  0.00    +0.000 C 
ATOM     15  C   UNL     1      60.765  62.976  71.801  0.00  0.00    +0.000 C 
ATOM     16  C   UNL     1      60.128  63.196  71.326  0.00  0.00    +0.000 C 
ATOM     17  C   UNL     1      60.255  64.912  72.670  0.00  0.00    +0.000 C 
ATOM     18  C   UNL     1      60.382  65.512  73.221  0.00  0.00    +0.000 C 
ATOM     19  C   UNL     1      59.823  66.104  73.087  0.00  0.00    +0.000 C 
ATOM     20  C   UNL     1      59.350  65.870  72.453  0.00  0.00    +0.000 C 
ATOM     21  O   UNL     1      58.721  66.296  72.133  0.00  0.00    +0.000 OA
ENDROOT
TORSDOF 0
ENDMDL
MODEL 5
REMARK VINA RESULT:   -11.326      5.445      6.638
REMARK INTER + INTRA:         -11.326
REMARK INTER:                 -11.326
REMARK INTRA:                   0.000
REMARK UNBOUND:                 0.000
ROOT
REMARK  Name = androstenediol
REMARK                            x       y       z     vdW  Elec       q    Type
REMARK                         _______ _______ _______ _____ _____    ______ ____
ATOM      1  C   UNL     1      61.847  61.950  72.205  0.00  0.00    +0.000 C 
ATOM      2  C   UNL     1      61.249  62.355  71.804  0.00  0.00    +0.000 C 
ATOM      3  C   UNL     1      61.558  62.765  72.451  0.00  0.00    +0.000 C 
ATOM      4  C   UNL     1      61.264  63.511  72.644  0.00  0.00    +0.000 C 
ATOM      5  C   UNL     1      60.663  63.847  72.190  0.00  0.00    +0.000 C 
ATOM      6  C   UNL     1      60.354  63.437  71.544  0.00  0.00    +0.000 C 
ATOM      7  C   UNL     1      59.752  63.774  71.091  0.00  0.00    +0.000 C 
ATOM      8  C   UNL     1      59.459  64.521  71.284  0.00  0.00    +0.000 C 
ATOM      9  C   UNL     1      59.768  64.930  71.930  0.00  0.00    +0.000 C 
ATOM     10  C   UNL     1      59.473  65.677  72.122  0.00  0.00    +0.000 C 
ATOM     11  C   UNL     1      59.782  66.087  72.768  0.00  0.00    +0.000 C 
ATOM     12  O   UNL     1      59.489  66.833  72.961  0.00  0.00    +0.000 OA
ATOM     13  C   UNL     1      60.384  65.751  73.222  0.00  0.00    +0.000 C 
ATOM     14  C   UNL     1      60.677  65.004  73.029  0.00  0.00    +0.000 C 
ATOM     15  C   UNL     1      60.369  64.594  72.383  0.00  0.00    +0.000 C 
ATOM     16  C   UNL     1      60.971  64.258  72.837  0.00  0.00    +0.000 C 
ATOM     17  C   UNL     1      60.648  62.691  71.351  0.00  0.00    +0.000 C 
ATOM     18  C   UNL     1      60.454  62.160  70.751  0.00  0.00    +0.000 C 
ATOM     19  C   UNL     1      60.936  61.495  70.833  0.00  0.00    +0.000 C 
ATOM     20  C   UNL     1      61.428  61.615  71.484  0.00  0.00    +0.000 C 
ATOM     21  O   UNL     1      61.997  61.089  71.765  0.00  0.00    +0.000 OA
ENDROOT
TORSDOF 0
ENDMDL
MODEL 6
REMARK VINA RESULT:   -11.079      6.582      8.098
REMARK INTER + INTRA:         -11.079
REMARK INTER:                 -11.079
REMARK INTRA:                   0.000
REMARK UNBOUND:                 0.000
ROOT
REMARK  Name = androstenediol
REMARK                            x       y       z     vdW  Elec       q    Type
REMARK                         _______ _______ _______ _____ _____    ______ ____
ATOM      1  C   UNL     1      62.430  66.029  72.834  0.00  0.00    +0.000 C 
ATOM      2  C   UNL     1      62.747  65.773  72.117  0.00  0.00    +0.000 C 
ATOM      3  C   UNL     1      63.144  66.416  72.449  0.00  0.00    +0.000 C 
ATOM      4  C   UNL     1      63.796  66.742  72.063  0.00  0.00    +0.000 C 
ATOM      5  C   UNL     1      64.051  66.426  71.346  0.00  0.00    +0.000 C 
ATOM      6  C   UNL     1      63.655  65.783  71.013  0.00  0.00    +0.000 C 
ATOM      7  C   UNL     1      63.911  65.466  70.295  0.00  0.00    +0.000 C 
ATOM      8  C   UNL     1      64.563  65.793  69.910  0.00  0.00    +0.000 C 
ATOM      9  C   UNL     1      64.959  66.436  70.242  0.00  0.00    +0.000 C 
ATOM     10  C   UNL     1      65.611  66.762  69.855  0.00  0.00    +0.000 C 
ATOM     11  C   UNL     1      66.007  67.405  70.188  0.00  0.00    +0.000 C 
ATOM     12  O   UNL     1      66.659  67.732  69.802  0.00  0.00    +0.000 OA
ATOM     13  C   UNL     1      65.752  67.722  70.906  0.00  0.00    +0.000 C 
ATOM     14  C   UNL     1      65.100  67.395  71.291  0.00  0.00    +0.000 C 
ATOM     15  C   UNL     1      64.703  66.752  70.960  0.00  0.00    +0.000 C 
ATOM     16  C   UNL     1      64.448  67.069  71.678  0.00  0.00    +0.000 C 
ATOM     17  C   UNL     1      63.003  65.456  71.399  0.00  0.00    +0.000 C 
ATOM     18  C   UNL     1      62.506  64.826  71.207  0.00  0.00    +0.000 C 
ATOM     19  C   UNL     1      61.944  64.753  71.806  0.00  0.00    +0.000 C 
ATOM     20  C   UNL     1      62.092  65.338  72.369  0.00  0.00    +0.000 C 
ATOM     21  O   UNL     1      61.662  65.466  73.061  0.00  0.00    +0.000 OA
ENDROOT
TORSDOF 0
ENDMDL
MODEL 7
REMARK VINA RESULT:   -11.011      5.147      7.300
REMARK INTER + INTRA:         -11.011
REMARK INTER:                 -11.011
REMARK INTRA:                   0.000
REMARK UNBOUND:                 0.000
ROOT
REMARK  Name = androstenediol
REMARK                            x       y       z     vdW  Elec       q    Type
REMARK                         _______ _______ _______ _____ _____    ______ ____
ATOM      1  C   UNL     1      65.757  67.126  69.833  0.00  0.00    +0.000 C 
ATOM      2  C   UNL     1      65.245  66.877  70.431  0.00  0.00    +0.000 C 
ATOM      3  C   UNL     1      65.130  66.493  69.710  0.00  0.00    +0.000 C 
ATOM      4  C   UNL     1      64.544  65.918  69.637  0.00  0.00    +0.000 C 
ATOM      5  C   UNL     1      64.072  65.726  70.286  0.00  0.00    +0.000 C 
ATOM      6  C   UNL     1      64.186  66.110  71.008  0.00  0.00    +0.000 C 
ATOM      7  C   UNL     1      63.713  65.918  71.656  0.00  0.00    +0.000 C 
ATOM      8  C   UNL     1      63.127  65.343  71.584  0.00  0.00    +0.000 C 
ATOM      9  C   UNL     1      63.013  64.959  70.862  0.00  0.00    +0.000 C 
ATOM     10  C   UNL     1      62.426  64.383  70.791  0.00  0.00    +0.000 C 
ATOM     11  C   UNL     1      62.312  64.000  70.069  0.00  0.00    +0.000 C 
ATOM     12  O   UNL     1      61.725  63.425  69.997  0.00  0.00    +0.000 OA
ATOM     13  C   UNL     1      62.784  64.191  69.420  0.00  0.00    +0.000 C 
ATOM     14  C   UNL     1      63.370  64.767  69.493  0.00  0.00    +0.000 C 
ATOM     15  C   UNL     1      63.485  65.151  70.214  0.00  0.00    +0.000 C 
ATOM     16  C   UNL     1      63.957  65.342  69.565  0.00  0.00    +0.000 C 
ATOM     17  C   UNL     1      64.773  66.686  71.080  0.00  0.00    +0.000 C 
ATOM     18  C   UNL     1      65.011  67.153  71.716  0.00  0.00    +0.000 C 
ATOM     19  C   UNL     1      65.632  67.634  71.460  0.00  0.00    +0.000 C 
ATOM     20  C   UNL     1      65.776  67.463  70.666  0.00  0.00    +0.000 C 
ATOM     21  O   UNL     1      66.350  67.816  70.191  0.00  0.00    +0.000 OA
ENDROOT
TORSDOF 0
ENDMDL
MODEL 8
REMARK VINA RESULT:   -10.670      5.910      7.086
REMARK INTER + INTRA:         -10.670
REMARK INTER:                 -10.670
REMARK INTRA:                   0.000
REMARK UNBOUND:                 0.000
ROOT
REMARK  Name = androstenediol
REMARK                            x       y       z     vdW  Elec       q    Type
REMARK                         _______ _______ _______ _____ _____    ______ ____
ATOM      1  C   UNL     1      61.567  63.061  71.501  0.00  0.00    +0.000 C 
ATOM      2  C   UNL     1      61.814  63.806  71.757  0.00  0.00    +0.000 C 
ATOM      3  C   UNL     1      62.212  63.531  71.088  0.00  0.00    +0.000 C 
ATOM      4  C   UNL     1      62.799  63.993  70.738  0.00  0.00    +0.000 C 
ATOM      5  C   UNL     1      62.988  64.730  71.057  0.00  0.00    +0.000 C 
ATOM      6  C   UNL     1      62.590  65.005  71.726  0.00  0.00    +0.000 C 
ATOM      7  C   UNL     1      62.780  65.743  72.044  0.00  0.00    +0.000 C 
ATOM      8  C   UNL     1      63.366  66.205  71.694  0.00  0.00    +0.000 C 
ATOM      9  C   UNL     1      63.763  65.929  71.026  0.00  0.00    +0.000 C 
ATOM     10  C   UNL     1      64.351  66.393  70.676  0.00  0.00    +0.000 C 
ATOM     11  C   UNL     1      64.748  66.117  70.007  0.00  0.00    +0.000 C 
ATOM     12  O   UNL     1      65.335  66.580  69.657  0.00  0.00    +0.000 OA
ATOM     13  C   UNL     1      64.559  65.380  69.688  0.00  0.00    +0.000 C 
ATOM     14  C   UNL     1      63.972  64.918  70.038  0.00  0.00    +0.000 C 
ATOM     15  C   UNL     1      63.574  65.192  70.707  0.00  0.00    +0.000 C 
ATOM     16  C   UNL     1      63.386  64.455  70.388  0.00  0.00    +0.000 C 
ATOM     17  C   UNL     1      62.003  64.543  72.076  0.00  0.00    +0.000 C 
ATOM     18  C   UNL     1      61.522  64.668  72.733  0.00  0.00    +0.000 C 
ATOM     19  C   UNL     1      61.034  64.007  72.821  0.00  0.00    +0.000 C 
ATOM     20  C   UNL     1      61.215  63.474  72.218  0.00  0.00    +0.000 C 
ATOM     21  O   UNL     1      60.860  62.740  72.096  0.00  0.00    +0.000 OA
ENDROOT
TORSDOF 0
ENDMDL
MODEL 9
REMARK VINA RESULT:   -10.281      5.962      7.249
REMARK INTER + INTRA:         -10.281
REMARK INTER:                 -10.281
REMARK INTRA:                   0.000
REMARK UNBOUND:                 0.000
ROOT
REMARK  Name = androstenediol
REMARK                            x       y       z     vdW  Elec       q    Type
REMARK                         _______ _______ _______ _____ _____    ______ ____
ATOM      1  C   UNL     1      64.485  65.858  70.828  0.00  0.00    +0.000 C 
ATOM      2  C   UNL     1      63.867  65.925  71.371  0.00  0.00    +0.000 C 
ATOM      3  C   UNL     1      63.827  65.250  70.898  0.00  0.00    +0.000 C 
ATOM      4  C   UNL     1      63.207  64.715  70.992  0.00  0.00    +0.000 C 
ATOM      5  C   UNL     1      62.625  64.856  71.560  0.00  0.00    +0.000 C 
ATOM      6  C   UNL     1      62.664  65.531  72.033  0.00  0.00    +0.000 C 
ATOM      7  C   UNL     1      62.082  65.671  72.601  0.00  0.00    +0.000 C 
ATOM      8  C   UNL     1      61.461  65.136  72.696  0.00  0.00    +0.000 C 
ATOM      9  C   UNL     1      61.423  64.461  72.223  0.00  0.00    +0.000 C 
ATOM     10  C   UNL     1      60.801  63.926  72.319  0.00  0.00    +0.000 C 
ATOM     11  C   UNL     1      60.762  63.252  71.846  0.00  0.00    +0.000 C 
ATOM     12  O   UNL     1      60.141  62.717  71.941  0.00  0.00    +0.000 OA
ATOM     13  C   UNL     1      61.344  63.111  71.278  0.00  0.00    +0.000 C 
ATOM     14  C   UNL     1      61.965  63.646  71.183  0.00  0.00    +0.000 C 
ATOM     15  C   UNL     1      62.004  64.321  71.655  0.00  0.00    +0.000 C 
ATOM     16  C   UNL     1      62.586  64.180  71.087  0.00  0.00    +0.000 C 
ATOM     17  C   UNL     1      63.285  66.066  71.938  0.00  0.00    +0.000 C 
ATOM     18  C   UNL     1      63.467  66.773  72.321  0.00  0.00    +0.000 C 
ATOM     19  C   UNL     1      64.162  67.070  71.990  0.00  0.00    +0.000 C 
ATOM     20  C   UNL     1      64.409  66.546  71.402  0.00  0.00    +0.000 C 
ATOM     21  O   UNL     1      65.080  66.628  70.929  0.00  0.00    +0.000 OA
ENDROOT
TORSDOF 0
ENDMDL
