MODEL 1
REMARK VINA RESULT:   -18.684      0.000      0.000
REMARK INTER + INTRA:         -18.684
REMARK INTER:                 -18.684
REMARK INTRA:                   0.000
REMARK UNBOUND:                 0.000
ROOT
REMARK  Name = angiotensinamide
REMARK                            x       y       z     vdW  Elec       q    Type
REMARK                         _______ _______ _______ _____ _____    ______ ____
ATOM      1  CG1 VAL A   3      59.870  67.031  50.775  0.00  0.00    +0.000 C 
ATOM      2  CB  VAL A   3      59.854  67.790  51.096  0.00  0.00    +0.000 C 
ATOM      3  CG2 VAL A   3      59.404  68.381  50.735  0.00  0.00    +0.000 C 
ATOM      4  CA  VAL A   3      60.287  67.959  51.777  0.00  0.00    +0.000 C 
ATOM      5  N   VAL A   3      60.271  68.719  52.097  0.00  0.00    +0.000 NA
ATOM      6  C   ARG A   2      59.821  69.310  51.737  0.00  0.00    +0.000 C 
ATOM      7  O   ARG A   2      59.388  69.141  51.056  0.00  0.00    +0.000 OA
ATOM      8  CA  ARG A   2      59.805  70.069  52.058  0.00  0.00    +0.000 C 
ATOM      9  CB  ARG A   2      59.356  70.660  51.698  0.00  0.00    +0.000 C 
ATOM     10  CG  ARG A   2      59.339  71.421  52.019  0.00  0.00    +0.000 C 
ATOM     11  CD  ARG A   2      58.890  72.010  51.658  0.00  0.00    +0.000 C 
ATOM     12  NE  ARG A   2      58.873  72.771  51.979  0.00  0.00    +0.000 NA
ATOM     13  CZ  ARG A   2      58.424  73.361  51.619  0.00  0.00    +0.000 C 
ATOM     14  NH1 ARG A   2      58.408  74.121  51.940  0.00  0.00    +0.000 NA
ATOM     15  NH2 ARG A   2      57.991  73.192  50.937  0.00  0.00    +0.000 NA
ATOM     16  N   ARG A   2      60.238  70.239  52.740  0.00  0.00    +0.000 NA
ATOM     17  C   ASN A   1      60.688  69.649  53.100  0.00  0.00    +0.000 C 
ATOM     18  O   ASN A   1      60.704  68.889  52.779  0.00  0.00    +0.000 OA
ATOM     19  CA  ASN A   1      61.121  69.818  53.781  0.00  0.00    +0.000 C 
ATOM     20  N   ASN A   1      61.105  70.578  54.103  0.00  0.00    +0.000 NA
ATOM     21  CB  ASN A   1      61.570  69.228  54.142  0.00  0.00    +0.000 C 
ATOM     22  CG  ASN A   1      62.004  69.397  54.823  0.00  0.00    +0.000 C 
ATOM     23  ND2 ASN A   1      62.453  68.806  55.183  0.00  0.00    +0.000 NA
ATOM     24  OD1 ASN A   1      61.987  70.157  55.144  0.00  0.00    +0.000 OA
ATOM     25  C   VAL A   3      60.737  67.369  52.137  0.00  0.00    +0.000 C 
ATOM     26  O   VAL A   3      61.170  67.539  52.819  0.00  0.00    +0.000 OA
ATOM     27  N   TYR A   4      60.753  66.609  51.816  0.00  0.00    +0.000 NA
ATOM     28  CA  TYR A   4      61.202  66.019  52.177  0.00  0.00    +0.000 C 
ATOM     29  CB  TYR A   4      61.636  66.189  52.858  0.00  0.00    +0.000 C 
ATOM     30  CG  TYR A   4      62.085  65.598  53.219  0.00  0.00    +0.000 A 
ATOM     31  CD1 TYR A   4      62.518  65.767  53.900  0.00  0.00    +0.000 A 
ATOM     32  CE1 TYR A   4      62.968  65.176  54.260  0.00  0.00    +0.000 A 
ATOM     33  CZ  TYR A   4      62.984  64.417  53.939  0.00  0.00    +0.000 A 
ATOM     34  OH  TYR A   4      63.433  63.826  54.299  0.00  0.00    +0.000 OA
ATOM     35  CE2 TYR A   4      62.551  64.248  53.258  0.00  0.00    +0.000 A 
ATOM     36  CD2 TYR A   4      62.101  64.838  52.898  0.00  0.00    +0.000 A 
ATOM     37  C   TYR A   4      61.219  65.259  51.856  0.00  0.00    +0.000 C 
ATOM     38  O   TYR A   4      60.785  65.090  51.174  0.00  0.00    +0.000 OA
ATOM     39  N   VAL A   5      61.668  64.668  52.216  0.00  0.00    +0.000 NA
ATOM     40  CA  VAL A   5      61.685  63.909  51.896  0.00  0.00    +0.000 C 
ATOM     41  CB  VAL A   5      61.251  63.740  51.214  0.00  0.00    +0.000 C 
ATOM     42  CG1 VAL A   5      61.268  62.980  50.893  0.00  0.00    +0.000 C 
ATOM     43  CG2 VAL A   5      60.801  64.330  50.853  0.00  0.00    +0.000 C 
ATOM     44  C   VAL A   5      62.134  63.318  52.256  0.00  0.00    +0.000 C 
ATOM     45  O   VAL A   5      62.567  63.488  52.938  0.00  0.00    +0.000 OA
ATOM     46  N   HIS A   6      62.150  62.558  51.935  0.00  0.00    +0.000 NA
ATOM     47  CA  HIS A   6      62.600  61.968  52.295  0.00  0.00    +0.000 C 
ATOM     48  CB  HIS A   6      62.928  62.370  52.936  0.00  0.00    +0.000 C 
ATOM     49  CG  HIS A   6      63.431  61.974  53.458  0.00  0.00    +0.000 A 
ATOM     50  CD2 HIS A   6      63.798  62.302  54.119  0.00  0.00    +0.000 A 
ATOM     51  NE2 HIS A   6      64.248  61.712  54.480  0.00  0.00    +0.000 NA
ATOM     52  CE1 HIS A   6      64.158  61.018  54.041  0.00  0.00    +0.000 A 
ATOM     53  ND1 HIS A   6      63.653  61.181  53.409  0.00  0.00    +0.000 NA
ATOM     54  C   HIS A   6      62.616  61.208  51.974  0.00  0.00    +0.000 C 
ATOM     55  O   HIS A   6      62.183  61.039  51.293  0.00  0.00    +0.000 OA
ATOM     56  N   PRO A   7      63.065  60.618  52.334  0.00  0.00    +0.000 N 
ATOM     57  CD  PRO A   7      63.524  60.705  53.015  0.00  0.00    +0.000 C 
ATOM     58  CG  PRO A   7      63.878  59.977  53.179  0.00  0.00    +0.000 C 
ATOM     59  CB  PRO A   7      63.637  59.441  52.600  0.00  0.00    +0.000 C 
ATOM     60  CA  PRO A   7      63.135  59.836  52.078  0.00  0.00    +0.000 C 
ATOM     61  C   PRO A   7      62.767  59.509  51.416  0.00  0.00    +0.000 C 
ATOM     62  O   PRO A   7      62.277  59.975  50.943  0.00  0.00    +0.000 OA
ATOM     63  N   PHE A   8      62.889  58.715  51.228  0.00  0.00    +0.000 NA
ATOM     64  CA  PHE A   8      62.521  58.387  50.566  0.00  0.00    +0.000 C 
ATOM     65  CB  PHE A   8      62.032  58.853  50.093  0.00  0.00    +0.000 C 
ATOM     66  CG  PHE A   8      61.663  58.525  49.431  0.00  0.00    +0.000 A 
ATOM     67  CD1 PHE A   8      61.785  57.732  49.243  0.00  0.00    +0.000 A 
ATOM     68  CE1 PHE A   8      61.417  57.404  48.580  0.00  0.00    +0.000 A 
ATOM     69  CZ  PHE A   8      60.928  57.870  48.108  0.00  0.00    +0.000 A 
ATOM     70  CE2 PHE A   8      60.806  58.664  48.297  0.00  0.00    +0.000 A 
ATOM     71  CD2 PHE A   8      61.174  58.992  48.958  0.00  0.00    +0.000 A 
ATOM     72  C   PHE A   8      62.643  57.593  50.377  0.00  0.00    +0.000 C 
ATOM     73  O   PHE A   8      63.132  57.128  50.850  0.00  0.00    +0.000 OA
ATOM     74  OXT PHE A   8      62.275  57.265  49.715  0.00  0.00    +0.000 OA
ENDROOT
TORSDOF 0
ENDMDL
MODEL 2
REMARK VINA RESULT:   -18.523      1.575      9.719
REMARK INTER + INTRA:         -18.523
REMARK INTER:                 -18.523
REMARK INTRA:                   0.000
REMARK UNBOUND:                 0.000
ROOT
REMARK  Name = angiotensinamide
REMARK                            x       y       z     vdW  Elec       q    Type
REMARK                         _______ _______ _______ _____ _____    ______ ____
ATOM      1  CG1 VAL A   3      61.345  63.900  50.053  0.00  0.00    +0.000 C 
ATOM      2  CB  VAL A   3      61.734  63.179  50.151  0.00  0.00    +0.000 C 
ATOM      3  CG2 VAL A   3      61.690  62.604  49.561  0.00  0.00    +0.000 C 
ATOM      4  CA  VAL A   3      62.166  63.034  50.839  0.00  0.00    +0.000 C 
ATOM      5  N   VAL A   3      62.554  62.313  50.936  0.00  0.00    +0.000 NA
ATOM      6  C   ARG A   2      62.512  61.738  50.347  0.00  0.00    +0.000 C 
ATOM      7  O   ARG A   2      62.080  61.883  49.659  0.00  0.00    +0.000 OA
ATOM      8  CA  ARG A   2      62.901  61.017  50.445  0.00  0.00    +0.000 C 
ATOM      9  CB  ARG A   2      62.858  60.442  49.855  0.00  0.00    +0.000 C 
ATOM     10  CG  ARG A   2      63.247  59.720  49.953  0.00  0.00    +0.000 C 
ATOM     11  CD  ARG A   2      63.203  59.145  49.363  0.00  0.00    +0.000 C 
ATOM     12  NE  ARG A   2      63.593  58.424  49.461  0.00  0.00    +0.000 NA
ATOM     13  CZ  ARG A   2      63.549  57.849  48.871  0.00  0.00    +0.000 C 
ATOM     14  NH1 ARG A   2      63.939  57.127  48.969  0.00  0.00    +0.000 NA
ATOM     15  NH2 ARG A   2      63.117  57.994  48.184  0.00  0.00    +0.000 NA
ATOM     16  N   ARG A   2      63.333  60.871  51.132  0.00  0.00    +0.000 NA
ATOM     17  C   ASN A   1      63.376  61.447  51.722  0.00  0.00    +0.000 C 
ATOM     18  O   ASN A   1      62.987  62.167  51.624  0.00  0.00    +0.000 OA
ATOM     19  CA  ASN A   1      63.808  61.301  52.409  0.00  0.00    +0.000 C 
ATOM     20  N   ASN A   1      64.197  60.580  52.507  0.00  0.00    +0.000 NA
ATOM     21  CB  ASN A   1      63.851  61.876  52.999  0.00  0.00    +0.000 C 
ATOM     22  CG  ASN A   1      64.283  61.731  53.686  0.00  0.00    +0.000 C 
ATOM     23  ND2 ASN A   1      64.326  62.306  54.276  0.00  0.00    +0.000 NA
ATOM     24  OD1 ASN A   1      64.672  61.010  53.784  0.00  0.00    +0.000 OA
ATOM     25  C   VAL A   3      62.209  63.610  51.428  0.00  0.00    +0.000 C 
ATOM     26  O   VAL A   3      62.641  63.464  52.116  0.00  0.00    +0.000 OA
ATOM     27  N   TYR A   4      61.820  64.330  51.330  0.00  0.00    +0.000 NA
ATOM     28  CA  TYR A   4      61.863  64.906  51.920  0.00  0.00    +0.000 C 
ATOM     29  CB  TYR A   4      62.295  64.760  52.608  0.00  0.00    +0.000 C 
ATOM     30  CG  TYR A   4      62.338  65.335  53.197  0.00  0.00    +0.000 A 
ATOM     31  CD1 TYR A   4      62.770  65.190  53.885  0.00  0.00    +0.000 A 
ATOM     32  CE1 TYR A   4      62.813  65.766  54.474  0.00  0.00    +0.000 A 
ATOM     33  CZ  TYR A   4      62.424  66.486  54.376  0.00  0.00    +0.000 A 
ATOM     34  OH  TYR A   4      62.467  67.062  54.966  0.00  0.00    +0.000 OA
ATOM     35  CE2 TYR A   4      61.992  66.631  53.689  0.00  0.00    +0.000 A 
ATOM     36  CD2 TYR A   4      61.949  66.056  53.099  0.00  0.00    +0.000 A 
ATOM     37  C   TYR A   4      61.474  65.626  51.822  0.00  0.00    +0.000 C 
ATOM     38  O   TYR A   4      61.042  65.772  51.134  0.00  0.00    +0.000 OA
ATOM     39  N   VAL A   5      61.517  66.202  52.412  0.00  0.00    +0.000 NA
ATOM     40  CA  VAL A   5      61.128  66.923  52.314  0.00  0.00    +0.000 C 
ATOM     41  CB  VAL A   5      60.696  67.068  51.626  0.00  0.00    +0.000 C 
ATOM     42  CG1 VAL A   5      60.307  67.789  51.529  0.00  0.00    +0.000 C 
ATOM     43  CG2 VAL A   5      60.653  66.492  51.036  0.00  0.00    +0.000 C 
ATOM     44  C   VAL A   5      61.171  67.498  52.904  0.00  0.00    +0.000 C 
ATOM     45  O   VAL A   5      61.604  67.352  53.592  0.00  0.00    +0.000 OA
ATOM     46  N   HIS A   6      60.782  68.219  52.806  0.00  0.00    +0.000 NA
ATOM     47  CA  HIS A   6      60.825  68.795  53.395  0.00  0.00    +0.000 C 
ATOM     48  CB  HIS A   6      61.298  68.424  53.961  0.00  0.00    +0.000 C 
ATOM     49  CG  HIS A   6      61.486  68.817  54.663  0.00  0.00    +0.000 A 
ATOM     50  CD2 HIS A   6      61.949  68.520  55.276  0.00  0.00    +0.000 A 
ATOM     51  NE2 HIS A   6      61.993  69.094  55.865  0.00  0.00    +0.000 NA
ATOM     52  CE1 HIS A   6      61.555  69.749  55.617  0.00  0.00    +0.000 A 
ATOM     53  ND1 HIS A   6      61.242  69.577  54.873  0.00  0.00    +0.000 NA
ATOM     54  C   HIS A   6      60.436  69.515  53.297  0.00  0.00    +0.000 C 
ATOM     55  O   HIS A   6      60.004  69.660  52.610  0.00  0.00    +0.000 OA
ATOM     56  N   PRO A   7      60.479  70.091  53.887  0.00  0.00    +0.000 N 
ATOM     57  CD  PRO A   7      60.888  70.024  54.601  0.00  0.00    +0.000 C 
ATOM     58  CG  PRO A   7      60.783  70.726  55.022  0.00  0.00    +0.000 C 
ATOM     59  CB  PRO A   7      60.309  71.226  54.568  0.00  0.00    +0.000 C 
ATOM     60  CA  PRO A   7      60.121  70.834  53.867  0.00  0.00    +0.000 C 
ATOM     61  C   PRO A   7      59.657  71.131  53.253  0.00  0.00    +0.000 C 
ATOM     62  O   PRO A   7      59.516  70.673  52.582  0.00  0.00    +0.000 OA
ATOM     63  N   PHE A   8      59.333  71.888  53.311  0.00  0.00    +0.000 NA
ATOM     64  CA  PHE A   8      58.869  72.187  52.698  0.00  0.00    +0.000 C 
ATOM     65  CB  PHE A   8      58.728  71.728  52.027  0.00  0.00    +0.000 C 
ATOM     66  CG  PHE A   8      58.264  72.026  51.413  0.00  0.00    +0.000 A 
ATOM     67  CD1 PHE A   8      57.941  72.782  51.471  0.00  0.00    +0.000 A 
ATOM     68  CE1 PHE A   8      57.476  73.080  50.857  0.00  0.00    +0.000 A 
ATOM     69  CZ  PHE A   8      57.336  72.621  50.186  0.00  0.00    +0.000 A 
ATOM     70  CE2 PHE A   8      57.659  71.865  50.129  0.00  0.00    +0.000 A 
ATOM     71  CD2 PHE A   8      58.123  71.566  50.742  0.00  0.00    +0.000 A 
ATOM     72  C   PHE A   8      58.545  72.943  52.755  0.00  0.00    +0.000 C 
ATOM     73  O   PHE A   8      58.686  73.401  53.426  0.00  0.00    +0.000 OA
ATOM     74  OXT PHE A   8      58.081  73.241  52.142  0.00  0.00    +0.000 OA
ENDROOT
TORSDOF 0
ENDMDL
MODEL 3
REMARK VINA RESULT:   -18.219      2.623     11.162
REMARK INTER + INTRA:         -18.219
REMARK INTER:                 -18.219
REMARK INTRA:                   0.000
REMARK UNBOUND:                 0.000
ROOT
REMARK  Name = angiotensinamide
REMARK                            x       y       z     vdW  Elec       q    Type
REMARK                         _______ _______ _______ _____ _____    ______ ____
ATOM      1  CG1 VAL A   3      61.469  66.496  54.432  0.00  0.00    +0.000 C 
ATOM      2  CB  VAL A   3      61.755  65.818  54.061  0.00  0.00    +0.000 C 
ATOM      3  CG2 VAL A   3      62.014  65.178  54.514  0.00  0.00    +0.000 C 
ATOM      4  CA  VAL A   3      61.782  65.778  53.237  0.00  0.00    +0.000 C 
ATOM      5  N   VAL A   3      62.068  65.099  52.867  0.00  0.00    +0.000 NA
ATOM      6  C   ARG A   2      62.327  64.460  53.319  0.00  0.00    +0.000 C 
ATOM      7  O   ARG A   2      62.301  64.499  54.143  0.00  0.00    +0.000 OA
ATOM      8  CA  ARG A   2      62.613  63.781  52.948  0.00  0.00    +0.000 C 
ATOM      9  CB  ARG A   2      62.873  63.142  53.400  0.00  0.00    +0.000 C 
ATOM     10  CG  ARG A   2      63.159  62.463  53.029  0.00  0.00    +0.000 C 
ATOM     11  CD  ARG A   2      63.419  61.824  53.482  0.00  0.00    +0.000 C 
ATOM     12  NE  ARG A   2      63.705  61.144  53.111  0.00  0.00    +0.000 NA
ATOM     13  CZ  ARG A   2      63.964  60.506  53.563  0.00  0.00    +0.000 C 
ATOM     14  NH1 ARG A   2      64.251  59.826  53.192  0.00  0.00    +0.000 NA
ATOM     15  NH2 ARG A   2      63.937  60.545  54.387  0.00  0.00    +0.000 NA
ATOM     16  N   ARG A   2      62.640  63.741  52.124  0.00  0.00    +0.000 NA
ATOM     17  C   ASN A   1      62.381  64.380  51.672  0.00  0.00    +0.000 C 
ATOM     18  O   ASN A   1      62.095  65.059  52.043  0.00  0.00    +0.000 OA
ATOM     19  CA  ASN A   1      62.408  64.341  50.849  0.00  0.00    +0.000 C 
ATOM     20  N   ASN A   1      62.694  63.662  50.477  0.00  0.00    +0.000 NA
ATOM     21  CB  ASN A   1      62.149  64.980  50.396  0.00  0.00    +0.000 C 
ATOM     22  CG  ASN A   1      62.175  64.940  49.572  0.00  0.00    +0.000 C 
ATOM     23  ND2 ASN A   1      61.916  65.580  49.120  0.00  0.00    +0.000 NA
ATOM     24  OD1 ASN A   1      62.461  64.262  49.201  0.00  0.00    +0.000 OA
ATOM     25  C   VAL A   3      61.522  66.418  52.785  0.00  0.00    +0.000 C 
ATOM     26  O   VAL A   3      61.549  66.378  51.961  0.00  0.00    +0.000 OA
ATOM     27  N   TYR A   4      61.236  67.096  53.156  0.00  0.00    +0.000 NA
ATOM     28  CA  TYR A   4      60.976  67.736  52.704  0.00  0.00    +0.000 C 
ATOM     29  CB  TYR A   4      61.004  67.696  51.880  0.00  0.00    +0.000 C 
ATOM     30  CG  TYR A   4      60.744  68.335  51.428  0.00  0.00    +0.000 A 
ATOM     31  CD1 TYR A   4      60.771  68.296  50.605  0.00  0.00    +0.000 A 
ATOM     32  CE1 TYR A   4      60.511  68.935  50.152  0.00  0.00    +0.000 A 
ATOM     33  CZ  TYR A   4      60.225  69.614  50.524  0.00  0.00    +0.000 A 
ATOM     34  OH  TYR A   4      59.966  70.253  50.071  0.00  0.00    +0.000 OA
ATOM     35  CE2 TYR A   4      60.198  69.653  51.347  0.00  0.00    +0.000 A 
ATOM     36  CD2 TYR A   4      60.458  69.014  51.799  0.00  0.00    +0.000 A 
ATOM     37  C   TYR A   4      60.690  68.414  53.075  0.00  0.00    +0.000 C 
ATOM     38  O   TYR A   4      60.664  68.454  53.899  0.00  0.00    +0.000 OA
ATOM     39  N   VAL A   5      60.431  69.054  52.623  0.00  0.00    +0.000 NA
ATOM     40  CA  VAL A   5      60.145  69.733  52.994  0.00  0.00    +0.000 C 
ATOM     41  CB  VAL A   5      60.118  69.772  53.818  0.00  0.00    +0.000 C 
ATOM     42  CG1 VAL A   5      59.832  70.451  54.188  0.00  0.00    +0.000 C 
ATOM     43  CG2 VAL A   5      60.378  69.132  54.270  0.00  0.00    +0.000 C 
ATOM     44  C   VAL A   5      59.885  70.372  52.541  0.00  0.00    +0.000 C 
ATOM     45  O   VAL A   5      59.912  70.332  51.717  0.00  0.00    +0.000 OA
ATOM     46  N   HIS A   6      59.599  71.051  52.913  0.00  0.00    +0.000 NA
ATOM     47  CA  HIS A   6      59.340  71.690  52.460  0.00  0.00    +0.000 C 
ATOM     48  CB  HIS A   6      59.463  71.417  51.692  0.00  0.00    +0.000 C 
ATOM     49  CG  HIS A   6      59.272  71.896  51.048  0.00  0.00    +0.000 A 
ATOM     50  CD2 HIS A   6      59.363  71.700  50.252  0.00  0.00    +0.000 A 
ATOM     51  NE2 HIS A   6      59.104  72.338  49.800  0.00  0.00    +0.000 NA
ATOM     52  CE1 HIS A   6      58.852  72.931  50.316  0.00  0.00    +0.000 A 
ATOM     53  ND1 HIS A   6      58.956  72.658  51.088  0.00  0.00    +0.000 NA
ATOM     54  C   HIS A   6      59.053  72.369  52.832  0.00  0.00    +0.000 C 
ATOM     55  O   HIS A   6      59.027  72.408  53.655  0.00  0.00    +0.000 OA
ATOM     56  N   PRO A   7      58.794  73.008  52.379  0.00  0.00    +0.000 N 
ATOM     57  CD  PRO A   7      58.788  73.048  51.555  0.00  0.00    +0.000 C 
ATOM     58  CG  PRO A   7      58.485  73.785  51.338  0.00  0.00    +0.000 C 
ATOM     59  CB  PRO A   7      58.304  74.199  52.028  0.00  0.00    +0.000 C 
ATOM     60  CA  PRO A   7      58.495  73.720  52.671  0.00  0.00    +0.000 C 
ATOM     61  C   PRO A   7      58.404  73.916  53.467  0.00  0.00    +0.000 C 
ATOM     62  O   PRO A   7      58.620  73.378  54.053  0.00  0.00    +0.000 OA
ATOM     63  N   PHE A   8      58.096  74.653  53.677  0.00  0.00    +0.000 NA
ATOM     64  CA  PHE A   8      58.004  74.850  54.473  0.00  0.00    +0.000 C 
ATOM     65  CB  PHE A   8      58.220  74.311  55.058  0.00  0.00    +0.000 C 
ATOM     66  CG  PHE A   8      58.128  74.508  55.855  0.00  0.00    +0.000 A 
ATOM     67  CD1 PHE A   8      57.820  75.244  56.064  0.00  0.00    +0.000 A 
ATOM     68  CE1 PHE A   8      57.729  75.441  56.861  0.00  0.00    +0.000 A 
ATOM     69  CZ  PHE A   8      57.945  74.901  57.447  0.00  0.00    +0.000 A 
ATOM     70  CE2 PHE A   8      58.253  74.166  57.236  0.00  0.00    +0.000 A 
ATOM     71  CD2 PHE A   8      58.345  73.968  56.441  0.00  0.00    +0.000 A 
ATOM     72  C   PHE A   8      57.696  75.586  54.683  0.00  0.00    +0.000 C 
ATOM     73  O   PHE A   8      57.480  76.124  54.097  0.00  0.00    +0.000 OA
ATOM     74  OXT PHE A   8      57.604  75.783  55.478  0.00  0.00    +0.000 OA
ENDROOT
TORSDOF 0
ENDMDL
MODEL 4
REMARK VINA RESULT:   -18.031      2.215      4.685
REMARK INTER + INTRA:         -18.031
REMARK INTER:                 -18.031
REMARK INTRA:                   0.000
REMARK UNBOUND:                 0.000
ROOT
REMARK  Name = angiotensinamide
REMARK                            x       y       z     vdW  Elec       q    Type
REMARK                         _______ _______ _______ _____ _____    ______ ____
ATOM      1  CG1 VAL A   3      60.127  69.506  54.645  0.00  0.00    +0.000 C 
ATOM      2  CB  VAL A   3      59.821  70.267  54.559  0.00  0.00    +0.000 C 
ATOM      3  CG2 VAL A   3      59.588  70.695  55.226  0.00  0.00    +0.000 C 
ATOM      4  CA  VAL A   3      59.747  70.600  53.808  0.00  0.00    +0.000 C 
ATOM      5  N   VAL A   3      59.441  71.361  53.723  0.00  0.00    +0.000 NA
ATOM      6  C   ARG A   2      59.209  71.789  54.389  0.00  0.00    +0.000 C 
ATOM      7  O   ARG A   2      59.282  71.456  55.140  0.00  0.00    +0.000 OA
ATOM      8  CA  ARG A   2      58.902  72.550  54.303  0.00  0.00    +0.000 C 
ATOM      9  CB  ARG A   2      58.670  72.978  54.969  0.00  0.00    +0.000 C 
ATOM     10  CG  ARG A   2      58.363  73.740  54.883  0.00  0.00    +0.000 C 
ATOM     11  CD  ARG A   2      58.131  74.168  55.550  0.00  0.00    +0.000 C 
ATOM     12  NE  ARG A   2      57.824  74.930  55.464  0.00  0.00    +0.000 NA
ATOM     13  CZ  ARG A   2      57.592  75.357  56.130  0.00  0.00    +0.000 C 
ATOM     14  NH1 ARG A   2      57.285  76.119  56.044  0.00  0.00    +0.000 NA
ATOM     15  NH2 ARG A   2      57.665  75.024  56.881  0.00  0.00    +0.000 NA
ATOM     16  N   ARG A   2      58.828  72.884  53.552  0.00  0.00    +0.000 NA
ATOM     17  C   ASN A   1      59.061  72.455  52.886  0.00  0.00    +0.000 C 
ATOM     18  O   ASN A   1      59.367  71.694  52.972  0.00  0.00    +0.000 OA
ATOM     19  CA  ASN A   1      58.988  72.788  52.135  0.00  0.00    +0.000 C 
ATOM     20  N   ASN A   1      58.681  73.550  52.049  0.00  0.00    +0.000 NA
ATOM     21  CB  ASN A   1      59.220  72.361  51.470  0.00  0.00    +0.000 C 
ATOM     22  CG  ASN A   1      59.146  72.693  50.718  0.00  0.00    +0.000 C 
ATOM     23  ND2 ASN A   1      59.379  72.265  50.053  0.00  0.00    +0.000 NA
ATOM     24  OD1 ASN A   1      58.840  73.454  50.633  0.00  0.00    +0.000 OA
ATOM     25  C   VAL A   3      59.980  70.171  53.142  0.00  0.00    +0.000 C 
ATOM     26  O   VAL A   3      59.906  70.505  52.391  0.00  0.00    +0.000 OA
ATOM     27  N   TYR A   4      60.286  69.410  53.228  0.00  0.00    +0.000 NA
ATOM     28  CA  TYR A   4      60.519  68.982  52.562  0.00  0.00    +0.000 C 
ATOM     29  CB  TYR A   4      60.445  69.315  51.811  0.00  0.00    +0.000 C 
ATOM     30  CG  TYR A   4      60.678  68.887  51.145  0.00  0.00    +0.000 A 
ATOM     31  CD1 TYR A   4      60.604  69.220  50.394  0.00  0.00    +0.000 A 
ATOM     32  CE1 TYR A   4      60.837  68.792  49.729  0.00  0.00    +0.000 A 
ATOM     33  CZ  TYR A   4      61.143  68.031  49.814  0.00  0.00    +0.000 A 
ATOM     34  OH  TYR A   4      61.376  67.602  49.149  0.00  0.00    +0.000 OA
ATOM     35  CE2 TYR A   4      61.217  67.698  50.565  0.00  0.00    +0.000 A 
ATOM     36  CD2 TYR A   4      60.984  68.126  51.231  0.00  0.00    +0.000 A 
ATOM     37  C   TYR A   4      60.825  68.221  52.648  0.00  0.00    +0.000 C 
ATOM     38  O   TYR A   4      60.899  67.888  53.399  0.00  0.00    +0.000 OA
ATOM     39  N   VAL A   5      61.058  67.792  51.982  0.00  0.00    +0.000 NA
ATOM     40  CA  VAL A   5      61.364  67.031  52.067  0.00  0.00    +0.000 C 
ATOM     41  CB  VAL A   5      61.438  66.699  52.819  0.00  0.00    +0.000 C 
ATOM     42  CG1 VAL A   5      61.744  65.938  52.904  0.00  0.00    +0.000 C 
ATOM     43  CG2 VAL A   5      61.205  67.127  53.485  0.00  0.00    +0.000 C 
ATOM     44  C   VAL A   5      61.597  66.603  51.401  0.00  0.00    +0.000 C 
ATOM     45  O   VAL A   5      61.523  66.937  50.650  0.00  0.00    +0.000 OA
ATOM     46  N   HIS A   6      61.903  65.842  51.487  0.00  0.00    +0.000 NA
ATOM     47  CA  HIS A   6      62.136  65.414  50.821  0.00  0.00    +0.000 C 
ATOM     48  CB  HIS A   6      61.969  65.943  50.211  0.00  0.00    +0.000 C 
ATOM     49  CG  HIS A   6      62.123  65.731  49.428  0.00  0.00    +0.000 A 
ATOM     50  CD2 HIS A   6      61.986  66.199  48.763  0.00  0.00    +0.000 A 
ATOM     51  NE2 HIS A   6      62.219  65.772  48.098  0.00  0.00    +0.000 NA
ATOM     52  CE1 HIS A   6      62.499  65.038  48.351  0.00  0.00    +0.000 A 
ATOM     53  ND1 HIS A   6      62.440  65.013  49.174  0.00  0.00    +0.000 NA
ATOM     54  C   HIS A   6      62.442  64.653  50.907  0.00  0.00    +0.000 C 
ATOM     55  O   HIS A   6      62.515  64.320  51.658  0.00  0.00    +0.000 OA
ATOM     56  N   PRO A   7      62.675  64.224  50.241  0.00  0.00    +0.000 N 
ATOM     57  CD  PRO A   7      62.634  64.484  49.459  0.00  0.00    +0.000 C 
ATOM     58  CG  PRO A   7      62.923  63.881  48.975  0.00  0.00    +0.000 C 
ATOM     59  CB  PRO A   7      63.142  63.250  49.458  0.00  0.00    +0.000 C 
ATOM     60  CA  PRO A   7      62.989  63.461  50.240  0.00  0.00    +0.000 C 
ATOM     61  C   PRO A   7      63.125  62.993  50.906  0.00  0.00    +0.000 C 
ATOM     62  O   PRO A   7      62.944  63.280  51.658  0.00  0.00    +0.000 OA
ATOM     63  N   PHE A   8      63.444  62.237  50.819  0.00  0.00    +0.000 NA
ATOM     64  CA  PHE A   8      63.581  61.768  51.484  0.00  0.00    +0.000 C 
ATOM     65  CB  PHE A   8      63.399  62.056  52.235  0.00  0.00    +0.000 C 
ATOM     66  CG  PHE A   8      63.536  61.587  52.901  0.00  0.00    +0.000 A 
ATOM     67  CD1 PHE A   8      63.854  60.831  52.814  0.00  0.00    +0.000 A 
ATOM     68  CE1 PHE A   8      63.991  60.362  53.480  0.00  0.00    +0.000 A 
ATOM     69  CZ  PHE A   8      63.809  60.650  54.232  0.00  0.00    +0.000 A 
ATOM     70  CE2 PHE A   8      63.491  61.406  54.317  0.00  0.00    +0.000 A 
ATOM     71  CD2 PHE A   8      63.354  61.875  53.653  0.00  0.00    +0.000 A 
ATOM     72  C   PHE A   8      63.900  61.012  51.398  0.00  0.00    +0.000 C 
ATOM     73  O   PHE A   8      64.081  60.725  50.646  0.00  0.00    +0.000 OA
ATOM     74  OXT PHE A   8      64.037  60.543  52.063  0.00  0.00    +0.000 OA
ENDROOT
TORSDOF 0
ENDMDL
MODEL 5
REMARK VINA RESULT:   -17.726      2.360     10.563
REMARK INTER + INTRA:         -17.726
REMARK INTER:                 -17.726
REMARK INTRA:                   0.000
REMARK UNBOUND:                 0.000
ROOT
REMARK  Name = angiotensinamide
REMARK                            x       y       z     vdW  Elec       q    Type
REMARK                         _______ _______ _______ _____ _____    ______ ____
ATOM      1  CG1 VAL A   3      61.604  65.144  53.940  0.00  0.00    +0.000 C 
ATOM      2  CB  VAL A   3      61.906  64.426  53.671  0.00  0.00    +0.000 C 
ATOM      3  CG2 VAL A   3      62.057  63.815  54.206  0.00  0.00    +0.000 C 
ATOM      4  CA  VAL A   3      62.057  64.317  52.867  0.00  0.00    +0.000 C 
ATOM      5  N   VAL A   3      62.360  63.598  52.599  0.00  0.00    +0.000 NA
ATOM      6  C   ARG A   2      62.511  62.988  53.133  0.00  0.00    +0.000 C 
ATOM      7  O   ARG A   2      62.359  63.096  53.937  0.00  0.00    +0.000 OA
ATOM      8  CA  ARG A   2      62.813  62.269  52.864  0.00  0.00    +0.000 C 
ATOM      9  CB  ARG A   2      62.964  61.659  53.398  0.00  0.00    +0.000 C 
ATOM     10  CG  ARG A   2      63.266  60.939  53.129  0.00  0.00    +0.000 C 
ATOM     11  CD  ARG A   2      63.417  60.330  53.665  0.00  0.00    +0.000 C 
ATOM     12  NE  ARG A   2      63.719  59.610  53.395  0.00  0.00    +0.000 NA
ATOM     13  CZ  ARG A   2      63.870  59.001  53.930  0.00  0.00    +0.000 C 
ATOM     14  NH1 ARG A   2      64.172  58.281  53.660  0.00  0.00    +0.000 NA
ATOM     15  NH2 ARG A   2      63.719  59.110  54.733  0.00  0.00    +0.000 NA
ATOM     16  N   ARG A   2      62.964  62.160  52.060  0.00  0.00    +0.000 NA
ATOM     17  C   ASN A   1      62.813  62.770  51.526  0.00  0.00    +0.000 C 
ATOM     18  O   ASN A   1      62.511  63.488  51.795  0.00  0.00    +0.000 OA
ATOM     19  CA  ASN A   1      62.964  62.661  50.722  0.00  0.00    +0.000 C 
ATOM     20  N   ASN A   1      63.267  61.941  50.453  0.00  0.00    +0.000 NA
ATOM     21  CB  ASN A   1      62.814  63.270  50.188  0.00  0.00    +0.000 C 
ATOM     22  CG  ASN A   1      62.965  63.162  49.384  0.00  0.00    +0.000 C 
ATOM     23  ND2 ASN A   1      62.814  63.772  48.850  0.00  0.00    +0.000 NA
ATOM     24  OD1 ASN A   1      63.267  62.443  49.115  0.00  0.00    +0.000 OA
ATOM     25  C   VAL A   3      61.906  64.927  52.333  0.00  0.00    +0.000 C 
ATOM     26  O   VAL A   3      62.058  64.818  51.529  0.00  0.00    +0.000 OA
ATOM     27  N   TYR A   4      61.604  65.646  52.602  0.00  0.00    +0.000 NA
ATOM     28  CA  TYR A   4      61.453  66.256  52.068  0.00  0.00    +0.000 C 
ATOM     29  CB  TYR A   4      61.605  66.146  51.264  0.00  0.00    +0.000 C 
ATOM     30  CG  TYR A   4      61.454  66.756  50.729  0.00  0.00    +0.000 A 
ATOM     31  CD1 TYR A   4      61.605  66.648  49.926  0.00  0.00    +0.000 A 
ATOM     32  CE1 TYR A   4      61.454  67.258  49.391  0.00  0.00    +0.000 A 
ATOM     33  CZ  TYR A   4      61.152  67.977  49.661  0.00  0.00    +0.000 A 
ATOM     34  OH  TYR A   4      61.001  68.587  49.126  0.00  0.00    +0.000 OA
ATOM     35  CE2 TYR A   4      61.001  68.085  50.464  0.00  0.00    +0.000 A 
ATOM     36  CD2 TYR A   4      61.152  67.475  50.999  0.00  0.00    +0.000 A 
ATOM     37  C   TYR A   4      61.151  66.975  52.337  0.00  0.00    +0.000 C 
ATOM     38  O   TYR A   4      61.000  67.083  53.140  0.00  0.00    +0.000 OA
ATOM     39  N   VAL A   5      61.000  67.585  51.802  0.00  0.00    +0.000 NA
ATOM     40  CA  VAL A   5      60.698  68.304  52.071  0.00  0.00    +0.000 C 
ATOM     41  CB  VAL A   5      60.547  68.412  52.875  0.00  0.00    +0.000 C 
ATOM     42  CG1 VAL A   5      60.245  69.131  53.143  0.00  0.00    +0.000 C 
ATOM     43  CG2 VAL A   5      60.698  67.802  53.410  0.00  0.00    +0.000 C 
ATOM     44  C   VAL A   5      60.547  68.914  51.536  0.00  0.00    +0.000 C 
ATOM     45  O   VAL A   5      60.699  68.804  50.732  0.00  0.00    +0.000 OA
ATOM     46  N   HIS A   6      60.245  69.632  51.805  0.00  0.00    +0.000 NA
ATOM     47  CA  HIS A   6      60.094  70.243  51.271  0.00  0.00    +0.000 C 
ATOM     48  CB  HIS A   6      60.319  69.901  50.555  0.00  0.00    +0.000 C 
ATOM     49  CG  HIS A   6      60.257  70.334  49.854  0.00  0.00    +0.000 A 
ATOM     50  CD2 HIS A   6      60.459  70.068  49.100  0.00  0.00    +0.000 A 
ATOM     51  NE2 HIS A   6      60.308  70.677  48.566  0.00  0.00    +0.000 NA
ATOM     52  CE1 HIS A   6      60.012  71.321  48.989  0.00  0.00    +0.000 A 
ATOM     53  ND1 HIS A   6      59.980  71.108  49.786  0.00  0.00    +0.000 NA
ATOM     54  C   HIS A   6      59.792  70.961  51.540  0.00  0.00    +0.000 C 
ATOM     55  O   HIS A   6      59.641  71.070  52.344  0.00  0.00    +0.000 OA
ATOM     56  N   PRO A   7      59.641  71.571  51.006  0.00  0.00    +0.000 N 
ATOM     57  CD  PRO A   7      59.764  71.543  50.190  0.00  0.00    +0.000 C 
ATOM     58  CG  PRO A   7      59.540  72.271  49.873  0.00  0.00    +0.000 C 
ATOM     59  CB  PRO A   7      59.278  72.749  50.493  0.00  0.00    +0.000 C 
ATOM     60  CA  PRO A   7      59.341  72.317  51.192  0.00  0.00    +0.000 C 
ATOM     61  C   PRO A   7      59.138  72.582  51.947  0.00  0.00    +0.000 C 
ATOM     62  O   PRO A   7      59.231  72.085  52.599  0.00  0.00    +0.000 OA
ATOM     63  N   PHE A   8      58.843  73.346  52.049  0.00  0.00    +0.000 NA
ATOM     64  CA  PHE A   8      58.640  73.613  52.803  0.00  0.00    +0.000 C 
ATOM     65  CB  PHE A   8      58.734  73.115  53.455  0.00  0.00    +0.000 C 
ATOM     66  CG  PHE A   8      58.531  73.381  54.210  0.00  0.00    +0.000 A 
ATOM     67  CD1 PHE A   8      58.236  74.144  54.312  0.00  0.00    +0.000 A 
ATOM     68  CE1 PHE A   8      58.033  74.411  55.067  0.00  0.00    +0.000 A 
ATOM     69  CZ  PHE A   8      58.127  73.913  55.718  0.00  0.00    +0.000 A 
ATOM     70  CE2 PHE A   8      58.422  73.150  55.615  0.00  0.00    +0.000 A 
ATOM     71  CD2 PHE A   8      58.624  72.884  54.861  0.00  0.00    +0.000 A 
ATOM     72  C   PHE A   8      58.345  74.376  52.906  0.00  0.00    +0.000 C 
ATOM     73  O   PHE A   8      58.252  74.872  52.254  0.00  0.00    +0.000 OA
ATOM     74  OXT PHE A   8      58.142  74.642  53.660  0.00  0.00    +0.000 OA
ENDROOT
TORSDOF 0
ENDMDL
MODEL 6
REMARK VINA RESULT:   -16.895      1.823      3.747
REMARK INTER + INTRA:         -16.895
REMARK INTER:                 -16.895
REMARK INTRA:                   0.000
REMARK UNBOUND:                 0.000
ROOT
REMARK  Name = angiotensinamide
REMARK                            x       y       z     vdW  Elec       q    Type
REMARK                         _______ _______ _______ _____ _____    ______ ____
ATOM      1  CG1 VAL A   3      60.723  68.222  54.381  0.00  0.00    +0.000 C 
ATOM      2  CB  VAL A   3      60.464  68.993  54.243  0.00  0.00    +0.000 C 
ATOM      3  CG2 VAL A   3      60.297  69.492  54.880  0.00  0.00    +0.000 C 
ATOM      4  CA  VAL A   3      60.371  69.265  53.470  0.00  0.00    +0.000 C 
ATOM      5  N   VAL A   3      60.111  70.035  53.333  0.00  0.00    +0.000 NA
ATOM      6  C   ARG A   2      59.944  70.534  53.969  0.00  0.00    +0.000 C 
ATOM      7  O   ARG A   2      60.037  70.263  54.742  0.00  0.00    +0.000 OA
ATOM      8  CA  ARG A   2      59.685  71.305  53.831  0.00  0.00    +0.000 C 
ATOM      9  CB  ARG A   2      59.518  71.804  54.466  0.00  0.00    +0.000 C 
ATOM     10  CG  ARG A   2      59.258  72.576  54.328  0.00  0.00    +0.000 C 
ATOM     11  CD  ARG A   2      59.092  73.074  54.965  0.00  0.00    +0.000 C 
ATOM     12  NE  ARG A   2      58.832  73.845  54.827  0.00  0.00    +0.000 NA
ATOM     13  CZ  ARG A   2      58.666  74.343  55.462  0.00  0.00    +0.000 C 
ATOM     14  NH1 ARG A   2      58.406  75.115  55.324  0.00  0.00    +0.000 NA
ATOM     15  NH2 ARG A   2      58.759  74.072  56.236  0.00  0.00    +0.000 NA
ATOM     16  N   ARG A   2      59.592  71.578  53.057  0.00  0.00    +0.000 NA
ATOM     17  C   ASN A   1      59.759  71.079  52.422  0.00  0.00    +0.000 C 
ATOM     18  O   ASN A   1      60.018  70.308  52.560  0.00  0.00    +0.000 OA
ATOM     19  CA  ASN A   1      59.666  71.350  51.649  0.00  0.00    +0.000 C 
ATOM     20  N   ASN A   1      59.406  72.122  51.511  0.00  0.00    +0.000 NA
ATOM     21  CB  ASN A   1      59.832  70.852  51.013  0.00  0.00    +0.000 C 
ATOM     22  CG  ASN A   1      59.739  71.124  50.240  0.00  0.00    +0.000 C 
ATOM     23  ND2 ASN A   1      59.906  70.625  49.604  0.00  0.00    +0.000 NA
ATOM     24  OD1 ASN A   1      59.480  71.895  50.102  0.00  0.00    +0.000 OA
ATOM     25  C   VAL A   3      60.537  68.766  52.835  0.00  0.00    +0.000 C 
ATOM     26  O   VAL A   3      60.444  69.038  52.061  0.00  0.00    +0.000 OA
ATOM     27  N   TYR A   4      60.797  67.995  52.972  0.00  0.00    +0.000 NA
ATOM     28  CA  TYR A   4      60.964  67.496  52.337  0.00  0.00    +0.000 C 
ATOM     29  CB  TYR A   4      60.871  67.768  51.564  0.00  0.00    +0.000 C 
ATOM     30  CG  TYR A   4      61.037  67.269  50.928  0.00  0.00    +0.000 A 
ATOM     31  CD1 TYR A   4      60.944  67.541  50.155  0.00  0.00    +0.000 A 
ATOM     32  CE1 TYR A   4      61.111  67.042  49.519  0.00  0.00    +0.000 A 
ATOM     33  CZ  TYR A   4      61.371  66.271  49.657  0.00  0.00    +0.000 A 
ATOM     34  OH  TYR A   4      61.537  65.772  49.022  0.00  0.00    +0.000 OA
ATOM     35  CE2 TYR A   4      61.463  66.000  50.431  0.00  0.00    +0.000 A 
ATOM     36  CD2 TYR A   4      61.297  66.499  51.066  0.00  0.00    +0.000 A 
ATOM     37  C   TYR A   4      61.223  66.725  52.475  0.00  0.00    +0.000 C 
ATOM     38  O   TYR A   4      61.316  66.454  53.248  0.00  0.00    +0.000 OA
ATOM     39  N   VAL A   5      61.390  66.226  51.839  0.00  0.00    +0.000 NA
ATOM     40  CA  VAL A   5      61.649  65.455  51.976  0.00  0.00    +0.000 C 
ATOM     41  CB  VAL A   5      61.742  65.184  52.751  0.00  0.00    +0.000 C 
ATOM     42  CG1 VAL A   5      62.002  64.413  52.888  0.00  0.00    +0.000 C 
ATOM     43  CG2 VAL A   5      61.576  65.683  53.386  0.00  0.00    +0.000 C 
ATOM     44  C   VAL A   5      61.816  64.956  51.341  0.00  0.00    +0.000 C 
ATOM     45  O   VAL A   5      61.723  65.229  50.568  0.00  0.00    +0.000 OA
ATOM     46  N   HIS A   6      62.076  64.186  51.479  0.00  0.00    +0.000 NA
ATOM     47  CA  HIS A   6      62.242  63.687  50.843  0.00  0.00    +0.000 C 
ATOM     48  CB  HIS A   6      62.078  64.172  50.197  0.00  0.00    +0.000 C 
ATOM     49  CG  HIS A   6      62.173  63.884  49.429  0.00  0.00    +0.000 A 
ATOM     50  CD2 HIS A   6      62.032  64.302  48.733  0.00  0.00    +0.000 A 
ATOM     51  NE2 HIS A   6      62.198  63.804  48.098  0.00  0.00    +0.000 NA
ATOM     52  CE1 HIS A   6      62.443  63.076  48.401  0.00  0.00    +0.000 A 
ATOM     53  ND1 HIS A   6      62.428  63.126  49.225  0.00  0.00    +0.000 NA
ATOM     54  C   HIS A   6      62.502  62.916  50.981  0.00  0.00    +0.000 C 
ATOM     55  O   HIS A   6      62.595  62.644  51.755  0.00  0.00    +0.000 OA
ATOM     56  N   PRO A   7      62.669  62.417  50.346  0.00  0.00    +0.000 N 
ATOM     57  CD  PRO A   7      62.602  62.611  49.546  0.00  0.00    +0.000 C 
ATOM     58  CG  PRO A   7      62.823  61.950  49.104  0.00  0.00    +0.000 C 
ATOM     59  CB  PRO A   7      63.027  61.348  49.630  0.00  0.00    +0.000 C 
ATOM     60  CA  PRO A   7      62.931  61.636  50.397  0.00  0.00    +0.000 C 
ATOM     61  C   PRO A   7      63.073  61.219  51.094  0.00  0.00    +0.000 C 
ATOM     62  O   PRO A   7      62.953  61.581  51.826  0.00  0.00    +0.000 OA
ATOM     63  N   PHE A   8      63.336  60.437  51.060  0.00  0.00    +0.000 NA
ATOM     64  CA  PHE A   8      63.478  60.018  51.756  0.00  0.00    +0.000 C 
ATOM     65  CB  PHE A   8      63.357  60.381  52.487  0.00  0.00    +0.000 C 
ATOM     66  CG  PHE A   8      63.500  59.963  53.184  0.00  0.00    +0.000 A 
ATOM     67  CD1 PHE A   8      63.762  59.182  53.149  0.00  0.00    +0.000 A 
ATOM     68  CE1 PHE A   8      63.904  58.763  53.847  0.00  0.00    +0.000 A 
ATOM     69  CZ  PHE A   8      63.784  59.126  54.578  0.00  0.00    +0.000 A 
ATOM     70  CE2 PHE A   8      63.521  59.907  54.611  0.00  0.00    +0.000 A 
ATOM     71  CD2 PHE A   8      63.379  60.326  53.915  0.00  0.00    +0.000 A 
ATOM     72  C   PHE A   8      63.741  59.237  51.722  0.00  0.00    +0.000 C 
ATOM     73  O   PHE A   8      63.861  58.875  50.991  0.00  0.00    +0.000 OA
ATOM     74  OXT PHE A   8      63.883  58.818  52.418  0.00  0.00    +0.000 OA
ENDROOT
TORSDOF 0
ENDMDL
