MODEL 1
REMARK VINA RESULT:   -17.339      0.000      0.000
REMARK INTER + INTRA:         -17.339
REMARK INTER:                 -17.339
REMARK INTRA:                   0.000
REMARK UNBOUND:                 0.000
ROOT
REMARK  Name = anhydrovinblastine
REMARK                            x       y       z     vdW  Elec       q    Type
REMARK                         _______ _______ _______ _____ _____    ______ ____
ATOM      1  C   UNL     1      62.852  69.124  57.844  0.00  0.00    +0.000 C 
ATOM      2  C   UNL     1      62.763  68.400  57.458  0.00  0.00    +0.000 C 
ATOM      3  C   UNL     1      62.626  68.381  56.645  0.00  0.00    +0.000 C 
ATOM      4  C   UNL     1      62.529  67.651  56.208  0.00  0.00    +0.000 C 
ATOM      5  C   UNL     1      62.382  67.594  55.347  0.00  0.00    +0.000 C 
ATOM      6  C   UNL     1      62.390  68.346  55.252  0.00  0.00    +0.000 C 
ATOM      7  N   UNL     1      62.423  69.101  55.303  0.00  0.00    +0.000 NA
ATOM      8  C   UNL     1      62.568  69.086  56.165  0.00  0.00    +0.000 C 
ATOM      9  C   UNL     1      62.304  69.479  54.522  0.00  0.00    +0.000 C 
ATOM     10  C   UNL     1      62.159  69.351  53.683  0.00  0.00    +0.000 C 
ATOM     11  C   UNL     1      62.049  68.707  53.153  0.00  0.00    +0.000 C 
ATOM     12  C   UNL     1      62.026  67.883  53.178  0.00  0.00    +0.000 C 
ATOM     13  N   UNL     1      61.888  67.609  52.411  0.00  0.00    +0.000 NA
ATOM     14  C   UNL     1      61.826  68.264  51.914  0.00  0.00    +0.000 C 
ATOM     15  C   UNL     1      61.691  68.331  51.103  0.00  0.00    +0.000 C 
ATOM     16  C   UNL     1      61.656  69.075  50.749  0.00  0.00    +0.000 C 
ATOM     17  C   UNL     1      61.755  69.754  51.209  0.00  0.00    +0.000 C 
ATOM     18  C   UNL     1      61.889  69.687  52.019  0.00  0.00    +0.000 C 
ATOM     19  C   UNL     1      61.925  68.943  52.372  0.00  0.00    +0.000 C 
ATOM     20  C   UNL     1      62.102  67.263  53.745  0.00  0.00    +0.000 C 
ATOM     21  C   UNL     1      62.241  67.177  54.589  0.00  0.00    +0.000 C 
ATOM     22  C   UNL     1      61.977  66.760  53.103  0.00  0.00    +0.000 C 
ATOM     23  O   UNL     1      61.889  66.035  52.721  0.00  0.00    +0.000 OA
ATOM     24  O   UNL     1      61.860  67.074  52.349  0.00  0.00    +0.000 OA
ATOM     25  C   UNL     1      61.736  66.571  51.708  0.00  0.00    +0.000 C 
ATOM     26  C   UNL     1      62.074  66.439  53.740  0.00  0.00    +0.000 A 
ATOM     27  C   UNL     1      62.179  66.018  54.441  0.00  0.00    +0.000 A 
ATOM     28  O   UNL     1      62.311  66.422  55.149  0.00  0.00    +0.000 OA
ATOM     29  C   UNL     1      62.415  66.001  55.851  0.00  0.00    +0.000 C 
ATOM     30  C   UNL     1      62.151  65.193  54.436  0.00  0.00    +0.000 A 
ATOM     31  C   UNL     1      62.019  64.790  53.729  0.00  0.00    +0.000 A 
ATOM     32  N   UNL     1      61.964  63.985  53.554  0.00  0.00    +0.000 N 
ATOM     33  C   UNL     1      62.034  63.366  54.094  0.00  0.00    +0.000 C 
ATOM     34  C   UNL     1      61.825  63.910  52.745  0.00  0.00    +0.000 C 
ATOM     35  C   UNL     1      61.794  64.666  52.419  0.00  0.00    +0.000 C 
ATOM     36  C   UNL     1      61.875  65.416  52.754  0.00  0.00    +0.000 C 
ATOM     37  C   UNL     1      61.792  65.974  52.153  0.00  0.00    +0.000 C 
ATOM     38  N   UNL     1      61.631  65.520  51.285  0.00  0.00    +0.000 NA
ATOM     39  C   UNL     1      61.498  65.616  50.476  0.00  0.00    +0.000 C 
ATOM     40  C   UNL     1      61.395  64.955  49.994  0.00  0.00    +0.000 C 
ATOM     41  C   UNL     1      61.426  64.197  50.319  0.00  0.00    +0.000 C 
ATOM     42  C   UNL     1      61.559  64.101  51.128  0.00  0.00    +0.000 C 
ATOM     43  C   UNL     1      61.456  63.440  50.645  0.00  0.00    +0.000 C 
ATOM     44  C   UNL     1      61.323  63.536  49.837  0.00  0.00    +0.000 C 
ATOM     45  C   UNL     1      61.661  64.762  51.610  0.00  0.00    +0.000 C 
ATOM     46  C   UNL     1      61.589  63.345  51.454  0.00  0.00    +0.000 C 
ATOM     47  O   UNL     1      61.486  62.683  50.971  0.00  0.00    +0.000 OA
ATOM     48  C   UNL     1      61.354  62.780  50.163  0.00  0.00    +0.000 C 
ATOM     49  C   UNL     1      61.251  62.118  49.680  0.00  0.00    +0.000 C 
ATOM     50  O   UNL     1      61.249  63.200  49.461  0.00  0.00    +0.000 OA
ATOM     51  C   UNL     1      61.722  63.248  52.262  0.00  0.00    +0.000 C 
ATOM     52  O   UNL     1      61.813  62.732  52.900  0.00  0.00    +0.000 OA
ATOM     53  C   UNL     1      61.685  62.426  52.200  0.00  0.00    +0.000 C 
ATOM     54  O   UNL     1      61.550  62.074  51.466  0.00  0.00    +0.000 OA
ATOM     55  O   UNL     1      61.783  61.957  52.871  0.00  0.00    +0.000 OA
ATOM     56  C   UNL     1      61.746  61.135  52.809  0.00  0.00    +0.000 C 
ATOM     57  C   UNL     1      61.914  65.211  53.027  0.00  0.00    +0.000 A 
ATOM     58  C   UNL     1      61.942  66.036  53.032  0.00  0.00    +0.000 A 
ENDROOT
TORSDOF 0
ENDMDL
MODEL 2
REMARK VINA RESULT:   -17.095      1.125      5.404
REMARK INTER + INTRA:         -17.095
REMARK INTER:                 -17.095
REMARK INTRA:                   0.000
REMARK UNBOUND:                 0.000
ROOT
REMARK  Name = anhydrovinblastine
REMARK                            x       y       z     vdW  Elec       q    Type
REMARK                         _______ _______ _______ _____ _____    ______ ____
ATOM      1  C   UNL     1      61.527  60.253  52.092  0.00  0.00    +0.000 C 
ATOM      2  C   UNL     1      61.651  60.895  52.595  0.00  0.00    +0.000 C 
ATOM      3  C   UNL     1      61.615  61.664  52.298  0.00  0.00    +0.000 C 
ATOM      4  C   UNL     1      61.738  62.356  52.786  0.00  0.00    +0.000 C 
ATOM      5  C   UNL     1      61.706  63.185  52.504  0.00  0.00    +0.000 C 
ATOM      6  C   UNL     1      61.553  62.981  51.791  0.00  0.00    +0.000 C 
ATOM      7  N   UNL     1      61.405  62.640  51.130  0.00  0.00    +0.000 NA
ATOM      8  C   UNL     1      61.451  61.839  51.477  0.00  0.00    +0.000 C 
ATOM      9  C   UNL     1      61.292  63.224  50.487  0.00  0.00    +0.000 C 
ATOM     10  C   UNL     1      61.276  64.059  50.278  0.00  0.00    +0.000 C 
ATOM     11  C   UNL     1      61.377  64.806  50.653  0.00  0.00    +0.000 C 
ATOM     12  C   UNL     1      61.542  65.103  51.404  0.00  0.00    +0.000 C 
ATOM     13  N   UNL     1      61.558  65.926  51.355  0.00  0.00    +0.000 NA
ATOM     14  C   UNL     1      61.403  66.137  50.573  0.00  0.00    +0.000 C 
ATOM     15  C   UNL     1      61.350  66.871  50.199  0.00  0.00    +0.000 C 
ATOM     16  C   UNL     1      61.185  66.913  49.392  0.00  0.00    +0.000 C 
ATOM     17  C   UNL     1      61.073  66.219  48.958  0.00  0.00    +0.000 C 
ATOM     18  C   UNL     1      61.127  65.486  49.332  0.00  0.00    +0.000 C 
ATOM     19  C   UNL     1      61.292  65.445  50.139  0.00  0.00    +0.000 C 
ATOM     20  C   UNL     1      61.693  64.812  52.182  0.00  0.00    +0.000 C 
ATOM     21  C   UNL     1      61.751  64.056  52.586  0.00  0.00    +0.000 C 
ATOM     22  C   UNL     1      61.760  65.609  52.387  0.00  0.00    +0.000 C 
ATOM     23  O   UNL     1      61.885  66.249  52.892  0.00  0.00    +0.000 OA
ATOM     24  O   UNL     1      61.661  66.193  51.813  0.00  0.00    +0.000 OA
ATOM     25  C   UNL     1      61.729  66.989  52.017  0.00  0.00    +0.000 C 
ATOM     26  C   UNL     1      61.856  65.138  52.922  0.00  0.00    +0.000 A 
ATOM     27  C   UNL     1      61.974  64.645  53.573  0.00  0.00    +0.000 A 
ATOM     28  O   UNL     1      61.929  63.825  53.483  0.00  0.00    +0.000 OA
ATOM     29  C   UNL     1      62.047  63.332  54.133  0.00  0.00    +0.000 C 
ATOM     30  C   UNL     1      62.137  64.970  54.313  0.00  0.00    +0.000 A 
ATOM     31  C   UNL     1      62.182  65.788  54.403  0.00  0.00    +0.000 A 
ATOM     32  N   UNL     1      62.333  66.264  55.060  0.00  0.00    +0.000 N 
ATOM     33  C   UNL     1      62.482  66.000  55.826  0.00  0.00    +0.000 C 
ATOM     34  C   UNL     1      62.308  67.052  54.815  0.00  0.00    +0.000 C 
ATOM     35  C   UNL     1      62.141  67.063  54.008  0.00  0.00    +0.000 C 
ATOM     36  C   UNL     1      62.010  66.458  53.462  0.00  0.00    +0.000 C 
ATOM     37  C   UNL     1      61.869  66.803  52.727  0.00  0.00    +0.000 C 
ATOM     38  N   UNL     1      61.916  67.793  52.800  0.00  0.00    +0.000 NA
ATOM     39  C   UNL     1      61.857  68.513  52.400  0.00  0.00    +0.000 C 
ATOM     40  C   UNL     1      61.964  69.221  52.809  0.00  0.00    +0.000 C 
ATOM     41  C   UNL     1      62.130  69.211  53.617  0.00  0.00    +0.000 C 
ATOM     42  C   UNL     1      62.190  68.491  54.017  0.00  0.00    +0.000 C 
ATOM     43  C   UNL     1      62.297  69.200  54.426  0.00  0.00    +0.000 C 
ATOM     44  C   UNL     1      62.238  69.919  54.026  0.00  0.00    +0.000 C 
ATOM     45  C   UNL     1      62.082  67.783  53.608  0.00  0.00    +0.000 C 
ATOM     46  C   UNL     1      62.356  68.480  54.824  0.00  0.00    +0.000 C 
ATOM     47  O   UNL     1      62.463  69.189  55.233  0.00  0.00    +0.000 OA
ATOM     48  C   UNL     1      62.404  69.908  54.834  0.00  0.00    +0.000 C 
ATOM     49  C   UNL     1      62.511  70.617  55.242  0.00  0.00    +0.000 C 
ATOM     50  O   UNL     1      62.286  70.401  54.184  0.00  0.00    +0.000 OA
ATOM     51  C   UNL     1      62.415  67.761  55.224  0.00  0.00    +0.000 C 
ATOM     52  O   UNL     1      62.549  67.364  55.935  0.00  0.00    +0.000 OA
ATOM     53  C   UNL     1      62.575  68.138  55.940  0.00  0.00    +0.000 C 
ATOM     54  O   UNL     1      62.608  68.962  55.974  0.00  0.00    +0.000 OA
ATOM     55  O   UNL     1      62.701  67.692  56.623  0.00  0.00    +0.000 OA
ATOM     56  C   UNL     1      62.861  68.069  57.338  0.00  0.00    +0.000 C 
ATOM     57  C   UNL     1      62.064  66.282  53.752  0.00  0.00    +0.000 A 
ATOM     58  C   UNL     1      61.901  65.957  53.012  0.00  0.00    +0.000 A 
ENDROOT
TORSDOF 0
ENDMDL
MODEL 3
REMARK VINA RESULT:   -17.086      1.210      3.363
REMARK INTER + INTRA:         -17.086
REMARK INTER:                 -17.086
REMARK INTRA:                   0.000
REMARK UNBOUND:                 0.000
ROOT
REMARK  Name = anhydrovinblastine
REMARK                            x       y       z     vdW  Elec       q    Type
REMARK                         _______ _______ _______ _____ _____    ______ ____
ATOM      1  C   UNL     1      59.348  71.614  51.505  0.00  0.00    +0.000 C 
ATOM      2  C   UNL     1      59.452  70.809  51.356  0.00  0.00    +0.000 C 
ATOM      3  C   UNL     1      59.856  70.339  51.900  0.00  0.00    +0.000 C 
ATOM      4  C   UNL     1      59.985  69.501  51.783  0.00  0.00    +0.000 C 
ATOM      5  C   UNL     1      60.408  68.972  52.338  0.00  0.00    +0.000 C 
ATOM      6  C   UNL     1      60.548  69.531  52.831  0.00  0.00    +0.000 C 
ATOM      7  N   UNL     1      60.615  70.174  53.226  0.00  0.00    +0.000 NA
ATOM      8  C   UNL     1      60.182  70.644  52.629  0.00  0.00    +0.000 C 
ATOM      9  C   UNL     1      61.051  70.045  53.974  0.00  0.00    +0.000 C 
ATOM     10  C   UNL     1      61.454  69.471  54.473  0.00  0.00    +0.000 C 
ATOM     11  C   UNL     1      61.640  68.651  54.469  0.00  0.00    +0.000 C 
ATOM     12  C   UNL     1      61.527  67.995  53.983  0.00  0.00    +0.000 C 
ATOM     13  N   UNL     1      61.877  67.343  54.350  0.00  0.00    +0.000 NA
ATOM     14  C   UNL     1      62.205  67.598  55.062  0.00  0.00    +0.000 C 
ATOM     15  C   UNL     1      62.619  67.198  55.654  0.00  0.00    +0.000 C 
ATOM     16  C   UNL     1      62.886  67.606  56.319  0.00  0.00    +0.000 C 
ATOM     17  C   UNL     1      62.740  68.415  56.392  0.00  0.00    +0.000 C 
ATOM     18  C   UNL     1      62.327  68.814  55.801  0.00  0.00    +0.000 C 
ATOM     19  C   UNL     1      62.059  68.406  55.136  0.00  0.00    +0.000 C 
ATOM     20  C   UNL     1      61.168  67.808  53.243  0.00  0.00    +0.000 C 
ATOM     21  C   UNL     1      60.736  68.210  52.618  0.00  0.00    +0.000 C 
ATOM     22  C   UNL     1      61.427  67.039  53.395  0.00  0.00    +0.000 C 
ATOM     23  O   UNL     1      61.529  66.235  53.243  0.00  0.00    +0.000 OA
ATOM     24  O   UNL     1      61.842  66.872  54.088  0.00  0.00    +0.000 OA
ATOM     25  C   UNL     1      62.101  66.104  54.239  0.00  0.00    +0.000 C 
ATOM     26  C   UNL     1      61.070  67.134  52.777  0.00  0.00    +0.000 A 
ATOM     27  C   UNL     1      60.668  67.184  52.059  0.00  0.00    +0.000 A 
ATOM     28  O   UNL     1      60.364  67.908  51.806  0.00  0.00    +0.000 OA
ATOM     29  C   UNL     1      59.961  67.958  51.087  0.00  0.00    +0.000 C 
ATOM     30  C   UNL     1      60.569  66.510  51.593  0.00  0.00    +0.000 A 
ATOM     31  C   UNL     1      60.873  65.786  51.846  0.00  0.00    +0.000 A 
ATOM     32  N   UNL     1      60.862  65.034  51.507  0.00  0.00    +0.000 N 
ATOM     33  C   UNL     1      60.516  64.832  50.786  0.00  0.00    +0.000 C 
ATOM     34  C   UNL     1      61.257  64.519  52.017  0.00  0.00    +0.000 C 
ATOM     35  C   UNL     1      61.513  64.952  52.670  0.00  0.00    +0.000 C 
ATOM     36  C   UNL     1      61.437  65.750  52.867  0.00  0.00    +0.000 C 
ATOM     37  C   UNL     1      61.806  65.868  53.595  0.00  0.00    +0.000 C 
ATOM     38  N   UNL     1      62.184  65.013  53.930  0.00  0.00    +0.000 NA
ATOM     39  C   UNL     1      62.600  64.638  54.537  0.00  0.00    +0.000 C 
ATOM     40  C   UNL     1      62.760  63.831  54.489  0.00  0.00    +0.000 C 
ATOM     41  C   UNL     1      62.505  63.396  53.836  0.00  0.00    +0.000 C 
ATOM     42  C   UNL     1      62.089  63.770  53.229  0.00  0.00    +0.000 C 
ATOM     43  C   UNL     1      62.249  62.962  53.182  0.00  0.00    +0.000 C 
ATOM     44  C   UNL     1      62.665  62.589  53.788  0.00  0.00    +0.000 C 
ATOM     45  C   UNL     1      61.929  64.578  53.276  0.00  0.00    +0.000 C 
ATOM     46  C   UNL     1      61.833  63.337  52.576  0.00  0.00    +0.000 C 
ATOM     47  O   UNL     1      61.994  62.529  52.529  0.00  0.00    +0.000 OA
ATOM     48  C   UNL     1      62.409  62.155  53.135  0.00  0.00    +0.000 C 
ATOM     49  C   UNL     1      62.569  61.347  53.088  0.00  0.00    +0.000 C 
ATOM     50  O   UNL     1      62.811  62.105  53.853  0.00  0.00    +0.000 OA
ATOM     51  C   UNL     1      61.418  63.711  51.970  0.00  0.00    +0.000 C 
ATOM     52  O   UNL     1      61.035  63.648  51.240  0.00  0.00    +0.000 OA
ATOM     53  C   UNL     1      61.348  63.008  51.543  0.00  0.00    +0.000 C 
ATOM     54  O   UNL     1      61.671  62.310  51.844  0.00  0.00    +0.000 OA
ATOM     55  O   UNL     1      60.955  63.001  50.818  0.00  0.00    +0.000 OA
ATOM     56  C   UNL     1      60.885  62.298  50.393  0.00  0.00    +0.000 C 
ATOM     57  C   UNL     1      61.276  65.736  52.565  0.00  0.00    +0.000 A 
ATOM     58  C   UNL     1      61.374  66.410  53.031  0.00  0.00    +0.000 A 
ENDROOT
TORSDOF 0
ENDMDL
MODEL 4
REMARK VINA RESULT:   -16.635      1.750      4.383
REMARK INTER + INTRA:         -16.635
REMARK INTER:                 -16.635
REMARK INTRA:                   0.000
REMARK UNBOUND:                 0.000
ROOT
REMARK  Name = anhydrovinblastine
REMARK                            x       y       z     vdW  Elec       q    Type
REMARK                         _______ _______ _______ _____ _____    ______ ____
ATOM      1  C   UNL     1      61.112  68.591  48.715  0.00  0.00    +0.000 C 
ATOM      2  C   UNL     1      61.343  67.801  48.770  0.00  0.00    +0.000 C 
ATOM      3  C   UNL     1      61.449  67.454  49.511  0.00  0.00    +0.000 C 
ATOM      4  C   UNL     1      61.689  66.639  49.612  0.00  0.00    +0.000 C 
ATOM      5  C   UNL     1      61.810  66.239  50.381  0.00  0.00    +0.000 C 
ATOM      6  C   UNL     1      61.630  66.858  50.780  0.00  0.00    +0.000 C 
ATOM      7  N   UNL     1      61.432  67.540  51.045  0.00  0.00    +0.000 NA
ATOM      8  C   UNL     1      61.329  67.876  50.245  0.00  0.00    +0.000 C 
ATOM      9  C   UNL     1      61.432  67.554  51.921  0.00  0.00    +0.000 C 
ATOM     10  C   UNL     1      61.568  67.101  52.640  0.00  0.00    +0.000 C 
ATOM     11  C   UNL     1      61.798  66.322  52.862  0.00  0.00    +0.000 C 
ATOM     12  C   UNL     1      62.004  65.612  52.499  0.00  0.00    +0.000 C 
ATOM     13  N   UNL     1      62.169  65.061  53.091  0.00  0.00    +0.000 NA
ATOM     14  C   UNL     1      62.064  65.432  53.820  0.00  0.00    +0.000 C 
ATOM     15  C   UNL     1      62.147  65.161  54.595  0.00  0.00    +0.000 C 
ATOM     16  C   UNL     1      62.001  65.668  55.228  0.00  0.00    +0.000 C 
ATOM     17  C   UNL     1      61.772  66.449  55.086  0.00  0.00    +0.000 C 
ATOM     18  C   UNL     1      61.688  66.719  54.312  0.00  0.00    +0.000 C 
ATOM     19  C   UNL     1      61.834  66.212  53.679  0.00  0.00    +0.000 C 
ATOM     20  C   UNL     1      62.092  65.300  51.720  0.00  0.00    +0.000 C 
ATOM     21  C   UNL     1      62.009  65.567  50.906  0.00  0.00    +0.000 C 
ATOM     22  C   UNL     1      62.299  64.599  52.103  0.00  0.00    +0.000 C 
ATOM     23  O   UNL     1      62.531  63.809  52.155  0.00  0.00    +0.000 OA
ATOM     24  O   UNL     1      62.313  64.567  52.927  0.00  0.00    +0.000 OA
ATOM     25  C   UNL     1      62.520  63.867  53.310  0.00  0.00    +0.000 C 
ATOM     26  C   UNL     1      62.302  64.576  51.384  0.00  0.00    +0.000 A 
ATOM     27  C   UNL     1      62.323  64.493  50.563  0.00  0.00    +0.000 A 
ATOM     28  O   UNL     1      62.132  65.134  50.079  0.00  0.00    +0.000 OA
ATOM     29  C   UNL     1      62.153  65.050  49.258  0.00  0.00    +0.000 C 
ATOM     30  C   UNL     1      62.533  63.769  50.227  0.00  0.00    +0.000 A 
ATOM     31  C   UNL     1      62.723  63.130  50.711  0.00  0.00    +0.000 A 
ATOM     32  N   UNL     1      62.949  62.355  50.539  0.00  0.00    +0.000 N 
ATOM     33  C   UNL     1      63.040  62.033  49.786  0.00  0.00    +0.000 C 
ATOM     34  C   UNL     1      63.069  61.960  51.254  0.00  0.00    +0.000 C 
ATOM     35  C   UNL     1      62.917  62.490  51.867  0.00  0.00    +0.000 C 
ATOM     36  C   UNL     1      62.684  63.281  51.868  0.00  0.00    +0.000 C 
ATOM     37  C   UNL     1      62.617  63.526  52.653  0.00  0.00    +0.000 C 
ATOM     38  N   UNL     1      62.840  62.776  53.265  0.00  0.00    +0.000 NA
ATOM     39  C   UNL     1      62.915  62.532  54.050  0.00  0.00    +0.000 C 
ATOM     40  C   UNL     1      63.143  61.758  54.220  0.00  0.00    +0.000 C 
ATOM     41  C   UNL     1      63.296  61.227  53.607  0.00  0.00    +0.000 C 
ATOM     42  C   UNL     1      63.220  61.471  52.822  0.00  0.00    +0.000 C 
ATOM     43  C   UNL     1      63.448  60.697  52.993  0.00  0.00    +0.000 C 
ATOM     44  C   UNL     1      63.523  60.453  53.777  0.00  0.00    +0.000 C 
ATOM     45  C   UNL     1      62.992  62.245  52.652  0.00  0.00    +0.000 C 
ATOM     46  C   UNL     1      63.372  60.942  52.209  0.00  0.00    +0.000 C 
ATOM     47  O   UNL     1      63.600  60.167  52.380  0.00  0.00    +0.000 OA
ATOM     48  C   UNL     1      63.676  59.923  53.164  0.00  0.00    +0.000 C 
ATOM     49  C   UNL     1      63.904  59.149  53.335  0.00  0.00    +0.000 C 
ATOM     50  O   UNL     1      63.655  60.006  53.984  0.00  0.00    +0.000 OA
ATOM     51  C   UNL     1      63.297  61.185  51.425  0.00  0.00    +0.000 C 
ATOM     52  O   UNL     1      63.349  60.993  50.623  0.00  0.00    +0.000 OA
ATOM     53  C   UNL     1      63.514  60.441  51.141  0.00  0.00    +0.000 C 
ATOM     54  O   UNL     1      63.694  59.835  51.671  0.00  0.00    +0.000 OA
ATOM     55  O   UNL     1      63.550  60.303  50.329  0.00  0.00    +0.000 OA
ATOM     56  C   UNL     1      63.767  59.559  50.046  0.00  0.00    +0.000 C 
ATOM     57  C   UNL     1      62.703  63.213  51.532  0.00  0.00    +0.000 A 
ATOM     58  C   UNL     1      62.492  63.936  51.869  0.00  0.00    +0.000 A 
ENDROOT
TORSDOF 0
ENDMDL
MODEL 5
REMARK VINA RESULT:   -16.371      1.979      3.779
REMARK INTER + INTRA:         -16.371
REMARK INTER:                 -16.371
REMARK INTRA:                   0.000
REMARK UNBOUND:                 0.000
ROOT
REMARK  Name = anhydrovinblastine
REMARK                            x       y       z     vdW  Elec       q    Type
REMARK                         _______ _______ _______ _____ _____    ______ ____
ATOM      1  C   UNL     1      62.000  67.741  55.202  0.00  0.00    +0.000 C 
ATOM      2  C   UNL     1      62.193  66.941  55.155  0.00  0.00    +0.000 C 
ATOM      3  C   UNL     1      62.138  66.545  54.433  0.00  0.00    +0.000 C 
ATOM      4  C   UNL     1      62.328  65.716  54.341  0.00  0.00    +0.000 C 
ATOM      5  C   UNL     1      62.281  65.266  53.592  0.00  0.00    +0.000 C 
ATOM      6  C   UNL     1      62.043  65.867  53.196  0.00  0.00    +0.000 C 
ATOM      7  N   UNL     1      61.814  66.539  52.930  0.00  0.00    +0.000 NA
ATOM      8  C   UNL     1      61.884  66.928  53.711  0.00  0.00    +0.000 C 
ATOM      9  C   UNL     1      61.639  66.501  52.073  0.00  0.00    +0.000 C 
ATOM     10  C   UNL     1      61.615  66.000  51.373  0.00  0.00    +0.000 C 
ATOM     11  C   UNL     1      61.772  65.201  51.163  0.00  0.00    +0.000 C 
ATOM     12  C   UNL     1      62.027  64.505  51.525  0.00  0.00    +0.000 C 
ATOM     13  N   UNL     1      62.053  63.914  50.950  0.00  0.00    +0.000 NA
ATOM     14  C   UNL     1      61.815  64.244  50.233  0.00  0.00    +0.000 C 
ATOM     15  C   UNL     1      61.733  63.924  49.477  0.00  0.00    +0.000 C 
ATOM     16  C   UNL     1      61.477  64.398  48.853  0.00  0.00    +0.000 C 
ATOM     17  C   UNL     1      61.304  65.194  48.985  0.00  0.00    +0.000 C 
ATOM     18  C   UNL     1      61.385  65.514  49.740  0.00  0.00    +0.000 C 
ATOM     19  C   UNL     1      61.641  65.040  50.365  0.00  0.00    +0.000 C 
ATOM     20  C   UNL     1      62.261  64.238  52.290  0.00  0.00    +0.000 C 
ATOM     21  C   UNL     1      62.351  64.557  53.084  0.00  0.00    +0.000 C 
ATOM     22  C   UNL     1      62.367  63.507  51.921  0.00  0.00    +0.000 C 
ATOM     23  O   UNL     1      62.561  62.707  51.877  0.00  0.00    +0.000 OA
ATOM     24  O   UNL     1      62.213  63.425  51.115  0.00  0.00    +0.000 OA
ATOM     25  C   UNL     1      62.319  62.695  50.747  0.00  0.00    +0.000 C 
ATOM     26  C   UNL     1      62.514  63.527  52.625  0.00  0.00    +0.000 A 
ATOM     27  C   UNL     1      62.696  63.493  53.429  0.00  0.00    +0.000 A 
ATOM     28  O   UNL     1      62.626  64.169  53.898  0.00  0.00    +0.000 OA
ATOM     29  C   UNL     1      62.808  64.134  54.702  0.00  0.00    +0.000 C 
ATOM     30  C   UNL     1      62.949  62.782  53.765  0.00  0.00    +0.000 A 
ATOM     31  C   UNL     1      63.019  62.108  53.296  0.00  0.00    +0.000 A 
ATOM     32  N   UNL     1      63.253  61.336  53.472  0.00  0.00    +0.000 N 
ATOM     33  C   UNL     1      63.484  61.056  54.212  0.00  0.00    +0.000 C 
ATOM     34  C   UNL     1      63.215  60.894  52.776  0.00  0.00    +0.000 C 
ATOM     35  C   UNL     1      62.958  61.392  52.171  0.00  0.00    +0.000 C 
ATOM     36  C   UNL     1      62.753  62.191  52.163  0.00  0.00    +0.000 C 
ATOM     37  C   UNL     1      62.536  62.391  51.393  0.00  0.00    +0.000 C 
ATOM     38  N   UNL     1      62.610  61.597  50.800  0.00  0.00    +0.000 NA
ATOM     39  C   UNL     1      62.519  61.303  50.034  0.00  0.00    +0.000 C 
ATOM     40  C   UNL     1      62.685  60.511  49.875  0.00  0.00    +0.000 C 
ATOM     41  C   UNL     1      62.943  60.012  50.479  0.00  0.00    +0.000 C 
ATOM     42  C   UNL     1      63.034  60.306  51.245  0.00  0.00    +0.000 C 
ATOM     43  C   UNL     1      63.200  59.514  51.085  0.00  0.00    +0.000 C 
ATOM     44  C   UNL     1      63.109  59.220  50.319  0.00  0.00    +0.000 C 
ATOM     45  C   UNL     1      62.867  61.098  51.405  0.00  0.00    +0.000 C 
ATOM     46  C   UNL     1      63.291  59.808  51.850  0.00  0.00    +0.000 C 
ATOM     47  O   UNL     1      63.457  59.016  51.689  0.00  0.00    +0.000 OA
ATOM     48  C   UNL     1      63.367  58.723  50.924  0.00  0.00    +0.000 C 
ATOM     49  C   UNL     1      63.533  57.930  50.764  0.00  0.00    +0.000 C 
ATOM     50  O   UNL     1      63.184  58.757  50.121  0.00  0.00    +0.000 OA
ATOM     51  C   UNL     1      63.382  60.102  52.615  0.00  0.00    +0.000 C 
ATOM     52  O   UNL     1      63.589  59.956  53.402  0.00  0.00    +0.000 OA
ATOM     53  C   UNL     1      63.630  59.368  52.900  0.00  0.00    +0.000 C 
ATOM     54  O   UNL     1      63.682  58.724  52.386  0.00  0.00    +0.000 OA
ATOM     55  O   UNL     1      63.825  59.277  53.695  0.00  0.00    +0.000 OA
ATOM     56  C   UNL     1      64.072  58.543  53.979  0.00  0.00    +0.000 C 
ATOM     57  C   UNL     1      62.837  62.142  52.492  0.00  0.00    +0.000 A 
ATOM     58  C   UNL     1      62.584  62.852  52.157  0.00  0.00    +0.000 A 
ENDROOT
TORSDOF 0
ENDMDL
MODEL 6
REMARK VINA RESULT:   -16.192      1.258      5.441
REMARK INTER + INTRA:         -16.192
REMARK INTER:                 -16.192
REMARK INTRA:                   0.000
REMARK UNBOUND:                 0.000
ROOT
REMARK  Name = anhydrovinblastine
REMARK                            x       y       z     vdW  Elec       q    Type
REMARK                         _______ _______ _______ _____ _____    ______ ____
ATOM      1  C   UNL     1      63.593  59.031  53.921  0.00  0.00    +0.000 C 
ATOM      2  C   UNL     1      63.499  59.826  54.121  0.00  0.00    +0.000 C 
ATOM      3  C   UNL     1      63.228  60.363  53.557  0.00  0.00    +0.000 C 
ATOM      4  C   UNL     1      63.117  61.195  53.724  0.00  0.00    +0.000 C 
ATOM      5  C   UNL     1      62.831  61.792  53.151  0.00  0.00    +0.000 C 
ATOM      6  C   UNL     1      62.762  61.285  52.592  0.00  0.00    +0.000 C 
ATOM      7  N   UNL     1      62.742  60.681  52.134  0.00  0.00    +0.000 NA
ATOM      8  C   UNL     1      63.032  60.138  52.756  0.00  0.00    +0.000 C 
ATOM      9  C   UNL     1      62.462  60.897  51.334  0.00  0.00    +0.000 C 
ATOM     10  C   UNL     1      62.187  61.533  50.823  0.00  0.00    +0.000 C 
ATOM     11  C   UNL     1      62.040  62.360  50.868  0.00  0.00    +0.000 C 
ATOM     12  C   UNL     1      62.089  62.967  51.424  0.00  0.00    +0.000 C 
ATOM     13  N   UNL     1      61.845  63.667  51.059  0.00  0.00    +0.000 NA
ATOM     14  C   UNL     1      61.646  63.491  50.279  0.00  0.00    +0.000 C 
ATOM     15  C   UNL     1      61.371  63.963  49.660  0.00  0.00    +0.000 C 
ATOM     16  C   UNL     1      61.216  63.627  48.923  0.00  0.00    +0.000 C 
ATOM     17  C   UNL     1      61.337  62.819  48.804  0.00  0.00    +0.000 C 
ATOM     18  C   UNL     1      61.612  62.348  49.423  0.00  0.00    +0.000 C 
ATOM     19  C   UNL     1      61.767  62.684  50.160  0.00  0.00    +0.000 C 
ATOM     20  C   UNL     1      62.309  63.071  52.232  0.00  0.00    +0.000 C 
ATOM     21  C   UNL     1      62.597  62.593  52.886  0.00  0.00    +0.000 C 
ATOM     22  C   UNL     1      62.119  63.864  52.105  0.00  0.00    +0.000 C 
ATOM     23  O   UNL     1      62.026  64.658  52.308  0.00  0.00    +0.000 OA
ATOM     24  O   UNL     1      61.850  64.111  51.365  0.00  0.00    +0.000 OA
ATOM     25  C   UNL     1      61.660  64.904  51.239  0.00  0.00    +0.000 C 
ATOM     26  C   UNL     1      62.348  63.698  52.767  0.00  0.00    +0.000 A 
ATOM     27  C   UNL     1      62.604  63.565  53.540  0.00  0.00    +0.000 A 
ATOM     28  O   UNL     1      62.821  62.805  53.777  0.00  0.00    +0.000 OA
ATOM     29  C   UNL     1      63.078  62.672  54.550  0.00  0.00    +0.000 C 
ATOM     30  C   UNL     1      62.642  64.192  54.075  0.00  0.00    +0.000 A 
ATOM     31  C   UNL     1      62.425  64.950  53.837  0.00  0.00    +0.000 A 
ATOM     32  N   UNL     1      62.406  65.671  54.240  0.00  0.00    +0.000 N 
ATOM     33  C   UNL     1      62.617  65.792  55.027  0.00  0.00    +0.000 C 
ATOM     34  C   UNL     1      62.138  66.248  53.715  0.00  0.00    +0.000 C 
ATOM     35  C   UNL     1      61.991  65.886  52.989  0.00  0.00    +0.000 C 
ATOM     36  C   UNL     1      62.067  65.104  52.737  0.00  0.00    +0.000 C 
ATOM     37  C   UNL     1      61.838  65.068  51.946  0.00  0.00    +0.000 C 
ATOM     38  N   UNL     1      61.569  65.969  51.627  0.00  0.00    +0.000 NA
ATOM     39  C   UNL     1      61.293  66.417  50.990  0.00  0.00    +0.000 C 
ATOM     40  C   UNL     1      61.164  67.226  51.081  0.00  0.00    +0.000 C 
ATOM     41  C   UNL     1      61.310  67.590  51.807  0.00  0.00    +0.000 C 
ATOM     42  C   UNL     1      61.586  67.143  52.443  0.00  0.00    +0.000 C 
ATOM     43  C   UNL     1      61.456  67.953  52.533  0.00  0.00    +0.000 C 
ATOM     44  C   UNL     1      61.181  68.399  51.897  0.00  0.00    +0.000 C 
ATOM     45  C   UNL     1      61.715  66.333  52.353  0.00  0.00    +0.000 C 
ATOM     46  C   UNL     1      61.732  67.505  53.169  0.00  0.00    +0.000 C 
ATOM     47  O   UNL     1      61.603  68.315  53.259  0.00  0.00    +0.000 OA
ATOM     48  C   UNL     1      61.327  68.762  52.623  0.00  0.00    +0.000 C 
ATOM     49  C   UNL     1      61.197  69.572  52.713  0.00  0.00    +0.000 C 
ATOM     50  O   UNL     1      61.071  68.895  51.851  0.00  0.00    +0.000 OA
ATOM     51  C   UNL     1      62.008  67.058  53.805  0.00  0.00    +0.000 C 
ATOM     52  O   UNL     1      62.248  67.038  54.595  0.00  0.00    +0.000 OA
ATOM     53  C   UNL     1      62.028  67.719  54.299  0.00  0.00    +0.000 C 
ATOM     54  O   UNL     1      61.799  68.457  54.009  0.00  0.00    +0.000 OA
ATOM     55  O   UNL     1      62.276  67.643  55.082  0.00  0.00    +0.000 OA
ATOM     56  C   UNL     1      62.295  68.303  55.575  0.00  0.00    +0.000 C 
ATOM     57  C   UNL     1      62.169  65.083  53.064  0.00  0.00    +0.000 A 
ATOM     58  C   UNL     1      62.130  64.457  52.529  0.00  0.00    +0.000 A 
ENDROOT
TORSDOF 0
ENDMDL
MODEL 7
REMARK VINA RESULT:   -16.161      1.226      2.177
REMARK INTER + INTRA:         -16.161
REMARK INTER:                 -16.161
REMARK INTRA:                   0.000
REMARK UNBOUND:                 0.000
ROOT
REMARK  Name = anhydrovinblastine
REMARK                            x       y       z     vdW  Elec       q    Type
REMARK                         _______ _______ _______ _____ _____    ______ ____
ATOM      1  C   UNL     1      62.008  69.511  55.578  0.00  0.00    +0.000 C 
ATOM      2  C   UNL     1      62.151  68.701  55.517  0.00  0.00    +0.000 C 
ATOM      3  C   UNL     1      62.044  68.317  54.794  0.00  0.00    +0.000 C 
ATOM      4  C   UNL     1      62.181  67.479  54.689  0.00  0.00    +0.000 C 
ATOM      5  C   UNL     1      62.077  67.040  53.938  0.00  0.00    +0.000 C 
ATOM      6  C   UNL     1      61.861  67.659  53.557  0.00  0.00    +0.000 C 
ATOM      7  N   UNL     1      61.665  68.346  53.305  0.00  0.00    +0.000 NA
ATOM      8  C   UNL     1      61.787  68.722  54.086  0.00  0.00    +0.000 C 
ATOM      9  C   UNL     1      61.455  68.327  52.455  0.00  0.00    +0.000 C 
ATOM     10  C   UNL     1      61.374  67.836  51.753  0.00  0.00    +0.000 C 
ATOM     11  C   UNL     1      61.475  67.031  51.530  0.00  0.00    +0.000 C 
ATOM     12  C   UNL     1      61.700  66.318  51.877  0.00  0.00    +0.000 C 
ATOM     13  N   UNL     1      61.669  65.732  51.296  0.00  0.00    +0.000 NA
ATOM     14  C   UNL     1      61.424  66.083  50.592  0.00  0.00    +0.000 C 
ATOM     15  C   UNL     1      61.294  65.776  49.837  0.00  0.00    +0.000 C 
ATOM     16  C   UNL     1      61.044  66.271  49.227  0.00  0.00    +0.000 C 
ATOM     17  C   UNL     1      60.924  67.075  49.372  0.00  0.00    +0.000 C 
ATOM     18  C   UNL     1      61.054  67.382  50.126  0.00  0.00    +0.000 C 
ATOM     19  C   UNL     1      61.304  66.886  50.736  0.00  0.00    +0.000 C 
ATOM     20  C   UNL     1      61.946  66.028  52.630  0.00  0.00    +0.000 C 
ATOM     21  C   UNL     1      62.085  66.333  53.422  0.00  0.00    +0.000 C 
ATOM     22  C   UNL     1      61.993  65.296  52.252  0.00  0.00    +0.000 C 
ATOM     23  O   UNL     1      62.136  64.486  52.194  0.00  0.00    +0.000 OA
ATOM     24  O   UNL     1      61.805  65.233  51.451  0.00  0.00    +0.000 OA
ATOM     25  C   UNL     1      61.852  64.501  51.073  0.00  0.00    +0.000 C 
ATOM     26  C   UNL     1      62.168  65.301  52.950  0.00  0.00    +0.000 A 
ATOM     27  C   UNL     1      62.378  65.247  53.746  0.00  0.00    +0.000 A 
ATOM     28  O   UNL     1      62.366  65.921  54.222  0.00  0.00    +0.000 OA
ATOM     29  C   UNL     1      62.577  65.867  55.018  0.00  0.00    +0.000 C 
ATOM     30  C   UNL     1      62.600  64.519  54.065  0.00  0.00    +0.000 A 
ATOM     31  C   UNL     1      62.611  63.846  53.590  0.00  0.00    +0.000 A 
ATOM     32  N   UNL     1      62.804  63.060  53.750  0.00  0.00    +0.000 N 
ATOM     33  C   UNL     1      63.046  62.759  54.478  0.00  0.00    +0.000 C 
ATOM     34  C   UNL     1      62.713  62.629  53.052  0.00  0.00    +0.000 C 
ATOM     35  C   UNL     1      62.464  63.147  52.462  0.00  0.00    +0.000 C 
ATOM     36  C   UNL     1      62.308  63.957  52.468  0.00  0.00    +0.000 C 
ATOM     37  C   UNL     1      62.075  64.178  51.708  0.00  0.00    +0.000 C 
ATOM     38  N   UNL     1      62.077  63.387  51.107  0.00  0.00    +0.000 NA
ATOM     39  C   UNL     1      61.940  63.107  50.343  0.00  0.00    +0.000 C 
ATOM     40  C   UNL     1      62.052  62.308  50.171  0.00  0.00    +0.000 C 
ATOM     41  C   UNL     1      62.301  61.788  50.761  0.00  0.00    +0.000 C 
ATOM     42  C   UNL     1      62.439  62.068  51.525  0.00  0.00    +0.000 C 
ATOM     43  C   UNL     1      62.551  61.269  51.352  0.00  0.00    +0.000 C 
ATOM     44  C   UNL     1      62.413  60.990  50.588  0.00  0.00    +0.000 C 
ATOM     45  C   UNL     1      62.327  62.867  51.698  0.00  0.00    +0.000 C 
ATOM     46  C   UNL     1      62.688  61.550  52.116  0.00  0.00    +0.000 C 
ATOM     47  O   UNL     1      62.800  60.751  51.943  0.00  0.00    +0.000 OA
ATOM     48  C   UNL     1      62.662  60.471  51.179  0.00  0.00    +0.000 C 
ATOM     49  C   UNL     1      62.774  59.672  51.006  0.00  0.00    +0.000 C 
ATOM     50  O   UNL     1      62.452  60.525  50.383  0.00  0.00    +0.000 OA
ATOM     51  C   UNL     1      62.825  61.829  52.879  0.00  0.00    +0.000 C 
ATOM     52  O   UNL     1      63.052  61.664  53.656  0.00  0.00    +0.000 OA
ATOM     53  C   UNL     1      63.039  61.079  53.148  0.00  0.00    +0.000 C 
ATOM     54  O   UNL     1      63.033  60.438  52.628  0.00  0.00    +0.000 OA
ATOM     55  O   UNL     1      63.258  60.968  53.935  0.00  0.00    +0.000 OA
ATOM     56  C   UNL     1      63.471  60.218  54.203  0.00  0.00    +0.000 C 
ATOM     57  C   UNL     1      62.401  63.900  52.793  0.00  0.00    +0.000 A 
ATOM     58  C   UNL     1      62.179  64.627  52.473  0.00  0.00    +0.000 A 
ENDROOT
TORSDOF 0
ENDMDL
MODEL 8
REMARK VINA RESULT:   -14.806      2.252      4.948
REMARK INTER + INTRA:         -14.806
REMARK INTER:                 -14.806
REMARK INTRA:                   0.000
REMARK UNBOUND:                 0.000
ROOT
REMARK  Name = anhydrovinblastine
REMARK                            x       y       z     vdW  Elec       q    Type
REMARK                         _______ _______ _______ _____ _____    ______ ____
ATOM      1  C   UNL     1      63.138  68.752  57.993  0.00  0.00    +0.000 C 
ATOM      2  C   UNL     1      62.762  69.102  57.347  0.00  0.00    +0.000 C 
ATOM      3  C   UNL     1      62.596  68.654  56.675  0.00  0.00    +0.000 C 
ATOM      4  C   UNL     1      62.208  68.979  55.985  0.00  0.00    +0.000 C 
ATOM      5  C   UNL     1      62.017  68.533  55.256  0.00  0.00    +0.000 C 
ATOM      6  C   UNL     1      62.310  67.887  55.523  0.00  0.00    +0.000 C 
ATOM      7  N   UNL     1      62.633  67.321  55.910  0.00  0.00    +0.000 NA
ATOM      8  C   UNL     1      62.795  67.825  56.607  0.00  0.00    +0.000 C 
ATOM      9  C   UNL     1      62.638  66.579  55.447  0.00  0.00    +0.000 C 
ATOM     10  C   UNL     1      62.421  66.201  54.704  0.00  0.00    +0.000 C 
ATOM     11  C   UNL     1      62.051  66.406  53.977  0.00  0.00    +0.000 C 
ATOM     12  C   UNL     1      61.714  67.068  53.619  0.00  0.00    +0.000 C 
ATOM     13  N   UNL     1      61.451  66.847  52.869  0.00  0.00    +0.000 NA
ATOM     14  C   UNL     1      61.625  66.048  52.763  0.00  0.00    +0.000 C 
ATOM     15  C   UNL     1      61.495  65.533  52.132  0.00  0.00    +0.000 C 
ATOM     16  C   UNL     1      61.734  64.745  52.185  0.00  0.00    +0.000 C 
ATOM     17  C   UNL     1      62.105  64.473  52.870  0.00  0.00    +0.000 C 
ATOM     18  C   UNL     1      62.236  64.988  53.501  0.00  0.00    +0.000 C 
ATOM     19  C   UNL     1      61.996  65.775  53.448  0.00  0.00    +0.000 C 
ATOM     20  C   UNL     1      61.567  67.880  53.798  0.00  0.00    +0.000 C 
ATOM     21  C   UNL     1      61.696  68.429  54.448  0.00  0.00    +0.000 C 
ATOM     22  C   UNL     1      61.234  67.909  53.044  0.00  0.00    +0.000 C 
ATOM     23  O   UNL     1      60.858  68.262  52.400  0.00  0.00    +0.000 OA
ATOM     24  O   UNL     1      61.217  67.233  52.573  0.00  0.00    +0.000 OA
ATOM     25  C   UNL     1      60.883  67.263  51.819  0.00  0.00    +0.000 C 
ATOM     26  C   UNL     1      61.225  68.525  53.416  0.00  0.00    +0.000 A 
ATOM     27  C   UNL     1      61.187  69.257  53.796  0.00  0.00    +0.000 A 
ATOM     28  O   UNL     1      61.492  69.342  54.558  0.00  0.00    +0.000 OA
ATOM     29  C   UNL     1      61.455  70.074  54.938  0.00  0.00    +0.000 C 
ATOM     30  C   UNL     1      60.844  69.903  53.414  0.00  0.00    +0.000 A 
ATOM     31  C   UNL     1      60.539  69.817  52.653  0.00  0.00    +0.000 A 
ATOM     32  N   UNL     1      60.171  70.351  52.142  0.00  0.00    +0.000 N 
ATOM     33  C   UNL     1      60.020  71.146  52.298  0.00  0.00    +0.000 C 
ATOM     34  C   UNL     1      59.982  69.949  51.446  0.00  0.00    +0.000 C 
ATOM     35  C   UNL     1      60.232  69.167  51.527  0.00  0.00    +0.000 C 
ATOM     36  C   UNL     1      60.608  68.769  52.144  0.00  0.00    +0.000 C 
ATOM     37  C   UNL     1      60.723  67.986  51.910  0.00  0.00    +0.000 C 
ATOM     38  N   UNL     1      60.365  67.848  50.993  0.00  0.00    +0.000 NA
ATOM     39  C   UNL     1      60.247  67.311  50.377  0.00  0.00    +0.000 C 
ATOM     40  C   UNL     1      59.879  67.557  49.682  0.00  0.00    +0.000 C 
ATOM     41  C   UNL     1      59.629  68.339  49.600  0.00  0.00    +0.000 C 
ATOM     42  C   UNL     1      59.746  68.876  50.216  0.00  0.00    +0.000 C 
ATOM     43  C   UNL     1      59.378  69.121  49.519  0.00  0.00    +0.000 C 
ATOM     44  C   UNL     1      59.260  68.584  48.904  0.00  0.00    +0.000 C 
ATOM     45  C   UNL     1      60.114  68.630  50.911  0.00  0.00    +0.000 C 
ATOM     46  C   UNL     1      59.496  69.657  50.135  0.00  0.00    +0.000 C 
ATOM     47  O   UNL     1      59.128  69.902  49.438  0.00  0.00    +0.000 OA
ATOM     48  C   UNL     1      59.010  69.366  48.823  0.00  0.00    +0.000 C 
ATOM     49  C   UNL     1      58.642  69.611  48.126  0.00  0.00    +0.000 C 
ATOM     50  O   UNL     1      59.048  68.635  48.443  0.00  0.00    +0.000 OA
ATOM     51  C   UNL     1      59.614  70.194  50.750  0.00  0.00    +0.000 C 
ATOM     52  O   UNL     1      59.525  70.964  51.034  0.00  0.00    +0.000 OA
ATOM     53  C   UNL     1      59.261  70.806  50.323  0.00  0.00    +0.000 C 
ATOM     54  O   UNL     1      58.972  70.665  49.563  0.00  0.00    +0.000 OA
ATOM     55  O   UNL     1      59.197  71.558  50.655  0.00  0.00    +0.000 OA
ATOM     56  C   UNL     1      58.845  72.169  50.229  0.00  0.00    +0.000 C 
ATOM     57  C   UNL     1      60.577  69.085  52.273  0.00  0.00    +0.000 A 
ATOM     58  C   UNL     1      60.919  68.439  52.654  0.00  0.00    +0.000 A 
ENDROOT
TORSDOF 0
ENDMDL
MODEL 9
REMARK VINA RESULT:   -14.644      3.036      6.374
REMARK INTER + INTRA:         -14.644
REMARK INTER:                 -14.644
REMARK INTRA:                   0.000
REMARK UNBOUND:                 0.000
ROOT
REMARK  Name = anhydrovinblastine
REMARK                            x       y       z     vdW  Elec       q    Type
REMARK                         _______ _______ _______ _____ _____    ______ ____
ATOM      1  C   UNL     1      63.657  65.488  54.175  0.00  0.00    +0.000 C 
ATOM      2  C   UNL     1      63.068  65.151  53.705  0.00  0.00    +0.000 C 
ATOM      3  C   UNL     1      63.013  64.331  53.640  0.00  0.00    +0.000 C 
ATOM      4  C   UNL     1      62.418  63.942  53.164  0.00  0.00    +0.000 C 
ATOM      5  C   UNL     1      62.330  63.076  53.072  0.00  0.00    +0.000 C 
ATOM      6  C   UNL     1      62.917  62.925  53.528  0.00  0.00    +0.000 C 
ATOM      7  N   UNL     1      63.514  62.922  53.996  0.00  0.00    +0.000 NA
ATOM      8  C   UNL     1      63.544  63.795  54.043  0.00  0.00    +0.000 C 
ATOM      9  C   UNL     1      63.773  62.106  54.177  0.00  0.00    +0.000 C 
ATOM     10  C   UNL     1      63.631  61.267  54.044  0.00  0.00    +0.000 C 
ATOM     11  C   UNL     1      63.098  60.778  53.613  0.00  0.00    +0.000 C 
ATOM     12  C   UNL     1      62.452  60.862  53.109  0.00  0.00    +0.000 C 
ATOM     13  N   UNL     1      62.199  60.108  52.891  0.00  0.00    +0.000 NA
ATOM     14  C   UNL     1      62.689  59.558  53.260  0.00  0.00    +0.000 C 
ATOM     15  C   UNL     1      62.701  58.732  53.248  0.00  0.00    +0.000 C 
ATOM     16  C   UNL     1      63.269  58.321  53.683  0.00  0.00    +0.000 C 
ATOM     17  C   UNL     1      63.826  58.736  54.130  0.00  0.00    +0.000 C 
ATOM     18  C   UNL     1      63.813  59.561  54.142  0.00  0.00    +0.000 C 
ATOM     19  C   UNL     1      63.245  59.972  53.707  0.00  0.00    +0.000 C 
ATOM     20  C   UNL     1      61.992  61.481  52.765  0.00  0.00    +0.000 C 
ATOM     21  C   UNL     1      61.966  62.340  52.767  0.00  0.00    +0.000 C 
ATOM     22  C   UNL     1      61.565  60.868  52.414  0.00  0.00    +0.000 C 
ATOM     23  O   UNL     1      60.976  60.534  51.943  0.00  0.00    +0.000 OA
ATOM     24  O   UNL     1      61.775  60.083  52.557  0.00  0.00    +0.000 OA
ATOM     25  C   UNL     1      61.348  59.471  52.207  0.00  0.00    +0.000 C 
ATOM     26  C   UNL     1      61.344  61.535  52.258  0.00  0.00    +0.000 A 
ATOM     27  C   UNL     1      61.047  62.275  52.045  0.00  0.00    +0.000 A 
ATOM     28  O   UNL     1      61.400  62.961  52.340  0.00  0.00    +0.000 OA
ATOM     29  C   UNL     1      61.103  63.701  52.127  0.00  0.00    +0.000 C 
ATOM     30  C   UNL     1      60.398  62.329  51.538  0.00  0.00    +0.000 A 
ATOM     31  C   UNL     1      60.047  61.644  51.244  0.00  0.00    +0.000 A 
ATOM     32  N   UNL     1      59.405  61.526  50.738  0.00  0.00    +0.000 N 
ATOM     33  C   UNL     1      58.945  62.116  50.393  0.00  0.00    +0.000 C 
ATOM     34  C   UNL     1      59.306  60.712  50.639  0.00  0.00    +0.000 C 
ATOM     35  C   UNL     1      59.885  60.328  51.083  0.00  0.00    +0.000 C 
ATOM     36  C   UNL     1      60.491  60.613  51.565  0.00  0.00    +0.000 C 
ATOM     37  C   UNL     1      60.900  59.965  51.869  0.00  0.00    +0.000 C 
ATOM     38  N   UNL     1      60.500  59.120  51.533  0.00  0.00    +0.000 NA
ATOM     39  C   UNL     1      60.536  58.295  51.540  0.00  0.00    +0.000 C 
ATOM     40  C   UNL     1      59.993  57.856  51.102  0.00  0.00    +0.000 C 
ATOM     41  C   UNL     1      59.413  58.240  50.658  0.00  0.00    +0.000 C 
ATOM     42  C   UNL     1      59.377  59.064  50.651  0.00  0.00    +0.000 C 
ATOM     43  C   UNL     1      58.833  58.624  50.213  0.00  0.00    +0.000 C 
ATOM     44  C   UNL     1      58.869  57.800  50.220  0.00  0.00    +0.000 C 
ATOM     45  C   UNL     1      59.921  59.503  51.089  0.00  0.00    +0.000 C 
ATOM     46  C   UNL     1      58.798  59.448  50.208  0.00  0.00    +0.000 C 
ATOM     47  O   UNL     1      58.254  59.008  49.770  0.00  0.00    +0.000 OA
ATOM     48  C   UNL     1      58.290  58.184  49.776  0.00  0.00    +0.000 C 
ATOM     49  C   UNL     1      57.747  57.744  49.338  0.00  0.00    +0.000 C 
ATOM     50  O   UNL     1      58.586  57.445  49.989  0.00  0.00    +0.000 OA
ATOM     51  C   UNL     1      58.762  60.272  50.201  0.00  0.00    +0.000 C 
ATOM     52  O   UNL     1      58.388  60.955  49.926  0.00  0.00    +0.000 OA
ATOM     53  C   UNL     1      58.113  60.270  49.692  0.00  0.00    +0.000 C 
ATOM     54  O   UNL     1      57.799  59.553  49.428  0.00  0.00    +0.000 OA
ATOM     55  O   UNL     1      57.776  60.982  49.447  0.00  0.00    +0.000 OA
ATOM     56  C   UNL     1      57.128  60.979  48.939  0.00  0.00    +0.000 C 
ATOM     57  C   UNL     1      60.343  60.904  51.457  0.00  0.00    +0.000 A 
ATOM     58  C   UNL     1      60.992  60.849  51.964  0.00  0.00    +0.000 A 
ENDROOT
TORSDOF 0
ENDMDL
