MODEL 1
REMARK VINA RESULT:   -16.622      0.000      0.000
REMARK INTER + INTRA:         -16.622
REMARK INTER:                 -16.622
REMARK INTRA:                   0.000
REMARK UNBOUND:                 0.000
ROOT
REMARK  Name = anidulafungin
REMARK                            x       y       z     vdW  Elec       q    Type
REMARK                         _______ _______ _______ _____ _____    ______ ____
ATOM      1  C   UNL     1      58.988  78.582  49.598  0.00  0.00    +0.000 C 
ATOM      2  C   UNL     1      58.527  78.023  49.203  0.00  0.00    +0.000 C 
ATOM      3  C   UNL     1      58.647  77.218  49.337  0.00  0.00    +0.000 C 
ATOM      4  C   UNL     1      58.185  76.660  48.942  0.00  0.00    +0.000 C 
ATOM      5  C   UNL     1      58.306  75.855  49.077  0.00  0.00    +0.000 C 
ATOM      6  O   UNL     1      57.844  75.298  48.681  0.00  0.00    +0.000 OA
ATOM      7  C   UNL     1      57.964  74.493  48.816  0.00  0.00    +0.000 A 
ATOM      8  C   UNL     1      57.503  73.935  48.421  0.00  0.00    +0.000 A 
ATOM      9  C   UNL     1      57.623  73.130  48.556  0.00  0.00    +0.000 A 
ATOM     10  C   UNL     1      58.206  72.882  49.086  0.00  0.00    +0.000 A 
ATOM     11  C   UNL     1      58.668  73.441  49.481  0.00  0.00    +0.000 A 
ATOM     12  C   UNL     1      58.546  74.246  49.346  0.00  0.00    +0.000 A 
ATOM     13  C   UNL     1      58.326  72.078  49.220  0.00  0.00    +0.000 A 
ATOM     14  C   UNL     1      57.865  71.520  48.826  0.00  0.00    +0.000 A 
ATOM     15  C   UNL     1      57.985  70.715  48.960  0.00  0.00    +0.000 A 
ATOM     16  C   UNL     1      58.567  70.468  49.490  0.00  0.00    +0.000 A 
ATOM     17  C   UNL     1      59.029  71.026  49.885  0.00  0.00    +0.000 A 
ATOM     18  C   UNL     1      58.908  71.830  49.750  0.00  0.00    +0.000 A 
ATOM     19  C   UNL     1      58.688  69.663  49.625  0.00  0.00    +0.000 A 
ATOM     20  C   UNL     1      58.226  69.105  49.229  0.00  0.00    +0.000 A 
ATOM     21  C   UNL     1      58.346  68.300  49.364  0.00  0.00    +0.000 A 
ATOM     22  C   UNL     1      58.928  68.053  49.894  0.00  0.00    +0.000 A 
ATOM     23  C   UNL     1      59.390  68.611  50.289  0.00  0.00    +0.000 A 
ATOM     24  C   UNL     1      59.270  69.416  50.154  0.00  0.00    +0.000 A 
ATOM     25  C   UNL     1      59.049  67.248  50.028  0.00  0.00    +0.000 C 
ATOM     26  O   UNL     1      58.587  66.690  49.633  0.00  0.00    +0.000 OA
ATOM     27  N   UNL     1      59.631  67.001  50.558  0.00  0.00    +0.000 NA
ATOM     28  C   UNL     1      59.751  66.196  50.693  0.00  0.00    +0.000 C 
ATOM     29  C   UNL     1      59.173  65.899  50.185  0.00  0.00    +0.000 C 
ATOM     30  C   UNL     1      58.682  65.388  49.762  0.00  0.00    +0.000 C 
ATOM     31  O   UNL     1      58.244  65.952  49.350  0.00  0.00    +0.000 OA
ATOM     32  C   UNL     1      58.323  64.708  49.462  0.00  0.00    +0.000 C 
ATOM     33  O   UNL     1      57.777  65.070  48.961  0.00  0.00    +0.000 OA
ATOM     34  N   UNL     1      58.125  63.921  49.311  0.00  0.00    +0.000 NA
ATOM     35  C   UNL     1      58.109  63.097  49.324  0.00  0.00    +0.000 C 
ATOM     36  O   UNL     1      57.499  62.978  48.782  0.00  0.00    +0.000 OA
ATOM     37  C   UNL     1      58.274  62.307  49.498  0.00  0.00    +0.000 C 
ATOM     38  C   UNL     1      57.680  62.080  48.974  0.00  0.00    +0.000 C 
ATOM     39  O   UNL     1      57.204  62.588  48.531  0.00  0.00    +0.000 OA
ATOM     40  C   UNL     1      57.644  61.255  48.969  0.00  0.00    +0.000 C 
ATOM     41  C   UNL     1      57.128  60.795  48.521  0.00  0.00    +0.000 C 
ATOM     42  C   UNL     1      58.218  60.974  49.492  0.00  0.00    +0.000 C 
ATOM     43  N   UNL     1      58.606  61.624  49.819  0.00  0.00    +0.000 N 
ATOM     44  C   UNL     1      59.077  61.106  50.257  0.00  0.00    +0.000 C 
ATOM     45  O   UNL     1      58.755  60.394  49.993  0.00  0.00    +0.000 OA
ATOM     46  C   UNL     1      59.642  60.801  50.774  0.00  0.00    +0.000 C 
ATOM     47  N   UNL     1      60.253  60.735  51.324  0.00  0.00    +0.000 NA
ATOM     48  C   UNL     1      60.856  60.914  51.858  0.00  0.00    +0.000 C 
ATOM     49  O   UNL     1      61.065  60.145  52.071  0.00  0.00    +0.000 OA
ATOM     50  C   UNL     1      61.397  61.323  52.329  0.00  0.00    +0.000 C 
ATOM     51  N   UNL     1      61.827  61.925  52.694  0.00  0.00    +0.000 NA
ATOM     52  C   UNL     1      62.108  62.666  52.922  0.00  0.00    +0.000 C 
ATOM     53  O   UNL     1      62.691  62.420  53.451  0.00  0.00    +0.000 OA
ATOM     54  C   UNL     1      62.217  63.482  52.992  0.00  0.00    +0.000 C 
ATOM     55  C   UNL     1      62.820  63.343  53.537  0.00  0.00    +0.000 C 
ATOM     56  C   UNL     1      63.118  64.072  53.779  0.00  0.00    +0.000 C 
ATOM     57  O   UNL     1      63.727  64.191  54.321  0.00  0.00    +0.000 OA
ATOM     58  C   UNL     1      62.699  64.663  53.384  0.00  0.00    +0.000 C 
ATOM     59  N   UNL     1      62.141  64.297  52.897  0.00  0.00    +0.000 N 
ATOM     60  C   UNL     1      61.890  65.043  52.647  0.00  0.00    +0.000 C 
ATOM     61  O   UNL     1      62.407  65.504  53.095  0.00  0.00    +0.000 OA
ATOM     62  C   UNL     1      61.484  65.650  52.263  0.00  0.00    +0.000 C 
ATOM     63  N   UNL     1      60.961  66.066  51.780  0.00  0.00    +0.000 NA
ATOM     64  C   UNL     1      60.365  66.254  51.241  0.00  0.00    +0.000 C 
ATOM     65  O   UNL     1      60.428  67.076  51.269  0.00  0.00    +0.000 OA
ATOM     66  C   UNL     1      61.881  66.292  52.597  0.00  0.00    +0.000 C 
ATOM     67  C   UNL     1      61.672  67.061  52.384  0.00  0.00    +0.000 C 
ATOM     68  O   UNL     1      62.485  66.165  53.143  0.00  0.00    +0.000 OA
ATOM     69  C   UNL     1      61.767  60.676  52.681  0.00  0.00    +0.000 C 
ATOM     70  O   UNL     1      61.527  59.910  52.492  0.00  0.00    +0.000 OA
ATOM     71  C   UNL     1      62.377  60.795  53.225  0.00  0.00    +0.000 C 
ATOM     72  O   UNL     1      62.617  61.561  53.414  0.00  0.00    +0.000 OA
ATOM     73  C   UNL     1      62.747  60.148  53.577  0.00  0.00    +0.000 A 
ATOM     74  C   UNL     1      62.507  59.381  53.388  0.00  0.00    +0.000 A 
ATOM     75  C   UNL     1      62.877  58.734  53.741  0.00  0.00    +0.000 A 
ATOM     76  C   UNL     1      63.487  58.853  54.283  0.00  0.00    +0.000 A 
ATOM     77  O   UNL     1      63.857  58.206  54.636  0.00  0.00    +0.000 OA
ATOM     78  C   UNL     1      63.727  59.619  54.473  0.00  0.00    +0.000 A 
ATOM     79  C   UNL     1      63.357  60.266  54.120  0.00  0.00    +0.000 A 
ATOM     80  C   UNL     1      59.489  59.998  50.664  0.00  0.00    +0.000 C 
ATOM     81  C   UNL     1      58.897  59.759  50.141  0.00  0.00    +0.000 C 
ATOM     82  O   UNL     1      59.928  59.433  51.076  0.00  0.00    +0.000 OA
ENDROOT
TORSDOF 0
ENDMDL
MODEL 2
REMARK VINA RESULT:   -14.850     22.084     22.418
REMARK INTER + INTRA:         -14.850
REMARK INTER:                 -14.850
REMARK INTRA:                   0.000
REMARK UNBOUND:                 0.000
ROOT
REMARK  Name = anidulafungin
REMARK                            x       y       z     vdW  Elec       q    Type
REMARK                         _______ _______ _______ _____ _____    ______ ____
ATOM      1  C   UNL     1      81.083  78.681  53.161  0.00  0.00    +0.000 C 
ATOM      2  C   UNL     1      81.123  78.098  52.578  0.00  0.00    +0.000 C 
ATOM      3  C   UNL     1      81.170  77.302  52.793  0.00  0.00    +0.000 C 
ATOM      4  C   UNL     1      81.209  76.720  52.209  0.00  0.00    +0.000 C 
ATOM      5  C   UNL     1      81.256  75.925  52.424  0.00  0.00    +0.000 C 
ATOM      6  O   UNL     1      81.295  75.343  51.841  0.00  0.00    +0.000 OA
ATOM      7  C   UNL     1      81.342  74.547  52.055  0.00  0.00    +0.000 A 
ATOM      8  C   UNL     1      81.381  73.965  51.472  0.00  0.00    +0.000 A 
ATOM      9  C   UNL     1      81.428  73.169  51.686  0.00  0.00    +0.000 A 
ATOM     10  C   UNL     1      81.436  72.956  52.484  0.00  0.00    +0.000 A 
ATOM     11  C   UNL     1      81.397  73.539  53.067  0.00  0.00    +0.000 A 
ATOM     12  C   UNL     1      81.350  74.335  52.852  0.00  0.00    +0.000 A 
ATOM     13  C   UNL     1      81.483  72.162  52.698  0.00  0.00    +0.000 A 
ATOM     14  C   UNL     1      81.522  71.579  52.115  0.00  0.00    +0.000 A 
ATOM     15  C   UNL     1      81.569  70.783  52.329  0.00  0.00    +0.000 A 
ATOM     16  C   UNL     1      81.577  70.571  53.126  0.00  0.00    +0.000 A 
ATOM     17  C   UNL     1      81.538  71.154  53.709  0.00  0.00    +0.000 A 
ATOM     18  C   UNL     1      81.491  71.948  53.494  0.00  0.00    +0.000 A 
ATOM     19  C   UNL     1      81.624  69.775  53.341  0.00  0.00    +0.000 A 
ATOM     20  C   UNL     1      81.664  69.193  52.758  0.00  0.00    +0.000 A 
ATOM     21  C   UNL     1      81.711  68.397  52.972  0.00  0.00    +0.000 A 
ATOM     22  C   UNL     1      81.718  68.185  53.769  0.00  0.00    +0.000 A 
ATOM     23  C   UNL     1      81.679  68.767  54.352  0.00  0.00    +0.000 A 
ATOM     24  C   UNL     1      81.632  69.563  54.137  0.00  0.00    +0.000 A 
ATOM     25  C   UNL     1      81.765  67.389  53.983  0.00  0.00    +0.000 C 
ATOM     26  O   UNL     1      81.805  66.806  53.400  0.00  0.00    +0.000 OA
ATOM     27  N   UNL     1      81.773  67.177  54.780  0.00  0.00    +0.000 NA
ATOM     28  C   UNL     1      81.820  66.381  54.994  0.00  0.00    +0.000 C 
ATOM     29  C   UNL     1      81.845  66.052  54.238  0.00  0.00    +0.000 C 
ATOM     30  C   UNL     1      81.882  65.514  53.612  0.00  0.00    +0.000 C 
ATOM     31  O   UNL     1      81.853  66.051  52.988  0.00  0.00    +0.000 OA
ATOM     32  C   UNL     1      81.927  64.817  53.175  0.00  0.00    +0.000 C 
ATOM     33  O   UNL     1      81.912  65.146  52.418  0.00  0.00    +0.000 OA
ATOM     34  N   UNL     1      81.977  64.021  52.961  0.00  0.00    +0.000 NA
ATOM     35  C   UNL     1      82.027  63.198  52.993  0.00  0.00    +0.000 C 
ATOM     36  O   UNL     1      82.041  63.045  52.183  0.00  0.00    +0.000 OA
ATOM     37  C   UNL     1      82.072  62.421  53.266  0.00  0.00    +0.000 C 
ATOM     38  C   UNL     1      82.093  62.160  52.484  0.00  0.00    +0.000 C 
ATOM     39  O   UNL     1      82.068  62.639  51.813  0.00  0.00    +0.000 OA
ATOM     40  C   UNL     1      82.143  61.336  52.491  0.00  0.00    +0.000 C 
ATOM     41  C   UNL     1      82.177  60.848  51.827  0.00  0.00    +0.000 C 
ATOM     42  C   UNL     1      82.153  61.089  53.278  0.00  0.00    +0.000 C 
ATOM     43  N   UNL     1      82.110  61.759  53.757  0.00  0.00    +0.000 N 
ATOM     44  C   UNL     1      82.135  61.270  54.422  0.00  0.00    +0.000 C 
ATOM     45  O   UNL     1      82.182  60.542  54.037  0.00  0.00    +0.000 OA
ATOM     46  C   UNL     1      82.147  60.998  55.200  0.00  0.00    +0.000 C 
ATOM     47  N   UNL     1      82.143  60.967  56.024  0.00  0.00    +0.000 NA
ATOM     48  C   UNL     1      82.125  61.181  56.821  0.00  0.00    +0.000 C 
ATOM     49  O   UNL     1      82.169  60.426  57.151  0.00  0.00    +0.000 OA
ATOM     50  C   UNL     1      82.094  61.620  57.519  0.00  0.00    +0.000 C 
ATOM     51  N   UNL     1      82.053  62.244  58.057  0.00  0.00    +0.000 NA
ATOM     52  C   UNL     1      82.005  62.999  58.386  0.00  0.00    +0.000 C 
ATOM     53  O   UNL     1      82.013  62.786  59.183  0.00  0.00    +0.000 OA
ATOM     54  C   UNL     1      81.954  63.818  58.478  0.00  0.00    +0.000 C 
ATOM     55  C   UNL     1      81.955  63.714  59.296  0.00  0.00    +0.000 C 
ATOM     56  C   UNL     1      81.908  64.458  59.648  0.00  0.00    +0.000 C 
ATOM     57  O   UNL     1      81.893  64.611  60.458  0.00  0.00    +0.000 OA
ATOM     58  C   UNL     1      81.877  65.022  59.047  0.00  0.00    +0.000 C 
ATOM     59  N   UNL     1      81.906  64.626  58.324  0.00  0.00    +0.000 N 
ATOM     60  C   UNL     1      81.864  65.355  57.938  0.00  0.00    +0.000 C 
ATOM     61  O   UNL     1      81.830  65.844  58.601  0.00  0.00    +0.000 OA
ATOM     62  C   UNL     1      81.833  65.937  57.354  0.00  0.00    +0.000 C 
ATOM     63  N   UNL     1      81.814  66.321  56.624  0.00  0.00    +0.000 NA
ATOM     64  C   UNL     1      81.810  66.474  55.813  0.00  0.00    +0.000 C 
ATOM     65  O   UNL     1      81.759  67.297  55.844  0.00  0.00    +0.000 OA
ATOM     66  C   UNL     1      81.789  66.599  57.844  0.00  0.00    +0.000 C 
ATOM     67  C   UNL     1      81.745  67.354  57.513  0.00  0.00    +0.000 C 
ATOM     68  O   UNL     1      81.789  66.507  58.663  0.00  0.00    +0.000 OA
ATOM     69  C   UNL     1      82.129  60.996  58.058  0.00  0.00    +0.000 C 
ATOM     70  O   UNL     1      82.178  60.218  57.786  0.00  0.00    +0.000 OA
ATOM     71  C   UNL     1      82.114  61.149  58.869  0.00  0.00    +0.000 C 
ATOM     72  O   UNL     1      82.065  61.927  59.141  0.00  0.00    +0.000 OA
ATOM     73  C   UNL     1      82.149  60.525  59.407  0.00  0.00    +0.000 A 
ATOM     74  C   UNL     1      82.198  59.748  59.136  0.00  0.00    +0.000 A 
ATOM     75  C   UNL     1      82.232  59.124  59.674  0.00  0.00    +0.000 A 
ATOM     76  C   UNL     1      82.218  59.277  60.484  0.00  0.00    +0.000 A 
ATOM     77  O   UNL     1      82.252  58.653  61.023  0.00  0.00    +0.000 OA
ATOM     78  C   UNL     1      82.169  60.055  60.756  0.00  0.00    +0.000 A 
ATOM     79  C   UNL     1      82.134  60.678  60.218  0.00  0.00    +0.000 A 
ATOM     80  C   UNL     1      82.197  60.190  55.048  0.00  0.00    +0.000 C 
ATOM     81  C   UNL     1      82.218  59.917  54.269  0.00  0.00    +0.000 C 
ATOM     82  O   UNL     1      82.226  59.652  55.673  0.00  0.00    +0.000 OA
ENDROOT
TORSDOF 0
ENDMDL
