MODEL 1
REMARK VINA RESULT:   -14.198      0.000      0.000
REMARK INTER + INTRA:         -14.198
REMARK INTER:                 -14.198
REMARK INTRA:                   0.000
REMARK UNBOUND:                 0.000
ROOT
REMARK  Name = anileridine
REMARK                            x       y       z     vdW  Elec       q    Type
REMARK                         _______ _______ _______ _____ _____    ______ ____
ATOM      1  C   UNL     1      59.750  64.175  71.854  0.00  0.00    +0.000 C 
ATOM      2  C   UNL     1      59.948  64.341  71.071  0.00  0.00    +0.000 C 
ATOM      3  O   UNL     1      60.190  63.731  70.570  0.00  0.00    +0.000 OA
ATOM      4  C   UNL     1      60.388  63.896  69.786  0.00  0.00    +0.000 C 
ATOM      5  O   UNL     1      60.345  64.671  69.503  0.00  0.00    +0.000 OA
ATOM      6  C   UNL     1      60.630  63.288  69.285  0.00  0.00    +0.000 C 
ATOM      7  C   UNL     1      60.827  62.530  69.024  0.00  0.00    +0.000 C 
ATOM      8  C   UNL     1      61.070  62.412  68.244  0.00  0.00    +0.000 C 
ATOM      9  N   UNL     1      61.116  63.052  67.725  0.00  0.00    +0.000 NA
ATOM     10  C   UNL     1      61.359  62.934  66.946  0.00  0.00    +0.000 C 
ATOM     11  C   UNL     1      61.555  62.177  66.685  0.00  0.00    +0.000 C 
ATOM     12  C   UNL     1      61.798  62.059  65.905  0.00  0.00    +0.000 A 
ATOM     13  C   UNL     1      61.995  61.300  65.644  0.00  0.00    +0.000 A 
ATOM     14  C   UNL     1      62.238  61.182  64.865  0.00  0.00    +0.000 A 
ATOM     15  C   UNL     1      62.284  61.823  64.346  0.00  0.00    +0.000 A 
ATOM     16  N   UNL     1      62.526  61.705  63.566  0.00  0.00    +0.000 NA
ATOM     17  C   UNL     1      62.087  62.580  64.606  0.00  0.00    +0.000 A 
ATOM     18  C   UNL     1      61.844  62.698  65.386  0.00  0.00    +0.000 A 
ATOM     19  C   UNL     1      60.919  63.810  67.986  0.00  0.00    +0.000 C 
ATOM     20  C   UNL     1      60.677  63.928  68.765  0.00  0.00    +0.000 C 
ATOM     21  C   UNL     1      60.500  62.860  69.978  0.00  0.00    +0.000 A 
ATOM     22  C   UNL     1      60.242  63.246  70.659  0.00  0.00    +0.000 A 
ATOM     23  C   UNL     1      60.112  62.818  71.352  0.00  0.00    +0.000 A 
ATOM     24  C   UNL     1      60.240  62.003  71.364  0.00  0.00    +0.000 A 
ATOM     25  C   UNL     1      60.498  61.616  70.682  0.00  0.00    +0.000 A 
ATOM     26  C   UNL     1      60.628  62.045  69.988  0.00  0.00    +0.000 A 
ENDROOT
TORSDOF 0
ENDMDL
MODEL 2
REMARK VINA RESULT:   -13.155      3.857      5.068
REMARK INTER + INTRA:         -13.155
REMARK INTER:                 -13.155
REMARK INTRA:                   0.000
REMARK UNBOUND:                 0.000
ROOT
REMARK  Name = anileridine
REMARK                            x       y       z     vdW  Elec       q    Type
REMARK                         _______ _______ _______ _____ _____    ______ ____
ATOM      1  C   UNL     1      60.132  61.911  70.613  0.00  0.00    +0.000 C 
ATOM      2  C   UNL     1      60.655  62.384  70.186  0.00  0.00    +0.000 C 
ATOM      3  O   UNL     1      61.169  62.892  70.583  0.00  0.00    +0.000 OA
ATOM      4  C   UNL     1      61.693  63.366  70.157  0.00  0.00    +0.000 C 
ATOM      5  O   UNL     1      61.702  63.332  69.332  0.00  0.00    +0.000 OA
ATOM      6  C   UNL     1      62.207  63.874  70.553  0.00  0.00    +0.000 C 
ATOM      7  C   UNL     1      62.586  64.265  71.173  0.00  0.00    +0.000 C 
ATOM      8  C   UNL     1      63.177  64.818  71.013  0.00  0.00    +0.000 C 
ATOM      9  N   UNL     1      63.391  64.980  70.233  0.00  0.00    +0.000 NA
ATOM     10  C   UNL     1      63.982  65.531  70.073  0.00  0.00    +0.000 C 
ATOM     11  C   UNL     1      64.360  65.922  70.693  0.00  0.00    +0.000 C 
ATOM     12  C   UNL     1      64.952  66.475  70.533  0.00  0.00    +0.000 A 
ATOM     13  C   UNL     1      65.330  66.866  71.153  0.00  0.00    +0.000 A 
ATOM     14  C   UNL     1      65.922  67.418  70.993  0.00  0.00    +0.000 A 
ATOM     15  C   UNL     1      66.135  67.579  70.212  0.00  0.00    +0.000 A 
ATOM     16  N   UNL     1      66.726  68.132  70.052  0.00  0.00    +0.000 NA
ATOM     17  C   UNL     1      65.757  67.189  69.592  0.00  0.00    +0.000 A 
ATOM     18  C   UNL     1      65.165  66.637  69.752  0.00  0.00    +0.000 A 
ATOM     19  C   UNL     1      63.012  64.588  69.612  0.00  0.00    +0.000 C 
ATOM     20  C   UNL     1      62.420  64.036  69.772  0.00  0.00    +0.000 C 
ATOM     21  C   UNL     1      61.815  63.536  71.196  0.00  0.00    +0.000 A 
ATOM     22  C   UNL     1      61.227  62.972  71.070  0.00  0.00    +0.000 A 
ATOM     23  C   UNL     1      60.835  62.634  71.712  0.00  0.00    +0.000 A 
ATOM     24  C   UNL     1      61.031  62.860  72.481  0.00  0.00    +0.000 A 
ATOM     25  C   UNL     1      61.620  63.425  72.607  0.00  0.00    +0.000 A 
ATOM     26  C   UNL     1      62.012  63.763  71.964  0.00  0.00    +0.000 A 
ENDROOT
TORSDOF 0
ENDMDL
