MODEL 1
REMARK VINA RESULT:   -16.706      0.000      0.000
REMARK INTER + INTRA:         -16.706
REMARK INTER:                 -16.706
REMARK INTRA:                   0.000
REMARK UNBOUND:                 0.000
ROOT
REMARK  Name = apalcillin
REMARK                            x       y       z     vdW  Elec       q    Type
REMARK                         _______ _______ _______ _____ _____    ______ ____
ATOM      1  C   UNL     1      58.853  65.889  73.219  0.00  0.00    +0.000 C 
ATOM      2  C   UNL     1      59.003  66.201  72.470  0.00  0.00    +0.000 C 
ATOM      3  C   UNL     1      58.763  66.912  72.813  0.00  0.00    +0.000 C 
ATOM      4  S   UNL     1      59.212  65.425  72.283  0.00  0.00    +0.000 S 
ATOM      5  C   UNL     1      59.441  65.406  71.490  0.00  0.00    +0.000 C 
ATOM      6  CA  UNL     1      59.703  65.138  70.756  0.00  0.00    +0.000 C 
ATOM      7  N   UNL     1      59.936  64.409  70.451  0.00  0.00    +0.000 NA
ATOM      8  C   UNL     1      60.172  64.348  69.662  0.00  0.00    +0.000 C 
ATOM      9  O   UNL     1      60.175  65.016  69.179  0.00  0.00    +0.000 OA
ATOM     10  CA  UNL     1      60.406  63.617  69.356  0.00  0.00    +0.000 C 
ATOM     11  N   UNL     1      60.642  63.557  68.569  0.00  0.00    +0.000 NA
ATOM     12  C   UNL     1      60.875  62.826  68.263  0.00  0.00    +0.000 C 
ATOM     13  O   UNL     1      60.872  62.157  68.746  0.00  0.00    +0.000 OA
ATOM     14  C   UNL     1      61.111  62.765  67.475  0.00  0.00    +0.000 A 
ATOM     15  C   UNL     1      61.345  62.035  67.170  0.00  0.00    +0.000 A 
ATOM     16  O   UNL     1      61.342  61.366  67.652  0.00  0.00    +0.000 OA
ATOM     17  C   UNL     1      61.581  61.974  66.382  0.00  0.00    +0.000 A 
ATOM     18  N   UNL     1      61.814  61.245  66.076  0.00  0.00    +0.000 NA
ATOM     19  C   UNL     1      62.050  61.183  65.288  0.00  0.00    +0.000 A 
ATOM     20  C   UNL     1      62.053  61.852  64.805  0.00  0.00    +0.000 A 
ATOM     21  C   UNL     1      61.819  62.582  65.111  0.00  0.00    +0.000 A 
ATOM     22  C   UNL     1      61.584  62.643  65.898  0.00  0.00    +0.000 A 
ATOM     23  N   UNL     1      61.350  63.373  66.204  0.00  0.00    +0.000 NA
ATOM     24  C   UNL     1      61.114  63.435  66.992  0.00  0.00    +0.000 A 
ATOM     25  C   UNL     1      60.403  62.948  69.840  0.00  0.00    +0.000 A 
ATOM     26  C   UNL     1      60.167  63.010  70.628  0.00  0.00    +0.000 A 
ATOM     27  C   UNL     1      60.164  62.341  71.110  0.00  0.00    +0.000 A 
ATOM     28  C   UNL     1      60.398  61.610  70.805  0.00  0.00    +0.000 A 
ATOM     29  C   UNL     1      60.634  61.549  70.017  0.00  0.00    +0.000 A 
ATOM     30  C   UNL     1      60.636  62.219  69.535  0.00  0.00    +0.000 A 
ATOM     31  C   UNL     1      59.636  65.903  70.453  0.00  0.00    +0.000 C 
ATOM     32  O   UNL     1      59.773  66.254  69.719  0.00  0.00    +0.000 OA
ATOM     33  N   UNL     1      59.373  66.171  71.188  0.00  0.00    +0.000 N 
ATOM     34  CA  UNL     1      59.103  66.662  71.793  0.00  0.00    +0.000 C 
ATOM     35  C   UNL     1      58.957  67.472  71.732  0.00  0.00    +0.000 C 
ATOM     36  O   UNL     1      59.083  67.861  71.015  0.00  0.00    +0.000 OA
ATOM     37  OXT UNL     1      58.686  67.893  72.388  0.00  0.00    +0.000 OA
ENDROOT
TORSDOF 0
ENDMDL
MODEL 2
REMARK VINA RESULT:   -15.629      2.210      2.316
REMARK INTER + INTRA:         -15.629
REMARK INTER:                 -15.629
REMARK INTRA:                   0.000
REMARK UNBOUND:                 0.000
ROOT
REMARK  Name = apalcillin
REMARK                            x       y       z     vdW  Elec       q    Type
REMARK                         _______ _______ _______ _____ _____    ______ ____
ATOM      1  C   UNL     1      62.141  65.711  73.155  0.00  0.00    +0.000 C 
ATOM      2  C   UNL     1      62.464  65.910  72.422  0.00  0.00    +0.000 C 
ATOM      3  C   UNL     1      62.798  66.539  72.838  0.00  0.00    +0.000 C 
ATOM      4  S   UNL     1      62.061  65.239  72.159  0.00  0.00    +0.000 S 
ATOM      5  C   UNL     1      62.206  65.155  71.351  0.00  0.00    +0.000 C 
ATOM      6  CA  UNL     1      62.198  64.866  70.578  0.00  0.00    +0.000 C 
ATOM      7  N   UNL     1      61.845  64.225  70.200  0.00  0.00    +0.000 NA
ATOM      8  C   UNL     1      61.965  64.106  69.392  0.00  0.00    +0.000 C 
ATOM      9  O   UNL     1      62.437  64.628  68.963  0.00  0.00    +0.000 OA
ATOM     10  CA  UNL     1      61.611  63.463  69.012  0.00  0.00    +0.000 C 
ATOM     11  N   UNL     1      61.731  63.345  68.205  0.00  0.00    +0.000 NA
ATOM     12  C   UNL     1      61.378  62.702  67.826  0.00  0.00    +0.000 C 
ATOM     13  O   UNL     1      60.905  62.179  68.255  0.00  0.00    +0.000 OA
ATOM     14  C   UNL     1      61.498  62.583  67.018  0.00  0.00    +0.000 A 
ATOM     15  C   UNL     1      61.144  61.941  66.640  0.00  0.00    +0.000 A 
ATOM     16  O   UNL     1      60.672  61.418  67.067  0.00  0.00    +0.000 OA
ATOM     17  C   UNL     1      61.264  61.822  65.832  0.00  0.00    +0.000 A 
ATOM     18  N   UNL     1      60.911  61.181  65.453  0.00  0.00    +0.000 NA
ATOM     19  C   UNL     1      61.030  61.061  64.645  0.00  0.00    +0.000 A 
ATOM     20  C   UNL     1      61.503  61.584  64.216  0.00  0.00    +0.000 A 
ATOM     21  C   UNL     1      61.856  62.226  64.596  0.00  0.00    +0.000 A 
ATOM     22  C   UNL     1      61.737  62.345  65.403  0.00  0.00    +0.000 A 
ATOM     23  N   UNL     1      62.090  62.987  65.783  0.00  0.00    +0.000 NA
ATOM     24  C   UNL     1      61.970  63.107  66.590  0.00  0.00    +0.000 A 
ATOM     25  C   UNL     1      61.139  62.940  69.441  0.00  0.00    +0.000 A 
ATOM     26  C   UNL     1      61.019  63.059  70.249  0.00  0.00    +0.000 A 
ATOM     27  C   UNL     1      60.547  62.536  70.677  0.00  0.00    +0.000 A 
ATOM     28  C   UNL     1      60.193  61.894  70.298  0.00  0.00    +0.000 A 
ATOM     29  C   UNL     1      60.313  61.775  69.490  0.00  0.00    +0.000 A 
ATOM     30  C   UNL     1      60.786  62.298  69.062  0.00  0.00    +0.000 A 
ATOM     31  C   UNL     1      62.689  65.485  70.342  0.00  0.00    +0.000 C 
ATOM     32  O   UNL     1      63.031  65.719  69.628  0.00  0.00    +0.000 OA
ATOM     33  N   UNL     1      62.697  65.774  71.115  0.00  0.00    +0.000 N 
ATOM     34  CA  UNL     1      62.856  66.241  71.777  0.00  0.00    +0.000 C 
ATOM     35  C   UNL     1      63.326  66.919  71.790  0.00  0.00    +0.000 C 
ATOM     36  O   UNL     1      63.686  67.186  71.098  0.00  0.00    +0.000 OA
ATOM     37  OXT UNL     1      63.436  67.330  72.497  0.00  0.00    +0.000 OA
ENDROOT
TORSDOF 0
ENDMDL
MODEL 3
REMARK VINA RESULT:   -14.994      3.741      4.130
REMARK INTER + INTRA:         -14.994
REMARK INTER:                 -14.994
REMARK INTRA:                   0.000
REMARK UNBOUND:                 0.000
ROOT
REMARK  Name = apalcillin
REMARK                            x       y       z     vdW  Elec       q    Type
REMARK                         _______ _______ _______ _____ _____    ______ ____
ATOM      1  C   UNL     1      65.515  66.651  72.387  0.00  0.00    +0.000 C 
ATOM      2  C   UNL     1      65.461  66.646  71.563  0.00  0.00    +0.000 C 
ATOM      3  C   UNL     1      66.096  67.172  71.605  0.00  0.00    +0.000 C 
ATOM      4  S   UNL     1      64.838  66.121  71.694  0.00  0.00    +0.000 S 
ATOM      5  C   UNL     1      64.530  65.902  70.960  0.00  0.00    +0.000 C 
ATOM      6  CA  UNL     1      64.067  65.546  70.378  0.00  0.00    +0.000 C 
ATOM      7  N   UNL     1      63.433  65.019  70.379  0.00  0.00    +0.000 NA
ATOM      8  C   UNL     1      63.098  64.775  69.666  0.00  0.00    +0.000 C 
ATOM      9  O   UNL     1      63.396  65.059  68.951  0.00  0.00    +0.000 OA
ATOM     10  CA  UNL     1      62.463  64.247  69.667  0.00  0.00    +0.000 C 
ATOM     11  N   UNL     1      62.128  64.004  68.954  0.00  0.00    +0.000 NA
ATOM     12  C   UNL     1      61.493  63.476  68.956  0.00  0.00    +0.000 C 
ATOM     13  O   UNL     1      61.194  63.193  69.671  0.00  0.00    +0.000 OA
ATOM     14  C   UNL     1      61.157  63.233  68.242  0.00  0.00    +0.000 A 
ATOM     15  C   UNL     1      60.523  62.705  68.244  0.00  0.00    +0.000 A 
ATOM     16  O   UNL     1      60.224  62.422  68.958  0.00  0.00    +0.000 OA
ATOM     17  C   UNL     1      60.188  62.462  67.530  0.00  0.00    +0.000 A 
ATOM     18  N   UNL     1      59.554  61.935  67.532  0.00  0.00    +0.000 NA
ATOM     19  C   UNL     1      59.218  61.691  66.819  0.00  0.00    +0.000 A 
ATOM     20  C   UNL     1      59.516  61.975  66.104  0.00  0.00    +0.000 A 
ATOM     21  C   UNL     1      60.151  62.502  66.103  0.00  0.00    +0.000 A 
ATOM     22  C   UNL     1      60.486  62.746  66.815  0.00  0.00    +0.000 A 
ATOM     23  N   UNL     1      61.121  63.273  66.815  0.00  0.00    +0.000 NA
ATOM     24  C   UNL     1      61.457  63.517  67.528  0.00  0.00    +0.000 A 
ATOM     25  C   UNL     1      62.164  63.964  70.382  0.00  0.00    +0.000 A 
ATOM     26  C   UNL     1      62.500  64.207  71.095  0.00  0.00    +0.000 A 
ATOM     27  C   UNL     1      62.201  63.923  71.810  0.00  0.00    +0.000 A 
ATOM     28  C   UNL     1      61.566  63.395  71.812  0.00  0.00    +0.000 A 
ATOM     29  C   UNL     1      61.231  63.152  71.098  0.00  0.00    +0.000 A 
ATOM     30  C   UNL     1      61.530  63.436  70.384  0.00  0.00    +0.000 A 
ATOM     31  C   UNL     1      64.500  65.936  69.794  0.00  0.00    +0.000 C 
ATOM     32  O   UNL     1      64.480  65.959  68.969  0.00  0.00    +0.000 OA
ATOM     33  N   UNL     1      64.964  66.292  70.376  0.00  0.00    +0.000 N 
ATOM     34  CA  UNL     1      65.539  66.752  70.749  0.00  0.00    +0.000 C 
ATOM     35  C   UNL     1      66.095  67.232  70.373  0.00  0.00    +0.000 C 
ATOM     36  O   UNL     1      66.107  67.283  69.550  0.00  0.00    +0.000 OA
ATOM     37  OXT UNL     1      66.638  67.662  70.822  0.00  0.00    +0.000 OA
ENDROOT
TORSDOF 0
ENDMDL
MODEL 4
REMARK VINA RESULT:   -14.933      3.157      5.992
REMARK INTER + INTRA:         -14.933
REMARK INTER:                 -14.933
REMARK INTRA:                   0.000
REMARK UNBOUND:                 0.000
ROOT
REMARK  Name = apalcillin
REMARK                            x       y       z     vdW  Elec       q    Type
REMARK                         _______ _______ _______ _____ _____    ______ ____
ATOM      1  C   UNL     1      58.927  61.994  66.472  0.00  0.00    +0.000 C 
ATOM      2  C   UNL     1      59.739  62.106  66.376  0.00  0.00    +0.000 C 
ATOM      3  C   UNL     1      59.638  61.628  65.711  0.00  0.00    +0.000 C 
ATOM      4  S   UNL     1      59.669  62.561  67.061  0.00  0.00    +0.000 S 
ATOM      5  C   UNL     1      60.417  62.854  67.249  0.00  0.00    +0.000 C 
ATOM      6  CA  UNL     1      61.031  63.251  67.631  0.00  0.00    +0.000 C 
ATOM      7  N   UNL     1      61.089  63.726  68.304  0.00  0.00    +0.000 NA
ATOM      8  C   UNL     1      61.820  64.038  68.526  0.00  0.00    +0.000 C 
ATOM      9  O   UNL     1      62.492  63.877  68.076  0.00  0.00    +0.000 OA
ATOM     10  CA  UNL     1      61.878  64.513  69.199  0.00  0.00    +0.000 C 
ATOM     11  N   UNL     1      62.608  64.825  69.420  0.00  0.00    +0.000 NA
ATOM     12  C   UNL     1      62.666  65.300  70.093  0.00  0.00    +0.000 C 
ATOM     13  O   UNL     1      61.994  65.462  70.543  0.00  0.00    +0.000 OA
ATOM     14  C   UNL     1      63.397  65.613  70.315  0.00  0.00    +0.000 A 
ATOM     15  C   UNL     1      63.454  66.087  70.988  0.00  0.00    +0.000 A 
ATOM     16  O   UNL     1      62.783  66.249  71.438  0.00  0.00    +0.000 OA
ATOM     17  C   UNL     1      64.185  66.400  71.210  0.00  0.00    +0.000 A 
ATOM     18  N   UNL     1      64.243  66.874  71.882  0.00  0.00    +0.000 NA
ATOM     19  C   UNL     1      64.973  67.187  72.105  0.00  0.00    +0.000 A 
ATOM     20  C   UNL     1      65.646  67.026  71.655  0.00  0.00    +0.000 A 
ATOM     21  C   UNL     1      65.587  66.551  70.982  0.00  0.00    +0.000 A 
ATOM     22  C   UNL     1      64.858  66.238  70.760  0.00  0.00    +0.000 A 
ATOM     23  N   UNL     1      64.799  65.764  70.088  0.00  0.00    +0.000 NA
ATOM     24  C   UNL     1      64.069  65.451  69.865  0.00  0.00    +0.000 A 
ATOM     25  C   UNL     1      61.205  64.675  69.649  0.00  0.00    +0.000 A 
ATOM     26  C   UNL     1      60.475  64.362  69.426  0.00  0.00    +0.000 A 
ATOM     27  C   UNL     1      59.803  64.524  69.876  0.00  0.00    +0.000 A 
ATOM     28  C   UNL     1      59.861  64.998  70.549  0.00  0.00    +0.000 A 
ATOM     29  C   UNL     1      60.592  65.311  70.771  0.00  0.00    +0.000 A 
ATOM     30  C   UNL     1      61.264  65.149  70.321  0.00  0.00    +0.000 A 
ATOM     31  C   UNL     1      61.562  62.978  67.063  0.00  0.00    +0.000 C 
ATOM     32  O   UNL     1      62.372  63.064  66.931  0.00  0.00    +0.000 OA
ATOM     33  N   UNL     1      60.949  62.581  66.681  0.00  0.00    +0.000 N 
ATOM     34  CA  UNL     1      60.529  62.118  66.141  0.00  0.00    +0.000 C 
ATOM     35  C   UNL     1      60.845  61.735  65.482  0.00  0.00    +0.000 C 
ATOM     36  O   UNL     1      61.651  61.797  65.315  0.00  0.00    +0.000 OA
ATOM     37  OXT UNL     1      60.355  61.290  64.990  0.00  0.00    +0.000 OA
ENDROOT
TORSDOF 0
ENDMDL
MODEL 5
REMARK VINA RESULT:   -14.920      1.998      6.337
REMARK INTER + INTRA:         -14.920
REMARK INTER:                 -14.920
REMARK INTRA:                   0.000
REMARK UNBOUND:                 0.000
ROOT
REMARK  Name = apalcillin
REMARK                            x       y       z     vdW  Elec       q    Type
REMARK                         _______ _______ _______ _____ _____    ______ ____
ATOM      1  C   UNL     1      62.377  61.813  65.363  0.00  0.00    +0.000 C 
ATOM      2  C   UNL     1      61.614  61.943  65.648  0.00  0.00    +0.000 C 
ATOM      3  C   UNL     1      61.387  61.483  65.001  0.00  0.00    +0.000 C 
ATOM      4  S   UNL     1      62.001  62.375  66.235  0.00  0.00    +0.000 S 
ATOM      5  C   UNL     1      61.429  62.677  66.748  0.00  0.00    +0.000 C 
ATOM      6  CA  UNL     1      61.068  63.074  67.374  0.00  0.00    +0.000 C 
ATOM      7  N   UNL     1      61.335  63.528  68.008  0.00  0.00    +0.000 NA
ATOM      8  C   UNL     1      60.795  63.848  68.544  0.00  0.00    +0.000 C 
ATOM      9  O   UNL     1      59.987  63.713  68.446  0.00  0.00    +0.000 OA
ATOM     10  CA  UNL     1      61.063  64.303  69.178  0.00  0.00    +0.000 C 
ATOM     11  N   UNL     1      60.522  64.622  69.713  0.00  0.00    +0.000 NA
ATOM     12  C   UNL     1      60.790  65.077  70.348  0.00  0.00    +0.000 C 
ATOM     13  O   UNL     1      61.599  65.212  70.446  0.00  0.00    +0.000 OA
ATOM     14  C   UNL     1      60.250  65.397  70.883  0.00  0.00    +0.000 A 
ATOM     15  C   UNL     1      60.518  65.851  71.517  0.00  0.00    +0.000 A 
ATOM     16  O   UNL     1      61.325  65.987  71.616  0.00  0.00    +0.000 OA
ATOM     17  C   UNL     1      59.978  66.171  72.053  0.00  0.00    +0.000 A 
ATOM     18  N   UNL     1      60.245  66.625  72.687  0.00  0.00    +0.000 NA
ATOM     19  C   UNL     1      59.706  66.945  73.222  0.00  0.00    +0.000 A 
ATOM     20  C   UNL     1      58.897  66.810  73.124  0.00  0.00    +0.000 A 
ATOM     21  C   UNL     1      58.630  66.355  72.490  0.00  0.00    +0.000 A 
ATOM     22  C   UNL     1      59.170  66.036  71.955  0.00  0.00    +0.000 A 
ATOM     23  N   UNL     1      58.902  65.581  71.320  0.00  0.00    +0.000 NA
ATOM     24  C   UNL     1      59.442  65.261  70.784  0.00  0.00    +0.000 A 
ATOM     25  C   UNL     1      61.871  64.438  69.277  0.00  0.00    +0.000 A 
ATOM     26  C   UNL     1      62.410  64.118  68.741  0.00  0.00    +0.000 A 
ATOM     27  C   UNL     1      63.218  64.254  68.840  0.00  0.00    +0.000 A 
ATOM     28  C   UNL     1      63.487  64.709  69.474  0.00  0.00    +0.000 A 
ATOM     29  C   UNL     1      62.946  65.028  70.009  0.00  0.00    +0.000 A 
ATOM     30  C   UNL     1      62.138  64.893  69.910  0.00  0.00    +0.000 A 
ATOM     31  C   UNL     1      60.328  62.827  67.104  0.00  0.00    +0.000 C 
ATOM     32  O   UNL     1      59.549  62.933  67.356  0.00  0.00    +0.000 OA
ATOM     33  N   UNL     1      60.689  62.430  66.478  0.00  0.00    +0.000 N 
ATOM     34  CA  UNL     1      60.804  61.977  65.798  0.00  0.00    +0.000 C 
ATOM     35  C   UNL     1      60.212  61.620  65.347  0.00  0.00    +0.000 C 
ATOM     36  O   UNL     1      59.421  61.702  65.566  0.00  0.00    +0.000 OA
ATOM     37  OXT UNL     1      60.412  61.180  64.678  0.00  0.00    +0.000 OA
ENDROOT
TORSDOF 0
ENDMDL
