MODEL 1
REMARK VINA RESULT:   -12.599      0.000      0.000
REMARK INTER + INTRA:         -12.599
REMARK INTER:                 -12.599
REMARK INTRA:                   0.000
REMARK UNBOUND:                 0.000
ROOT
REMARK  Name = aprindine
REMARK                            x       y       z     vdW  Elec       q    Type
REMARK                         _______ _______ _______ _____ _____    ______ ____
ATOM      1  C   UNL     1      59.486  66.843  70.425  0.00  0.00    +0.000 C 
ATOM      2  C   UNL     1      59.755  66.472  69.739  0.00  0.00    +0.000 C 
ATOM      3  N   UNL     1      59.899  65.659  69.740  0.00  0.00    +0.000 NA
ATOM      4  C   UNL     1      59.775  65.218  70.425  0.00  0.00    +0.000 C 
ATOM      5  C   UNL     1      59.919  64.407  70.425  0.00  0.00    +0.000 C 
ATOM      6  C   UNL     1      60.168  65.289  69.053  0.00  0.00    +0.000 C 
ATOM      7  C   UNL     1      60.313  64.476  69.054  0.00  0.00    +0.000 C 
ATOM      8  C   UNL     1      60.582  64.106  68.367  0.00  0.00    +0.000 C 
ATOM      9  N   UNL     1      60.727  63.293  68.368  0.00  0.00    +0.000 N 
ATOM     10  C   UNL     1      60.996  62.922  67.681  0.00  0.00    +0.000 C 
ATOM     11  C   UNL     1      61.145  63.289  66.958  0.00  0.00    +0.000 C 
ATOM     12  C   UNL     1      61.404  62.712  66.428  0.00  0.00    +0.000 A 
ATOM     13  C   UNL     1      61.416  61.989  66.824  0.00  0.00    +0.000 A 
ATOM     14  C   UNL     1      61.163  62.118  67.599  0.00  0.00    +0.000 C 
ATOM     15  C   UNL     1      61.654  61.306  66.428  0.00  0.00    +0.000 A 
ATOM     16  C   UNL     1      61.882  61.346  65.636  0.00  0.00    +0.000 A 
ATOM     17  C   UNL     1      61.870  62.070  65.240  0.00  0.00    +0.000 A 
ATOM     18  C   UNL     1      61.631  62.753  65.636  0.00  0.00    +0.000 A 
ATOM     19  C   UNL     1      60.602  62.851  69.054  0.00  0.00    +0.000 A 
ATOM     20  C   UNL     1      60.333  63.223  69.739  0.00  0.00    +0.000 A 
ATOM     21  C   UNL     1      60.208  62.782  70.425  0.00  0.00    +0.000 A 
ATOM     22  C   UNL     1      60.353  61.969  70.425  0.00  0.00    +0.000 A 
ATOM     23  C   UNL     1      60.622  61.599  69.739  0.00  0.00    +0.000 A 
ATOM     24  C   UNL     1      60.746  62.040  69.053  0.00  0.00    +0.000 A 
ENDROOT
TORSDOF 0
ENDMDL
MODEL 2
REMARK VINA RESULT:   -12.187      3.519      4.948
REMARK INTER + INTRA:         -12.187
REMARK INTER:                 -12.187
REMARK INTRA:                   0.000
REMARK UNBOUND:                 0.000
ROOT
REMARK  Name = aprindine
REMARK                            x       y       z     vdW  Elec       q    Type
REMARK                         _______ _______ _______ _____ _____    ______ ____
ATOM      1  C   UNL     1      60.627  62.521  67.777  0.00  0.00    +0.000 C 
ATOM      2  C   UNL     1      61.250  63.054  67.864  0.00  0.00    +0.000 C 
ATOM      3  N   UNL     1      61.432  63.357  68.611  0.00  0.00    +0.000 NA
ATOM      4  C   UNL     1      60.991  63.126  69.269  0.00  0.00    +0.000 C 
ATOM      5  C   UNL     1      61.173  63.428  70.014  0.00  0.00    +0.000 C 
ATOM      6  C   UNL     1      62.055  63.890  68.698  0.00  0.00    +0.000 C 
ATOM      7  C   UNL     1      62.237  64.193  69.445  0.00  0.00    +0.000 C 
ATOM      8  C   UNL     1      62.860  64.726  69.532  0.00  0.00    +0.000 C 
ATOM      9  N   UNL     1      63.042  65.029  70.279  0.00  0.00    +0.000 N 
ATOM     10  C   UNL     1      63.665  65.562  70.366  0.00  0.00    +0.000 C 
ATOM     11  C   UNL     1      64.152  65.843  69.763  0.00  0.00    +0.000 C 
ATOM     12  C   UNL     1      64.699  66.363  70.097  0.00  0.00    +0.000 A 
ATOM     13  C   UNL     1      64.548  66.404  70.907  0.00  0.00    +0.000 A 
ATOM     14  C   UNL     1      63.910  65.909  71.074  0.00  0.00    +0.000 C 
ATOM     15  C   UNL     1      65.013  66.887  71.389  0.00  0.00    +0.000 A 
ATOM     16  C   UNL     1      65.628  67.329  71.060  0.00  0.00    +0.000 A 
ATOM     17  C   UNL     1      65.777  67.287  70.250  0.00  0.00    +0.000 A 
ATOM     18  C   UNL     1      65.313  66.804  69.768  0.00  0.00    +0.000 A 
ATOM     19  C   UNL     1      62.601  64.798  70.936  0.00  0.00    +0.000 A 
ATOM     20  C   UNL     1      61.977  64.264  70.848  0.00  0.00    +0.000 A 
ATOM     21  C   UNL     1      61.536  64.033  71.505  0.00  0.00    +0.000 A 
ATOM     22  C   UNL     1      61.718  64.335  72.252  0.00  0.00    +0.000 A 
ATOM     23  C   UNL     1      62.341  64.869  72.339  0.00  0.00    +0.000 A 
ATOM     24  C   UNL     1      62.782  65.100  71.681  0.00  0.00    +0.000 A 
ENDROOT
TORSDOF 0
ENDMDL
MODEL 3
REMARK VINA RESULT:   -12.135      2.267      4.122
REMARK INTER + INTRA:         -12.135
REMARK INTER:                 -12.135
REMARK INTRA:                   0.000
REMARK UNBOUND:                 0.000
ROOT
REMARK  Name = aprindine
REMARK                            x       y       z     vdW  Elec       q    Type
REMARK                         _______ _______ _______ _____ _____    ______ ____
ATOM      1  C   UNL     1      59.893  62.005  66.096  0.00  0.00    +0.000 C 
ATOM      2  C   UNL     1      60.414  62.552  66.427  0.00  0.00    +0.000 C 
ATOM      3  N   UNL     1      60.542  62.555  67.243  0.00  0.00    +0.000 NA
ATOM      4  C   UNL     1      60.150  62.013  67.725  0.00  0.00    +0.000 C 
ATOM      5  C   UNL     1      60.279  62.017  68.540  0.00  0.00    +0.000 C 
ATOM      6  C   UNL     1      61.064  63.102  67.575  0.00  0.00    +0.000 C 
ATOM      7  C   UNL     1      61.192  63.106  68.391  0.00  0.00    +0.000 C 
ATOM      8  C   UNL     1      61.714  63.652  68.723  0.00  0.00    +0.000 C 
ATOM      9  N   UNL     1      61.842  63.656  69.538  0.00  0.00    +0.000 N 
ATOM     10  C   UNL     1      62.363  64.202  69.870  0.00  0.00    +0.000 C 
ATOM     11  C   UNL     1      62.793  64.775  69.461  0.00  0.00    +0.000 C 
ATOM     12  C   UNL     1      63.242  65.198  70.008  0.00  0.00    +0.000 A 
ATOM     13  C   UNL     1      63.089  64.887  70.757  0.00  0.00    +0.000 A 
ATOM     14  C   UNL     1      62.546  64.272  70.672  0.00  0.00    +0.000 C 
ATOM     15  C   UNL     1      63.464  65.205  71.420  0.00  0.00    +0.000 A 
ATOM     16  C   UNL     1      63.992  65.834  71.333  0.00  0.00    +0.000 A 
ATOM     17  C   UNL     1      64.144  66.144  70.584  0.00  0.00    +0.000 A 
ATOM     18  C   UNL     1      63.769  65.826  69.922  0.00  0.00    +0.000 A 
ATOM     19  C   UNL     1      61.450  63.114  70.021  0.00  0.00    +0.000 A 
ATOM     20  C   UNL     1      60.929  62.568  69.687  0.00  0.00    +0.000 A 
ATOM     21  C   UNL     1      60.536  62.025  70.169  0.00  0.00    +0.000 A 
ATOM     22  C   UNL     1      60.665  62.029  70.985  0.00  0.00    +0.000 A 
ATOM     23  C   UNL     1      61.186  62.576  71.317  0.00  0.00    +0.000 A 
ATOM     24  C   UNL     1      61.578  63.118  70.835  0.00  0.00    +0.000 A 
ENDROOT
TORSDOF 0
ENDMDL
MODEL 4
REMARK VINA RESULT:   -12.101      1.678      4.737
REMARK INTER + INTRA:         -12.101
REMARK INTER:                 -12.101
REMARK INTRA:                   0.000
REMARK UNBOUND:                 0.000
ROOT
REMARK  Name = aprindine
REMARK                            x       y       z     vdW  Elec       q    Type
REMARK                         _______ _______ _______ _____ _____    ______ ____
ATOM      1  C   UNL     1      62.737  61.487  63.207  0.00  0.00    +0.000 C 
ATOM      2  C   UNL     1      62.839  61.849  63.941  0.00  0.00    +0.000 C 
ATOM      3  N   UNL     1      62.201  61.912  64.461  0.00  0.00    +0.000 NA
ATOM      4  C   UNL     1      61.462  61.613  64.247  0.00  0.00    +0.000 C 
ATOM      5  C   UNL     1      60.826  61.677  64.767  0.00  0.00    +0.000 C 
ATOM      6  C   UNL     1      62.303  62.274  65.195  0.00  0.00    +0.000 C 
ATOM      7  C   UNL     1      61.665  62.338  65.716  0.00  0.00    +0.000 C 
ATOM      8  C   UNL     1      61.767  62.700  66.450  0.00  0.00    +0.000 C 
ATOM      9  N   UNL     1      61.129  62.763  66.970  0.00  0.00    +0.000 N 
ATOM     10  C   UNL     1      61.230  63.125  67.704  0.00  0.00    +0.000 C 
ATOM     11  C   UNL     1      61.932  63.448  67.994  0.00  0.00    +0.000 C 
ATOM     12  C   UNL     1      61.783  63.750  68.747  0.00  0.00    +0.000 A 
ATOM     13  C   UNL     1      60.988  63.614  68.923  0.00  0.00    +0.000 A 
ATOM     14  C   UNL     1      60.647  63.228  68.279  0.00  0.00    +0.000 C 
ATOM     15  C   UNL     1      60.679  63.859  69.647  0.00  0.00    +0.000 A 
ATOM     16  C   UNL     1      61.164  64.241  70.195  0.00  0.00    +0.000 A 
ATOM     17  C   UNL     1      61.958  64.377  70.018  0.00  0.00    +0.000 A 
ATOM     18  C   UNL     1      62.268  64.132  69.294  0.00  0.00    +0.000 A 
ATOM     19  C   UNL     1      60.390  62.464  66.756  0.00  0.00    +0.000 A 
ATOM     20  C   UNL     1      60.290  62.102  66.021  0.00  0.00    +0.000 A 
ATOM     21  C   UNL     1      59.551  61.803  65.807  0.00  0.00    +0.000 A 
ATOM     22  C   UNL     1      58.913  61.866  66.327  0.00  0.00    +0.000 A 
ATOM     23  C   UNL     1      59.015  62.228  67.061  0.00  0.00    +0.000 A 
ATOM     24  C   UNL     1      59.753  62.527  67.276  0.00  0.00    +0.000 A 
ENDROOT
TORSDOF 0
ENDMDL
MODEL 5
REMARK VINA RESULT:   -12.097      1.996      2.785
REMARK INTER + INTRA:         -12.097
REMARK INTER:                 -12.097
REMARK INTRA:                   0.000
REMARK UNBOUND:                 0.000
ROOT
REMARK  Name = aprindine
REMARK                            x       y       z     vdW  Elec       q    Type
REMARK                         _______ _______ _______ _____ _____    ______ ____
ATOM      1  C   UNL     1      61.640  67.635  72.882  0.00  0.00    +0.000 C 
ATOM      2  C   UNL     1      61.428  67.235  72.193  0.00  0.00    +0.000 C 
ATOM      3  N   UNL     1      61.432  66.409  72.177  0.00  0.00    +0.000 NA
ATOM      4  C   UNL     1      61.648  65.985  72.850  0.00  0.00    +0.000 C 
ATOM      5  C   UNL     1      61.653  65.161  72.834  0.00  0.00    +0.000 C 
ATOM      6  C   UNL     1      61.220  66.010  71.487  0.00  0.00    +0.000 C 
ATOM      7  C   UNL     1      61.224  65.184  71.472  0.00  0.00    +0.000 C 
ATOM      8  C   UNL     1      61.012  64.784  70.782  0.00  0.00    +0.000 C 
ATOM      9  N   UNL     1      61.016  63.959  70.766  0.00  0.00    +0.000 N 
ATOM     10  C   UNL     1      60.803  63.559  70.077  0.00  0.00    +0.000 C 
ATOM     11  C   UNL     1      60.576  63.906  69.364  0.00  0.00    +0.000 C 
ATOM     12  C   UNL     1      60.413  63.303  68.826  0.00  0.00    +0.000 A 
ATOM     13  C   UNL     1      60.541  62.582  69.206  0.00  0.00    +0.000 A 
ATOM     14  C   UNL     1      60.782  62.740  69.979  0.00  0.00    +0.000 C 
ATOM     15  C   UNL     1      60.420  61.874  68.799  0.00  0.00    +0.000 A 
ATOM     16  C   UNL     1      60.173  61.888  68.011  0.00  0.00    +0.000 A 
ATOM     17  C   UNL     1      60.045  62.610  67.632  0.00  0.00    +0.000 A 
ATOM     18  C   UNL     1      60.166  63.317  68.039  0.00  0.00    +0.000 A 
ATOM     19  C   UNL     1      61.232  63.534  71.440  0.00  0.00    +0.000 A 
ATOM     20  C   UNL     1      61.444  63.935  72.129  0.00  0.00    +0.000 A 
ATOM     21  C   UNL     1      61.661  63.511  72.803  0.00  0.00    +0.000 A 
ATOM     22  C   UNL     1      61.665  62.685  72.787  0.00  0.00    +0.000 A 
ATOM     23  C   UNL     1      61.453  62.286  72.097  0.00  0.00    +0.000 A 
ATOM     24  C   UNL     1      61.236  62.710  71.424  0.00  0.00    +0.000 A 
ENDROOT
TORSDOF 0
ENDMDL
MODEL 6
REMARK VINA RESULT:   -11.890      2.254      2.522
REMARK INTER + INTRA:         -11.890
REMARK INTER:                 -11.890
REMARK INTRA:                   0.000
REMARK UNBOUND:                 0.000
ROOT
REMARK  Name = aprindine
REMARK                            x       y       z     vdW  Elec       q    Type
REMARK                         _______ _______ _______ _____ _____    ______ ____
ATOM      1  C   UNL     1      64.842  65.752  70.924  0.00  0.00    +0.000 C 
ATOM      2  C   UNL     1      64.450  65.459  70.260  0.00  0.00    +0.000 C 
ATOM      3  N   UNL     1      63.762  65.012  70.352  0.00  0.00    +0.000 NA
ATOM      4  C   UNL     1      63.466  64.859  71.107  0.00  0.00    +0.000 C 
ATOM      5  C   UNL     1      62.779  64.412  71.198  0.00  0.00    +0.000 C 
ATOM      6  C   UNL     1      63.371  64.718  69.688  0.00  0.00    +0.000 C 
ATOM      7  C   UNL     1      62.682  64.271  69.779  0.00  0.00    +0.000 C 
ATOM      8  C   UNL     1      62.291  63.977  69.115  0.00  0.00    +0.000 C 
ATOM      9  N   UNL     1      61.603  63.530  69.207  0.00  0.00    +0.000 N 
ATOM     10  C   UNL     1      61.211  63.236  68.543  0.00  0.00    +0.000 C 
ATOM     11  C   UNL     1      61.439  63.343  67.757  0.00  0.00    +0.000 C 
ATOM     12  C   UNL     1      60.891  62.956  67.277  0.00  0.00    +0.000 A 
ATOM     13  C   UNL     1      60.324  62.610  67.766  0.00  0.00    +0.000 A 
ATOM     14  C   UNL     1      60.521  62.783  68.548  0.00  0.00    +0.000 C 
ATOM     15  C   UNL     1      59.701  62.183  67.436  0.00  0.00    +0.000 A 
ATOM     16  C   UNL     1      59.645  62.101  66.616  0.00  0.00    +0.000 A 
ATOM     17  C   UNL     1      60.213  62.447  66.128  0.00  0.00    +0.000 A 
ATOM     18  C   UNL     1      60.836  62.875  66.458  0.00  0.00    +0.000 A 
ATOM     19  C   UNL     1      61.307  63.377  69.962  0.00  0.00    +0.000 A 
ATOM     20  C   UNL     1      61.700  63.672  70.625  0.00  0.00    +0.000 A 
ATOM     21  C   UNL     1      61.404  63.519  71.380  0.00  0.00    +0.000 A 
ATOM     22  C   UNL     1      60.716  63.072  71.472  0.00  0.00    +0.000 A 
ATOM     23  C   UNL     1      60.325  62.778  70.808  0.00  0.00    +0.000 A 
ATOM     24  C   UNL     1      60.620  62.931  70.053  0.00  0.00    +0.000 A 
ENDROOT
TORSDOF 0
ENDMDL
MODEL 7
REMARK VINA RESULT:   -11.466      3.968      4.197
REMARK INTER + INTRA:         -11.466
REMARK INTER:                 -11.466
REMARK INTRA:                   0.000
REMARK UNBOUND:                 0.000
ROOT
REMARK  Name = aprindine
REMARK                            x       y       z     vdW  Elec       q    Type
REMARK                         _______ _______ _______ _____ _____    ______ ____
ATOM      1  C   UNL     1      58.160  66.929  73.185  0.00  0.00    +0.000 C 
ATOM      2  C   UNL     1      58.846  67.015  72.735  0.00  0.00    +0.000 C 
ATOM      3  N   UNL     1      59.358  66.375  72.638  0.00  0.00    +0.000 NA
ATOM      4  C   UNL     1      59.184  65.650  72.992  0.00  0.00    +0.000 C 
ATOM      5  C   UNL     1      59.696  65.011  72.896  0.00  0.00    +0.000 C 
ATOM      6  C   UNL     1      60.043  66.460  72.187  0.00  0.00    +0.000 C 
ATOM      7  C   UNL     1      60.556  65.820  72.091  0.00  0.00    +0.000 C 
ATOM      8  C   UNL     1      61.241  65.906  71.640  0.00  0.00    +0.000 C 
ATOM      9  N   UNL     1      61.754  65.266  71.544  0.00  0.00    +0.000 N 
ATOM     10  C   UNL     1      62.439  65.351  71.093  0.00  0.00    +0.000 C 
ATOM     11  C   UNL     1      62.685  66.038  70.707  0.00  0.00    +0.000 C 
ATOM     12  C   UNL     1      63.397  65.875  70.325  0.00  0.00    +0.000 A 
ATOM     13  C   UNL     1      63.592  65.088  70.474  0.00  0.00    +0.000 A 
ATOM     14  C   UNL     1      63.001  64.763  70.948  0.00  0.00    +0.000 C 
ATOM     15  C   UNL     1      64.284  64.767  70.158  0.00  0.00    +0.000 A 
ATOM     16  C   UNL     1      64.781  65.235  69.693  0.00  0.00    +0.000 A 
ATOM     17  C   UNL     1      64.585  66.022  69.544  0.00  0.00    +0.000 A 
ATOM     18  C   UNL     1      63.893  66.343  69.860  0.00  0.00    +0.000 A 
ATOM     19  C   UNL     1      61.580  64.541  71.898  0.00  0.00    +0.000 A 
ATOM     20  C   UNL     1      60.894  64.457  72.349  0.00  0.00    +0.000 A 
ATOM     21  C   UNL     1      60.721  63.732  72.703  0.00  0.00    +0.000 A 
ATOM     22  C   UNL     1      61.233  63.092  72.606  0.00  0.00    +0.000 A 
ATOM     23  C   UNL     1      61.918  63.177  72.156  0.00  0.00    +0.000 A 
ATOM     24  C   UNL     1      62.092  63.902  71.801  0.00  0.00    +0.000 A 
ENDROOT
TORSDOF 0
ENDMDL
MODEL 8
REMARK VINA RESULT:   -10.862      3.452      4.868
REMARK INTER + INTRA:         -10.862
REMARK INTER:                 -10.862
REMARK INTRA:                   0.000
REMARK UNBOUND:                 0.000
ROOT
REMARK  Name = aprindine
REMARK                            x       y       z     vdW  Elec       q    Type
REMARK                         _______ _______ _______ _____ _____    ______ ____
ATOM      1  C   UNL     1      58.597  65.007  72.533  0.00  0.00    +0.000 C 
ATOM      2  C   UNL     1      59.332  65.381  72.550  0.00  0.00    +0.000 C 
ATOM      3  N   UNL     1      59.904  65.192  71.985  0.00  0.00    +0.000 NA
ATOM      4  C   UNL     1      59.741  64.629  71.405  0.00  0.00    +0.000 C 
ATOM      5  C   UNL     1      60.312  64.441  70.842  0.00  0.00    +0.000 C 
ATOM      6  C   UNL     1      60.639  65.567  72.003  0.00  0.00    +0.000 C 
ATOM      7  C   UNL     1      61.211  65.378  71.438  0.00  0.00    +0.000 C 
ATOM      8  C   UNL     1      61.946  65.753  71.455  0.00  0.00    +0.000 C 
ATOM      9  N   UNL     1      62.518  65.563  70.890  0.00  0.00    +0.000 N 
ATOM     10  C   UNL     1      63.252  65.938  70.908  0.00  0.00    +0.000 C 
ATOM     11  C   UNL     1      63.494  66.509  71.451  0.00  0.00    +0.000 C 
ATOM     12  C   UNL     1      64.266  66.731  71.263  0.00  0.00    +0.000 A 
ATOM     13  C   UNL     1      64.502  66.297  70.602  0.00  0.00    +0.000 A 
ATOM     14  C   UNL     1      63.876  65.807  70.382  0.00  0.00    +0.000 C 
ATOM     15  C   UNL     1      65.256  66.404  70.286  0.00  0.00    +0.000 A 
ATOM     16  C   UNL     1      65.775  66.945  70.631  0.00  0.00    +0.000 A 
ATOM     17  C   UNL     1      65.539  67.379  71.291  0.00  0.00    +0.000 A 
ATOM     18  C   UNL     1      64.784  67.272  71.608  0.00  0.00    +0.000 A 
ATOM     19  C   UNL     1      62.354  65.000  70.310  0.00  0.00    +0.000 A 
ATOM     20  C   UNL     1      61.619  64.626  70.294  0.00  0.00    +0.000 A 
ATOM     21  C   UNL     1      61.456  64.063  69.714  0.00  0.00    +0.000 A 
ATOM     22  C   UNL     1      62.028  63.874  69.149  0.00  0.00    +0.000 A 
ATOM     23  C   UNL     1      62.763  64.249  69.166  0.00  0.00    +0.000 A 
ATOM     24  C   UNL     1      62.926  64.812  69.747  0.00  0.00    +0.000 A 
ENDROOT
TORSDOF 0
ENDMDL
MODEL 9
REMARK VINA RESULT:   -10.094     24.487     25.990
REMARK INTER + INTRA:         -10.094
REMARK INTER:                 -10.094
REMARK INTRA:                   0.000
REMARK UNBOUND:                 0.000
ROOT
REMARK  Name = aprindine
REMARK                            x       y       z     vdW  Elec       q    Type
REMARK                         _______ _______ _______ _____ _____    ______ ____
ATOM      1  C   UNL     1      67.625  81.417  54.326  0.00  0.00    +0.000 C 
ATOM      2  C   UNL     1      67.819  81.027  53.626  0.00  0.00    +0.000 C 
ATOM      3  N   UNL     1      68.595  81.048  53.344  0.00  0.00    +0.000 NA
ATOM      4  C   UNL     1      69.175  81.458  53.763  0.00  0.00    +0.000 C 
ATOM      5  C   UNL     1      69.950  81.478  53.482  0.00  0.00    +0.000 C 
ATOM      6  C   UNL     1      68.789  80.657  52.644  0.00  0.00    +0.000 C 
ATOM      7  C   UNL     1      69.565  80.678  52.362  0.00  0.00    +0.000 C 
ATOM      8  C   UNL     1      69.760  80.287  51.662  0.00  0.00    +0.000 C 
ATOM      9  N   UNL     1      70.536  80.308  51.381  0.00  0.00    +0.000 N 
ATOM     10  C   UNL     1      70.730  79.918  50.680  0.00  0.00    +0.000 C 
ATOM     11  C   UNL     1      70.212  79.487  50.204  0.00  0.00    +0.000 C 
ATOM     12  C   UNL     1      70.639  79.193  49.563  0.00  0.00    +0.000 A 
ATOM     13  C   UNL     1      71.422  79.442  49.643  0.00  0.00    +0.000 A 
ATOM     14  C   UNL     1      71.478  79.890  50.333  0.00  0.00    +0.000 C 
ATOM     15  C   UNL     1      71.982  79.228  49.076  0.00  0.00    +0.000 A 
ATOM     16  C   UNL     1      71.759  78.766  48.429  0.00  0.00    +0.000 A 
ATOM     17  C   UNL     1      70.977  78.517  48.350  0.00  0.00    +0.000 A 
ATOM     18  C   UNL     1      70.417  78.731  48.917  0.00  0.00    +0.000 A 
ATOM     19  C   UNL     1      71.116  80.719  51.799  0.00  0.00    +0.000 A 
ATOM     20  C   UNL     1      70.920  81.109  52.500  0.00  0.00    +0.000 A 
ATOM     21  C   UNL     1      71.500  81.519  52.918  0.00  0.00    +0.000 A 
ATOM     22  C   UNL     1      72.276  81.540  52.637  0.00  0.00    +0.000 A 
ATOM     23  C   UNL     1      72.471  81.149  51.937  0.00  0.00    +0.000 A 
ATOM     24  C   UNL     1      71.890  80.739  51.518  0.00  0.00    +0.000 A 
ENDROOT
TORSDOF 0
ENDMDL
