MODEL 1
REMARK VINA RESULT:    -8.850      0.000      0.000
REMARK INTER + INTRA:          -8.850
REMARK INTER:                  -8.850
REMARK INTRA:                   0.000
REMARK UNBOUND:                 0.000
ROOT
REMARK  Name = aprobarbital
REMARK                            x       y       z     vdW  Elec       q    Type
REMARK                         _______ _______ _______ _____ _____    ______ ____
ATOM      1  C   UNL     1      62.436  62.185  64.784  0.00  0.00    +0.000 C 
ATOM      2  C   UNL     1      61.888  62.326  65.385  0.00  0.00    +0.000 C 
ATOM      3  C   UNL     1      62.098  62.790  66.033  0.00  0.00    +0.000 C 
ATOM      4  C   UNL     1      61.130  62.004  65.335  0.00  0.00    +0.000 C 
ATOM      5  C   UNL     1      61.453  61.716  64.634  0.00  0.00    +0.000 C 
ATOM      6  C   UNL     1      62.232  61.899  64.432  0.00  0.00    +0.000 C 
ATOM      7  C   UNL     1      62.556  61.611  63.730  0.00  0.00    +0.000 C 
ATOM      8  C   UNL     1      60.484  61.582  65.044  0.00  0.00    +0.000 C 
ATOM      9  O   UNL     1      60.545  61.182  64.325  0.00  0.00    +0.000 OA
ATOM     10  N   UNL     1      59.779  61.559  65.471  0.00  0.00    +0.000 NA
ATOM     11  C   UNL     1      59.719  61.959  66.189  0.00  0.00    +0.000 C 
ATOM     12  O   UNL     1      59.012  61.937  66.616  0.00  0.00    +0.000 OA
ATOM     13  N   UNL     1      60.364  62.382  66.482  0.00  0.00    +0.000 NA
ATOM     14  C   UNL     1      61.070  62.404  66.055  0.00  0.00    +0.000 C 
ATOM     15  O   UNL     1      61.716  62.827  66.347  0.00  0.00    +0.000 OA
ENDROOT
TORSDOF 0
ENDMDL
MODEL 2
REMARK VINA RESULT:    -8.815      0.882      1.735
REMARK INTER + INTRA:          -8.815
REMARK INTER:                  -8.815
REMARK INTRA:                   0.000
REMARK UNBOUND:                 0.000
ROOT
REMARK  Name = aprobarbital
REMARK                            x       y       z     vdW  Elec       q    Type
REMARK                         _______ _______ _______ _____ _____    ______ ____
ATOM      1  C   UNL     1      61.562  61.344  63.937  0.00  0.00    +0.000 C 
ATOM      2  C   UNL     1      61.151  61.502  64.636  0.00  0.00    +0.000 C 
ATOM      3  C   UNL     1      60.396  61.191  64.750  0.00  0.00    +0.000 C 
ATOM      4  C   UNL     1      61.497  61.973  65.219  0.00  0.00    +0.000 C 
ATOM      5  C   UNL     1      62.099  61.979  64.656  0.00  0.00    +0.000 C 
ATOM      6  C   UNL     1      62.006  61.567  63.947  0.00  0.00    +0.000 C 
ATOM      7  C   UNL     1      62.608  61.572  63.384  0.00  0.00    +0.000 C 
ATOM      8  C   UNL     1      62.050  62.445  65.607  0.00  0.00    +0.000 C 
ATOM      9  O   UNL     1      62.773  62.613  65.246  0.00  0.00    +0.000 OA
ATOM     10  N   UNL     1      61.882  62.748  66.356  0.00  0.00    +0.000 NA
ATOM     11  C   UNL     1      61.160  62.579  66.716  0.00  0.00    +0.000 C 
ATOM     12  O   UNL     1      60.991  62.883  67.465  0.00  0.00    +0.000 OA
ATOM     13  N   UNL     1      60.605  62.107  66.328  0.00  0.00    +0.000 NA
ATOM     14  C   UNL     1      60.773  61.804  65.579  0.00  0.00    +0.000 C 
ATOM     15  O   UNL     1      60.219  61.331  65.191  0.00  0.00    +0.000 OA
ENDROOT
TORSDOF 0
ENDMDL
MODEL 3
REMARK VINA RESULT:    -8.707      1.132      2.384
REMARK INTER + INTRA:          -8.707
REMARK INTER:                  -8.707
REMARK INTRA:                   0.000
REMARK UNBOUND:                 0.000
ROOT
REMARK  Name = aprobarbital
REMARK                            x       y       z     vdW  Elec       q    Type
REMARK                         _______ _______ _______ _____ _____    ______ ____
ATOM      1  C   UNL     1      60.283  62.364  66.541  0.00  0.00    +0.000 C 
ATOM      2  C   UNL     1      60.993  62.382  66.120  0.00  0.00    +0.000 C 
ATOM      3  C   UNL     1      61.643  62.788  66.425  0.00  0.00    +0.000 C 
ATOM      4  C   UNL     1      61.051  61.995  65.394  0.00  0.00    +0.000 C 
ATOM      5  C   UNL     1      60.269  61.821  65.585  0.00  0.00    +0.000 C 
ATOM      6  C   UNL     1      59.944  62.101  66.290  0.00  0.00    +0.000 C 
ATOM      7  C   UNL     1      59.161  61.927  66.482  0.00  0.00    +0.000 C 
ATOM      8  C   UNL     1      60.839  61.547  64.734  0.00  0.00    +0.000 C 
ATOM      9  O   UNL     1      60.076  61.239  64.674  0.00  0.00    +0.000 OA
ATOM     10  N   UNL     1      61.389  61.408  64.135  0.00  0.00    +0.000 NA
ATOM     11  C   UNL     1      62.151  61.716  64.196  0.00  0.00    +0.000 C 
ATOM     12  O   UNL     1      62.702  61.577  63.596  0.00  0.00    +0.000 OA
ATOM     13  N   UNL     1      62.365  62.164  64.856  0.00  0.00    +0.000 NA
ATOM     14  C   UNL     1      61.815  62.303  65.454  0.00  0.00    +0.000 C 
ATOM     15  O   UNL     1      62.028  62.751  66.115  0.00  0.00    +0.000 OA
ENDROOT
TORSDOF 0
ENDMDL
MODEL 4
REMARK VINA RESULT:    -7.862      6.936      8.044
REMARK INTER + INTRA:          -7.862
REMARK INTER:                  -7.862
REMARK INTRA:                   0.000
REMARK UNBOUND:                 0.000
ROOT
REMARK  Name = aprobarbital
REMARK                            x       y       z     vdW  Elec       q    Type
REMARK                         _______ _______ _______ _____ _____    ______ ____
ATOM      1  C   UNL     1      66.162  67.530  70.706  0.00  0.00    +0.000 C 
ATOM      2  C   UNL     1      65.650  66.979  71.049  0.00  0.00    +0.000 C 
ATOM      3  C   UNL     1      65.658  66.863  71.865  0.00  0.00    +0.000 C 
ATOM      4  C   UNL     1      65.133  66.547  70.574  0.00  0.00    +0.000 C 
ATOM      5  C   UNL     1      65.509  67.001  69.998  0.00  0.00    +0.000 C 
ATOM      6  C   UNL     1      66.096  67.540  70.214  0.00  0.00    +0.000 C 
ATOM      7  C   UNL     1      66.472  67.994  69.638  0.00  0.00    +0.000 C 
ATOM      8  C   UNL     1      64.746  66.271  69.900  0.00  0.00    +0.000 C 
ATOM      9  O   UNL     1      64.943  66.576  69.159  0.00  0.00    +0.000 OA
ATOM     10  N   UNL     1      64.162  65.692  69.967  0.00  0.00    +0.000 NA
ATOM     11  C   UNL     1      63.965  65.389  70.708  0.00  0.00    +0.000 C 
ATOM     12  O   UNL     1      63.381  64.809  70.775  0.00  0.00    +0.000 OA
ATOM     13  N   UNL     1      64.352  65.664  71.383  0.00  0.00    +0.000 NA
ATOM     14  C   UNL     1      64.936  66.243  71.316  0.00  0.00    +0.000 C 
ATOM     15  O   UNL     1      65.324  66.519  71.991  0.00  0.00    +0.000 OA
ENDROOT
TORSDOF 0
ENDMDL
MODEL 5
REMARK VINA RESULT:    -7.647      5.068      6.057
REMARK INTER + INTRA:          -7.647
REMARK INTER:                  -7.647
REMARK INTRA:                   0.000
REMARK UNBOUND:                 0.000
ROOT
REMARK  Name = aprobarbital
REMARK                            x       y       z     vdW  Elec       q    Type
REMARK                         _______ _______ _______ _____ _____    ______ ____
ATOM      1  C   UNL     1      61.080  63.422  72.264  0.00  0.00    +0.000 C 
ATOM      2  C   UNL     1      60.791  63.386  71.492  0.00  0.00    +0.000 C 
ATOM      3  C   UNL     1      60.433  64.049  71.155  0.00  0.00    +0.000 C 
ATOM      4  C   UNL     1      60.861  62.689  71.057  0.00  0.00    +0.000 C 
ATOM      5  C   UNL     1      61.216  62.453  71.762  0.00  0.00    +0.000 C 
ATOM      6  C   UNL     1      61.279  62.984  72.391  0.00  0.00    +0.000 C 
ATOM      7  C   UNL     1      61.635  62.749  73.097  0.00  0.00    +0.000 C 
ATOM      8  C   UNL     1      61.053  61.910  70.867  0.00  0.00    +0.000 C 
ATOM      9  O   UNL     1      61.433  61.432  71.422  0.00  0.00    +0.000 OA
ATOM     10  N   UNL     1      60.866  61.608  70.122  0.00  0.00    +0.000 NA
ATOM     11  C   UNL     1      60.487  62.086  69.568  0.00  0.00    +0.000 C 
ATOM     12  O   UNL     1      60.299  61.784  68.822  0.00  0.00    +0.000 OA
ATOM     13  N   UNL     1      60.293  62.866  69.757  0.00  0.00    +0.000 NA
ATOM     14  C   UNL     1      60.480  63.167  70.502  0.00  0.00    +0.000 C 
ATOM     15  O   UNL     1      60.287  63.947  70.692  0.00  0.00    +0.000 OA
ENDROOT
TORSDOF 0
ENDMDL
MODEL 6
REMARK VINA RESULT:    -7.617      6.052      6.934
REMARK INTER + INTRA:          -7.617
REMARK INTER:                  -7.617
REMARK INTRA:                   0.000
REMARK UNBOUND:                 0.000
ROOT
REMARK  Name = aprobarbital
REMARK                            x       y       z     vdW  Elec       q    Type
REMARK                         _______ _______ _______ _____ _____    ______ ____
ATOM      1  C   UNL     1      61.050  62.085  71.450  0.00  0.00    +0.000 C 
ATOM      2  C   UNL     1      61.133  62.685  72.011  0.00  0.00    +0.000 C 
ATOM      3  C   UNL     1      61.671  62.598  72.630  0.00  0.00    +0.000 C 
ATOM      4  C   UNL     1      60.678  63.370  71.952  0.00  0.00    +0.000 C 
ATOM      5  C   UNL     1      60.403  62.960  71.292  0.00  0.00    +0.000 C 
ATOM      6  C   UNL     1      60.708  62.213  71.113  0.00  0.00    +0.000 C 
ATOM      7  C   UNL     1      60.433  61.803  70.453  0.00  0.00    +0.000 C 
ATOM      8  C   UNL     1      60.128  63.913  71.665  0.00  0.00    +0.000 C 
ATOM      9  O   UNL     1      59.696  63.740  70.984  0.00  0.00    +0.000 OA
ATOM     10  N   UNL     1      60.011  64.629  72.058  0.00  0.00    +0.000 NA
ATOM     11  C   UNL     1      60.443  64.801  72.738  0.00  0.00    +0.000 C 
ATOM     12  O   UNL     1      60.326  65.518  73.131  0.00  0.00    +0.000 OA
ATOM     13  N   UNL     1      60.994  64.259  73.026  0.00  0.00    +0.000 NA
ATOM     14  C   UNL     1      61.111  63.543  72.633  0.00  0.00    +0.000 C 
ATOM     15  O   UNL     1      61.662  62.999  72.921  0.00  0.00    +0.000 OA
ENDROOT
TORSDOF 0
ENDMDL
MODEL 7
REMARK VINA RESULT:    -7.193      4.715      5.708
REMARK INTER + INTRA:          -7.193
REMARK INTER:                  -7.193
REMARK INTRA:                   0.000
REMARK UNBOUND:                 0.000
ROOT
REMARK  Name = aprobarbital
REMARK                            x       y       z     vdW  Elec       q    Type
REMARK                         _______ _______ _______ _____ _____    ______ ____
ATOM      1  C   UNL     1      60.405  62.631  71.376  0.00  0.00    +0.000 C 
ATOM      2  C   UNL     1      60.167  63.401  71.198  0.00  0.00    +0.000 C 
ATOM      3  C   UNL     1      59.884  63.893  71.795  0.00  0.00    +0.000 C 
ATOM      4  C   UNL     1      60.214  63.677  70.422  0.00  0.00    +0.000 C 
ATOM      5  C   UNL     1      60.502  62.912  70.318  0.00  0.00    +0.000 C 
ATOM      6  C   UNL     1      60.562  62.402  70.964  0.00  0.00    +0.000 C 
ATOM      7  C   UNL     1      60.850  61.636  70.860  0.00  0.00    +0.000 C 
ATOM      8  C   UNL     1      60.360  63.688  69.610  0.00  0.00    +0.000 C 
ATOM      9  O   UNL     1      60.665  63.019  69.237  0.00  0.00    +0.000 OA
ATOM     10  N   UNL     1      60.202  64.369  69.172  0.00  0.00    +0.000 NA
ATOM     11  C   UNL     1      59.898  65.038  69.545  0.00  0.00    +0.000 C 
ATOM     12  O   UNL     1      59.740  65.720  69.106  0.00  0.00    +0.000 OA
ATOM     13  N   UNL     1      59.751  65.028  70.357  0.00  0.00    +0.000 NA
ATOM     14  C   UNL     1      59.909  64.347  70.795  0.00  0.00    +0.000 C 
ATOM     15  O   UNL     1      59.763  64.336  71.608  0.00  0.00    +0.000 OA
ENDROOT
TORSDOF 0
ENDMDL
MODEL 8
REMARK VINA RESULT:    -7.185     24.991     25.833
REMARK INTER + INTRA:          -7.185
REMARK INTER:                  -7.185
REMARK INTRA:                   0.000
REMARK UNBOUND:                 0.000
ROOT
REMARK  Name = aprobarbital
REMARK                            x       y       z     vdW  Elec       q    Type
REMARK                         _______ _______ _______ _____ _____    ______ ____
ATOM      1  C   UNL     1      69.924  78.901  49.978  0.00  0.00    +0.000 C 
ATOM      2  C   UNL     1      70.601  78.825  49.512  0.00  0.00    +0.000 C 
ATOM      3  C   UNL     1      70.736  78.127  49.093  0.00  0.00    +0.000 C 
ATOM      4  C   UNL     1      71.141  79.446  49.466  0.00  0.00    +0.000 C 
ATOM      5  C   UNL     1      70.586  79.778  49.977  0.00  0.00    +0.000 C 
ATOM      6  C   UNL     1      69.917  79.348  50.196  0.00  0.00    +0.000 C 
ATOM      7  C   UNL     1      69.361  79.679  50.707  0.00  0.00    +0.000 C 
ATOM      8  C   UNL     1      71.489  80.182  49.596  0.00  0.00    +0.000 C 
ATOM      9  O   UNL     1      71.121  80.730  50.091  0.00  0.00    +0.000 OA
ATOM     10  N   UNL     1      72.205  80.371  49.232  0.00  0.00    +0.000 NA
ATOM     11  C   UNL     1      72.573  79.823  48.737  0.00  0.00    +0.000 C 
ATOM     12  O   UNL     1      73.289  80.012  48.373  0.00  0.00    +0.000 OA
ATOM     13  N   UNL     1      72.225  79.086  48.606  0.00  0.00    +0.000 NA
ATOM     14  C   UNL     1      71.509  78.898  48.971  0.00  0.00    +0.000 C 
ATOM     15  O   UNL     1      71.161  78.161  48.840  0.00  0.00    +0.000 OA
ENDROOT
TORSDOF 0
ENDMDL
MODEL 9
REMARK VINA RESULT:    -7.174      6.548      7.331
REMARK INTER + INTRA:          -7.174
REMARK INTER:                  -7.174
REMARK INTRA:                   0.000
REMARK UNBOUND:                 0.000
ROOT
REMARK  Name = aprobarbital
REMARK                            x       y       z     vdW  Elec       q    Type
REMARK                         _______ _______ _______ _____ _____    ______ ____
ATOM      1  C   UNL     1      61.231  63.241  72.439  0.00  0.00    +0.000 C 
ATOM      2  C   UNL     1      61.449  64.037  72.446  0.00  0.00    +0.000 C 
ATOM      3  C   UNL     1      61.110  64.552  72.993  0.00  0.00    +0.000 C 
ATOM      4  C   UNL     1      62.004  64.316  71.904  0.00  0.00    +0.000 C 
ATOM      5  C   UNL     1      61.977  63.523  71.682  0.00  0.00    +0.000 C 
ATOM      6  C   UNL     1      61.478  63.000  72.082  0.00  0.00    +0.000 C 
ATOM      7  C   UNL     1      61.450  62.206  71.861  0.00  0.00    +0.000 C 
ATOM      8  C   UNL     1      62.550  64.321  71.285  0.00  0.00    +0.000 C 
ATOM      9  O   UNL     1      62.715  63.624  70.876  0.00  0.00    +0.000 OA
ATOM     10  N   UNL     1      62.931  65.022  71.076  0.00  0.00    +0.000 NA
ATOM     11  C   UNL     1      62.766  65.719  71.486  0.00  0.00    +0.000 C 
ATOM     12  O   UNL     1      63.147  66.421  71.276  0.00  0.00    +0.000 OA
ATOM     13  N   UNL     1      62.220  65.715  72.104  0.00  0.00    +0.000 NA
ATOM     14  C   UNL     1      61.839  65.014  72.313  0.00  0.00    +0.000 C 
ATOM     15  O   UNL     1      61.292  65.009  72.932  0.00  0.00    +0.000 OA
ENDROOT
TORSDOF 0
ENDMDL
