MODEL 1
REMARK VINA RESULT:   -14.489      0.000      0.000
REMARK INTER + INTRA:         -14.489
REMARK INTER:                 -14.489
REMARK INTRA:                   0.000
REMARK UNBOUND:                 0.000
ROOT
REMARK  Name = arbekacin
REMARK                            x       y       z     vdW  Elec       q    Type
REMARK                         _______ _______ _______ _____ _____    ______ ____
ATOM      1  N   UNL     1      60.456  61.546  70.480  0.00  0.00    +0.000 NA
ATOM      2  C   UNL     1      60.806  62.263  70.691  0.00  0.00    +0.000 C 
ATOM      3  C   UNL     1      60.353  62.855  71.042  0.00  0.00    +0.000 C 
ATOM      4  C   UNL     1      60.703  63.572  71.254  0.00  0.00    +0.000 C 
ATOM      5  O   UNL     1      61.507  63.696  71.113  0.00  0.00    +0.000 OA
ATOM      6  C   UNL     1      60.250  64.165  71.605  0.00  0.00    +0.000 C 
ATOM      7  O   UNL     1      59.447  64.041  71.745  0.00  0.00    +0.000 OA
ATOM      8  N   UNL     1      60.600  64.881  71.816  0.00  0.00    +0.000 NA
ATOM      9  C   UNL     1      61.404  65.004  71.675  0.00  0.00    +0.000 C 
ATOM     10  C   UNL     1      61.857  64.412  71.324  0.00  0.00    +0.000 C 
ATOM     11  C   UNL     1      62.660  64.535  71.183  0.00  0.00    +0.000 C 
ATOM     12  N   UNL     1      63.114  63.943  70.832  0.00  0.00    +0.000 NA
ATOM     13  C   UNL     1      63.011  65.252  71.394  0.00  0.00    +0.000 C 
ATOM     14  O   UNL     1      63.814  65.375  71.253  0.00  0.00    +0.000 OA
ATOM     15  C   UNL     1      64.164  66.092  71.464  0.00  0.00    +0.000 C 
ATOM     16  O   UNL     1      63.711  66.685  71.816  0.00  0.00    +0.000 OA
ATOM     17  C   UNL     1      64.062  67.402  72.027  0.00  0.00    +0.000 C 
ATOM     18  C   UNL     1      63.608  67.994  72.378  0.00  0.00    +0.000 C 
ATOM     19  N   UNL     1      62.805  67.871  72.519  0.00  0.00    +0.000 NA
ATOM     20  C   UNL     1      64.865  67.525  71.886  0.00  0.00    +0.000 C 
ATOM     21  C   UNL     1      65.318  66.933  71.535  0.00  0.00    +0.000 C 
ATOM     22  C   UNL     1      64.968  66.216  71.324  0.00  0.00    +0.000 C 
ATOM     23  N   UNL     1      65.421  65.622  70.972  0.00  0.00    +0.000 NA
ATOM     24  C   UNL     1      62.558  65.845  71.746  0.00  0.00    +0.000 C 
ATOM     25  O   UNL     1      62.908  66.562  71.957  0.00  0.00    +0.000 OA
ATOM     26  C   UNL     1      61.754  65.721  71.886  0.00  0.00    +0.000 C 
ATOM     27  O   UNL     1      61.301  66.315  72.238  0.00  0.00    +0.000 OA
ATOM     28  C   UNL     1      60.497  66.191  72.379  0.00  0.00    +0.000 C 
ATOM     29  O   UNL     1      60.147  65.474  72.167  0.00  0.00    +0.000 OA
ATOM     30  C   UNL     1      59.344  65.351  72.308  0.00  0.00    +0.000 C 
ATOM     31  C   UNL     1      58.993  64.634  72.097  0.00  0.00    +0.000 C 
ATOM     32  O   UNL     1      58.190  64.510  72.237  0.00  0.00    +0.000 OA
ATOM     33  C   UNL     1      58.890  65.944  72.660  0.00  0.00    +0.000 C 
ATOM     34  O   UNL     1      58.087  65.821  72.800  0.00  0.00    +0.000 OA
ATOM     35  C   UNL     1      59.241  66.660  72.871  0.00  0.00    +0.000 C 
ATOM     36  N   UNL     1      58.787  67.253  73.222  0.00  0.00    +0.000 NA
ATOM     37  C   UNL     1      60.044  66.784  72.730  0.00  0.00    +0.000 C 
ATOM     38  O   UNL     1      60.394  67.500  72.941  0.00  0.00    +0.000 OA
ENDROOT
TORSDOF 0
ENDMDL
MODEL 2
REMARK VINA RESULT:   -13.754      0.842      3.062
REMARK INTER + INTRA:         -13.754
REMARK INTER:                 -13.754
REMARK INTRA:                   0.000
REMARK UNBOUND:                 0.000
ROOT
REMARK  Name = arbekacin
REMARK                            x       y       z     vdW  Elec       q    Type
REMARK                         _______ _______ _______ _____ _____    ______ ____
ATOM      1  N   UNL     1      58.225  67.253  73.222  0.00  0.00    +0.000 NA
ATOM      2  C   UNL     1      58.978  67.035  72.965  0.00  0.00    +0.000 C 
ATOM      3  C   UNL     1      59.109  66.279  72.666  0.00  0.00    +0.000 C 
ATOM      4  C   UNL     1      59.862  66.061  72.408  0.00  0.00    +0.000 C 
ATOM      5  O   UNL     1      60.485  66.602  72.451  0.00  0.00    +0.000 OA
ATOM      6  C   UNL     1      59.994  65.304  72.109  0.00  0.00    +0.000 C 
ATOM      7  O   UNL     1      59.372  64.764  72.067  0.00  0.00    +0.000 OA
ATOM      8  N   UNL     1      60.746  65.087  71.852  0.00  0.00    +0.000 NA
ATOM      9  C   UNL     1      61.369  65.628  71.894  0.00  0.00    +0.000 C 
ATOM     10  C   UNL     1      61.238  66.385  72.194  0.00  0.00    +0.000 C 
ATOM     11  C   UNL     1      61.860  66.925  72.236  0.00  0.00    +0.000 C 
ATOM     12  N   UNL     1      61.729  67.682  72.535  0.00  0.00    +0.000 NA
ATOM     13  C   UNL     1      62.613  66.708  71.979  0.00  0.00    +0.000 C 
ATOM     14  O   UNL     1      63.234  67.248  72.021  0.00  0.00    +0.000 OA
ATOM     15  C   UNL     1      63.988  67.031  71.764  0.00  0.00    +0.000 C 
ATOM     16  O   UNL     1      64.119  66.273  71.464  0.00  0.00    +0.000 OA
ATOM     17  C   UNL     1      64.873  66.056  71.207  0.00  0.00    +0.000 C 
ATOM     18  C   UNL     1      65.003  65.299  70.908  0.00  0.00    +0.000 C 
ATOM     19  N   UNL     1      64.382  64.759  70.866  0.00  0.00    +0.000 NA
ATOM     20  C   UNL     1      65.495  66.596  71.249  0.00  0.00    +0.000 C 
ATOM     21  C   UNL     1      65.363  67.353  71.549  0.00  0.00    +0.000 C 
ATOM     22  C   UNL     1      64.610  67.571  71.806  0.00  0.00    +0.000 C 
ATOM     23  N   UNL     1      64.478  68.329  72.106  0.00  0.00    +0.000 NA
ATOM     24  C   UNL     1      62.744  65.950  71.679  0.00  0.00    +0.000 C 
ATOM     25  O   UNL     1      63.498  65.733  71.422  0.00  0.00    +0.000 OA
ATOM     26  C   UNL     1      62.122  65.410  71.637  0.00  0.00    +0.000 C 
ATOM     27  O   UNL     1      62.254  64.652  71.337  0.00  0.00    +0.000 OA
ATOM     28  C   UNL     1      61.631  64.111  71.295  0.00  0.00    +0.000 C 
ATOM     29  O   UNL     1      60.878  64.329  71.553  0.00  0.00    +0.000 OA
ATOM     30  C   UNL     1      60.256  63.789  71.510  0.00  0.00    +0.000 C 
ATOM     31  C   UNL     1      59.502  64.006  71.768  0.00  0.00    +0.000 C 
ATOM     32  O   UNL     1      58.881  63.467  71.726  0.00  0.00    +0.000 OA
ATOM     33  C   UNL     1      60.387  63.031  71.211  0.00  0.00    +0.000 C 
ATOM     34  O   UNL     1      59.766  62.491  71.169  0.00  0.00    +0.000 OA
ATOM     35  C   UNL     1      61.141  62.814  70.954  0.00  0.00    +0.000 C 
ATOM     36  N   UNL     1      61.271  62.057  70.655  0.00  0.00    +0.000 NA
ATOM     37  C   UNL     1      61.763  63.355  70.996  0.00  0.00    +0.000 C 
ATOM     38  O   UNL     1      62.515  63.137  70.739  0.00  0.00    +0.000 OA
ENDROOT
TORSDOF 0
ENDMDL
MODEL 3
REMARK VINA RESULT:   -12.725      1.776      4.503
REMARK INTER + INTRA:         -12.725
REMARK INTER:                 -12.725
REMARK INTRA:                   0.000
REMARK UNBOUND:                 0.000
ROOT
REMARK  Name = arbekacin
REMARK                            x       y       z     vdW  Elec       q    Type
REMARK                         _______ _______ _______ _____ _____    ______ ____
ATOM      1  N   UNL     1      58.223  67.633  73.079  0.00  0.00    +0.000 NA
ATOM      2  C   UNL     1      58.727  67.221  72.573  0.00  0.00    +0.000 C 
ATOM      3  C   UNL     1      59.540  67.354  72.601  0.00  0.00    +0.000 C 
ATOM      4  C   UNL     1      60.044  66.942  72.094  0.00  0.00    +0.000 C 
ATOM      5  O   UNL     1      59.734  66.395  71.558  0.00  0.00    +0.000 OA
ATOM      6  C   UNL     1      60.857  67.074  72.123  0.00  0.00    +0.000 C 
ATOM      7  O   UNL     1      61.167  67.620  72.658  0.00  0.00    +0.000 OA
ATOM      8  N   UNL     1      61.360  66.662  71.617  0.00  0.00    +0.000 NA
ATOM      9  C   UNL     1      61.050  66.116  71.080  0.00  0.00    +0.000 C 
ATOM     10  C   UNL     1      60.237  65.983  71.052  0.00  0.00    +0.000 C 
ATOM     11  C   UNL     1      59.927  65.438  70.516  0.00  0.00    +0.000 C 
ATOM     12  N   UNL     1      59.113  65.304  70.487  0.00  0.00    +0.000 NA
ATOM     13  C   UNL     1      60.430  65.025  70.009  0.00  0.00    +0.000 C 
ATOM     14  O   UNL     1      60.120  64.480  69.474  0.00  0.00    +0.000 OA
ATOM     15  C   UNL     1      60.624  64.067  68.967  0.00  0.00    +0.000 C 
ATOM     16  O   UNL     1      61.438  64.200  68.996  0.00  0.00    +0.000 OA
ATOM     17  C   UNL     1      61.941  63.788  68.489  0.00  0.00    +0.000 C 
ATOM     18  C   UNL     1      62.754  63.921  68.518  0.00  0.00    +0.000 C 
ATOM     19  N   UNL     1      63.064  64.466  69.053  0.00  0.00    +0.000 NA
ATOM     20  C   UNL     1      61.631  63.242  67.953  0.00  0.00    +0.000 C 
ATOM     21  C   UNL     1      60.818  63.109  67.925  0.00  0.00    +0.000 C 
ATOM     22  C   UNL     1      60.313  63.522  68.431  0.00  0.00    +0.000 C 
ATOM     23  N   UNL     1      59.499  63.389  68.403  0.00  0.00    +0.000 NA
ATOM     24  C   UNL     1      61.244  65.158  70.038  0.00  0.00    +0.000 C 
ATOM     25  O   UNL     1      61.748  64.745  69.531  0.00  0.00    +0.000 OA
ATOM     26  C   UNL     1      61.554  65.704  70.574  0.00  0.00    +0.000 C 
ATOM     27  O   UNL     1      62.368  65.836  70.602  0.00  0.00    +0.000 OA
ATOM     28  C   UNL     1      62.679  66.383  71.138  0.00  0.00    +0.000 C 
ATOM     29  O   UNL     1      62.174  66.795  71.645  0.00  0.00    +0.000 OA
ATOM     30  C   UNL     1      62.485  67.340  72.180  0.00  0.00    +0.000 C 
ATOM     31  C   UNL     1      61.981  67.753  72.688  0.00  0.00    +0.000 C 
ATOM     32  O   UNL     1      62.291  68.298  73.222  0.00  0.00    +0.000 OA
ATOM     33  C   UNL     1      63.299  67.474  72.209  0.00  0.00    +0.000 C 
ATOM     34  O   UNL     1      63.609  68.018  72.744  0.00  0.00    +0.000 OA
ATOM     35  C   UNL     1      63.802  67.061  71.702  0.00  0.00    +0.000 C 
ATOM     36  N   UNL     1      64.615  67.194  71.731  0.00  0.00    +0.000 NA
ATOM     37  C   UNL     1      63.492  66.515  71.167  0.00  0.00    +0.000 C 
ATOM     38  O   UNL     1      63.995  66.103  70.660  0.00  0.00    +0.000 OA
ENDROOT
TORSDOF 0
ENDMDL
MODEL 4
REMARK VINA RESULT:   -12.106     17.963     18.886
REMARK INTER + INTRA:         -12.106
REMARK INTER:                 -12.106
REMARK INTRA:                   0.000
REMARK UNBOUND:                 0.000
ROOT
REMARK  Name = arbekacin
REMARK                            x       y       z     vdW  Elec       q    Type
REMARK                         _______ _______ _______ _____ _____    ______ ____
ATOM      1  N   UNL     1      61.586  70.261  50.555  0.00  0.00    +0.000 NA
ATOM      2  C   UNL     1      61.647  69.569  51.001  0.00  0.00    +0.000 C 
ATOM      3  C   UNL     1      61.795  69.611  51.810  0.00  0.00    +0.000 C 
ATOM      4  C   UNL     1      61.856  68.920  52.256  0.00  0.00    +0.000 C 
ATOM      5  O   UNL     1      61.768  68.184  51.890  0.00  0.00    +0.000 OA
ATOM      6  C   UNL     1      62.004  68.962  53.066  0.00  0.00    +0.000 C 
ATOM      7  O   UNL     1      62.091  69.696  53.431  0.00  0.00    +0.000 OA
ATOM      8  N   UNL     1      62.064  68.270  53.511  0.00  0.00    +0.000 NA
ATOM      9  C   UNL     1      61.977  67.535  53.145  0.00  0.00    +0.000 C 
ATOM     10  C   UNL     1      61.829  67.493  52.335  0.00  0.00    +0.000 C 
ATOM     11  C   UNL     1      61.741  66.758  51.970  0.00  0.00    +0.000 C 
ATOM     12  N   UNL     1      61.593  66.715  51.159  0.00  0.00    +0.000 NA
ATOM     13  C   UNL     1      61.802  66.066  52.414  0.00  0.00    +0.000 C 
ATOM     14  O   UNL     1      61.715  65.333  52.049  0.00  0.00    +0.000 OA
ATOM     15  C   UNL     1      61.776  64.640  52.494  0.00  0.00    +0.000 C 
ATOM     16  O   UNL     1      61.924  64.683  53.305  0.00  0.00    +0.000 OA
ATOM     17  C   UNL     1      61.985  63.990  53.750  0.00  0.00    +0.000 C 
ATOM     18  C   UNL     1      62.133  64.033  54.560  0.00  0.00    +0.000 C 
ATOM     19  N   UNL     1      62.220  64.767  54.925  0.00  0.00    +0.000 NA
ATOM     20  C   UNL     1      61.897  63.256  53.384  0.00  0.00    +0.000 C 
ATOM     21  C   UNL     1      61.749  63.214  52.575  0.00  0.00    +0.000 C 
ATOM     22  C   UNL     1      61.688  63.905  52.129  0.00  0.00    +0.000 C 
ATOM     23  N   UNL     1      61.540  63.864  51.318  0.00  0.00    +0.000 NA
ATOM     24  C   UNL     1      61.950  66.109  53.225  0.00  0.00    +0.000 C 
ATOM     25  O   UNL     1      62.011  65.416  53.670  0.00  0.00    +0.000 OA
ATOM     26  C   UNL     1      62.038  66.843  53.591  0.00  0.00    +0.000 C 
ATOM     27  O   UNL     1      62.186  66.885  54.401  0.00  0.00    +0.000 OA
ATOM     28  C   UNL     1      62.274  67.620  54.767  0.00  0.00    +0.000 C 
ATOM     29  O   UNL     1      62.213  68.312  54.322  0.00  0.00    +0.000 OA
ATOM     30  C   UNL     1      62.300  69.047  54.687  0.00  0.00    +0.000 C 
ATOM     31  C   UNL     1      62.239  69.739  54.242  0.00  0.00    +0.000 C 
ATOM     32  O   UNL     1      62.327  70.473  54.607  0.00  0.00    +0.000 OA
ATOM     33  C   UNL     1      62.448  69.089  55.498  0.00  0.00    +0.000 C 
ATOM     34  O   UNL     1      62.536  69.823  55.863  0.00  0.00    +0.000 OA
ATOM     35  C   UNL     1      62.509  68.397  55.943  0.00  0.00    +0.000 C 
ATOM     36  N   UNL     1      62.657  68.440  56.753  0.00  0.00    +0.000 NA
ATOM     37  C   UNL     1      62.422  67.663  55.577  0.00  0.00    +0.000 C 
ATOM     38  O   UNL     1      62.482  66.971  56.022  0.00  0.00    +0.000 OA
ENDROOT
TORSDOF 0
ENDMDL
MODEL 5
REMARK VINA RESULT:   -11.777     18.712     19.338
REMARK INTER + INTRA:         -11.777
REMARK INTER:                 -11.777
REMARK INTRA:                   0.000
REMARK UNBOUND:                 0.000
ROOT
REMARK  Name = arbekacin
REMARK                            x       y       z     vdW  Elec       q    Type
REMARK                         _______ _______ _______ _____ _____    ______ ____
ATOM      1  N   UNL     1      62.042  63.843  54.472  0.00  0.00    +0.000 NA
ATOM      2  C   UNL     1      62.010  64.546  54.041  0.00  0.00    +0.000 C 
ATOM      3  C   UNL     1      62.101  65.270  54.424  0.00  0.00    +0.000 C 
ATOM      4  C   UNL     1      62.069  65.973  53.992  0.00  0.00    +0.000 C 
ATOM      5  O   UNL     1      61.946  65.950  53.176  0.00  0.00    +0.000 OA
ATOM      6  C   UNL     1      62.160  66.697  54.375  0.00  0.00    +0.000 C 
ATOM      7  O   UNL     1      62.283  66.720  55.191  0.00  0.00    +0.000 OA
ATOM      8  N   UNL     1      62.128  67.399  53.944  0.00  0.00    +0.000 NA
ATOM      9  C   UNL     1      62.005  67.376  53.127  0.00  0.00    +0.000 C 
ATOM     10  C   UNL     1      61.914  66.652  52.744  0.00  0.00    +0.000 C 
ATOM     11  C   UNL     1      61.790  66.629  51.929  0.00  0.00    +0.000 C 
ATOM     12  N   UNL     1      61.699  65.905  51.545  0.00  0.00    +0.000 NA
ATOM     13  C   UNL     1      61.758  67.331  51.496  0.00  0.00    +0.000 C 
ATOM     14  O   UNL     1      61.635  67.308  50.682  0.00  0.00    +0.000 OA
ATOM     15  C   UNL     1      61.603  68.011  50.249  0.00  0.00    +0.000 C 
ATOM     16  O   UNL     1      61.694  68.736  50.633  0.00  0.00    +0.000 OA
ATOM     17  C   UNL     1      61.662  69.438  50.201  0.00  0.00    +0.000 C 
ATOM     18  C   UNL     1      61.753  70.162  50.585  0.00  0.00    +0.000 C 
ATOM     19  N   UNL     1      61.876  70.185  51.399  0.00  0.00    +0.000 NA
ATOM     20  C   UNL     1      61.539  69.415  49.385  0.00  0.00    +0.000 C 
ATOM     21  C   UNL     1      61.448  68.691  49.002  0.00  0.00    +0.000 C 
ATOM     22  C   UNL     1      61.480  67.988  49.434  0.00  0.00    +0.000 C 
ATOM     23  N   UNL     1      61.389  67.263  49.051  0.00  0.00    +0.000 NA
ATOM     24  C   UNL     1      61.849  68.056  51.880  0.00  0.00    +0.000 C 
ATOM     25  O   UNL     1      61.817  68.759  51.448  0.00  0.00    +0.000 OA
ATOM     26  C   UNL     1      61.973  68.079  52.696  0.00  0.00    +0.000 C 
ATOM     27  O   UNL     1      62.064  68.804  53.079  0.00  0.00    +0.000 OA
ATOM     28  C   UNL     1      62.187  68.827  53.895  0.00  0.00    +0.000 C 
ATOM     29  O   UNL     1      62.219  68.124  54.327  0.00  0.00    +0.000 OA
ATOM     30  C   UNL     1      62.342  68.147  55.142  0.00  0.00    +0.000 C 
ATOM     31  C   UNL     1      62.374  67.444  55.574  0.00  0.00    +0.000 C 
ATOM     32  O   UNL     1      62.497  67.467  56.389  0.00  0.00    +0.000 OA
ATOM     33  C   UNL     1      62.433  68.872  55.526  0.00  0.00    +0.000 C 
ATOM     34  O   UNL     1      62.556  68.895  56.340  0.00  0.00    +0.000 OA
ATOM     35  C   UNL     1      62.401  69.574  55.093  0.00  0.00    +0.000 C 
ATOM     36  N   UNL     1      62.492  70.298  55.477  0.00  0.00    +0.000 NA
ATOM     37  C   UNL     1      62.278  69.551  54.278  0.00  0.00    +0.000 C 
ATOM     38  O   UNL     1      62.246  70.253  53.847  0.00  0.00    +0.000 OA
ENDROOT
TORSDOF 0
ENDMDL
MODEL 6
REMARK VINA RESULT:   -11.683     19.106     19.910
REMARK INTER + INTRA:         -11.683
REMARK INTER:                 -11.683
REMARK INTRA:                   0.000
REMARK UNBOUND:                 0.000
ROOT
REMARK  Name = arbekacin
REMARK                            x       y       z     vdW  Elec       q    Type
REMARK                         _______ _______ _______ _____ _____    ______ ____
ATOM      1  N   UNL     1      62.396  69.353  56.328  0.00  0.00    +0.000 NA
ATOM      2  C   UNL     1      62.301  69.148  55.534  0.00  0.00    +0.000 C 
ATOM      3  C   UNL     1      62.201  68.359  55.320  0.00  0.00    +0.000 C 
ATOM      4  C   UNL     1      62.106  68.155  54.526  0.00  0.00    +0.000 C 
ATOM      5  O   UNL     1      62.112  68.742  53.946  0.00  0.00    +0.000 OA
ATOM      6  C   UNL     1      62.005  67.365  54.312  0.00  0.00    +0.000 C 
ATOM      7  O   UNL     1      62.000  66.778  54.892  0.00  0.00    +0.000 OA
ATOM      8  N   UNL     1      61.911  67.162  53.519  0.00  0.00    +0.000 NA
ATOM      9  C   UNL     1      61.916  67.749  52.938  0.00  0.00    +0.000 C 
ATOM     10  C   UNL     1      62.017  68.539  53.152  0.00  0.00    +0.000 C 
ATOM     11  C   UNL     1      62.023  69.126  52.573  0.00  0.00    +0.000 C 
ATOM     12  N   UNL     1      62.123  69.916  52.786  0.00  0.00    +0.000 NA
ATOM     13  C   UNL     1      61.928  68.923  51.779  0.00  0.00    +0.000 C 
ATOM     14  O   UNL     1      61.934  69.510  51.200  0.00  0.00    +0.000 OA
ATOM     15  C   UNL     1      61.839  69.306  50.405  0.00  0.00    +0.000 C 
ATOM     16  O   UNL     1      61.738  68.515  50.191  0.00  0.00    +0.000 OA
ATOM     17  C   UNL     1      61.643  68.313  49.397  0.00  0.00    +0.000 C 
ATOM     18  C   UNL     1      61.543  67.522  49.184  0.00  0.00    +0.000 C 
ATOM     19  N   UNL     1      61.537  66.936  49.763  0.00  0.00    +0.000 NA
ATOM     20  C   UNL     1      61.649  68.900  48.817  0.00  0.00    +0.000 C 
ATOM     21  C   UNL     1      61.750  69.689  49.032  0.00  0.00    +0.000 C 
ATOM     22  C   UNL     1      61.845  69.893  49.826  0.00  0.00    +0.000 C 
ATOM     23  N   UNL     1      61.945  70.684  50.041  0.00  0.00    +0.000 NA
ATOM     24  C   UNL     1      61.827  68.132  51.565  0.00  0.00    +0.000 C 
ATOM     25  O   UNL     1      61.732  67.929  50.770  0.00  0.00    +0.000 OA
ATOM     26  C   UNL     1      61.822  67.545  52.144  0.00  0.00    +0.000 C 
ATOM     27  O   UNL     1      61.721  66.755  51.929  0.00  0.00    +0.000 OA
ATOM     28  C   UNL     1      61.715  66.167  52.510  0.00  0.00    +0.000 C 
ATOM     29  O   UNL     1      61.810  66.371  53.304  0.00  0.00    +0.000 OA
ATOM     30  C   UNL     1      61.804  65.784  53.883  0.00  0.00    +0.000 C 
ATOM     31  C   UNL     1      61.899  65.988  54.678  0.00  0.00    +0.000 C 
ATOM     32  O   UNL     1      61.894  65.401  55.257  0.00  0.00    +0.000 OA
ATOM     33  C   UNL     1      61.704  64.993  53.669  0.00  0.00    +0.000 C 
ATOM     34  O   UNL     1      61.698  64.407  54.248  0.00  0.00    +0.000 OA
ATOM     35  C   UNL     1      61.609  64.791  52.875  0.00  0.00    +0.000 C 
ATOM     36  N   UNL     1      61.509  64.000  52.662  0.00  0.00    +0.000 NA
ATOM     37  C   UNL     1      61.615  65.378  52.295  0.00  0.00    +0.000 C 
ATOM     38  O   UNL     1      61.520  65.174  51.502  0.00  0.00    +0.000 OA
ENDROOT
TORSDOF 0
ENDMDL
MODEL 7
REMARK VINA RESULT:   -11.518     17.861     18.869
REMARK INTER + INTRA:         -11.518
REMARK INTER:                 -11.518
REMARK INTRA:                   0.000
REMARK UNBOUND:                 0.000
ROOT
REMARK  Name = arbekacin
REMARK                            x       y       z     vdW  Elec       q    Type
REMARK                         _______ _______ _______ _____ _____    ______ ____
ATOM      1  N   UNL     1      62.901  68.454  57.462  0.00  0.00    +0.000 NA
ATOM      2  C   UNL     1      62.747  68.019  56.778  0.00  0.00    +0.000 C 
ATOM      3  C   UNL     1      62.656  68.405  56.055  0.00  0.00    +0.000 C 
ATOM      4  C   UNL     1      62.503  67.969  55.370  0.00  0.00    +0.000 C 
ATOM      5  O   UNL     1      62.440  67.147  55.411  0.00  0.00    +0.000 OA
ATOM      6  C   UNL     1      62.412  68.355  54.647  0.00  0.00    +0.000 C 
ATOM      7  O   UNL     1      62.475  69.176  54.607  0.00  0.00    +0.000 OA
ATOM      8  N   UNL     1      62.259  67.920  53.964  0.00  0.00    +0.000 NA
ATOM      9  C   UNL     1      62.196  67.097  54.004  0.00  0.00    +0.000 C 
ATOM     10  C   UNL     1      62.287  66.711  54.727  0.00  0.00    +0.000 C 
ATOM     11  C   UNL     1      62.224  65.890  54.767  0.00  0.00    +0.000 C 
ATOM     12  N   UNL     1      62.315  65.503  55.491  0.00  0.00    +0.000 NA
ATOM     13  C   UNL     1      62.071  65.454  54.084  0.00  0.00    +0.000 C 
ATOM     14  O   UNL     1      62.008  64.633  54.124  0.00  0.00    +0.000 OA
ATOM     15  C   UNL     1      61.854  64.197  53.440  0.00  0.00    +0.000 C 
ATOM     16  O   UNL     1      61.763  64.583  52.716  0.00  0.00    +0.000 OA
ATOM     17  C   UNL     1      61.610  64.147  52.033  0.00  0.00    +0.000 C 
ATOM     18  C   UNL     1      61.519  64.533  51.310  0.00  0.00    +0.000 C 
ATOM     19  N   UNL     1      61.582  65.354  51.270  0.00  0.00    +0.000 NA
ATOM     20  C   UNL     1      61.547  63.325  52.073  0.00  0.00    +0.000 C 
ATOM     21  C   UNL     1      61.638  62.940  52.796  0.00  0.00    +0.000 C 
ATOM     22  C   UNL     1      61.792  63.375  53.480  0.00  0.00    +0.000 C 
ATOM     23  N   UNL     1      61.883  62.990  54.204  0.00  0.00    +0.000 NA
ATOM     24  C   UNL     1      61.980  65.840  53.360  0.00  0.00    +0.000 C 
ATOM     25  O   UNL     1      61.826  65.404  52.676  0.00  0.00    +0.000 OA
ATOM     26  C   UNL     1      62.042  66.662  53.320  0.00  0.00    +0.000 C 
ATOM     27  O   UNL     1      61.951  67.047  52.596  0.00  0.00    +0.000 OA
ATOM     28  C   UNL     1      62.014  67.870  52.556  0.00  0.00    +0.000 C 
ATOM     29  O   UNL     1      62.168  68.305  53.240  0.00  0.00    +0.000 OA
ATOM     30  C   UNL     1      62.230  69.127  53.200  0.00  0.00    +0.000 C 
ATOM     31  C   UNL     1      62.384  69.563  53.884  0.00  0.00    +0.000 C 
ATOM     32  O   UNL     1      62.446  70.383  53.844  0.00  0.00    +0.000 OA
ATOM     33  C   UNL     1      62.139  69.513  52.476  0.00  0.00    +0.000 C 
ATOM     34  O   UNL     1      62.202  70.334  52.436  0.00  0.00    +0.000 OA
ATOM     35  C   UNL     1      61.986  69.077  51.793  0.00  0.00    +0.000 C 
ATOM     36  N   UNL     1      61.895  69.463  51.070  0.00  0.00    +0.000 NA
ATOM     37  C   UNL     1      61.923  68.255  51.833  0.00  0.00    +0.000 C 
ATOM     38  O   UNL     1      61.770  67.820  51.150  0.00  0.00    +0.000 OA
ENDROOT
TORSDOF 0
ENDMDL
