MODEL 1
REMARK VINA RESULT:    -6.386      0.000      0.000
REMARK INTER + INTRA:          -6.386
REMARK INTER:                  -6.386
REMARK INTRA:                   0.000
REMARK UNBOUND:                 0.000
ROOT
REMARK  Name = arginine
REMARK                            x       y       z     vdW  Elec       q    Type
REMARK                         _______ _______ _______ _____ _____    ______ ____
ATOM      1  N   ARG A   1      62.732  62.358  64.896  0.00  0.00    +0.000 NA
ATOM      2  CA  ARG A   1      62.011  61.959  64.848  0.00  0.00    +0.000 C 
ATOM      3  CB  ARG A   1      61.505  61.941  65.500  0.00  0.00    +0.000 C 
ATOM      4  CG  ARG A   1      61.721  62.322  66.199  0.00  0.00    +0.000 C 
ATOM      5  CD  ARG A   1      61.214  62.304  66.851  0.00  0.00    +0.000 C 
ATOM      6  NE  ARG A   1      61.430  62.684  67.550  0.00  0.00    +0.000 NA
ATOM      7  CZ  ARG A   1      60.924  62.666  68.202  0.00  0.00    +0.000 C 
ATOM      8  NH1 ARG A   1      61.139  63.046  68.902  0.00  0.00    +0.000 NA
ATOM      9  NH2 ARG A   1      60.203  62.267  68.154  0.00  0.00    +0.000 NA
ATOM     10  C   ARG A   1      61.796  61.579  64.148  0.00  0.00    +0.000 C 
ATOM     11  O   ARG A   1      62.302  61.597  63.496  0.00  0.00    +0.000 OA
ATOM     12  OXT ARG A   1      61.075  61.181  64.100  0.00  0.00    +0.000 OA
ENDROOT
TORSDOF 0
ENDMDL
MODEL 2
REMARK VINA RESULT:    -6.127      2.322      3.882
REMARK INTER + INTRA:          -6.127
REMARK INTER:                  -6.127
REMARK INTRA:                   0.000
REMARK UNBOUND:                 0.000
ROOT
REMARK  Name = arginine
REMARK                            x       y       z     vdW  Elec       q    Type
REMARK                         _______ _______ _______ _____ _____    ______ ____
ATOM      1  N   ARG A   1      61.397  63.420  68.477  0.00  0.00    +0.000 NA
ATOM      2  CA  ARG A   1      60.996  62.706  68.372  0.00  0.00    +0.000 C 
ATOM      3  CB  ARG A   1      61.037  62.311  67.648  0.00  0.00    +0.000 C 
ATOM      4  CG  ARG A   1      61.479  62.631  67.030  0.00  0.00    +0.000 C 
ATOM      5  CD  ARG A   1      61.521  62.236  66.306  0.00  0.00    +0.000 C 
ATOM      6  NE  ARG A   1      61.963  62.555  65.687  0.00  0.00    +0.000 NA
ATOM      7  CZ  ARG A   1      62.004  62.160  64.963  0.00  0.00    +0.000 C 
ATOM      8  NH1 ARG A   1      62.446  62.480  64.345  0.00  0.00    +0.000 NA
ATOM      9  NH2 ARG A   1      61.603  61.447  64.859  0.00  0.00    +0.000 NA
ATOM     10  C   ARG A   1      60.554  62.387  68.991  0.00  0.00    +0.000 C 
ATOM     11  O   ARG A   1      60.513  62.782  69.715  0.00  0.00    +0.000 OA
ATOM     12  OXT ARG A   1      60.153  61.674  68.887  0.00  0.00    +0.000 OA
ENDROOT
TORSDOF 0
ENDMDL
MODEL 3
REMARK VINA RESULT:    -5.721     18.618     19.218
REMARK INTER + INTRA:          -5.721
REMARK INTER:                  -5.721
REMARK INTRA:                   0.000
REMARK UNBOUND:                 0.000
ROOT
REMARK  Name = arginine
REMARK                            x       y       z     vdW  Elec       q    Type
REMARK                         _______ _______ _______ _____ _____    ______ ____
ATOM      1  N   ARG A   1      63.405  79.827  58.397  0.00  0.00    +0.000 NA
ATOM      2  CA  ARG A   1      64.113  80.235  58.281  0.00  0.00    +0.000 C 
ATOM      3  CB  ARG A   1      64.827  79.901  58.527  0.00  0.00    +0.000 C 
ATOM      4  CG  ARG A   1      64.832  79.159  58.888  0.00  0.00    +0.000 C 
ATOM      5  CD  ARG A   1      65.546  78.825  59.134  0.00  0.00    +0.000 C 
ATOM      6  NE  ARG A   1      65.551  78.084  59.495  0.00  0.00    +0.000 NA
ATOM      7  CZ  ARG A   1      66.265  77.750  59.741  0.00  0.00    +0.000 C 
ATOM      8  NH1 ARG A   1      66.270  77.008  60.102  0.00  0.00    +0.000 NA
ATOM      9  NH2 ARG A   1      66.973  78.157  59.625  0.00  0.00    +0.000 NA
ATOM     10  C   ARG A   1      64.108  80.976  57.920  0.00  0.00    +0.000 C 
ATOM     11  O   ARG A   1      63.394  81.310  57.674  0.00  0.00    +0.000 OA
ATOM     12  OXT ARG A   1      64.816  81.384  57.804  0.00  0.00    +0.000 OA
ENDROOT
TORSDOF 0
ENDMDL
MODEL 4
REMARK VINA RESULT:    -5.694      2.136      2.844
REMARK INTER + INTRA:          -5.694
REMARK INTER:                  -5.694
REMARK INTRA:                   0.000
REMARK UNBOUND:                 0.000
ROOT
REMARK  Name = arginine
REMARK                            x       y       z     vdW  Elec       q    Type
REMARK                         _______ _______ _______ _____ _____    ______ ____
ATOM      1  N   ARG A   1      61.105  62.617  66.993  0.00  0.00    +0.000 NA
ATOM      2  CA  ARG A   1      60.348  62.335  67.160  0.00  0.00    +0.000 C 
ATOM      3  CB  ARG A   1      60.142  62.141  67.936  0.00  0.00    +0.000 C 
ATOM      4  CG  ARG A   1      60.693  62.230  68.543  0.00  0.00    +0.000 C 
ATOM      5  CD  ARG A   1      60.488  62.036  69.319  0.00  0.00    +0.000 C 
ATOM      6  NE  ARG A   1      61.039  62.124  69.926  0.00  0.00    +0.000 NA
ATOM      7  CZ  ARG A   1      60.833  61.930  70.701  0.00  0.00    +0.000 C 
ATOM      8  NH1 ARG A   1      61.385  62.019  71.308  0.00  0.00    +0.000 NA
ATOM      9  NH2 ARG A   1      60.076  61.648  70.869  0.00  0.00    +0.000 NA
ATOM     10  C   ARG A   1      59.796  62.246  66.554  0.00  0.00    +0.000 C 
ATOM     11  O   ARG A   1      60.002  62.440  65.778  0.00  0.00    +0.000 OA
ATOM     12  OXT ARG A   1      59.040  61.964  66.721  0.00  0.00    +0.000 OA
ENDROOT
TORSDOF 0
ENDMDL
MODEL 5
REMARK VINA RESULT:    -5.609      5.829      6.821
REMARK INTER + INTRA:          -5.609
REMARK INTER:                  -5.609
REMARK INTRA:                   0.000
REMARK UNBOUND:                 0.000
ROOT
REMARK  Name = arginine
REMARK                            x       y       z     vdW  Elec       q    Type
REMARK                         _______ _______ _______ _____ _____    ______ ____
ATOM      1  N   ARG A   1      63.447  64.460  69.474  0.00  0.00    +0.000 NA
ATOM      2  CA  ARG A   1      63.378  64.662  70.271  0.00  0.00    +0.000 C 
ATOM      3  CB  ARG A   1      63.839  65.272  70.583  0.00  0.00    +0.000 C 
ATOM      4  CG  ARG A   1      64.367  65.679  70.098  0.00  0.00    +0.000 C 
ATOM      5  CD  ARG A   1      64.827  66.289  70.411  0.00  0.00    +0.000 C 
ATOM      6  NE  ARG A   1      65.355  66.696  69.925  0.00  0.00    +0.000 NA
ATOM      7  CZ  ARG A   1      65.816  67.307  70.238  0.00  0.00    +0.000 C 
ATOM      8  NH1 ARG A   1      66.344  67.714  69.753  0.00  0.00    +0.000 NA
ATOM      9  NH2 ARG A   1      65.747  67.509  71.035  0.00  0.00    +0.000 NA
ATOM     10  C   ARG A   1      62.850  64.254  70.756  0.00  0.00    +0.000 C 
ATOM     11  O   ARG A   1      62.390  63.644  70.444  0.00  0.00    +0.000 OA
ATOM     12  OXT ARG A   1      62.781  64.457  71.553  0.00  0.00    +0.000 OA
ENDROOT
TORSDOF 0
ENDMDL
MODEL 6
REMARK VINA RESULT:    -5.517      6.096      7.001
REMARK INTER + INTRA:          -5.517
REMARK INTER:                  -5.517
REMARK INTRA:                   0.000
REMARK UNBOUND:                 0.000
ROOT
REMARK  Name = arginine
REMARK                            x       y       z     vdW  Elec       q    Type
REMARK                         _______ _______ _______ _____ _____    ______ ____
ATOM      1  N   ARG A   1      65.494  66.896  69.859  0.00  0.00    +0.000 NA
ATOM      2  CA  ARG A   1      65.408  66.568  70.611  0.00  0.00    +0.000 C 
ATOM      3  CB  ARG A   1      64.855  65.969  70.740  0.00  0.00    +0.000 C 
ATOM      4  CG  ARG A   1      64.388  65.698  70.116  0.00  0.00    +0.000 C 
ATOM      5  CD  ARG A   1      63.834  65.099  70.245  0.00  0.00    +0.000 C 
ATOM      6  NE  ARG A   1      63.368  64.829  69.621  0.00  0.00    +0.000 NA
ATOM      7  CZ  ARG A   1      62.814  64.229  69.750  0.00  0.00    +0.000 C 
ATOM      8  NH1 ARG A   1      62.348  63.959  69.126  0.00  0.00    +0.000 NA
ATOM      9  NH2 ARG A   1      62.729  63.902  70.503  0.00  0.00    +0.000 NA
ATOM     10  C   ARG A   1      65.875  66.839  71.235  0.00  0.00    +0.000 C 
ATOM     11  O   ARG A   1      66.428  67.438  71.106  0.00  0.00    +0.000 OA
ATOM     12  OXT ARG A   1      65.789  66.511  71.988  0.00  0.00    +0.000 OA
ENDROOT
TORSDOF 0
ENDMDL
MODEL 7
REMARK VINA RESULT:    -5.511     18.390     19.019
REMARK INTER + INTRA:          -5.511
REMARK INTER:                  -5.511
REMARK INTRA:                   0.000
REMARK UNBOUND:                 0.000
ROOT
REMARK  Name = arginine
REMARK                            x       y       z     vdW  Elec       q    Type
REMARK                         _______ _______ _______ _____ _____    ______ ____
ATOM      1  N   ARG A   1      65.162  77.608  59.717  0.00  0.00    +0.000 NA
ATOM      2  CA  ARG A   1      65.815  78.089  59.564  0.00  0.00    +0.000 C 
ATOM      3  CB  ARG A   1      65.713  78.818  59.190  0.00  0.00    +0.000 C 
ATOM      4  CG  ARG A   1      64.958  79.065  58.969  0.00  0.00    +0.000 C 
ATOM      5  CD  ARG A   1      64.855  79.794  58.595  0.00  0.00    +0.000 C 
ATOM      6  NE  ARG A   1      64.100  80.041  58.374  0.00  0.00    +0.000 NA
ATOM      7  CZ  ARG A   1      63.998  80.770  58.000  0.00  0.00    +0.000 C 
ATOM      8  NH1 ARG A   1      63.243  81.017  57.778  0.00  0.00    +0.000 NA
ATOM      9  NH2 ARG A   1      64.651  81.251  57.847  0.00  0.00    +0.000 NA
ATOM     10  C   ARG A   1      66.570  77.842  59.785  0.00  0.00    +0.000 C 
ATOM     11  O   ARG A   1      66.672  77.113  60.160  0.00  0.00    +0.000 OA
ATOM     12  OXT ARG A   1      67.223  78.323  59.633  0.00  0.00    +0.000 OA
ENDROOT
TORSDOF 0
ENDMDL
MODEL 8
REMARK VINA RESULT:    -5.376      3.817      5.377
REMARK INTER + INTRA:          -5.376
REMARK INTER:                  -5.376
REMARK INTRA:                   0.000
REMARK UNBOUND:                 0.000
ROOT
REMARK  Name = arginine
REMARK                            x       y       z     vdW  Elec       q    Type
REMARK                         _______ _______ _______ _____ _____    ______ ____
ATOM      1  N   ARG A   1      60.090  62.955  71.341  0.00  0.00    +0.000 NA
ATOM      2  CA  ARG A   1      60.801  62.571  71.173  0.00  0.00    +0.000 C 
ATOM      3  CB  ARG A   1      60.981  62.359  70.396  0.00  0.00    +0.000 C 
ATOM      4  CG  ARG A   1      60.450  62.531  69.788  0.00  0.00    +0.000 C 
ATOM      5  CD  ARG A   1      60.631  62.318  69.011  0.00  0.00    +0.000 C 
ATOM      6  NE  ARG A   1      60.100  62.490  68.403  0.00  0.00    +0.000 NA
ATOM      7  CZ  ARG A   1      60.281  62.277  67.626  0.00  0.00    +0.000 C 
ATOM      8  NH1 ARG A   1      59.750  62.449  67.019  0.00  0.00    +0.000 NA
ATOM      9  NH2 ARG A   1      60.991  61.893  67.458  0.00  0.00    +0.000 NA
ATOM     10  C   ARG A   1      61.331  62.399  71.781  0.00  0.00    +0.000 C 
ATOM     11  O   ARG A   1      61.151  62.612  72.558  0.00  0.00    +0.000 OA
ATOM     12  OXT ARG A   1      62.042  62.015  71.612  0.00  0.00    +0.000 OA
ENDROOT
TORSDOF 0
ENDMDL
MODEL 9
REMARK VINA RESULT:    -5.368      2.227      3.246
REMARK INTER + INTRA:          -5.368
REMARK INTER:                  -5.368
REMARK INTRA:                   0.000
REMARK UNBOUND:                 0.000
ROOT
REMARK  Name = arginine
REMARK                            x       y       z     vdW  Elec       q    Type
REMARK                         _______ _______ _______ _____ _____    ______ ____
ATOM      1  N   ARG A   1      60.870  62.104  68.183  0.00  0.00    +0.000 NA
ATOM      2  CA  ARG A   1      60.935  62.717  67.634  0.00  0.00    +0.000 C 
ATOM      3  CB  ARG A   1      60.738  63.489  67.852  0.00  0.00    +0.000 C 
ATOM      4  CG  ARG A   1      60.476  63.646  68.618  0.00  0.00    +0.000 C 
ATOM      5  CD  ARG A   1      60.278  64.418  68.835  0.00  0.00    +0.000 C 
ATOM      6  NE  ARG A   1      60.016  64.576  69.601  0.00  0.00    +0.000 NA
ATOM      7  CZ  ARG A   1      59.818  65.347  69.819  0.00  0.00    +0.000 C 
ATOM      8  NH1 ARG A   1      59.556  65.505  70.585  0.00  0.00    +0.000 NA
ATOM      9  NH2 ARG A   1      59.883  65.960  69.270  0.00  0.00    +0.000 NA
ATOM     10  C   ARG A   1      61.198  62.560  66.868  0.00  0.00    +0.000 C 
ATOM     11  O   ARG A   1      61.395  61.788  66.651  0.00  0.00    +0.000 OA
ATOM     12  OXT ARG A   1      61.263  63.172  66.320  0.00  0.00    +0.000 OA
ENDROOT
TORSDOF 0
ENDMDL
