MODEL 1
REMARK VINA RESULT:   -11.506      0.000      0.000
REMARK INTER + INTRA:         -11.506
REMARK INTER:                 -11.506
REMARK INTRA:                   0.000
REMARK UNBOUND:                 0.000
ROOT
REMARK  Name = artemether
REMARK                            x       y       z     vdW  Elec       q    Type
REMARK                         _______ _______ _______ _____ _____    ______ ____
ATOM      1  C   UNL     1      62.388  64.043  68.904  0.00  0.00    +0.000 C 
ATOM      2  O   UNL     1      61.620  63.779  68.754  0.00  0.00    +0.000 OA
ATOM      3  C   UNL     1      61.450  63.383  68.050  0.00  0.00    +0.000 C 
ATOM      4  O   UNL     1      61.969  63.192  67.418  0.00  0.00    +0.000 OA
ATOM      5  C   UNL     1      61.794  62.780  66.685  0.00  0.00    +0.000 C 
ATOM      6  O   UNL     1      61.679  62.329  65.848  0.00  0.00    +0.000 OA
ATOM      7  C   UNL     1      61.974  62.025  65.101  0.00  0.00    +0.000 C 
ATOM      8  C   UNL     1      62.493  61.842  64.486  0.00  0.00    +0.000 C 
ATOM      9  C   UNL     1      61.348  61.651  64.663  0.00  0.00    +0.000 C 
ATOM     10  C   UNL     1      60.627  61.696  65.101  0.00  0.00    +0.000 C 
ATOM     11  C   UNL     1      60.525  62.058  65.870  0.00  0.00    +0.000 C 
ATOM     12  C   UNL     1      59.690  61.906  65.974  0.00  0.00    +0.000 C 
ATOM     13  C   UNL     1      59.322  61.504  65.354  0.00  0.00    +0.000 C 
ATOM     14  C   UNL     1      59.194  62.110  66.619  0.00  0.00    +0.000 C 
ATOM     15  C   UNL     1      59.736  62.498  67.126  0.00  0.00    +0.000 C 
ATOM     16  C   UNL     1      60.576  62.661  67.041  0.00  0.00    +0.000 C 
ATOM     17  C   UNL     1      60.714  63.072  67.790  0.00  0.00    +0.000 C 
ATOM     18  C   UNL     1      60.065  63.166  68.292  0.00  0.00    +0.000 C 
ATOM     19  C   UNL     1      61.140  62.464  66.376  0.00  0.00    +0.000 C 
ATOM     20  O   UNL     1      62.089  62.589  66.163  0.00  0.00    +0.000 OA
ATOM     21  O   UNL     1      62.614  62.389  65.512  0.00  0.00    +0.000 OA
ENDROOT
TORSDOF 0
ENDMDL
MODEL 2
REMARK VINA RESULT:   -10.551      3.150      4.995
REMARK INTER + INTRA:         -10.551
REMARK INTER:                 -10.551
REMARK INTRA:                   0.000
REMARK UNBOUND:                 0.000
ROOT
REMARK  Name = artemether
REMARK                            x       y       z     vdW  Elec       q    Type
REMARK                         _______ _______ _______ _____ _____    ______ ____
ATOM      1  C   UNL     1      59.358  66.456  71.335  0.00  0.00    +0.000 C 
ATOM      2  O   UNL     1      59.735  65.932  71.850  0.00  0.00    +0.000 OA
ATOM      3  C   UNL     1      59.972  65.189  71.581  0.00  0.00    +0.000 C 
ATOM      4  O   UNL     1      59.887  64.858  70.813  0.00  0.00    +0.000 OA
ATOM      5  C   UNL     1      60.133  64.085  70.531  0.00  0.00    +0.000 C 
ATOM      6  O   UNL     1      60.377  63.244  70.142  0.00  0.00    +0.000 OA
ATOM      7  C   UNL     1      60.418  62.694  69.484  0.00  0.00    +0.000 C 
ATOM      8  C   UNL     1      60.328  62.379  68.727  0.00  0.00    +0.000 C 
ATOM      9  C   UNL     1      60.797  61.971  69.723  0.00  0.00    +0.000 C 
ATOM     10  C   UNL     1      61.018  62.020  70.537  0.00  0.00    +0.000 C 
ATOM     11  C   UNL     1      60.886  62.688  71.057  0.00  0.00    +0.000 C 
ATOM     12  C   UNL     1      61.234  62.367  71.769  0.00  0.00    +0.000 C 
ATOM     13  C   UNL     1      61.541  61.603  71.703  0.00  0.00    +0.000 C 
ATOM     14  C   UNL     1      61.306  62.721  72.526  0.00  0.00    +0.000 C 
ATOM     15  C   UNL     1      60.948  63.467  72.392  0.00  0.00    +0.000 C 
ATOM     16  C   UNL     1      60.594  63.808  71.687  0.00  0.00    +0.000 C 
ATOM     17  C   UNL     1      60.360  64.577  72.007  0.00  0.00    +0.000 C 
ATOM     18  C   UNL     1      60.533  64.722  72.801  0.00  0.00    +0.000 C 
ATOM     19  C   UNL     1      60.496  63.468  70.865  0.00  0.00    +0.000 C 
ATOM     20  O   UNL     1      60.122  63.745  70.002  0.00  0.00    +0.000 OA
ATOM     21  O   UNL     1      60.038  63.399  69.219  0.00  0.00    +0.000 OA
ENDROOT
TORSDOF 0
ENDMDL
MODEL 3
REMARK VINA RESULT:   -10.425      1.913      3.688
REMARK INTER + INTRA:         -10.425
REMARK INTER:                 -10.425
REMARK INTRA:                   0.000
REMARK UNBOUND:                 0.000
ROOT
REMARK  Name = artemether
REMARK                            x       y       z     vdW  Elec       q    Type
REMARK                         _______ _______ _______ _____ _____    ______ ____
ATOM      1  C   UNL     1      63.467  65.759  69.969  0.00  0.00    +0.000 C 
ATOM      2  O   UNL     1      63.121  65.263  70.531  0.00  0.00    +0.000 OA
ATOM      3  C   UNL     1      62.634  64.642  70.289  0.00  0.00    +0.000 C 
ATOM      4  O   UNL     1      62.418  64.419  69.508  0.00  0.00    +0.000 OA
ATOM      5  C   UNL     1      61.911  63.774  69.255  0.00  0.00    +0.000 C 
ATOM      6  O   UNL     1      61.360  63.079  68.894  0.00  0.00    +0.000 OA
ATOM      7  C   UNL     1      61.000  62.657  68.238  0.00  0.00    +0.000 C 
ATOM      8  C   UNL     1      60.795  62.446  67.467  0.00  0.00    +0.000 C 
ATOM      9  C   UNL     1      60.525  62.012  68.524  0.00  0.00    +0.000 C 
ATOM     10  C   UNL     1      60.554  61.987  69.368  0.00  0.00    +0.000 C 
ATOM     11  C   UNL     1      60.992  62.522  69.874  0.00  0.00    +0.000 C 
ATOM     12  C   UNL     1      60.779  62.186  70.630  0.00  0.00    +0.000 C 
ATOM     13  C   UNL     1      60.277  61.531  70.601  0.00  0.00    +0.000 C 
ATOM     14  C   UNL     1      61.010  62.430  71.399  0.00  0.00    +0.000 C 
ATOM     15  C   UNL     1      61.500  63.086  71.221  0.00  0.00    +0.000 C 
ATOM     16  C   UNL     1      61.726  63.439  70.470  0.00  0.00    +0.000 C 
ATOM     17  C   UNL     1      62.230  64.078  70.764  0.00  0.00    +0.000 C 
ATOM     18  C   UNL     1      62.323  64.138  71.582  0.00  0.00    +0.000 C 
ATOM     19  C   UNL     1      61.505  63.213  69.634  0.00  0.00    +0.000 C 
ATOM     20  O   UNL     1      61.689  63.523  68.722  0.00  0.00    +0.000 OA
ATOM     21  O   UNL     1      61.464  63.288  67.926  0.00  0.00    +0.000 OA
ENDROOT
TORSDOF 0
ENDMDL
MODEL 4
REMARK VINA RESULT:   -10.387      2.236      4.836
REMARK INTER + INTRA:         -10.387
REMARK INTER:                 -10.387
REMARK INTRA:                   0.000
REMARK UNBOUND:                 0.000
ROOT
REMARK  Name = artemether
REMARK                            x       y       z     vdW  Elec       q    Type
REMARK                         _______ _______ _______ _____ _____    ______ ____
ATOM      1  C   UNL     1      61.243  63.122  67.142  0.00  0.00    +0.000 C 
ATOM      2  O   UNL     1      60.956  62.683  67.780  0.00  0.00    +0.000 OA
ATOM      3  C   UNL     1      61.148  62.903  68.552  0.00  0.00    +0.000 C 
ATOM      4  O   UNL     1      61.623  63.546  68.811  0.00  0.00    +0.000 OA
ATOM      5  C   UNL     1      61.824  63.776  69.614  0.00  0.00    +0.000 C 
ATOM      6  O   UNL     1      62.092  64.095  70.476  0.00  0.00    +0.000 OA
ATOM      7  C   UNL     1      62.510  64.644  70.987  0.00  0.00    +0.000 C 
ATOM      8  C   UNL     1      62.978  65.279  71.231  0.00  0.00    +0.000 C 
ATOM      9  C   UNL     1      62.396  64.435  71.804  0.00  0.00    +0.000 C 
ATOM     10  C   UNL     1      61.905  63.750  71.859  0.00  0.00    +0.000 C 
ATOM     11  C   UNL     1      61.565  63.319  71.200  0.00  0.00    +0.000 C 
ATOM     12  C   UNL     1      61.151  62.716  71.643  0.00  0.00    +0.000 C 
ATOM     13  C   UNL     1      61.222  62.764  72.464  0.00  0.00    +0.000 C 
ATOM     14  C   UNL     1      60.682  62.082  71.357  0.00  0.00    +0.000 C 
ATOM     15  C   UNL     1      60.732  62.202  70.530  0.00  0.00    +0.000 C 
ATOM     16  C   UNL     1      61.141  62.800  70.066  0.00  0.00    +0.000 C 
ATOM     17  C   UNL     1      60.917  62.537  69.273  0.00  0.00    +0.000 C 
ATOM     18  C   UNL     1      60.434  61.870  69.220  0.00  0.00    +0.000 C 
ATOM     19  C   UNL     1      61.648  63.488  70.327  0.00  0.00    +0.000 C 
ATOM     20  O   UNL     1      62.156  64.218  69.914  0.00  0.00    +0.000 OA
ATOM     21  O   UNL     1      62.640  64.874  70.187  0.00  0.00    +0.000 OA
ENDROOT
TORSDOF 0
ENDMDL
MODEL 5
REMARK VINA RESULT:    -9.992      4.467      5.677
REMARK INTER + INTRA:          -9.992
REMARK INTER:                  -9.992
REMARK INTRA:                   0.000
REMARK UNBOUND:                 0.000
ROOT
REMARK  Name = artemether
REMARK                            x       y       z     vdW  Elec       q    Type
REMARK                         _______ _______ _______ _____ _____    ______ ____
ATOM      1  C   UNL     1      64.626  64.654  69.838  0.00  0.00    +0.000 C 
ATOM      2  O   UNL     1      64.232  65.033  70.457  0.00  0.00    +0.000 OA
ATOM      3  C   UNL     1      63.524  64.722  70.747  0.00  0.00    +0.000 C 
ATOM      4  O   UNL     1      63.112  64.034  70.496  0.00  0.00    +0.000 OA
ATOM      5  C   UNL     1      62.376  63.709  70.797  0.00  0.00    +0.000 C 
ATOM      6  O   UNL     1      61.564  63.287  71.076  0.00  0.00    +0.000 OA
ATOM      7  C   UNL     1      60.971  62.667  71.022  0.00  0.00    +0.000 C 
ATOM      8  C   UNL     1      60.575  61.989  70.768  0.00  0.00    +0.000 C 
ATOM      9  C   UNL     1      60.358  62.790  71.598  0.00  0.00    +0.000 C 
ATOM     10  C   UNL     1      60.523  63.487  72.047  0.00  0.00    +0.000 C 
ATOM     11  C   UNL     1      61.201  64.002  71.949  0.00  0.00    +0.000 C 
ATOM     12  C   UNL     1      61.019  64.571  72.561  0.00  0.00    +0.000 C 
ATOM     13  C   UNL     1      60.323  64.430  72.983  0.00  0.00    +0.000 C 
ATOM     14  C   UNL     1      61.450  65.252  72.791  0.00  0.00    +0.000 C 
ATOM     15  C   UNL     1      62.100  65.221  72.263  0.00  0.00    +0.000 C 
ATOM     16  C   UNL     1      62.301  64.660  71.642  0.00  0.00    +0.000 C 
ATOM     17  C   UNL     1      63.039  65.017  71.367  0.00  0.00    +0.000 C 
ATOM     18  C   UNL     1      63.287  65.706  71.745  0.00  0.00    +0.000 C 
ATOM     19  C   UNL     1      61.873  63.925  71.366  0.00  0.00    +0.000 C 
ATOM     20  O   UNL     1      61.992  63.223  70.692  0.00  0.00    +0.000 OA
ATOM     21  O   UNL     1      61.564  62.520  70.441  0.00  0.00    +0.000 OA
ENDROOT
TORSDOF 0
ENDMDL
MODEL 6
REMARK VINA RESULT:    -9.974      3.372      4.928
REMARK INTER + INTRA:          -9.974
REMARK INTER:                  -9.974
REMARK INTRA:                   0.000
REMARK UNBOUND:                 0.000
ROOT
REMARK  Name = artemether
REMARK                            x       y       z     vdW  Elec       q    Type
REMARK                         _______ _______ _______ _____ _____    ______ ____
ATOM      1  C   UNL     1      60.218  66.366  69.090  0.00  0.00    +0.000 C 
ATOM      2  O   UNL     1      60.167  65.585  68.827  0.00  0.00    +0.000 OA
ATOM      3  C   UNL     1      60.338  64.964  69.343  0.00  0.00    +0.000 C 
ATOM      4  O   UNL     1      60.570  65.001  70.150  0.00  0.00    +0.000 OA
ATOM      5  C   UNL     1      60.747  64.356  70.688  0.00  0.00    +0.000 C 
ATOM      6  O   UNL     1      60.960  63.694  71.347  0.00  0.00    +0.000 OA
ATOM      7  C   UNL     1      61.197  63.457  72.137  0.00  0.00    +0.000 C 
ATOM      8  C   UNL     1      61.425  63.506  72.929  0.00  0.00    +0.000 C 
ATOM      9  C   UNL     1      61.241  62.610  72.193  0.00  0.00    +0.000 C 
ATOM     10  C   UNL     1      61.037  62.263  71.451  0.00  0.00    +0.000 C 
ATOM     11  C   UNL     1      60.817  62.687  70.739  0.00  0.00    +0.000 C 
ATOM     12  C   UNL     1      60.689  62.016  70.225  0.00  0.00    +0.000 C 
ATOM     13  C   UNL     1      60.813  61.275  70.568  0.00  0.00    +0.000 C 
ATOM     14  C   UNL     1      60.456  62.007  69.419  0.00  0.00    +0.000 C 
ATOM     15  C   UNL     1      60.383  62.826  69.261  0.00  0.00    +0.000 C 
ATOM     16  C   UNL     1      60.506  63.515  69.762  0.00  0.00    +0.000 C 
ATOM     17  C   UNL     1      60.320  64.137  69.191  0.00  0.00    +0.000 C 
ATOM     18  C   UNL     1      60.107  63.898  68.430  0.00  0.00    +0.000 C 
ATOM     19  C   UNL     1      60.753  63.570  70.620  0.00  0.00    +0.000 C 
ATOM     20  O   UNL     1      60.924  64.269  71.286  0.00  0.00    +0.000 OA
ATOM     21  O   UNL     1      61.162  64.299  72.112  0.00  0.00    +0.000 OA
ENDROOT
TORSDOF 0
ENDMDL
MODEL 7
REMARK VINA RESULT:    -9.749      5.322      7.220
REMARK INTER + INTRA:          -9.749
REMARK INTER:                  -9.749
REMARK INTRA:                   0.000
REMARK UNBOUND:                 0.000
ROOT
REMARK  Name = artemether
REMARK                            x       y       z     vdW  Elec       q    Type
REMARK                         _______ _______ _______ _____ _____    ______ ____
ATOM      1  C   UNL     1      60.780  67.102  72.925  0.00  0.00    +0.000 C 
ATOM      2  O   UNL     1      61.511  67.487  72.912  0.00  0.00    +0.000 OA
ATOM      3  C   UNL     1      62.145  67.153  72.502  0.00  0.00    +0.000 C 
ATOM      4  O   UNL     1      62.167  66.435  72.066  0.00  0.00    +0.000 OA
ATOM      5  C   UNL     1      62.826  66.087  71.639  0.00  0.00    +0.000 C 
ATOM      6  O   UNL     1      63.509  65.635  71.143  0.00  0.00    +0.000 OA
ATOM      7  C   UNL     1      63.795  64.985  70.660  0.00  0.00    +0.000 C 
ATOM      8  C   UNL     1      63.805  64.278  70.234  0.00  0.00    +0.000 C 
ATOM      9  C   UNL     1      64.613  65.101  70.457  0.00  0.00    +0.000 C 
ATOM     10  C   UNL     1      64.891  65.823  70.796  0.00  0.00    +0.000 C 
ATOM     11  C   UNL     1      64.432  66.367  71.273  0.00  0.00    +0.000 C 
ATOM     12  C   UNL     1      65.039  66.952  71.420  0.00  0.00    +0.000 C 
ATOM     13  C   UNL     1      65.775  66.794  71.081  0.00  0.00    +0.000 C 
ATOM     14  C   UNL     1      64.989  67.663  71.862  0.00  0.00    +0.000 C 
ATOM     15  C   UNL     1      64.191  67.642  72.114  0.00  0.00    +0.000 C 
ATOM     16  C   UNL     1      63.566  67.067  71.978  0.00  0.00    +0.000 C 
ATOM     17  C   UNL     1      62.927  67.449  72.419  0.00  0.00    +0.000 C 
ATOM     18  C   UNL     1      63.102  68.165  72.788  0.00  0.00    +0.000 C 
ATOM     19  C   UNL     1      63.576  66.300  71.518  0.00  0.00    +0.000 C 
ATOM     20  O   UNL     1      62.953  65.577  71.293  0.00  0.00    +0.000 OA
ATOM     21  O   UNL     1      62.984  64.843  70.845  0.00  0.00    +0.000 OA
ENDROOT
TORSDOF 0
ENDMDL
MODEL 8
REMARK VINA RESULT:    -9.622      5.868      6.937
REMARK INTER + INTRA:          -9.622
REMARK INTER:                  -9.622
REMARK INTRA:                   0.000
REMARK UNBOUND:                 0.000
ROOT
REMARK  Name = artemether
REMARK                            x       y       z     vdW  Elec       q    Type
REMARK                         _______ _______ _______ _____ _____    ______ ____
ATOM      1  C   UNL     1      64.475  66.925  71.684  0.00  0.00    +0.000 C 
ATOM      2  O   UNL     1      63.761  67.202  71.992  0.00  0.00    +0.000 OA
ATOM      3  C   UNL     1      63.140  66.676  72.130  0.00  0.00    +0.000 C 
ATOM      4  O   UNL     1      63.116  65.847  71.998  0.00  0.00    +0.000 OA
ATOM      5  C   UNL     1      62.471  65.299  72.141  0.00  0.00    +0.000 C 
ATOM      6  O   UNL     1      61.801  64.627  72.272  0.00  0.00    +0.000 OA
ATOM      7  C   UNL     1      61.520  63.816  72.237  0.00  0.00    +0.000 C 
ATOM      8  C   UNL     1      61.508  63.002  72.103  0.00  0.00    +0.000 C 
ATOM      9  C   UNL     1      60.720  63.765  72.521  0.00  0.00    +0.000 C 
ATOM     10  C   UNL     1      60.449  64.532  72.751  0.00  0.00    +0.000 C 
ATOM     11  C   UNL     1      60.900  65.260  72.710  0.00  0.00    +0.000 C 
ATOM     12  C   UNL     1      60.307  65.794  73.017  0.00  0.00    +0.000 C 
ATOM     13  C   UNL     1      59.586  65.448  73.222  0.00  0.00    +0.000 C 
ATOM     14  C   UNL     1      60.358  66.623  73.140  0.00  0.00    +0.000 C 
ATOM     15  C   UNL     1      61.139  66.778  72.880  0.00  0.00    +0.000 C 
ATOM     16  C   UNL     1      61.749  66.257  72.568  0.00  0.00    +0.000 C 
ATOM     17  C   UNL     1      62.375  66.840  72.438  0.00  0.00    +0.000 C 
ATOM     18  C   UNL     1      62.206  67.624  72.633  0.00  0.00    +0.000 C 
ATOM     19  C   UNL     1      61.737  65.375  72.423  0.00  0.00    +0.000 C 
ATOM     20  O   UNL     1      62.345  64.685  72.083  0.00  0.00    +0.000 OA
ATOM     21  O   UNL     1      62.313  63.836  71.950  0.00  0.00    +0.000 OA
ENDROOT
TORSDOF 0
ENDMDL
MODEL 9
REMARK VINA RESULT:    -9.600      4.091      7.218
REMARK INTER + INTRA:          -9.600
REMARK INTER:                  -9.600
REMARK INTRA:                   0.000
REMARK UNBOUND:                 0.000
ROOT
REMARK  Name = artemether
REMARK                            x       y       z     vdW  Elec       q    Type
REMARK                         _______ _______ _______ _____ _____    ______ ____
ATOM      1  C   UNL     1      61.977  63.716  69.874  0.00  0.00    +0.000 C 
ATOM      2  O   UNL     1      62.757  63.981  69.826  0.00  0.00    +0.000 OA
ATOM      3  C   UNL     1      62.992  64.649  70.250  0.00  0.00    +0.000 C 
ATOM      4  O   UNL     1      62.533  65.137  70.756  0.00  0.00    +0.000 OA
ATOM      5  C   UNL     1      62.776  65.832  71.198  0.00  0.00    +0.000 C 
ATOM      6  O   UNL     1      62.969  66.613  71.718  0.00  0.00    +0.000 OA
ATOM      7  C   UNL     1      62.744  67.242  72.257  0.00  0.00    +0.000 C 
ATOM      8  C   UNL     1      62.283  67.715  72.753  0.00  0.00    +0.000 C 
ATOM      9  C   UNL     1      63.410  67.745  72.423  0.00  0.00    +0.000 C 
ATOM     10  C   UNL     1      64.089  67.468  72.004  0.00  0.00    +0.000 C 
ATOM     11  C   UNL     1      64.119  66.785  71.486  0.00  0.00    +0.000 C 
ATOM     12  C   UNL     1      64.943  66.831  71.262  0.00  0.00    +0.000 C 
ATOM     13  C   UNL     1      65.368  67.456  71.594  0.00  0.00    +0.000 C 
ATOM     14  C   UNL     1      65.378  66.328  70.751  0.00  0.00    +0.000 C 
ATOM     15  C   UNL     1      64.790  65.776  70.525  0.00  0.00    +0.000 C 
ATOM     16  C   UNL     1      63.959  65.713  70.738  0.00  0.00    +0.000 C 
ATOM     17  C   UNL     1      63.752  65.009  70.279  0.00  0.00    +0.000 C 
ATOM     18  C   UNL     1      64.352  64.661  69.833  0.00  0.00    +0.000 C 
ATOM     19  C   UNL     1      63.458  66.223  71.275  0.00  0.00    +0.000 C 
ATOM     20  O   UNL     1      62.530  66.258  71.591  0.00  0.00    +0.000 OA
ATOM     21  O   UNL     1      62.067  66.762  72.111  0.00  0.00    +0.000 OA
ENDROOT
TORSDOF 0
ENDMDL
