MODEL 1
REMARK VINA RESULT:   -11.958      0.000      0.000
REMARK INTER + INTRA:         -11.958
REMARK INTER:                 -11.958
REMARK INTRA:                   0.000
REMARK UNBOUND:                 0.000
ROOT
REMARK  Name = artemotil
REMARK                            x       y       z     vdW  Elec       q    Type
REMARK                         _______ _______ _______ _____ _____    ______ ____
ATOM      1  C   UNL     1      62.577  64.399  69.624  0.00  0.00    +0.000 C 
ATOM      2  C   UNL     1      62.403  64.010  68.919  0.00  0.00    +0.000 C 
ATOM      3  O   UNL     1      61.634  63.751  68.769  0.00  0.00    +0.000 OA
ATOM      4  C   UNL     1      61.460  63.361  68.062  0.00  0.00    +0.000 C 
ATOM      5  O   UNL     1      61.977  63.173  67.427  0.00  0.00    +0.000 OA
ATOM      6  C   UNL     1      61.798  62.768  66.691  0.00  0.00    +0.000 C 
ATOM      7  O   UNL     1      61.679  62.325  65.850  0.00  0.00    +0.000 OA
ATOM      8  C   UNL     1      61.971  62.027  65.100  0.00  0.00    +0.000 C 
ATOM      9  C   UNL     1      62.487  61.847  64.481  0.00  0.00    +0.000 C 
ATOM     10  C   UNL     1      61.342  61.659  64.660  0.00  0.00    +0.000 C 
ATOM     11  C   UNL     1      60.623  61.702  65.101  0.00  0.00    +0.000 C 
ATOM     12  C   UNL     1      60.524  62.059  65.874  0.00  0.00    +0.000 C 
ATOM     13  C   UNL     1      59.689  61.909  65.978  0.00  0.00    +0.000 C 
ATOM     14  C   UNL     1      59.317  61.513  65.356  0.00  0.00    +0.000 C 
ATOM     15  C   UNL     1      59.195  62.109  66.626  0.00  0.00    +0.000 C 
ATOM     16  C   UNL     1      59.740  62.490  67.135  0.00  0.00    +0.000 C 
ATOM     17  C   UNL     1      60.581  62.651  67.049  0.00  0.00    +0.000 C 
ATOM     18  C   UNL     1      60.722  63.055  67.801  0.00  0.00    +0.000 C 
ATOM     19  C   UNL     1      60.076  63.147  68.306  0.00  0.00    +0.000 C 
ATOM     20  C   UNL     1      61.142  62.457  66.381  0.00  0.00    +0.000 C 
ATOM     21  O   UNL     1      62.091  62.580  66.166  0.00  0.00    +0.000 OA
ATOM     22  O   UNL     1      62.613  62.385  65.512  0.00  0.00    +0.000 OA
ENDROOT
TORSDOF 0
ENDMDL
MODEL 2
REMARK VINA RESULT:   -11.047      1.806      3.556
REMARK INTER + INTRA:         -11.047
REMARK INTER:                 -11.047
REMARK INTRA:                   0.000
REMARK UNBOUND:                 0.000
ROOT
REMARK  Name = artemotil
REMARK                            x       y       z     vdW  Elec       q    Type
REMARK                         _______ _______ _______ _____ _____    ______ ____
ATOM      1  C   UNL     1      64.161  66.237  69.890  0.00  0.00    +0.000 C 
ATOM      2  C   UNL     1      63.635  65.636  69.687  0.00  0.00    +0.000 C 
ATOM      3  O   UNL     1      63.282  65.180  70.278  0.00  0.00    +0.000 OA
ATOM      4  C   UNL     1      62.755  64.578  70.075  0.00  0.00    +0.000 C 
ATOM      5  O   UNL     1      62.503  64.338  69.310  0.00  0.00    +0.000 OA
ATOM      6  C   UNL     1      61.955  63.713  69.097  0.00  0.00    +0.000 C 
ATOM      7  O   UNL     1      61.357  63.035  68.779  0.00  0.00    +0.000 OA
ATOM      8  C   UNL     1      60.955  62.610  68.151  0.00  0.00    +0.000 C 
ATOM      9  C   UNL     1      60.714  62.383  67.395  0.00  0.00    +0.000 C 
ATOM     10  C   UNL     1      60.456  62.002  68.475  0.00  0.00    +0.000 C 
ATOM     11  C   UNL     1      60.511  62.006  69.318  0.00  0.00    +0.000 C 
ATOM     12  C   UNL     1      60.992  62.535  69.790  0.00  0.00    +0.000 C 
ATOM     13  C   UNL     1      60.787  62.238  70.565  0.00  0.00    +0.000 C 
ATOM     14  C   UNL     1      60.251  61.610  70.575  0.00  0.00    +0.000 C 
ATOM     15  C   UNL     1      61.055  62.497  71.316  0.00  0.00    +0.000 C 
ATOM     16  C   UNL     1      61.572  63.119  71.099  0.00  0.00    +0.000 C 
ATOM     17  C   UNL     1      61.793  63.433  70.329  0.00  0.00    +0.000 C 
ATOM     18  C   UNL     1      62.339  64.053  70.583  0.00  0.00    +0.000 C 
ATOM     19  C   UNL     1      62.461  64.138  71.395  0.00  0.00    +0.000 C 
ATOM     20  C   UNL     1      61.533  63.188  69.509  0.00  0.00    +0.000 C 
ATOM     21  O   UNL     1      61.703  63.455  68.581  0.00  0.00    +0.000 OA
ATOM     22  O   UNL     1      61.440  63.204  67.801  0.00  0.00    +0.000 OA
ENDROOT
TORSDOF 0
ENDMDL
MODEL 3
REMARK VINA RESULT:   -11.025      3.079      5.030
REMARK INTER + INTRA:         -11.025
REMARK INTER:                 -11.025
REMARK INTRA:                   0.000
REMARK UNBOUND:                 0.000
ROOT
REMARK  Name = artemotil
REMARK                            x       y       z     vdW  Elec       q    Type
REMARK                         _______ _______ _______ _____ _____    ______ ____
ATOM      1  C   UNL     1      59.124  67.175  71.644  0.00  0.00    +0.000 C 
ATOM      2  C   UNL     1      59.362  66.432  71.377  0.00  0.00    +0.000 C 
ATOM      3  O   UNL     1      59.743  65.911  71.893  0.00  0.00    +0.000 OA
ATOM      4  C   UNL     1      59.982  65.168  71.627  0.00  0.00    +0.000 C 
ATOM      5  O   UNL     1      59.894  64.832  70.861  0.00  0.00    +0.000 OA
ATOM      6  C   UNL     1      60.142  64.059  70.582  0.00  0.00    +0.000 C 
ATOM      7  O   UNL     1      60.387  63.217  70.197  0.00  0.00    +0.000 OA
ATOM      8  C   UNL     1      60.427  62.664  69.541  0.00  0.00    +0.000 C 
ATOM      9  C   UNL     1      60.335  62.344  68.786  0.00  0.00    +0.000 C 
ATOM     10  C   UNL     1      60.810  61.944  69.782  0.00  0.00    +0.000 C 
ATOM     11  C   UNL     1      61.033  61.997  70.596  0.00  0.00    +0.000 C 
ATOM     12  C   UNL     1      60.901  62.667  71.113  0.00  0.00    +0.000 C 
ATOM     13  C   UNL     1      61.253  62.351  71.825  0.00  0.00    +0.000 C 
ATOM     14  C   UNL     1      61.562  61.588  71.761  0.00  0.00    +0.000 C 
ATOM     15  C   UNL     1      61.328  62.710  72.579  0.00  0.00    +0.000 C 
ATOM     16  C   UNL     1      60.967  63.453  72.443  0.00  0.00    +0.000 C 
ATOM     17  C   UNL     1      60.608  63.790  71.737  0.00  0.00    +0.000 C 
ATOM     18  C   UNL     1      60.373  64.559  72.055  0.00  0.00    +0.000 C 
ATOM     19  C   UNL     1      60.549  64.709  72.847  0.00  0.00    +0.000 C 
ATOM     20  C   UNL     1      60.508  63.445  70.918  0.00  0.00    +0.000 C 
ATOM     21  O   UNL     1      60.130  63.716  70.055  0.00  0.00    +0.000 OA
ATOM     22  O   UNL     1      60.044  63.366  69.274  0.00  0.00    +0.000 OA
ENDROOT
TORSDOF 0
ENDMDL
MODEL 4
REMARK VINA RESULT:   -10.883      2.199      5.056
REMARK INTER + INTRA:         -10.883
REMARK INTER:                 -10.883
REMARK INTRA:                   0.000
REMARK UNBOUND:                 0.000
ROOT
REMARK  Name = artemotil
REMARK                            x       y       z     vdW  Elec       q    Type
REMARK                         _______ _______ _______ _____ _____    ______ ____
ATOM      1  C   UNL     1      60.415  62.622  66.831  0.00  0.00    +0.000 C 
ATOM      2  C   UNL     1      60.679  62.897  67.562  0.00  0.00    +0.000 C 
ATOM      3  O   UNL     1      60.576  62.434  68.238  0.00  0.00    +0.000 OA
ATOM      4  C   UNL     1      60.841  62.710  68.970  0.00  0.00    +0.000 C 
ATOM      5  O   UNL     1      61.224  63.436  69.150  0.00  0.00    +0.000 OA
ATOM      6  C   UNL     1      61.499  63.724  69.910  0.00  0.00    +0.000 C 
ATOM      7  O   UNL     1      61.833  64.114  70.719  0.00  0.00    +0.000 OA
ATOM      8  C   UNL     1      62.216  64.745  71.157  0.00  0.00    +0.000 C 
ATOM      9  C   UNL     1      62.592  65.461  71.322  0.00  0.00    +0.000 C 
ATOM     10  C   UNL     1      62.268  64.546  71.983  0.00  0.00    +0.000 C 
ATOM     11  C   UNL     1      61.924  63.786  72.116  0.00  0.00    +0.000 C 
ATOM     12  C   UNL     1      61.573  63.279  71.520  0.00  0.00    +0.000 C 
ATOM     13  C   UNL     1      61.347  62.626  72.024  0.00  0.00    +0.000 C 
ATOM     14  C   UNL     1      61.532  62.713  72.824  0.00  0.00    +0.000 C 
ATOM     15  C   UNL     1      60.964  61.910  71.817  0.00  0.00    +0.000 C 
ATOM     16  C   UNL     1      60.864  62.010  70.992  0.00  0.00    +0.000 C 
ATOM     17  C   UNL     1      61.083  62.656  70.467  0.00  0.00    +0.000 C 
ATOM     18  C   UNL     1      60.792  62.332  69.720  0.00  0.00    +0.000 C 
ATOM     19  C   UNL     1      60.437  61.588  69.745  0.00  0.00    +0.000 C 
ATOM     20  C   UNL     1      61.490  63.432  70.644  0.00  0.00    +0.000 C 
ATOM     21  O   UNL     1      61.787  64.228  70.154  0.00  0.00    +0.000 OA
ATOM     22  O   UNL     1      62.179  64.969  70.345  0.00  0.00    +0.000 OA
ENDROOT
TORSDOF 0
ENDMDL
MODEL 5
REMARK VINA RESULT:   -10.479      3.545      5.010
REMARK INTER + INTRA:         -10.479
REMARK INTER:                 -10.479
REMARK INTRA:                   0.000
REMARK UNBOUND:                 0.000
ROOT
REMARK  Name = artemotil
REMARK                            x       y       z     vdW  Elec       q    Type
REMARK                         _______ _______ _______ _____ _____    ______ ____
ATOM      1  C   UNL     1      59.765  67.021  68.987  0.00  0.00    +0.000 C 
ATOM      2  C   UNL     1      59.989  66.382  69.458  0.00  0.00    +0.000 C 
ATOM      3  O   UNL     1      59.974  65.616  69.149  0.00  0.00    +0.000 OA
ATOM      4  C   UNL     1      60.198  64.977  69.620  0.00  0.00    +0.000 C 
ATOM      5  O   UNL     1      60.457  64.980  70.419  0.00  0.00    +0.000 OA
ATOM      6  C   UNL     1      60.691  64.316  70.911  0.00  0.00    +0.000 C 
ATOM      7  O   UNL     1      60.965  63.630  71.521  0.00  0.00    +0.000 OA
ATOM      8  C   UNL     1      61.244  63.361  72.287  0.00  0.00    +0.000 C 
ATOM      9  C   UNL     1      61.497  63.376  73.072  0.00  0.00    +0.000 C 
ATOM     10  C   UNL     1      61.339  62.516  72.289  0.00  0.00    +0.000 C 
ATOM     11  C   UNL     1      61.129  62.202  71.533  0.00  0.00    +0.000 C 
ATOM     12  C   UNL     1      60.859  62.654  70.857  0.00  0.00    +0.000 C 
ATOM     13  C   UNL     1      60.752  62.008  70.306  0.00  0.00    +0.000 C 
ATOM     14  C   UNL     1      60.931  61.257  70.599  0.00  0.00    +0.000 C 
ATOM     15  C   UNL     1      60.491  62.034  69.509  0.00  0.00    +0.000 C 
ATOM     16  C   UNL     1      60.365  62.855  69.405  0.00  0.00    +0.000 C 
ATOM     17  C   UNL     1      60.466  63.519  69.943  0.00  0.00    +0.000 C 
ATOM     18  C   UNL     1      60.224  64.161  69.417  0.00  0.00    +0.000 C 
ATOM     19  C   UNL     1      59.998  63.956  68.651  0.00  0.00    +0.000 C 
ATOM     20  C   UNL     1      60.740  63.537  70.794  0.00  0.00    +0.000 C 
ATOM     21  O   UNL     1      60.893  64.204  71.496  0.00  0.00    +0.000 OA
ATOM     22  O   UNL     1      61.159  64.199  72.314  0.00  0.00    +0.000 OA
ENDROOT
TORSDOF 0
ENDMDL
MODEL 6
REMARK VINA RESULT:   -10.328      5.055      6.504
REMARK INTER + INTRA:         -10.328
REMARK INTER:                 -10.328
REMARK INTRA:                   0.000
REMARK UNBOUND:                 0.000
ROOT
REMARK  Name = artemotil
REMARK                            x       y       z     vdW  Elec       q    Type
REMARK                         _______ _______ _______ _____ _____    ______ ____
ATOM      1  C   UNL     1      66.395  67.674  69.850  0.00  0.00    +0.000 C 
ATOM      2  C   UNL     1      65.752  67.327  70.232  0.00  0.00    +0.000 C 
ATOM      3  O   UNL     1      65.438  66.618  69.950  0.00  0.00    +0.000 OA
ATOM      4  C   UNL     1      64.794  66.271  70.333  0.00  0.00    +0.000 C 
ATOM      5  O   UNL     1      64.378  66.543  71.010  0.00  0.00    +0.000 OA
ATOM      6  C   UNL     1      63.709  66.184  71.410  0.00  0.00    +0.000 C 
ATOM      7  O   UNL     1      62.964  65.847  71.909  0.00  0.00    +0.000 OA
ATOM      8  C   UNL     1      62.396  65.893  72.551  0.00  0.00    +0.000 C 
ATOM      9  C   UNL     1      61.994  66.170  73.217  0.00  0.00    +0.000 C 
ATOM     10  C   UNL     1      61.869  65.225  72.531  0.00  0.00    +0.000 C 
ATOM     11  C   UNL     1      62.069  64.722  71.882  0.00  0.00    +0.000 C 
ATOM     12  C   UNL     1      62.704  64.851  71.321  0.00  0.00    +0.000 C 
ATOM     13  C   UNL     1      62.590  64.155  70.837  0.00  0.00    +0.000 C 
ATOM     14  C   UNL     1      61.970  63.660  71.066  0.00  0.00    +0.000 C 
ATOM     15  C   UNL     1      63.022  63.906  70.163  0.00  0.00    +0.000 C 
ATOM     16  C   UNL     1      63.588  64.520  70.096  0.00  0.00    +0.000 C 
ATOM     17  C   UNL     1      63.719  65.227  70.569  0.00  0.00    +0.000 C 
ATOM     18  C   UNL     1      64.393  65.558  70.140  0.00  0.00    +0.000 C 
ATOM     19  C   UNL     1      64.666  65.136  69.485  0.00  0.00    +0.000 C 
ATOM     20  C   UNL     1      63.285  65.528  71.291  0.00  0.00    +0.000 C 
ATOM     21  O   UNL     1      63.333  66.293  71.903  0.00  0.00    +0.000 OA
ATOM     22  O   UNL     1      62.902  66.565  72.596  0.00  0.00    +0.000 OA
ENDROOT
TORSDOF 0
ENDMDL
MODEL 7
REMARK VINA RESULT:   -10.220      4.582      6.542
REMARK INTER + INTRA:         -10.220
REMARK INTER:                 -10.220
REMARK INTRA:                   0.000
REMARK UNBOUND:                 0.000
ROOT
REMARK  Name = artemotil
REMARK                            x       y       z     vdW  Elec       q    Type
REMARK                         _______ _______ _______ _____ _____    ______ ____
ATOM      1  C   UNL     1      66.427  67.625  70.009  0.00  0.00    +0.000 C 
ATOM      2  C   UNL     1      65.806  67.117  70.203  0.00  0.00    +0.000 C 
ATOM      3  O   UNL     1      65.313  67.294  70.841  0.00  0.00    +0.000 OA
ATOM      4  C   UNL     1      64.692  66.786  71.035  0.00  0.00    +0.000 C 
ATOM      5  O   UNL     1      64.466  66.068  70.663  0.00  0.00    +0.000 OA
ATOM      6  C   UNL     1      63.821  65.539  70.864  0.00  0.00    +0.000 C 
ATOM      7  O   UNL     1      63.125  64.900  71.024  0.00  0.00    +0.000 OA
ATOM      8  C   UNL     1      62.701  64.176  70.843  0.00  0.00    +0.000 C 
ATOM      9  C   UNL     1      62.488  63.471  70.469  0.00  0.00    +0.000 C 
ATOM     10  C   UNL     1      62.058  64.062  71.388  0.00  0.00    +0.000 C 
ATOM     11  C   UNL     1      62.036  64.700  71.941  0.00  0.00    +0.000 C 
ATOM     12  C   UNL     1      62.573  65.368  71.963  0.00  0.00    +0.000 C 
ATOM     13  C   UNL     1      62.240  65.778  72.635  0.00  0.00    +0.000 C 
ATOM     14  C   UNL     1      61.585  65.416  72.984  0.00  0.00    +0.000 C 
ATOM     15  C   UNL     1      62.487  66.498  72.988  0.00  0.00    +0.000 C 
ATOM     16  C   UNL     1      63.141  66.700  72.506  0.00  0.00    +0.000 C 
ATOM     17  C   UNL     1      63.491  66.304  71.828  0.00  0.00    +0.000 C 
ATOM     18  C   UNL     1      64.130  66.861  71.656  0.00  0.00    +0.000 C 
ATOM     19  C   UNL     1      64.193  67.523  72.145  0.00  0.00    +0.000 C 
ATOM     20  C   UNL     1      63.262  65.541  71.421  0.00  0.00    +0.000 C 
ATOM     21  O   UNL     1      63.568  64.997  70.665  0.00  0.00    +0.000 OA
ATOM     22  O   UNL     1      63.331  64.261  70.288  0.00  0.00    +0.000 OA
ENDROOT
TORSDOF 0
ENDMDL
MODEL 8
REMARK VINA RESULT:   -10.166      5.773      6.865
REMARK INTER + INTRA:         -10.166
REMARK INTER:                 -10.166
REMARK INTRA:                   0.000
REMARK UNBOUND:                 0.000
ROOT
REMARK  Name = artemotil
REMARK                            x       y       z     vdW  Elec       q    Type
REMARK                         _______ _______ _______ _____ _____    ______ ____
ATOM      1  C   UNL     1      65.078  67.296  71.609  0.00  0.00    +0.000 C 
ATOM      2  C   UNL     1      64.431  66.803  71.741  0.00  0.00    +0.000 C 
ATOM      3  O   UNL     1      63.727  67.116  72.039  0.00  0.00    +0.000 OA
ATOM      4  C   UNL     1      63.079  66.622  72.171  0.00  0.00    +0.000 C 
ATOM      5  O   UNL     1      63.017  65.794  72.042  0.00  0.00    +0.000 OA
ATOM      6  C   UNL     1      62.344  65.279  72.179  0.00  0.00    +0.000 C 
ATOM      7  O   UNL     1      61.640  64.641  72.304  0.00  0.00    +0.000 OA
ATOM      8  C   UNL     1      61.320  63.845  72.269  0.00  0.00    +0.000 C 
ATOM      9  C   UNL     1      61.270  63.031  72.138  0.00  0.00    +0.000 C 
ATOM     10  C   UNL     1      60.515  63.835  72.543  0.00  0.00    +0.000 C 
ATOM     11  C   UNL     1      60.279  64.614  72.766  0.00  0.00    +0.000 C 
ATOM     12  C   UNL     1      60.765  65.319  72.728  0.00  0.00    +0.000 C 
ATOM     13  C   UNL     1      60.196  65.884  73.025  0.00  0.00    +0.000 C 
ATOM     14  C   UNL     1      59.456  65.573  73.222  0.00  0.00    +0.000 C 
ATOM     15  C   UNL     1      60.286  66.709  73.145  0.00  0.00    +0.000 C 
ATOM     16  C   UNL     1      61.076  66.825  72.895  0.00  0.00    +0.000 C 
ATOM     17  C   UNL     1      61.664  66.274  72.593  0.00  0.00    +0.000 C 
ATOM     18  C   UNL     1      62.319  66.824  72.469  0.00  0.00    +0.000 C 
ATOM     19  C   UNL     1      62.187  67.616  72.659  0.00  0.00    +0.000 C 
ATOM     20  C   UNL     1      61.611  65.392  72.451  0.00  0.00    +0.000 C 
ATOM     21  O   UNL     1      62.188  64.671  72.122  0.00  0.00    +0.000 OA
ATOM     22  O   UNL     1      62.116  63.824  71.992  0.00  0.00    +0.000 OA
ENDROOT
TORSDOF 0
ENDMDL
MODEL 9
REMARK VINA RESULT:   -10.104      3.751      5.897
REMARK INTER + INTRA:         -10.104
REMARK INTER:                 -10.104
REMARK INTRA:                   0.000
REMARK UNBOUND:                 0.000
ROOT
REMARK  Name = artemotil
REMARK                            x       y       z     vdW  Elec       q    Type
REMARK                         _______ _______ _______ _____ _____    ______ ____
ATOM      1  C   UNL     1      60.477  61.638  69.782  0.00  0.00    +0.000 C 
ATOM      2  C   UNL     1      60.994  62.250  69.979  0.00  0.00    +0.000 C 
ATOM      3  O   UNL     1      60.844  62.719  70.641  0.00  0.00    +0.000 OA
ATOM      4  C   UNL     1      61.362  63.331  70.838  0.00  0.00    +0.000 C 
ATOM      5  O   UNL     1      62.065  63.570  70.445  0.00  0.00    +0.000 OA
ATOM      6  C   UNL     1      62.605  64.206  70.649  0.00  0.00    +0.000 C 
ATOM      7  O   UNL     1      63.252  64.894  70.809  0.00  0.00    +0.000 OA
ATOM      8  C   UNL     1      63.970  65.323  70.615  0.00  0.00    +0.000 C 
ATOM      9  C   UNL     1      64.659  65.548  70.221  0.00  0.00    +0.000 C 
ATOM     10  C   UNL     1      64.107  65.945  71.178  0.00  0.00    +0.000 C 
ATOM     11  C   UNL     1      63.492  65.947  71.757  0.00  0.00    +0.000 C 
ATOM     12  C   UNL     1      62.823  65.412  71.786  0.00  0.00    +0.000 C 
ATOM     13  C   UNL     1      62.442  65.720  72.486  0.00  0.00    +0.000 C 
ATOM     14  C   UNL     1      62.820  66.361  72.845  0.00  0.00    +0.000 C 
ATOM     15  C   UNL     1      61.736  65.462  72.858  0.00  0.00    +0.000 C 
ATOM     16  C   UNL     1      61.512  64.826  72.361  0.00  0.00    +0.000 C 
ATOM     17  C   UNL     1      61.880  64.501  71.654  0.00  0.00    +0.000 C 
ATOM     18  C   UNL     1      61.314  63.870  71.482  0.00  0.00    +0.000 C 
ATOM     19  C   UNL     1      60.672  63.790  71.994  0.00  0.00    +0.000 C 
ATOM     20  C   UNL     1      62.627  64.744  71.226  0.00  0.00    +0.000 C 
ATOM     21  O   UNL     1      63.138  64.465  70.438  0.00  0.00    +0.000 OA
ATOM     22  O   UNL     1      63.859  64.715  70.041  0.00  0.00    +0.000 OA
ENDROOT
TORSDOF 0
ENDMDL
