MODEL 1
REMARK VINA RESULT:   -11.338      0.000      0.000
REMARK INTER + INTRA:         -11.338
REMARK INTER:                 -11.338
REMARK INTRA:                   0.000
REMARK UNBOUND:                 0.000
ROOT
REMARK  Name = artenimol
REMARK                            x       y       z     vdW  Elec       q    Type
REMARK                         _______ _______ _______ _____ _____    ______ ____
ATOM      1  C   UNL     1      58.894  62.181  66.820  0.00  0.00    +0.000 C 
ATOM      2  C   UNL     1      59.550  62.070  66.333  0.00  0.00    +0.000 C 
ATOM      3  C   UNL     1      59.405  61.653  65.619  0.00  0.00    +0.000 C 
ATOM      4  C   UNL     1      60.168  61.645  65.276  0.00  0.00    +0.000 C 
ATOM      5  C   UNL     1      60.918  61.966  65.549  0.00  0.00    +0.000 C 
ATOM      6  C   UNL     1      61.421  61.726  64.887  0.00  0.00    +0.000 C 
ATOM      7  C   UNL     1      61.060  61.311  64.272  0.00  0.00    +0.000 C 
ATOM      8  C   UNL     1      62.244  61.880  64.817  0.00  0.00    +0.000 C 
ATOM      9  O   UNL     1      62.756  61.669  64.205  0.00  0.00    +0.000 OA
ATOM     10  O   UNL     1      62.418  62.300  65.524  0.00  0.00    +0.000 OA
ATOM     11  C   UNL     1      61.887  62.521  66.162  0.00  0.00    +0.000 C 
ATOM     12  O   UNL     1      61.361  62.802  66.911  0.00  0.00    +0.000 OA
ATOM     13  C   UNL     1      61.266  63.190  67.672  0.00  0.00    +0.000 C 
ATOM     14  C   UNL     1      61.448  63.604  68.362  0.00  0.00    +0.000 C 
ATOM     15  C   UNL     1      60.458  63.142  67.931  0.00  0.00    +0.000 C 
ATOM     16  C   UNL     1      59.997  62.727  67.359  0.00  0.00    +0.000 C 
ATOM     17  C   UNL     1      60.285  62.397  66.622  0.00  0.00    +0.000 C 
ATOM     18  C   UNL     1      61.117  62.415  66.296  0.00  0.00    +0.000 C 
ATOM     19  O   UNL     1      61.905  62.822  66.714  0.00  0.00    +0.000 OA
ATOM     20  O   UNL     1      62.075  63.252  67.439  0.00  0.00    +0.000 OA
ENDROOT
TORSDOF 0
ENDMDL
MODEL 2
REMARK VINA RESULT:   -10.193      3.601      5.888
REMARK INTER + INTRA:         -10.193
REMARK INTER:                 -10.193
REMARK INTRA:                   0.000
REMARK UNBOUND:                 0.000
ROOT
REMARK  Name = artenimol
REMARK                            x       y       z     vdW  Elec       q    Type
REMARK                         _______ _______ _______ _____ _____    ______ ____
ATOM      1  C   UNL     1      61.612  61.894  72.214  0.00  0.00    +0.000 C 
ATOM      2  C   UNL     1      61.247  62.627  72.118  0.00  0.00    +0.000 C 
ATOM      3  C   UNL     1      61.257  63.129  72.790  0.00  0.00    +0.000 C 
ATOM      4  C   UNL     1      60.852  63.802  72.501  0.00  0.00    +0.000 C 
ATOM      5  C   UNL     1      60.506  63.968  71.731  0.00  0.00    +0.000 C 
ATOM      6  C   UNL     1      60.201  64.763  71.885  0.00  0.00    +0.000 C 
ATOM      7  C   UNL     1      60.326  65.074  72.639  0.00  0.00    +0.000 C 
ATOM      8  C   UNL     1      59.789  65.246  71.333  0.00  0.00    +0.000 C 
ATOM      9  O   UNL     1      59.485  66.005  71.442  0.00  0.00    +0.000 OA
ATOM     10  O   UNL     1      59.764  64.765  70.645  0.00  0.00    +0.000 OA
ATOM     11  C   UNL     1      60.080  63.975  70.530  0.00  0.00    +0.000 C 
ATOM     12  O   UNL     1      60.403  63.097  70.324  0.00  0.00    +0.000 OA
ATOM     13  C   UNL     1      60.514  62.432  69.790  0.00  0.00    +0.000 C 
ATOM     14  C   UNL     1      60.483  61.969  69.108  0.00  0.00    +0.000 C 
ATOM     15  C   UNL     1      60.935  61.805  70.179  0.00  0.00    +0.000 C 
ATOM     16  C   UNL     1      61.114  62.029  70.974  0.00  0.00    +0.000 C 
ATOM     17  C   UNL     1      60.909  62.774  71.346  0.00  0.00    +0.000 C 
ATOM     18  C   UNL     1      60.471  63.467  70.991  0.00  0.00    +0.000 C 
ATOM     19  O   UNL     1      60.118  63.537  70.079  0.00  0.00    +0.000 OA
ATOM     20  O   UNL     1      60.096  63.039  69.379  0.00  0.00    +0.000 OA
ENDROOT
TORSDOF 0
ENDMDL
MODEL 3
REMARK VINA RESULT:   -10.118      2.287      4.511
REMARK INTER + INTRA:         -10.118
REMARK INTER:                 -10.118
REMARK INTRA:                   0.000
REMARK UNBOUND:                 0.000
ROOT
REMARK  Name = artenimol
REMARK                            x       y       z     vdW  Elec       q    Type
REMARK                         _______ _______ _______ _____ _____    ______ ____
ATOM      1  C   UNL     1      60.245  61.612  70.838  0.00  0.00    +0.000 C 
ATOM      2  C   UNL     1      60.767  62.248  70.782  0.00  0.00    +0.000 C 
ATOM      3  C   UNL     1      61.049  62.551  71.512  0.00  0.00    +0.000 C 
ATOM      4  C   UNL     1      61.548  63.171  71.251  0.00  0.00    +0.000 C 
ATOM      5  C   UNL     1      61.742  63.449  70.461  0.00  0.00    +0.000 C 
ATOM      6  C   UNL     1      62.282  64.092  70.669  0.00  0.00    +0.000 C 
ATOM      7  C   UNL     1      62.422  64.220  71.472  0.00  0.00    +0.000 C 
ATOM      8  C   UNL     1      62.674  64.599  70.125  0.00  0.00    +0.000 C 
ATOM      9  O   UNL     1      63.193  65.220  70.284  0.00  0.00    +0.000 OA
ATOM     10  O   UNL     1      62.408  64.316  69.380  0.00  0.00    +0.000 OA
ATOM     11  C   UNL     1      61.868  63.670  69.212  0.00  0.00    +0.000 C 
ATOM     12  O   UNL     1      61.276  62.966  68.945  0.00  0.00    +0.000 OA
ATOM     13  C   UNL     1      60.867  62.501  68.348  0.00  0.00    +0.000 C 
ATOM     14  C   UNL     1      60.612  62.232  67.612  0.00  0.00    +0.000 C 
ATOM     15  C   UNL     1      60.389  61.901  68.716  0.00  0.00    +0.000 C 
ATOM     16  C   UNL     1      60.465  61.948  69.556  0.00  0.00    +0.000 C 
ATOM     17  C   UNL     1      60.948  62.510  69.988  0.00  0.00    +0.000 C 
ATOM     18  C   UNL     1      61.467  63.159  69.661  0.00  0.00    +0.000 C 
ATOM     19  O   UNL     1      61.608  63.381  68.716  0.00  0.00    +0.000 OA
ATOM     20  O   UNL     1      61.331  63.086  67.958  0.00  0.00    +0.000 OA
ENDROOT
TORSDOF 0
ENDMDL
MODEL 4
REMARK VINA RESULT:   -10.060      3.423      5.132
REMARK INTER + INTRA:         -10.060
REMARK INTER:                 -10.060
REMARK INTRA:                   0.000
REMARK UNBOUND:                 0.000
ROOT
REMARK  Name = artenimol
REMARK                            x       y       z     vdW  Elec       q    Type
REMARK                         _______ _______ _______ _____ _____    ______ ____
ATOM      1  C   UNL     1      61.643  61.988  72.573  0.00  0.00    +0.000 C 
ATOM      2  C   UNL     1      61.353  62.183  71.826  0.00  0.00    +0.000 C 
ATOM      3  C   UNL     1      61.278  61.542  71.288  0.00  0.00    +0.000 C 
ATOM      4  C   UNL     1      60.979  61.930  70.610  0.00  0.00    +0.000 C 
ATOM      5  C   UNL     1      60.789  62.757  70.466  0.00  0.00    +0.000 C 
ATOM      6  C   UNL     1      60.518  62.697  69.647  0.00  0.00    +0.000 C 
ATOM      7  C   UNL     1      60.527  61.947  69.302  0.00  0.00    +0.000 C 
ATOM      8  C   UNL     1      60.246  63.335  69.172  0.00  0.00    +0.000 C 
ATOM      9  O   UNL     1      59.981  63.317  68.391  0.00  0.00    +0.000 OA
ATOM     10  O   UNL     1      60.312  63.995  69.689  0.00  0.00    +0.000 OA
ATOM     11  C   UNL     1      60.587  64.015  70.501  0.00  0.00    +0.000 C 
ATOM     12  O   UNL     1      60.881  64.119  71.407  0.00  0.00    +0.000 OA
ATOM     13  C   UNL     1      61.040  64.594  72.106  0.00  0.00    +0.000 C 
ATOM     14  C   UNL     1      61.100  65.249  72.604  0.00  0.00    +0.000 C 
ATOM     15  C   UNL     1      61.339  64.107  72.735  0.00  0.00    +0.000 C 
ATOM     16  C   UNL     1      61.387  63.304  72.478  0.00  0.00    +0.000 C 
ATOM     17  C   UNL     1      61.171  63.008  71.702  0.00  0.00    +0.000 C 
ATOM     18  C   UNL     1      60.853  63.468  71.005  0.00  0.00    +0.000 C 
ATOM     19  O   UNL     1      60.676  64.431  70.965  0.00  0.00    +0.000 OA
ATOM     20  O   UNL     1      60.745  65.102  71.500  0.00  0.00    +0.000 OA
ENDROOT
TORSDOF 0
ENDMDL
MODEL 5
REMARK VINA RESULT:    -9.789      3.290      4.747
REMARK INTER + INTRA:          -9.789
REMARK INTER:                  -9.789
REMARK INTRA:                   0.000
REMARK UNBOUND:                 0.000
ROOT
REMARK  Name = artenimol
REMARK                            x       y       z     vdW  Elec       q    Type
REMARK                         _______ _______ _______ _____ _____    ______ ____
ATOM      1  C   UNL     1      59.966  64.489  72.333  0.00  0.00    +0.000 C 
ATOM      2  C   UNL     1      60.093  63.957  71.716  0.00  0.00    +0.000 C 
ATOM      3  C   UNL     1      60.259  63.167  71.946  0.00  0.00    +0.000 C 
ATOM      4  C   UNL     1      60.354  62.795  71.202  0.00  0.00    +0.000 C 
ATOM      5  C   UNL     1      60.304  63.105  70.401  0.00  0.00    +0.000 C 
ATOM      6  C   UNL     1      60.469  62.380  69.961  0.00  0.00    +0.000 C 
ATOM      7  C   UNL     1      60.607  61.696  70.401  0.00  0.00    +0.000 C 
ATOM      8  C   UNL     1      60.501  62.311  69.123  0.00  0.00    +0.000 C 
ATOM      9  O   UNL     1      60.655  61.640  68.669  0.00  0.00    +0.000 OA
ATOM     10  O   UNL     1      60.338  63.094  68.864  0.00  0.00    +0.000 OA
ATOM     11  C   UNL     1      60.178  63.793  69.336  0.00  0.00    +0.000 C 
ATOM     12  O   UNL     1      59.991  64.615  69.791  0.00  0.00    +0.000 OA
ATOM     13  C   UNL     1      59.810  65.455  69.801  0.00  0.00    +0.000 C 
ATOM     14  C   UNL     1      59.651  66.220  69.535  0.00  0.00    +0.000 C 
ATOM     15  C   UNL     1      59.734  65.733  70.600  0.00  0.00    +0.000 C 
ATOM     16  C   UNL     1      59.860  65.096  71.139  0.00  0.00    +0.000 C 
ATOM     17  C   UNL     1      60.039  64.284  70.928  0.00  0.00    +0.000 C 
ATOM     18  C   UNL     1      60.131  63.933  70.112  0.00  0.00    +0.000 C 
ATOM     19  O   UNL     1      60.048  64.403  69.255  0.00  0.00    +0.000 OA
ATOM     20  O   UNL     1      59.880  65.207  68.998  0.00  0.00    +0.000 OA
ENDROOT
TORSDOF 0
ENDMDL
MODEL 6
REMARK VINA RESULT:    -9.387      3.136      4.770
REMARK INTER + INTRA:          -9.387
REMARK INTER:                  -9.387
REMARK INTRA:                   0.000
REMARK UNBOUND:                 0.000
ROOT
REMARK  Name = artenimol
REMARK                            x       y       z     vdW  Elec       q    Type
REMARK                         _______ _______ _______ _____ _____    ______ ____
ATOM      1  C   UNL     1      60.110  65.103  71.557  0.00  0.00    +0.000 C 
ATOM      2  C   UNL     1      60.193  64.549  70.952  0.00  0.00    +0.000 C 
ATOM      3  C   UNL     1      59.895  64.781  70.203  0.00  0.00    +0.000 C 
ATOM      4  C   UNL     1      60.067  64.106  69.740  0.00  0.00    +0.000 C 
ATOM      5  C   UNL     1      60.445  63.360  69.942  0.00  0.00    +0.000 C 
ATOM      6  C   UNL     1      60.411  62.974  69.169  0.00  0.00    +0.000 C 
ATOM      7  C   UNL     1      60.064  63.398  68.552  0.00  0.00    +0.000 C 
ATOM      8  C   UNL     1      60.700  62.204  68.993  0.00  0.00    +0.000 C 
ATOM      9  O   UNL     1      60.685  61.803  68.271  0.00  0.00    +0.000 OA
ATOM     10  O   UNL     1      61.006  61.945  69.731  0.00  0.00    +0.000 OA
ATOM     11  C   UNL     1      61.022  62.361  70.481  0.00  0.00    +0.000 C 
ATOM     12  O   UNL     1      61.078  62.758  71.351  0.00  0.00    +0.000 OA
ATOM     13  C   UNL     1      61.301  62.745  72.182  0.00  0.00    +0.000 C 
ATOM     14  C   UNL     1      61.606  62.479  72.900  0.00  0.00    +0.000 C 
ATOM     15  C   UNL     1      61.083  63.474  72.560  0.00  0.00    +0.000 C 
ATOM     16  C   UNL     1      60.712  63.987  72.001  0.00  0.00    +0.000 C 
ATOM     17  C   UNL     1      60.570  63.814  71.173  0.00  0.00    +0.000 C 
ATOM     18  C   UNL     1      60.776  63.071  70.721  0.00  0.00    +0.000 C 
ATOM     19  O   UNL     1      61.217  62.270  71.073  0.00  0.00    +0.000 OA
ATOM     20  O   UNL     1      61.529  62.012  71.832  0.00  0.00    +0.000 OA
ENDROOT
TORSDOF 0
ENDMDL
MODEL 7
REMARK VINA RESULT:    -9.061      5.903      6.842
REMARK INTER + INTRA:          -9.061
REMARK INTER:                  -9.061
REMARK INTRA:                   0.000
REMARK UNBOUND:                 0.000
ROOT
REMARK  Name = artenimol
REMARK                            x       y       z     vdW  Elec       q    Type
REMARK                         _______ _______ _______ _____ _____    ______ ____
ATOM      1  C   UNL     1      62.298  64.262  71.213  0.00  0.00    +0.000 C 
ATOM      2  C   UNL     1      62.913  64.741  70.947  0.00  0.00    +0.000 C 
ATOM      3  C   UNL     1      63.337  64.452  70.282  0.00  0.00    +0.000 C 
ATOM      4  C   UNL     1      63.901  65.060  70.169  0.00  0.00    +0.000 C 
ATOM      5  C   UNL     1      64.039  65.794  70.596  0.00  0.00    +0.000 C 
ATOM      6  C   UNL     1      64.707  66.097  70.138  0.00  0.00    +0.000 C 
ATOM      7  C   UNL     1      64.971  65.636  69.507  0.00  0.00    +0.000 C 
ATOM      8  C   UNL     1      65.111  66.821  70.281  0.00  0.00    +0.000 C 
ATOM      9  O   UNL     1      65.749  67.143  69.869  0.00  0.00    +0.000 OA
ATOM     10  O   UNL     1      64.704  67.135  70.946  0.00  0.00    +0.000 OA
ATOM     11  C   UNL     1      64.040  66.801  71.377  0.00  0.00    +0.000 C 
ATOM     12  O   UNL     1      63.302  66.496  71.906  0.00  0.00    +0.000 OA
ATOM     13  C   UNL     1      62.743  66.581  72.553  0.00  0.00    +0.000 C 
ATOM     14  C   UNL     1      62.352  66.899  73.205  0.00  0.00    +0.000 C 
ATOM     15  C   UNL     1      62.217  65.914  72.580  0.00  0.00    +0.000 C 
ATOM     16  C   UNL     1      62.407  65.372  71.962  0.00  0.00    +0.000 C 
ATOM     17  C   UNL     1      63.035  65.466  71.384  0.00  0.00    +0.000 C 
ATOM     18  C   UNL     1      63.616  66.140  71.304  0.00  0.00    +0.000 C 
ATOM     19  O   UNL     1      63.672  66.940  71.867  0.00  0.00    +0.000 OA
ATOM     20  O   UNL     1      63.251  67.255  72.548  0.00  0.00    +0.000 OA
ENDROOT
TORSDOF 0
ENDMDL
MODEL 8
REMARK VINA RESULT:    -9.045      6.688      7.747
REMARK INTER + INTRA:          -9.045
REMARK INTER:                  -9.045
REMARK INTRA:                   0.000
REMARK UNBOUND:                 0.000
ROOT
REMARK  Name = artenimol
REMARK                            x       y       z     vdW  Elec       q    Type
REMARK                         _______ _______ _______ _____ _____    ______ ____
ATOM      1  C   UNL     1      59.784  63.908  71.864  0.00  0.00    +0.000 C 
ATOM      2  C   UNL     1      60.271  64.535  72.090  0.00  0.00    +0.000 C 
ATOM      3  C   UNL     1      61.093  64.418  71.968  0.00  0.00    +0.000 C 
ATOM      4  C   UNL     1      61.406  65.141  72.250  0.00  0.00    +0.000 C 
ATOM      5  C   UNL     1      61.022  65.835  72.582  0.00  0.00    +0.000 C 
ATOM      6  C   UNL     1      61.721  66.323  72.729  0.00  0.00    +0.000 C 
ATOM      7  C   UNL     1      62.453  66.002  72.527  0.00  0.00    +0.000 C 
ATOM      8  C   UNL     1      61.718  67.096  73.061  0.00  0.00    +0.000 C 
ATOM      9  O   UNL     1      62.360  67.590  73.216  0.00  0.00    +0.000 OA
ATOM     10  O   UNL     1      60.901  67.240  73.194  0.00  0.00    +0.000 OA
ATOM     11  C   UNL     1      60.232  66.727  73.033  0.00  0.00    +0.000 C 
ATOM     12  O   UNL     1      59.436  66.215  72.883  0.00  0.00    +0.000 OA
ATOM     13  C   UNL     1      58.584  66.107  72.912  0.00  0.00    +0.000 C 
ATOM     14  C   UNL     1      57.785  66.260  73.047  0.00  0.00    +0.000 C 
ATOM     15  C   UNL     1      58.370  65.344  72.603  0.00  0.00    +0.000 C 
ATOM     16  C   UNL     1      59.064  64.927  72.364  0.00  0.00    +0.000 C 
ATOM     17  C   UNL     1      59.871  65.216  72.417  0.00  0.00    +0.000 C 
ATOM     18  C   UNL     1      60.156  66.003  72.729  0.00  0.00    +0.000 C 
ATOM     19  O   UNL     1      59.605  66.729  73.089  0.00  0.00    +0.000 OA
ATOM     20  O   UNL     1      58.767  66.870  73.222  0.00  0.00    +0.000 OA
ENDROOT
TORSDOF 0
ENDMDL
MODEL 9
REMARK VINA RESULT:    -9.023      4.085      5.840
REMARK INTER + INTRA:          -9.023
REMARK INTER:                  -9.023
REMARK INTRA:                   0.000
REMARK UNBOUND:                 0.000
ROOT
REMARK  Name = artenimol
REMARK                            x       y       z     vdW  Elec       q    Type
REMARK                         _______ _______ _______ _____ _____    ______ ____
ATOM      1  C   UNL     1      60.310  64.258  68.701  0.00  0.00    +0.000 C 
ATOM      2  C   UNL     1      60.116  64.496  69.467  0.00  0.00    +0.000 C 
ATOM      3  C   UNL     1      59.890  65.299  69.550  0.00  0.00    +0.000 C 
ATOM      4  C   UNL     1      59.737  65.343  70.372  0.00  0.00    +0.000 C 
ATOM      5  C   UNL     1      59.787  64.748  70.991  0.00  0.00    +0.000 C 
ATOM      6  C   UNL     1      59.543  65.231  71.666  0.00  0.00    +0.000 C 
ATOM      7  C   UNL     1      59.361  66.022  71.517  0.00  0.00    +0.000 C 
ATOM      8  C   UNL     1      59.477  64.964  72.461  0.00  0.00    +0.000 C 
ATOM      9  O   UNL     1      59.249  65.392  73.129  0.00  0.00    +0.000 OA
ATOM     10  O   UNL     1      59.699  64.156  72.407  0.00  0.00    +0.000 OA
ATOM     11  C   UNL     1      59.936  63.709  71.713  0.00  0.00    +0.000 C 
ATOM     12  O   UNL     1      60.210  63.145  70.989  0.00  0.00    +0.000 OA
ATOM     13  C   UNL     1      60.464  62.390  70.666  0.00  0.00    +0.000 C 
ATOM     14  C   UNL     1      60.680  61.595  70.625  0.00  0.00    +0.000 C 
ATOM     15  C   UNL     1      60.592  62.453  69.828  0.00  0.00    +0.000 C 
ATOM     16  C   UNL     1      60.429  63.240  69.571  0.00  0.00    +0.000 C 
ATOM     17  C   UNL     1      60.172  63.891  70.068  0.00  0.00    +0.000 C 
ATOM     18  C   UNL     1      60.021  63.887  70.948  0.00  0.00    +0.000 C 
ATOM     19  O   UNL     1      60.116  63.126  71.560  0.00  0.00    +0.000 OA
ATOM     20  O   UNL     1      60.345  62.299  71.496  0.00  0.00    +0.000 OA
ENDROOT
TORSDOF 0
ENDMDL
