MODEL 1
REMARK VINA RESULT:   -14.209      0.000      0.000
REMARK INTER + INTRA:         -14.209
REMARK INTER:                 -14.209
REMARK INTRA:                   0.000
REMARK UNBOUND:                 0.000
ROOT
REMARK  Name = atovaquone
REMARK                            x       y       z     vdW  Elec       q    Type
REMARK                         _______ _______ _______ _____ _____    ______ ____
ATOM      1  O   UNL     1      61.694  64.172  68.591  0.00  0.00    +0.000 OA
ATOM      2  C   UNL     1      61.308  63.635  69.085  0.00  0.00    +0.000 C 
ATOM      3  C   UNL     1      61.083  62.896  68.795  0.00  0.00    +0.000 C 
ATOM      4  C   UNL     1      61.244  62.694  68.011  0.00  0.00    +0.000 C 
ATOM      5  C   UNL     1      61.631  63.230  67.517  0.00  0.00    +0.000 C 
ATOM      6  C   UNL     1      61.792  63.028  66.735  0.00  0.00    +0.000 C 
ATOM      7  C   UNL     1      61.567  62.289  66.445  0.00  0.00    +0.000 C 
ATOM      8  C   UNL     1      61.181  61.752  66.937  0.00  0.00    +0.000 C 
ATOM      9  C   UNL     1      61.020  61.955  67.721  0.00  0.00    +0.000 C 
ATOM     10  C   UNL     1      61.729  62.087  65.662  0.00  0.00    +0.000 A 
ATOM     11  C   UNL     1      62.115  62.624  65.168  0.00  0.00    +0.000 A 
ATOM     12  C   UNL     1      62.276  62.421  64.385  0.00  0.00    +0.000 A 
ATOM     13  C   UNL     1      62.052  61.683  64.095  0.00  0.00    +0.000 A 
ATOM     14 CL   UNL     1      62.213  61.480  63.311  0.00  0.00    +0.000 Cl
ATOM     15  C   UNL     1      61.665  61.146  64.588  0.00  0.00    +0.000 A 
ATOM     16  C   UNL     1      61.504  61.349  65.372  0.00  0.00    +0.000 A 
ATOM     17  C   UNL     1      60.697  62.360  69.288  0.00  0.00    +0.000 C 
ATOM     18  O   UNL     1      60.472  61.621  68.998  0.00  0.00    +0.000 OA
ATOM     19  C   UNL     1      60.535  62.562  70.071  0.00  0.00    +0.000 A 
ATOM     20  C   UNL     1      60.149  62.025  70.565  0.00  0.00    +0.000 A 
ATOM     21  C   UNL     1      59.987  62.227  71.348  0.00  0.00    +0.000 A 
ATOM     22  C   UNL     1      60.212  62.967  71.638  0.00  0.00    +0.000 A 
ATOM     23  C   UNL     1      60.599  63.503  71.145  0.00  0.00    +0.000 A 
ATOM     24  C   UNL     1      60.760  63.301  70.361  0.00  0.00    +0.000 A 
ATOM     25  C   UNL     1      61.146  63.837  69.868  0.00  0.00    +0.000 C 
ATOM     26  O   UNL     1      61.371  64.576  70.158  0.00  0.00    +0.000 OA
ENDROOT
TORSDOF 0
ENDMDL
MODEL 2
REMARK VINA RESULT:   -13.823      0.849      1.670
REMARK INTER + INTRA:         -13.823
REMARK INTER:                 -13.823
REMARK INTRA:                   0.000
REMARK UNBOUND:                 0.000
ROOT
REMARK  Name = atovaquone
REMARK                            x       y       z     vdW  Elec       q    Type
REMARK                         _______ _______ _______ _____ _____    ______ ____
ATOM      1  O   UNL     1      60.628  61.576  69.531  0.00  0.00    +0.000 OA
ATOM      2  C   UNL     1      60.505  62.362  69.748  0.00  0.00    +0.000 C 
ATOM      3  C   UNL     1      60.636  62.966  69.199  0.00  0.00    +0.000 C 
ATOM      4  C   UNL     1      60.888  62.782  68.436  0.00  0.00    +0.000 C 
ATOM      5  C   UNL     1      61.010  61.995  68.219  0.00  0.00    +0.000 C 
ATOM      6  C   UNL     1      61.261  61.811  67.456  0.00  0.00    +0.000 C 
ATOM      7  C   UNL     1      61.391  62.414  66.908  0.00  0.00    +0.000 C 
ATOM      8  C   UNL     1      61.270  63.201  67.123  0.00  0.00    +0.000 C 
ATOM      9  C   UNL     1      61.018  63.385  67.888  0.00  0.00    +0.000 C 
ATOM     10  C   UNL     1      61.643  62.231  66.144  0.00  0.00    +0.000 A 
ATOM     11  C   UNL     1      61.765  61.443  65.928  0.00  0.00    +0.000 A 
ATOM     12  C   UNL     1      62.017  61.260  65.164  0.00  0.00    +0.000 A 
ATOM     13  C   UNL     1      62.147  61.862  64.617  0.00  0.00    +0.000 A 
ATOM     14 CL   UNL     1      62.399  61.679  63.853  0.00  0.00    +0.000 Cl
ATOM     15  C   UNL     1      62.025  62.649  64.832  0.00  0.00    +0.000 A 
ATOM     16  C   UNL     1      61.773  62.833  65.597  0.00  0.00    +0.000 A 
ATOM     17  C   UNL     1      60.514  63.752  69.415  0.00  0.00    +0.000 C 
ATOM     18  O   UNL     1      60.644  64.355  68.868  0.00  0.00    +0.000 OA
ATOM     19  C   UNL     1      60.262  63.936  70.179  0.00  0.00    +0.000 A 
ATOM     20  C   UNL     1      60.140  64.723  70.395  0.00  0.00    +0.000 A 
ATOM     21  C   UNL     1      59.888  64.907  71.158  0.00  0.00    +0.000 A 
ATOM     22  C   UNL     1      59.758  64.303  71.707  0.00  0.00    +0.000 A 
ATOM     23  C   UNL     1      59.880  63.517  71.491  0.00  0.00    +0.000 A 
ATOM     24  C   UNL     1      60.132  63.332  70.727  0.00  0.00    +0.000 A 
ATOM     25  C   UNL     1      60.254  62.546  70.511  0.00  0.00    +0.000 C 
ATOM     26  O   UNL     1      60.124  61.943  71.059  0.00  0.00    +0.000 OA
ENDROOT
TORSDOF 0
ENDMDL
MODEL 3
REMARK VINA RESULT:   -13.613      3.560      5.226
REMARK INTER + INTRA:         -13.613
REMARK INTER:                 -13.613
REMARK INTRA:                   0.000
REMARK UNBOUND:                 0.000
ROOT
REMARK  Name = atovaquone
REMARK                            x       y       z     vdW  Elec       q    Type
REMARK                         _______ _______ _______ _____ _____    ______ ____
ATOM      1  O   UNL     1      62.077  64.350  72.349  0.00  0.00    +0.000 OA
ATOM      2  C   UNL     1      61.827  63.879  71.719  0.00  0.00    +0.000 C 
ATOM      3  C   UNL     1      62.173  63.969  70.974  0.00  0.00    +0.000 C 
ATOM      4  C   UNL     1      62.768  64.530  70.861  0.00  0.00    +0.000 C 
ATOM      5  C   UNL     1      63.017  65.002  71.491  0.00  0.00    +0.000 C 
ATOM      6  C   UNL     1      63.611  65.562  71.378  0.00  0.00    +0.000 C 
ATOM      7  C   UNL     1      63.956  65.652  70.634  0.00  0.00    +0.000 C 
ATOM      8  C   UNL     1      63.708  65.182  70.004  0.00  0.00    +0.000 C 
ATOM      9  C   UNL     1      63.113  64.621  70.118  0.00  0.00    +0.000 C 
ATOM     10  C   UNL     1      64.551  66.213  70.520  0.00  0.00    +0.000 A 
ATOM     11  C   UNL     1      64.800  66.684  71.151  0.00  0.00    +0.000 A 
ATOM     12  C   UNL     1      65.394  67.244  71.037  0.00  0.00    +0.000 A 
ATOM     13  C   UNL     1      65.739  67.334  70.294  0.00  0.00    +0.000 A 
ATOM     14 CL   UNL     1      66.334  67.895  70.180  0.00  0.00    +0.000 Cl
ATOM     15  C   UNL     1      65.491  66.864  69.664  0.00  0.00    +0.000 A 
ATOM     16  C   UNL     1      64.896  66.303  69.777  0.00  0.00    +0.000 A 
ATOM     17  C   UNL     1      61.925  63.499  70.345  0.00  0.00    +0.000 C 
ATOM     18  O   UNL     1      62.270  63.589  69.601  0.00  0.00    +0.000 OA
ATOM     19  C   UNL     1      61.331  62.938  70.458  0.00  0.00    +0.000 A 
ATOM     20  C   UNL     1      61.081  62.467  69.828  0.00  0.00    +0.000 A 
ATOM     21  C   UNL     1      60.488  61.907  69.941  0.00  0.00    +0.000 A 
ATOM     22  C   UNL     1      60.142  61.817  70.686  0.00  0.00    +0.000 A 
ATOM     23  C   UNL     1      60.390  62.287  71.315  0.00  0.00    +0.000 A 
ATOM     24  C   UNL     1      60.985  62.848  71.202  0.00  0.00    +0.000 A 
ATOM     25  C   UNL     1      61.234  63.319  71.832  0.00  0.00    +0.000 C 
ATOM     26  O   UNL     1      60.888  63.229  72.576  0.00  0.00    +0.000 OA
ENDROOT
TORSDOF 0
ENDMDL
MODEL 4
REMARK VINA RESULT:   -13.214      3.955      5.870
REMARK INTER + INTRA:         -13.214
REMARK INTER:                 -13.214
REMARK INTRA:                   0.000
REMARK UNBOUND:                 0.000
ROOT
REMARK  Name = atovaquone
REMARK                            x       y       z     vdW  Elec       q    Type
REMARK                         _______ _______ _______ _____ _____    ______ ____
ATOM      1  O   UNL     1      63.395  66.296  72.335  0.00  0.00    +0.000 OA
ATOM      2  C   UNL     1      63.925  66.401  71.712  0.00  0.00    +0.000 C 
ATOM      3  C   UNL     1      63.914  65.884  71.069  0.00  0.00    +0.000 C 
ATOM      4  C   UNL     1      63.372  65.262  71.050  0.00  0.00    +0.000 C 
ATOM      5  C   UNL     1      62.841  65.156  71.673  0.00  0.00    +0.000 C 
ATOM      6  C   UNL     1      62.300  64.535  71.654  0.00  0.00    +0.000 C 
ATOM      7  C   UNL     1      62.289  64.018  71.011  0.00  0.00    +0.000 C 
ATOM      8  C   UNL     1      62.818  64.122  70.388  0.00  0.00    +0.000 C 
ATOM      9  C   UNL     1      63.360  64.744  70.407  0.00  0.00    +0.000 C 
ATOM     10  C   UNL     1      61.747  63.396  70.991  0.00  0.00    +0.000 A 
ATOM     11  C   UNL     1      61.217  63.291  71.615  0.00  0.00    +0.000 A 
ATOM     12  C   UNL     1      60.675  62.669  71.595  0.00  0.00    +0.000 A 
ATOM     13  C   UNL     1      60.664  62.152  70.953  0.00  0.00    +0.000 A 
ATOM     14 CL   UNL     1      60.122  61.530  70.934  0.00  0.00    +0.000 Cl
ATOM     15  C   UNL     1      61.194  62.256  70.330  0.00  0.00    +0.000 A 
ATOM     16  C   UNL     1      61.736  62.879  70.349  0.00  0.00    +0.000 A 
ATOM     17  C   UNL     1      64.444  65.988  70.446  0.00  0.00    +0.000 C 
ATOM     18  O   UNL     1      64.432  65.471  69.803  0.00  0.00    +0.000 OA
ATOM     19  C   UNL     1      64.985  66.610  70.465  0.00  0.00    +0.000 A 
ATOM     20  C   UNL     1      65.516  66.715  69.842  0.00  0.00    +0.000 A 
ATOM     21  C   UNL     1      66.057  67.337  69.861  0.00  0.00    +0.000 A 
ATOM     22  C   UNL     1      66.069  67.854  70.505  0.00  0.00    +0.000 A 
ATOM     23  C   UNL     1      65.539  67.750  71.127  0.00  0.00    +0.000 A 
ATOM     24  C   UNL     1      64.997  67.128  71.109  0.00  0.00    +0.000 A 
ATOM     25  C   UNL     1      64.467  67.023  71.731  0.00  0.00    +0.000 C 
ATOM     26  O   UNL     1      64.478  67.540  72.374  0.00  0.00    +0.000 OA
ENDROOT
TORSDOF 0
ENDMDL
MODEL 5
REMARK VINA RESULT:   -12.211      4.025      5.838
REMARK INTER + INTRA:         -12.211
REMARK INTER:                 -12.211
REMARK INTRA:                   0.000
REMARK UNBOUND:                 0.000
ROOT
REMARK  Name = atovaquone
REMARK                            x       y       z     vdW  Elec       q    Type
REMARK                         _______ _______ _______ _____ _____    ______ ____
ATOM      1  O   UNL     1      63.898  65.758  71.198  0.00  0.00    +0.000 OA
ATOM      2  C   UNL     1      63.518  66.323  71.663  0.00  0.00    +0.000 C 
ATOM      3  C   UNL     1      62.766  66.168  71.968  0.00  0.00    +0.000 C 
ATOM      4  C   UNL     1      62.396  65.449  71.806  0.00  0.00    +0.000 C 
ATOM      5  C   UNL     1      62.776  64.883  71.340  0.00  0.00    +0.000 C 
ATOM      6  C   UNL     1      62.407  64.165  71.179  0.00  0.00    +0.000 C 
ATOM      7  C   UNL     1      61.655  64.010  71.483  0.00  0.00    +0.000 C 
ATOM      8  C   UNL     1      61.274  64.574  71.948  0.00  0.00    +0.000 C 
ATOM      9  C   UNL     1      61.645  65.294  72.110  0.00  0.00    +0.000 C 
ATOM     10  C   UNL     1      61.285  63.291  71.321  0.00  0.00    +0.000 A 
ATOM     11  C   UNL     1      61.666  62.726  70.856  0.00  0.00    +0.000 A 
ATOM     12  C   UNL     1      61.295  62.007  70.695  0.00  0.00    +0.000 A 
ATOM     13  C   UNL     1      60.545  61.852  70.998  0.00  0.00    +0.000 A 
ATOM     14 CL   UNL     1      60.174  61.133  70.837  0.00  0.00    +0.000 Cl
ATOM     15  C   UNL     1      60.163  62.417  71.463  0.00  0.00    +0.000 A 
ATOM     16  C   UNL     1      60.534  63.137  71.625  0.00  0.00    +0.000 A 
ATOM     17  C   UNL     1      62.385  66.733  72.433  0.00  0.00    +0.000 C 
ATOM     18  O   UNL     1      61.634  66.578  72.736  0.00  0.00    +0.000 OA
ATOM     19  C   UNL     1      62.755  67.452  72.594  0.00  0.00    +0.000 A 
ATOM     20  C   UNL     1      62.375  68.017  73.059  0.00  0.00    +0.000 A 
ATOM     21  C   UNL     1      62.744  68.736  73.221  0.00  0.00    +0.000 A 
ATOM     22  C   UNL     1      63.497  68.890  72.917  0.00  0.00    +0.000 A 
ATOM     23  C   UNL     1      63.877  68.326  72.452  0.00  0.00    +0.000 A 
ATOM     24  C   UNL     1      63.507  67.606  72.290  0.00  0.00    +0.000 A 
ATOM     25  C   UNL     1      63.888  67.042  71.825  0.00  0.00    +0.000 C 
ATOM     26  O   UNL     1      64.639  67.197  71.521  0.00  0.00    +0.000 OA
ENDROOT
TORSDOF 0
ENDMDL
MODEL 6
REMARK VINA RESULT:   -11.973      4.964      6.645
REMARK INTER + INTRA:         -11.973
REMARK INTER:                 -11.973
REMARK INTRA:                   0.000
REMARK UNBOUND:                 0.000
ROOT
REMARK  Name = atovaquone
REMARK                            x       y       z     vdW  Elec       q    Type
REMARK                         _______ _______ _______ _____ _____    ______ ____
ATOM      1  O   UNL     1      63.397  66.012  69.544  0.00  0.00    +0.000 OA
ATOM      2  C   UNL     1      63.939  66.268  70.111  0.00  0.00    +0.000 C 
ATOM      3  C   UNL     1      63.731  66.269  70.910  0.00  0.00    +0.000 C 
ATOM      4  C   UNL     1      62.981  66.013  71.141  0.00  0.00    +0.000 C 
ATOM      5  C   UNL     1      62.439  65.756  70.574  0.00  0.00    +0.000 C 
ATOM      6  C   UNL     1      61.690  65.501  70.804  0.00  0.00    +0.000 C 
ATOM      7  C   UNL     1      61.482  65.502  71.603  0.00  0.00    +0.000 C 
ATOM      8  C   UNL     1      62.022  65.758  72.170  0.00  0.00    +0.000 C 
ATOM      9  C   UNL     1      62.773  66.014  71.939  0.00  0.00    +0.000 C 
ATOM     10  C   UNL     1      60.732  65.246  71.834  0.00  0.00    +0.000 A 
ATOM     11  C   UNL     1      60.191  64.989  71.267  0.00  0.00    +0.000 A 
ATOM     12  C   UNL     1      59.441  64.734  71.498  0.00  0.00    +0.000 A 
ATOM     13  C   UNL     1      59.233  64.734  72.296  0.00  0.00    +0.000 A 
ATOM     14 CL   UNL     1      58.483  64.479  72.527  0.00  0.00    +0.000 Cl
ATOM     15  C   UNL     1      59.774  64.991  72.863  0.00  0.00    +0.000 A 
ATOM     16  C   UNL     1      60.524  65.247  72.632  0.00  0.00    +0.000 A 
ATOM     17  C   UNL     1      64.272  66.525  71.477  0.00  0.00    +0.000 C 
ATOM     18  O   UNL     1      64.064  66.526  72.275  0.00  0.00    +0.000 OA
ATOM     19  C   UNL     1      65.021  66.781  71.246  0.00  0.00    +0.000 A 
ATOM     20  C   UNL     1      65.563  67.037  71.813  0.00  0.00    +0.000 A 
ATOM     21  C   UNL     1      66.312  67.293  71.582  0.00  0.00    +0.000 A 
ATOM     22  C   UNL     1      66.520  67.292  70.783  0.00  0.00    +0.000 A 
ATOM     23  C   UNL     1      65.979  67.036  70.216  0.00  0.00    +0.000 A 
ATOM     24  C   UNL     1      65.229  66.780  70.447  0.00  0.00    +0.000 A 
ATOM     25  C   UNL     1      64.688  66.524  69.880  0.00  0.00    +0.000 C 
ATOM     26  O   UNL     1      64.896  66.523  69.082  0.00  0.00    +0.000 OA
ENDROOT
TORSDOF 0
ENDMDL
MODEL 7
REMARK VINA RESULT:   -11.909      2.222      3.268
REMARK INTER + INTRA:         -11.909
REMARK INTER:                 -11.909
REMARK INTRA:                   0.000
REMARK UNBOUND:                 0.000
ROOT
REMARK  Name = atovaquone
REMARK                            x       y       z     vdW  Elec       q    Type
REMARK                         _______ _______ _______ _____ _____    ______ ____
ATOM      1  O   UNL     1      60.888  65.447  70.183  0.00  0.00    +0.000 OA
ATOM      2  C   UNL     1      61.708  65.387  70.255  0.00  0.00    +0.000 C 
ATOM      3  C   UNL     1      62.128  64.871  69.765  0.00  0.00    +0.000 C 
ATOM      4  C   UNL     1      61.727  64.417  69.204  0.00  0.00    +0.000 C 
ATOM      5  C   UNL     1      60.908  64.477  69.132  0.00  0.00    +0.000 C 
ATOM      6  C   UNL     1      60.508  64.023  68.572  0.00  0.00    +0.000 C 
ATOM      7  C   UNL     1      60.928  63.508  68.083  0.00  0.00    +0.000 C 
ATOM      8  C   UNL     1      61.747  63.447  68.154  0.00  0.00    +0.000 C 
ATOM      9  C   UNL     1      62.147  63.902  68.715  0.00  0.00    +0.000 C 
ATOM     10  C   UNL     1      60.529  63.054  67.522  0.00  0.00    +0.000 A 
ATOM     11  C   UNL     1      59.708  63.115  67.450  0.00  0.00    +0.000 A 
ATOM     12  C   UNL     1      59.309  62.660  66.890  0.00  0.00    +0.000 A 
ATOM     13  C   UNL     1      59.728  62.146  66.401  0.00  0.00    +0.000 A 
ATOM     14 CL   UNL     1      59.328  61.691  65.840  0.00  0.00    +0.000 Cl
ATOM     15  C   UNL     1      60.548  62.085  66.472  0.00  0.00    +0.000 A 
ATOM     16  C   UNL     1      60.948  62.540  67.033  0.00  0.00    +0.000 A 
ATOM     17  C   UNL     1      62.947  64.811  69.837  0.00  0.00    +0.000 C 
ATOM     18  O   UNL     1      63.367  64.296  69.348  0.00  0.00    +0.000 OA
ATOM     19  C   UNL     1      63.347  65.264  70.397  0.00  0.00    +0.000 A 
ATOM     20  C   UNL     1      64.166  65.204  70.469  0.00  0.00    +0.000 A 
ATOM     21  C   UNL     1      64.566  65.658  71.029  0.00  0.00    +0.000 A 
ATOM     22  C   UNL     1      64.146  66.173  71.519  0.00  0.00    +0.000 A 
ATOM     23  C   UNL     1      63.327  66.234  71.447  0.00  0.00    +0.000 A 
ATOM     24  C   UNL     1      62.926  65.780  70.887  0.00  0.00    +0.000 A 
ATOM     25  C   UNL     1      62.107  65.840  70.815  0.00  0.00    +0.000 C 
ATOM     26  O   UNL     1      61.687  66.355  71.304  0.00  0.00    +0.000 OA
ENDROOT
TORSDOF 0
ENDMDL
MODEL 8
REMARK VINA RESULT:   -11.874      4.836      5.745
REMARK INTER + INTRA:         -11.874
REMARK INTER:                 -11.874
REMARK INTRA:                   0.000
REMARK UNBOUND:                 0.000
ROOT
REMARK  Name = atovaquone
REMARK                            x       y       z     vdW  Elec       q    Type
REMARK                         _______ _______ _______ _____ _____    ______ ____
ATOM      1  O   UNL     1      61.490  66.300  70.148  0.00  0.00    +0.000 OA
ATOM      2  C   UNL     1      61.330  65.664  70.649  0.00  0.00    +0.000 C 
ATOM      3  C   UNL     1      61.933  65.341  71.111  0.00  0.00    +0.000 C 
ATOM      4  C   UNL     1      62.695  65.655  71.072  0.00  0.00    +0.000 C 
ATOM      5  C   UNL     1      62.855  66.290  70.571  0.00  0.00    +0.000 C 
ATOM      6  C   UNL     1      63.617  66.603  70.532  0.00  0.00    +0.000 C 
ATOM      7  C   UNL     1      64.220  66.281  70.994  0.00  0.00    +0.000 C 
ATOM      8  C   UNL     1      64.061  65.645  71.495  0.00  0.00    +0.000 C 
ATOM      9  C   UNL     1      63.298  65.332  71.534  0.00  0.00    +0.000 C 
ATOM     10  C   UNL     1      64.982  66.594  70.955  0.00  0.00    +0.000 A 
ATOM     11  C   UNL     1      65.142  67.230  70.453  0.00  0.00    +0.000 A 
ATOM     12  C   UNL     1      65.904  67.542  70.415  0.00  0.00    +0.000 A 
ATOM     13  C   UNL     1      66.506  67.220  70.876  0.00  0.00    +0.000 A 
ATOM     14 CL   UNL     1      67.269  67.534  70.837  0.00  0.00    +0.000 Cl
ATOM     15  C   UNL     1      66.347  66.585  71.377  0.00  0.00    +0.000 A 
ATOM     16  C   UNL     1      65.584  66.271  71.416  0.00  0.00    +0.000 A 
ATOM     17  C   UNL     1      61.773  64.706  71.612  0.00  0.00    +0.000 C 
ATOM     18  O   UNL     1      62.376  64.383  72.074  0.00  0.00    +0.000 OA
ATOM     19  C   UNL     1      61.012  64.393  71.651  0.00  0.00    +0.000 A 
ATOM     20  C   UNL     1      60.851  63.757  72.152  0.00  0.00    +0.000 A 
ATOM     21  C   UNL     1      60.090  63.444  72.191  0.00  0.00    +0.000 A 
ATOM     22  C   UNL     1      59.486  63.767  71.729  0.00  0.00    +0.000 A 
ATOM     23  C   UNL     1      59.646  64.402  71.228  0.00  0.00    +0.000 A 
ATOM     24  C   UNL     1      60.408  64.716  71.189  0.00  0.00    +0.000 A 
ATOM     25  C   UNL     1      60.568  65.351  70.688  0.00  0.00    +0.000 C 
ATOM     26  O   UNL     1      59.965  65.673  70.226  0.00  0.00    +0.000 OA
ENDROOT
TORSDOF 0
ENDMDL
MODEL 9
REMARK VINA RESULT:   -11.681      3.600      5.502
REMARK INTER + INTRA:         -11.681
REMARK INTER:                 -11.681
REMARK INTRA:                   0.000
REMARK UNBOUND:                 0.000
ROOT
REMARK  Name = atovaquone
REMARK                            x       y       z     vdW  Elec       q    Type
REMARK                         _______ _______ _______ _____ _____    ______ ____
ATOM      1  O   UNL     1      60.963  65.850  69.836  0.00  0.00    +0.000 OA
ATOM      2  C   UNL     1      61.055  65.131  69.440  0.00  0.00    +0.000 C 
ATOM      3  C   UNL     1      61.788  64.751  69.439  0.00  0.00    +0.000 C 
ATOM      4  C   UNL     1      62.428  65.090  69.834  0.00  0.00    +0.000 C 
ATOM      5  C   UNL     1      62.337  65.809  70.230  0.00  0.00    +0.000 C 
ATOM      6  C   UNL     1      62.977  66.147  70.625  0.00  0.00    +0.000 C 
ATOM      7  C   UNL     1      63.709  65.767  70.624  0.00  0.00    +0.000 C 
ATOM      8  C   UNL     1      63.802  65.049  70.229  0.00  0.00    +0.000 C 
ATOM      9  C   UNL     1      63.161  64.711  69.834  0.00  0.00    +0.000 C 
ATOM     10  C   UNL     1      64.350  66.105  71.019  0.00  0.00    +0.000 A 
ATOM     11  C   UNL     1      64.257  66.824  71.415  0.00  0.00    +0.000 A 
ATOM     12  C   UNL     1      64.898  67.162  71.809  0.00  0.00    +0.000 A 
ATOM     13  C   UNL     1      65.630  66.783  71.809  0.00  0.00    +0.000 A 
ATOM     14 CL   UNL     1      66.271  67.121  72.204  0.00  0.00    +0.000 Cl
ATOM     15  C   UNL     1      65.722  66.065  71.414  0.00  0.00    +0.000 A 
ATOM     16  C   UNL     1      65.081  65.726  71.018  0.00  0.00    +0.000 A 
ATOM     17  C   UNL     1      61.880  64.034  69.044  0.00  0.00    +0.000 C 
ATOM     18  O   UNL     1      62.612  63.654  69.043  0.00  0.00    +0.000 OA
ATOM     19  C   UNL     1      61.240  63.695  68.649  0.00  0.00    +0.000 A 
ATOM     20  C   UNL     1      61.332  62.977  68.253  0.00  0.00    +0.000 A 
ATOM     21  C   UNL     1      60.692  62.639  67.859  0.00  0.00    +0.000 A 
ATOM     22  C   UNL     1      59.958  63.019  67.859  0.00  0.00    +0.000 A 
ATOM     23  C   UNL     1      59.867  63.736  68.255  0.00  0.00    +0.000 A 
ATOM     24  C   UNL     1      60.507  64.076  68.650  0.00  0.00    +0.000 A 
ATOM     25  C   UNL     1      60.415  64.793  69.045  0.00  0.00    +0.000 C 
ATOM     26  O   UNL     1      59.683  65.173  69.046  0.00  0.00    +0.000 OA
ENDROOT
TORSDOF 0
ENDMDL
