MODEL 1
REMARK VINA RESULT:   -13.537      0.000      0.000
REMARK INTER + INTRA:         -13.537
REMARK INTER:                 -13.537
REMARK INTRA:                   0.000
REMARK UNBOUND:                 0.000
ROOT
REMARK  Name = avanafil
REMARK                            x       y       z     vdW  Elec       q    Type
REMARK                         _______ _______ _______ _____ _____    ______ ____
ATOM      1  C   UNL     1      64.875  67.255  71.647  0.00  0.00    +0.000 C 
ATOM      2  O   UNL     1      65.030  66.910  70.914  0.00  0.00    +0.000 OA
ATOM      3  C   UNL     1      64.463  66.430  70.555  0.00  0.00    +0.000 A 
ATOM      4  C   UNL     1      64.618  66.085  69.822  0.00  0.00    +0.000 A 
ATOM      5 CL   UNL     1      65.340  66.219  69.448  0.00  0.00    +0.000 Cl
ATOM      6  C   UNL     1      64.049  65.605  69.464  0.00  0.00    +0.000 A 
ATOM      7  C   UNL     1      63.327  65.471  69.838  0.00  0.00    +0.000 A 
ATOM      8  C   UNL     1      62.759  64.992  69.481  0.00  0.00    +0.000 C 
ATOM      9  N   UNL     1      62.037  64.858  69.855  0.00  0.00    +0.000 NA
ATOM     10  C   UNL     1      61.468  64.378  69.497  0.00  0.00    +0.000 A 
ATOM     11  N   UNL     1      61.623  64.033  68.764  0.00  0.00    +0.000 NA
ATOM     12  C   UNL     1      61.056  63.553  68.405  0.00  0.00    +0.000 A 
ATOM     13  N   UNL     1      60.333  63.419  68.781  0.00  0.00    +0.000 NA
ATOM     14  C   UNL     1      60.178  63.765  69.514  0.00  0.00    +0.000 A 
ATOM     15  C   UNL     1      60.746  64.244  69.872  0.00  0.00    +0.000 A 
ATOM     16  C   UNL     1      60.592  64.590  70.605  0.00  0.00    +0.000 C 
ATOM     17  O   UNL     1      59.868  64.455  70.980  0.00  0.00    +0.000 OA
ATOM     18  N   UNL     1      61.159  65.069  70.963  0.00  0.00    +0.000 NA
ATOM     19  C   UNL     1      61.004  65.414  71.696  0.00  0.00    +0.000 C 
ATOM     20  C   UNL     1      60.282  65.280  72.071  0.00  0.00    +0.000 A 
ATOM     21  N   UNL     1      59.714  64.801  71.713  0.00  0.00    +0.000 NA
ATOM     22  C   UNL     1      58.991  64.667  72.087  0.00  0.00    +0.000 A 
ATOM     23  C   UNL     1      58.837  65.012  72.820  0.00  0.00    +0.000 A 
ATOM     24  C   UNL     1      59.404  65.492  73.179  0.00  0.00    +0.000 A 
ATOM     25  N   UNL     1      60.127  65.626  72.804  0.00  0.00    +0.000 NA
ATOM     26  N   UNL     1      61.211  63.208  67.672  0.00  0.00    +0.000 N 
ATOM     27  C   UNL     1      61.904  63.291  67.234  0.00  0.00    +0.000 C 
ATOM     28  C   UNL     1      61.821  62.854  66.540  0.00  0.00    +0.000 C 
ATOM     29  C   UNL     1      61.076  62.499  66.550  0.00  0.00    +0.000 C 
ATOM     30  C   UNL     1      60.699  62.718  67.249  0.00  0.00    +0.000 C 
ATOM     31  C   UNL     1      59.943  62.488  67.485  0.00  0.00    +0.000 C 
ATOM     32  O   UNL     1      59.636  62.752  68.204  0.00  0.00    +0.000 OA
ATOM     33  C   UNL     1      63.172  65.817  70.572  0.00  0.00    +0.000 A 
ATOM     34  C   UNL     1      63.740  66.296  70.930  0.00  0.00    +0.000 A 
ENDROOT
TORSDOF 0
ENDMDL
MODEL 2
REMARK VINA RESULT:   -13.386      1.649      5.078
REMARK INTER + INTRA:         -13.386
REMARK INTER:                 -13.386
REMARK INTRA:                   0.000
REMARK UNBOUND:                 0.000
ROOT
REMARK  Name = avanafil
REMARK                            x       y       z     vdW  Elec       q    Type
REMARK                         _______ _______ _______ _____ _____    ______ ____
ATOM      1  C   UNL     1      61.888  62.516  66.448  0.00  0.00    +0.000 C 
ATOM      2  O   UNL     1      61.158  62.466  66.830  0.00  0.00    +0.000 OA
ATOM      3  C   UNL     1      61.028  62.888  67.527  0.00  0.00    +0.000 A 
ATOM      4  C   UNL     1      60.299  62.838  67.910  0.00  0.00    +0.000 A 
ATOM      5 CL   UNL     1      59.700  62.366  67.596  0.00  0.00    +0.000 Cl
ATOM      6  C   UNL     1      60.169  63.261  68.606  0.00  0.00    +0.000 A 
ATOM      7  C   UNL     1      60.768  63.734  68.920  0.00  0.00    +0.000 A 
ATOM      8  C   UNL     1      60.639  64.157  69.617  0.00  0.00    +0.000 C 
ATOM      9  N   UNL     1      61.237  64.629  69.930  0.00  0.00    +0.000 NA
ATOM     10  C   UNL     1      61.108  65.052  70.627  0.00  0.00    +0.000 A 
ATOM     11  N   UNL     1      60.379  65.002  71.010  0.00  0.00    +0.000 NA
ATOM     12  C   UNL     1      60.248  65.424  71.706  0.00  0.00    +0.000 A 
ATOM     13  N   UNL     1      60.848  65.897  72.020  0.00  0.00    +0.000 NA
ATOM     14  C   UNL     1      61.577  65.947  71.637  0.00  0.00    +0.000 A 
ATOM     15  C   UNL     1      61.706  65.524  70.940  0.00  0.00    +0.000 A 
ATOM     16  C   UNL     1      62.435  65.574  70.557  0.00  0.00    +0.000 C 
ATOM     17  O   UNL     1      63.035  66.047  70.871  0.00  0.00    +0.000 OA
ATOM     18  N   UNL     1      62.566  65.152  69.861  0.00  0.00    +0.000 NA
ATOM     19  C   UNL     1      63.295  65.202  69.478  0.00  0.00    +0.000 C 
ATOM     20  C   UNL     1      63.893  65.675  69.791  0.00  0.00    +0.000 A 
ATOM     21  N   UNL     1      63.764  66.097  70.488  0.00  0.00    +0.000 NA
ATOM     22  C   UNL     1      64.362  66.570  70.802  0.00  0.00    +0.000 A 
ATOM     23  C   UNL     1      65.091  66.620  70.419  0.00  0.00    +0.000 A 
ATOM     24  C   UNL     1      65.222  66.198  69.722  0.00  0.00    +0.000 A 
ATOM     25  N   UNL     1      64.622  65.725  69.409  0.00  0.00    +0.000 NA
ATOM     26  N   UNL     1      59.519  65.374  72.089  0.00  0.00    +0.000 N 
ATOM     27  C   UNL     1      58.871  64.927  71.843  0.00  0.00    +0.000 C 
ATOM     28  C   UNL     1      58.262  65.039  72.387  0.00  0.00    +0.000 C 
ATOM     29  C   UNL     1      58.533  65.556  72.970  0.00  0.00    +0.000 C 
ATOM     30  C   UNL     1      59.310  65.763  72.786  0.00  0.00    +0.000 C 
ATOM     31  C   UNL     1      59.792  66.270  73.222  0.00  0.00    +0.000 C 
ATOM     32  O   UNL     1      60.562  66.427  72.969  0.00  0.00    +0.000 OA
ATOM     33  C   UNL     1      61.497  63.784  68.537  0.00  0.00    +0.000 A 
ATOM     34  C   UNL     1      61.628  63.361  67.841  0.00  0.00    +0.000 A 
ENDROOT
TORSDOF 0
ENDMDL
MODEL 3
REMARK VINA RESULT:   -12.857      2.469      4.379
REMARK INTER + INTRA:         -12.857
REMARK INTER:                 -12.857
REMARK INTRA:                   0.000
REMARK UNBOUND:                 0.000
ROOT
REMARK  Name = avanafil
REMARK                            x       y       z     vdW  Elec       q    Type
REMARK                         _______ _______ _______ _____ _____    ______ ____
ATOM      1  C   UNL     1      65.174  66.240  71.502  0.00  0.00    +0.000 C 
ATOM      2  O   UNL     1      64.687  66.856  71.754  0.00  0.00    +0.000 OA
ATOM      3  C   UNL     1      63.881  66.724  71.872  0.00  0.00    +0.000 A 
ATOM      4  C   UNL     1      63.394  67.340  72.124  0.00  0.00    +0.000 A 
ATOM      5 CL   UNL     1      63.713  68.089  72.258  0.00  0.00    +0.000 Cl
ATOM      6  C   UNL     1      62.588  67.207  72.242  0.00  0.00    +0.000 A 
ATOM      7  C   UNL     1      62.270  66.459  72.107  0.00  0.00    +0.000 A 
ATOM      8  C   UNL     1      61.464  66.325  72.225  0.00  0.00    +0.000 C 
ATOM      9  N   UNL     1      61.145  65.577  72.091  0.00  0.00    +0.000 NA
ATOM     10  C   UNL     1      60.340  65.444  72.208  0.00  0.00    +0.000 A 
ATOM     11  N   UNL     1      59.853  66.060  72.460  0.00  0.00    +0.000 NA
ATOM     12  C   UNL     1      59.047  65.928  72.578  0.00  0.00    +0.000 A 
ATOM     13  N   UNL     1      58.728  65.178  72.443  0.00  0.00    +0.000 NA
ATOM     14  C   UNL     1      59.215  64.562  72.191  0.00  0.00    +0.000 A 
ATOM     15  C   UNL     1      60.021  64.695  72.074  0.00  0.00    +0.000 A 
ATOM     16  C   UNL     1      60.508  64.079  71.822  0.00  0.00    +0.000 C 
ATOM     17  O   UNL     1      60.189  63.329  71.688  0.00  0.00    +0.000 OA
ATOM     18  N   UNL     1      61.314  64.211  71.704  0.00  0.00    +0.000 NA
ATOM     19  C   UNL     1      61.801  63.595  71.452  0.00  0.00    +0.000 C 
ATOM     20  C   UNL     1      61.482  62.846  71.318  0.00  0.00    +0.000 A 
ATOM     21  N   UNL     1      60.676  62.713  71.436  0.00  0.00    +0.000 NA
ATOM     22  C   UNL     1      60.358  61.964  71.301  0.00  0.00    +0.000 A 
ATOM     23  C   UNL     1      60.845  61.348  71.049  0.00  0.00    +0.000 A 
ATOM     24  C   UNL     1      61.650  61.480  70.932  0.00  0.00    +0.000 A 
ATOM     25  N   UNL     1      61.969  62.230  71.066  0.00  0.00    +0.000 NA
ATOM     26  N   UNL     1      58.560  66.544  72.830  0.00  0.00    +0.000 N 
ATOM     27  C   UNL     1      58.798  67.318  72.986  0.00  0.00    +0.000 C 
ATOM     28  C   UNL     1      58.135  67.747  73.222  0.00  0.00    +0.000 C 
ATOM     29  C   UNL     1      57.486  67.238  73.213  0.00  0.00    +0.000 C 
ATOM     30  C   UNL     1      57.748  66.495  72.970  0.00  0.00    +0.000 C 
ATOM     31  C   UNL     1      57.282  65.820  72.883  0.00  0.00    +0.000 C 
ATOM     32  O   UNL     1      57.623  65.111  72.635  0.00  0.00    +0.000 OA
ATOM     33  C   UNL     1      62.757  65.842  71.855  0.00  0.00    +0.000 A 
ATOM     34  C   UNL     1      63.563  65.974  71.738  0.00  0.00    +0.000 A 
ENDROOT
TORSDOF 0
ENDMDL
MODEL 4
REMARK VINA RESULT:   -12.559      1.828      3.884
REMARK INTER + INTRA:         -12.559
REMARK INTER:                 -12.559
REMARK INTRA:                   0.000
REMARK UNBOUND:                 0.000
ROOT
REMARK  Name = avanafil
REMARK                            x       y       z     vdW  Elec       q    Type
REMARK                         _______ _______ _______ _____ _____    ______ ____
ATOM      1  C   UNL     1      59.695  66.981  73.222  0.00  0.00    +0.000 C 
ATOM      2  O   UNL     1      59.184  66.483  72.809  0.00  0.00    +0.000 OA
ATOM      3  C   UNL     1      59.460  66.058  72.157  0.00  0.00    +0.000 A 
ATOM      4  C   UNL     1      58.950  65.559  71.743  0.00  0.00    +0.000 A 
ATOM      5 CL   UNL     1      58.164  65.485  71.981  0.00  0.00    +0.000 Cl
ATOM      6  C   UNL     1      59.226  65.136  71.091  0.00  0.00    +0.000 A 
ATOM      7  C   UNL     1      60.012  65.211  70.854  0.00  0.00    +0.000 A 
ATOM      8  C   UNL     1      60.289  64.787  70.202  0.00  0.00    +0.000 C 
ATOM      9  N   UNL     1      61.075  64.862  69.964  0.00  0.00    +0.000 NA
ATOM     10  C   UNL     1      61.352  64.438  69.313  0.00  0.00    +0.000 A 
ATOM     11  N   UNL     1      60.842  63.939  68.899  0.00  0.00    +0.000 NA
ATOM     12  C   UNL     1      61.117  63.515  68.247  0.00  0.00    +0.000 A 
ATOM     13  N   UNL     1      61.904  63.590  68.009  0.00  0.00    +0.000 NA
ATOM     14  C   UNL     1      62.414  64.089  68.423  0.00  0.00    +0.000 A 
ATOM     15  C   UNL     1      62.138  64.513  69.075  0.00  0.00    +0.000 A 
ATOM     16  C   UNL     1      62.648  65.012  69.489  0.00  0.00    +0.000 C 
ATOM     17  O   UNL     1      63.435  65.087  69.251  0.00  0.00    +0.000 OA
ATOM     18  N   UNL     1      62.372  65.436  70.140  0.00  0.00    +0.000 NA
ATOM     19  C   UNL     1      62.883  65.935  70.554  0.00  0.00    +0.000 C 
ATOM     20  C   UNL     1      63.668  66.010  70.317  0.00  0.00    +0.000 A 
ATOM     21  N   UNL     1      63.945  65.586  69.665  0.00  0.00    +0.000 NA
ATOM     22  C   UNL     1      64.731  65.661  69.427  0.00  0.00    +0.000 A 
ATOM     23  C   UNL     1      65.241  66.160  69.841  0.00  0.00    +0.000 A 
ATOM     24  C   UNL     1      64.966  66.584  70.493  0.00  0.00    +0.000 A 
ATOM     25  N   UNL     1      64.179  66.509  70.731  0.00  0.00    +0.000 NA
ATOM     26  N   UNL     1      60.607  63.016  67.833  0.00  0.00    +0.000 N 
ATOM     27  C   UNL     1      59.811  62.885  68.005  0.00  0.00    +0.000 C 
ATOM     28  C   UNL     1      59.516  62.349  67.453  0.00  0.00    +0.000 C 
ATOM     29  C   UNL     1      60.129  62.148  66.939  0.00  0.00    +0.000 C 
ATOM     30  C   UNL     1      60.804  62.559  67.174  0.00  0.00    +0.000 C 
ATOM     31  C   UNL     1      61.544  62.522  66.814  0.00  0.00    +0.000 C 
ATOM     32  O   UNL     1      62.171  62.968  67.112  0.00  0.00    +0.000 OA
ATOM     33  C   UNL     1      60.522  65.710  71.268  0.00  0.00    +0.000 A 
ATOM     34  C   UNL     1      60.247  66.134  71.919  0.00  0.00    +0.000 A 
ENDROOT
TORSDOF 0
ENDMDL
MODEL 5
REMARK VINA RESULT:   -12.179      2.831      3.204
REMARK INTER + INTRA:         -12.179
REMARK INTER:                 -12.179
REMARK INTRA:                   0.000
REMARK UNBOUND:                 0.000
ROOT
REMARK  Name = avanafil
REMARK                            x       y       z     vdW  Elec       q    Type
REMARK                         _______ _______ _______ _____ _____    ______ ____
ATOM      1  C   UNL     1      59.411  67.543  71.308  0.00  0.00    +0.000 C 
ATOM      2  O   UNL     1      59.335  67.488  70.489  0.00  0.00    +0.000 OA
ATOM      3  C   UNL     1      59.558  66.796  70.099  0.00  0.00    +0.000 A 
ATOM      4  C   UNL     1      59.482  66.741  69.279  0.00  0.00    +0.000 A 
ATOM      5 CL   UNL     1      59.184  67.378  68.849  0.00  0.00    +0.000 Cl
ATOM      6  C   UNL     1      59.705  66.048  68.890  0.00  0.00    +0.000 A 
ATOM      7  C   UNL     1      60.003  65.411  69.320  0.00  0.00    +0.000 A 
ATOM      8  C   UNL     1      60.226  64.718  68.931  0.00  0.00    +0.000 C 
ATOM      9  N   UNL     1      60.524  64.081  69.361  0.00  0.00    +0.000 NA
ATOM     10  C   UNL     1      60.747  63.388  68.972  0.00  0.00    +0.000 A 
ATOM     11  N   UNL     1      60.671  63.333  68.152  0.00  0.00    +0.000 NA
ATOM     12  C   UNL     1      60.893  62.641  67.762  0.00  0.00    +0.000 A 
ATOM     13  N   UNL     1      61.192  62.003  68.193  0.00  0.00    +0.000 NA
ATOM     14  C   UNL     1      61.268  62.058  69.013  0.00  0.00    +0.000 A 
ATOM     15  C   UNL     1      61.045  62.751  69.402  0.00  0.00    +0.000 A 
ATOM     16  C   UNL     1      61.121  62.806  70.221  0.00  0.00    +0.000 C 
ATOM     17  O   UNL     1      61.420  62.168  70.652  0.00  0.00    +0.000 OA
ATOM     18  N   UNL     1      60.899  63.498  70.611  0.00  0.00    +0.000 NA
ATOM     19  C   UNL     1      60.974  63.553  71.431  0.00  0.00    +0.000 C 
ATOM     20  C   UNL     1      61.273  62.916  71.860  0.00  0.00    +0.000 A 
ATOM     21  N   UNL     1      61.496  62.223  71.472  0.00  0.00    +0.000 NA
ATOM     22  C   UNL     1      61.794  61.586  71.901  0.00  0.00    +0.000 A 
ATOM     23  C   UNL     1      61.870  61.641  72.721  0.00  0.00    +0.000 A 
ATOM     24  C   UNL     1      61.647  62.333  73.111  0.00  0.00    +0.000 A 
ATOM     25  N   UNL     1      61.349  62.971  72.680  0.00  0.00    +0.000 NA
ATOM     26  N   UNL     1      60.817  62.586  66.943  0.00  0.00    +0.000 N 
ATOM     27  C   UNL     1      60.529  63.175  66.442  0.00  0.00    +0.000 C 
ATOM     28  C   UNL     1      60.550  62.885  65.670  0.00  0.00    +0.000 C 
ATOM     29  C   UNL     1      60.851  62.117  65.694  0.00  0.00    +0.000 C 
ATOM     30  C   UNL     1      61.016  61.932  66.480  0.00  0.00    +0.000 C 
ATOM     31  C   UNL     1      61.325  61.219  66.756  0.00  0.00    +0.000 C 
ATOM     32  O   UNL     1      61.462  61.113  67.562  0.00  0.00    +0.000 OA
ATOM     33  C   UNL     1      60.079  65.466  70.139  0.00  0.00    +0.000 A 
ATOM     34  C   UNL     1      59.856  66.158  70.529  0.00  0.00    +0.000 A 
ENDROOT
TORSDOF 0
ENDMDL
MODEL 6
REMARK VINA RESULT:   -12.009      0.933      4.036
REMARK INTER + INTRA:         -12.009
REMARK INTER:                 -12.009
REMARK INTRA:                   0.000
REMARK UNBOUND:                 0.000
ROOT
REMARK  Name = avanafil
REMARK                            x       y       z     vdW  Elec       q    Type
REMARK                         _______ _______ _______ _____ _____    ______ ____
ATOM      1  C   UNL     1      65.662  65.925  69.098  0.00  0.00    +0.000 C 
ATOM      2  O   UNL     1      65.377  66.375  69.728  0.00  0.00    +0.000 OA
ATOM      3  C   UNL     1      64.604  66.269  69.995  0.00  0.00    +0.000 A 
ATOM      4  C   UNL     1      64.319  66.719  70.625  0.00  0.00    +0.000 A 
ATOM      5 CL   UNL     1      64.808  67.275  70.988  0.00  0.00    +0.000 Cl
ATOM      6  C   UNL     1      63.546  66.612  70.891  0.00  0.00    +0.000 A 
ATOM      7  C   UNL     1      63.057  66.055  70.529  0.00  0.00    +0.000 A 
ATOM      8  C   UNL     1      62.284  65.948  70.795  0.00  0.00    +0.000 C 
ATOM      9  N   UNL     1      61.795  65.392  70.432  0.00  0.00    +0.000 NA
ATOM     10  C   UNL     1      61.022  65.285  70.699  0.00  0.00    +0.000 A 
ATOM     11  N   UNL     1      60.737  65.735  71.329  0.00  0.00    +0.000 NA
ATOM     12  C   UNL     1      59.964  65.629  71.596  0.00  0.00    +0.000 A 
ATOM     13  N   UNL     1      59.475  65.071  71.232  0.00  0.00    +0.000 NA
ATOM     14  C   UNL     1      59.760  64.621  70.603  0.00  0.00    +0.000 A 
ATOM     15  C   UNL     1      60.534  64.728  70.336  0.00  0.00    +0.000 A 
ATOM     16  C   UNL     1      60.818  64.278  69.706  0.00  0.00    +0.000 C 
ATOM     17  O   UNL     1      60.330  63.720  69.343  0.00  0.00    +0.000 OA
ATOM     18  N   UNL     1      61.591  64.384  69.439  0.00  0.00    +0.000 NA
ATOM     19  C   UNL     1      61.876  63.934  68.809  0.00  0.00    +0.000 C 
ATOM     20  C   UNL     1      61.388  63.377  68.447  0.00  0.00    +0.000 A 
ATOM     21  N   UNL     1      60.614  63.270  68.713  0.00  0.00    +0.000 NA
ATOM     22  C   UNL     1      60.126  62.714  68.350  0.00  0.00    +0.000 A 
ATOM     23  C   UNL     1      60.411  62.264  67.720  0.00  0.00    +0.000 A 
ATOM     24  C   UNL     1      61.184  62.370  67.453  0.00  0.00    +0.000 A 
ATOM     25  N   UNL     1      61.673  62.927  67.817  0.00  0.00    +0.000 NA
ATOM     26  N   UNL     1      59.679  66.079  72.226  0.00  0.00    +0.000 N 
ATOM     27  C   UNL     1      60.101  66.654  72.641  0.00  0.00    +0.000 C 
ATOM     28  C   UNL     1      59.605  66.963  73.222  0.00  0.00    +0.000 C 
ATOM     29  C   UNL     1      58.876  66.580  73.167  0.00  0.00    +0.000 C 
ATOM     30  C   UNL     1      58.922  66.034  72.551  0.00  0.00    +0.000 C 
ATOM     31  C   UNL     1      58.317  65.530  72.304  0.00  0.00    +0.000 C 
ATOM     32  O   UNL     1      58.444  65.010  71.676  0.00  0.00    +0.000 OA
ATOM     33  C   UNL     1      63.342  65.605  69.899  0.00  0.00    +0.000 A 
ATOM     34  C   UNL     1      64.115  65.711  69.632  0.00  0.00    +0.000 A 
ENDROOT
TORSDOF 0
ENDMDL
MODEL 7
REMARK VINA RESULT:   -11.394      2.924      4.697
REMARK INTER + INTRA:         -11.394
REMARK INTER:                 -11.394
REMARK INTRA:                   0.000
REMARK UNBOUND:                 0.000
ROOT
REMARK  Name = avanafil
REMARK                            x       y       z     vdW  Elec       q    Type
REMARK                         _______ _______ _______ _____ _____    ______ ____
ATOM      1  C   UNL     1      58.062  68.361  73.222  0.00  0.00    +0.000 C 
ATOM      2  O   UNL     1      57.751  67.611  73.081  0.00  0.00    +0.000 OA
ATOM      3  C   UNL     1      58.247  66.995  72.846  0.00  0.00    +0.000 A 
ATOM      4  C   UNL     1      57.935  66.244  72.705  0.00  0.00    +0.000 A 
ATOM      5 CL   UNL     1      57.128  66.109  72.799  0.00  0.00    +0.000 Cl
ATOM      6  C   UNL     1      58.433  65.629  72.470  0.00  0.00    +0.000 A 
ATOM      7  C   UNL     1      59.241  65.764  72.377  0.00  0.00    +0.000 A 
ATOM      8  C   UNL     1      59.738  65.149  72.142  0.00  0.00    +0.000 C 
ATOM      9  N   UNL     1      60.546  65.284  72.049  0.00  0.00    +0.000 NA
ATOM     10  C   UNL     1      61.044  64.669  71.814  0.00  0.00    +0.000 A 
ATOM     11  N   UNL     1      60.732  63.919  71.673  0.00  0.00    +0.000 NA
ATOM     12  C   UNL     1      61.229  63.303  71.438  0.00  0.00    +0.000 A 
ATOM     13  N   UNL     1      62.038  63.439  71.345  0.00  0.00    +0.000 NA
ATOM     14  C   UNL     1      62.349  64.189  71.486  0.00  0.00    +0.000 A 
ATOM     15  C   UNL     1      61.852  64.804  71.721  0.00  0.00    +0.000 A 
ATOM     16  C   UNL     1      62.163  65.555  71.862  0.00  0.00    +0.000 C 
ATOM     17  O   UNL     1      62.972  65.691  71.769  0.00  0.00    +0.000 OA
ATOM     18  N   UNL     1      61.667  66.171  72.097  0.00  0.00    +0.000 NA
ATOM     19  C   UNL     1      61.978  66.922  72.238  0.00  0.00    +0.000 C 
ATOM     20  C   UNL     1      62.786  67.057  72.145  0.00  0.00    +0.000 A 
ATOM     21  N   UNL     1      63.284  66.442  71.910  0.00  0.00    +0.000 NA
ATOM     22  C   UNL     1      64.092  66.577  71.817  0.00  0.00    +0.000 A 
ATOM     23  C   UNL     1      64.403  67.327  71.958  0.00  0.00    +0.000 A 
ATOM     24  C   UNL     1      63.907  67.943  72.193  0.00  0.00    +0.000 A 
ATOM     25  N   UNL     1      63.098  67.807  72.286  0.00  0.00    +0.000 NA
ATOM     26  N   UNL     1      60.917  62.552  71.297  0.00  0.00    +0.000 N 
ATOM     27  C   UNL     1      60.125  62.335  71.367  0.00  0.00    +0.000 C 
ATOM     28  C   UNL     1      60.061  61.536  71.174  0.00  0.00    +0.000 C 
ATOM     29  C   UNL     1      60.815  61.259  70.985  0.00  0.00    +0.000 C 
ATOM     30  C   UNL     1      61.344  61.887  71.061  0.00  0.00    +0.000 C 
ATOM     31  C   UNL     1      62.157  61.855  70.924  0.00  0.00    +0.000 C 
ATOM     32  O   UNL     1      62.618  62.532  71.023  0.00  0.00    +0.000 OA
ATOM     33  C   UNL     1      59.552  66.515  72.518  0.00  0.00    +0.000 A 
ATOM     34  C   UNL     1      59.056  67.131  72.753  0.00  0.00    +0.000 A 
ENDROOT
TORSDOF 0
ENDMDL
MODEL 8
REMARK VINA RESULT:   -11.024     14.744     17.575
REMARK INTER + INTRA:         -11.024
REMARK INTER:                 -11.024
REMARK INTRA:                   0.000
REMARK UNBOUND:                 0.000
ROOT
REMARK  Name = avanafil
REMARK                            x       y       z     vdW  Elec       q    Type
REMARK                         _______ _______ _______ _____ _____    ______ ____
ATOM      1  C   UNL     1      61.337  66.748  48.747  0.00  0.00    +0.000 C 
ATOM      2  O   UNL     1      61.366  67.506  49.071  0.00  0.00    +0.000 OA
ATOM      3  C   UNL     1      61.492  67.604  49.880  0.00  0.00    +0.000 A 
ATOM      4  C   UNL     1      61.521  68.362  50.205  0.00  0.00    +0.000 A 
ATOM      5 CL   UNL     1      61.426  69.022  49.720  0.00  0.00    +0.000 Cl
ATOM      6  C   UNL     1      61.647  68.459  51.015  0.00  0.00    +0.000 A 
ATOM      7  C   UNL     1      61.743  67.800  51.500  0.00  0.00    +0.000 A 
ATOM      8  C   UNL     1      61.868  67.897  52.309  0.00  0.00    +0.000 C 
ATOM      9  N   UNL     1      61.964  67.237  52.794  0.00  0.00    +0.000 NA
ATOM     10  C   UNL     1      62.090  67.334  53.604  0.00  0.00    +0.000 A 
ATOM     11  N   UNL     1      62.119  68.092  53.928  0.00  0.00    +0.000 NA
ATOM     12  C   UNL     1      62.245  68.191  54.738  0.00  0.00    +0.000 A 
ATOM     13  N   UNL     1      62.340  67.530  55.223  0.00  0.00    +0.000 NA
ATOM     14  C   UNL     1      62.311  66.772  54.899  0.00  0.00    +0.000 A 
ATOM     15  C   UNL     1      62.185  66.675  54.089  0.00  0.00    +0.000 A 
ATOM     16  C   UNL     1      62.156  65.917  53.765  0.00  0.00    +0.000 C 
ATOM     17  O   UNL     1      62.252  65.256  54.250  0.00  0.00    +0.000 OA
ATOM     18  N   UNL     1      62.030  65.818  52.956  0.00  0.00    +0.000 NA
ATOM     19  C   UNL     1      62.001  65.060  52.631  0.00  0.00    +0.000 C 
ATOM     20  C   UNL     1      62.097  64.401  53.116  0.00  0.00    +0.000 A 
ATOM     21  N   UNL     1      62.222  64.498  53.926  0.00  0.00    +0.000 NA
ATOM     22  C   UNL     1      62.318  63.838  54.411  0.00  0.00    +0.000 A 
ATOM     23  C   UNL     1      62.288  63.080  54.087  0.00  0.00    +0.000 A 
ATOM     24  C   UNL     1      62.163  62.982  53.277  0.00  0.00    +0.000 A 
ATOM     25  N   UNL     1      62.067  63.643  52.792  0.00  0.00    +0.000 NA
ATOM     26  N   UNL     1      62.274  68.949  55.062  0.00  0.00    +0.000 N 
ATOM     27  C   UNL     1      62.188  69.657  54.648  0.00  0.00    +0.000 C 
ATOM     28  C   UNL     1      62.256  70.277  55.188  0.00  0.00    +0.000 C 
ATOM     29  C   UNL     1      62.384  69.952  55.935  0.00  0.00    +0.000 C 
ATOM     30  C   UNL     1      62.395  69.131  55.858  0.00  0.00    +0.000 C 
ATOM     31  C   UNL     1      62.507  68.588  56.468  0.00  0.00    +0.000 C 
ATOM     32  O   UNL     1      62.505  67.779  56.307  0.00  0.00    +0.000 OA
ATOM     33  C   UNL     1      61.713  67.042  51.175  0.00  0.00    +0.000 A 
ATOM     34  C   UNL     1      61.588  66.943  50.366  0.00  0.00    +0.000 A 
ENDROOT
TORSDOF 0
ENDMDL
MODEL 9
REMARK VINA RESULT:   -10.988     15.060     18.009
REMARK INTER + INTRA:         -10.988
REMARK INTER:                 -10.988
REMARK INTRA:                   0.000
REMARK UNBOUND:                 0.000
ROOT
REMARK  Name = avanafil
REMARK                            x       y       z     vdW  Elec       q    Type
REMARK                         _______ _______ _______ _____ _____    ______ ____
ATOM      1  C   UNL     1      61.767  62.620  52.180  0.00  0.00    +0.000 C 
ATOM      2  O   UNL     1      61.866  62.867  52.961  0.00  0.00    +0.000 OA
ATOM      3  C   UNL     1      61.909  63.671  53.138  0.00  0.00    +0.000 A 
ATOM      4  C   UNL     1      62.009  63.918  53.919  0.00  0.00    +0.000 A 
ATOM      5 CL   UNL     1      62.065  63.360  54.523  0.00  0.00    +0.000 Cl
ATOM      6  C   UNL     1      62.052  64.723  54.094  0.00  0.00    +0.000 A 
ATOM      7  C   UNL     1      61.995  65.281  53.490  0.00  0.00    +0.000 A 
ATOM      8  C   UNL     1      62.038  66.086  53.666  0.00  0.00    +0.000 C 
ATOM      9  N   UNL     1      61.982  66.644  53.062  0.00  0.00    +0.000 NA
ATOM     10  C   UNL     1      62.025  67.449  53.237  0.00  0.00    +0.000 A 
ATOM     11  N   UNL     1      62.124  67.696  54.018  0.00  0.00    +0.000 NA
ATOM     12  C   UNL     1      62.167  68.500  54.195  0.00  0.00    +0.000 A 
ATOM     13  N   UNL     1      62.111  69.059  53.590  0.00  0.00    +0.000 NA
ATOM     14  C   UNL     1      62.011  68.813  52.809  0.00  0.00    +0.000 A 
ATOM     15  C   UNL     1      61.968  68.007  52.633  0.00  0.00    +0.000 A 
ATOM     16  C   UNL     1      61.869  67.761  51.852  0.00  0.00    +0.000 C 
ATOM     17  O   UNL     1      61.813  68.320  51.247  0.00  0.00    +0.000 OA
ATOM     18  N   UNL     1      61.826  66.956  51.675  0.00  0.00    +0.000 NA
ATOM     19  C   UNL     1      61.727  66.710  50.894  0.00  0.00    +0.000 C 
ATOM     20  C   UNL     1      61.670  67.268  50.290  0.00  0.00    +0.000 A 
ATOM     21  N   UNL     1      61.713  68.073  50.466  0.00  0.00    +0.000 NA
ATOM     22  C   UNL     1      61.657  68.631  49.862  0.00  0.00    +0.000 A 
ATOM     23  C   UNL     1      61.558  68.385  49.081  0.00  0.00    +0.000 A 
ATOM     24  C   UNL     1      61.515  67.580  48.904  0.00  0.00    +0.000 A 
ATOM     25  N   UNL     1      61.571  67.021  49.509  0.00  0.00    +0.000 NA
ATOM     26  N   UNL     1      62.266  68.747  54.976  0.00  0.00    +0.000 N 
ATOM     27  C   UNL     1      62.331  68.256  55.635  0.00  0.00    +0.000 C 
ATOM     28  C   UNL     1      62.423  68.733  56.301  0.00  0.00    +0.000 C 
ATOM     29  C   UNL     1      62.415  69.520  56.054  0.00  0.00    +0.000 C 
ATOM     30  C   UNL     1      62.319  69.529  55.235  0.00  0.00    +0.000 C 
ATOM     31  C   UNL     1      62.281  70.201  54.759  0.00  0.00    +0.000 C 
ATOM     32  O   UNL     1      62.182  70.124  53.943  0.00  0.00    +0.000 OA
ATOM     33  C   UNL     1      61.896  65.035  52.709  0.00  0.00    +0.000 A 
ATOM     34  C   UNL     1      61.853  64.230  52.532  0.00  0.00    +0.000 A 
ENDROOT
TORSDOF 0
ENDMDL
