MODEL 1
REMARK VINA RESULT:   -12.871      0.000      0.000
REMARK INTER + INTRA:         -12.871
REMARK INTER:                 -12.871
REMARK INTRA:                   0.000
REMARK UNBOUND:                 0.000
ROOT
REMARK  Name = azaperone
REMARK                            x       y       z     vdW  Elec       q    Type
REMARK                         _______ _______ _______ _____ _____    ______ ____
ATOM      1  F   UNL     1      61.140  60.910  63.082  0.00  0.00    +0.000 F 
ATOM      2  C   UNL     1      61.250  61.230  63.834  0.00  0.00    +0.000 A 
ATOM      3  C   UNL     1      60.764  60.993  64.457  0.00  0.00    +0.000 A 
ATOM      4  C   UNL     1      60.874  61.313  65.210  0.00  0.00    +0.000 A 
ATOM      5  C   UNL     1      61.469  61.870  65.339  0.00  0.00    +0.000 A 
ATOM      6  C   UNL     1      61.954  62.106  64.715  0.00  0.00    +0.000 A 
ATOM      7  C   UNL     1      61.845  61.787  63.963  0.00  0.00    +0.000 A 
ATOM      8  C   UNL     1      61.578  62.189  66.092  0.00  0.00    +0.000 C 
ATOM      9  O   UNL     1      62.173  62.746  66.222  0.00  0.00    +0.000 OA
ATOM     10  C   UNL     1      61.093  61.952  66.715  0.00  0.00    +0.000 C 
ATOM     11  C   UNL     1      61.202  62.272  67.468  0.00  0.00    +0.000 C 
ATOM     12  C   UNL     1      60.716  62.035  68.092  0.00  0.00    +0.000 C 
ATOM     13  N   UNL     1      60.826  62.354  68.844  0.00  0.00    +0.000 NA
ATOM     14  C   UNL     1      60.340  62.118  69.468  0.00  0.00    +0.000 C 
ATOM     15  C   UNL     1      60.449  62.437  70.220  0.00  0.00    +0.000 C 
ATOM     16  N   UNL     1      61.045  62.995  70.349  0.00  0.00    +0.000 N 
ATOM     17  C   UNL     1      61.530  63.231  69.726  0.00  0.00    +0.000 C 
ATOM     18  C   UNL     1      61.421  62.912  68.973  0.00  0.00    +0.000 C 
ATOM     19  C   UNL     1      61.154  63.314  71.102  0.00  0.00    +0.000 A 
ATOM     20  C   UNL     1      60.669  63.077  71.725  0.00  0.00    +0.000 A 
ATOM     21  C   UNL     1      60.778  63.397  72.478  0.00  0.00    +0.000 A 
ATOM     22  C   UNL     1      61.373  63.953  72.608  0.00  0.00    +0.000 A 
ATOM     23  C   UNL     1      61.859  64.191  71.984  0.00  0.00    +0.000 A 
ATOM     24  N   UNL     1      61.749  63.871  71.231  0.00  0.00    +0.000 NA
ENDROOT
TORSDOF 0
ENDMDL
MODEL 2
REMARK VINA RESULT:   -12.101      2.706      6.211
REMARK INTER + INTRA:         -12.101
REMARK INTER:                 -12.101
REMARK INTRA:                   0.000
REMARK UNBOUND:                 0.000
ROOT
REMARK  Name = azaperone
REMARK                            x       y       z     vdW  Elec       q    Type
REMARK                         _______ _______ _______ _____ _____    ______ ____
ATOM      1  F   UNL     1      59.898  64.863  73.222  0.00  0.00    +0.000 F 
ATOM      2  C   UNL     1      60.173  64.642  72.477  0.00  0.00    +0.000 A 
ATOM      3  C   UNL     1      59.683  64.220  71.965  0.00  0.00    +0.000 A 
ATOM      4  C   UNL     1      59.958  63.999  71.219  0.00  0.00    +0.000 A 
ATOM      5  C   UNL     1      60.723  64.201  70.985  0.00  0.00    +0.000 A 
ATOM      6  C   UNL     1      61.213  64.623  71.498  0.00  0.00    +0.000 A 
ATOM      7  C   UNL     1      60.939  64.844  72.243  0.00  0.00    +0.000 A 
ATOM      8  C   UNL     1      60.997  63.980  70.239  0.00  0.00    +0.000 C 
ATOM      9  O   UNL     1      61.763  64.182  70.004  0.00  0.00    +0.000 OA
ATOM     10  C   UNL     1      60.508  63.558  69.727  0.00  0.00    +0.000 C 
ATOM     11  C   UNL     1      60.782  63.337  68.982  0.00  0.00    +0.000 C 
ATOM     12  C   UNL     1      60.293  62.915  68.469  0.00  0.00    +0.000 C 
ATOM     13  N   UNL     1      60.567  62.694  67.724  0.00  0.00    +0.000 NA
ATOM     14  C   UNL     1      60.077  62.272  67.211  0.00  0.00    +0.000 C 
ATOM     15  C   UNL     1      60.352  62.052  66.466  0.00  0.00    +0.000 C 
ATOM     16  N   UNL     1      61.118  62.253  66.232  0.00  0.00    +0.000 N 
ATOM     17  C   UNL     1      61.607  62.675  66.743  0.00  0.00    +0.000 C 
ATOM     18  C   UNL     1      61.333  62.896  67.490  0.00  0.00    +0.000 C 
ATOM     19  C   UNL     1      61.392  62.032  65.485  0.00  0.00    +0.000 A 
ATOM     20  C   UNL     1      60.902  61.610  64.974  0.00  0.00    +0.000 A 
ATOM     21  C   UNL     1      61.177  61.389  64.228  0.00  0.00    +0.000 A 
ATOM     22  C   UNL     1      61.942  61.591  63.994  0.00  0.00    +0.000 A 
ATOM     23  C   UNL     1      62.432  62.014  64.506  0.00  0.00    +0.000 A 
ATOM     24  N   UNL     1      62.157  62.234  65.251  0.00  0.00    +0.000 NA
ENDROOT
TORSDOF 0
ENDMDL
MODEL 3
REMARK VINA RESULT:   -10.750      3.895      5.649
REMARK INTER + INTRA:         -10.750
REMARK INTER:                 -10.750
REMARK INTRA:                   0.000
REMARK UNBOUND:                 0.000
ROOT
REMARK  Name = azaperone
REMARK                            x       y       z     vdW  Elec       q    Type
REMARK                         _______ _______ _______ _____ _____    ______ ____
ATOM      1  F   UNL     1      59.746  61.079  70.600  0.00  0.00    +0.000 F 
ATOM      2  C   UNL     1      60.293  61.674  70.436  0.00  0.00    +0.000 A 
ATOM      3  C   UNL     1      60.798  61.943  71.030  0.00  0.00    +0.000 A 
ATOM      4  C   UNL     1      61.346  62.539  70.866  0.00  0.00    +0.000 A 
ATOM      5  C   UNL     1      61.388  62.864  70.108  0.00  0.00    +0.000 A 
ATOM      6  C   UNL     1      60.883  62.593  69.515  0.00  0.00    +0.000 A 
ATOM      7  C   UNL     1      60.335  61.999  69.679  0.00  0.00    +0.000 A 
ATOM      8  C   UNL     1      61.937  63.459  69.945  0.00  0.00    +0.000 C 
ATOM      9  O   UNL     1      61.979  63.784  69.187  0.00  0.00    +0.000 OA
ATOM     10  C   UNL     1      62.442  63.728  70.538  0.00  0.00    +0.000 C 
ATOM     11  C   UNL     1      62.989  64.323  70.375  0.00  0.00    +0.000 C 
ATOM     12  C   UNL     1      63.495  64.593  70.968  0.00  0.00    +0.000 C 
ATOM     13  N   UNL     1      64.042  65.188  70.805  0.00  0.00    +0.000 NA
ATOM     14  C   UNL     1      64.548  65.458  71.398  0.00  0.00    +0.000 C 
ATOM     15  C   UNL     1      65.095  66.053  71.234  0.00  0.00    +0.000 C 
ATOM     16  N   UNL     1      65.138  66.378  70.476  0.00  0.00    +0.000 N 
ATOM     17  C   UNL     1      64.632  66.108  69.884  0.00  0.00    +0.000 C 
ATOM     18  C   UNL     1      64.084  65.513  70.047  0.00  0.00    +0.000 C 
ATOM     19  C   UNL     1      65.686  66.973  70.313  0.00  0.00    +0.000 A 
ATOM     20  C   UNL     1      66.191  67.243  70.906  0.00  0.00    +0.000 A 
ATOM     21  C   UNL     1      66.739  67.838  70.743  0.00  0.00    +0.000 A 
ATOM     22  C   UNL     1      66.781  68.163  69.986  0.00  0.00    +0.000 A 
ATOM     23  C   UNL     1      66.275  67.893  69.392  0.00  0.00    +0.000 A 
ATOM     24  N   UNL     1      65.728  67.298  69.556  0.00  0.00    +0.000 NA
ENDROOT
TORSDOF 0
ENDMDL
MODEL 4
REMARK VINA RESULT:   -10.403      3.207      6.458
REMARK INTER + INTRA:         -10.403
REMARK INTER:                 -10.403
REMARK INTRA:                   0.000
REMARK UNBOUND:                 0.000
ROOT
REMARK  Name = azaperone
REMARK                            x       y       z     vdW  Elec       q    Type
REMARK                         _______ _______ _______ _____ _____    ______ ____
ATOM      1  F   UNL     1      63.411  67.013  73.220  0.00  0.00    +0.000 F 
ATOM      2  C   UNL     1      62.981  66.587  72.661  0.00  0.00    +0.000 A 
ATOM      3  C   UNL     1      63.362  66.272  72.001  0.00  0.00    +0.000 A 
ATOM      4  C   UNL     1      62.932  65.846  71.440  0.00  0.00    +0.000 A 
ATOM      5  C   UNL     1      62.120  65.735  71.540  0.00  0.00    +0.000 A 
ATOM      6  C   UNL     1      61.740  66.051  72.200  0.00  0.00    +0.000 A 
ATOM      7  C   UNL     1      62.169  66.477  72.760  0.00  0.00    +0.000 A 
ATOM      8  C   UNL     1      61.691  65.309  70.979  0.00  0.00    +0.000 C 
ATOM      9  O   UNL     1      60.878  65.198  71.079  0.00  0.00    +0.000 OA
ATOM     10  C   UNL     1      62.071  64.994  70.319  0.00  0.00    +0.000 C 
ATOM     11  C   UNL     1      61.642  64.568  69.759  0.00  0.00    +0.000 C 
ATOM     12  C   UNL     1      62.022  64.252  69.098  0.00  0.00    +0.000 C 
ATOM     13  N   UNL     1      61.592  63.827  68.538  0.00  0.00    +0.000 NA
ATOM     14  C   UNL     1      61.973  63.511  67.878  0.00  0.00    +0.000 C 
ATOM     15  C   UNL     1      61.543  63.085  67.318  0.00  0.00    +0.000 C 
ATOM     16  N   UNL     1      60.731  62.974  67.418  0.00  0.00    +0.000 N 
ATOM     17  C   UNL     1      60.350  63.289  68.078  0.00  0.00    +0.000 C 
ATOM     18  C   UNL     1      60.780  63.716  68.639  0.00  0.00    +0.000 C 
ATOM     19  C   UNL     1      60.301  62.548  66.857  0.00  0.00    +0.000 A 
ATOM     20  C   UNL     1      60.682  62.233  66.197  0.00  0.00    +0.000 A 
ATOM     21  C   UNL     1      60.252  61.807  65.636  0.00  0.00    +0.000 A 
ATOM     22  C   UNL     1      59.441  61.696  65.736  0.00  0.00    +0.000 A 
ATOM     23  C   UNL     1      59.059  62.011  66.397  0.00  0.00    +0.000 A 
ATOM     24  N   UNL     1      59.490  62.437  66.957  0.00  0.00    +0.000 NA
ENDROOT
TORSDOF 0
ENDMDL
