MODEL 1
REMARK VINA RESULT:   -15.021      0.000      0.000
REMARK INTER + INTRA:         -15.021
REMARK INTER:                 -15.021
REMARK INTRA:                   0.000
REMARK UNBOUND:                 0.000
ROOT
REMARK  Name = azilsartan medoxomil
REMARK                            x       y       z     vdW  Elec       q    Type
REMARK                         _______ _______ _______ _____ _____    ______ ____
ATOM      1  C   UNL     1      60.865  63.423  72.742  0.00  0.00    +0.000 C 
ATOM      2  C   UNL     1      61.441  63.964  72.506  0.00  0.00    +0.000 C 
ATOM      3  O   UNL     1      61.683  63.992  71.717  0.00  0.00    +0.000 OA
ATOM      4  C   UNL     1      61.349  63.479  71.165  0.00  0.00    +0.000 A 
ATOM      5  N   UNL     1      60.770  62.911  71.319  0.00  0.00    +0.000 NA
ATOM      6  C   UNL     1      60.598  62.524  70.611  0.00  0.00    +0.000 A 
ATOM      7  C   UNL     1      60.073  61.915  70.428  0.00  0.00    +0.000 A 
ATOM      8  C   UNL     1      60.019  61.635  69.655  0.00  0.00    +0.000 A 
ATOM      9  C   UNL     1      60.491  61.963  69.063  0.00  0.00    +0.000 A 
ATOM     10  C   UNL     1      61.017  62.572  69.245  0.00  0.00    +0.000 A 
ATOM     11  C   UNL     1      61.490  62.901  68.654  0.00  0.00    +0.000 C 
ATOM     12  O   UNL     1      62.015  63.510  68.838  0.00  0.00    +0.000 OA
ATOM     13  O   UNL     1      61.436  62.620  67.881  0.00  0.00    +0.000 OA
ATOM     14  C   UNL     1      61.908  62.949  67.290  0.00  0.00    +0.000 C 
ATOM     15  C   UNL     1      61.855  62.668  66.515  0.00  0.00    +0.000 A 
ATOM     16  C   UNL     1      61.358  62.066  66.251  0.00  0.00    +0.000 A 
ATOM     17  C   UNL     1      60.826  61.637  66.715  0.00  0.00    +0.000 C 
ATOM     18  O   UNL     1      61.486  61.967  65.442  0.00  0.00    +0.000 OA
ATOM     19  C   UNL     1      62.061  62.507  65.206  0.00  0.00    +0.000 A 
ATOM     20  O   UNL     1      62.357  62.599  64.441  0.00  0.00    +0.000 OA
ATOM     21  O   UNL     1      62.290  62.941  65.870  0.00  0.00    +0.000 OA
ATOM     22  C   UNL     1      61.070  62.853  70.020  0.00  0.00    +0.000 A 
ATOM     23  N   UNL     1      61.534  63.442  70.362  0.00  0.00    +0.000 N 
ATOM     24  C   UNL     1      62.087  63.914  69.970  0.00  0.00    +0.000 C 
ATOM     25  C   UNL     1      62.512  64.484  70.388  0.00  0.00    +0.000 A 
ATOM     26  C   UNL     1      63.064  64.955  69.996  0.00  0.00    +0.000 A 
ATOM     27  C   UNL     1      63.490  65.526  70.414  0.00  0.00    +0.000 A 
ATOM     28  C   UNL     1      63.363  65.626  71.222  0.00  0.00    +0.000 A 
ATOM     29  C   UNL     1      62.810  65.154  71.614  0.00  0.00    +0.000 A 
ATOM     30  C   UNL     1      62.384  64.584  71.197  0.00  0.00    +0.000 A 
ATOM     31  C   UNL     1      63.787  66.196  71.640  0.00  0.00    +0.000 A 
ATOM     32  C   UNL     1      64.340  66.668  71.248  0.00  0.00    +0.000 A 
ATOM     33  C   UNL     1      64.765  67.238  71.666  0.00  0.00    +0.000 A 
ATOM     34  C   UNL     1      64.638  67.338  72.475  0.00  0.00    +0.000 A 
ATOM     35  C   UNL     1      64.085  66.866  72.867  0.00  0.00    +0.000 A 
ATOM     36  C   UNL     1      63.660  66.296  72.449  0.00  0.00    +0.000 A 
ATOM     37  C   UNL     1      64.468  66.568  70.439  0.00  0.00    +0.000 A 
ATOM     38  N   UNL     1      64.086  66.023  69.951  0.00  0.00    +0.000 NA
ATOM     39  O   UNL     1      64.381  66.114  69.187  0.00  0.00    +0.000 OA
ATOM     40  C   UNL     1      64.945  66.716  69.202  0.00  0.00    +0.000 A 
ATOM     41  O   UNL     1      65.381  66.989  68.556  0.00  0.00    +0.000 OA
ATOM     42  N   UNL     1      64.999  66.997  69.976  0.00  0.00    +0.000 NA
ENDROOT
TORSDOF 0
ENDMDL
MODEL 2
REMARK VINA RESULT:   -14.119     14.891     18.193
REMARK INTER + INTRA:         -14.119
REMARK INTER:                 -14.119
REMARK INTRA:                   0.000
REMARK UNBOUND:                 0.000
ROOT
REMARK  Name = azilsartan medoxomil
REMARK                            x       y       z     vdW  Elec       q    Type
REMARK                         _______ _______ _______ _____ _____    ______ ____
ATOM      1  C   UNL     1      62.223  70.201  54.362  0.00  0.00    +0.000 C 
ATOM      2  C   UNL     1      62.117  70.075  53.553  0.00  0.00    +0.000 C 
ATOM      3  O   UNL     1      62.068  69.304  53.260  0.00  0.00    +0.000 OA
ATOM      4  C   UNL     1      62.124  68.662  53.775  0.00  0.00    +0.000 A 
ATOM      5  N   UNL     1      62.231  68.704  54.592  0.00  0.00    +0.000 NA
ATOM      6  C   UNL     1      62.257  67.934  54.885  0.00  0.00    +0.000 A 
ATOM      7  C   UNL     1      62.351  67.635  55.648  0.00  0.00    +0.000 A 
ATOM      8  C   UNL     1      62.356  66.821  55.776  0.00  0.00    +0.000 A 
ATOM      9  C   UNL     1      62.266  66.303  55.140  0.00  0.00    +0.000 A 
ATOM     10  C   UNL     1      62.172  66.600  54.376  0.00  0.00    +0.000 A 
ATOM     11  C   UNL     1      62.082  66.082  53.740  0.00  0.00    +0.000 C 
ATOM     12  O   UNL     1      61.988  66.380  52.977  0.00  0.00    +0.000 OA
ATOM     13  O   UNL     1      62.087  65.268  53.868  0.00  0.00    +0.000 OA
ATOM     14  C   UNL     1      61.997  64.750  53.232  0.00  0.00    +0.000 C 
ATOM     15  C   UNL     1      62.002  63.934  53.360  0.00  0.00    +0.000 A 
ATOM     16  C   UNL     1      62.090  63.559  54.089  0.00  0.00    +0.000 A 
ATOM     17  C   UNL     1      62.190  63.932  54.818  0.00  0.00    +0.000 C 
ATOM     18  O   UNL     1      62.061  62.744  53.960  0.00  0.00    +0.000 OA
ATOM     19  C   UNL     1      61.955  62.617  53.152  0.00  0.00    +0.000 A 
ATOM     20  O   UNL     1      61.897  61.883  52.780  0.00  0.00    +0.000 OA
ATOM     21  O   UNL     1      61.918  63.353  52.781  0.00  0.00    +0.000 OA
ATOM     22  C   UNL     1      62.167  67.416  54.249  0.00  0.00    +0.000 A 
ATOM     23  N   UNL     1      62.085  67.866  53.563  0.00  0.00    +0.000 N 
ATOM     24  C   UNL     1      61.983  67.572  52.799  0.00  0.00    +0.000 C 
ATOM     25  C   UNL     1      61.908  68.093  52.163  0.00  0.00    +0.000 A 
ATOM     26  C   UNL     1      61.805  67.799  51.399  0.00  0.00    +0.000 A 
ATOM     27  C   UNL     1      61.731  68.319  50.763  0.00  0.00    +0.000 A 
ATOM     28  C   UNL     1      61.759  69.133  50.891  0.00  0.00    +0.000 A 
ATOM     29  C   UNL     1      61.862  69.427  51.655  0.00  0.00    +0.000 A 
ATOM     30  C   UNL     1      61.937  68.907  52.292  0.00  0.00    +0.000 A 
ATOM     31  C   UNL     1      61.685  69.654  50.256  0.00  0.00    +0.000 A 
ATOM     32  C   UNL     1      61.582  69.360  49.491  0.00  0.00    +0.000 A 
ATOM     33  C   UNL     1      61.508  69.881  48.856  0.00  0.00    +0.000 A 
ATOM     34  C   UNL     1      61.536  70.695  48.984  0.00  0.00    +0.000 A 
ATOM     35  C   UNL     1      61.639  70.990  49.749  0.00  0.00    +0.000 A 
ATOM     36  C   UNL     1      61.714  70.469  50.384  0.00  0.00    +0.000 A 
ATOM     37  C   UNL     1      61.554  68.546  49.363  0.00  0.00    +0.000 A 
ATOM     38  N   UNL     1      61.620  67.961  49.942  0.00  0.00    +0.000 NA
ATOM     39  O   UNL     1      61.561  67.227  49.570  0.00  0.00    +0.000 OA
ATOM     40  C   UNL     1      61.459  67.358  48.762  0.00  0.00    +0.000 A 
ATOM     41  O   UNL     1      61.375  66.776  48.183  0.00  0.00    +0.000 OA
ATOM     42  N   UNL     1      61.454  68.173  48.634  0.00  0.00    +0.000 NA
ENDROOT
TORSDOF 0
ENDMDL
MODEL 3
REMARK VINA RESULT:   -13.075     14.424     17.084
REMARK INTER + INTRA:         -13.075
REMARK INTER:                 -13.075
REMARK INTRA:                   0.000
REMARK UNBOUND:                 0.000
ROOT
REMARK  Name = azilsartan medoxomil
REMARK                            x       y       z     vdW  Elec       q    Type
REMARK                         _______ _______ _______ _____ _____    ______ ____
ATOM      1  C   UNL     1      59.994  67.461  50.435  0.00  0.00    +0.000 C 
ATOM      2  C   UNL     1      60.257  67.767  51.154  0.00  0.00    +0.000 C 
ATOM      3  O   UNL     1      60.726  67.304  51.652  0.00  0.00    +0.000 OA
ATOM      4  C   UNL     1      60.930  66.536  51.430  0.00  0.00    +0.000 A 
ATOM      5  N   UNL     1      60.708  66.158  50.730  0.00  0.00    +0.000 NA
ATOM      6  C   UNL     1      61.033  65.401  50.736  0.00  0.00    +0.000 A 
ATOM      7  C   UNL     1      60.999  64.781  50.193  0.00  0.00    +0.000 A 
ATOM      8  C   UNL     1      61.387  64.071  50.351  0.00  0.00    +0.000 A 
ATOM      9  C   UNL     1      61.810  63.980  51.054  0.00  0.00    +0.000 A 
ATOM     10  C   UNL     1      61.844  64.599  51.598  0.00  0.00    +0.000 A 
ATOM     11  C   UNL     1      62.267  64.508  52.301  0.00  0.00    +0.000 C 
ATOM     12  O   UNL     1      62.301  65.128  52.844  0.00  0.00    +0.000 OA
ATOM     13  O   UNL     1      62.655  63.798  52.459  0.00  0.00    +0.000 OA
ATOM     14  C   UNL     1      63.078  63.707  53.162  0.00  0.00    +0.000 C 
ATOM     15  C   UNL     1      63.466  62.996  53.321  0.00  0.00    +0.000 A 
ATOM     16  C   UNL     1      63.481  62.333  52.832  0.00  0.00    +0.000 A 
ATOM     17  C   UNL     1      63.110  62.261  52.099  0.00  0.00    +0.000 C 
ATOM     18  O   UNL     1      63.932  61.751  53.206  0.00  0.00    +0.000 OA
ATOM     19  C   UNL     1      64.196  62.056  53.926  0.00  0.00    +0.000 A 
ATOM     20  O   UNL     1      64.665  61.661  54.478  0.00  0.00    +0.000 OA
ATOM     21  O   UNL     1      63.908  62.826  53.996  0.00  0.00    +0.000 OA
ATOM     22  C   UNL     1      61.456  65.310  51.439  0.00  0.00    +0.000 A 
ATOM     23  N   UNL     1      61.392  66.011  51.867  0.00  0.00    +0.000 N 
ATOM     24  C   UNL     1      61.731  66.162  52.604  0.00  0.00    +0.000 C 
ATOM     25  C   UNL     1      61.619  66.894  52.967  0.00  0.00    +0.000 A 
ATOM     26  C   UNL     1      61.958  67.045  53.705  0.00  0.00    +0.000 A 
ATOM     27  C   UNL     1      61.846  67.777  54.069  0.00  0.00    +0.000 A 
ATOM     28  C   UNL     1      61.395  68.359  53.695  0.00  0.00    +0.000 A 
ATOM     29  C   UNL     1      61.056  68.208  52.958  0.00  0.00    +0.000 A 
ATOM     30  C   UNL     1      61.168  67.476  52.594  0.00  0.00    +0.000 A 
ATOM     31  C   UNL     1      61.283  69.091  54.058  0.00  0.00    +0.000 A 
ATOM     32  C   UNL     1      61.622  69.242  54.795  0.00  0.00    +0.000 A 
ATOM     33  C   UNL     1      61.510  69.974  55.158  0.00  0.00    +0.000 A 
ATOM     34  C   UNL     1      61.059  70.555  54.785  0.00  0.00    +0.000 A 
ATOM     35  C   UNL     1      60.720  70.404  54.048  0.00  0.00    +0.000 A 
ATOM     36  C   UNL     1      60.832  69.672  53.685  0.00  0.00    +0.000 A 
ATOM     37  C   UNL     1      62.073  68.660  55.169  0.00  0.00    +0.000 A 
ATOM     38  N   UNL     1      62.232  67.906  54.874  0.00  0.00    +0.000 NA
ATOM     39  O   UNL     1      62.701  67.511  55.426  0.00  0.00    +0.000 OA
ATOM     40  C   UNL     1      62.832  68.021  56.061  0.00  0.00    +0.000 A 
ATOM     41  O   UNL     1      63.274  67.850  56.737  0.00  0.00    +0.000 OA
ATOM     42  N   UNL     1      62.444  68.732  55.902  0.00  0.00    +0.000 NA
ENDROOT
TORSDOF 0
ENDMDL
MODEL 4
REMARK VINA RESULT:   -13.069      1.418      5.407
REMARK INTER + INTRA:         -13.069
REMARK INTER:                 -13.069
REMARK INTRA:                   0.000
REMARK UNBOUND:                 0.000
ROOT
REMARK  Name = azilsartan medoxomil
REMARK                            x       y       z     vdW  Elec       q    Type
REMARK                         _______ _______ _______ _____ _____    ______ ____
ATOM      1  C   UNL     1      59.324  63.460  71.700  0.00  0.00    +0.000 C 
ATOM      2  C   UNL     1      59.518  63.260  70.924  0.00  0.00    +0.000 C 
ATOM      3  O   UNL     1      60.204  63.563  70.579  0.00  0.00    +0.000 OA
ATOM      4  C   UNL     1      60.696  64.065  71.012  0.00  0.00    +0.000 A 
ATOM      5  N   UNL     1      60.573  64.312  71.790  0.00  0.00    +0.000 NA
ATOM      6  C   UNL     1      61.197  64.808  72.001  0.00  0.00    +0.000 A 
ATOM      7  C   UNL     1      61.369  65.214  72.698  0.00  0.00    +0.000 A 
ATOM      8  C   UNL     1      62.048  65.678  72.750  0.00  0.00    +0.000 A 
ATOM      9  C   UNL     1      62.556  65.738  72.103  0.00  0.00    +0.000 A 
ATOM     10  C   UNL     1      62.386  65.333  71.405  0.00  0.00    +0.000 A 
ATOM     11  C   UNL     1      62.894  65.392  70.758  0.00  0.00    +0.000 C 
ATOM     12  O   UNL     1      62.722  64.987  70.060  0.00  0.00    +0.000 OA
ATOM     13  O   UNL     1      63.573  65.857  70.809  0.00  0.00    +0.000 OA
ATOM     14  C   UNL     1      64.082  65.916  70.162  0.00  0.00    +0.000 C 
ATOM     15  C   UNL     1      64.762  66.381  70.213  0.00  0.00    +0.000 A 
ATOM     16  C   UNL     1      65.003  66.815  70.871  0.00  0.00    +0.000 A 
ATOM     17  C   UNL     1      64.608  66.862  71.594  0.00  0.00    +0.000 C 
ATOM     18  O   UNL     1      65.711  67.196  70.679  0.00  0.00    +0.000 OA
ATOM     19  C   UNL     1      65.905  66.996  69.903  0.00  0.00    +0.000 A 
ATOM     20  O   UNL     1      66.570  67.255  69.487  0.00  0.00    +0.000 OA
ATOM     21  O   UNL     1      65.319  66.493  69.615  0.00  0.00    +0.000 OA
ATOM     22  C   UNL     1      61.705  64.868  71.354  0.00  0.00    +0.000 A 
ATOM     23  N   UNL     1      61.396  64.409  70.743  0.00  0.00    +0.000 N 
ATOM     24  C   UNL     1      61.728  64.310  69.994  0.00  0.00    +0.000 C 
ATOM     25  C   UNL     1      61.352  63.831  69.437  0.00  0.00    +0.000 A 
ATOM     26  C   UNL     1      61.684  63.732  68.687  0.00  0.00    +0.000 A 
ATOM     27  C   UNL     1      61.310  63.253  68.130  0.00  0.00    +0.000 A 
ATOM     28  C   UNL     1      60.603  62.873  68.321  0.00  0.00    +0.000 A 
ATOM     29  C   UNL     1      60.271  62.972  69.070  0.00  0.00    +0.000 A 
ATOM     30  C   UNL     1      60.646  63.451  69.628  0.00  0.00    +0.000 A 
ATOM     31  C   UNL     1      60.228  62.394  67.764  0.00  0.00    +0.000 A 
ATOM     32  C   UNL     1      60.560  62.295  67.015  0.00  0.00    +0.000 A 
ATOM     33  C   UNL     1      60.185  61.816  66.458  0.00  0.00    +0.000 A 
ATOM     34  C   UNL     1      59.478  61.436  66.649  0.00  0.00    +0.000 A 
ATOM     35  C   UNL     1      59.146  61.535  67.398  0.00  0.00    +0.000 A 
ATOM     36  C   UNL     1      59.521  62.014  67.955  0.00  0.00    +0.000 A 
ATOM     37  C   UNL     1      61.266  62.676  66.823  0.00  0.00    +0.000 A 
ATOM     38  N   UNL     1      61.702  63.169  67.321  0.00  0.00    +0.000 NA
ATOM     39  O   UNL     1      62.366  63.428  66.906  0.00  0.00    +0.000 OA
ATOM     40  C   UNL     1      62.341  63.094  66.152  0.00  0.00    +0.000 A 
ATOM     41  O   UNL     1      62.898  63.206  65.553  0.00  0.00    +0.000 OA
ATOM     42  N   UNL     1      61.661  62.629  66.100  0.00  0.00    +0.000 NA
ENDROOT
TORSDOF 0
ENDMDL
MODEL 5
REMARK VINA RESULT:   -12.921     14.511     17.446
REMARK INTER + INTRA:         -12.921
REMARK INTER:                 -12.921
REMARK INTRA:                   0.000
REMARK UNBOUND:                 0.000
ROOT
REMARK  Name = azilsartan medoxomil
REMARK                            x       y       z     vdW  Elec       q    Type
REMARK                         _______ _______ _______ _____ _____    ______ ____
ATOM      1  C   UNL     1      62.948  67.716  56.255  0.00  0.00    +0.000 C 
ATOM      2  C   UNL     1      62.750  67.089  55.757  0.00  0.00    +0.000 C 
ATOM      3  O   UNL     1      62.272  67.223  55.097  0.00  0.00    +0.000 OA
ATOM      4  C   UNL     1      61.994  67.982  54.936  0.00  0.00    +0.000 A 
ATOM      5  N   UNL     1      62.145  68.659  55.383  0.00  0.00    +0.000 NA
ATOM      6  C   UNL     1      61.760  69.293  55.024  0.00  0.00    +0.000 A 
ATOM      7  C   UNL     1      61.713  70.094  55.219  0.00  0.00    +0.000 A 
ATOM      8  C   UNL     1      61.277  70.609  54.746  0.00  0.00    +0.000 A 
ATOM      9  C   UNL     1      60.887  70.324  54.077  0.00  0.00    +0.000 A 
ATOM     10  C   UNL     1      60.933  69.525  53.881  0.00  0.00    +0.000 A 
ATOM     11  C   UNL     1      60.543  69.240  53.212  0.00  0.00    +0.000 C 
ATOM     12  O   UNL     1      60.590  68.440  53.017  0.00  0.00    +0.000 OA
ATOM     13  O   UNL     1      60.107  69.755  52.739  0.00  0.00    +0.000 OA
ATOM     14  C   UNL     1      59.717  69.471  52.070  0.00  0.00    +0.000 C 
ATOM     15  C   UNL     1      59.280  69.987  51.596  0.00  0.00    +0.000 A 
ATOM     16  C   UNL     1      59.184  70.796  51.722  0.00  0.00    +0.000 A 
ATOM     17  C   UNL     1      59.507  71.233  52.343  0.00  0.00    +0.000 C 
ATOM     18  O   UNL     1      58.707  71.092  51.116  0.00  0.00    +0.000 OA
ATOM     19  C   UNL     1      58.509  70.467  50.618  0.00  0.00    +0.000 A 
ATOM     20  O   UNL     1      58.040  70.515  49.941  0.00  0.00    +0.000 OA
ATOM     21  O   UNL     1      58.863  69.783  50.914  0.00  0.00    +0.000 OA
ATOM     22  C   UNL     1      61.370  69.009  54.355  0.00  0.00    +0.000 A 
ATOM     23  N   UNL     1      61.514  68.199  54.301  0.00  0.00    +0.000 N 
ATOM     24  C   UNL     1      61.229  67.693  53.714  0.00  0.00    +0.000 C 
ATOM     25  C   UNL     1      61.421  66.891  53.732  0.00  0.00    +0.000 A 
ATOM     26  C   UNL     1      61.137  66.386  53.145  0.00  0.00    +0.000 A 
ATOM     27  C   UNL     1      61.328  65.583  53.163  0.00  0.00    +0.000 A 
ATOM     28  C   UNL     1      61.804  65.286  53.767  0.00  0.00    +0.000 A 
ATOM     29  C   UNL     1      62.089  65.792  54.354  0.00  0.00    +0.000 A 
ATOM     30  C   UNL     1      61.898  66.594  54.337  0.00  0.00    +0.000 A 
ATOM     31  C   UNL     1      61.996  64.484  53.786  0.00  0.00    +0.000 A 
ATOM     32  C   UNL     1      61.712  63.979  53.199  0.00  0.00    +0.000 A 
ATOM     33  C   UNL     1      61.904  63.177  53.217  0.00  0.00    +0.000 A 
ATOM     34  C   UNL     1      62.380  62.880  53.822  0.00  0.00    +0.000 A 
ATOM     35  C   UNL     1      62.665  63.385  54.409  0.00  0.00    +0.000 A 
ATOM     36  C   UNL     1      62.473  64.187  54.390  0.00  0.00    +0.000 A 
ATOM     37  C   UNL     1      61.235  64.276  52.594  0.00  0.00    +0.000 A 
ATOM     38  N   UNL     1      60.998  65.061  52.504  0.00  0.00    +0.000 NA
ATOM     39  O   UNL     1      60.529  65.110  51.828  0.00  0.00    +0.000 OA
ATOM     40  C   UNL     1      60.476  64.355  51.500  0.00  0.00    +0.000 A 
ATOM     41  O   UNL     1      60.058  64.151  50.817  0.00  0.00    +0.000 OA
ATOM     42  N   UNL     1      60.912  63.839  51.973  0.00  0.00    +0.000 NA
ENDROOT
TORSDOF 0
ENDMDL
MODEL 6
REMARK VINA RESULT:   -12.641     16.051     18.474
REMARK INTER + INTRA:         -12.641
REMARK INTER:                 -12.641
REMARK INTRA:                   0.000
REMARK UNBOUND:                 0.000
ROOT
REMARK  Name = azilsartan medoxomil
REMARK                            x       y       z     vdW  Elec       q    Type
REMARK                         _______ _______ _______ _____ _____    ______ ____
ATOM      1  C   UNL     1      63.574  58.884  53.205  0.00  0.00    +0.000 C 
ATOM      2  C   UNL     1      62.865  58.941  52.787  0.00  0.00    +0.000 C 
ATOM      3  O   UNL     1      62.489  59.672  52.711  0.00  0.00    +0.000 OA
ATOM      4  C   UNL     1      62.822  60.345  53.053  0.00  0.00    +0.000 A 
ATOM      5  N   UNL     1      63.525  60.372  53.485  0.00  0.00    +0.000 NA
ATOM      6  C   UNL     1      63.648  61.152  53.722  0.00  0.00    +0.000 A 
ATOM      7  C   UNL     1      64.250  61.508  54.160  0.00  0.00    +0.000 A 
ATOM      8  C   UNL     1      64.225  62.318  54.314  0.00  0.00    +0.000 A 
ATOM      9  C   UNL     1      63.599  62.773  54.029  0.00  0.00    +0.000 A 
ATOM     10  C   UNL     1      62.997  62.418  53.590  0.00  0.00    +0.000 A 
ATOM     11  C   UNL     1      62.371  62.873  53.305  0.00  0.00    +0.000 C 
ATOM     12  O   UNL     1      61.769  62.517  52.866  0.00  0.00    +0.000 OA
ATOM     13  O   UNL     1      62.346  63.683  53.458  0.00  0.00    +0.000 OA
ATOM     14  C   UNL     1      61.720  64.138  53.173  0.00  0.00    +0.000 C 
ATOM     15  C   UNL     1      61.695  64.949  53.327  0.00  0.00    +0.000 A 
ATOM     16  C   UNL     1      62.254  65.378  53.755  0.00  0.00    +0.000 A 
ATOM     17  C   UNL     1      62.936  65.073  54.105  0.00  0.00    +0.000 C 
ATOM     18  O   UNL     1      62.011  66.166  53.772  0.00  0.00    +0.000 OA
ATOM     19  C   UNL     1      61.302  66.224  53.354  0.00  0.00    +0.000 A 
ATOM     20  O   UNL     1      60.865  66.913  53.232  0.00  0.00    +0.000 OA
ATOM     21  O   UNL     1      61.107  65.471  53.079  0.00  0.00    +0.000 OA
ATOM     22  C   UNL     1      63.022  61.607  53.436  0.00  0.00    +0.000 A 
ATOM     23  N   UNL     1      62.512  61.109  53.023  0.00  0.00    +0.000 N 
ATOM     24  C   UNL     1      61.813  61.334  52.646  0.00  0.00    +0.000 C 
ATOM     25  C   UNL     1      61.357  60.770  52.253  0.00  0.00    +0.000 A 
ATOM     26  C   UNL     1      60.658  60.995  51.876  0.00  0.00    +0.000 A 
ATOM     27  C   UNL     1      60.202  60.431  51.482  0.00  0.00    +0.000 A 
ATOM     28  C   UNL     1      60.444  59.643  51.465  0.00  0.00    +0.000 A 
ATOM     29  C   UNL     1      61.143  59.418  51.842  0.00  0.00    +0.000 A 
ATOM     30  C   UNL     1      61.600  59.981  52.236  0.00  0.00    +0.000 A 
ATOM     31  C   UNL     1      59.989  59.079  51.071  0.00  0.00    +0.000 A 
ATOM     32  C   UNL     1      59.290  59.304  50.694  0.00  0.00    +0.000 A 
ATOM     33  C   UNL     1      58.834  58.740  50.301  0.00  0.00    +0.000 A 
ATOM     34  C   UNL     1      59.077  57.952  50.284  0.00  0.00    +0.000 A 
ATOM     35  C   UNL     1      59.776  57.727  50.661  0.00  0.00    +0.000 A 
ATOM     36  C   UNL     1      60.231  58.291  51.055  0.00  0.00    +0.000 A 
ATOM     37  C   UNL     1      59.047  60.092  50.711  0.00  0.00    +0.000 A 
ATOM     38  N   UNL     1      59.444  60.714  51.081  0.00  0.00    +0.000 NA
ATOM     39  O   UNL     1      59.008  61.403  50.960  0.00  0.00    +0.000 OA
ATOM     40  C   UNL     1      58.341  61.207  50.515  0.00  0.00    +0.000 A 
ATOM     41  O   UNL     1      57.752  61.730  50.267  0.00  0.00    +0.000 OA
ATOM     42  N   UNL     1      58.365  60.397  50.361  0.00  0.00    +0.000 NA
ENDROOT
TORSDOF 0
ENDMDL
MODEL 7
REMARK VINA RESULT:   -12.592     14.134     18.113
REMARK INTER + INTRA:         -12.592
REMARK INTER:                 -12.592
REMARK INTRA:                   0.000
REMARK UNBOUND:                 0.000
ROOT
REMARK  Name = azilsartan medoxomil
REMARK                            x       y       z     vdW  Elec       q    Type
REMARK                         _______ _______ _______ _____ _____    ______ ____
ATOM      1  C   UNL     1      61.257  67.238  49.463  0.00  0.00    +0.000 C 
ATOM      2  C   UNL     1      61.422  66.515  49.823  0.00  0.00    +0.000 C 
ATOM      3  O   UNL     1      61.604  66.487  50.628  0.00  0.00    +0.000 OA
ATOM      4  C   UNL     1      61.620  67.183  51.071  0.00  0.00    +0.000 A 
ATOM      5  N   UNL     1      61.467  67.943  50.788  0.00  0.00    +0.000 NA
ATOM      6  C   UNL     1      61.545  68.470  51.417  0.00  0.00    +0.000 A 
ATOM      7  C   UNL     1      61.459  69.289  51.465  0.00  0.00    +0.000 A 
ATOM      8  C   UNL     1      61.573  69.674  52.185  0.00  0.00    +0.000 A 
ATOM      9  C   UNL     1      61.773  69.241  52.858  0.00  0.00    +0.000 A 
ATOM     10  C   UNL     1      61.860  68.422  52.811  0.00  0.00    +0.000 A 
ATOM     11  C   UNL     1      62.060  67.988  53.483  0.00  0.00    +0.000 C 
ATOM     12  O   UNL     1      62.146  67.169  53.435  0.00  0.00    +0.000 OA
ATOM     13  O   UNL     1      62.174  68.373  54.203  0.00  0.00    +0.000 OA
ATOM     14  C   UNL     1      62.375  67.940  54.876  0.00  0.00    +0.000 C 
ATOM     15  C   UNL     1      62.489  68.326  55.597  0.00  0.00    +0.000 A 
ATOM     16  C   UNL     1      62.422  69.137  55.727  0.00  0.00    +0.000 A 
ATOM     17  C   UNL     1      62.230  69.706  55.162  0.00  0.00    +0.000 C 
ATOM     18  O   UNL     1      62.582  69.280  56.525  0.00  0.00    +0.000 OA
ATOM     19  C   UNL     1      62.748  68.557  56.885  0.00  0.00    +0.000 A 
ATOM     20  O   UNL     1      62.938  68.443  57.680  0.00  0.00    +0.000 OA
ATOM     21  O   UNL     1      62.690  67.967  56.311  0.00  0.00    +0.000 OA
ATOM     22  C   UNL     1      61.745  68.036  52.090  0.00  0.00    +0.000 A 
ATOM     23  N   UNL     1      61.792  67.241  51.876  0.00  0.00    +0.000 N 
ATOM     24  C   UNL     1      61.978  66.614  52.379  0.00  0.00    +0.000 C 
ATOM     25  C   UNL     1      62.003  65.843  52.085  0.00  0.00    +0.000 A 
ATOM     26  C   UNL     1      62.189  65.216  52.587  0.00  0.00    +0.000 A 
ATOM     27  C   UNL     1      62.215  64.445  52.294  0.00  0.00    +0.000 A 
ATOM     28  C   UNL     1      62.055  64.302  51.497  0.00  0.00    +0.000 A 
ATOM     29  C   UNL     1      61.870  64.930  50.994  0.00  0.00    +0.000 A 
ATOM     30  C   UNL     1      61.844  65.700  51.288  0.00  0.00    +0.000 A 
ATOM     31  C   UNL     1      62.081  63.532  51.203  0.00  0.00    +0.000 A 
ATOM     32  C   UNL     1      62.267  62.904  51.706  0.00  0.00    +0.000 A 
ATOM     33  C   UNL     1      62.293  62.134  51.412  0.00  0.00    +0.000 A 
ATOM     34  C   UNL     1      62.133  61.991  50.615  0.00  0.00    +0.000 A 
ATOM     35  C   UNL     1      61.947  62.618  50.112  0.00  0.00    +0.000 A 
ATOM     36  C   UNL     1      61.921  63.389  50.406  0.00  0.00    +0.000 A 
ATOM     37  C   UNL     1      62.427  63.047  52.502  0.00  0.00    +0.000 A 
ATOM     38  N   UNL     1      62.422  63.785  52.874  0.00  0.00    +0.000 NA
ATOM     39  O   UNL     1      62.611  63.671  53.668  0.00  0.00    +0.000 OA
ATOM     40  C   UNL     1      62.734  62.865  53.788  0.00  0.00    +0.000 A 
ATOM     41  O   UNL     1      62.935  62.506  54.504  0.00  0.00    +0.000 OA
ATOM     42  N   UNL     1      62.619  62.478  53.068  0.00  0.00    +0.000 NA
ENDROOT
TORSDOF 0
ENDMDL
MODEL 8
REMARK VINA RESULT:   -12.469     14.330     17.687
REMARK INTER + INTRA:         -12.469
REMARK INTER:                 -12.469
REMARK INTRA:                   0.000
REMARK UNBOUND:                 0.000
ROOT
REMARK  Name = azilsartan medoxomil
REMARK                            x       y       z     vdW  Elec       q    Type
REMARK                         _______ _______ _______ _____ _____    ______ ____
ATOM      1  C   UNL     1      59.650  68.775  50.908  0.00  0.00    +0.000 C 
ATOM      2  C   UNL     1      60.116  68.587  51.562  0.00  0.00    +0.000 C 
ATOM      3  O   UNL     1      60.131  69.090  52.216  0.00  0.00    +0.000 OA
ATOM      4  C   UNL     1      59.680  69.781  52.216  0.00  0.00    +0.000 A 
ATOM      5  N   UNL     1      59.190  70.040  51.605  0.00  0.00    +0.000 NA
ATOM      6  C   UNL     1      58.847  70.752  51.838  0.00  0.00    +0.000 A 
ATOM      7  C   UNL     1      58.317  71.260  51.461  0.00  0.00    +0.000 A 
ATOM      8  C   UNL     1      58.065  71.948  51.838  0.00  0.00    +0.000 A 
ATOM      9  C   UNL     1      58.343  72.130  52.594  0.00  0.00    +0.000 A 
ATOM     10  C   UNL     1      58.873  71.623  52.972  0.00  0.00    +0.000 A 
ATOM     11  C   UNL     1      59.151  71.805  53.727  0.00  0.00    +0.000 C 
ATOM     12  O   UNL     1      59.681  71.297  54.104  0.00  0.00    +0.000 OA
ATOM     13  O   UNL     1      58.899  72.493  54.104  0.00  0.00    +0.000 OA
ATOM     14  C   UNL     1      59.177  72.675  54.859  0.00  0.00    +0.000 C 
ATOM     15  C   UNL     1      58.926  73.364  55.237  0.00  0.00    +0.000 A 
ATOM     16  C   UNL     1      58.400  73.921  54.930  0.00  0.00    +0.000 A 
ATOM     17  C   UNL     1      58.034  73.887  54.191  0.00  0.00    +0.000 C 
ATOM     18  O   UNL     1      58.305  74.518  55.492  0.00  0.00    +0.000 OA
ATOM     19  C   UNL     1      58.771  74.330  56.146  0.00  0.00    +0.000 A 
ATOM     20  O   UNL     1      58.842  74.776  56.836  0.00  0.00    +0.000 OA
ATOM     21  O   UNL     1      59.155  73.617  55.988  0.00  0.00    +0.000 OA
ATOM     22  C   UNL     1      59.125  70.934  52.594  0.00  0.00    +0.000 A 
ATOM     23  N   UNL     1      59.640  70.333  52.827  0.00  0.00    +0.000 N 
ATOM     24  C   UNL     1      60.044  70.293  53.546  0.00  0.00    +0.000 C 
ATOM     25  C   UNL     1      60.543  69.655  53.702  0.00  0.00    +0.000 A 
ATOM     26  C   UNL     1      60.947  69.614  54.421  0.00  0.00    +0.000 A 
ATOM     27  C   UNL     1      61.446  68.976  54.578  0.00  0.00    +0.000 A 
ATOM     28  C   UNL     1      61.541  68.379  54.017  0.00  0.00    +0.000 A 
ATOM     29  C   UNL     1      61.137  68.420  53.298  0.00  0.00    +0.000 A 
ATOM     30  C   UNL     1      60.638  69.058  53.141  0.00  0.00    +0.000 A 
ATOM     31  C   UNL     1      62.040  67.741  54.173  0.00  0.00    +0.000 A 
ATOM     32  C   UNL     1      62.444  67.701  54.892  0.00  0.00    +0.000 A 
ATOM     33  C   UNL     1      62.943  67.063  55.048  0.00  0.00    +0.000 A 
ATOM     34  C   UNL     1      63.039  66.466  54.487  0.00  0.00    +0.000 A 
ATOM     35  C   UNL     1      62.635  66.506  53.769  0.00  0.00    +0.000 A 
ATOM     36  C   UNL     1      62.136  67.144  53.612  0.00  0.00    +0.000 A 
ATOM     37  C   UNL     1      62.349  68.298  55.453  0.00  0.00    +0.000 A 
ATOM     38  N   UNL     1      61.871  68.966  55.374  0.00  0.00    +0.000 NA
ATOM     39  O   UNL     1      61.942  69.412  56.064  0.00  0.00    +0.000 OA
ATOM     40  C   UNL     1      62.463  69.020  56.569  0.00  0.00    +0.000 A 
ATOM     41  O   UNL     1      62.692  69.273  57.321  0.00  0.00    +0.000 OA
ATOM     42  N   UNL     1      62.715  68.331  56.192  0.00  0.00    +0.000 NA
ENDROOT
TORSDOF 0
ENDMDL
MODEL 9
REMARK VINA RESULT:   -12.075     14.641     18.016
REMARK INTER + INTRA:         -12.075
REMARK INTER:                 -12.075
REMARK INTRA:                   0.000
REMARK UNBOUND:                 0.000
ROOT
REMARK  Name = azilsartan medoxomil
REMARK                            x       y       z     vdW  Elec       q    Type
REMARK                         _______ _______ _______ _____ _____    ______ ____
ATOM      1  C   UNL     1      62.099  66.712  55.962  0.00  0.00    +0.000 C 
ATOM      2  C   UNL     1      62.163  66.096  55.417  0.00  0.00    +0.000 C 
ATOM      3  O   UNL     1      62.088  66.251  54.610  0.00  0.00    +0.000 OA
ATOM      4  C   UNL     1      61.950  67.022  54.349  0.00  0.00    +0.000 A 
ATOM      5  N   UNL     1      61.875  67.690  54.827  0.00  0.00    +0.000 NA
ATOM      6  C   UNL     1      61.742  68.340  54.338  0.00  0.00    +0.000 A 
ATOM      7  C   UNL     1      61.626  69.140  54.501  0.00  0.00    +0.000 A 
ATOM      8  C   UNL     1      61.503  69.674  53.885  0.00  0.00    +0.000 A 
ATOM      9  C   UNL     1      61.497  69.408  53.104  0.00  0.00    +0.000 A 
ATOM     10  C   UNL     1      61.613  68.608  52.939  0.00  0.00    +0.000 A 
ATOM     11  C   UNL     1      61.607  68.342  52.158  0.00  0.00    +0.000 C 
ATOM     12  O   UNL     1      61.723  67.542  51.995  0.00  0.00    +0.000 OA
ATOM     13  O   UNL     1      61.485  68.876  51.542  0.00  0.00    +0.000 OA
ATOM     14  C   UNL     1      61.478  68.610  50.761  0.00  0.00    +0.000 C 
ATOM     15  C   UNL     1      61.356  69.145  50.144  0.00  0.00    +0.000 A 
ATOM     16  C   UNL     1      61.233  69.956  50.224  0.00  0.00    +0.000 A 
ATOM     17  C   UNL     1      61.210  70.377  50.933  0.00  0.00    +0.000 C 
ATOM     18  O   UNL     1      61.136  70.274  49.468  0.00  0.00    +0.000 OA
ATOM     19  C   UNL     1      61.199  69.659  48.922  0.00  0.00    +0.000 A 
ATOM     20  O   UNL     1      61.137  69.729  48.102  0.00  0.00    +0.000 OA
ATOM     21  O   UNL     1      61.335  68.961  49.341  0.00  0.00    +0.000 OA
ATOM     22  C   UNL     1      61.736  68.074  53.557  0.00  0.00    +0.000 A 
ATOM     23  N   UNL     1      61.864  67.260  53.564  0.00  0.00    +0.000 N 
ATOM     24  C   UNL     1      61.901  66.768  52.901  0.00  0.00    +0.000 C 
ATOM     25  C   UNL     1      62.034  65.960  52.995  0.00  0.00    +0.000 A 
ATOM     26  C   UNL     1      62.071  65.469  52.333  0.00  0.00    +0.000 A 
ATOM     27  C   UNL     1      62.204  64.660  52.425  0.00  0.00    +0.000 A 
ATOM     28  C   UNL     1      62.301  64.342  53.180  0.00  0.00    +0.000 A 
ATOM     29  C   UNL     1      62.265  64.833  53.843  0.00  0.00    +0.000 A 
ATOM     30  C   UNL     1      62.131  65.642  53.750  0.00  0.00    +0.000 A 
ATOM     31  C   UNL     1      62.434  63.533  53.274  0.00  0.00    +0.000 A 
ATOM     32  C   UNL     1      62.471  63.042  52.612  0.00  0.00    +0.000 A 
ATOM     33  C   UNL     1      62.604  62.233  52.705  0.00  0.00    +0.000 A 
ATOM     34  C   UNL     1      62.701  61.916  53.460  0.00  0.00    +0.000 A 
ATOM     35  C   UNL     1      62.665  62.407  54.123  0.00  0.00    +0.000 A 
ATOM     36  C   UNL     1      62.531  63.215  54.029  0.00  0.00    +0.000 A 
ATOM     37  C   UNL     1      62.374  63.360  51.857  0.00  0.00    +0.000 A 
ATOM     38  N   UNL     1      62.238  64.154  51.678  0.00  0.00    +0.000 NA
ATOM     39  O   UNL     1      62.176  64.224  50.859  0.00  0.00    +0.000 OA
ATOM     40  C   UNL     1      62.274  63.474  50.531  0.00  0.00    +0.000 A 
ATOM     41  O   UNL     1      62.254  63.290  49.726  0.00  0.00    +0.000 OA
ATOM     42  N   UNL     1      62.397  62.939  51.147  0.00  0.00    +0.000 NA
ENDROOT
TORSDOF 0
ENDMDL
