MODEL 1
REMARK VINA RESULT:   -13.786      0.000      0.000
REMARK INTER + INTRA:         -13.786
REMARK INTER:                 -13.786
REMARK INTRA:                   0.000
REMARK UNBOUND:                 0.000
ROOT
REMARK  Name = bacampicillin
REMARK                            x       y       z     vdW  Elec       q    Type
REMARK                         _______ _______ _______ _____ _____    ______ ____
ATOM      1  C   UNL     1      58.341  67.627  73.222  0.00  0.00    +0.000 C 
ATOM      2  C   UNL     1      58.529  66.847  73.028  0.00  0.00    +0.000 C 
ATOM      3  O   UNL     1      58.821  66.668  72.277  0.00  0.00    +0.000 OA
ATOM      4  C   UNL     1      59.010  65.889  72.084  0.00  0.00    +0.000 C 
ATOM      5  O   UNL     1      58.907  65.289  72.641  0.00  0.00    +0.000 OA
ATOM      6  O   UNL     1      59.301  65.709  71.332  0.00  0.00    +0.000 OA
ATOM      7  C   UNL     1      59.490  64.930  71.139  0.00  0.00    +0.000 C 
ATOM      8  C   UNL     1      59.388  64.330  71.696  0.00  0.00    +0.000 C 
ATOM      9  O   UNL     1      59.781  64.751  70.387  0.00  0.00    +0.000 OA
ATOM     10  C   UNL     1      59.970  63.972  70.194  0.00  0.00    +0.000 C 
ATOM     11  O   UNL     1      59.868  63.372  70.751  0.00  0.00    +0.000 OA
ATOM     12  C   UNL     1      60.261  63.792  69.443  0.00  0.00    +0.000 C 
ATOM     13  N   UNL     1      60.473  63.043  69.172  0.00  0.00    +0.000 N 
ATOM     14  C   UNL     1      60.734  63.118  68.393  0.00  0.00    +0.000 C 
ATOM     15  S   UNL     1      60.684  63.914  68.183  0.00  0.00    +0.000 S 
ATOM     16  C   UNL     1      60.392  64.331  68.832  0.00  0.00    +0.000 C 
ATOM     17  C   UNL     1      60.400  65.076  68.478  0.00  0.00    +0.000 C 
ATOM     18  C   UNL     1      60.143  65.002  69.243  0.00  0.00    +0.000 C 
ATOM     19  C   UNL     1      60.872  62.306  68.360  0.00  0.00    +0.000 C 
ATOM     20  N   UNL     1      61.154  61.784  67.786  0.00  0.00    +0.000 NA
ATOM     21  C   UNL     1      61.371  62.067  67.042  0.00  0.00    +0.000 C 
ATOM     22  O   UNL     1      61.306  62.872  66.872  0.00  0.00    +0.000 OA
ATOM     23  C   UNL     1      61.653  61.546  66.469  0.00  0.00    +0.000 C 
ATOM     24  N   UNL     1      61.719  60.742  66.638  0.00  0.00    +0.000 NA
ATOM     25  C   UNL     1      61.870  61.830  65.724  0.00  0.00    +0.000 A 
ATOM     26  C   UNL     1      62.152  61.309  65.151  0.00  0.00    +0.000 A 
ATOM     27  C   UNL     1      62.369  61.592  64.407  0.00  0.00    +0.000 A 
ATOM     28  C   UNL     1      62.303  62.397  64.237  0.00  0.00    +0.000 A 
ATOM     29  C   UNL     1      62.021  62.917  64.811  0.00  0.00    +0.000 A 
ATOM     30  C   UNL     1      61.804  62.634  65.555  0.00  0.00    +0.000 A 
ATOM     31  C   UNL     1      60.610  62.230  69.139  0.00  0.00    +0.000 C 
ATOM     32  O   UNL     1      60.523  61.602  69.667  0.00  0.00    +0.000 OA
ENDROOT
TORSDOF 0
ENDMDL
MODEL 2
REMARK VINA RESULT:   -13.018      1.640      6.550
REMARK INTER + INTRA:         -13.018
REMARK INTER:                 -13.018
REMARK INTRA:                   0.000
REMARK UNBOUND:                 0.000
ROOT
REMARK  Name = bacampicillin
REMARK                            x       y       z     vdW  Elec       q    Type
REMARK                         _______ _______ _______ _____ _____    ______ ____
ATOM      1  C   UNL     1      60.801  60.444  62.846  0.00  0.00    +0.000 C 
ATOM      2  C   UNL     1      61.252  60.869  63.391  0.00  0.00    +0.000 C 
ATOM      3  O   UNL     1      60.915  61.113  64.104  0.00  0.00    +0.000 OA
ATOM      4  C   UNL     1      61.366  61.538  64.648  0.00  0.00    +0.000 C 
ATOM      5  O   UNL     1      62.154  61.718  64.481  0.00  0.00    +0.000 OA
ATOM      6  O   UNL     1      61.029  61.782  65.362  0.00  0.00    +0.000 OA
ATOM      7  C   UNL     1      61.480  62.206  65.906  0.00  0.00    +0.000 C 
ATOM      8  C   UNL     1      62.268  62.387  65.739  0.00  0.00    +0.000 C 
ATOM      9  O   UNL     1      61.143  62.450  66.619  0.00  0.00    +0.000 OA
ATOM     10  C   UNL     1      61.594  62.875  67.164  0.00  0.00    +0.000 C 
ATOM     11  O   UNL     1      62.382  63.056  66.996  0.00  0.00    +0.000 OA
ATOM     12  C   UNL     1      61.257  63.119  67.877  0.00  0.00    +0.000 C 
ATOM     13  N   UNL     1      61.638  63.545  68.472  0.00  0.00    +0.000 N 
ATOM     14  C   UNL     1      61.097  63.669  69.082  0.00  0.00    +0.000 C 
ATOM     15  S   UNL     1      60.383  63.320  68.864  0.00  0.00    +0.000 S 
ATOM     16  C   UNL     1      60.482  62.980  68.119  0.00  0.00    +0.000 C 
ATOM     17  C   UNL     1      59.714  62.685  68.047  0.00  0.00    +0.000 C 
ATOM     18  C   UNL     1      60.246  62.563  67.447  0.00  0.00    +0.000 C 
ATOM     19  C   UNL     1      61.673  64.077  69.509  0.00  0.00    +0.000 C 
ATOM     20  N   UNL     1      61.698  64.453  70.243  0.00  0.00    +0.000 NA
ATOM     21  C   UNL     1      61.026  64.467  70.723  0.00  0.00    +0.000 C 
ATOM     22  O   UNL     1      60.330  64.106  70.468  0.00  0.00    +0.000 OA
ATOM     23  C   UNL     1      61.051  64.844  71.457  0.00  0.00    +0.000 C 
ATOM     24  N   UNL     1      61.746  65.205  71.711  0.00  0.00    +0.000 NA
ATOM     25  C   UNL     1      60.378  64.857  71.935  0.00  0.00    +0.000 A 
ATOM     26  C   UNL     1      60.403  65.234  72.669  0.00  0.00    +0.000 A 
ATOM     27  C   UNL     1      59.732  65.248  73.148  0.00  0.00    +0.000 A 
ATOM     28  C   UNL     1      59.035  64.886  72.893  0.00  0.00    +0.000 A 
ATOM     29  C   UNL     1      59.011  64.510  72.159  0.00  0.00    +0.000 A 
ATOM     30  C   UNL     1      59.683  64.496  71.680  0.00  0.00    +0.000 A 
ATOM     31  C   UNL     1      62.214  63.953  68.899  0.00  0.00    +0.000 C 
ATOM     32  O   UNL     1      63.004  64.154  68.769  0.00  0.00    +0.000 OA
ENDROOT
TORSDOF 0
ENDMDL
MODEL 3
REMARK VINA RESULT:   -12.390      2.636      6.454
REMARK INTER + INTRA:         -12.390
REMARK INTER:                 -12.390
REMARK INTRA:                   0.000
REMARK UNBOUND:                 0.000
ROOT
REMARK  Name = bacampicillin
REMARK                            x       y       z     vdW  Elec       q    Type
REMARK                         _______ _______ _______ _____ _____    ______ ____
ATOM      1  C   UNL     1      60.935  60.992  64.633  0.00  0.00    +0.000 C 
ATOM      2  C   UNL     1      60.530  61.358  65.251  0.00  0.00    +0.000 C 
ATOM      3  O   UNL     1      60.930  61.871  65.759  0.00  0.00    +0.000 OA
ATOM      4  C   UNL     1      60.524  62.237  66.377  0.00  0.00    +0.000 C 
ATOM      5  O   UNL     1      59.720  62.091  66.487  0.00  0.00    +0.000 OA
ATOM      6  O   UNL     1      60.925  62.750  66.886  0.00  0.00    +0.000 OA
ATOM      7  C   UNL     1      60.519  63.116  67.504  0.00  0.00    +0.000 C 
ATOM      8  C   UNL     1      59.715  62.970  67.614  0.00  0.00    +0.000 C 
ATOM      9  O   UNL     1      60.919  63.629  68.013  0.00  0.00    +0.000 OA
ATOM     10  C   UNL     1      60.514  63.995  68.631  0.00  0.00    +0.000 C 
ATOM     11  O   UNL     1      59.709  63.849  68.741  0.00  0.00    +0.000 OA
ATOM     12  C   UNL     1      60.914  64.508  69.139  0.00  0.00    +0.000 C 
ATOM     13  N   UNL     1      60.583  64.912  69.778  0.00  0.00    +0.000 N 
ATOM     14  C   UNL     1      61.179  65.360  70.131  0.00  0.00    +0.000 C 
ATOM     15  S   UNL     1      61.877  65.232  69.711  0.00  0.00    +0.000 S 
ATOM     16  C   UNL     1      61.713  64.706  69.098  0.00  0.00    +0.000 C 
ATOM     17  C   UNL     1      62.477  64.682  68.786  0.00  0.00    +0.000 C 
ATOM     18  C   UNL     1      61.892  64.243  68.439  0.00  0.00    +0.000 C 
ATOM     19  C   UNL     1      60.638  65.639  70.688  0.00  0.00    +0.000 C 
ATOM     20  N   UNL     1      60.677  66.153  71.332  0.00  0.00    +0.000 NA
ATOM     21  C   UNL     1      61.393  66.514  71.530  0.00  0.00    +0.000 C 
ATOM     22  O   UNL     1      62.069  66.360  71.083  0.00  0.00    +0.000 OA
ATOM     23  C   UNL     1      61.431  67.029  72.174  0.00  0.00    +0.000 C 
ATOM     24  N   UNL     1      60.756  67.182  72.620  0.00  0.00    +0.000 NA
ATOM     25  C   UNL     1      62.148  67.389  72.370  0.00  0.00    +0.000 A 
ATOM     26  C   UNL     1      62.187  67.903  73.014  0.00  0.00    +0.000 A 
ATOM     27  C   UNL     1      62.902  68.264  73.212  0.00  0.00    +0.000 A 
ATOM     28  C   UNL     1      63.578  68.110  72.765  0.00  0.00    +0.000 A 
ATOM     29  C   UNL     1      63.539  67.595  72.121  0.00  0.00    +0.000 A 
ATOM     30  C   UNL     1      62.823  67.235  71.924  0.00  0.00    +0.000 A 
ATOM     31  C   UNL     1      60.043  65.191  70.335  0.00  0.00    +0.000 C 
ATOM     32  O   UNL     1      59.239  65.072  70.479  0.00  0.00    +0.000 OA
ENDROOT
TORSDOF 0
ENDMDL
MODEL 4
REMARK VINA RESULT:   -12.074      1.931      2.030
REMARK INTER + INTRA:         -12.074
REMARK INTER:                 -12.074
REMARK INTRA:                   0.000
REMARK UNBOUND:                 0.000
ROOT
REMARK  Name = bacampicillin
REMARK                            x       y       z     vdW  Elec       q    Type
REMARK                         _______ _______ _______ _____ _____    ______ ____
ATOM      1  C   UNL     1      62.995  68.020  73.222  0.00  0.00    +0.000 C 
ATOM      2  C   UNL     1      62.437  67.493  72.920  0.00  0.00    +0.000 C 
ATOM      3  O   UNL     1      62.578  67.111  72.202  0.00  0.00    +0.000 OA
ATOM      4  C   UNL     1      62.019  66.585  71.899  0.00  0.00    +0.000 C 
ATOM      5  O   UNL     1      61.321  66.440  72.314  0.00  0.00    +0.000 OA
ATOM      6  O   UNL     1      62.160  66.203  71.181  0.00  0.00    +0.000 OA
ATOM      7  C   UNL     1      61.602  65.676  70.879  0.00  0.00    +0.000 C 
ATOM      8  C   UNL     1      60.903  65.531  71.294  0.00  0.00    +0.000 C 
ATOM      9  O   UNL     1      61.742  65.294  70.160  0.00  0.00    +0.000 OA
ATOM     10  C   UNL     1      61.184  64.768  69.858  0.00  0.00    +0.000 C 
ATOM     11  O   UNL     1      60.486  64.622  70.273  0.00  0.00    +0.000 OA
ATOM     12  C   UNL     1      61.324  64.386  69.139  0.00  0.00    +0.000 C 
ATOM     13  N   UNL     1      60.820  63.848  68.770  0.00  0.00    +0.000 N 
ATOM     14  C   UNL     1      61.177  63.605  68.068  0.00  0.00    +0.000 C 
ATOM     15  S   UNL     1      61.902  63.992  68.003  0.00  0.00    +0.000 S 
ATOM     16  C   UNL     1      61.993  64.475  68.666  0.00  0.00    +0.000 C 
ATOM     17  C   UNL     1      62.732  64.780  68.460  0.00  0.00    +0.000 C 
ATOM     18  C   UNL     1      62.381  65.019  69.150  0.00  0.00    +0.000 C 
ATOM     19  C   UNL     1      60.531  63.118  67.908  0.00  0.00    +0.000 C 
ATOM     20  N   UNL     1      60.326  62.601  67.297  0.00  0.00    +0.000 NA
ATOM     21  C   UNL     1      60.839  62.492  66.660  0.00  0.00    +0.000 C 
ATOM     22  O   UNL     1      61.555  62.899  66.633  0.00  0.00    +0.000 OA
ATOM     23  C   UNL     1      60.634  61.976  66.050  0.00  0.00    +0.000 C 
ATOM     24  N   UNL     1      59.918  61.569  66.076  0.00  0.00    +0.000 NA
ATOM     25  C   UNL     1      61.147  61.868  65.412  0.00  0.00    +0.000 A 
ATOM     26  C   UNL     1      60.943  61.351  64.802  0.00  0.00    +0.000 A 
ATOM     27  C   UNL     1      61.455  61.242  64.165  0.00  0.00    +0.000 A 
ATOM     28  C   UNL     1      62.172  61.650  64.138  0.00  0.00    +0.000 A 
ATOM     29  C   UNL     1      62.376  62.166  64.749  0.00  0.00    +0.000 A 
ATOM     30  C   UNL     1      61.864  62.275  65.385  0.00  0.00    +0.000 A 
ATOM     31  C   UNL     1      60.173  63.361  68.610  0.00  0.00    +0.000 C 
ATOM     32  O   UNL     1      59.463  63.189  68.994  0.00  0.00    +0.000 OA
ENDROOT
TORSDOF 0
ENDMDL
MODEL 5
REMARK VINA RESULT:   -10.878     14.426     16.536
REMARK INTER + INTRA:         -10.878
REMARK INTER:                 -10.878
REMARK INTRA:                   0.000
REMARK UNBOUND:                 0.000
ROOT
REMARK  Name = bacampicillin
REMARK                            x       y       z     vdW  Elec       q    Type
REMARK                         _______ _______ _______ _____ _____    ______ ____
ATOM      1  C   UNL     1      62.008  58.253  52.275  0.00  0.00    +0.000 C 
ATOM      2  C   UNL     1      61.731  58.995  52.046  0.00  0.00    +0.000 C 
ATOM      3  O   UNL     1      61.908  59.660  52.503  0.00  0.00    +0.000 OA
ATOM      4  C   UNL     1      61.631  60.403  52.274  0.00  0.00    +0.000 C 
ATOM      5  O   UNL     1      61.178  60.481  51.588  0.00  0.00    +0.000 OA
ATOM      6  O   UNL     1      61.808  61.067  52.731  0.00  0.00    +0.000 OA
ATOM      7  C   UNL     1      61.531  61.810  52.502  0.00  0.00    +0.000 C 
ATOM      8  C   UNL     1      61.078  61.888  51.816  0.00  0.00    +0.000 C 
ATOM      9  O   UNL     1      61.708  62.474  52.959  0.00  0.00    +0.000 OA
ATOM     10  C   UNL     1      61.431  63.217  52.729  0.00  0.00    +0.000 C 
ATOM     11  O   UNL     1      60.978  63.296  52.044  0.00  0.00    +0.000 OA
ATOM     12  C   UNL     1      61.608  63.881  53.187  0.00  0.00    +0.000 C 
ATOM     13  N   UNL     1      61.371  64.655  53.028  0.00  0.00    +0.000 N 
ATOM     14  C   UNL     1      61.669  65.140  53.625  0.00  0.00    +0.000 C 
ATOM     15  S   UNL     1      62.089  64.666  54.152  0.00  0.00    +0.000 S 
ATOM     16  C   UNL     1      62.052  63.888  53.881  0.00  0.00    +0.000 C 
ATOM     17  C   UNL     1      62.500  63.554  54.489  0.00  0.00    +0.000 C 
ATOM     18  C   UNL     1      62.207  63.078  53.902  0.00  0.00    +0.000 C 
ATOM     19  C   UNL     1      61.323  65.796  53.264  0.00  0.00    +0.000 C 
ATOM     20  N   UNL     1      61.289  66.604  53.431  0.00  0.00    +0.000 NA
ATOM     21  C   UNL     1      61.666  66.903  54.101  0.00  0.00    +0.000 C 
ATOM     22  O   UNL     1      62.077  66.394  54.604  0.00  0.00    +0.000 OA
ATOM     23  C   UNL     1      61.632  67.710  54.269  0.00  0.00    +0.000 C 
ATOM     24  N   UNL     1      61.221  68.218  53.766  0.00  0.00    +0.000 NA
ATOM     25  C   UNL     1      62.010  68.008  54.939  0.00  0.00    +0.000 A 
ATOM     26  C   UNL     1      61.976  68.815  55.107  0.00  0.00    +0.000 A 
ATOM     27  C   UNL     1      62.353  69.114  55.777  0.00  0.00    +0.000 A 
ATOM     28  C   UNL     1      62.764  68.605  56.280  0.00  0.00    +0.000 A 
ATOM     29  C   UNL     1      62.798  67.798  56.112  0.00  0.00    +0.000 A 
ATOM     30  C   UNL     1      62.420  67.500  55.442  0.00  0.00    +0.000 A 
ATOM     31  C   UNL     1      61.025  65.311  52.667  0.00  0.00    +0.000 C 
ATOM     32  O   UNL     1      60.570  65.432  51.990  0.00  0.00    +0.000 OA
ENDROOT
TORSDOF 0
ENDMDL
