MODEL 1
REMARK VINA RESULT:   -13.767      0.000      0.000
REMARK INTER + INTRA:         -13.767
REMARK INTER:                 -13.767
REMARK INTRA:                   0.000
REMARK UNBOUND:                 0.000
ROOT
REMARK  Name = baicalin
REMARK                            x       y       z     vdW  Elec       q    Type
REMARK                         _______ _______ _______ _____ _____    ______ ____
ATOM      1  O   UNL     1      59.520  68.005  71.310  0.00  0.00    +0.000 OA
ATOM      2  C   UNL     1      59.749  67.214  71.250  0.00  0.00    +0.000 C 
ATOM      3  C   UNL     1      59.665  66.813  70.535  0.00  0.00    +0.000 C 
ATOM      4  O   UNL     1      59.353  67.202  69.878  0.00  0.00    +0.000 OA
ATOM      5  C   UNL     1      59.894  66.022  70.476  0.00  0.00    +0.000 C 
ATOM      6  O   UNL     1      59.810  65.621  69.761  0.00  0.00    +0.000 OA
ATOM      7  C   UNL     1      60.039  64.830  69.703  0.00  0.00    +0.000 A 
ATOM      8  C   UNL     1      59.955  64.428  68.986  0.00  0.00    +0.000 A 
ATOM      9  O   UNL     1      59.642  64.818  68.329  0.00  0.00    +0.000 OA
ATOM     10  C   UNL     1      60.184  63.638  68.927  0.00  0.00    +0.000 A 
ATOM     11  O   UNL     1      60.100  63.237  68.212  0.00  0.00    +0.000 OA
ATOM     12  C   UNL     1      60.496  63.249  69.584  0.00  0.00    +0.000 A 
ATOM     13  C   UNL     1      60.725  62.459  69.526  0.00  0.00    +0.000 A 
ATOM     14  O   UNL     1      60.641  62.057  68.810  0.00  0.00    +0.000 OA
ATOM     15  C   UNL     1      61.037  62.070  70.182  0.00  0.00    +0.000 A 
ATOM     16  C   UNL     1      61.121  62.472  70.899  0.00  0.00    +0.000 A 
ATOM     17  O   UNL     1      60.893  63.262  70.957  0.00  0.00    +0.000 OA
ATOM     18  C   UNL     1      60.580  63.651  70.300  0.00  0.00    +0.000 A 
ATOM     19  C   UNL     1      60.351  64.441  70.359  0.00  0.00    +0.000 A 
ATOM     20  C   UNL     1      61.434  62.082  71.555  0.00  0.00    +0.000 A 
ATOM     21  C   UNL     1      61.662  61.292  71.497  0.00  0.00    +0.000 A 
ATOM     22  C   UNL     1      61.975  60.903  72.154  0.00  0.00    +0.000 A 
ATOM     23  C   UNL     1      62.059  61.304  72.869  0.00  0.00    +0.000 A 
ATOM     24  C   UNL     1      61.830  62.095  72.928  0.00  0.00    +0.000 A 
ATOM     25  C   UNL     1      61.518  62.484  72.271  0.00  0.00    +0.000 A 
ATOM     26  O   UNL     1      60.207  65.633  71.134  0.00  0.00    +0.000 OA
ATOM     27  C   UNL     1      60.290  66.034  71.849  0.00  0.00    +0.000 C 
ATOM     28  C   UNL     1      60.062  66.825  71.908  0.00  0.00    +0.000 C 
ATOM     29  O   UNL     1      60.145  67.227  72.624  0.00  0.00    +0.000 OA
ATOM     30  C   UNL     1      60.603  65.646  72.506  0.00  0.00    +0.000 C 
ATOM     31  O   UNL     1      60.687  66.047  73.222  0.00  0.00    +0.000 OA
ATOM     32  O   UNL     1      60.831  64.855  72.447  0.00  0.00    +0.000 OA
ENDROOT
TORSDOF 0
ENDMDL
MODEL 2
REMARK VINA RESULT:   -13.607      1.116      3.072
REMARK INTER + INTRA:         -13.607
REMARK INTER:                 -13.607
REMARK INTRA:                   0.000
REMARK UNBOUND:                 0.000
ROOT
REMARK  Name = baicalin
REMARK                            x       y       z     vdW  Elec       q    Type
REMARK                         _______ _______ _______ _____ _____    ______ ____
ATOM      1  O   UNL     1      59.622  67.744  71.836  0.00  0.00    +0.000 OA
ATOM      2  C   UNL     1      59.739  67.011  71.476  0.00  0.00    +0.000 C 
ATOM      3  C   UNL     1      59.983  66.365  71.926  0.00  0.00    +0.000 C 
ATOM      4  O   UNL     1      60.112  66.450  72.736  0.00  0.00    +0.000 OA
ATOM      5  C   UNL     1      60.100  65.631  71.565  0.00  0.00    +0.000 C 
ATOM      6  O   UNL     1      60.344  64.985  72.015  0.00  0.00    +0.000 OA
ATOM      7  C   UNL     1      60.461  64.252  71.654  0.00  0.00    +0.000 A 
ATOM      8  C   UNL     1      60.706  63.604  72.104  0.00  0.00    +0.000 A 
ATOM      9  O   UNL     1      60.834  63.691  72.915  0.00  0.00    +0.000 OA
ATOM     10  C   UNL     1      60.822  62.872  71.744  0.00  0.00    +0.000 A 
ATOM     11  O   UNL     1      61.067  62.225  72.194  0.00  0.00    +0.000 OA
ATOM     12  C   UNL     1      60.694  62.786  70.934  0.00  0.00    +0.000 A 
ATOM     13  C   UNL     1      60.810  62.053  70.573  0.00  0.00    +0.000 A 
ATOM     14  O   UNL     1      61.055  61.406  71.023  0.00  0.00    +0.000 OA
ATOM     15  C   UNL     1      60.682  61.967  69.763  0.00  0.00    +0.000 A 
ATOM     16  C   UNL     1      60.437  62.614  69.313  0.00  0.00    +0.000 A 
ATOM     17  O   UNL     1      60.321  63.346  69.673  0.00  0.00    +0.000 OA
ATOM     18  C   UNL     1      60.449  63.433  70.484  0.00  0.00    +0.000 A 
ATOM     19  C   UNL     1      60.333  64.166  70.844  0.00  0.00    +0.000 A 
ATOM     20  C   UNL     1      60.309  62.527  68.502  0.00  0.00    +0.000 A 
ATOM     21  C   UNL     1      60.425  61.795  68.142  0.00  0.00    +0.000 A 
ATOM     22  C   UNL     1      60.297  61.708  67.331  0.00  0.00    +0.000 A 
ATOM     23  C   UNL     1      60.052  62.355  66.881  0.00  0.00    +0.000 A 
ATOM     24  C   UNL     1      59.936  63.089  67.242  0.00  0.00    +0.000 A 
ATOM     25  C   UNL     1      60.064  63.174  68.052  0.00  0.00    +0.000 A 
ATOM     26  O   UNL     1      59.971  65.545  70.754  0.00  0.00    +0.000 OA
ATOM     27  C   UNL     1      59.727  66.191  70.305  0.00  0.00    +0.000 C 
ATOM     28  C   UNL     1      59.610  66.925  70.665  0.00  0.00    +0.000 C 
ATOM     29  O   UNL     1      59.365  67.572  70.215  0.00  0.00    +0.000 OA
ATOM     30  C   UNL     1      59.598  66.106  69.494  0.00  0.00    +0.000 C 
ATOM     31  O   UNL     1      59.354  66.753  69.044  0.00  0.00    +0.000 OA
ATOM     32  O   UNL     1      59.715  65.373  69.134  0.00  0.00    +0.000 OA
ENDROOT
TORSDOF 0
ENDMDL
MODEL 3
REMARK VINA RESULT:   -13.527      2.561      3.943
REMARK INTER + INTRA:         -13.527
REMARK INTER:                 -13.527
REMARK INTRA:                   0.000
REMARK UNBOUND:                 0.000
ROOT
REMARK  Name = baicalin
REMARK                            x       y       z     vdW  Elec       q    Type
REMARK                         _______ _______ _______ _____ _____    ______ ____
ATOM      1  O   UNL     1      65.236  67.542  71.720  0.00  0.00    +0.000 OA
ATOM      2  C   UNL     1      64.585  67.036  71.721  0.00  0.00    +0.000 C 
ATOM      3  C   UNL     1      63.886  67.262  72.094  0.00  0.00    +0.000 C 
ATOM      4  O   UNL     1      63.837  67.995  72.469  0.00  0.00    +0.000 OA
ATOM      5  C   UNL     1      63.235  66.755  72.095  0.00  0.00    +0.000 C 
ATOM      6  O   UNL     1      62.535  66.981  72.469  0.00  0.00    +0.000 OA
ATOM      7  C   UNL     1      61.885  66.473  72.468  0.00  0.00    +0.000 A 
ATOM      8  C   UNL     1      61.184  66.700  72.843  0.00  0.00    +0.000 A 
ATOM      9  O   UNL     1      61.136  67.434  73.217  0.00  0.00    +0.000 OA
ATOM     10  C   UNL     1      60.534  66.193  72.843  0.00  0.00    +0.000 A 
ATOM     11  O   UNL     1      59.835  66.420  73.217  0.00  0.00    +0.000 OA
ATOM     12  C   UNL     1      60.583  65.460  72.469  0.00  0.00    +0.000 A 
ATOM     13  C   UNL     1      59.932  64.953  72.469  0.00  0.00    +0.000 A 
ATOM     14  O   UNL     1      59.233  65.179  72.843  0.00  0.00    +0.000 OA
ATOM     15  C   UNL     1      59.981  64.219  72.095  0.00  0.00    +0.000 A 
ATOM     16  C   UNL     1      60.681  63.992  71.720  0.00  0.00    +0.000 A 
ATOM     17  O   UNL     1      61.331  64.499  71.721  0.00  0.00    +0.000 OA
ATOM     18  C   UNL     1      61.283  65.233  72.094  0.00  0.00    +0.000 A 
ATOM     19  C   UNL     1      61.933  65.740  72.095  0.00  0.00    +0.000 A 
ATOM     20  C   UNL     1      60.730  63.258  71.347  0.00  0.00    +0.000 A 
ATOM     21  C   UNL     1      60.079  62.752  71.346  0.00  0.00    +0.000 A 
ATOM     22  C   UNL     1      60.128  62.018  70.973  0.00  0.00    +0.000 A 
ATOM     23  C   UNL     1      60.827  61.791  70.599  0.00  0.00    +0.000 A 
ATOM     24  C   UNL     1      61.478  62.298  70.598  0.00  0.00    +0.000 A 
ATOM     25  C   UNL     1      61.429  63.032  70.973  0.00  0.00    +0.000 A 
ATOM     26  O   UNL     1      63.284  66.020  71.720  0.00  0.00    +0.000 OA
ATOM     27  C   UNL     1      63.983  65.794  71.347  0.00  0.00    +0.000 C 
ATOM     28  C   UNL     1      64.634  66.301  71.346  0.00  0.00    +0.000 C 
ATOM     29  O   UNL     1      65.334  66.075  70.972  0.00  0.00    +0.000 OA
ATOM     30  C   UNL     1      64.032  65.060  70.972  0.00  0.00    +0.000 C 
ATOM     31  O   UNL     1      64.732  64.834  70.598  0.00  0.00    +0.000 OA
ATOM     32  O   UNL     1      63.381  64.554  70.973  0.00  0.00    +0.000 OA
ENDROOT
TORSDOF 0
ENDMDL
MODEL 4
REMARK VINA RESULT:   -13.135      3.001      5.023
REMARK INTER + INTRA:         -13.135
REMARK INTER:                 -13.135
REMARK INTRA:                   0.000
REMARK UNBOUND:                 0.000
ROOT
REMARK  Name = baicalin
REMARK                            x       y       z     vdW  Elec       q    Type
REMARK                         _______ _______ _______ _____ _____    ______ ____
ATOM      1  O   UNL     1      59.975  63.216  69.723  0.00  0.00    +0.000 OA
ATOM      2  C   UNL     1      60.538  63.765  69.974  0.00  0.00    +0.000 C 
ATOM      3  C   UNL     1      60.368  64.275  70.598  0.00  0.00    +0.000 C 
ATOM      4  O   UNL     1      59.634  64.239  70.972  0.00  0.00    +0.000 OA
ATOM      5  C   UNL     1      60.932  64.824  70.848  0.00  0.00    +0.000 C 
ATOM      6  O   UNL     1      60.761  65.335  71.473  0.00  0.00    +0.000 OA
ATOM      7  C   UNL     1      61.325  65.883  71.723  0.00  0.00    +0.000 A 
ATOM      8  C   UNL     1      61.154  66.395  72.348  0.00  0.00    +0.000 A 
ATOM      9  O   UNL     1      60.419  66.358  72.722  0.00  0.00    +0.000 OA
ATOM     10  C   UNL     1      61.717  66.943  72.598  0.00  0.00    +0.000 A 
ATOM     11  O   UNL     1      61.546  67.454  73.222  0.00  0.00    +0.000 OA
ATOM     12  C   UNL     1      62.451  66.980  72.224  0.00  0.00    +0.000 A 
ATOM     13  C   UNL     1      63.015  67.528  72.474  0.00  0.00    +0.000 A 
ATOM     14  O   UNL     1      62.844  68.039  73.099  0.00  0.00    +0.000 OA
ATOM     15  C   UNL     1      63.749  67.565  72.100  0.00  0.00    +0.000 A 
ATOM     16  C   UNL     1      63.920  67.053  71.475  0.00  0.00    +0.000 A 
ATOM     17  O   UNL     1      63.357  66.505  71.225  0.00  0.00    +0.000 OA
ATOM     18  C   UNL     1      62.622  66.468  71.599  0.00  0.00    +0.000 A 
ATOM     19  C   UNL     1      62.059  65.920  71.349  0.00  0.00    +0.000 A 
ATOM     20  C   UNL     1      64.655  67.090  71.101  0.00  0.00    +0.000 A 
ATOM     21  C   UNL     1      65.218  67.638  71.351  0.00  0.00    +0.000 A 
ATOM     22  C   UNL     1      65.953  67.675  70.977  0.00  0.00    +0.000 A 
ATOM     23  C   UNL     1      66.123  67.163  70.353  0.00  0.00    +0.000 A 
ATOM     24  C   UNL     1      65.559  66.615  70.102  0.00  0.00    +0.000 A 
ATOM     25  C   UNL     1      64.825  66.579  70.477  0.00  0.00    +0.000 A 
ATOM     26  O   UNL     1      61.667  64.861  70.474  0.00  0.00    +0.000 OA
ATOM     27  C   UNL     1      61.837  64.350  69.850  0.00  0.00    +0.000 C 
ATOM     28  C   UNL     1      61.273  63.801  69.599  0.00  0.00    +0.000 C 
ATOM     29  O   UNL     1      61.444  63.290  68.975  0.00  0.00    +0.000 OA
ATOM     30  C   UNL     1      62.571  64.386  69.476  0.00  0.00    +0.000 C 
ATOM     31  O   UNL     1      62.742  63.875  68.851  0.00  0.00    +0.000 OA
ATOM     32  O   UNL     1      63.134  64.934  69.726  0.00  0.00    +0.000 OA
ENDROOT
TORSDOF 0
ENDMDL
MODEL 5
REMARK VINA RESULT:   -13.069      2.491      3.784
REMARK INTER + INTRA:         -13.069
REMARK INTER:                 -13.069
REMARK INTRA:                   0.000
REMARK UNBOUND:                 0.000
ROOT
REMARK  Name = baicalin
REMARK                            x       y       z     vdW  Elec       q    Type
REMARK                         _______ _______ _______ _____ _____    ______ ____
ATOM      1  O   UNL     1      65.087  67.209  71.669  0.00  0.00    +0.000 OA
ATOM      2  C   UNL     1      64.334  66.877  71.726  0.00  0.00    +0.000 C 
ATOM      3  C   UNL     1      64.184  66.135  71.401  0.00  0.00    +0.000 C 
ATOM      4  O   UNL     1      64.788  65.723  71.018  0.00  0.00    +0.000 OA
ATOM      5  C   UNL     1      63.430  65.804  71.458  0.00  0.00    +0.000 C 
ATOM      6  O   UNL     1      63.281  65.060  71.132  0.00  0.00    +0.000 OA
ATOM      7  C   UNL     1      62.527  64.730  71.189  0.00  0.00    +0.000 A 
ATOM      8  C   UNL     1      62.377  63.986  70.863  0.00  0.00    +0.000 A 
ATOM      9  O   UNL     1      62.981  63.574  70.480  0.00  0.00    +0.000 OA
ATOM     10  C   UNL     1      61.624  63.655  70.920  0.00  0.00    +0.000 A 
ATOM     11  O   UNL     1      61.474  62.912  70.594  0.00  0.00    +0.000 OA
ATOM     12  C   UNL     1      61.021  64.066  71.303  0.00  0.00    +0.000 A 
ATOM     13  C   UNL     1      60.267  63.736  71.360  0.00  0.00    +0.000 A 
ATOM     14  O   UNL     1      60.117  62.993  71.034  0.00  0.00    +0.000 OA
ATOM     15  C   UNL     1      59.663  64.147  71.742  0.00  0.00    +0.000 A 
ATOM     16  C   UNL     1      59.813  64.891  72.069  0.00  0.00    +0.000 A 
ATOM     17  O   UNL     1      60.566  65.222  72.011  0.00  0.00    +0.000 OA
ATOM     18  C   UNL     1      61.170  64.810  71.629  0.00  0.00    +0.000 A 
ATOM     19  C   UNL     1      61.923  65.141  71.572  0.00  0.00    +0.000 A 
ATOM     20  C   UNL     1      59.209  65.302  72.451  0.00  0.00    +0.000 A 
ATOM     21  C   UNL     1      58.456  64.971  72.508  0.00  0.00    +0.000 A 
ATOM     22  C   UNL     1      57.852  65.383  72.891  0.00  0.00    +0.000 A 
ATOM     23  C   UNL     1      58.001  66.126  73.217  0.00  0.00    +0.000 A 
ATOM     24  C   UNL     1      58.755  66.457  73.160  0.00  0.00    +0.000 A 
ATOM     25  C   UNL     1      59.359  66.045  72.777  0.00  0.00    +0.000 A 
ATOM     26  O   UNL     1      62.826  66.216  71.841  0.00  0.00    +0.000 OA
ATOM     27  C   UNL     1      62.976  66.958  72.166  0.00  0.00    +0.000 C 
ATOM     28  C   UNL     1      63.730  67.290  72.109  0.00  0.00    +0.000 C 
ATOM     29  O   UNL     1      63.879  68.033  72.435  0.00  0.00    +0.000 OA
ATOM     30  C   UNL     1      62.372  67.370  72.549  0.00  0.00    +0.000 C 
ATOM     31  O   UNL     1      62.522  68.113  72.875  0.00  0.00    +0.000 OA
ATOM     32  O   UNL     1      61.619  67.038  72.606  0.00  0.00    +0.000 OA
ENDROOT
TORSDOF 0
ENDMDL
MODEL 6
REMARK VINA RESULT:   -13.021      2.214      3.644
REMARK INTER + INTRA:         -13.021
REMARK INTER:                 -13.021
REMARK INTRA:                   0.000
REMARK UNBOUND:                 0.000
ROOT
REMARK  Name = baicalin
REMARK                            x       y       z     vdW  Elec       q    Type
REMARK                         _______ _______ _______ _____ _____    ______ ____
ATOM      1  O   UNL     1      63.614  66.855  71.944  0.00  0.00    +0.000 OA
ATOM      2  C   UNL     1      63.223  66.255  71.534  0.00  0.00    +0.000 C 
ATOM      3  C   UNL     1      62.845  65.651  71.948  0.00  0.00    +0.000 C 
ATOM      4  O   UNL     1      62.857  65.646  72.773  0.00  0.00    +0.000 OA
ATOM      5  C   UNL     1      62.455  65.051  71.538  0.00  0.00    +0.000 C 
ATOM      6  O   UNL     1      62.076  64.446  71.952  0.00  0.00    +0.000 OA
ATOM      7  C   UNL     1      61.686  63.847  71.541  0.00  0.00    +0.000 A 
ATOM      8  C   UNL     1      61.307  63.241  71.956  0.00  0.00    +0.000 A 
ATOM      9  O   UNL     1      61.320  63.237  72.781  0.00  0.00    +0.000 OA
ATOM     10  C   UNL     1      60.917  62.642  71.546  0.00  0.00    +0.000 A 
ATOM     11  O   UNL     1      60.539  62.037  71.960  0.00  0.00    +0.000 OA
ATOM     12  C   UNL     1      60.905  62.647  70.722  0.00  0.00    +0.000 A 
ATOM     13  C   UNL     1      60.514  62.047  70.310  0.00  0.00    +0.000 A 
ATOM     14  O   UNL     1      60.136  61.442  70.725  0.00  0.00    +0.000 OA
ATOM     15  C   UNL     1      60.502  62.052  69.486  0.00  0.00    +0.000 A 
ATOM     16  C   UNL     1      60.881  62.657  69.071  0.00  0.00    +0.000 A 
ATOM     17  O   UNL     1      61.271  63.257  69.481  0.00  0.00    +0.000 OA
ATOM     18  C   UNL     1      61.284  63.252  70.307  0.00  0.00    +0.000 A 
ATOM     19  C   UNL     1      61.674  63.851  70.717  0.00  0.00    +0.000 A 
ATOM     20  C   UNL     1      60.869  62.662  68.246  0.00  0.00    +0.000 A 
ATOM     21  C   UNL     1      60.478  62.062  67.836  0.00  0.00    +0.000 A 
ATOM     22  C   UNL     1      60.466  62.067  67.011  0.00  0.00    +0.000 A 
ATOM     23  C   UNL     1      60.844  62.672  66.596  0.00  0.00    +0.000 A 
ATOM     24  C   UNL     1      61.235  63.272  67.007  0.00  0.00    +0.000 A 
ATOM     25  C   UNL     1      61.247  63.266  67.832  0.00  0.00    +0.000 A 
ATOM     26  O   UNL     1      62.443  65.056  70.712  0.00  0.00    +0.000 OA
ATOM     27  C   UNL     1      62.821  65.660  70.298  0.00  0.00    +0.000 C 
ATOM     28  C   UNL     1      63.211  66.260  70.709  0.00  0.00    +0.000 C 
ATOM     29  O   UNL     1      63.590  66.865  70.294  0.00  0.00    +0.000 OA
ATOM     30  C   UNL     1      62.809  65.666  69.473  0.00  0.00    +0.000 C 
ATOM     31  O   UNL     1      63.187  66.270  69.059  0.00  0.00    +0.000 OA
ATOM     32  O   UNL     1      62.418  65.066  69.064  0.00  0.00    +0.000 OA
ENDROOT
TORSDOF 0
ENDMDL
MODEL 7
REMARK VINA RESULT:   -12.454      2.612      4.097
REMARK INTER + INTRA:         -12.454
REMARK INTER:                 -12.454
REMARK INTRA:                   0.000
REMARK UNBOUND:                 0.000
ROOT
REMARK  Name = baicalin
REMARK                            x       y       z     vdW  Elec       q    Type
REMARK                         _______ _______ _______ _____ _____    ______ ____
ATOM      1  O   UNL     1      65.202  66.724  71.953  0.00  0.00    +0.000 OA
ATOM      2  C   UNL     1      64.554  66.430  71.535  0.00  0.00    +0.000 C 
ATOM      3  C   UNL     1      63.826  66.813  71.580  0.00  0.00    +0.000 C 
ATOM      4  O   UNL     1      63.743  67.491  72.042  0.00  0.00    +0.000 OA
ATOM      5  C   UNL     1      63.178  66.519  71.161  0.00  0.00    +0.000 C 
ATOM      6  O   UNL     1      62.449  66.902  71.206  0.00  0.00    +0.000 OA
ATOM      7  C   UNL     1      61.801  66.607  70.788  0.00  0.00    +0.000 A 
ATOM      8  C   UNL     1      61.071  66.991  70.833  0.00  0.00    +0.000 A 
ATOM      9  O   UNL     1      60.990  67.669  71.296  0.00  0.00    +0.000 OA
ATOM     10  C   UNL     1      60.425  66.696  70.415  0.00  0.00    +0.000 A 
ATOM     11  O   UNL     1      59.696  67.080  70.460  0.00  0.00    +0.000 OA
ATOM     12  C   UNL     1      60.506  66.019  69.952  0.00  0.00    +0.000 A 
ATOM     13  C   UNL     1      59.859  65.724  69.534  0.00  0.00    +0.000 A 
ATOM     14  O   UNL     1      59.130  66.107  69.578  0.00  0.00    +0.000 OA
ATOM     15  C   UNL     1      59.941  65.046  69.071  0.00  0.00    +0.000 A 
ATOM     16  C   UNL     1      60.671  64.663  69.026  0.00  0.00    +0.000 A 
ATOM     17  O   UNL     1      61.317  64.957  69.444  0.00  0.00    +0.000 OA
ATOM     18  C   UNL     1      61.236  65.635  69.907  0.00  0.00    +0.000 A 
ATOM     19  C   UNL     1      61.883  65.929  70.325  0.00  0.00    +0.000 A 
ATOM     20  C   UNL     1      60.752  63.985  68.562  0.00  0.00    +0.000 A 
ATOM     21  C   UNL     1      60.105  63.690  68.145  0.00  0.00    +0.000 A 
ATOM     22  C   UNL     1      60.186  63.012  67.681  0.00  0.00    +0.000 A 
ATOM     23  C   UNL     1      60.915  62.629  67.636  0.00  0.00    +0.000 A 
ATOM     24  C   UNL     1      61.563  62.923  68.055  0.00  0.00    +0.000 A 
ATOM     25  C   UNL     1      61.481  63.601  68.518  0.00  0.00    +0.000 A 
ATOM     26  O   UNL     1      63.260  65.840  70.698  0.00  0.00    +0.000 OA
ATOM     27  C   UNL     1      63.988  65.457  70.653  0.00  0.00    +0.000 C 
ATOM     28  C   UNL     1      64.636  65.752  71.071  0.00  0.00    +0.000 C 
ATOM     29  O   UNL     1      65.365  65.368  71.026  0.00  0.00    +0.000 OA
ATOM     30  C   UNL     1      64.070  64.779  70.190  0.00  0.00    +0.000 C 
ATOM     31  O   UNL     1      64.800  64.396  70.145  0.00  0.00    +0.000 OA
ATOM     32  O   UNL     1      63.423  64.485  69.772  0.00  0.00    +0.000 OA
ENDROOT
TORSDOF 0
ENDMDL
MODEL 8
REMARK VINA RESULT:   -11.808     25.793     27.055
REMARK INTER + INTRA:         -11.808
REMARK INTER:                 -11.808
REMARK INTRA:                   0.000
REMARK UNBOUND:                 0.000
ROOT
REMARK  Name = baicalin
REMARK                            x       y       z     vdW  Elec       q    Type
REMARK                         _______ _______ _______ _____ _____    ______ ____
ATOM      1  O   UNL     1      72.658  82.195  55.220  0.00  0.00    +0.000 OA
ATOM      2  C   UNL     1      72.317  81.851  54.553  0.00  0.00    +0.000 C 
ATOM      3  C   UNL     1      71.498  81.768  54.505  0.00  0.00    +0.000 C 
ATOM      4  O   UNL     1      71.020  82.028  55.124  0.00  0.00    +0.000 OA
ATOM      5  C   UNL     1      71.157  81.423  53.836  0.00  0.00    +0.000 C 
ATOM      6  O   UNL     1      70.337  81.340  53.788  0.00  0.00    +0.000 OA
ATOM      7  C   UNL     1      69.997  80.996  53.120  0.00  0.00    +0.000 A 
ATOM      8  C   UNL     1      69.176  80.912  53.072  0.00  0.00    +0.000 A 
ATOM      9  O   UNL     1      68.699  81.173  53.692  0.00  0.00    +0.000 OA
ATOM     10  C   UNL     1      68.836  80.569  52.404  0.00  0.00    +0.000 A 
ATOM     11  O   UNL     1      68.016  80.485  52.356  0.00  0.00    +0.000 OA
ATOM     12  C   UNL     1      69.314  80.308  51.785  0.00  0.00    +0.000 A 
ATOM     13  C   UNL     1      68.973  79.964  51.117  0.00  0.00    +0.000 A 
ATOM     14  O   UNL     1      68.154  79.881  51.069  0.00  0.00    +0.000 OA
ATOM     15  C   UNL     1      69.451  79.703  50.498  0.00  0.00    +0.000 A 
ATOM     16  C   UNL     1      70.271  79.787  50.546  0.00  0.00    +0.000 A 
ATOM     17  O   UNL     1      70.612  80.131  51.213  0.00  0.00    +0.000 OA
ATOM     18  C   UNL     1      70.134  80.392  51.833  0.00  0.00    +0.000 A 
ATOM     19  C   UNL     1      70.475  80.735  52.501  0.00  0.00    +0.000 A 
ATOM     20  C   UNL     1      70.749  79.526  49.926  0.00  0.00    +0.000 A 
ATOM     21  C   UNL     1      70.408  79.182  49.258  0.00  0.00    +0.000 A 
ATOM     22  C   UNL     1      70.886  78.921  48.638  0.00  0.00    +0.000 A 
ATOM     23  C   UNL     1      71.706  79.005  48.686  0.00  0.00    +0.000 A 
ATOM     24  C   UNL     1      72.047  79.349  49.355  0.00  0.00    +0.000 A 
ATOM     25  C   UNL     1      71.568  79.609  49.974  0.00  0.00    +0.000 A 
ATOM     26  O   UNL     1      71.636  81.163  53.216  0.00  0.00    +0.000 OA
ATOM     27  C   UNL     1      72.454  81.246  53.264  0.00  0.00    +0.000 C 
ATOM     28  C   UNL     1      72.795  81.590  53.933  0.00  0.00    +0.000 C 
ATOM     29  O   UNL     1      73.615  81.674  53.981  0.00  0.00    +0.000 OA
ATOM     30  C   UNL     1      72.933  80.986  52.645  0.00  0.00    +0.000 C 
ATOM     31  O   UNL     1      73.752  81.069  52.693  0.00  0.00    +0.000 OA
ATOM     32  O   UNL     1      72.591  80.642  51.978  0.00  0.00    +0.000 OA
ENDROOT
TORSDOF 0
ENDMDL
MODEL 9
REMARK VINA RESULT:   -11.323      2.207      4.867
REMARK INTER + INTRA:         -11.323
REMARK INTER:                 -11.323
REMARK INTRA:                   0.000
REMARK UNBOUND:                 0.000
ROOT
REMARK  Name = baicalin
REMARK                            x       y       z     vdW  Elec       q    Type
REMARK                         _______ _______ _______ _____ _____    ______ ____
ATOM      1  O   UNL     1      62.489  63.481  68.022  0.00  0.00    +0.000 OA
ATOM      2  C   UNL     1      62.196  63.944  68.640  0.00  0.00    +0.000 C 
ATOM      3  C   UNL     1      62.716  64.358  69.126  0.00  0.00    +0.000 C 
ATOM      4  O   UNL     1      63.529  64.311  68.997  0.00  0.00    +0.000 OA
ATOM      5  C   UNL     1      62.423  64.821  69.744  0.00  0.00    +0.000 C 
ATOM      6  O   UNL     1      62.943  65.236  70.232  0.00  0.00    +0.000 OA
ATOM      7  C   UNL     1      62.649  65.698  70.849  0.00  0.00    +0.000 A 
ATOM      8  C   UNL     1      63.170  66.114  71.337  0.00  0.00    +0.000 A 
ATOM      9  O   UNL     1      63.984  66.066  71.207  0.00  0.00    +0.000 OA
ATOM     10  C   UNL     1      62.877  66.576  71.954  0.00  0.00    +0.000 A 
ATOM     11  O   UNL     1      63.398  66.991  72.441  0.00  0.00    +0.000 OA
ATOM     12  C   UNL     1      62.065  66.623  72.084  0.00  0.00    +0.000 A 
ATOM     13  C   UNL     1      61.771  67.086  72.701  0.00  0.00    +0.000 A 
ATOM     14  O   UNL     1      62.291  67.501  73.188  0.00  0.00    +0.000 OA
ATOM     15  C   UNL     1      60.958  67.133  72.831  0.00  0.00    +0.000 A 
ATOM     16  C   UNL     1      60.437  66.718  72.342  0.00  0.00    +0.000 A 
ATOM     17  O   UNL     1      60.730  66.256  71.726  0.00  0.00    +0.000 OA
ATOM     18  C   UNL     1      61.544  66.208  71.595  0.00  0.00    +0.000 A 
ATOM     19  C   UNL     1      61.837  65.746  70.979  0.00  0.00    +0.000 A 
ATOM     20  C   UNL     1      59.624  66.766  72.473  0.00  0.00    +0.000 A 
ATOM     21  C   UNL     1      59.331  67.227  73.089  0.00  0.00    +0.000 A 
ATOM     22  C   UNL     1      58.517  67.275  73.220  0.00  0.00    +0.000 A 
ATOM     23  C   UNL     1      57.997  66.860  72.732  0.00  0.00    +0.000 A 
ATOM     24  C   UNL     1      58.290  66.398  72.114  0.00  0.00    +0.000 A 
ATOM     25  C   UNL     1      59.103  66.351  71.985  0.00  0.00    +0.000 A 
ATOM     26  O   UNL     1      61.609  64.869  69.874  0.00  0.00    +0.000 OA
ATOM     27  C   UNL     1      61.089  64.454  69.387  0.00  0.00    +0.000 C 
ATOM     28  C   UNL     1      61.382  63.991  68.769  0.00  0.00    +0.000 C 
ATOM     29  O   UNL     1      60.862  63.576  68.282  0.00  0.00    +0.000 OA
ATOM     30  C   UNL     1      60.276  64.501  69.516  0.00  0.00    +0.000 C 
ATOM     31  O   UNL     1      59.755  64.086  69.029  0.00  0.00    +0.000 OA
ATOM     32  O   UNL     1      59.983  64.964  70.133  0.00  0.00    +0.000 OA
ENDROOT
TORSDOF 0
ENDMDL
