MODEL 1
REMARK VINA RESULT:   -12.458      0.000      0.000
REMARK INTER + INTRA:         -12.458
REMARK INTER:                 -12.458
REMARK INTRA:                   0.000
REMARK UNBOUND:                 0.000
ROOT
REMARK  Name = balofloxacin
REMARK                            x       y       z     vdW  Elec       q    Type
REMARK                         _______ _______ _______ _____ _____    ______ ____
ATOM      1  C   UNL     1      61.090  62.332  67.580  0.00  0.00    +0.000 C 
ATOM      2  N   UNL     1      60.826  62.929  68.085  0.00  0.00    +0.000 NA
ATOM      3  C   UNL     1      60.695  62.767  68.882  0.00  0.00    +0.000 C 
ATOM      4  C   UNL     1      60.828  62.008  69.177  0.00  0.00    +0.000 C 
ATOM      5  C   UNL     1      60.697  61.845  69.975  0.00  0.00    +0.000 C 
ATOM      6  C   UNL     1      60.433  62.442  70.479  0.00  0.00    +0.000 C 
ATOM      7  N   UNL     1      60.299  63.201  70.186  0.00  0.00    +0.000 N 
ATOM      8  C   UNL     1      60.430  63.364  69.388  0.00  0.00    +0.000 C 
ATOM      9  C   UNL     1      60.035  63.799  70.690  0.00  0.00    +0.000 A 
ATOM     10  C   UNL     1      59.904  63.636  71.489  0.00  0.00    +0.000 A 
ATOM     11  F   UNL     1      60.037  62.877  71.782  0.00  0.00    +0.000 F 
ATOM     12  C   UNL     1      59.640  64.233  71.993  0.00  0.00    +0.000 A 
ATOM     13  C   UNL     1      59.507  64.992  71.700  0.00  0.00    +0.000 A 
ATOM     14  C   UNL     1      59.243  65.589  72.204  0.00  0.00    +0.000 A 
ATOM     15  O   UNL     1      59.112  65.427  73.002  0.00  0.00    +0.000 OA
ATOM     16  C   UNL     1      59.110  66.348  71.910  0.00  0.00    +0.000 A 
ATOM     17  C   UNL     1      59.241  66.511  71.111  0.00  0.00    +0.000 A 
ATOM     18  N   UNL     1      59.505  65.914  70.607  0.00  0.00    +0.000 N 
ATOM     19  C   UNL     1      59.636  66.077  69.809  0.00  0.00    +0.000 C 
ATOM     20  C   UNL     1      59.635  66.608  69.179  0.00  0.00    +0.000 C 
ATOM     21  C   UNL     1      59.864  65.825  69.057  0.00  0.00    +0.000 C 
ATOM     22  C   UNL     1      59.638  65.154  70.900  0.00  0.00    +0.000 A 
ATOM     23  C   UNL     1      59.902  64.558  70.396  0.00  0.00    +0.000 A 
ATOM     24  O   UNL     1      60.033  64.720  69.598  0.00  0.00    +0.000 OA
ATOM     25  C   UNL     1      60.297  64.124  69.093  0.00  0.00    +0.000 C 
ATOM     26  C   UNL     1      58.845  66.946  72.414  0.00  0.00    +0.000 C 
ATOM     27  O   UNL     1      58.714  66.783  73.213  0.00  0.00    +0.000 OA
ATOM     28  O   UNL     1      58.712  67.705  72.121  0.00  0.00    +0.000 OA
ENDROOT
TORSDOF 0
ENDMDL
MODEL 2
REMARK VINA RESULT:   -11.992      2.524      2.883
REMARK INTER + INTRA:         -11.992
REMARK INTER:                 -11.992
REMARK INTRA:                   0.000
REMARK UNBOUND:                 0.000
ROOT
REMARK  Name = balofloxacin
REMARK                            x       y       z     vdW  Elec       q    Type
REMARK                         _______ _______ _______ _____ _____    ______ ____
ATOM      1  C   UNL     1      61.593  62.930  65.621  0.00  0.00    +0.000 C 
ATOM      2  N   UNL     1      61.646  63.112  66.424  0.00  0.00    +0.000 NA
ATOM      3  C   UNL     1      61.214  62.676  66.974  0.00  0.00    +0.000 C 
ATOM      4  C   UNL     1      60.729  62.058  66.723  0.00  0.00    +0.000 C 
ATOM      5  C   UNL     1      60.297  61.622  67.274  0.00  0.00    +0.000 C 
ATOM      6  C   UNL     1      60.350  61.804  68.076  0.00  0.00    +0.000 C 
ATOM      7  N   UNL     1      60.835  62.422  68.329  0.00  0.00    +0.000 N 
ATOM      8  C   UNL     1      61.267  62.858  67.778  0.00  0.00    +0.000 C 
ATOM      9  C   UNL     1      60.889  62.604  69.132  0.00  0.00    +0.000 A 
ATOM     10  C   UNL     1      60.456  62.167  69.684  0.00  0.00    +0.000 A 
ATOM     11  F   UNL     1      59.971  61.549  69.431  0.00  0.00    +0.000 F 
ATOM     12  C   UNL     1      60.509  62.349  70.486  0.00  0.00    +0.000 A 
ATOM     13  C   UNL     1      60.994  62.966  70.738  0.00  0.00    +0.000 A 
ATOM     14  C   UNL     1      61.048  63.148  71.541  0.00  0.00    +0.000 A 
ATOM     15  O   UNL     1      60.616  62.712  72.092  0.00  0.00    +0.000 OA
ATOM     16  C   UNL     1      61.533  63.766  71.793  0.00  0.00    +0.000 A 
ATOM     17  C   UNL     1      61.965  64.202  71.241  0.00  0.00    +0.000 A 
ATOM     18  N   UNL     1      61.912  64.021  70.439  0.00  0.00    +0.000 N 
ATOM     19  C   UNL     1      62.344  64.457  69.888  0.00  0.00    +0.000 C 
ATOM     20  C   UNL     1      62.873  65.065  69.715  0.00  0.00    +0.000 C 
ATOM     21  C   UNL     1      62.562  64.603  69.106  0.00  0.00    +0.000 C 
ATOM     22  C   UNL     1      61.427  63.403  70.186  0.00  0.00    +0.000 A 
ATOM     23  C   UNL     1      61.374  63.221  69.384  0.00  0.00    +0.000 A 
ATOM     24  O   UNL     1      61.806  63.657  68.833  0.00  0.00    +0.000 OA
ATOM     25  C   UNL     1      61.753  63.476  68.030  0.00  0.00    +0.000 C 
ATOM     26  C   UNL     1      61.586  63.948  72.596  0.00  0.00    +0.000 C 
ATOM     27  O   UNL     1      61.154  63.512  73.147  0.00  0.00    +0.000 OA
ATOM     28  O   UNL     1      62.071  64.565  72.848  0.00  0.00    +0.000 OA
ENDROOT
TORSDOF 0
ENDMDL
MODEL 3
REMARK VINA RESULT:   -11.817      4.019      4.592
REMARK INTER + INTRA:         -11.817
REMARK INTER:                 -11.817
REMARK INTRA:                   0.000
REMARK UNBOUND:                 0.000
ROOT
REMARK  Name = balofloxacin
REMARK                            x       y       z     vdW  Elec       q    Type
REMARK                         _______ _______ _______ _____ _____    ______ ____
ATOM      1  C   UNL     1      60.388  62.528  71.223  0.00  0.00    +0.000 C 
ATOM      2  N   UNL     1      61.030  63.039  71.134  0.00  0.00    +0.000 NA
ATOM      3  C   UNL     1      61.122  63.678  71.646  0.00  0.00    +0.000 C 
ATOM      4  C   UNL     1      60.573  63.807  72.248  0.00  0.00    +0.000 C 
ATOM      5  C   UNL     1      60.665  64.447  72.761  0.00  0.00    +0.000 C 
ATOM      6  C   UNL     1      61.306  64.958  72.672  0.00  0.00    +0.000 C 
ATOM      7  N   UNL     1      61.856  64.829  72.070  0.00  0.00    +0.000 N 
ATOM      8  C   UNL     1      61.764  64.189  71.557  0.00  0.00    +0.000 C 
ATOM      9  C   UNL     1      62.498  65.340  71.980  0.00  0.00    +0.000 A 
ATOM     10  C   UNL     1      62.590  65.980  72.494  0.00  0.00    +0.000 A 
ATOM     11  F   UNL     1      62.040  66.109  73.095  0.00  0.00    +0.000 F 
ATOM     12  C   UNL     1      63.232  66.491  72.404  0.00  0.00    +0.000 A 
ATOM     13  C   UNL     1      63.781  66.362  71.803  0.00  0.00    +0.000 A 
ATOM     14  C   UNL     1      64.423  66.873  71.713  0.00  0.00    +0.000 A 
ATOM     15  O   UNL     1      64.515  67.512  72.226  0.00  0.00    +0.000 OA
ATOM     16  C   UNL     1      64.972  66.744  71.112  0.00  0.00    +0.000 A 
ATOM     17  C   UNL     1      64.880  66.103  70.599  0.00  0.00    +0.000 A 
ATOM     18  N   UNL     1      64.238  65.593  70.688  0.00  0.00    +0.000 N 
ATOM     19  C   UNL     1      64.146  64.953  70.176  0.00  0.00    +0.000 C 
ATOM     20  C   UNL     1      64.410  64.510  69.533  0.00  0.00    +0.000 C 
ATOM     21  C   UNL     1      63.722  64.289  69.932  0.00  0.00    +0.000 C 
ATOM     22  C   UNL     1      63.688  65.721  71.290  0.00  0.00    +0.000 A 
ATOM     23  C   UNL     1      63.047  65.211  71.379  0.00  0.00    +0.000 A 
ATOM     24  O   UNL     1      62.955  64.571  70.866  0.00  0.00    +0.000 OA
ATOM     25  C   UNL     1      62.314  64.060  70.955  0.00  0.00    +0.000 C 
ATOM     26  C   UNL     1      65.614  67.255  71.023  0.00  0.00    +0.000 C 
ATOM     27  O   UNL     1      65.706  67.894  71.535  0.00  0.00    +0.000 OA
ATOM     28  O   UNL     1      66.163  67.126  70.421  0.00  0.00    +0.000 OA
ENDROOT
TORSDOF 0
ENDMDL
MODEL 4
REMARK VINA RESULT:   -11.714      2.227      2.272
REMARK INTER + INTRA:         -11.714
REMARK INTER:                 -11.714
REMARK INTRA:                   0.000
REMARK UNBOUND:                 0.000
ROOT
REMARK  Name = balofloxacin
REMARK                            x       y       z     vdW  Elec       q    Type
REMARK                         _______ _______ _______ _____ _____    ______ ____
ATOM      1  C   UNL     1      60.332  61.984  68.135  0.00  0.00    +0.000 C 
ATOM      2  N   UNL     1      60.624  62.624  68.566  0.00  0.00    +0.000 NA
ATOM      3  C   UNL     1      60.694  62.573  69.385  0.00  0.00    +0.000 C 
ATOM      4  C   UNL     1      60.472  61.882  69.776  0.00  0.00    +0.000 C 
ATOM      5  C   UNL     1      60.542  61.830  70.597  0.00  0.00    +0.000 C 
ATOM      6  C   UNL     1      60.834  62.471  71.026  0.00  0.00    +0.000 C 
ATOM      7  N   UNL     1      61.057  63.163  70.636  0.00  0.00    +0.000 N 
ATOM      8  C   UNL     1      60.987  63.214  69.815  0.00  0.00    +0.000 C 
ATOM      9  C   UNL     1      61.349  63.804  71.065  0.00  0.00    +0.000 A 
ATOM     10  C   UNL     1      61.419  63.753  71.886  0.00  0.00    +0.000 A 
ATOM     11  F   UNL     1      61.197  63.060  72.277  0.00  0.00    +0.000 F 
ATOM     12  C   UNL     1      61.712  64.393  72.316  0.00  0.00    +0.000 A 
ATOM     13  C   UNL     1      61.934  65.084  71.925  0.00  0.00    +0.000 A 
ATOM     14  C   UNL     1      62.227  65.725  72.355  0.00  0.00    +0.000 A 
ATOM     15  O   UNL     1      62.297  65.674  73.175  0.00  0.00    +0.000 OA
ATOM     16  C   UNL     1      62.449  66.417  71.965  0.00  0.00    +0.000 A 
ATOM     17  C   UNL     1      62.379  66.468  71.143  0.00  0.00    +0.000 A 
ATOM     18  N   UNL     1      62.087  65.828  70.714  0.00  0.00    +0.000 N 
ATOM     19  C   UNL     1      62.017  65.879  69.894  0.00  0.00    +0.000 C 
ATOM     20  C   UNL     1      62.104  66.307  69.195  0.00  0.00    +0.000 C 
ATOM     21  C   UNL     1      61.807  65.538  69.172  0.00  0.00    +0.000 C 
ATOM     22  C   UNL     1      61.864  65.135  71.104  0.00  0.00    +0.000 A 
ATOM     23  C   UNL     1      61.572  64.495  70.675  0.00  0.00    +0.000 A 
ATOM     24  O   UNL     1      61.502  64.546  69.854  0.00  0.00    +0.000 OA
ATOM     25  C   UNL     1      61.209  63.906  69.424  0.00  0.00    +0.000 C 
ATOM     26  C   UNL     1      62.742  67.058  72.394  0.00  0.00    +0.000 C 
ATOM     27  O   UNL     1      62.812  67.007  73.214  0.00  0.00    +0.000 OA
ATOM     28  O   UNL     1      62.964  67.749  72.004  0.00  0.00    +0.000 OA
ENDROOT
TORSDOF 0
ENDMDL
MODEL 5
REMARK VINA RESULT:   -11.695      1.965      3.946
REMARK INTER + INTRA:         -11.695
REMARK INTER:                 -11.695
REMARK INTRA:                   0.000
REMARK UNBOUND:                 0.000
ROOT
REMARK  Name = balofloxacin
REMARK                            x       y       z     vdW  Elec       q    Type
REMARK                         _______ _______ _______ _____ _____    ______ ____
ATOM      1  C   UNL     1      59.262  66.996  68.923  0.00  0.00    +0.000 C 
ATOM      2  N   UNL     1      59.563  66.293  69.233  0.00  0.00    +0.000 NA
ATOM      3  C   UNL     1      59.782  66.253  70.026  0.00  0.00    +0.000 C 
ATOM      4  C   UNL     1      59.701  66.915  70.511  0.00  0.00    +0.000 C 
ATOM      5  C   UNL     1      59.921  66.875  71.306  0.00  0.00    +0.000 C 
ATOM      6  C   UNL     1      60.221  66.172  71.615  0.00  0.00    +0.000 C 
ATOM      7  N   UNL     1      60.302  65.509  71.131  0.00  0.00    +0.000 N 
ATOM      8  C   UNL     1      60.083  65.549  70.337  0.00  0.00    +0.000 C 
ATOM      9  C   UNL     1      60.603  64.805  71.440  0.00  0.00    +0.000 A 
ATOM     10  C   UNL     1      60.822  64.765  72.235  0.00  0.00    +0.000 A 
ATOM     11  F   UNL     1      60.741  65.428  72.719  0.00  0.00    +0.000 F 
ATOM     12  C   UNL     1      61.123  64.062  72.544  0.00  0.00    +0.000 A 
ATOM     13  C   UNL     1      61.204  63.400  72.060  0.00  0.00    +0.000 A 
ATOM     14  C   UNL     1      61.504  62.696  72.370  0.00  0.00    +0.000 A 
ATOM     15  O   UNL     1      61.724  62.656  73.164  0.00  0.00    +0.000 OA
ATOM     16  C   UNL     1      61.585  62.034  71.886  0.00  0.00    +0.000 A 
ATOM     17  C   UNL     1      61.366  62.074  71.090  0.00  0.00    +0.000 A 
ATOM     18  N   UNL     1      61.065  62.777  70.781  0.00  0.00    +0.000 N 
ATOM     19  C   UNL     1      60.846  62.817  69.987  0.00  0.00    +0.000 C 
ATOM     20  C   UNL     1      60.766  62.459  69.249  0.00  0.00    +0.000 C 
ATOM     21  C   UNL     1      60.546  63.247  69.350  0.00  0.00    +0.000 C 
ATOM     22  C   UNL     1      60.984  63.440  71.265  0.00  0.00    +0.000 A 
ATOM     23  C   UNL     1      60.684  64.143  70.956  0.00  0.00    +0.000 A 
ATOM     24  O   UNL     1      60.464  64.183  70.162  0.00  0.00    +0.000 OA
ATOM     25  C   UNL     1      60.164  64.886  69.851  0.00  0.00    +0.000 C 
ATOM     26  C   UNL     1      61.886  61.330  72.195  0.00  0.00    +0.000 C 
ATOM     27  O   UNL     1      62.105  61.290  72.989  0.00  0.00    +0.000 OA
ATOM     28  O   UNL     1      61.967  60.668  71.711  0.00  0.00    +0.000 OA
ENDROOT
TORSDOF 0
ENDMDL
MODEL 6
REMARK VINA RESULT:   -11.578      3.499      4.495
REMARK INTER + INTRA:         -11.578
REMARK INTER:                 -11.578
REMARK INTRA:                   0.000
REMARK UNBOUND:                 0.000
ROOT
REMARK  Name = balofloxacin
REMARK                            x       y       z     vdW  Elec       q    Type
REMARK                         _______ _______ _______ _____ _____    ______ ____
ATOM      1  C   UNL     1      58.408  65.395  72.860  0.00  0.00    +0.000 C 
ATOM      2  N   UNL     1      59.191  65.627  72.741  0.00  0.00    +0.000 NA
ATOM      3  C   UNL     1      59.713  65.129  72.344  0.00  0.00    +0.000 C 
ATOM      4  C   UNL     1      59.455  64.397  72.064  0.00  0.00    +0.000 C 
ATOM      5  C   UNL     1      59.978  63.899  71.667  0.00  0.00    +0.000 C 
ATOM      6  C   UNL     1      60.760  64.131  71.549  0.00  0.00    +0.000 C 
ATOM      7  N   UNL     1      61.020  64.863  71.828  0.00  0.00    +0.000 N 
ATOM      8  C   UNL     1      60.497  65.362  72.226  0.00  0.00    +0.000 C 
ATOM      9  C   UNL     1      61.802  65.097  71.710  0.00  0.00    +0.000 A 
ATOM     10  C   UNL     1      62.326  64.597  71.312  0.00  0.00    +0.000 A 
ATOM     11  F   UNL     1      62.066  63.866  71.033  0.00  0.00    +0.000 F 
ATOM     12  C   UNL     1      63.108  64.830  71.194  0.00  0.00    +0.000 A 
ATOM     13  C   UNL     1      63.368  65.561  71.474  0.00  0.00    +0.000 A 
ATOM     14  C   UNL     1      64.150  65.795  71.356  0.00  0.00    +0.000 A 
ATOM     15  O   UNL     1      64.673  65.296  70.958  0.00  0.00    +0.000 OA
ATOM     16  C   UNL     1      64.410  66.526  71.635  0.00  0.00    +0.000 A 
ATOM     17  C   UNL     1      63.886  67.025  72.033  0.00  0.00    +0.000 A 
ATOM     18  N   UNL     1      63.104  66.792  72.151  0.00  0.00    +0.000 N 
ATOM     19  C   UNL     1      62.581  67.291  72.549  0.00  0.00    +0.000 C 
ATOM     20  C   UNL     1      62.428  68.000  72.939  0.00  0.00    +0.000 C 
ATOM     21  C   UNL     1      61.827  67.444  72.846  0.00  0.00    +0.000 C 
ATOM     22  C   UNL     1      62.844  66.060  71.872  0.00  0.00    +0.000 A 
ATOM     23  C   UNL     1      62.062  65.828  71.990  0.00  0.00    +0.000 A 
ATOM     24  O   UNL     1      61.539  66.326  72.387  0.00  0.00    +0.000 OA
ATOM     25  C   UNL     1      60.756  66.094  72.506  0.00  0.00    +0.000 C 
ATOM     26  C   UNL     1      65.192  66.759  71.517  0.00  0.00    +0.000 C 
ATOM     27  O   UNL     1      65.715  66.260  71.120  0.00  0.00    +0.000 OA
ATOM     28  O   UNL     1      65.452  67.490  71.796  0.00  0.00    +0.000 OA
ENDROOT
TORSDOF 0
ENDMDL
MODEL 7
REMARK VINA RESULT:   -11.516      3.524      4.612
REMARK INTER + INTRA:         -11.516
REMARK INTER:                 -11.516
REMARK INTRA:                   0.000
REMARK UNBOUND:                 0.000
ROOT
REMARK  Name = balofloxacin
REMARK                            x       y       z     vdW  Elec       q    Type
REMARK                         _______ _______ _______ _____ _____    ______ ____
ATOM      1  C   UNL     1      65.378  67.616  71.371  0.00  0.00    +0.000 C 
ATOM      2  N   UNL     1      64.757  67.076  71.408  0.00  0.00    +0.000 NA
ATOM      3  C   UNL     1      64.640  66.539  70.793  0.00  0.00    +0.000 C 
ATOM      4  C   UNL     1      65.144  66.543  70.140  0.00  0.00    +0.000 C 
ATOM      5  C   UNL     1      65.026  66.006  69.525  0.00  0.00    +0.000 C 
ATOM      6  C   UNL     1      64.405  65.466  69.562  0.00  0.00    +0.000 C 
ATOM      7  N   UNL     1      63.900  65.461  70.215  0.00  0.00    +0.000 N 
ATOM      8  C   UNL     1      64.017  65.998  70.830  0.00  0.00    +0.000 C 
ATOM      9  C   UNL     1      63.277  64.921  70.253  0.00  0.00    +0.000 A 
ATOM     10  C   UNL     1      63.160  64.383  69.637  0.00  0.00    +0.000 A 
ATOM     11  F   UNL     1      63.665  64.388  68.984  0.00  0.00    +0.000 F 
ATOM     12  C   UNL     1      62.538  63.843  69.674  0.00  0.00    +0.000 A 
ATOM     13  C   UNL     1      62.034  63.839  70.327  0.00  0.00    +0.000 A 
ATOM     14  C   UNL     1      61.412  63.298  70.365  0.00  0.00    +0.000 A 
ATOM     15  O   UNL     1      61.294  62.761  69.749  0.00  0.00    +0.000 OA
ATOM     16  C   UNL     1      60.908  63.294  71.017  0.00  0.00    +0.000 A 
ATOM     17  C   UNL     1      61.025  63.832  71.633  0.00  0.00    +0.000 A 
ATOM     18  N   UNL     1      61.647  64.372  71.595  0.00  0.00    +0.000 N 
ATOM     19  C   UNL     1      61.764  64.909  72.211  0.00  0.00    +0.000 C 
ATOM     20  C   UNL     1      61.541  65.216  72.942  0.00  0.00    +0.000 C 
ATOM     21  C   UNL     1      62.191  65.531  72.544  0.00  0.00    +0.000 C 
ATOM     22  C   UNL     1      62.152  64.376  70.943  0.00  0.00    +0.000 A 
ATOM     23  C   UNL     1      62.773  64.917  70.905  0.00  0.00    +0.000 A 
ATOM     24  O   UNL     1      62.891  65.453  71.521  0.00  0.00    +0.000 OA
ATOM     25  C   UNL     1      63.512  65.994  71.484  0.00  0.00    +0.000 C 
ATOM     26  C   UNL     1      60.285  62.754  71.055  0.00  0.00    +0.000 C 
ATOM     27  O   UNL     1      60.168  62.217  70.439  0.00  0.00    +0.000 OA
ATOM     28  O   UNL     1      59.781  62.750  71.707  0.00  0.00    +0.000 OA
ENDROOT
TORSDOF 0
ENDMDL
MODEL 8
REMARK VINA RESULT:   -11.511      3.730      4.510
REMARK INTER + INTRA:         -11.511
REMARK INTER:                 -11.511
REMARK INTRA:                   0.000
REMARK UNBOUND:                 0.000
ROOT
REMARK  Name = balofloxacin
REMARK                            x       y       z     vdW  Elec       q    Type
REMARK                         _______ _______ _______ _____ _____    ______ ____
ATOM      1  C   UNL     1      65.977  67.265  69.847  0.00  0.00    +0.000 C 
ATOM      2  N   UNL     1      65.327  66.776  69.985  0.00  0.00    +0.000 NA
ATOM      3  C   UNL     1      64.903  66.842  70.689  0.00  0.00    +0.000 C 
ATOM      4  C   UNL     1      65.128  67.397  71.256  0.00  0.00    +0.000 C 
ATOM      5  C   UNL     1      64.704  67.464  71.960  0.00  0.00    +0.000 C 
ATOM      6  C   UNL     1      64.055  66.975  72.098  0.00  0.00    +0.000 C 
ATOM      7  N   UNL     1      63.828  66.419  71.531  0.00  0.00    +0.000 N 
ATOM      8  C   UNL     1      64.253  66.353  70.827  0.00  0.00    +0.000 C 
ATOM      9  C   UNL     1      63.179  65.929  71.668  0.00  0.00    +0.000 A 
ATOM     10  C   UNL     1      62.754  65.995  72.374  0.00  0.00    +0.000 A 
ATOM     11  F   UNL     1      62.980  66.551  72.940  0.00  0.00    +0.000 F 
ATOM     12  C   UNL     1      62.104  65.506  72.511  0.00  0.00    +0.000 A 
ATOM     13  C   UNL     1      61.879  64.951  71.945  0.00  0.00    +0.000 A 
ATOM     14  C   UNL     1      61.229  64.462  72.082  0.00  0.00    +0.000 A 
ATOM     15  O   UNL     1      60.805  64.528  72.786  0.00  0.00    +0.000 OA
ATOM     16  C   UNL     1      61.004  63.906  71.516  0.00  0.00    +0.000 A 
ATOM     17  C   UNL     1      61.428  63.840  70.811  0.00  0.00    +0.000 A 
ATOM     18  N   UNL     1      62.078  64.329  70.673  0.00  0.00    +0.000 N 
ATOM     19  C   UNL     1      62.502  64.263  69.969  0.00  0.00    +0.000 C 
ATOM     20  C   UNL     1      62.617  63.904  69.235  0.00  0.00    +0.000 C 
ATOM     21  C   UNL     1      63.122  64.508  69.483  0.00  0.00    +0.000 C 
ATOM     22  C   UNL     1      62.304  64.885  71.240  0.00  0.00    +0.000 A 
ATOM     23  C   UNL     1      62.953  65.374  71.102  0.00  0.00    +0.000 A 
ATOM     24  O   UNL     1      63.377  65.308  70.398  0.00  0.00    +0.000 OA
ATOM     25  C   UNL     1      64.027  65.797  70.260  0.00  0.00    +0.000 C 
ATOM     26  C   UNL     1      60.354  63.417  71.653  0.00  0.00    +0.000 C 
ATOM     27  O   UNL     1      59.929  63.483  72.357  0.00  0.00    +0.000 OA
ATOM     28  O   UNL     1      60.128  62.862  71.087  0.00  0.00    +0.000 OA
ENDROOT
TORSDOF 0
ENDMDL
MODEL 9
REMARK VINA RESULT:   -11.442      2.159      4.110
REMARK INTER + INTRA:         -11.442
REMARK INTER:                 -11.442
REMARK INTRA:                   0.000
REMARK UNBOUND:                 0.000
ROOT
REMARK  Name = balofloxacin
REMARK                            x       y       z     vdW  Elec       q    Type
REMARK                         _______ _______ _______ _____ _____    ______ ____
ATOM      1  C   UNL     1      61.952  65.383  73.193  0.00  0.00    +0.000 C 
ATOM      2  N   UNL     1      61.720  65.116  72.448  0.00  0.00    +0.000 NA
ATOM      3  C   UNL     1      61.548  64.318  72.332  0.00  0.00    +0.000 C 
ATOM      4  C   UNL     1      61.608  63.787  72.959  0.00  0.00    +0.000 C 
ATOM      5  C   UNL     1      61.435  62.988  72.843  0.00  0.00    +0.000 C 
ATOM      6  C   UNL     1      61.203  62.721  72.098  0.00  0.00    +0.000 C 
ATOM      7  N   UNL     1      61.142  63.252  71.469  0.00  0.00    +0.000 N 
ATOM      8  C   UNL     1      61.315  64.050  71.586  0.00  0.00    +0.000 C 
ATOM      9  C   UNL     1      60.910  62.985  70.724  0.00  0.00    +0.000 A 
ATOM     10  C   UNL     1      60.737  62.186  70.607  0.00  0.00    +0.000 A 
ATOM     11  F   UNL     1      60.798  61.655  71.236  0.00  0.00    +0.000 F 
ATOM     12  C   UNL     1      60.505  61.919  69.863  0.00  0.00    +0.000 A 
ATOM     13  C   UNL     1      60.444  62.449  69.235  0.00  0.00    +0.000 A 
ATOM     14  C   UNL     1      60.212  62.183  68.489  0.00  0.00    +0.000 A 
ATOM     15  O   UNL     1      60.040  61.384  68.373  0.00  0.00    +0.000 OA
ATOM     16  C   UNL     1      60.151  62.713  67.861  0.00  0.00    +0.000 A 
ATOM     17  C   UNL     1      60.324  63.512  67.978  0.00  0.00    +0.000 A 
ATOM     18  N   UNL     1      60.556  63.779  68.722  0.00  0.00    +0.000 N 
ATOM     19  C   UNL     1      60.729  64.578  68.839  0.00  0.00    +0.000 C 
ATOM     20  C   UNL     1      60.793  65.345  68.544  0.00  0.00    +0.000 C 
ATOM     21  C   UNL     1      60.962  65.193  69.337  0.00  0.00    +0.000 C 
ATOM     22  C   UNL     1      60.617  63.249  69.351  0.00  0.00    +0.000 A 
ATOM     23  C   UNL     1      60.849  63.516  70.096  0.00  0.00    +0.000 A 
ATOM     24  O   UNL     1      61.022  64.314  70.212  0.00  0.00    +0.000 OA
ATOM     25  C   UNL     1      61.254  64.582  70.957  0.00  0.00    +0.000 C 
ATOM     26  C   UNL     1      59.919  62.446  67.116  0.00  0.00    +0.000 C 
ATOM     27  O   UNL     1      59.746  61.648  66.999  0.00  0.00    +0.000 OA
ATOM     28  O   UNL     1      59.858  62.977  66.488  0.00  0.00    +0.000 OA
ENDROOT
TORSDOF 0
ENDMDL
