MODEL 1
REMARK VINA RESULT:   -12.594      0.000      0.000
REMARK INTER + INTRA:         -12.594
REMARK INTER:                 -12.594
REMARK INTRA:                   0.000
REMARK UNBOUND:                 0.000
ROOT
REMARK  Name = balsalazide
REMARK                            x       y       z     vdW  Elec       q    Type
REMARK                         _______ _______ _______ _____ _____    ______ ____
ATOM      1  O   UNL     1      62.368  65.874  72.848  0.00  0.00    +0.000 OA
ATOM      2  C   UNL     1      61.765  65.448  72.478  0.00  0.00    +0.000 C 
ATOM      3  O   UNL     1      61.050  65.320  72.869  0.00  0.00    +0.000 OA
ATOM      4  C   UNL     1      61.879  65.151  71.717  0.00  0.00    +0.000 C 
ATOM      5  C   UNL     1      61.276  64.724  71.347  0.00  0.00    +0.000 C 
ATOM      6  N   UNL     1      61.390  64.427  70.586  0.00  0.00    +0.000 NA
ATOM      7  C   UNL     1      60.787  64.000  70.216  0.00  0.00    +0.000 C 
ATOM      8  O   UNL     1      60.072  63.872  70.607  0.00  0.00    +0.000 OA
ATOM      9  C   UNL     1      60.901  63.703  69.455  0.00  0.00    +0.000 A 
ATOM     10  C   UNL     1      60.298  63.277  69.085  0.00  0.00    +0.000 A 
ATOM     11  C   UNL     1      60.412  62.979  68.324  0.00  0.00    +0.000 A 
ATOM     12  C   UNL     1      61.126  63.107  67.934  0.00  0.00    +0.000 A 
ATOM     13  C   UNL     1      61.728  63.533  68.303  0.00  0.00    +0.000 A 
ATOM     14  C   UNL     1      61.615  63.831  69.065  0.00  0.00    +0.000 A 
ATOM     15  N   UNL     1      61.239  62.810  67.172  0.00  0.00    +0.000 NA
ATOM     16  N   UNL     1      60.637  62.384  66.803  0.00  0.00    +0.000 NA
ATOM     17  C   UNL     1      60.750  62.086  66.041  0.00  0.00    +0.000 A 
ATOM     18  C   UNL     1      60.148  61.660  65.672  0.00  0.00    +0.000 A 
ATOM     19  C   UNL     1      60.262  61.363  64.911  0.00  0.00    +0.000 A 
ATOM     20  C   UNL     1      60.977  61.491  64.520  0.00  0.00    +0.000 A 
ATOM     21  O   UNL     1      61.089  61.193  63.758  0.00  0.00    +0.000 OA
ATOM     22  C   UNL     1      61.578  61.917  64.889  0.00  0.00    +0.000 A 
ATOM     23  C   UNL     1      61.465  62.214  65.650  0.00  0.00    +0.000 A 
ATOM     24  C   UNL     1      62.293  62.045  64.498  0.00  0.00    +0.000 C 
ATOM     25  O   UNL     1      62.895  62.471  64.867  0.00  0.00    +0.000 OA
ATOM     26  O   UNL     1      62.407  61.747  63.737  0.00  0.00    +0.000 OA
ENDROOT
TORSDOF 0
ENDMDL
MODEL 2
REMARK VINA RESULT:   -12.386      1.034      6.460
REMARK INTER + INTRA:         -12.386
REMARK INTER:                 -12.386
REMARK INTRA:                   0.000
REMARK UNBOUND:                 0.000
ROOT
REMARK  Name = balsalazide
REMARK                            x       y       z     vdW  Elec       q    Type
REMARK                         _______ _______ _______ _____ _____    ______ ____
ATOM      1  O   UNL     1      62.651  61.638  63.585  0.00  0.00    +0.000 OA
ATOM      2  C   UNL     1      61.990  61.650  64.079  0.00  0.00    +0.000 C 
ATOM      3  O   UNL     1      61.274  61.333  63.820  0.00  0.00    +0.000 OA
ATOM      4  C   UNL     1      62.046  61.981  64.833  0.00  0.00    +0.000 C 
ATOM      5  C   UNL     1      61.384  61.993  65.328  0.00  0.00    +0.000 C 
ATOM      6  N   UNL     1      61.440  62.324  66.081  0.00  0.00    +0.000 NA
ATOM      7  C   UNL     1      60.779  62.336  66.576  0.00  0.00    +0.000 C 
ATOM      8  O   UNL     1      60.063  62.018  66.316  0.00  0.00    +0.000 OA
ATOM      9  C   UNL     1      60.835  62.666  67.330  0.00  0.00    +0.000 A 
ATOM     10  C   UNL     1      60.174  62.679  67.824  0.00  0.00    +0.000 A 
ATOM     11  C   UNL     1      60.229  63.009  68.578  0.00  0.00    +0.000 A 
ATOM     12  C   UNL     1      60.944  63.327  68.837  0.00  0.00    +0.000 A 
ATOM     13  C   UNL     1      61.605  63.314  68.344  0.00  0.00    +0.000 A 
ATOM     14  C   UNL     1      61.550  62.984  67.589  0.00  0.00    +0.000 A 
ATOM     15  N   UNL     1      61.000  63.657  69.592  0.00  0.00    +0.000 NA
ATOM     16  N   UNL     1      60.339  63.670  70.085  0.00  0.00    +0.000 NA
ATOM     17  C   UNL     1      60.394  64.000  70.840  0.00  0.00    +0.000 A 
ATOM     18  C   UNL     1      59.734  64.012  71.334  0.00  0.00    +0.000 A 
ATOM     19  C   UNL     1      59.789  64.343  72.087  0.00  0.00    +0.000 A 
ATOM     20  C   UNL     1      60.505  64.661  72.347  0.00  0.00    +0.000 A 
ATOM     21  O   UNL     1      60.560  64.991  73.101  0.00  0.00    +0.000 OA
ATOM     22  C   UNL     1      61.165  64.648  71.853  0.00  0.00    +0.000 A 
ATOM     23  C   UNL     1      61.110  64.318  71.100  0.00  0.00    +0.000 A 
ATOM     24  C   UNL     1      61.881  64.966  72.113  0.00  0.00    +0.000 C 
ATOM     25  O   UNL     1      62.541  64.953  71.619  0.00  0.00    +0.000 OA
ATOM     26  O   UNL     1      61.936  65.296  72.867  0.00  0.00    +0.000 OA
ENDROOT
TORSDOF 0
ENDMDL
MODEL 3
REMARK VINA RESULT:   -11.157      2.707      3.536
REMARK INTER + INTRA:         -11.157
REMARK INTER:                 -11.157
REMARK INTRA:                   0.000
REMARK UNBOUND:                 0.000
ROOT
REMARK  Name = balsalazide
REMARK                            x       y       z     vdW  Elec       q    Type
REMARK                         _______ _______ _______ _____ _____    ______ ____
ATOM      1  O   UNL     1      67.141  67.577  71.087  0.00  0.00    +0.000 OA
ATOM      2  C   UNL     1      66.513  67.128  71.379  0.00  0.00    +0.000 C 
ATOM      3  O   UNL     1      66.384  67.077  72.192  0.00  0.00    +0.000 OA
ATOM      4  C   UNL     1      66.014  66.729  70.857  0.00  0.00    +0.000 C 
ATOM      5  C   UNL     1      65.386  66.280  71.148  0.00  0.00    +0.000 C 
ATOM      6  N   UNL     1      64.887  65.882  70.626  0.00  0.00    +0.000 NA
ATOM      7  C   UNL     1      64.259  65.432  70.917  0.00  0.00    +0.000 C 
ATOM      8  O   UNL     1      64.130  65.382  71.731  0.00  0.00    +0.000 OA
ATOM      9  C   UNL     1      63.760  65.034  70.395  0.00  0.00    +0.000 A 
ATOM     10  C   UNL     1      63.131  64.585  70.686  0.00  0.00    +0.000 A 
ATOM     11  C   UNL     1      62.633  64.186  70.164  0.00  0.00    +0.000 A 
ATOM     12  C   UNL     1      62.761  64.237  69.351  0.00  0.00    +0.000 A 
ATOM     13  C   UNL     1      63.389  64.686  69.060  0.00  0.00    +0.000 A 
ATOM     14  C   UNL     1      63.888  65.085  69.582  0.00  0.00    +0.000 A 
ATOM     15  N   UNL     1      62.262  63.838  68.829  0.00  0.00    +0.000 NA
ATOM     16  N   UNL     1      61.634  63.389  69.121  0.00  0.00    +0.000 NA
ATOM     17  C   UNL     1      61.135  62.991  68.598  0.00  0.00    +0.000 A 
ATOM     18  C   UNL     1      60.507  62.542  68.890  0.00  0.00    +0.000 A 
ATOM     19  C   UNL     1      60.008  62.144  68.367  0.00  0.00    +0.000 A 
ATOM     20  C   UNL     1      60.137  62.194  67.554  0.00  0.00    +0.000 A 
ATOM     21  O   UNL     1      59.637  61.795  67.032  0.00  0.00    +0.000 OA
ATOM     22  C   UNL     1      60.764  62.643  67.263  0.00  0.00    +0.000 A 
ATOM     23  C   UNL     1      61.263  63.041  67.785  0.00  0.00    +0.000 A 
ATOM     24  C   UNL     1      60.893  62.693  66.450  0.00  0.00    +0.000 C 
ATOM     25  O   UNL     1      61.520  63.142  66.158  0.00  0.00    +0.000 OA
ATOM     26  O   UNL     1      60.394  62.295  65.927  0.00  0.00    +0.000 OA
ENDROOT
TORSDOF 0
ENDMDL
MODEL 4
REMARK VINA RESULT:   -10.873      1.772      6.521
REMARK INTER + INTRA:         -10.873
REMARK INTER:                 -10.873
REMARK INTRA:                   0.000
REMARK UNBOUND:                 0.000
ROOT
REMARK  Name = balsalazide
REMARK                            x       y       z     vdW  Elec       q    Type
REMARK                         _______ _______ _______ _____ _____    ______ ____
ATOM      1  O   UNL     1      60.494  61.224  64.914  0.00  0.00    +0.000 OA
ATOM      2  C   UNL     1      60.173  61.653  65.542  0.00  0.00    +0.000 C 
ATOM      3  O   UNL     1      59.356  61.672  65.654  0.00  0.00    +0.000 OA
ATOM      4  C   UNL     1      60.670  62.062  66.058  0.00  0.00    +0.000 C 
ATOM      5  C   UNL     1      60.350  62.491  66.686  0.00  0.00    +0.000 C 
ATOM      6  N   UNL     1      60.847  62.900  67.202  0.00  0.00    +0.000 NA
ATOM      7  C   UNL     1      60.526  63.328  67.830  0.00  0.00    +0.000 C 
ATOM      8  O   UNL     1      59.709  63.348  67.942  0.00  0.00    +0.000 OA
ATOM      9  C   UNL     1      61.023  63.738  68.346  0.00  0.00    +0.000 A 
ATOM     10  C   UNL     1      60.702  64.166  68.975  0.00  0.00    +0.000 A 
ATOM     11  C   UNL     1      61.200  64.575  69.490  0.00  0.00    +0.000 A 
ATOM     12  C   UNL     1      62.016  64.556  69.378  0.00  0.00    +0.000 A 
ATOM     13  C   UNL     1      62.337  64.128  68.751  0.00  0.00    +0.000 A 
ATOM     14  C   UNL     1      61.839  63.718  68.234  0.00  0.00    +0.000 A 
ATOM     15  N   UNL     1      62.513  64.966  69.895  0.00  0.00    +0.000 NA
ATOM     16  N   UNL     1      62.192  65.394  70.522  0.00  0.00    +0.000 NA
ATOM     17  C   UNL     1      62.690  65.804  71.039  0.00  0.00    +0.000 A 
ATOM     18  C   UNL     1      62.369  66.232  71.667  0.00  0.00    +0.000 A 
ATOM     19  C   UNL     1      62.866  66.641  72.182  0.00  0.00    +0.000 A 
ATOM     20  C   UNL     1      63.683  66.622  72.070  0.00  0.00    +0.000 A 
ATOM     21  O   UNL     1      64.179  67.032  72.587  0.00  0.00    +0.000 OA
ATOM     22  C   UNL     1      64.003  66.194  71.443  0.00  0.00    +0.000 A 
ATOM     23  C   UNL     1      63.507  65.785  70.927  0.00  0.00    +0.000 A 
ATOM     24  C   UNL     1      64.820  66.175  71.331  0.00  0.00    +0.000 C 
ATOM     25  O   UNL     1      65.141  65.746  70.703  0.00  0.00    +0.000 OA
ATOM     26  O   UNL     1      65.317  66.584  71.846  0.00  0.00    +0.000 OA
ENDROOT
TORSDOF 0
ENDMDL
MODEL 5
REMARK VINA RESULT:   -10.342      3.355      5.254
REMARK INTER + INTRA:         -10.342
REMARK INTER:                 -10.342
REMARK INTRA:                   0.000
REMARK UNBOUND:                 0.000
ROOT
REMARK  Name = balsalazide
REMARK                            x       y       z     vdW  Elec       q    Type
REMARK                         _______ _______ _______ _____ _____    ______ ____
ATOM      1  O   UNL     1      67.398  68.233  69.225  0.00  0.00    +0.000 OA
ATOM      2  C   UNL     1      66.968  67.942  69.867  0.00  0.00    +0.000 C 
ATOM      3  O   UNL     1      67.127  68.216  70.629  0.00  0.00    +0.000 OA
ATOM      4  C   UNL     1      66.380  67.376  69.747  0.00  0.00    +0.000 C 
ATOM      5  C   UNL     1      65.950  67.085  70.389  0.00  0.00    +0.000 C 
ATOM      6  N   UNL     1      65.362  66.519  70.268  0.00  0.00    +0.000 NA
ATOM      7  C   UNL     1      64.932  66.228  70.910  0.00  0.00    +0.000 C 
ATOM      8  O   UNL     1      65.091  66.503  71.672  0.00  0.00    +0.000 OA
ATOM      9  C   UNL     1      64.344  65.663  70.790  0.00  0.00    +0.000 A 
ATOM     10  C   UNL     1      63.914  65.371  71.432  0.00  0.00    +0.000 A 
ATOM     11  C   UNL     1      63.326  64.806  71.311  0.00  0.00    +0.000 A 
ATOM     12  C   UNL     1      63.167  64.532  70.551  0.00  0.00    +0.000 A 
ATOM     13  C   UNL     1      63.596  64.822  69.909  0.00  0.00    +0.000 A 
ATOM     14  C   UNL     1      64.185  65.388  70.029  0.00  0.00    +0.000 A 
ATOM     15  N   UNL     1      62.578  63.965  70.430  0.00  0.00    +0.000 NA
ATOM     16  N   UNL     1      62.149  63.675  71.072  0.00  0.00    +0.000 NA
ATOM     17  C   UNL     1      61.561  63.109  70.952  0.00  0.00    +0.000 A 
ATOM     18  C   UNL     1      61.132  62.818  71.594  0.00  0.00    +0.000 A 
ATOM     19  C   UNL     1      60.543  62.253  71.473  0.00  0.00    +0.000 A 
ATOM     20  C   UNL     1      60.384  61.978  70.711  0.00  0.00    +0.000 A 
ATOM     21  O   UNL     1      59.796  61.412  70.592  0.00  0.00    +0.000 OA
ATOM     22  C   UNL     1      60.814  62.269  70.071  0.00  0.00    +0.000 A 
ATOM     23  C   UNL     1      61.402  62.834  70.190  0.00  0.00    +0.000 A 
ATOM     24  C   UNL     1      60.655  61.994  69.309  0.00  0.00    +0.000 C 
ATOM     25  O   UNL     1      61.084  62.285  68.667  0.00  0.00    +0.000 OA
ATOM     26  O   UNL     1      60.066  61.429  69.188  0.00  0.00    +0.000 OA
ENDROOT
TORSDOF 0
ENDMDL
MODEL 6
REMARK VINA RESULT:    -9.663     14.312     14.602
REMARK INTER + INTRA:          -9.663
REMARK INTER:                  -9.663
REMARK INTRA:                   0.000
REMARK UNBOUND:                 0.000
ROOT
REMARK  Name = balsalazide
REMARK                            x       y       z     vdW  Elec       q    Type
REMARK                         _______ _______ _______ _____ _____    ______ ____
ATOM      1  O   UNL     1      62.402  70.638  55.234  0.00  0.00    +0.000 OA
ATOM      2  C   UNL     1      61.956  70.073  54.830  0.00  0.00    +0.000 C 
ATOM      3  O   UNL     1      61.250  70.289  54.464  0.00  0.00    +0.000 OA
ATOM      4  C   UNL     1      62.218  69.291  54.794  0.00  0.00    +0.000 C 
ATOM      5  C   UNL     1      61.772  68.726  54.390  0.00  0.00    +0.000 C 
ATOM      6  N   UNL     1      62.034  67.945  54.353  0.00  0.00    +0.000 NA
ATOM      7  C   UNL     1      61.588  67.379  53.949  0.00  0.00    +0.000 C 
ATOM      8  O   UNL     1      60.882  67.596  53.582  0.00  0.00    +0.000 OA
ATOM      9  C   UNL     1      61.850  66.598  53.912  0.00  0.00    +0.000 A 
ATOM     10  C   UNL     1      61.404  66.032  53.508  0.00  0.00    +0.000 A 
ATOM     11  C   UNL     1      61.666  65.251  53.472  0.00  0.00    +0.000 A 
ATOM     12  C   UNL     1      62.372  65.035  53.838  0.00  0.00    +0.000 A 
ATOM     13  C   UNL     1      62.817  65.599  54.242  0.00  0.00    +0.000 A 
ATOM     14  C   UNL     1      62.556  66.381  54.279  0.00  0.00    +0.000 A 
ATOM     15  N   UNL     1      62.633  64.252  53.801  0.00  0.00    +0.000 NA
ATOM     16  N   UNL     1      62.188  63.688  53.397  0.00  0.00    +0.000 NA
ATOM     17  C   UNL     1      62.449  62.905  53.361  0.00  0.00    +0.000 A 
ATOM     18  C   UNL     1      62.004  62.341  52.957  0.00  0.00    +0.000 A 
ATOM     19  C   UNL     1      62.265  61.560  52.920  0.00  0.00    +0.000 A 
ATOM     20  C   UNL     1      62.972  61.343  53.287  0.00  0.00    +0.000 A 
ATOM     21  O   UNL     1      63.233  60.561  53.250  0.00  0.00    +0.000 OA
ATOM     22  C   UNL     1      63.417  61.908  53.690  0.00  0.00    +0.000 A 
ATOM     23  C   UNL     1      63.156  62.689  53.727  0.00  0.00    +0.000 A 
ATOM     24  C   UNL     1      64.123  61.691  54.057  0.00  0.00    +0.000 C 
ATOM     25  O   UNL     1      64.569  62.256  54.461  0.00  0.00    +0.000 OA
ATOM     26  O   UNL     1      64.385  60.910  54.021  0.00  0.00    +0.000 OA
ENDROOT
TORSDOF 0
ENDMDL
