MODEL 1
REMARK VINA RESULT:   -16.665      0.000      0.000
REMARK INTER + INTRA:         -16.665
REMARK INTER:                 -16.665
REMARK INTRA:                   0.000
REMARK UNBOUND:                 0.000
ROOT
REMARK  Name = belumosudil
REMARK                            x       y       z     vdW  Elec       q    Type
REMARK                         _______ _______ _______ _____ _____    ______ ____
ATOM      1  C   UNL     1      64.769  66.871  72.062  0.00  0.00    +0.000 C 
ATOM      2  C   UNL     1      64.622  66.438  71.374  0.00  0.00    +0.000 C 
ATOM      3  C   UNL     1      65.223  66.327  70.820  0.00  0.00    +0.000 C 
ATOM      4  N   UNL     1      63.874  66.118  71.242  0.00  0.00    +0.000 NA
ATOM      5  C   UNL     1      63.727  65.685  70.554  0.00  0.00    +0.000 C 
ATOM      6  O   UNL     1      64.328  65.574  70.000  0.00  0.00    +0.000 OA
ATOM      7  C   UNL     1      62.978  65.364  70.422  0.00  0.00    +0.000 C 
ATOM      8  O   UNL     1      62.831  64.932  69.734  0.00  0.00    +0.000 OA
ATOM      9  C   UNL     1      62.083  64.611  69.601  0.00  0.00    +0.000 A 
ATOM     10  C   UNL     1      61.481  64.723  70.155  0.00  0.00    +0.000 A 
ATOM     11  C   UNL     1      60.733  64.402  70.022  0.00  0.00    +0.000 A 
ATOM     12  C   UNL     1      60.586  63.970  69.335  0.00  0.00    +0.000 A 
ATOM     13  C   UNL     1      61.187  63.858  68.781  0.00  0.00    +0.000 A 
ATOM     14  C   UNL     1      61.935  64.179  68.914  0.00  0.00    +0.000 A 
ATOM     15  C   UNL     1      61.040  63.426  68.093  0.00  0.00    +0.000 A 
ATOM     16  N   UNL     1      60.291  63.105  67.961  0.00  0.00    +0.000 NA
ATOM     17  C   UNL     1      60.144  62.672  67.273  0.00  0.00    +0.000 A 
ATOM     18  C   UNL     1      59.396  62.352  67.141  0.00  0.00    +0.000 A 
ATOM     19  C   UNL     1      59.249  61.919  66.453  0.00  0.00    +0.000 A 
ATOM     20  C   UNL     1      59.850  61.808  65.899  0.00  0.00    +0.000 A 
ATOM     21  C   UNL     1      60.598  62.129  66.033  0.00  0.00    +0.000 A 
ATOM     22  C   UNL     1      60.745  62.561  66.719  0.00  0.00    +0.000 A 
ATOM     23  C   UNL     1      61.494  62.882  66.853  0.00  0.00    +0.000 A 
ATOM     24  N   UNL     1      61.641  63.314  67.539  0.00  0.00    +0.000 NA
ATOM     25  N   UNL     1      62.095  62.771  66.299  0.00  0.00    +0.000 NA
ATOM     26  C   UNL     1      61.948  62.338  65.611  0.00  0.00    +0.000 A 
ATOM     27  C   UNL     1      61.199  62.018  65.479  0.00  0.00    +0.000 A 
ATOM     28  C   UNL     1      61.052  61.585  64.791  0.00  0.00    +0.000 A 
ATOM     29  C   UNL     1      61.653  61.474  64.237  0.00  0.00    +0.000 A 
ATOM     30  C   UNL     1      62.401  61.795  64.371  0.00  0.00    +0.000 A 
ATOM     31  C   UNL     1      62.549  62.227  65.057  0.00  0.00    +0.000 A 
ATOM     32  N   UNL     1      61.347  61.026  63.616  0.00  0.00    +0.000 NA
ATOM     33  N   UNL     1      60.557  60.861  63.786  0.00  0.00    +0.000 NA
ATOM     34  C   UNL     1      60.375  61.206  64.512  0.00  0.00    +0.000 C 
ENDROOT
TORSDOF 0
ENDMDL
MODEL 2
REMARK VINA RESULT:   -16.310      1.595      6.571
REMARK INTER + INTRA:         -16.310
REMARK INTER:                 -16.310
REMARK INTRA:                   0.000
REMARK UNBOUND:                 0.000
ROOT
REMARK  Name = belumosudil
REMARK                            x       y       z     vdW  Elec       q    Type
REMARK                         _______ _______ _______ _____ _____    ______ ____
ATOM      1  C   UNL     1      60.852  60.925  63.999  0.00  0.00    +0.000 C 
ATOM      2  C   UNL     1      61.280  61.444  64.478  0.00  0.00    +0.000 C 
ATOM      3  C   UNL     1      61.940  61.836  64.175  0.00  0.00    +0.000 C 
ATOM      4  N   UNL     1      61.047  61.570  65.259  0.00  0.00    +0.000 NA
ATOM      5  C   UNL     1      61.475  62.088  65.739  0.00  0.00    +0.000 C 
ATOM      6  O   UNL     1      62.135  62.480  65.436  0.00  0.00    +0.000 OA
ATOM      7  C   UNL     1      61.243  62.214  66.520  0.00  0.00    +0.000 C 
ATOM      8  O   UNL     1      61.671  62.732  66.999  0.00  0.00    +0.000 OA
ATOM      9  C   UNL     1      61.438  62.858  67.780  0.00  0.00    +0.000 A 
ATOM     10  C   UNL     1      60.778  62.466  68.083  0.00  0.00    +0.000 A 
ATOM     11  C   UNL     1      60.547  62.593  68.865  0.00  0.00    +0.000 A 
ATOM     12  C   UNL     1      60.974  63.110  69.343  0.00  0.00    +0.000 A 
ATOM     13  C   UNL     1      61.634  63.502  69.041  0.00  0.00    +0.000 A 
ATOM     14  C   UNL     1      61.866  63.377  68.260  0.00  0.00    +0.000 A 
ATOM     15  C   UNL     1      62.062  64.021  69.520  0.00  0.00    +0.000 A 
ATOM     16  N   UNL     1      61.829  64.147  70.301  0.00  0.00    +0.000 NA
ATOM     17  C   UNL     1      62.257  64.665  70.780  0.00  0.00    +0.000 A 
ATOM     18  C   UNL     1      62.024  64.791  71.562  0.00  0.00    +0.000 A 
ATOM     19  C   UNL     1      62.452  65.309  72.041  0.00  0.00    +0.000 A 
ATOM     20  C   UNL     1      63.112  65.701  71.738  0.00  0.00    +0.000 A 
ATOM     21  C   UNL     1      63.344  65.575  70.956  0.00  0.00    +0.000 A 
ATOM     22  C   UNL     1      62.917  65.057  70.478  0.00  0.00    +0.000 A 
ATOM     23  C   UNL     1      63.149  64.931  69.696  0.00  0.00    +0.000 A 
ATOM     24  N   UNL     1      62.721  64.413  69.217  0.00  0.00    +0.000 NA
ATOM     25  N   UNL     1      63.808  65.323  69.393  0.00  0.00    +0.000 NA
ATOM     26  C   UNL     1      64.236  65.841  69.873  0.00  0.00    +0.000 A 
ATOM     27  C   UNL     1      64.004  65.967  70.654  0.00  0.00    +0.000 A 
ATOM     28  C   UNL     1      64.432  66.485  71.133  0.00  0.00    +0.000 A 
ATOM     29  C   UNL     1      65.092  66.877  70.830  0.00  0.00    +0.000 A 
ATOM     30  C   UNL     1      65.323  66.751  70.049  0.00  0.00    +0.000 A 
ATOM     31  C   UNL     1      64.896  66.233  69.570  0.00  0.00    +0.000 A 
ATOM     32  N   UNL     1      65.403  67.352  71.428  0.00  0.00    +0.000 NA
ATOM     33  N   UNL     1      64.935  67.253  72.101  0.00  0.00    +0.000 NA
ATOM     34  C   UNL     1      64.335  66.718  71.918  0.00  0.00    +0.000 C 
ENDROOT
TORSDOF 0
ENDMDL
