MODEL 1
REMARK VINA RESULT:   -12.068      0.000      0.000
REMARK INTER + INTRA:         -12.068
REMARK INTER:                 -12.068
REMARK INTRA:                   0.000
REMARK UNBOUND:                 0.000
ROOT
REMARK  Name = bemetizide
REMARK                            x       y       z     vdW  Elec       q    Type
REMARK                         _______ _______ _______ _____ _____    ______ ____
ATOM      1  C   UNL     1      62.608  62.408  65.388  0.00  0.00    +0.000 C 
ATOM      2  C   UNL     1      61.829  62.188  65.551  0.00  0.00    +0.000 C 
ATOM      3  C   UNL     1      61.477  62.415  66.261  0.00  0.00    +0.000 C 
ATOM      4  N   UNL     1      61.902  62.863  66.809  0.00  0.00    +0.000 NA
ATOM      5  C   UNL     1      61.550  63.091  67.519  0.00  0.00    +0.000 A 
ATOM      6  C   UNL     1      60.770  62.871  67.682  0.00  0.00    +0.000 A 
ATOM      7  C   UNL     1      60.418  63.098  68.392  0.00  0.00    +0.000 A 
ATOM      8  C   UNL     1      60.843  63.545  68.939  0.00  0.00    +0.000 A 
ATOM      9  C   UNL     1      61.622  63.765  68.776  0.00  0.00    +0.000 A 
ATOM     10 CL   UNL     1      62.047  64.212  69.324  0.00  0.00    +0.000 Cl
ATOM     11  C   UNL     1      61.974  63.537  68.066  0.00  0.00    +0.000 A 
ATOM     12  S   UNL     1      60.490  63.773  69.650  0.00  0.00    +0.000 S 
ATOM     13  N   UNL     1      60.138  64.000  70.359  0.00  0.00    +0.000 NA
ATOM     14  O   UNL     1      59.795  63.387  69.427  0.00  0.00    +0.000 OA
ATOM     15  O   UNL     1      61.186  64.158  69.871  0.00  0.00    +0.000 OA
ATOM     16  S   UNL     1      60.345  62.423  67.135  0.00  0.00    +0.000 S 
ATOM     17  O   UNL     1      59.776  62.505  67.726  0.00  0.00    +0.000 OA
ATOM     18  O   UNL     1      59.722  62.005  66.793  0.00  0.00    +0.000 OA
ATOM     19  N   UNL     1      60.698  62.195  66.424  0.00  0.00    +0.000 NA
ATOM     20  C   UNL     1      61.404  61.741  65.004  0.00  0.00    +0.000 A 
ATOM     21  C   UNL     1      61.757  61.513  64.294  0.00  0.00    +0.000 A 
ATOM     22  C   UNL     1      61.332  61.066  63.747  0.00  0.00    +0.000 A 
ATOM     23  C   UNL     1      60.552  60.846  63.910  0.00  0.00    +0.000 A 
ATOM     24  C   UNL     1      60.200  61.074  64.619  0.00  0.00    +0.000 A 
ATOM     25  C   UNL     1      60.625  61.521  65.167  0.00  0.00    +0.000 A 
ENDROOT
TORSDOF 0
ENDMDL
MODEL 2
REMARK VINA RESULT:   -11.979      2.186      5.037
REMARK INTER + INTRA:         -11.979
REMARK INTER:                 -11.979
REMARK INTRA:                   0.000
REMARK UNBOUND:                 0.000
ROOT
REMARK  Name = bemetizide
REMARK                            x       y       z     vdW  Elec       q    Type
REMARK                         _______ _______ _______ _____ _____    ______ ____
ATOM      1  C   UNL     1      60.115  62.220  71.071  0.00  0.00    +0.000 C 
ATOM      2  C   UNL     1      60.716  62.739  70.847  0.00  0.00    +0.000 C 
ATOM      3  C   UNL     1      60.905  62.830  70.049  0.00  0.00    +0.000 C 
ATOM      4  N   UNL     1      60.494  62.403  69.476  0.00  0.00    +0.000 NA
ATOM      5  C   UNL     1      60.682  62.495  68.677  0.00  0.00    +0.000 A 
ATOM      6  C   UNL     1      61.284  63.014  68.453  0.00  0.00    +0.000 A 
ATOM      7  C   UNL     1      61.473  63.106  67.655  0.00  0.00    +0.000 A 
ATOM      8  C   UNL     1      61.061  62.679  67.082  0.00  0.00    +0.000 A 
ATOM      9  C   UNL     1      60.459  62.160  67.307  0.00  0.00    +0.000 A 
ATOM     10 CL   UNL     1      60.048  61.733  66.733  0.00  0.00    +0.000 Cl
ATOM     11  C   UNL     1      60.271  62.068  68.104  0.00  0.00    +0.000 A 
ATOM     12  S   UNL     1      61.250  62.770  66.284  0.00  0.00    +0.000 S 
ATOM     13  N   UNL     1      61.438  62.862  65.487  0.00  0.00    +0.000 NA
ATOM     14  O   UNL     1      61.835  63.317  66.486  0.00  0.00    +0.000 OA
ATOM     15  O   UNL     1      60.665  62.224  66.084  0.00  0.00    +0.000 OA
ATOM     16  S   UNL     1      61.695  63.441  69.027  0.00  0.00    +0.000 S 
ATOM     17  O   UNL     1      62.073  63.714  68.346  0.00  0.00    +0.000 OA
ATOM     18  O   UNL     1      62.238  63.963  69.363  0.00  0.00    +0.000 OA
ATOM     19  N   UNL     1      61.507  63.350  69.825  0.00  0.00    +0.000 NA
ATOM     20  C   UNL     1      61.128  63.165  71.420  0.00  0.00    +0.000 A 
ATOM     21  C   UNL     1      60.939  63.074  72.218  0.00  0.00    +0.000 A 
ATOM     22  C   UNL     1      61.351  63.500  72.791  0.00  0.00    +0.000 A 
ATOM     23  C   UNL     1      61.952  64.020  72.566  0.00  0.00    +0.000 A 
ATOM     24  C   UNL     1      62.141  64.111  71.769  0.00  0.00    +0.000 A 
ATOM     25  C   UNL     1      61.729  63.685  71.195  0.00  0.00    +0.000 A 
ENDROOT
TORSDOF 0
ENDMDL
MODEL 3
REMARK VINA RESULT:   -11.891      3.953      5.377
REMARK INTER + INTRA:         -11.891
REMARK INTER:                 -11.891
REMARK INTRA:                   0.000
REMARK UNBOUND:                 0.000
ROOT
REMARK  Name = bemetizide
REMARK                            x       y       z     vdW  Elec       q    Type
REMARK                         _______ _______ _______ _____ _____    ______ ____
ATOM      1  C   UNL     1      61.369  63.727  72.280  0.00  0.00    +0.000 C 
ATOM      2  C   UNL     1      61.573  63.604  71.490  0.00  0.00    +0.000 C 
ATOM      3  C   UNL     1      62.162  64.061  71.140  0.00  0.00    +0.000 C 
ATOM      4  N   UNL     1      62.549  64.644  71.579  0.00  0.00    +0.000 NA
ATOM      5  C   UNL     1      63.139  65.103  71.229  0.00  0.00    +0.000 A 
ATOM      6  C   UNL     1      63.343  64.979  70.438  0.00  0.00    +0.000 A 
ATOM      7  C   UNL     1      63.932  65.437  70.088  0.00  0.00    +0.000 A 
ATOM      8  C   UNL     1      64.318  66.018  70.527  0.00  0.00    +0.000 A 
ATOM      9  C   UNL     1      64.114  66.142  71.318  0.00  0.00    +0.000 A 
ATOM     10 CL   UNL     1      64.500  66.725  71.757  0.00  0.00    +0.000 Cl
ATOM     11  C   UNL     1      63.524  65.684  71.668  0.00  0.00    +0.000 A 
ATOM     12  S   UNL     1      64.908  66.477  70.177  0.00  0.00    +0.000 S 
ATOM     13  N   UNL     1      65.497  66.935  69.827  0.00  0.00    +0.000 NA
ATOM     14  O   UNL     1      64.802  66.069  69.467  0.00  0.00    +0.000 OA
ATOM     15  O   UNL     1      65.012  66.884  70.887  0.00  0.00    +0.000 OA
ATOM     16  S   UNL     1      62.956  64.396  70.000  0.00  0.00    +0.000 S 
ATOM     17  O   UNL     1      63.474  64.687  69.428  0.00  0.00    +0.000 OA
ATOM     18  O   UNL     1      62.751  63.916  69.362  0.00  0.00    +0.000 OA
ATOM     19  N   UNL     1      62.367  63.938  70.350  0.00  0.00    +0.000 NA
ATOM     20  C   UNL     1      61.187  63.022  71.052  0.00  0.00    +0.000 A 
ATOM     21  C   UNL     1      60.598  62.563  71.402  0.00  0.00    +0.000 A 
ATOM     22  C   UNL     1      60.212  61.981  70.963  0.00  0.00    +0.000 A 
ATOM     23  C   UNL     1      60.416  61.858  70.172  0.00  0.00    +0.000 A 
ATOM     24  C   UNL     1      61.005  62.315  69.822  0.00  0.00    +0.000 A 
ATOM     25  C   UNL     1      61.392  62.898  70.261  0.00  0.00    +0.000 A 
ENDROOT
TORSDOF 0
ENDMDL
MODEL 4
REMARK VINA RESULT:   -11.790      4.558      6.123
REMARK INTER + INTRA:         -11.790
REMARK INTER:                 -11.790
REMARK INTRA:                   0.000
REMARK UNBOUND:                 0.000
ROOT
REMARK  Name = bemetizide
REMARK                            x       y       z     vdW  Elec       q    Type
REMARK                         _______ _______ _______ _____ _____    ______ ____
ATOM      1  C   UNL     1      63.828  66.723  72.265  0.00  0.00    +0.000 C 
ATOM      2  C   UNL     1      63.965  66.331  71.552  0.00  0.00    +0.000 C 
ATOM      3  C   UNL     1      63.510  65.674  71.348  0.00  0.00    +0.000 C 
ATOM      4  N   UNL     1      62.917  65.408  71.857  0.00  0.00    +0.000 NA
ATOM      5  C   UNL     1      62.462  64.751  71.654  0.00  0.00    +0.000 A 
ATOM      6  C   UNL     1      62.599  64.359  70.940  0.00  0.00    +0.000 A 
ATOM      7  C   UNL     1      62.145  63.702  70.736  0.00  0.00    +0.000 A 
ATOM      8  C   UNL     1      61.553  63.437  71.245  0.00  0.00    +0.000 A 
ATOM      9  C   UNL     1      61.415  63.829  71.959  0.00  0.00    +0.000 A 
ATOM     10 CL   UNL     1      60.822  63.563  72.467  0.00  0.00    +0.000 Cl
ATOM     11  C   UNL     1      61.870  64.485  72.162  0.00  0.00    +0.000 A 
ATOM     12  S   UNL     1      61.097  62.779  71.041  0.00  0.00    +0.000 S 
ATOM     13  N   UNL     1      60.642  62.123  70.838  0.00  0.00    +0.000 NA
ATOM     14  O   UNL     1      61.519  62.706  70.335  0.00  0.00    +0.000 OA
ATOM     15  O   UNL     1      60.676  62.853  71.747  0.00  0.00    +0.000 OA
ATOM     16  S   UNL     1      63.192  64.625  70.431  0.00  0.00    +0.000 S 
ATOM     17  O   UNL     1      62.909  63.983  69.998  0.00  0.00    +0.000 OA
ATOM     18  O   UNL     1      63.686  64.667  69.772  0.00  0.00    +0.000 OA
ATOM     19  N   UNL     1      63.648  65.282  70.635  0.00  0.00    +0.000 NA
ATOM     20  C   UNL     1      64.557  66.596  71.044  0.00  0.00    +0.000 A 
ATOM     21  C   UNL     1      65.013  67.254  71.247  0.00  0.00    +0.000 A 
ATOM     22  C   UNL     1      65.605  67.519  70.738  0.00  0.00    +0.000 A 
ATOM     23  C   UNL     1      65.742  67.127  70.025  0.00  0.00    +0.000 A 
ATOM     24  C   UNL     1      65.287  66.470  69.821  0.00  0.00    +0.000 A 
ATOM     25  C   UNL     1      64.695  66.204  70.330  0.00  0.00    +0.000 A 
ENDROOT
TORSDOF 0
ENDMDL
MODEL 5
REMARK VINA RESULT:   -11.509      1.732      4.419
REMARK INTER + INTRA:         -11.509
REMARK INTER:                 -11.509
REMARK INTRA:                   0.000
REMARK UNBOUND:                 0.000
ROOT
REMARK  Name = bemetizide
REMARK                            x       y       z     vdW  Elec       q    Type
REMARK                         _______ _______ _______ _____ _____    ______ ____
ATOM      1  C   UNL     1      62.253  64.155  69.305  0.00  0.00    +0.000 C 
ATOM      2  C   UNL     1      61.632  63.614  69.347  0.00  0.00    +0.000 C 
ATOM      3  C   UNL     1      61.398  63.203  68.671  0.00  0.00    +0.000 C 
ATOM      4  N   UNL     1      61.786  63.332  67.954  0.00  0.00    +0.000 NA
ATOM      5  C   UNL     1      61.552  62.920  67.278  0.00  0.00    +0.000 A 
ATOM      6  C   UNL     1      60.930  62.378  67.319  0.00  0.00    +0.000 A 
ATOM      7  C   UNL     1      60.697  61.967  66.644  0.00  0.00    +0.000 A 
ATOM      8  C   UNL     1      61.084  62.096  65.928  0.00  0.00    +0.000 A 
ATOM      9  C   UNL     1      61.706  62.638  65.887  0.00  0.00    +0.000 A 
ATOM     10 CL   UNL     1      62.093  62.767  65.169  0.00  0.00    +0.000 Cl
ATOM     11  C   UNL     1      61.939  63.049  66.562  0.00  0.00    +0.000 A 
ATOM     12  S   UNL     1      60.850  61.685  65.252  0.00  0.00    +0.000 S 
ATOM     13  N   UNL     1      60.617  61.273  64.577  0.00  0.00    +0.000 NA
ATOM     14  O   UNL     1      60.267  61.297  65.690  0.00  0.00    +0.000 OA
ATOM     15  O   UNL     1      61.433  62.072  64.815  0.00  0.00    +0.000 OA
ATOM     16  S   UNL     1      60.543  62.249  68.037  0.00  0.00    +0.000 S 
ATOM     17  O   UNL     1      60.124  61.730  67.552  0.00  0.00    +0.000 OA
ATOM     18  O   UNL     1      60.010  61.939  68.585  0.00  0.00    +0.000 OA
ATOM     19  N   UNL     1      60.776  62.661  68.713  0.00  0.00    +0.000 NA
ATOM     20  C   UNL     1      61.245  63.485  70.063  0.00  0.00    +0.000 A 
ATOM     21  C   UNL     1      61.478  63.897  70.739  0.00  0.00    +0.000 A 
ATOM     22  C   UNL     1      61.091  63.767  71.455  0.00  0.00    +0.000 A 
ATOM     23  C   UNL     1      60.469  63.225  71.497  0.00  0.00    +0.000 A 
ATOM     24  C   UNL     1      60.236  62.814  70.821  0.00  0.00    +0.000 A 
ATOM     25  C   UNL     1      60.623  62.943  70.104  0.00  0.00    +0.000 A 
ENDROOT
TORSDOF 0
ENDMDL
MODEL 6
REMARK VINA RESULT:   -11.393      2.621      4.074
REMARK INTER + INTRA:         -11.393
REMARK INTER:                 -11.393
REMARK INTRA:                   0.000
REMARK UNBOUND:                 0.000
ROOT
REMARK  Name = bemetizide
REMARK                            x       y       z     vdW  Elec       q    Type
REMARK                         _______ _______ _______ _____ _____    ______ ____
ATOM      1  C   UNL     1      60.790  62.172  70.236  0.00  0.00    +0.000 C 
ATOM      2  C   UNL     1      60.564  62.784  69.731  0.00  0.00    +0.000 C 
ATOM      3  C   UNL     1      60.308  63.502  70.043  0.00  0.00    +0.000 C 
ATOM      4  N   UNL     1      60.278  63.611  70.860  0.00  0.00    +0.000 NA
ATOM      5  C   UNL     1      60.022  64.330  71.173  0.00  0.00    +0.000 A 
ATOM      6  C   UNL     1      59.795  64.943  70.667  0.00  0.00    +0.000 A 
ATOM      7  C   UNL     1      59.539  65.662  70.979  0.00  0.00    +0.000 A 
ATOM      8  C   UNL     1      59.510  65.770  71.796  0.00  0.00    +0.000 A 
ATOM      9  C   UNL     1      59.736  65.157  72.302  0.00  0.00    +0.000 A 
ATOM     10 CL   UNL     1      59.707  65.266  73.119  0.00  0.00    +0.000 Cl
ATOM     11  C   UNL     1      59.992  64.438  71.990  0.00  0.00    +0.000 A 
ATOM     12  S   UNL     1      59.254  66.489  72.109  0.00  0.00    +0.000 S 
ATOM     13  N   UNL     1      58.998  67.208  72.421  0.00  0.00    +0.000 NA
ATOM     14  O   UNL     1      59.140  66.780  71.345  0.00  0.00    +0.000 OA
ATOM     15  O   UNL     1      59.368  66.197  72.872  0.00  0.00    +0.000 OA
ATOM     16  S   UNL     1      59.825  64.834  69.850  0.00  0.00    +0.000 S 
ATOM     17  O   UNL     1      59.546  65.610  69.882  0.00  0.00    +0.000 OA
ATOM     18  O   UNL     1      59.758  64.996  69.044  0.00  0.00    +0.000 OA
ATOM     19  N   UNL     1      60.081  64.115  69.537  0.00  0.00    +0.000 NA
ATOM     20  C   UNL     1      60.593  62.676  68.914  0.00  0.00    +0.000 A 
ATOM     21  C   UNL     1      60.850  61.956  68.601  0.00  0.00    +0.000 A 
ATOM     22  C   UNL     1      60.879  61.848  67.785  0.00  0.00    +0.000 A 
ATOM     23  C   UNL     1      60.652  62.461  67.279  0.00  0.00    +0.000 A 
ATOM     24  C   UNL     1      60.397  63.179  67.591  0.00  0.00    +0.000 A 
ATOM     25  C   UNL     1      60.367  63.288  68.408  0.00  0.00    +0.000 A 
ENDROOT
TORSDOF 0
ENDMDL
MODEL 7
REMARK VINA RESULT:   -11.306      4.612      5.430
REMARK INTER + INTRA:         -11.306
REMARK INTER:                 -11.306
REMARK INTRA:                   0.000
REMARK UNBOUND:                 0.000
ROOT
REMARK  Name = bemetizide
REMARK                            x       y       z     vdW  Elec       q    Type
REMARK                         _______ _______ _______ _____ _____    ______ ____
ATOM      1  C   UNL     1      61.355  63.905  73.085  0.00  0.00    +0.000 C 
ATOM      2  C   UNL     1      61.234  63.573  72.340  0.00  0.00    +0.000 C 
ATOM      3  C   UNL     1      60.929  64.034  71.728  0.00  0.00    +0.000 C 
ATOM      4  N   UNL     1      60.745  64.827  71.860  0.00  0.00    +0.000 NA
ATOM      5  C   UNL     1      60.440  65.289  71.248  0.00  0.00    +0.000 A 
ATOM      6  C   UNL     1      60.318  64.956  70.502  0.00  0.00    +0.000 A 
ATOM      7  C   UNL     1      60.014  65.417  69.890  0.00  0.00    +0.000 A 
ATOM      8  C   UNL     1      59.830  66.210  70.023  0.00  0.00    +0.000 A 
ATOM      9  C   UNL     1      59.952  66.542  70.769  0.00  0.00    +0.000 A 
ATOM     10 CL   UNL     1      59.768  67.336  70.901  0.00  0.00    +0.000 Cl
ATOM     11  C   UNL     1      60.257  66.082  71.381  0.00  0.00    +0.000 A 
ATOM     12  S   UNL     1      59.525  66.671  69.410  0.00  0.00    +0.000 S 
ATOM     13  N   UNL     1      59.220  67.132  68.799  0.00  0.00    +0.000 NA
ATOM     14  O   UNL     1      59.561  66.021  68.903  0.00  0.00    +0.000 OA
ATOM     15  O   UNL     1      59.489  67.321  69.918  0.00  0.00    +0.000 OA
ATOM     16  S   UNL     1      60.502  64.163  70.370  0.00  0.00    +0.000 S 
ATOM     17  O   UNL     1      60.228  64.373  69.621  0.00  0.00    +0.000 OA
ATOM     18  O   UNL     1      60.590  63.443  69.977  0.00  0.00    +0.000 OA
ATOM     19  N   UNL     1      60.807  63.701  70.982  0.00  0.00    +0.000 NA
ATOM     20  C   UNL     1      61.417  62.780  72.207  0.00  0.00    +0.000 A 
ATOM     21  C   UNL     1      61.722  62.319  72.820  0.00  0.00    +0.000 A 
ATOM     22  C   UNL     1      61.906  61.526  72.687  0.00  0.00    +0.000 A 
ATOM     23  C   UNL     1      61.784  61.193  71.941  0.00  0.00    +0.000 A 
ATOM     24  C   UNL     1      61.480  61.654  71.329  0.00  0.00    +0.000 A 
ATOM     25  C   UNL     1      61.296  62.448  71.461  0.00  0.00    +0.000 A 
ENDROOT
TORSDOF 0
ENDMDL
MODEL 8
REMARK VINA RESULT:   -11.204      2.015      3.128
REMARK INTER + INTRA:         -11.204
REMARK INTER:                 -11.204
REMARK INTRA:                   0.000
REMARK UNBOUND:                 0.000
ROOT
REMARK  Name = bemetizide
REMARK                            x       y       z     vdW  Elec       q    Type
REMARK                         _______ _______ _______ _____ _____    ______ ____
ATOM      1  C   UNL     1      60.129  61.651  68.553  0.00  0.00    +0.000 C 
ATOM      2  C   UNL     1      60.645  62.269  68.370  0.00  0.00    +0.000 C 
ATOM      3  C   UNL     1      60.932  62.757  68.968  0.00  0.00    +0.000 C 
ATOM      4  N   UNL     1      60.704  62.629  69.751  0.00  0.00    +0.000 NA
ATOM      5  C   UNL     1      60.991  63.118  70.351  0.00  0.00    +0.000 A 
ATOM      6  C   UNL     1      61.507  63.736  70.168  0.00  0.00    +0.000 A 
ATOM      7  C   UNL     1      61.794  64.224  70.767  0.00  0.00    +0.000 A 
ATOM      8  C   UNL     1      61.566  64.096  71.548  0.00  0.00    +0.000 A 
ATOM      9  C   UNL     1      61.050  63.478  71.731  0.00  0.00    +0.000 A 
ATOM     10 CL   UNL     1      60.821  63.350  72.514  0.00  0.00    +0.000 Cl
ATOM     11  C   UNL     1      60.763  62.989  71.133  0.00  0.00    +0.000 A 
ATOM     12  S   UNL     1      61.853  64.585  72.148  0.00  0.00    +0.000 S 
ATOM     13  N   UNL     1      62.140  65.073  72.747  0.00  0.00    +0.000 NA
ATOM     14  O   UNL     1      62.283  65.015  71.590  0.00  0.00    +0.000 OA
ATOM     15  O   UNL     1      61.423  64.153  72.705  0.00  0.00    +0.000 OA
ATOM     16  S   UNL     1      61.735  63.864  69.385  0.00  0.00    +0.000 S 
ATOM     17  O   UNL     1      62.152  64.470  69.757  0.00  0.00    +0.000 OA
ATOM     18  O   UNL     1      62.109  64.203  68.732  0.00  0.00    +0.000 OA
ATOM     19  N   UNL     1      61.448  63.375  68.785  0.00  0.00    +0.000 NA
ATOM     20  C   UNL     1      60.873  62.397  67.588  0.00  0.00    +0.000 A 
ATOM     21  C   UNL     1      60.586  61.908  66.988  0.00  0.00    +0.000 A 
ATOM     22  C   UNL     1      60.814  62.036  66.206  0.00  0.00    +0.000 A 
ATOM     23  C   UNL     1      61.331  62.654  66.023  0.00  0.00    +0.000 A 
ATOM     24  C   UNL     1      61.618  63.143  66.622  0.00  0.00    +0.000 A 
ATOM     25  C   UNL     1      61.390  63.015  67.405  0.00  0.00    +0.000 A 
ENDROOT
TORSDOF 0
ENDMDL
MODEL 9
REMARK VINA RESULT:   -10.593      6.301      6.996
REMARK INTER + INTRA:         -10.593
REMARK INTER:                 -10.593
REMARK INTRA:                   0.000
REMARK UNBOUND:                 0.000
ROOT
REMARK  Name = bemetizide
REMARK                            x       y       z     vdW  Elec       q    Type
REMARK                         _______ _______ _______ _____ _____    ______ ____
ATOM      1  C   UNL     1      63.712  68.004  72.421  0.00  0.00    +0.000 C 
ATOM      2  C   UNL     1      63.683  67.241  72.107  0.00  0.00    +0.000 C 
ATOM      3  C   UNL     1      62.981  66.810  72.136  0.00  0.00    +0.000 C 
ATOM      4  N   UNL     1      62.307  67.141  72.479  0.00  0.00    +0.000 NA
ATOM      5  C   UNL     1      61.604  66.710  72.508  0.00  0.00    +0.000 A 
ATOM      6  C   UNL     1      61.575  65.946  72.194  0.00  0.00    +0.000 A 
ATOM      7  C   UNL     1      60.873  65.515  72.223  0.00  0.00    +0.000 A 
ATOM      8  C   UNL     1      60.200  65.846  72.566  0.00  0.00    +0.000 A 
ATOM      9  C   UNL     1      60.229  66.609  72.880  0.00  0.00    +0.000 A 
ATOM     10 CL   UNL     1      59.555  66.940  73.222  0.00  0.00    +0.000 Cl
ATOM     11  C   UNL     1      60.931  67.040  72.851  0.00  0.00    +0.000 A 
ATOM     12  S   UNL     1      59.496  65.415  72.595  0.00  0.00    +0.000 S 
ATOM     13  N   UNL     1      58.794  64.984  72.624  0.00  0.00    +0.000 NA
ATOM     14  O   UNL     1      59.869  64.783  72.216  0.00  0.00    +0.000 OA
ATOM     15  O   UNL     1      59.125  66.047  72.974  0.00  0.00    +0.000 OA
ATOM     16  S   UNL     1      62.249  65.616  71.852  0.00  0.00    +0.000 S 
ATOM     17  O   UNL     1      61.716  64.994  71.749  0.00  0.00    +0.000 OA
ATOM     18  O   UNL     1      62.737  65.069  71.473  0.00  0.00    +0.000 OA
ATOM     19  N   UNL     1      62.952  66.047  71.822  0.00  0.00    +0.000 NA
ATOM     20  C   UNL     1      64.356  66.911  71.765  0.00  0.00    +0.000 A 
ATOM     21  C   UNL     1      65.059  67.342  71.736  0.00  0.00    +0.000 A 
ATOM     22  C   UNL     1      65.732  67.011  71.393  0.00  0.00    +0.000 A 
ATOM     23  C   UNL     1      65.703  66.248  71.079  0.00  0.00    +0.000 A 
ATOM     24  C   UNL     1      65.001  65.817  71.108  0.00  0.00    +0.000 A 
ATOM     25  C   UNL     1      64.327  66.147  71.451  0.00  0.00    +0.000 A 
ENDROOT
TORSDOF 0
ENDMDL
