MODEL 1
REMARK VINA RESULT:   -14.490      0.000      0.000
REMARK INTER + INTRA:         -14.490
REMARK INTER:                 -14.490
REMARK INTRA:                   0.000
REMARK UNBOUND:                 0.000
ROOT
REMARK  Name = bemotrizinol
REMARK                            x       y       z     vdW  Elec       q    Type
REMARK                         _______ _______ _______ _____ _____    ______ ____
ATOM      1  C   UNL     1      63.620  59.495  53.990  0.00  0.00    +0.000 C 
ATOM      2  C   UNL     1      63.512  60.294  54.163  0.00  0.00    +0.000 C 
ATOM      3  C   UNL     1      63.195  60.800  53.593  0.00  0.00    +0.000 C 
ATOM      4  C   UNL     1      63.087  61.599  53.766  0.00  0.00    +0.000 C 
ATOM      5  C   UNL     1      62.770  62.105  53.195  0.00  0.00    +0.000 C 
ATOM      6  C   UNL     1      62.563  61.812  52.453  0.00  0.00    +0.000 C 
ATOM      7  C   UNL     1      62.246  62.317  51.883  0.00  0.00    +0.000 C 
ATOM      8  C   UNL     1      62.662  62.905  53.368  0.00  0.00    +0.000 C 
ATOM      9  O   UNL     1      62.346  63.411  52.797  0.00  0.00    +0.000 OA
ATOM     10  C   UNL     1      62.237  64.210  52.970  0.00  0.00    +0.000 A 
ATOM     11  C   UNL     1      61.921  64.716  52.400  0.00  0.00    +0.000 A 
ATOM     12  C   UNL     1      61.813  65.515  52.573  0.00  0.00    +0.000 A 
ATOM     13  O   UNL     1      61.496  66.021  52.002  0.00  0.00    +0.000 OA
ATOM     14  C   UNL     1      62.020  65.809  53.315  0.00  0.00    +0.000 A 
ATOM     15  C   UNL     1      62.336  65.303  53.885  0.00  0.00    +0.000 A 
ATOM     16  C   UNL     1      62.445  64.504  53.713  0.00  0.00    +0.000 A 
ATOM     17  C   UNL     1      61.912  66.609  53.487  0.00  0.00    +0.000 A 
ATOM     18  N   UNL     1      61.596  67.114  52.918  0.00  0.00    +0.000 NA
ATOM     19  C   UNL     1      61.487  67.914  53.089  0.00  0.00    +0.000 A 
ATOM     20  N   UNL     1      61.695  68.208  53.833  0.00  0.00    +0.000 NA
ATOM     21  C   UNL     1      62.011  67.702  54.402  0.00  0.00    +0.000 A 
ATOM     22  N   UNL     1      62.120  66.903  54.230  0.00  0.00    +0.000 NA
ATOM     23  C   UNL     1      62.219  67.995  55.145  0.00  0.00    +0.000 A 
ATOM     24  C   UNL     1      62.111  68.795  55.317  0.00  0.00    +0.000 A 
ATOM     25  C   UNL     1      62.318  69.089  56.059  0.00  0.00    +0.000 A 
ATOM     26  C   UNL     1      62.635  68.583  56.629  0.00  0.00    +0.000 A 
ATOM     27  O   UNL     1      62.843  68.877  57.372  0.00  0.00    +0.000 OA
ATOM     28  C   UNL     1      63.159  68.371  57.941  0.00  0.00    +0.000 C 
ATOM     29  C   UNL     1      62.743  67.784  56.456  0.00  0.00    +0.000 A 
ATOM     30  C   UNL     1      62.535  67.490  55.715  0.00  0.00    +0.000 A 
ATOM     31  C   UNL     1      61.171  68.419  52.520  0.00  0.00    +0.000 A 
ATOM     32  C   UNL     1      60.963  68.125  51.778  0.00  0.00    +0.000 A 
ATOM     33  O   UNL     1      61.071  67.326  51.605  0.00  0.00    +0.000 OA
ATOM     34  C   UNL     1      60.647  68.630  51.207  0.00  0.00    +0.000 A 
ATOM     35  C   UNL     1      60.538  69.431  51.380  0.00  0.00    +0.000 A 
ATOM     36  O   UNL     1      60.222  69.937  50.809  0.00  0.00    +0.000 OA
ATOM     37  C   UNL     1      60.114  70.736  50.982  0.00  0.00    +0.000 C 
ATOM     38  C   UNL     1      59.797  71.241  50.412  0.00  0.00    +0.000 C 
ATOM     39  C   UNL     1      59.590  70.947  49.671  0.00  0.00    +0.000 C 
ATOM     40  C   UNL     1      59.273  71.453  49.100  0.00  0.00    +0.000 C 
ATOM     41  C   UNL     1      59.689  72.041  50.585  0.00  0.00    +0.000 C 
ATOM     42  C   UNL     1      59.373  72.546  50.014  0.00  0.00    +0.000 C 
ATOM     43  C   UNL     1      59.264  73.346  50.187  0.00  0.00    +0.000 C 
ATOM     44  C   UNL     1      58.948  73.851  49.617  0.00  0.00    +0.000 C 
ATOM     45  C   UNL     1      60.746  69.724  52.122  0.00  0.00    +0.000 A 
ATOM     46  C   UNL     1      61.063  69.218  52.692  0.00  0.00    +0.000 A 
ENDROOT
TORSDOF 0
ENDMDL
MODEL 2
REMARK VINA RESULT:   -14.145      0.533      7.546
REMARK INTER + INTRA:         -14.145
REMARK INTER:                 -14.145
REMARK INTRA:                   0.000
REMARK UNBOUND:                 0.000
ROOT
REMARK  Name = bemotrizinol
REMARK                            x       y       z     vdW  Elec       q    Type
REMARK                         _______ _______ _______ _____ _____    ______ ____
ATOM      1  C   UNL     1      59.070  73.381  49.510  0.00  0.00    +0.000 C 
ATOM      2  C   UNL     1      59.384  72.878  50.083  0.00  0.00    +0.000 C 
ATOM      3  C   UNL     1      59.492  72.077  49.914  0.00  0.00    +0.000 C 
ATOM      4  C   UNL     1      59.806  71.574  50.488  0.00  0.00    +0.000 C 
ATOM      5  C   UNL     1      59.914  70.773  50.319  0.00  0.00    +0.000 C 
ATOM      6  C   UNL     1      59.708  70.477  49.578  0.00  0.00    +0.000 C 
ATOM      7  C   UNL     1      59.816  69.677  49.409  0.00  0.00    +0.000 C 
ATOM      8  C   UNL     1      60.228  70.270  50.892  0.00  0.00    +0.000 C 
ATOM      9  O   UNL     1      60.336  69.469  50.723  0.00  0.00    +0.000 OA
ATOM     10  C   UNL     1      60.650  68.966  51.296  0.00  0.00    +0.000 A 
ATOM     11  C   UNL     1      60.758  68.165  51.127  0.00  0.00    +0.000 A 
ATOM     12  C   UNL     1      61.072  67.662  51.701  0.00  0.00    +0.000 A 
ATOM     13  O   UNL     1      61.180  66.861  51.532  0.00  0.00    +0.000 OA
ATOM     14  C   UNL     1      61.278  67.958  52.442  0.00  0.00    +0.000 A 
ATOM     15  C   UNL     1      61.170  68.758  52.611  0.00  0.00    +0.000 A 
ATOM     16  C   UNL     1      60.856  69.262  52.038  0.00  0.00    +0.000 A 
ATOM     17  C   UNL     1      61.592  67.454  53.015  0.00  0.00    +0.000 A 
ATOM     18  N   UNL     1      61.700  66.654  52.847  0.00  0.00    +0.000 NA
ATOM     19  C   UNL     1      62.013  66.150  53.420  0.00  0.00    +0.000 A 
ATOM     20  N   UNL     1      62.220  66.447  54.162  0.00  0.00    +0.000 NA
ATOM     21  C   UNL     1      62.111  67.248  54.330  0.00  0.00    +0.000 A 
ATOM     22  N   UNL     1      61.798  67.751  53.758  0.00  0.00    +0.000 NA
ATOM     23  C   UNL     1      62.317  67.544  55.072  0.00  0.00    +0.000 A 
ATOM     24  C   UNL     1      62.632  67.040  55.646  0.00  0.00    +0.000 A 
ATOM     25  C   UNL     1      62.837  67.336  56.387  0.00  0.00    +0.000 A 
ATOM     26  C   UNL     1      62.729  68.137  56.556  0.00  0.00    +0.000 A 
ATOM     27  O   UNL     1      62.935  68.434  57.297  0.00  0.00    +0.000 OA
ATOM     28  C   UNL     1      62.827  69.234  57.466  0.00  0.00    +0.000 C 
ATOM     29  C   UNL     1      62.415  68.640  55.982  0.00  0.00    +0.000 A 
ATOM     30  C   UNL     1      62.210  68.344  55.241  0.00  0.00    +0.000 A 
ATOM     31  C   UNL     1      62.121  65.350  53.251  0.00  0.00    +0.000 A 
ATOM     32  C   UNL     1      61.915  65.054  52.509  0.00  0.00    +0.000 A 
ATOM     33  O   UNL     1      61.601  65.557  51.936  0.00  0.00    +0.000 OA
ATOM     34  C   UNL     1      62.023  64.254  52.340  0.00  0.00    +0.000 A 
ATOM     35  C   UNL     1      62.337  63.750  52.914  0.00  0.00    +0.000 A 
ATOM     36  O   UNL     1      62.445  62.949  52.745  0.00  0.00    +0.000 OA
ATOM     37  C   UNL     1      62.759  62.445  53.318  0.00  0.00    +0.000 C 
ATOM     38  C   UNL     1      62.867  61.645  53.149  0.00  0.00    +0.000 C 
ATOM     39  C   UNL     1      62.661  61.349  52.408  0.00  0.00    +0.000 C 
ATOM     40  C   UNL     1      62.769  60.548  52.239  0.00  0.00    +0.000 C 
ATOM     41  C   UNL     1      63.181  61.141  53.722  0.00  0.00    +0.000 C 
ATOM     42  C   UNL     1      63.289  60.341  53.553  0.00  0.00    +0.000 C 
ATOM     43  C   UNL     1      63.603  59.837  54.127  0.00  0.00    +0.000 C 
ATOM     44  C   UNL     1      63.710  59.037  53.957  0.00  0.00    +0.000 C 
ATOM     45  C   UNL     1      62.543  64.046  53.655  0.00  0.00    +0.000 A 
ATOM     46  C   UNL     1      62.435  64.847  53.824  0.00  0.00    +0.000 A 
ENDROOT
TORSDOF 0
ENDMDL
MODEL 3
REMARK VINA RESULT:   -13.121      2.811      4.466
REMARK INTER + INTRA:         -13.121
REMARK INTER:                 -13.121
REMARK INTRA:                   0.000
REMARK UNBOUND:                 0.000
ROOT
REMARK  Name = bemotrizinol
REMARK                            x       y       z     vdW  Elec       q    Type
REMARK                         _______ _______ _______ _____ _____    ______ ____
ATOM      1  C   UNL     1      63.634  61.625  53.855  0.00  0.00    +0.000 C 
ATOM      2  C   UNL     1      63.428  62.349  53.519  0.00  0.00    +0.000 C 
ATOM      3  C   UNL     1      63.078  62.935  53.984  0.00  0.00    +0.000 C 
ATOM      4  C   UNL     1      62.872  63.659  53.648  0.00  0.00    +0.000 C 
ATOM      5  C   UNL     1      62.522  64.245  54.113  0.00  0.00    +0.000 C 
ATOM      6  C   UNL     1      62.378  64.105  54.912  0.00  0.00    +0.000 C 
ATOM      7  C   UNL     1      62.028  64.690  55.377  0.00  0.00    +0.000 C 
ATOM      8  C   UNL     1      62.316  64.969  53.777  0.00  0.00    +0.000 C 
ATOM      9  O   UNL     1      61.965  65.555  54.242  0.00  0.00    +0.000 OA
ATOM     10  C   UNL     1      61.759  66.279  53.906  0.00  0.00    +0.000 A 
ATOM     11  C   UNL     1      61.409  66.864  54.371  0.00  0.00    +0.000 A 
ATOM     12  C   UNL     1      61.203  67.589  54.034  0.00  0.00    +0.000 A 
ATOM     13  O   UNL     1      60.852  68.174  54.500  0.00  0.00    +0.000 OA
ATOM     14  C   UNL     1      61.347  67.729  53.234  0.00  0.00    +0.000 A 
ATOM     15  C   UNL     1      61.696  67.144  52.770  0.00  0.00    +0.000 A 
ATOM     16  C   UNL     1      61.903  66.419  53.105  0.00  0.00    +0.000 A 
ATOM     17  C   UNL     1      61.140  68.454  52.899  0.00  0.00    +0.000 A 
ATOM     18  N   UNL     1      60.790  69.039  53.363  0.00  0.00    +0.000 NA
ATOM     19  C   UNL     1      60.584  69.764  53.028  0.00  0.00    +0.000 A 
ATOM     20  N   UNL     1      60.728  69.904  52.227  0.00  0.00    +0.000 NA
ATOM     21  C   UNL     1      61.078  69.318  51.763  0.00  0.00    +0.000 A 
ATOM     22  N   UNL     1      61.284  68.594  52.098  0.00  0.00    +0.000 NA
ATOM     23  C   UNL     1      61.222  69.458  50.962  0.00  0.00    +0.000 A 
ATOM     24  C   UNL     1      61.015  70.184  50.626  0.00  0.00    +0.000 A 
ATOM     25  C   UNL     1      61.159  70.323  49.827  0.00  0.00    +0.000 A 
ATOM     26  C   UNL     1      61.509  69.738  49.362  0.00  0.00    +0.000 A 
ATOM     27  O   UNL     1      61.653  69.878  48.562  0.00  0.00    +0.000 OA
ATOM     28  C   UNL     1      62.003  69.293  48.098  0.00  0.00    +0.000 C 
ATOM     29  C   UNL     1      61.715  69.013  49.698  0.00  0.00    +0.000 A 
ATOM     30  C   UNL     1      61.572  68.874  50.497  0.00  0.00    +0.000 A 
ATOM     31  C   UNL     1      60.234  70.349  53.492  0.00  0.00    +0.000 A 
ATOM     32  C   UNL     1      60.090  70.209  54.292  0.00  0.00    +0.000 A 
ATOM     33  O   UNL     1      60.296  69.484  54.628  0.00  0.00    +0.000 OA
ATOM     34  C   UNL     1      59.740  70.793  54.757  0.00  0.00    +0.000 A 
ATOM     35  C   UNL     1      59.534  71.519  54.421  0.00  0.00    +0.000 A 
ATOM     36  O   UNL     1      59.183  72.104  54.886  0.00  0.00    +0.000 OA
ATOM     37  C   UNL     1      58.977  72.829  54.550  0.00  0.00    +0.000 C 
ATOM     38  C   UNL     1      58.627  73.413  55.015  0.00  0.00    +0.000 C 
ATOM     39  C   UNL     1      58.484  73.274  55.814  0.00  0.00    +0.000 C 
ATOM     40  C   UNL     1      58.133  73.859  56.279  0.00  0.00    +0.000 C 
ATOM     41  C   UNL     1      58.421  74.139  54.679  0.00  0.00    +0.000 C 
ATOM     42  C   UNL     1      58.071  74.723  55.144  0.00  0.00    +0.000 C 
ATOM     43  C   UNL     1      57.865  75.449  54.808  0.00  0.00    +0.000 C 
ATOM     44  C   UNL     1      57.515  76.033  55.273  0.00  0.00    +0.000 C 
ATOM     45  C   UNL     1      59.678  71.659  53.621  0.00  0.00    +0.000 A 
ATOM     46  C   UNL     1      60.028  71.073  53.157  0.00  0.00    +0.000 A 
ENDROOT
TORSDOF 0
ENDMDL
MODEL 4
REMARK VINA RESULT:   -12.105      3.584      9.240
REMARK INTER + INTRA:         -12.105
REMARK INTER:                 -12.105
REMARK INTRA:                   0.000
REMARK UNBOUND:                 0.000
ROOT
REMARK  Name = bemotrizinol
REMARK                            x       y       z     vdW  Elec       q    Type
REMARK                         _______ _______ _______ _____ _____    ______ ____
ATOM      1  C   UNL     1      57.128  77.893  56.259  0.00  0.00    +0.000 C 
ATOM      2  C   UNL     1      57.284  77.293  55.715  0.00  0.00    +0.000 C 
ATOM      3  C   UNL     1      57.651  76.596  55.963  0.00  0.00    +0.000 C 
ATOM      4  C   UNL     1      57.808  75.997  55.418  0.00  0.00    +0.000 C 
ATOM      5  C   UNL     1      58.175  75.300  55.666  0.00  0.00    +0.000 C 
ATOM      6  C   UNL     1      58.383  75.204  56.458  0.00  0.00    +0.000 C 
ATOM      7  C   UNL     1      58.750  74.508  56.706  0.00  0.00    +0.000 C 
ATOM      8  C   UNL     1      58.331  74.701  55.122  0.00  0.00    +0.000 C 
ATOM      9  O   UNL     1      58.698  74.004  55.370  0.00  0.00    +0.000 OA
ATOM     10  C   UNL     1      58.855  73.405  54.825  0.00  0.00    +0.000 A 
ATOM     11  C   UNL     1      59.222  72.708  55.073  0.00  0.00    +0.000 A 
ATOM     12  C   UNL     1      59.378  72.109  54.529  0.00  0.00    +0.000 A 
ATOM     13  O   UNL     1      59.745  71.412  54.777  0.00  0.00    +0.000 OA
ATOM     14  C   UNL     1      59.169  72.206  53.736  0.00  0.00    +0.000 A 
ATOM     15  C   UNL     1      58.803  72.902  53.489  0.00  0.00    +0.000 A 
ATOM     16  C   UNL     1      58.646  73.502  54.033  0.00  0.00    +0.000 A 
ATOM     17  C   UNL     1      59.327  71.605  53.192  0.00  0.00    +0.000 A 
ATOM     18  N   UNL     1      59.693  70.909  53.440  0.00  0.00    +0.000 NA
ATOM     19  C   UNL     1      59.850  70.309  52.896  0.00  0.00    +0.000 A 
ATOM     20  N   UNL     1      59.641  70.406  52.103  0.00  0.00    +0.000 NA
ATOM     21  C   UNL     1      59.275  71.103  51.856  0.00  0.00    +0.000 A 
ATOM     22  N   UNL     1      59.117  71.702  52.399  0.00  0.00    +0.000 NA
ATOM     23  C   UNL     1      59.065  71.200  51.063  0.00  0.00    +0.000 A 
ATOM     24  C   UNL     1      59.223  70.600  50.518  0.00  0.00    +0.000 A 
ATOM     25  C   UNL     1      59.014  70.696  49.727  0.00  0.00    +0.000 A 
ATOM     26  C   UNL     1      58.647  71.393  49.479  0.00  0.00    +0.000 A 
ATOM     27  O   UNL     1      58.438  71.490  48.687  0.00  0.00    +0.000 OA
ATOM     28  C   UNL     1      58.072  72.186  48.439  0.00  0.00    +0.000 C 
ATOM     29  C   UNL     1      58.490  71.992  50.024  0.00  0.00    +0.000 A 
ATOM     30  C   UNL     1      58.699  71.896  50.815  0.00  0.00    +0.000 A 
ATOM     31  C   UNL     1      60.216  69.613  53.143  0.00  0.00    +0.000 A 
ATOM     32  C   UNL     1      60.425  69.516  53.935  0.00  0.00    +0.000 A 
ATOM     33  O   UNL     1      60.269  70.116  54.480  0.00  0.00    +0.000 OA
ATOM     34  C   UNL     1      60.792  68.820  54.184  0.00  0.00    +0.000 A 
ATOM     35  C   UNL     1      60.949  68.220  53.639  0.00  0.00    +0.000 A 
ATOM     36  O   UNL     1      61.316  67.523  53.887  0.00  0.00    +0.000 OA
ATOM     37  C   UNL     1      61.472  66.924  53.342  0.00  0.00    +0.000 C 
ATOM     38  C   UNL     1      61.839  66.228  53.591  0.00  0.00    +0.000 C 
ATOM     39  C   UNL     1      62.048  66.131  54.382  0.00  0.00    +0.000 C 
ATOM     40  C   UNL     1      62.414  65.434  54.630  0.00  0.00    +0.000 C 
ATOM     41  C   UNL     1      61.996  65.628  53.046  0.00  0.00    +0.000 C 
ATOM     42  C   UNL     1      62.362  64.932  53.294  0.00  0.00    +0.000 C 
ATOM     43  C   UNL     1      62.519  64.332  52.749  0.00  0.00    +0.000 C 
ATOM     44  C   UNL     1      62.886  63.636  52.998  0.00  0.00    +0.000 C 
ATOM     45  C   UNL     1      60.740  68.317  52.847  0.00  0.00    +0.000 A 
ATOM     46  C   UNL     1      60.373  69.014  52.600  0.00  0.00    +0.000 A 
ENDROOT
TORSDOF 0
ENDMDL
