MODEL 1
REMARK VINA RESULT:   -15.191      0.000      0.000
REMARK INTER + INTRA:         -15.191
REMARK INTER:                 -15.191
REMARK INTRA:                   0.000
REMARK UNBOUND:                 0.000
ROOT
REMARK  Name = benexate
REMARK                            x       y       z     vdW  Elec       q    Type
REMARK                         _______ _______ _______ _____ _____    ______ ____
ATOM      1  N   UNL     1      59.038  67.135  71.710  0.00  0.00    +0.000 NA
ATOM      2  C   UNL     1      59.100  66.413  72.102  0.00  0.00    +0.000 C 
ATOM      3  N   UNL     1      58.902  66.360  72.902  0.00  0.00    +0.000 NA
ATOM      4  N   UNL     1      59.361  65.744  71.697  0.00  0.00    +0.000 NA
ATOM      5  C   UNL     1      59.423  65.021  72.091  0.00  0.00    +0.000 C 
ATOM      6  C   UNL     1      59.683  64.351  71.686  0.00  0.00    +0.000 C 
ATOM      7  C   UNL     1      59.745  63.629  72.079  0.00  0.00    +0.000 C 
ATOM      8  C   UNL     1      60.006  62.959  71.673  0.00  0.00    +0.000 C 
ATOM      9  C   UNL     1      60.204  63.012  70.874  0.00  0.00    +0.000 C 
ATOM     10  C   UNL     1      60.142  63.734  70.480  0.00  0.00    +0.000 C 
ATOM     11  C   UNL     1      59.881  64.405  70.886  0.00  0.00    +0.000 C 
ATOM     12  C   UNL     1      60.464  62.342  70.469  0.00  0.00    +0.000 C 
ATOM     13  O   UNL     1      60.526  61.620  70.862  0.00  0.00    +0.000 OA
ATOM     14  O   UNL     1      60.663  62.395  69.669  0.00  0.00    +0.000 OA
ATOM     15  C   UNL     1      60.601  63.118  69.276  0.00  0.00    +0.000 A 
ATOM     16  C   UNL     1      60.799  63.170  68.477  0.00  0.00    +0.000 A 
ATOM     17  C   UNL     1      60.737  63.893  68.084  0.00  0.00    +0.000 A 
ATOM     18  C   UNL     1      60.477  64.563  68.489  0.00  0.00    +0.000 A 
ATOM     19  C   UNL     1      60.278  64.509  69.288  0.00  0.00    +0.000 A 
ATOM     20  C   UNL     1      60.340  63.787  69.682  0.00  0.00    +0.000 A 
ATOM     21  C   UNL     1      61.059  62.501  68.072  0.00  0.00    +0.000 C 
ATOM     22  O   UNL     1      61.121  61.779  68.465  0.00  0.00    +0.000 OA
ATOM     23  O   UNL     1      61.258  62.554  67.273  0.00  0.00    +0.000 OA
ATOM     24  C   UNL     1      61.518  61.884  66.867  0.00  0.00    +0.000 C 
ATOM     25  C   UNL     1      61.716  61.938  66.068  0.00  0.00    +0.000 A 
ATOM     26  C   UNL     1      61.977  61.268  65.662  0.00  0.00    +0.000 A 
ATOM     27  C   UNL     1      62.175  61.320  64.863  0.00  0.00    +0.000 A 
ATOM     28  C   UNL     1      62.113  62.043  64.471  0.00  0.00    +0.000 A 
ATOM     29  C   UNL     1      61.853  62.713  64.876  0.00  0.00    +0.000 A 
ATOM     30  C   UNL     1      61.654  62.660  65.674  0.00  0.00    +0.000 A 
ENDROOT
TORSDOF 0
ENDMDL
MODEL 2
REMARK VINA RESULT:   -13.159      2.422      2.771
REMARK INTER + INTRA:         -13.159
REMARK INTER:                 -13.159
REMARK INTRA:                   0.000
REMARK UNBOUND:                 0.000
ROOT
REMARK  Name = benexate
REMARK                            x       y       z     vdW  Elec       q    Type
REMARK                         _______ _______ _______ _____ _____    ______ ____
ATOM      1  N   UNL     1      60.743  67.535  72.957  0.00  0.00    +0.000 NA
ATOM      2  C   UNL     1      61.537  67.396  72.778  0.00  0.00    +0.000 C 
ATOM      3  N   UNL     1      62.129  67.760  73.223  0.00  0.00    +0.000 NA
ATOM      4  N   UNL     1      61.737  66.894  72.156  0.00  0.00    +0.000 NA
ATOM      5  C   UNL     1      62.531  66.755  71.978  0.00  0.00    +0.000 C 
ATOM      6  C   UNL     1      62.733  66.252  71.355  0.00  0.00    +0.000 C 
ATOM      7  C   UNL     1      63.525  66.114  71.177  0.00  0.00    +0.000 C 
ATOM      8  C   UNL     1      63.727  65.610  70.554  0.00  0.00    +0.000 C 
ATOM      9  C   UNL     1      63.135  65.247  70.110  0.00  0.00    +0.000 C 
ATOM     10  C   UNL     1      62.341  65.385  70.288  0.00  0.00    +0.000 C 
ATOM     11  C   UNL     1      62.140  65.888  70.911  0.00  0.00    +0.000 C 
ATOM     12  C   UNL     1      63.336  64.744  69.488  0.00  0.00    +0.000 C 
ATOM     13  O   UNL     1      64.129  64.605  69.309  0.00  0.00    +0.000 OA
ATOM     14  O   UNL     1      62.743  64.380  69.043  0.00  0.00    +0.000 OA
ATOM     15  C   UNL     1      61.950  64.519  69.222  0.00  0.00    +0.000 A 
ATOM     16  C   UNL     1      61.358  64.154  68.778  0.00  0.00    +0.000 A 
ATOM     17  C   UNL     1      60.564  64.293  68.956  0.00  0.00    +0.000 A 
ATOM     18  C   UNL     1      60.363  64.796  69.579  0.00  0.00    +0.000 A 
ATOM     19  C   UNL     1      60.956  65.160  70.023  0.00  0.00    +0.000 A 
ATOM     20  C   UNL     1      61.749  65.021  69.844  0.00  0.00    +0.000 A 
ATOM     21  C   UNL     1      61.559  63.652  68.156  0.00  0.00    +0.000 C 
ATOM     22  O   UNL     1      62.352  63.513  67.977  0.00  0.00    +0.000 OA
ATOM     23  O   UNL     1      60.966  63.288  67.711  0.00  0.00    +0.000 OA
ATOM     24  C   UNL     1      61.168  62.785  67.089  0.00  0.00    +0.000 C 
ATOM     25  C   UNL     1      60.575  62.421  66.645  0.00  0.00    +0.000 A 
ATOM     26  C   UNL     1      60.776  61.919  66.023  0.00  0.00    +0.000 A 
ATOM     27  C   UNL     1      60.184  61.554  65.578  0.00  0.00    +0.000 A 
ATOM     28  C   UNL     1      59.391  61.693  65.757  0.00  0.00    +0.000 A 
ATOM     29  C   UNL     1      59.190  62.196  66.379  0.00  0.00    +0.000 A 
ATOM     30  C   UNL     1      59.782  62.560  66.823  0.00  0.00    +0.000 A 
ENDROOT
TORSDOF 0
ENDMDL
MODEL 3
REMARK VINA RESULT:   -12.796      3.213      3.540
REMARK INTER + INTRA:         -12.796
REMARK INTER:                 -12.796
REMARK INTRA:                   0.000
REMARK UNBOUND:                 0.000
ROOT
REMARK  Name = benexate
REMARK                            x       y       z     vdW  Elec       q    Type
REMARK                         _______ _______ _______ _____ _____    ______ ____
ATOM      1  N   UNL     1      66.053  66.863  71.184  0.00  0.00    +0.000 NA
ATOM      2  C   UNL     1      65.427  66.859  71.722  0.00  0.00    +0.000 C 
ATOM      3  N   UNL     1      65.509  67.236  72.452  0.00  0.00    +0.000 NA
ATOM      4  N   UNL     1      64.721  66.481  71.530  0.00  0.00    +0.000 NA
ATOM      5  C   UNL     1      64.095  66.477  72.068  0.00  0.00    +0.000 C 
ATOM      6  C   UNL     1      63.387  66.098  71.876  0.00  0.00    +0.000 C 
ATOM      7  C   UNL     1      62.763  66.095  72.414  0.00  0.00    +0.000 C 
ATOM      8  C   UNL     1      62.055  65.715  72.222  0.00  0.00    +0.000 C 
ATOM      9  C   UNL     1      61.973  65.340  71.493  0.00  0.00    +0.000 C 
ATOM     10  C   UNL     1      62.599  65.342  70.954  0.00  0.00    +0.000 C 
ATOM     11  C   UNL     1      63.307  65.722  71.146  0.00  0.00    +0.000 C 
ATOM     12  C   UNL     1      61.266  64.960  71.301  0.00  0.00    +0.000 C 
ATOM     13  O   UNL     1      60.640  64.957  71.838  0.00  0.00    +0.000 OA
ATOM     14  O   UNL     1      61.184  64.584  70.571  0.00  0.00    +0.000 OA
ATOM     15  C   UNL     1      61.810  64.587  70.033  0.00  0.00    +0.000 A 
ATOM     16  C   UNL     1      61.728  64.211  69.304  0.00  0.00    +0.000 A 
ATOM     17  C   UNL     1      62.354  64.214  68.766  0.00  0.00    +0.000 A 
ATOM     18  C   UNL     1      63.061  64.594  68.957  0.00  0.00    +0.000 A 
ATOM     19  C   UNL     1      63.142  64.970  69.687  0.00  0.00    +0.000 A 
ATOM     20  C   UNL     1      62.517  64.967  70.225  0.00  0.00    +0.000 A 
ATOM     21  C   UNL     1      61.022  63.832  69.112  0.00  0.00    +0.000 C 
ATOM     22  O   UNL     1      60.396  63.829  69.649  0.00  0.00    +0.000 OA
ATOM     23  O   UNL     1      60.940  63.456  68.382  0.00  0.00    +0.000 OA
ATOM     24  C   UNL     1      60.233  63.077  68.190  0.00  0.00    +0.000 C 
ATOM     25  C   UNL     1      60.152  62.701  67.460  0.00  0.00    +0.000 A 
ATOM     26  C   UNL     1      59.445  62.322  67.268  0.00  0.00    +0.000 A 
ATOM     27  C   UNL     1      59.363  61.945  66.538  0.00  0.00    +0.000 A 
ATOM     28  C   UNL     1      59.988  61.949  66.001  0.00  0.00    +0.000 A 
ATOM     29  C   UNL     1      60.696  62.328  66.193  0.00  0.00    +0.000 A 
ATOM     30  C   UNL     1      60.777  62.704  66.922  0.00  0.00    +0.000 A 
ENDROOT
TORSDOF 0
ENDMDL
