MODEL 1
REMARK VINA RESULT:   -11.701      0.000      0.000
REMARK INTER + INTRA:         -11.701
REMARK INTER:                 -11.701
REMARK INTRA:                   0.000
REMARK UNBOUND:                 0.000
ROOT
REMARK  Name = benorilate
REMARK                            x       y       z     vdW  Elec       q    Type
REMARK                         _______ _______ _______ _____ _____    ______ ____
ATOM      1  C   UNL     1      62.380  62.156  63.847  0.00  0.00    +0.000 C 
ATOM      2  C   UNL     1      62.138  62.007  64.623  0.00  0.00    +0.000 C 
ATOM      3  O   UNL     1      62.018  61.230  64.875  0.00  0.00    +0.000 OA
ATOM      4  N   UNL     1      62.016  62.634  65.144  0.00  0.00    +0.000 NA
ATOM      5  C   UNL     1      61.774  62.485  65.918  0.00  0.00    +0.000 A 
ATOM      6  C   UNL     1      61.652  63.112  66.441  0.00  0.00    +0.000 A 
ATOM      7  C   UNL     1      61.411  62.963  67.214  0.00  0.00    +0.000 A 
ATOM      8  C   UNL     1      61.290  62.187  67.468  0.00  0.00    +0.000 A 
ATOM      9  O   UNL     1      61.048  62.039  68.242  0.00  0.00    +0.000 OA
ATOM     10  C   UNL     1      60.927  62.666  68.763  0.00  0.00    +0.000 C 
ATOM     11  O   UNL     1      61.047  63.442  68.511  0.00  0.00    +0.000 OA
ATOM     12  C   UNL     1      60.684  62.517  69.539  0.00  0.00    +0.000 A 
ATOM     13  C   UNL     1      60.563  63.145  70.060  0.00  0.00    +0.000 A 
ATOM     14  O   UNL     1      60.683  63.920  69.808  0.00  0.00    +0.000 OA
ATOM     15  C   UNL     1      60.562  64.548  70.329  0.00  0.00    +0.000 C 
ATOM     16  C   UNL     1      60.319  64.399  71.104  0.00  0.00    +0.000 C 
ATOM     17  O   UNL     1      60.682  65.324  70.077  0.00  0.00    +0.000 OA
ATOM     18  C   UNL     1      60.321  62.996  70.835  0.00  0.00    +0.000 A 
ATOM     19  C   UNL     1      60.200  62.219  71.088  0.00  0.00    +0.000 A 
ATOM     20  C   UNL     1      60.322  61.593  70.566  0.00  0.00    +0.000 A 
ATOM     21  C   UNL     1      60.564  61.741  69.791  0.00  0.00    +0.000 A 
ATOM     22  C   UNL     1      61.412  61.561  66.945  0.00  0.00    +0.000 A 
ATOM     23  C   UNL     1      61.654  61.709  66.172  0.00  0.00    +0.000 A 
ENDROOT
TORSDOF 0
ENDMDL
MODEL 2
REMARK VINA RESULT:   -11.592      3.452      5.031
REMARK INTER + INTRA:         -11.592
REMARK INTER:                 -11.592
REMARK INTRA:                   0.000
REMARK UNBOUND:                 0.000
ROOT
REMARK  Name = benorilate
REMARK                            x       y       z     vdW  Elec       q    Type
REMARK                         _______ _______ _______ _____ _____    ______ ____
ATOM      1  C   UNL     1      66.205  67.664  69.828  0.00  0.00    +0.000 C 
ATOM      2  C   UNL     1      65.664  67.186  70.228  0.00  0.00    +0.000 C 
ATOM      3  O   UNL     1      65.609  67.226  71.051  0.00  0.00    +0.000 OA
ATOM      4  N   UNL     1      65.180  66.670  69.806  0.00  0.00    +0.000 NA
ATOM      5  C   UNL     1      64.639  66.192  70.207  0.00  0.00    +0.000 A 
ATOM      6  C   UNL     1      64.154  65.675  69.785  0.00  0.00    +0.000 A 
ATOM      7  C   UNL     1      63.614  65.197  70.185  0.00  0.00    +0.000 A 
ATOM      8  C   UNL     1      63.558  65.236  71.007  0.00  0.00    +0.000 A 
ATOM      9  O   UNL     1      63.017  64.759  71.407  0.00  0.00    +0.000 OA
ATOM     10  C   UNL     1      62.533  64.242  70.985  0.00  0.00    +0.000 C 
ATOM     11  O   UNL     1      62.588  64.202  70.163  0.00  0.00    +0.000 OA
ATOM     12  C   UNL     1      61.991  63.764  71.386  0.00  0.00    +0.000 A 
ATOM     13  C   UNL     1      61.507  63.247  70.963  0.00  0.00    +0.000 A 
ATOM     14  O   UNL     1      61.562  63.207  70.142  0.00  0.00    +0.000 OA
ATOM     15  C   UNL     1      61.077  62.690  69.719  0.00  0.00    +0.000 C 
ATOM     16  C   UNL     1      60.537  62.213  70.119  0.00  0.00    +0.000 C 
ATOM     17  O   UNL     1      61.133  62.651  68.898  0.00  0.00    +0.000 OA
ATOM     18  C   UNL     1      60.966  62.769  71.363  0.00  0.00    +0.000 A 
ATOM     19  C   UNL     1      60.910  62.808  72.186  0.00  0.00    +0.000 A 
ATOM     20  C   UNL     1      61.396  63.325  72.608  0.00  0.00    +0.000 A 
ATOM     21  C   UNL     1      61.936  63.803  72.208  0.00  0.00    +0.000 A 
ATOM     22  C   UNL     1      64.043  65.753  71.428  0.00  0.00    +0.000 A 
ATOM     23  C   UNL     1      64.583  66.231  71.029  0.00  0.00    +0.000 A 
ENDROOT
TORSDOF 0
ENDMDL
MODEL 3
REMARK VINA RESULT:   -11.496      1.857      4.799
REMARK INTER + INTRA:         -11.496
REMARK INTER:                 -11.496
REMARK INTRA:                   0.000
REMARK UNBOUND:                 0.000
ROOT
REMARK  Name = benorilate
REMARK                            x       y       z     vdW  Elec       q    Type
REMARK                         _______ _______ _______ _____ _____    ______ ____
ATOM      1  C   UNL     1      62.283  64.977  72.037  0.00  0.00    +0.000 C 
ATOM      2  C   UNL     1      61.846  64.635  71.425  0.00  0.00    +0.000 C 
ATOM      3  O   UNL     1      61.039  64.498  71.523  0.00  0.00    +0.000 OA
ATOM      4  N   UNL     1      62.218  64.431  70.718  0.00  0.00    +0.000 NA
ATOM      5  C   UNL     1      61.782  64.089  70.107  0.00  0.00    +0.000 A 
ATOM      6  C   UNL     1      62.153  63.885  69.399  0.00  0.00    +0.000 A 
ATOM      7  C   UNL     1      61.717  63.543  68.789  0.00  0.00    +0.000 A 
ATOM      8  C   UNL     1      60.909  63.405  68.885  0.00  0.00    +0.000 A 
ATOM      9  O   UNL     1      60.473  63.063  68.274  0.00  0.00    +0.000 OA
ATOM     10  C   UNL     1      60.845  62.860  67.567  0.00  0.00    +0.000 C 
ATOM     11  O   UNL     1      61.653  62.997  67.469  0.00  0.00    +0.000 OA
ATOM     12  C   UNL     1      60.408  62.517  66.955  0.00  0.00    +0.000 A 
ATOM     13  C   UNL     1      60.780  62.313  66.247  0.00  0.00    +0.000 A 
ATOM     14  O   UNL     1      61.587  62.451  66.150  0.00  0.00    +0.000 OA
ATOM     15  C   UNL     1      61.960  62.247  65.443  0.00  0.00    +0.000 C 
ATOM     16  C   UNL     1      61.524  61.905  64.831  0.00  0.00    +0.000 C 
ATOM     17  O   UNL     1      62.767  62.384  65.346  0.00  0.00    +0.000 OA
ATOM     18  C   UNL     1      60.344  61.971  65.636  0.00  0.00    +0.000 A 
ATOM     19  C   UNL     1      59.536  61.833  65.732  0.00  0.00    +0.000 A 
ATOM     20  C   UNL     1      59.165  62.038  66.440  0.00  0.00    +0.000 A 
ATOM     21  C   UNL     1      59.601  62.380  67.051  0.00  0.00    +0.000 A 
ATOM     22  C   UNL     1      60.539  63.610  69.593  0.00  0.00    +0.000 A 
ATOM     23  C   UNL     1      60.974  63.951  70.203  0.00  0.00    +0.000 A 
ENDROOT
TORSDOF 0
ENDMDL
MODEL 4
REMARK VINA RESULT:   -11.018      1.529      2.104
REMARK INTER + INTRA:         -11.018
REMARK INTER:                 -11.018
REMARK INTRA:                   0.000
REMARK UNBOUND:                 0.000
ROOT
REMARK  Name = benorilate
REMARK                            x       y       z     vdW  Elec       q    Type
REMARK                         _______ _______ _______ _____ _____    ______ ____
ATOM      1  C   UNL     1      60.053  62.015  65.485  0.00  0.00    +0.000 C 
ATOM      2  C   UNL     1      60.288  62.009  66.276  0.00  0.00    +0.000 C 
ATOM      3  O   UNL     1      60.803  61.424  66.548  0.00  0.00    +0.000 OA
ATOM      4  N   UNL     1      60.008  62.586  66.794  0.00  0.00    +0.000 NA
ATOM      5  C   UNL     1      60.244  62.580  67.585  0.00  0.00    +0.000 A 
ATOM      6  C   UNL     1      59.964  63.157  68.104  0.00  0.00    +0.000 A 
ATOM      7  C   UNL     1      60.199  63.150  68.893  0.00  0.00    +0.000 A 
ATOM      8  C   UNL     1      60.714  62.567  69.167  0.00  0.00    +0.000 A 
ATOM      9  O   UNL     1      60.949  62.560  69.957  0.00  0.00    +0.000 OA
ATOM     10  C   UNL     1      60.669  63.137  70.475  0.00  0.00    +0.000 C 
ATOM     11  O   UNL     1      60.154  63.722  70.203  0.00  0.00    +0.000 OA
ATOM     12  C   UNL     1      60.904  63.131  71.267  0.00  0.00    +0.000 A 
ATOM     13  C   UNL     1      60.624  63.709  71.785  0.00  0.00    +0.000 A 
ATOM     14  O   UNL     1      60.110  64.293  71.513  0.00  0.00    +0.000 OA
ATOM     15  C   UNL     1      59.830  64.871  72.030  0.00  0.00    +0.000 C 
ATOM     16  C   UNL     1      60.065  64.865  72.821  0.00  0.00    +0.000 C 
ATOM     17  O   UNL     1      59.316  65.455  71.758  0.00  0.00    +0.000 OA
ATOM     18  C   UNL     1      60.859  63.703  72.575  0.00  0.00    +0.000 A 
ATOM     19  C   UNL     1      61.375  63.118  72.848  0.00  0.00    +0.000 A 
ATOM     20  C   UNL     1      61.654  62.540  72.330  0.00  0.00    +0.000 A 
ATOM     21  C   UNL     1      61.419  62.547  71.539  0.00  0.00    +0.000 A 
ATOM     22  C   UNL     1      60.993  61.989  68.648  0.00  0.00    +0.000 A 
ATOM     23  C   UNL     1      60.758  61.996  67.858  0.00  0.00    +0.000 A 
ENDROOT
TORSDOF 0
ENDMDL
MODEL 5
REMARK VINA RESULT:   -10.834      2.785      4.947
REMARK INTER + INTRA:         -10.834
REMARK INTER:                 -10.834
REMARK INTRA:                   0.000
REMARK UNBOUND:                 0.000
ROOT
REMARK  Name = benorilate
REMARK                            x       y       z     vdW  Elec       q    Type
REMARK                         _______ _______ _______ _____ _____    ______ ____
ATOM      1  C   UNL     1      64.755  67.550  71.703  0.00  0.00    +0.000 C 
ATOM      2  C   UNL     1      64.258  66.891  71.680  0.00  0.00    +0.000 C 
ATOM      3  O   UNL     1      63.997  66.547  72.384  0.00  0.00    +0.000 OA
ATOM      4  N   UNL     1      64.023  66.577  70.955  0.00  0.00    +0.000 NA
ATOM      5  C   UNL     1      63.526  65.918  70.933  0.00  0.00    +0.000 A 
ATOM      6  C   UNL     1      63.290  65.604  70.207  0.00  0.00    +0.000 A 
ATOM      7  C   UNL     1      62.794  64.946  70.185  0.00  0.00    +0.000 A 
ATOM      8  C   UNL     1      62.533  64.602  70.887  0.00  0.00    +0.000 A 
ATOM      9  O   UNL     1      62.037  63.943  70.864  0.00  0.00    +0.000 OA
ATOM     10  C   UNL     1      61.801  63.629  70.139  0.00  0.00    +0.000 C 
ATOM     11  O   UNL     1      62.062  63.973  69.436  0.00  0.00    +0.000 OA
ATOM     12  C   UNL     1      61.304  62.970  70.116  0.00  0.00    +0.000 A 
ATOM     13  C   UNL     1      61.069  62.656  69.390  0.00  0.00    +0.000 A 
ATOM     14  O   UNL     1      61.330  63.000  68.688  0.00  0.00    +0.000 OA
ATOM     15  C   UNL     1      61.095  62.686  67.962  0.00  0.00    +0.000 C 
ATOM     16  C   UNL     1      60.598  62.028  67.939  0.00  0.00    +0.000 C 
ATOM     17  O   UNL     1      61.355  63.030  67.259  0.00  0.00    +0.000 OA
ATOM     18  C   UNL     1      60.573  61.998  69.368  0.00  0.00    +0.000 A 
ATOM     19  C   UNL     1      60.311  61.653  70.071  0.00  0.00    +0.000 A 
ATOM     20  C   UNL     1      60.547  61.968  70.796  0.00  0.00    +0.000 A 
ATOM     21  C   UNL     1      61.044  62.626  70.819  0.00  0.00    +0.000 A 
ATOM     22  C   UNL     1      62.769  64.916  71.612  0.00  0.00    +0.000 A 
ATOM     23  C   UNL     1      63.265  65.574  71.635  0.00  0.00    +0.000 A 
ENDROOT
TORSDOF 0
ENDMDL
MODEL 6
REMARK VINA RESULT:   -10.459      1.893      2.377
REMARK INTER + INTRA:         -10.459
REMARK INTER:                 -10.459
REMARK INTRA:                   0.000
REMARK UNBOUND:                 0.000
ROOT
REMARK  Name = benorilate
REMARK                            x       y       z     vdW  Elec       q    Type
REMARK                         _______ _______ _______ _____ _____    ______ ____
ATOM      1  C   UNL     1      59.993  61.625  65.069  0.00  0.00    +0.000 C 
ATOM      2  C   UNL     1      60.057  61.901  65.845  0.00  0.00    +0.000 C 
ATOM      3  O   UNL     1      59.420  61.827  66.364  0.00  0.00    +0.000 OA
ATOM      4  N   UNL     1      60.759  62.251  66.101  0.00  0.00    +0.000 NA
ATOM      5  C   UNL     1      60.824  62.526  66.876  0.00  0.00    +0.000 A 
ATOM      6  C   UNL     1      61.525  62.876  67.132  0.00  0.00    +0.000 A 
ATOM      7  C   UNL     1      61.590  63.152  67.906  0.00  0.00    +0.000 A 
ATOM      8  C   UNL     1      60.953  63.078  68.425  0.00  0.00    +0.000 A 
ATOM      9  O   UNL     1      61.018  63.354  69.200  0.00  0.00    +0.000 OA
ATOM     10  C   UNL     1      61.719  63.703  69.456  0.00  0.00    +0.000 C 
ATOM     11  O   UNL     1      62.357  63.777  68.938  0.00  0.00    +0.000 OA
ATOM     12  C   UNL     1      61.784  63.979  70.232  0.00  0.00    +0.000 A 
ATOM     13  C   UNL     1      62.486  64.329  70.487  0.00  0.00    +0.000 A 
ATOM     14  O   UNL     1      63.123  64.403  69.969  0.00  0.00    +0.000 OA
ATOM     15  C   UNL     1      63.826  64.753  70.225  0.00  0.00    +0.000 C 
ATOM     16  C   UNL     1      63.890  65.029  70.999  0.00  0.00    +0.000 C 
ATOM     17  O   UNL     1      64.462  64.827  69.706  0.00  0.00    +0.000 OA
ATOM     18  C   UNL     1      62.551  64.605  71.262  0.00  0.00    +0.000 A 
ATOM     19  C   UNL     1      61.913  64.531  71.781  0.00  0.00    +0.000 A 
ATOM     20  C   UNL     1      61.212  64.181  71.525  0.00  0.00    +0.000 A 
ATOM     21  C   UNL     1      61.147  63.905  70.750  0.00  0.00    +0.000 A 
ATOM     22  C   UNL     1      60.251  62.728  68.169  0.00  0.00    +0.000 A 
ATOM     23  C   UNL     1      60.187  62.453  67.395  0.00  0.00    +0.000 A 
ENDROOT
TORSDOF 0
ENDMDL
MODEL 7
REMARK VINA RESULT:   -10.407      3.663      5.534
REMARK INTER + INTRA:         -10.407
REMARK INTER:                 -10.407
REMARK INTRA:                   0.000
REMARK UNBOUND:                 0.000
ROOT
REMARK  Name = benorilate
REMARK                            x       y       z     vdW  Elec       q    Type
REMARK                         _______ _______ _______ _____ _____    ______ ____
ATOM      1  C   UNL     1      60.136  61.631  70.828  0.00  0.00    +0.000 C 
ATOM      2  C   UNL     1      60.758  62.175  70.842  0.00  0.00    +0.000 C 
ATOM      3  O   UNL     1      61.472  61.994  70.469  0.00  0.00    +0.000 OA
ATOM      4  N   UNL     1      60.666  62.897  71.229  0.00  0.00    +0.000 NA
ATOM      5  C   UNL     1      61.287  63.440  71.242  0.00  0.00    +0.000 A 
ATOM      6  C   UNL     1      61.195  64.163  71.629  0.00  0.00    +0.000 A 
ATOM      7  C   UNL     1      61.815  64.705  71.643  0.00  0.00    +0.000 A 
ATOM      8  C   UNL     1      62.529  64.525  71.270  0.00  0.00    +0.000 A 
ATOM      9  O   UNL     1      63.150  65.068  71.284  0.00  0.00    +0.000 OA
ATOM     10  C   UNL     1      63.057  65.791  71.670  0.00  0.00    +0.000 C 
ATOM     11  O   UNL     1      62.344  65.971  72.043  0.00  0.00    +0.000 OA
ATOM     12  C   UNL     1      63.679  66.334  71.684  0.00  0.00    +0.000 A 
ATOM     13  C   UNL     1      63.586  67.057  72.071  0.00  0.00    +0.000 A 
ATOM     14  O   UNL     1      62.873  67.237  72.444  0.00  0.00    +0.000 OA
ATOM     15  C   UNL     1      62.780  67.960  72.830  0.00  0.00    +0.000 C 
ATOM     16  C   UNL     1      63.401  68.503  72.844  0.00  0.00    +0.000 C 
ATOM     17  O   UNL     1      62.067  68.140  73.203  0.00  0.00    +0.000 OA
ATOM     18  C   UNL     1      64.207  67.600  72.085  0.00  0.00    +0.000 A 
ATOM     19  C   UNL     1      64.922  67.420  71.712  0.00  0.00    +0.000 A 
ATOM     20  C   UNL     1      65.013  66.697  71.326  0.00  0.00    +0.000 A 
ATOM     21  C   UNL     1      64.392  66.154  71.312  0.00  0.00    +0.000 A 
ATOM     22  C   UNL     1      62.621  63.802  70.884  0.00  0.00    +0.000 A 
ATOM     23  C   UNL     1      62.000  63.260  70.870  0.00  0.00    +0.000 A 
ENDROOT
TORSDOF 0
ENDMDL
MODEL 8
REMARK VINA RESULT:   -10.196      5.029      7.019
REMARK INTER + INTRA:         -10.196
REMARK INTER:                 -10.196
REMARK INTRA:                   0.000
REMARK UNBOUND:                 0.000
ROOT
REMARK  Name = benorilate
REMARK                            x       y       z     vdW  Elec       q    Type
REMARK                         _______ _______ _______ _____ _____    ______ ____
ATOM      1  C   UNL     1      60.070  64.628  72.136  0.00  0.00    +0.000 C 
ATOM      2  C   UNL     1      60.708  65.014  71.780  0.00  0.00    +0.000 C 
ATOM      3  O   UNL     1      60.612  65.377  71.046  0.00  0.00    +0.000 OA
ATOM      4  N   UNL     1      61.440  65.035  72.159  0.00  0.00    +0.000 NA
ATOM      5  C   UNL     1      62.077  65.420  71.803  0.00  0.00    +0.000 A 
ATOM      6  C   UNL     1      62.809  65.441  72.181  0.00  0.00    +0.000 A 
ATOM      7  C   UNL     1      63.446  65.825  71.826  0.00  0.00    +0.000 A 
ATOM      8  C   UNL     1      63.351  66.189  71.092  0.00  0.00    +0.000 A 
ATOM      9  O   UNL     1      63.989  66.574  70.737  0.00  0.00    +0.000 OA
ATOM     10  C   UNL     1      64.721  66.595  71.115  0.00  0.00    +0.000 C 
ATOM     11  O   UNL     1      64.817  66.231  71.850  0.00  0.00    +0.000 OA
ATOM     12  C   UNL     1      65.359  66.980  70.759  0.00  0.00    +0.000 A 
ATOM     13  C   UNL     1      66.091  67.001  71.139  0.00  0.00    +0.000 A 
ATOM     14  O   UNL     1      66.187  66.638  71.872  0.00  0.00    +0.000 OA
ATOM     15  C   UNL     1      66.919  66.658  72.252  0.00  0.00    +0.000 C 
ATOM     16  C   UNL     1      67.556  67.043  71.896  0.00  0.00    +0.000 C 
ATOM     17  O   UNL     1      67.015  66.295  72.986  0.00  0.00    +0.000 OA
ATOM     18  C   UNL     1      66.728  67.386  70.783  0.00  0.00    +0.000 A 
ATOM     19  C   UNL     1      66.633  67.750  70.048  0.00  0.00    +0.000 A 
ATOM     20  C   UNL     1      65.900  67.729  69.670  0.00  0.00    +0.000 A 
ATOM     21  C   UNL     1      65.263  67.344  70.026  0.00  0.00    +0.000 A 
ATOM     22  C   UNL     1      62.619  66.168  70.714  0.00  0.00    +0.000 A 
ATOM     23  C   UNL     1      61.982  65.783  71.069  0.00  0.00    +0.000 A 
ENDROOT
TORSDOF 0
ENDMDL
MODEL 9
REMARK VINA RESULT:    -9.864      3.711      5.862
REMARK INTER + INTRA:          -9.864
REMARK INTER:                  -9.864
REMARK INTRA:                   0.000
REMARK UNBOUND:                 0.000
ROOT
REMARK  Name = benorilate
REMARK                            x       y       z     vdW  Elec       q    Type
REMARK                         _______ _______ _______ _____ _____    ______ ____
ATOM      1  C   UNL     1      62.741  68.507  73.222  0.00  0.00    +0.000 C 
ATOM      2  C   UNL     1      62.434  67.881  72.779  0.00  0.00    +0.000 C 
ATOM      3  O   UNL     1      61.997  68.036  72.096  0.00  0.00    +0.000 OA
ATOM      4  N   UNL     1      62.565  67.104  73.018  0.00  0.00    +0.000 NA
ATOM      5  C   UNL     1      62.259  66.479  72.575  0.00  0.00    +0.000 A 
ATOM      6  C   UNL     1      62.389  65.700  72.814  0.00  0.00    +0.000 A 
ATOM      7  C   UNL     1      62.083  65.076  72.372  0.00  0.00    +0.000 A 
ATOM      8  C   UNL     1      61.646  65.229  71.690  0.00  0.00    +0.000 A 
ATOM      9  O   UNL     1      61.340  64.604  71.247  0.00  0.00    +0.000 OA
ATOM     10  C   UNL     1      61.471  63.826  71.486  0.00  0.00    +0.000 C 
ATOM     11  O   UNL     1      61.908  63.672  72.169  0.00  0.00    +0.000 OA
ATOM     12  C   UNL     1      61.164  63.200  71.043  0.00  0.00    +0.000 A 
ATOM     13  C   UNL     1      61.295  62.422  71.283  0.00  0.00    +0.000 A 
ATOM     14  O   UNL     1      61.732  62.268  71.965  0.00  0.00    +0.000 OA
ATOM     15  C   UNL     1      61.864  61.490  72.205  0.00  0.00    +0.000 C 
ATOM     16  C   UNL     1      61.557  60.865  71.762  0.00  0.00    +0.000 C 
ATOM     17  O   UNL     1      62.301  61.336  72.887  0.00  0.00    +0.000 OA
ATOM     18  C   UNL     1      60.989  61.797  70.840  0.00  0.00    +0.000 A 
ATOM     19  C   UNL     1      60.552  61.950  70.157  0.00  0.00    +0.000 A 
ATOM     20  C   UNL     1      60.421  62.729  69.918  0.00  0.00    +0.000 A 
ATOM     21  C   UNL     1      60.727  63.354  70.361  0.00  0.00    +0.000 A 
ATOM     22  C   UNL     1      61.516  66.007  71.451  0.00  0.00    +0.000 A 
ATOM     23  C   UNL     1      61.822  66.631  71.893  0.00  0.00    +0.000 A 
ENDROOT
TORSDOF 0
ENDMDL
