MODEL 1
REMARK VINA RESULT:   -11.415      0.000      0.000
REMARK INTER + INTRA:         -11.415
REMARK INTER:                 -11.415
REMARK INTRA:                   0.000
REMARK UNBOUND:                 0.000
ROOT
REMARK  Name = benzarone
REMARK                            x       y       z     vdW  Elec       q    Type
REMARK                         _______ _______ _______ _____ _____    ______ ____
ATOM      1  C   UNL     1      59.011  61.992  66.501  0.00  0.00    +0.000 C 
ATOM      2  C   UNL     1      59.802  62.223  66.551  0.00  0.00    +0.000 C 
ATOM      3  C   UNL     1      60.324  62.041  65.939  0.00  0.00    +0.000 A 
ATOM      4  C   UNL     1      61.125  62.234  65.911  0.00  0.00    +0.000 A 
ATOM      5  C   UNL     1      61.545  62.645  66.491  0.00  0.00    +0.000 C 
ATOM      6  O   UNL     1      62.349  62.800  66.387  0.00  0.00    +0.000 OA
ATOM      7  C   UNL     1      61.161  62.901  67.175  0.00  0.00    +0.000 A 
ATOM      8  C   UNL     1      61.580  63.312  67.755  0.00  0.00    +0.000 A 
ATOM      9  C   UNL     1      61.197  63.568  68.439  0.00  0.00    +0.000 A 
ATOM     10  C   UNL     1      60.393  63.413  68.543  0.00  0.00    +0.000 A 
ATOM     11  O   UNL     1      60.009  63.669  69.227  0.00  0.00    +0.000 OA
ATOM     12  C   UNL     1      59.973  63.003  67.963  0.00  0.00    +0.000 A 
ATOM     13  C   UNL     1      60.356  62.747  67.280  0.00  0.00    +0.000 A 
ATOM     14  C   UNL     1      61.433  61.946  65.203  0.00  0.00    +0.000 A 
ATOM     15  C   UNL     1      60.822  61.573  64.792  0.00  0.00    +0.000 A 
ATOM     16  O   UNL     1      60.136  61.632  65.247  0.00  0.00    +0.000 OA
ATOM     17  C   UNL     1      60.970  61.229  64.057  0.00  0.00    +0.000 A 
ATOM     18  C   UNL     1      61.727  61.257  63.733  0.00  0.00    +0.000 A 
ATOM     19  C   UNL     1      62.338  61.630  64.143  0.00  0.00    +0.000 A 
ATOM     20  C   UNL     1      62.191  61.974  64.878  0.00  0.00    +0.000 A 
ENDROOT
TORSDOF 0
ENDMDL
MODEL 2
REMARK VINA RESULT:   -10.364      2.560      5.292
REMARK INTER + INTRA:         -10.364
REMARK INTER:                 -10.364
REMARK INTRA:                   0.000
REMARK UNBOUND:                 0.000
ROOT
REMARK  Name = benzarone
REMARK                            x       y       z     vdW  Elec       q    Type
REMARK                         _______ _______ _______ _____ _____    ______ ____
ATOM      1  C   UNL     1      60.309  64.905  69.592  0.00  0.00    +0.000 C 
ATOM      2  C   UNL     1      60.447  64.097  69.693  0.00  0.00    +0.000 C 
ATOM      3  C   UNL     1      60.709  63.812  70.422  0.00  0.00    +0.000 A 
ATOM      4  C   UNL     1      60.870  63.024  70.604  0.00  0.00    +0.000 A 
ATOM      5  C   UNL     1      60.797  62.382  70.090  0.00  0.00    +0.000 C 
ATOM      6  O   UNL     1      60.978  61.621  70.351  0.00  0.00    +0.000 OA
ATOM      7  C   UNL     1      60.542  62.503  69.315  0.00  0.00    +0.000 A 
ATOM      8  C   UNL     1      60.468  61.861  68.800  0.00  0.00    +0.000 A 
ATOM      9  C   UNL     1      60.213  61.981  68.025  0.00  0.00    +0.000 A 
ATOM     10  C   UNL     1      60.032  62.742  67.763  0.00  0.00    +0.000 A 
ATOM     11  O   UNL     1      59.777  62.862  66.988  0.00  0.00    +0.000 OA
ATOM     12  C   UNL     1      60.105  63.383  68.278  0.00  0.00    +0.000 A 
ATOM     13  C   UNL     1      60.360  63.264  69.052  0.00  0.00    +0.000 A 
ATOM     14  C   UNL     1      61.117  62.989  71.390  0.00  0.00    +0.000 A 
ATOM     15  C   UNL     1      61.109  63.756  71.694  0.00  0.00    +0.000 A 
ATOM     16  O   UNL     1      60.857  64.265  71.096  0.00  0.00    +0.000 OA
ATOM     17  C   UNL     1      61.332  63.892  72.476  0.00  0.00    +0.000 A 
ATOM     18  C   UNL     1      61.563  63.261  72.955  0.00  0.00    +0.000 A 
ATOM     19  C   UNL     1      61.571  62.494  72.651  0.00  0.00    +0.000 A 
ATOM     20  C   UNL     1      61.348  62.358  71.869  0.00  0.00    +0.000 A 
ENDROOT
TORSDOF 0
ENDMDL
MODEL 3
REMARK VINA RESULT:   -10.274      2.419      3.856
REMARK INTER + INTRA:         -10.274
REMARK INTER:                 -10.274
REMARK INTRA:                   0.000
REMARK UNBOUND:                 0.000
ROOT
REMARK  Name = benzarone
REMARK                            x       y       z     vdW  Elec       q    Type
REMARK                         _______ _______ _______ _____ _____    ______ ____
ATOM      1  C   UNL     1      60.141  61.246  70.824  0.00  0.00    +0.000 C 
ATOM      2  C   UNL     1      60.563  61.919  70.600  0.00  0.00    +0.000 C 
ATOM      3  C   UNL     1      60.592  62.144  69.807  0.00  0.00    +0.000 A 
ATOM      4  C   UNL     1      60.989  62.799  69.502  0.00  0.00    +0.000 A 
ATOM      5  C   UNL     1      61.428  63.345  69.937  0.00  0.00    +0.000 C 
ATOM      6  O   UNL     1      61.797  63.976  69.555  0.00  0.00    +0.000 OA
ATOM      7  C   UNL     1      61.498  63.260  70.755  0.00  0.00    +0.000 A 
ATOM      8  C   UNL     1      61.937  63.807  71.190  0.00  0.00    +0.000 A 
ATOM      9  C   UNL     1      62.007  63.723  72.008  0.00  0.00    +0.000 A 
ATOM     10  C   UNL     1      61.638  63.092  72.391  0.00  0.00    +0.000 A 
ATOM     11  O   UNL     1      61.707  63.007  73.208  0.00  0.00    +0.000 OA
ATOM     12  C   UNL     1      61.199  62.545  71.955  0.00  0.00    +0.000 A 
ATOM     13  C   UNL     1      61.129  62.629  71.138  0.00  0.00    +0.000 A 
ATOM     14  C   UNL     1      60.871  62.812  68.686  0.00  0.00    +0.000 A 
ATOM     15  C   UNL     1      60.400  62.164  68.486  0.00  0.00    +0.000 A 
ATOM     16  O   UNL     1      60.227  61.751  69.178  0.00  0.00    +0.000 OA
ATOM     17  C   UNL     1      60.190  62.035  67.699  0.00  0.00    +0.000 A 
ATOM     18  C   UNL     1      60.450  62.552  67.112  0.00  0.00    +0.000 A 
ATOM     19  C   UNL     1      60.921  63.200  67.312  0.00  0.00    +0.000 A 
ATOM     20  C   UNL     1      61.131  63.330  68.098  0.00  0.00    +0.000 A 
ENDROOT
TORSDOF 0
ENDMDL
MODEL 4
REMARK VINA RESULT:   -10.237      5.583      7.302
REMARK INTER + INTRA:         -10.237
REMARK INTER:                 -10.237
REMARK INTRA:                   0.000
REMARK UNBOUND:                 0.000
ROOT
REMARK  Name = benzarone
REMARK                            x       y       z     vdW  Elec       q    Type
REMARK                         _______ _______ _______ _____ _____    ______ ____
ATOM      1  C   UNL     1      64.467  64.939  69.495  0.00  0.00    +0.000 C 
ATOM      2  C   UNL     1      64.345  65.437  70.142  0.00  0.00    +0.000 C 
ATOM      3  C   UNL     1      63.749  65.268  70.686  0.00  0.00    +0.000 A 
ATOM      4  C   UNL     1      63.562  65.712  71.356  0.00  0.00    +0.000 A 
ATOM      5  C   UNL     1      63.940  66.405  71.598  0.00  0.00    +0.000 C 
ATOM      6  O   UNL     1      63.692  66.791  72.284  0.00  0.00    +0.000 OA
ATOM      7  C   UNL     1      64.565  66.710  71.155  0.00  0.00    +0.000 A 
ATOM      8  C   UNL     1      64.942  67.403  71.398  0.00  0.00    +0.000 A 
ATOM      9  C   UNL     1      65.567  67.709  70.956  0.00  0.00    +0.000 A 
ATOM     10  C   UNL     1      65.816  67.323  70.270  0.00  0.00    +0.000 A 
ATOM     11  O   UNL     1      66.441  67.629  69.827  0.00  0.00    +0.000 OA
ATOM     12  C   UNL     1      65.438  66.630  70.027  0.00  0.00    +0.000 A 
ATOM     13  C   UNL     1      64.813  66.324  70.469  0.00  0.00    +0.000 A 
ATOM     14  C   UNL     1      62.933  65.342  71.739  0.00  0.00    +0.000 A 
ATOM     15  C   UNL     1      62.730  64.670  71.307  0.00  0.00    +0.000 A 
ATOM     16  O   UNL     1      63.234  64.623  70.656  0.00  0.00    +0.000 OA
ATOM     17  C   UNL     1      62.112  64.186  71.563  0.00  0.00    +0.000 A 
ATOM     18  C   UNL     1      61.698  64.375  72.250  0.00  0.00    +0.000 A 
ATOM     19  C   UNL     1      61.901  65.048  72.683  0.00  0.00    +0.000 A 
ATOM     20  C   UNL     1      62.518  65.532  72.428  0.00  0.00    +0.000 A 
ENDROOT
TORSDOF 0
ENDMDL
MODEL 5
REMARK VINA RESULT:   -10.197      5.439      6.708
REMARK INTER + INTRA:         -10.197
REMARK INTER:                 -10.197
REMARK INTRA:                   0.000
REMARK UNBOUND:                 0.000
ROOT
REMARK  Name = benzarone
REMARK                            x       y       z     vdW  Elec       q    Type
REMARK                         _______ _______ _______ _____ _____    ______ ____
ATOM      1  C   UNL     1      63.139  66.609  72.280  0.00  0.00    +0.000 C 
ATOM      2  C   UNL     1      63.205  65.988  71.740  0.00  0.00    +0.000 C 
ATOM      3  C   UNL     1      62.749  65.307  71.835  0.00  0.00    +0.000 A 
ATOM      4  C   UNL     1      62.756  64.646  71.343  0.00  0.00    +0.000 A 
ATOM      5  C   UNL     1      63.220  64.549  70.667  0.00  0.00    +0.000 C 
ATOM      6  O   UNL     1      63.168  63.853  70.227  0.00  0.00    +0.000 OA
ATOM      7  C   UNL     1      63.737  65.148  70.433  0.00  0.00    +0.000 A 
ATOM      8  C   UNL     1      64.201  65.051  69.757  0.00  0.00    +0.000 A 
ATOM      9  C   UNL     1      64.718  65.649  69.522  0.00  0.00    +0.000 A 
ATOM     10  C   UNL     1      64.770  66.345  69.963  0.00  0.00    +0.000 A 
ATOM     11  O   UNL     1      65.287  66.944  69.728  0.00  0.00    +0.000 OA
ATOM     12  C   UNL     1      64.306  66.442  70.638  0.00  0.00    +0.000 A 
ATOM     13  C   UNL     1      63.790  65.844  70.873  0.00  0.00    +0.000 A 
ATOM     14  C   UNL     1      62.218  64.098  71.644  0.00  0.00    +0.000 A 
ATOM     15  C   UNL     1      61.878  64.421  72.323  0.00  0.00    +0.000 A 
ATOM     16  O   UNL     1      62.206  65.168  72.441  0.00  0.00    +0.000 OA
ATOM     17  C   UNL     1      61.313  63.993  72.745  0.00  0.00    +0.000 A 
ATOM     18  C   UNL     1      61.088  63.242  72.488  0.00  0.00    +0.000 A 
ATOM     19  C   UNL     1      61.428  62.919  71.810  0.00  0.00    +0.000 A 
ATOM     20  C   UNL     1      61.993  63.347  71.387  0.00  0.00    +0.000 A 
ENDROOT
TORSDOF 0
ENDMDL
MODEL 6
REMARK VINA RESULT:    -9.928      5.385      7.006
REMARK INTER + INTRA:          -9.928
REMARK INTER:                  -9.928
REMARK INTRA:                   0.000
REMARK UNBOUND:                 0.000
ROOT
REMARK  Name = benzarone
REMARK                            x       y       z     vdW  Elec       q    Type
REMARK                         _______ _______ _______ _____ _____    ______ ____
ATOM      1  C   UNL     1      63.310  64.274  70.145  0.00  0.00    +0.000 C 
ATOM      2  C   UNL     1      63.298  64.862  70.724  0.00  0.00    +0.000 C 
ATOM      3  C   UNL     1      63.853  65.472  70.704  0.00  0.00    +0.000 A 
ATOM      4  C   UNL     1      63.909  66.095  71.242  0.00  0.00    +0.000 A 
ATOM      5  C   UNL     1      63.420  66.217  71.895  0.00  0.00    +0.000 C 
ATOM      6  O   UNL     1      63.543  66.868  72.387  0.00  0.00    +0.000 OA
ATOM      7  C   UNL     1      62.808  65.688  72.056  0.00  0.00    +0.000 A 
ATOM      8  C   UNL     1      62.319  65.810  72.709  0.00  0.00    +0.000 A 
ATOM      9  C   UNL     1      61.706  65.281  72.871  0.00  0.00    +0.000 A 
ATOM     10  C   UNL     1      61.583  64.630  72.379  0.00  0.00    +0.000 A 
ATOM     11  O   UNL     1      60.971  64.101  72.540  0.00  0.00    +0.000 OA
ATOM     12  C   UNL     1      62.073  64.508  71.726  0.00  0.00    +0.000 A 
ATOM     13  C   UNL     1      62.684  65.036  71.564  0.00  0.00    +0.000 A 
ATOM     14  C   UNL     1      64.540  66.574  71.012  0.00  0.00    +0.000 A 
ATOM     15  C   UNL     1      64.874  66.247  70.332  0.00  0.00    +0.000 A 
ATOM     16  O   UNL     1      64.450  65.567  70.141  0.00  0.00    +0.000 OA
ATOM     17  C   UNL     1      65.522  66.613  69.974  0.00  0.00    +0.000 A 
ATOM     18  C   UNL     1      65.835  67.304  70.296  0.00  0.00    +0.000 A 
ATOM     19  C   UNL     1      65.501  67.631  70.976  0.00  0.00    +0.000 A 
ATOM     20  C   UNL     1      64.854  67.266  71.335  0.00  0.00    +0.000 A 
ENDROOT
TORSDOF 0
ENDMDL
MODEL 7
REMARK VINA RESULT:    -9.912      3.841      5.546
REMARK INTER + INTRA:          -9.912
REMARK INTER:                  -9.912
REMARK INTRA:                   0.000
REMARK UNBOUND:                 0.000
ROOT
REMARK  Name = benzarone
REMARK                            x       y       z     vdW  Elec       q    Type
REMARK                         _______ _______ _______ _____ _____    ______ ____
ATOM      1  C   UNL     1      61.630  63.472  72.581  0.00  0.00    +0.000 C 
ATOM      2  C   UNL     1      61.695  63.486  71.758  0.00  0.00    +0.000 C 
ATOM      3  C   UNL     1      62.177  64.046  71.391  0.00  0.00    +0.000 A 
ATOM      4  C   UNL     1      62.295  64.127  70.579  0.00  0.00    +0.000 A 
ATOM      5  C   UNL     1      61.953  63.660  69.990  0.00  0.00    +0.000 C 
ATOM      6  O   UNL     1      62.124  63.806  69.197  0.00  0.00    +0.000 OA
ATOM      7  C   UNL     1      61.440  63.048  70.196  0.00  0.00    +0.000 A 
ATOM      8  C   UNL     1      61.098  62.581  69.607  0.00  0.00    +0.000 A 
ATOM      9  C   UNL     1      60.585  61.969  69.812  0.00  0.00    +0.000 A 
ATOM     10  C   UNL     1      60.414  61.822  70.606  0.00  0.00    +0.000 A 
ATOM     11  O   UNL     1      59.901  61.210  70.812  0.00  0.00    +0.000 OA
ATOM     12  C   UNL     1      60.756  62.289  71.194  0.00  0.00    +0.000 A 
ATOM     13  C   UNL     1      61.268  62.901  70.990  0.00  0.00    +0.000 A 
ATOM     14  C   UNL     1      62.815  64.755  70.458  0.00  0.00    +0.000 A 
ATOM     15  C   UNL     1      63.019  65.063  71.196  0.00  0.00    +0.000 A 
ATOM     16  O   UNL     1      62.624  64.625  71.773  0.00  0.00    +0.000 OA
ATOM     17  C   UNL     1      63.537  65.703  71.247  0.00  0.00    +0.000 A 
ATOM     18  C   UNL     1      63.852  66.034  70.561  0.00  0.00    +0.000 A 
ATOM     19  C   UNL     1      63.649  65.726  69.823  0.00  0.00    +0.000 A 
ATOM     20  C   UNL     1      63.131  65.087  69.771  0.00  0.00    +0.000 A 
ENDROOT
TORSDOF 0
ENDMDL
MODEL 8
REMARK VINA RESULT:    -9.720      5.787      7.263
REMARK INTER + INTRA:          -9.720
REMARK INTER:                  -9.720
REMARK INTRA:                   0.000
REMARK UNBOUND:                 0.000
ROOT
REMARK  Name = benzarone
REMARK                            x       y       z     vdW  Elec       q    Type
REMARK                         _______ _______ _______ _____ _____    ______ ____
ATOM      1  C   UNL     1      63.818  65.662  71.149  0.00  0.00    +0.000 C 
ATOM      2  C   UNL     1      63.173  65.738  71.658  0.00  0.00    +0.000 C 
ATOM      3  C   UNL     1      62.669  65.097  71.785  0.00  0.00    +0.000 A 
ATOM      4  C   UNL     1      62.006  65.090  72.276  0.00  0.00    +0.000 A 
ATOM      5  C   UNL     1      61.731  65.724  72.727  0.00  0.00    +0.000 C 
ATOM      6  O   UNL     1      61.057  65.635  73.194  0.00  0.00    +0.000 OA
ATOM      7  C   UNL     1      62.129  66.446  72.710  0.00  0.00    +0.000 A 
ATOM      8  C   UNL     1      61.854  67.080  73.161  0.00  0.00    +0.000 A 
ATOM      9  C   UNL     1      62.252  67.802  73.145  0.00  0.00    +0.000 A 
ATOM     10  C   UNL     1      62.926  67.891  72.677  0.00  0.00    +0.000 A 
ATOM     11  O   UNL     1      63.324  68.613  72.661  0.00  0.00    +0.000 OA
ATOM     12  C   UNL     1      63.201  67.257  72.226  0.00  0.00    +0.000 A 
ATOM     13  C   UNL     1      62.804  66.535  72.242  0.00  0.00    +0.000 A 
ATOM     14  C   UNL     1      61.668  64.339  72.237  0.00  0.00    +0.000 A 
ATOM     15  C   UNL     1      62.121  63.881  71.721  0.00  0.00    +0.000 A 
ATOM     16  O   UNL     1      62.740  64.349  71.442  0.00  0.00    +0.000 OA
ATOM     17  C   UNL     1      61.911  63.097  71.574  0.00  0.00    +0.000 A 
ATOM     18  C   UNL     1      61.249  62.771  71.941  0.00  0.00    +0.000 A 
ATOM     19  C   UNL     1      60.795  63.229  72.456  0.00  0.00    +0.000 A 
ATOM     20  C   UNL     1      61.004  64.013  72.604  0.00  0.00    +0.000 A 
ENDROOT
TORSDOF 0
ENDMDL
MODEL 9
REMARK VINA RESULT:    -9.095      4.426      5.895
REMARK INTER + INTRA:          -9.095
REMARK INTER:                  -9.095
REMARK INTRA:                   0.000
REMARK UNBOUND:                 0.000
ROOT
REMARK  Name = benzarone
REMARK                            x       y       z     vdW  Elec       q    Type
REMARK                         _______ _______ _______ _____ _____    ______ ____
ATOM      1  C   UNL     1      61.041  65.999  70.259  0.00  0.00    +0.000 C 
ATOM      2  C   UNL     1      60.518  65.564  70.727  0.00  0.00    +0.000 C 
ATOM      3  C   UNL     1      60.555  64.740  70.730  0.00  0.00    +0.000 A 
ATOM      4  C   UNL     1      60.071  64.234  71.167  0.00  0.00    +0.000 A 
ATOM      5  C   UNL     1      59.466  64.465  71.678  0.00  0.00    +0.000 C 
ATOM      6  O   UNL     1      59.026  63.894  72.081  0.00  0.00    +0.000 OA
ATOM      7  C   UNL     1      59.300  65.266  71.787  0.00  0.00    +0.000 A 
ATOM      8  C   UNL     1      58.695  65.496  72.298  0.00  0.00    +0.000 A 
ATOM      9  C   UNL     1      58.529  66.297  72.407  0.00  0.00    +0.000 A 
ATOM     10  C   UNL     1      58.968  66.867  72.005  0.00  0.00    +0.000 A 
ATOM     11  O   UNL     1      58.803  67.668  72.113  0.00  0.00    +0.000 OA
ATOM     12  C   UNL     1      59.574  66.637  71.494  0.00  0.00    +0.000 A 
ATOM     13  C   UNL     1      59.740  65.837  71.385  0.00  0.00    +0.000 A 
ATOM     14  C   UNL     1      60.299  63.459  71.004  0.00  0.00    +0.000 A 
ATOM     15  C   UNL     1      60.924  63.485  70.466  0.00  0.00    +0.000 A 
ATOM     16  O   UNL     1      61.082  64.276  70.296  0.00  0.00    +0.000 OA
ATOM     17  C   UNL     1      61.267  62.783  70.200  0.00  0.00    +0.000 A 
ATOM     18  C   UNL     1      60.987  62.057  70.471  0.00  0.00    +0.000 A 
ATOM     19  C   UNL     1      60.363  62.032  71.010  0.00  0.00    +0.000 A 
ATOM     20  C   UNL     1      60.018  62.732  71.276  0.00  0.00    +0.000 A 
ENDROOT
TORSDOF 0
ENDMDL
