MODEL 1
REMARK VINA RESULT:   -12.228      0.000      0.000
REMARK INTER + INTRA:         -12.228
REMARK INTER:                 -12.228
REMARK INTRA:                   0.000
REMARK UNBOUND:                 0.000
ROOT
REMARK  Name = besifloxacin
REMARK                            x       y       z     vdW  Elec       q    Type
REMARK                         _______ _______ _______ _____ _____    ______ ____
ATOM      1  N   UNL     1      60.797  63.408  68.354  0.00  0.00    +0.000 NA
ATOM      2  C   UNL     1      60.673  63.066  69.094  0.00  0.00    +0.000 C 
ATOM      3  C   UNL     1      60.857  62.263  69.152  0.00  0.00    +0.000 C 
ATOM      4  C   UNL     1      60.794  61.768  69.810  0.00  0.00    +0.000 C 
ATOM      5  C   UNL     1      60.533  61.952  70.570  0.00  0.00    +0.000 C 
ATOM      6  C   UNL     1      60.269  62.678  70.861  0.00  0.00    +0.000 C 
ATOM      7  N   UNL     1      60.202  63.398  70.464  0.00  0.00    +0.000 N 
ATOM      8  C   UNL     1      60.382  63.571  69.677  0.00  0.00    +0.000 C 
ATOM      9  C   UNL     1      59.917  64.029  70.912  0.00  0.00    +0.000 A 
ATOM     10  C   UNL     1      59.720  63.916  71.706  0.00  0.00    +0.000 A 
ATOM     11  F   UNL     1      59.809  63.171  72.050  0.00  0.00    +0.000 F 
ATOM     12  C   UNL     1      59.435  64.546  72.155  0.00  0.00    +0.000 A 
ATOM     13  C   UNL     1      59.347  65.290  71.811  0.00  0.00    +0.000 A 
ATOM     14  C   UNL     1      59.062  65.922  72.259  0.00  0.00    +0.000 A 
ATOM     15  O   UNL     1      58.866  65.808  73.052  0.00  0.00    +0.000 OA
ATOM     16  C   UNL     1      58.974  66.666  71.915  0.00  0.00    +0.000 A 
ATOM     17  C   UNL     1      59.171  66.779  71.121  0.00  0.00    +0.000 A 
ATOM     18  N   UNL     1      59.455  66.149  70.673  0.00  0.00    +0.000 N 
ATOM     19  C   UNL     1      59.652  66.262  69.879  0.00  0.00    +0.000 C 
ATOM     20  C   UNL     1      59.714  66.757  69.223  0.00  0.00    +0.000 C 
ATOM     21  C   UNL     1      59.930  65.963  69.163  0.00  0.00    +0.000 C 
ATOM     22  C   UNL     1      59.544  65.404  71.017  0.00  0.00    +0.000 A 
ATOM     23  C   UNL     1      59.828  64.773  70.568  0.00  0.00    +0.000 A 
ATOM     24 CL   UNL     1      60.025  64.887  69.775  0.00  0.00    +0.000 Cl
ATOM     25  C   UNL     1      58.689  67.297  72.363  0.00  0.00    +0.000 C 
ATOM     26  O   UNL     1      58.492  67.184  73.157  0.00  0.00    +0.000 OA
ATOM     27  O   UNL     1      58.601  68.041  72.019  0.00  0.00    +0.000 OA
ENDROOT
TORSDOF 0
ENDMDL
MODEL 2
REMARK VINA RESULT:   -11.843      4.057      4.566
REMARK INTER + INTRA:         -11.843
REMARK INTER:                 -11.843
REMARK INTRA:                   0.000
REMARK UNBOUND:                 0.000
ROOT
REMARK  Name = besifloxacin
REMARK                            x       y       z     vdW  Elec       q    Type
REMARK                         _______ _______ _______ _____ _____    ______ ____
ATOM      1  N   UNL     1      60.636  64.277  72.844  0.00  0.00    +0.000 NA
ATOM      2  C   UNL     1      60.975  63.860  72.219  0.00  0.00    +0.000 C 
ATOM      3  C   UNL     1      60.613  63.143  72.029  0.00  0.00    +0.000 C 
ATOM      4  C   UNL     1      60.818  62.604  71.439  0.00  0.00    +0.000 C 
ATOM      5  C   UNL     1      61.435  62.648  70.893  0.00  0.00    +0.000 C 
ATOM      6  C   UNL     1      61.999  63.242  70.802  0.00  0.00    +0.000 C 
ATOM      7  N   UNL     1      62.086  63.940  71.234  0.00  0.00    +0.000 N 
ATOM      8  C   UNL     1      61.631  64.215  71.865  0.00  0.00    +0.000 C 
ATOM      9  C   UNL     1      62.712  64.427  71.007  0.00  0.00    +0.000 A 
ATOM     10  C   UNL     1      63.203  64.203  70.381  0.00  0.00    +0.000 A 
ATOM     11  F   UNL     1      63.066  63.492  69.985  0.00  0.00    +0.000 F 
ATOM     12  C   UNL     1      63.828  64.690  70.153  0.00  0.00    +0.000 A 
ATOM     13  C   UNL     1      63.964  65.400  70.549  0.00  0.00    +0.000 A 
ATOM     14  C   UNL     1      64.589  65.887  70.322  0.00  0.00    +0.000 A 
ATOM     15  O   UNL     1      65.080  65.663  69.697  0.00  0.00    +0.000 OA
ATOM     16  C   UNL     1      64.725  66.597  70.718  0.00  0.00    +0.000 A 
ATOM     17  C   UNL     1      64.235  66.821  71.343  0.00  0.00    +0.000 A 
ATOM     18  N   UNL     1      63.609  66.334  71.571  0.00  0.00    +0.000 N 
ATOM     19  C   UNL     1      63.119  66.558  72.196  0.00  0.00    +0.000 C 
ATOM     20  C   UNL     1      62.915  67.097  72.785  0.00  0.00    +0.000 C 
ATOM     21  C   UNL     1      62.475  66.406  72.688  0.00  0.00    +0.000 C 
ATOM     22  C   UNL     1      63.473  65.624  71.175  0.00  0.00    +0.000 A 
ATOM     23  C   UNL     1      62.848  65.137  71.403  0.00  0.00    +0.000 A 
ATOM     24 CL   UNL     1      62.358  65.361  72.028  0.00  0.00    +0.000 Cl
ATOM     25  C   UNL     1      65.351  67.084  70.490  0.00  0.00    +0.000 C 
ATOM     26  O   UNL     1      65.841  66.861  69.865  0.00  0.00    +0.000 OA
ATOM     27  O   UNL     1      65.487  67.794  70.886  0.00  0.00    +0.000 OA
ENDROOT
TORSDOF 0
ENDMDL
MODEL 3
REMARK VINA RESULT:   -11.819      1.285      2.228
REMARK INTER + INTRA:         -11.819
REMARK INTER:                 -11.819
REMARK INTRA:                   0.000
REMARK UNBOUND:                 0.000
ROOT
REMARK  Name = besifloxacin
REMARK                            x       y       z     vdW  Elec       q    Type
REMARK                         _______ _______ _______ _____ _____    ______ ____
ATOM      1  N   UNL     1      60.783  61.693  70.273  0.00  0.00    +0.000 NA
ATOM      2  C   UNL     1      60.614  62.168  69.621  0.00  0.00    +0.000 C 
ATOM      3  C   UNL     1      60.660  61.796  68.885  0.00  0.00    +0.000 C 
ATOM      4  C   UNL     1      60.524  62.117  68.137  0.00  0.00    +0.000 C 
ATOM      5  C   UNL     1      60.308  62.888  67.939  0.00  0.00    +0.000 C 
ATOM      6  C   UNL     1      60.175  63.529  68.440  0.00  0.00    +0.000 C 
ATOM      7  N   UNL     1      60.224  63.558  69.264  0.00  0.00    +0.000 N 
ATOM      8  C   UNL     1      60.419  62.952  69.789  0.00  0.00    +0.000 C 
ATOM      9  C   UNL     1      60.056  64.289  69.608  0.00  0.00    +0.000 A 
ATOM     10  C   UNL     1      59.854  64.932  69.131  0.00  0.00    +0.000 A 
ATOM     11  F   UNL     1      59.820  64.844  68.312  0.00  0.00    +0.000 F 
ATOM     12  C   UNL     1      59.686  65.663  69.475  0.00  0.00    +0.000 A 
ATOM     13  C   UNL     1      59.719  65.751  70.294  0.00  0.00    +0.000 A 
ATOM     14  C   UNL     1      59.551  66.482  70.638  0.00  0.00    +0.000 A 
ATOM     15  O   UNL     1      59.349  67.125  70.162  0.00  0.00    +0.000 OA
ATOM     16  C   UNL     1      59.584  66.570  71.457  0.00  0.00    +0.000 A 
ATOM     17  C   UNL     1      59.786  65.926  71.934  0.00  0.00    +0.000 A 
ATOM     18  N   UNL     1      59.954  65.196  71.590  0.00  0.00    +0.000 N 
ATOM     19  C   UNL     1      60.156  64.553  72.066  0.00  0.00    +0.000 C 
ATOM     20  C   UNL     1      60.292  64.233  72.814  0.00  0.00    +0.000 C 
ATOM     21  C   UNL     1      60.370  63.760  72.142  0.00  0.00    +0.000 C 
ATOM     22  C   UNL     1      59.921  65.107  70.770  0.00  0.00    +0.000 A 
ATOM     23  C   UNL     1      60.089  64.377  70.427  0.00  0.00    +0.000 A 
ATOM     24 CL   UNL     1      60.291  63.734  70.903  0.00  0.00    +0.000 Cl
ATOM     25  C   UNL     1      59.416  67.301  71.801  0.00  0.00    +0.000 C 
ATOM     26  O   UNL     1      59.214  67.944  71.325  0.00  0.00    +0.000 OA
ATOM     27  O   UNL     1      59.449  67.389  72.620  0.00  0.00    +0.000 OA
ENDROOT
TORSDOF 0
ENDMDL
MODEL 4
REMARK VINA RESULT:   -11.725      4.244      4.719
REMARK INTER + INTRA:         -11.725
REMARK INTER:                 -11.725
REMARK INTRA:                   0.000
REMARK UNBOUND:                 0.000
ROOT
REMARK  Name = besifloxacin
REMARK                            x       y       z     vdW  Elec       q    Type
REMARK                         _______ _______ _______ _____ _____    ______ ____
ATOM      1  N   UNL     1      61.631  63.010  70.848  0.00  0.00    +0.000 NA
ATOM      2  C   UNL     1      61.500  63.571  71.439  0.00  0.00    +0.000 C 
ATOM      3  C   UNL     1      60.849  63.432  71.926  0.00  0.00    +0.000 C 
ATOM      4  C   UNL     1      60.575  63.885  72.560  0.00  0.00    +0.000 C 
ATOM      5  C   UNL     1      60.884  64.587  72.863  0.00  0.00    +0.000 C 
ATOM      6  C   UNL     1      61.544  65.010  72.607  0.00  0.00    +0.000 C 
ATOM      7  N   UNL     1      62.058  64.836  71.985  0.00  0.00    +0.000 N 
ATOM      8  C   UNL     1      62.039  64.195  71.465  0.00  0.00    +0.000 C 
ATOM      9  C   UNL     1      62.673  65.373  71.867  0.00  0.00    +0.000 A 
ATOM     10  C   UNL     1      62.743  66.035  72.357  0.00  0.00    +0.000 A 
ATOM     11  F   UNL     1      62.197  66.157  72.964  0.00  0.00    +0.000 F 
ATOM     12  C   UNL     1      63.357  66.572  72.240  0.00  0.00    +0.000 A 
ATOM     13  C   UNL     1      63.901  66.449  71.633  0.00  0.00    +0.000 A 
ATOM     14  C   UNL     1      64.517  66.987  71.515  0.00  0.00    +0.000 A 
ATOM     15  O   UNL     1      64.586  67.647  72.004  0.00  0.00    +0.000 OA
ATOM     16  C   UNL     1      65.061  66.864  70.908  0.00  0.00    +0.000 A 
ATOM     17  C   UNL     1      64.991  66.203  70.418  0.00  0.00    +0.000 A 
ATOM     18  N   UNL     1      64.377  65.666  70.536  0.00  0.00    +0.000 N 
ATOM     19  C   UNL     1      64.307  65.006  70.046  0.00  0.00    +0.000 C 
ATOM     20  C   UNL     1      64.581  64.554  69.413  0.00  0.00    +0.000 C 
ATOM     21  C   UNL     1      63.912  64.314  69.832  0.00  0.00    +0.000 C 
ATOM     22  C   UNL     1      63.832  65.788  71.143  0.00  0.00    +0.000 A 
ATOM     23  C   UNL     1      63.217  65.251  71.260  0.00  0.00    +0.000 A 
ATOM     24 CL   UNL     1      63.148  64.591  70.771  0.00  0.00    +0.000 Cl
ATOM     25  C   UNL     1      65.676  67.401  70.790  0.00  0.00    +0.000 C 
ATOM     26  O   UNL     1      65.746  68.062  71.280  0.00  0.00    +0.000 OA
ATOM     27  O   UNL     1      66.221  67.279  70.183  0.00  0.00    +0.000 OA
ENDROOT
TORSDOF 0
ENDMDL
MODEL 5
REMARK VINA RESULT:   -11.644      4.129      5.108
REMARK INTER + INTRA:         -11.644
REMARK INTER:                 -11.644
REMARK INTRA:                   0.000
REMARK UNBOUND:                 0.000
ROOT
REMARK  Name = besifloxacin
REMARK                            x       y       z     vdW  Elec       q    Type
REMARK                         _______ _______ _______ _____ _____    ______ ____
ATOM      1  N   UNL     1      64.595  67.476  72.252  0.00  0.00    +0.000 NA
ATOM      2  C   UNL     1      64.787  67.183  71.506  0.00  0.00    +0.000 C 
ATOM      3  C   UNL     1      65.441  67.532  71.143  0.00  0.00    +0.000 C 
ATOM      4  C   UNL     1      65.770  67.363  70.405  0.00  0.00    +0.000 C 
ATOM      5  C   UNL     1      65.526  66.805  69.848  0.00  0.00    +0.000 C 
ATOM      6  C   UNL     1      64.894  66.278  69.891  0.00  0.00    +0.000 C 
ATOM      7  N   UNL     1      64.348  66.178  70.503  0.00  0.00    +0.000 N 
ATOM      8  C   UNL     1      64.301  66.581  71.221  0.00  0.00    +0.000 C 
ATOM      9  C   UNL     1      63.773  65.599  70.379  0.00  0.00    +0.000 A 
ATOM     10  C   UNL     1      63.771  65.163  69.678  0.00  0.00    +0.000 A 
ATOM     11  F   UNL     1      64.343  65.308  69.101  0.00  0.00    +0.000 F 
ATOM     12  C   UNL     1      63.197  64.584  69.554  0.00  0.00    +0.000 A 
ATOM     13  C   UNL     1      62.626  64.440  70.131  0.00  0.00    +0.000 A 
ATOM     14  C   UNL     1      62.051  63.861  70.008  0.00  0.00    +0.000 A 
ATOM     15  O   UNL     1      62.049  63.425  69.307  0.00  0.00    +0.000 OA
ATOM     16  C   UNL     1      61.480  63.717  70.584  0.00  0.00    +0.000 A 
ATOM     17  C   UNL     1      61.482  64.152  71.286  0.00  0.00    +0.000 A 
ATOM     18  N   UNL     1      62.056  64.731  71.409  0.00  0.00    +0.000 N 
ATOM     19  C   UNL     1      62.059  65.167  72.110  0.00  0.00    +0.000 C 
ATOM     20  C   UNL     1      61.730  65.335  72.847  0.00  0.00    +0.000 C 
ATOM     21  C   UNL     1      62.392  65.752  72.585  0.00  0.00    +0.000 C 
ATOM     22  C   UNL     1      62.628  64.876  70.832  0.00  0.00    +0.000 A 
ATOM     23  C   UNL     1      63.202  65.455  70.956  0.00  0.00    +0.000 A 
ATOM     24 CL   UNL     1      63.204  65.890  71.657  0.00  0.00    +0.000 Cl
ATOM     25  C   UNL     1      60.905  63.137  70.461  0.00  0.00    +0.000 C 
ATOM     26  O   UNL     1      60.903  62.702  69.760  0.00  0.00    +0.000 OA
ATOM     27  O   UNL     1      60.334  62.993  71.037  0.00  0.00    +0.000 OA
ENDROOT
TORSDOF 0
ENDMDL
MODEL 6
REMARK VINA RESULT:   -11.549      2.679      3.286
REMARK INTER + INTRA:         -11.549
REMARK INTER:                 -11.549
REMARK INTRA:                   0.000
REMARK UNBOUND:                 0.000
ROOT
REMARK  Name = besifloxacin
REMARK                            x       y       z     vdW  Elec       q    Type
REMARK                         _______ _______ _______ _____ _____    ______ ____
ATOM      1  N   UNL     1      60.363  61.651  69.900  0.00  0.00    +0.000 NA
ATOM      2  C   UNL     1      60.615  62.204  69.343  0.00  0.00    +0.000 C 
ATOM      3  C   UNL     1      60.495  61.996  68.553  0.00  0.00    +0.000 C 
ATOM      4  C   UNL     1      60.685  62.425  67.874  0.00  0.00    +0.000 C 
ATOM      5  C   UNL     1      61.040  63.167  67.816  0.00  0.00    +0.000 C 
ATOM      6  C   UNL     1      61.294  63.664  68.423  0.00  0.00    +0.000 C 
ATOM      7  N   UNL     1      61.255  63.542  69.239  0.00  0.00    +0.000 N 
ATOM      8  C   UNL     1      60.953  62.892  69.648  0.00  0.00    +0.000 C 
ATOM      9  C   UNL     1      61.558  64.150  69.707  0.00  0.00    +0.000 A 
ATOM     10  C   UNL     1      61.874  64.826  69.353  0.00  0.00    +0.000 A 
ATOM     11  F   UNL     1      61.886  64.892  68.530  0.00  0.00    +0.000 F 
ATOM     12  C   UNL     1      62.177  65.433  69.820  0.00  0.00    +0.000 A 
ATOM     13  C   UNL     1      62.165  65.366  70.642  0.00  0.00    +0.000 A 
ATOM     14  C   UNL     1      62.469  65.974  71.111  0.00  0.00    +0.000 A 
ATOM     15  O   UNL     1      62.784  66.649  70.756  0.00  0.00    +0.000 OA
ATOM     16  C   UNL     1      62.457  65.907  71.932  0.00  0.00    +0.000 A 
ATOM     17  C   UNL     1      62.141  65.231  72.287  0.00  0.00    +0.000 A 
ATOM     18  N   UNL     1      61.838  64.624  71.819  0.00  0.00    +0.000 N 
ATOM     19  C   UNL     1      61.522  63.949  72.173  0.00  0.00    +0.000 C 
ATOM     20  C   UNL     1      61.333  63.521  72.852  0.00  0.00    +0.000 C 
ATOM     21  C   UNL     1      61.165  63.208  72.107  0.00  0.00    +0.000 C 
ATOM     22  C   UNL     1      61.849  64.690  70.997  0.00  0.00    +0.000 A 
ATOM     23  C   UNL     1      61.546  64.083  70.529  0.00  0.00    +0.000 A 
ATOM     24 CL   UNL     1      61.231  63.408  70.883  0.00  0.00    +0.000 Cl
ATOM     25  C   UNL     1      62.760  66.515  72.401  0.00  0.00    +0.000 C 
ATOM     26  O   UNL     1      63.076  67.190  72.047  0.00  0.00    +0.000 OA
ATOM     27  O   UNL     1      62.748  66.448  73.222  0.00  0.00    +0.000 OA
ENDROOT
TORSDOF 0
ENDMDL
MODEL 7
REMARK VINA RESULT:   -11.437      2.303      2.339
REMARK INTER + INTRA:         -11.437
REMARK INTER:                 -11.437
REMARK INTRA:                   0.000
REMARK UNBOUND:                 0.000
ROOT
REMARK  Name = besifloxacin
REMARK                            x       y       z     vdW  Elec       q    Type
REMARK                         _______ _______ _______ _____ _____    ______ ____
ATOM      1  N   UNL     1      60.745  63.107  68.272  0.00  0.00    +0.000 NA
ATOM      2  C   UNL     1      60.731  62.790  69.034  0.00  0.00    +0.000 C 
ATOM      3  C   UNL     1      60.460  62.013  69.093  0.00  0.00    +0.000 C 
ATOM      4  C   UNL     1      60.381  61.546  69.769  0.00  0.00    +0.000 C 
ATOM      5  C   UNL     1      60.553  61.741  70.552  0.00  0.00    +0.000 C 
ATOM      6  C   UNL     1      60.846  62.450  70.853  0.00  0.00    +0.000 C 
ATOM      7  N   UNL     1      61.040  63.141  70.445  0.00  0.00    +0.000 N 
ATOM      8  C   UNL     1      60.989  63.292  69.635  0.00  0.00    +0.000 C 
ATOM      9  C   UNL     1      61.323  63.763  70.907  0.00  0.00    +0.000 A 
ATOM     10  C   UNL     1      61.396  63.669  71.725  0.00  0.00    +0.000 A 
ATOM     11  F   UNL     1      61.186  62.954  72.078  0.00  0.00    +0.000 F 
ATOM     12  C   UNL     1      61.679  64.291  72.187  0.00  0.00    +0.000 A 
ATOM     13  C   UNL     1      61.889  65.005  71.834  0.00  0.00    +0.000 A 
ATOM     14  C   UNL     1      62.171  65.627  72.297  0.00  0.00    +0.000 A 
ATOM     15  O   UNL     1      62.244  65.534  73.113  0.00  0.00    +0.000 OA
ATOM     16  C   UNL     1      62.381  66.342  71.943  0.00  0.00    +0.000 A 
ATOM     17  C   UNL     1      62.309  66.436  71.126  0.00  0.00    +0.000 A 
ATOM     18  N   UNL     1      62.026  65.815  70.664  0.00  0.00    +0.000 N 
ATOM     19  C   UNL     1      61.953  65.908  69.847  0.00  0.00    +0.000 C 
ATOM     20  C   UNL     1      62.033  66.375  69.172  0.00  0.00    +0.000 C 
ATOM     21  C   UNL     1      61.748  65.603  69.109  0.00  0.00    +0.000 C 
ATOM     22  C   UNL     1      61.816  65.099  71.017  0.00  0.00    +0.000 A 
ATOM     23  C   UNL     1      61.533  64.478  70.554  0.00  0.00    +0.000 A 
ATOM     24 CL   UNL     1      61.461  64.571  69.738  0.00  0.00    +0.000 Cl
ATOM     25  C   UNL     1      62.664  66.964  72.406  0.00  0.00    +0.000 C 
ATOM     26  O   UNL     1      62.737  66.871  73.222  0.00  0.00    +0.000 OA
ATOM     27  O   UNL     1      62.874  67.679  72.053  0.00  0.00    +0.000 OA
ENDROOT
TORSDOF 0
ENDMDL
MODEL 8
REMARK VINA RESULT:   -11.355      3.092      3.595
REMARK INTER + INTRA:         -11.355
REMARK INTER:                 -11.355
REMARK INTRA:                   0.000
REMARK UNBOUND:                 0.000
ROOT
REMARK  Name = besifloxacin
REMARK                            x       y       z     vdW  Elec       q    Type
REMARK                         _______ _______ _______ _____ _____    ______ ____
ATOM      1  N   UNL     1      61.798  63.490  66.374  0.00  0.00    +0.000 NA
ATOM      2  C   UNL     1      61.241  62.958  66.667  0.00  0.00    +0.000 C 
ATOM      3  C   UNL     1      60.806  62.546  66.100  0.00  0.00    +0.000 C 
ATOM      4  C   UNL     1      60.214  61.982  66.215  0.00  0.00    +0.000 C 
ATOM      5  C   UNL     1      59.912  61.691  66.925  0.00  0.00    +0.000 C 
ATOM      6  C   UNL     1      60.126  61.891  67.696  0.00  0.00    +0.000 C 
ATOM      7  N   UNL     1      60.696  62.433  67.947  0.00  0.00    +0.000 N 
ATOM      8  C   UNL     1      61.193  62.908  67.489  0.00  0.00    +0.000 C 
ATOM      9  C   UNL     1      60.782  62.511  68.764  0.00  0.00    +0.000 A 
ATOM     10  C   UNL     1      60.312  62.060  69.273  0.00  0.00    +0.000 A 
ATOM     11  F   UNL     1      59.757  61.534  68.963  0.00  0.00    +0.000 F 
ATOM     12  C   UNL     1      60.397  62.138  70.089  0.00  0.00    +0.000 A 
ATOM     13  C   UNL     1      60.951  62.664  70.398  0.00  0.00    +0.000 A 
ATOM     14  C   UNL     1      61.036  62.742  71.215  0.00  0.00    +0.000 A 
ATOM     15  O   UNL     1      60.567  62.292  71.723  0.00  0.00    +0.000 OA
ATOM     16  C   UNL     1      61.590  63.268  71.524  0.00  0.00    +0.000 A 
ATOM     17  C   UNL     1      62.061  63.718  71.016  0.00  0.00    +0.000 A 
ATOM     18  N   UNL     1      61.975  63.641  70.200  0.00  0.00    +0.000 N 
ATOM     19  C   UNL     1      62.445  64.090  69.692  0.00  0.00    +0.000 C 
ATOM     20  C   UNL     1      63.036  64.654  69.577  0.00  0.00    +0.000 C 
ATOM     21  C   UNL     1      62.667  64.305  68.927  0.00  0.00    +0.000 C 
ATOM     22  C   UNL     1      61.421  63.114  69.890  0.00  0.00    +0.000 A 
ATOM     23  C   UNL     1      61.336  63.037  69.073  0.00  0.00    +0.000 A 
ATOM     24 CL   UNL     1      61.806  63.486  68.566  0.00  0.00    +0.000 Cl
ATOM     25  C   UNL     1      61.676  63.346  72.341  0.00  0.00    +0.000 C 
ATOM     26  O   UNL     1      61.206  62.896  72.849  0.00  0.00    +0.000 OA
ATOM     27  O   UNL     1      62.230  63.872  72.650  0.00  0.00    +0.000 OA
ENDROOT
TORSDOF 0
ENDMDL
MODEL 9
REMARK VINA RESULT:   -10.751      2.809      3.237
REMARK INTER + INTRA:         -10.751
REMARK INTER:                 -10.751
REMARK INTRA:                   0.000
REMARK UNBOUND:                 0.000
ROOT
REMARK  Name = besifloxacin
REMARK                            x       y       z     vdW  Elec       q    Type
REMARK                         _______ _______ _______ _____ _____    ______ ____
ATOM      1  N   UNL     1      64.396  66.806  71.006  0.00  0.00    +0.000 NA
ATOM      2  C   UNL     1      64.155  66.069  70.726  0.00  0.00    +0.000 C 
ATOM      3  C   UNL     1      64.712  65.657  70.276  0.00  0.00    +0.000 C 
ATOM      4  C   UNL     1      64.639  64.915  69.923  0.00  0.00    +0.000 C 
ATOM      5  C   UNL     1      63.994  64.402  69.930  0.00  0.00    +0.000 C 
ATOM      6  C   UNL     1      63.261  64.503  70.294  0.00  0.00    +0.000 C 
ATOM      7  N   UNL     1      62.992  65.144  70.740  0.00  0.00    +0.000 N 
ATOM      8  C   UNL     1      63.390  65.840  70.933  0.00  0.00    +0.000 C 
ATOM      9  C   UNL     1      62.223  65.079  71.033  0.00  0.00    +0.000 A 
ATOM     10  C   UNL     1      61.776  64.403  70.873  0.00  0.00    +0.000 A 
ATOM     11  F   UNL     1      62.099  63.794  70.420  0.00  0.00    +0.000 F 
ATOM     12  C   UNL     1      61.008  64.338  71.165  0.00  0.00    +0.000 A 
ATOM     13  C   UNL     1      60.686  64.948  71.618  0.00  0.00    +0.000 A 
ATOM     14  C   UNL     1      59.917  64.883  71.910  0.00  0.00    +0.000 A 
ATOM     15  O   UNL     1      59.471  64.208  71.750  0.00  0.00    +0.000 OA
ATOM     16  C   UNL     1      59.595  65.492  72.363  0.00  0.00    +0.000 A 
ATOM     17  C   UNL     1      60.042  66.168  72.524  0.00  0.00    +0.000 A 
ATOM     18  N   UNL     1      60.810  66.233  72.231  0.00  0.00    +0.000 N 
ATOM     19  C   UNL     1      61.257  66.908  72.392  0.00  0.00    +0.000 C 
ATOM     20  C   UNL     1      61.329  67.649  72.745  0.00  0.00    +0.000 C 
ATOM     21  C   UNL     1      61.959  67.334  72.315  0.00  0.00    +0.000 C 
ATOM     22  C   UNL     1      61.133  65.623  71.778  0.00  0.00    +0.000 A 
ATOM     23  C   UNL     1      61.901  65.688  71.486  0.00  0.00    +0.000 A 
ATOM     24 CL   UNL     1      62.348  66.363  71.646  0.00  0.00    +0.000 Cl
ATOM     25  C   UNL     1      58.826  65.428  72.656  0.00  0.00    +0.000 C 
ATOM     26  O   UNL     1      58.380  64.753  72.496  0.00  0.00    +0.000 OA
ATOM     27  O   UNL     1      58.504  66.037  73.109  0.00  0.00    +0.000 OA
ENDROOT
TORSDOF 0
ENDMDL
