MODEL 1
REMARK VINA RESULT:   -15.748      0.000      0.000
REMARK INTER + INTRA:         -15.748
REMARK INTER:                 -15.748
REMARK INTRA:                   0.000
REMARK UNBOUND:                 0.000
ROOT
REMARK  Name = betamethasone phosphate
REMARK                            x       y       z     vdW  Elec       q    Type
REMARK                         _______ _______ _______ _____ _____    ______ ____
ATOM      1  C   UNL     1      59.981  63.139  68.705  0.00  0.00    +0.000 C 
ATOM      2  C   UNL     1      60.367  62.936  68.006  0.00  0.00    +0.000 C 
ATOM      3  C   UNL     1      60.052  62.484  67.391  0.00  0.00    +0.000 C 
ATOM      4  C   UNL     1      60.626  62.417  66.803  0.00  0.00    +0.000 C 
ATOM      5  C   UNL     1      60.626  62.036  66.072  0.00  0.00    +0.000 C 
ATOM      6  C   UNL     1      59.955  61.626  65.820  0.00  0.00    +0.000 C 
ATOM      7  C   UNL     1      59.955  61.245  65.088  0.00  0.00    +0.000 C 
ATOM      8  C   UNL     1      60.625  61.274  64.609  0.00  0.00    +0.000 C 
ATOM      9  C   UNL     1      60.623  60.892  63.876  0.00  0.00    +0.000 C 
ATOM     10  C   UNL     1      61.293  60.921  63.396  0.00  0.00    +0.000 C 
ATOM     11  O   UNL     1      61.293  60.540  62.665  0.00  0.00    +0.000 OA
ATOM     12  C   UNL     1      61.964  61.331  63.647  0.00  0.00    +0.000 C 
ATOM     13  C   UNL     1      61.965  61.712  64.379  0.00  0.00    +0.000 C 
ATOM     14  C   UNL     1      61.295  61.683  64.859  0.00  0.00    +0.000 C 
ATOM     15  C   UNL     1      61.966  62.093  65.110  0.00  0.00    +0.000 C 
ATOM     16  C   UNL     1      61.296  62.065  65.591  0.00  0.00    +0.000 C 
ATOM     17  F   UNL     1      62.066  62.356  65.535  0.00  0.00    +0.000 F 
ATOM     18  C   UNL     1      61.967  62.474  65.842  0.00  0.00    +0.000 C 
ATOM     19  O   UNL     1      62.636  62.502  65.361  0.00  0.00    +0.000 OA
ATOM     20  C   UNL     1      61.967  62.855  66.573  0.00  0.00    +0.000 C 
ATOM     21  C   UNL     1      61.297  62.827  67.054  0.00  0.00    +0.000 C 
ATOM     22  C   UNL     1      61.924  63.256  67.377  0.00  0.00    +0.000 C 
ATOM     23  C   UNL     1      61.137  63.148  67.798  0.00  0.00    +0.000 C 
ATOM     24  O   UNL     1      61.870  63.508  67.905  0.00  0.00    +0.000 OA
ATOM     25  C   UNL     1      61.306  63.575  68.483  0.00  0.00    +0.000 C 
ATOM     26  O   UNL     1      62.045  63.930  68.575  0.00  0.00    +0.000 OA
ATOM     27  C   UNL     1      60.737  63.646  69.075  0.00  0.00    +0.000 C 
ATOM     28  O   UNL     1      60.907  64.074  69.760  0.00  0.00    +0.000 OA
ATOM     29  P   UNL     1      61.645  64.429  69.852  0.00  0.00    +0.000 P 
ATOM     30  O   UNL     1      62.384  64.784  69.945  0.00  0.00    +0.000 OA
ATOM     31  O   UNL     1      61.415  64.717  70.591  0.00  0.00    +0.000 OA
ATOM     32  O   UNL     1      61.876  64.141  69.115  0.00  0.00    +0.000 OA
ENDROOT
TORSDOF 0
ENDMDL
MODEL 2
REMARK VINA RESULT:   -15.088      4.624      6.280
REMARK INTER + INTRA:         -15.088
REMARK INTER:                 -15.088
REMARK INTRA:                   0.000
REMARK UNBOUND:                 0.000
ROOT
REMARK  Name = betamethasone phosphate
REMARK                            x       y       z     vdW  Elec       q    Type
REMARK                         _______ _______ _______ _____ _____    ______ ____
ATOM      1  C   UNL     1      61.354  63.835  72.153  0.00  0.00    +0.000 C 
ATOM      2  C   UNL     1      61.954  64.200  71.719  0.00  0.00    +0.000 C 
ATOM      3  C   UNL     1      62.415  64.837  71.968  0.00  0.00    +0.000 C 
ATOM      4  C   UNL     1      62.943  65.022  71.363  0.00  0.00    +0.000 C 
ATOM      5  C   UNL     1      63.529  65.599  71.298  0.00  0.00    +0.000 C 
ATOM      6  C   UNL     1      63.664  66.122  71.922  0.00  0.00    +0.000 C 
ATOM      7  C   UNL     1      64.251  66.698  71.858  0.00  0.00    +0.000 C 
ATOM      8  C   UNL     1      64.702  66.752  71.169  0.00  0.00    +0.000 C 
ATOM      9  C   UNL     1      65.289  67.330  71.106  0.00  0.00    +0.000 C 
ATOM     10  C   UNL     1      65.739  67.383  70.417  0.00  0.00    +0.000 C 
ATOM     11  O   UNL     1      66.326  67.960  70.353  0.00  0.00    +0.000 OA
ATOM     12  C   UNL     1      65.605  66.861  69.793  0.00  0.00    +0.000 C 
ATOM     13  C   UNL     1      65.019  66.285  69.857  0.00  0.00    +0.000 C 
ATOM     14  C   UNL     1      64.567  66.230  70.545  0.00  0.00    +0.000 C 
ATOM     15  C   UNL     1      64.432  65.707  69.921  0.00  0.00    +0.000 C 
ATOM     16  C   UNL     1      63.981  65.653  70.610  0.00  0.00    +0.000 C 
ATOM     17  F   UNL     1      64.102  65.324  69.862  0.00  0.00    +0.000 F 
ATOM     18  C   UNL     1      63.846  65.131  69.985  0.00  0.00    +0.000 C 
ATOM     19  O   UNL     1      64.298  65.186  69.298  0.00  0.00    +0.000 OA
ATOM     20  C   UNL     1      63.260  64.554  70.050  0.00  0.00    +0.000 C 
ATOM     21  C   UNL     1      62.808  64.500  70.738  0.00  0.00    +0.000 C 
ATOM     22  C   UNL     1      62.611  63.942  70.163  0.00  0.00    +0.000 C 
ATOM     23  C   UNL     1      62.196  63.991  70.958  0.00  0.00    +0.000 C 
ATOM     24  O   UNL     1      62.183  63.552  70.261  0.00  0.00    +0.000 OA
ATOM     25  C   UNL     1      61.664  63.370  70.856  0.00  0.00    +0.000 C 
ATOM     26  O   UNL     1      61.663  62.939  70.152  0.00  0.00    +0.000 OA
ATOM     27  C   UNL     1      61.133  63.178  71.457  0.00  0.00    +0.000 C 
ATOM     28  O   UNL     1      60.601  62.556  71.354  0.00  0.00    +0.000 OA
ATOM     29  P   UNL     1      60.600  62.126  70.651  0.00  0.00    +0.000 P 
ATOM     30  O   UNL     1      60.598  61.696  69.947  0.00  0.00    +0.000 OA
ATOM     31  O   UNL     1      59.985  61.656  70.939  0.00  0.00    +0.000 OA
ATOM     32  O   UNL     1      61.214  62.596  70.363  0.00  0.00    +0.000 OA
ENDROOT
TORSDOF 0
ENDMDL
MODEL 3
REMARK VINA RESULT:   -14.920      2.039      5.249
REMARK INTER + INTRA:         -14.920
REMARK INTER:                 -14.920
REMARK INTRA:                   0.000
REMARK UNBOUND:                 0.000
ROOT
REMARK  Name = betamethasone phosphate
REMARK                            x       y       z     vdW  Elec       q    Type
REMARK                         _______ _______ _______ _____ _____    ______ ____
ATOM      1  C   UNL     1      60.285  61.632  67.336  0.00  0.00    +0.000 C 
ATOM      2  C   UNL     1      60.609  62.123  67.914  0.00  0.00    +0.000 C 
ATOM      3  C   UNL     1      60.399  62.137  68.712  0.00  0.00    +0.000 C 
ATOM      4  C   UNL     1      60.861  62.709  69.087  0.00  0.00    +0.000 C 
ATOM      5  C   UNL     1      60.894  62.964  69.870  0.00  0.00    +0.000 C 
ATOM      6  C   UNL     1      60.400  62.625  70.437  0.00  0.00    +0.000 C 
ATOM      7  C   UNL     1      60.433  62.881  71.221  0.00  0.00    +0.000 C 
ATOM      8  C   UNL     1      60.962  63.476  71.437  0.00  0.00    +0.000 C 
ATOM      9  C   UNL     1      60.995  63.731  72.222  0.00  0.00    +0.000 C 
ATOM     10  C   UNL     1      61.523  64.326  72.439  0.00  0.00    +0.000 C 
ATOM     11  O   UNL     1      61.557  64.582  73.222  0.00  0.00    +0.000 OA
ATOM     12  C   UNL     1      62.018  64.666  71.873  0.00  0.00    +0.000 C 
ATOM     13  C   UNL     1      61.985  64.410  71.090  0.00  0.00    +0.000 C 
ATOM     14  C   UNL     1      61.457  63.815  70.872  0.00  0.00    +0.000 C 
ATOM     15  C   UNL     1      61.952  64.155  70.306  0.00  0.00    +0.000 C 
ATOM     16  C   UNL     1      61.423  63.560  70.088  0.00  0.00    +0.000 C 
ATOM     17  F   UNL     1      62.007  64.070  69.806  0.00  0.00    +0.000 F 
ATOM     18  C   UNL     1      61.918  63.899  69.522  0.00  0.00    +0.000 C 
ATOM     19  O   UNL     1      62.446  64.494  69.740  0.00  0.00    +0.000 OA
ATOM     20  C   UNL     1      61.884  63.644  68.739  0.00  0.00    +0.000 C 
ATOM     21  C   UNL     1      61.356  63.048  68.521  0.00  0.00    +0.000 C 
ATOM     22  C   UNL     1      61.814  63.335  67.897  0.00  0.00    +0.000 C 
ATOM     23  C   UNL     1      61.201  62.686  67.796  0.00  0.00    +0.000 C 
ATOM     24  O   UNL     1      61.749  63.116  67.356  0.00  0.00    +0.000 OA
ATOM     25  C   UNL     1      61.296  62.554  66.987  0.00  0.00    +0.000 C 
ATOM     26  O   UNL     1      61.850  62.993  66.561  0.00  0.00    +0.000 OA
ATOM     27  C   UNL     1      60.839  61.985  66.605  0.00  0.00    +0.000 C 
ATOM     28  O   UNL     1      60.935  61.853  65.796  0.00  0.00    +0.000 OA
ATOM     29  P   UNL     1      61.489  62.291  65.370  0.00  0.00    +0.000 P 
ATOM     30  O   UNL     1      62.042  62.729  64.943  0.00  0.00    +0.000 OA
ATOM     31  O   UNL     1      61.280  61.886  64.682  0.00  0.00    +0.000 OA
ATOM     32  O   UNL     1      61.697  62.696  66.058  0.00  0.00    +0.000 OA
ENDROOT
TORSDOF 0
ENDMDL
MODEL 4
REMARK VINA RESULT:   -14.458      4.321      5.873
REMARK INTER + INTRA:         -14.458
REMARK INTER:                 -14.458
REMARK INTRA:                   0.000
REMARK UNBOUND:                 0.000
ROOT
REMARK  Name = betamethasone phosphate
REMARK                            x       y       z     vdW  Elec       q    Type
REMARK                         _______ _______ _______ _____ _____    ______ ____
ATOM      1  C   UNL     1      64.154  66.747  72.059  0.00  0.00    +0.000 C 
ATOM      2  C   UNL     1      63.754  66.117  71.707  0.00  0.00    +0.000 C 
ATOM      3  C   UNL     1      63.133  65.689  72.041  0.00  0.00    +0.000 C 
ATOM      4  C   UNL     1      62.900  65.113  71.499  0.00  0.00    +0.000 C 
ATOM      5  C   UNL     1      62.315  64.531  71.528  0.00  0.00    +0.000 C 
ATOM      6  C   UNL     1      61.838  64.458  72.197  0.00  0.00    +0.000 C 
ATOM      7  C   UNL     1      61.254  63.877  72.226  0.00  0.00    +0.000 C 
ATOM      8  C   UNL     1      61.146  63.369  71.586  0.00  0.00    +0.000 C 
ATOM      9  C   UNL     1      60.561  62.787  71.615  0.00  0.00    +0.000 C 
ATOM     10  C   UNL     1      60.454  62.279  70.975  0.00  0.00    +0.000 C 
ATOM     11  O   UNL     1      59.869  61.697  71.004  0.00  0.00    +0.000 OA
ATOM     12  C   UNL     1      60.930  62.351  70.305  0.00  0.00    +0.000 C 
ATOM     13  C   UNL     1      61.515  62.932  70.276  0.00  0.00    +0.000 C 
ATOM     14  C   UNL     1      61.623  63.441  70.916  0.00  0.00    +0.000 C 
ATOM     15  C   UNL     1      62.100  63.513  70.247  0.00  0.00    +0.000 C 
ATOM     16  C   UNL     1      62.208  64.022  70.887  0.00  0.00    +0.000 C 
ATOM     17  F   UNL     1      62.480  63.832  70.132  0.00  0.00    +0.000 F 
ATOM     18  C   UNL     1      62.684  64.094  70.218  0.00  0.00    +0.000 C 
ATOM     19  O   UNL     1      62.576  63.585  69.578  0.00  0.00    +0.000 OA
ATOM     20  C   UNL     1      63.269  64.676  70.189  0.00  0.00    +0.000 C 
ATOM     21  C   UNL     1      63.377  65.185  70.829  0.00  0.00    +0.000 C 
ATOM     22  C   UNL     1      63.893  65.323  70.200  0.00  0.00    +0.000 C 
ATOM     23  C   UNL     1      63.905  65.806  70.957  0.00  0.00    +0.000 C 
ATOM     24  O   UNL     1      64.292  65.752  70.232  0.00  0.00    +0.000 OA
ATOM     25  C   UNL     1      64.522  66.319  70.765  0.00  0.00    +0.000 C 
ATOM     26  O   UNL     1      64.900  66.252  70.034  0.00  0.00    +0.000 OA
ATOM     27  C   UNL     1      64.760  66.897  71.301  0.00  0.00    +0.000 C 
ATOM     28  O   UNL     1      65.378  67.409  71.108  0.00  0.00    +0.000 OA
ATOM     29  P   UNL     1      65.755  67.343  70.378  0.00  0.00    +0.000 P 
ATOM     30  O   UNL     1      66.134  67.276  69.648  0.00  0.00    +0.000 OA
ATOM     31  O   UNL     1      66.250  67.973  70.576  0.00  0.00    +0.000 OA
ATOM     32  O   UNL     1      65.261  66.713  70.180  0.00  0.00    +0.000 OA
ENDROOT
TORSDOF 0
ENDMDL
MODEL 5
REMARK VINA RESULT:   -14.091      4.818      6.202
REMARK INTER + INTRA:         -14.091
REMARK INTER:                 -14.091
REMARK INTRA:                   0.000
REMARK UNBOUND:                 0.000
ROOT
REMARK  Name = betamethasone phosphate
REMARK                            x       y       z     vdW  Elec       q    Type
REMARK                         _______ _______ _______ _____ _____    ______ ____
ATOM      1  C   UNL     1      61.062  67.224  73.162  0.00  0.00    +0.000 C 
ATOM      2  C   UNL     1      61.218  66.507  72.783  0.00  0.00    +0.000 C 
ATOM      3  C   UNL     1      60.693  65.876  72.705  0.00  0.00    +0.000 C 
ATOM      4  C   UNL     1      61.076  65.275  72.290  0.00  0.00    +0.000 C 
ATOM      5  C   UNL     1      60.831  64.525  72.051  0.00  0.00    +0.000 C 
ATOM      6  C   UNL     1      60.068  64.265  72.228  0.00  0.00    +0.000 C 
ATOM      7  C   UNL     1      59.822  63.514  71.989  0.00  0.00    +0.000 C 
ATOM      8  C   UNL     1      60.339  63.025  71.573  0.00  0.00    +0.000 C 
ATOM      9  C   UNL     1      60.092  62.274  71.334  0.00  0.00    +0.000 C 
ATOM     10  C   UNL     1      60.608  61.784  70.917  0.00  0.00    +0.000 C 
ATOM     11  O   UNL     1      60.362  61.034  70.678  0.00  0.00    +0.000 OA
ATOM     12  C   UNL     1      61.371  62.044  70.740  0.00  0.00    +0.000 C 
ATOM     13  C   UNL     1      61.617  62.794  70.978  0.00  0.00    +0.000 C 
ATOM     14  C   UNL     1      61.101  63.285  71.395  0.00  0.00    +0.000 C 
ATOM     15  C   UNL     1      61.864  63.544  71.217  0.00  0.00    +0.000 C 
ATOM     16  C   UNL     1      61.347  64.035  71.634  0.00  0.00    +0.000 C 
ATOM     17  F   UNL     1      62.107  63.981  71.317  0.00  0.00    +0.000 F 
ATOM     18  C   UNL     1      62.110  64.295  71.456  0.00  0.00    +0.000 C 
ATOM     19  O   UNL     1      62.625  63.804  71.040  0.00  0.00    +0.000 OA
ATOM     20  C   UNL     1      62.356  65.045  71.695  0.00  0.00    +0.000 C 
ATOM     21  C   UNL     1      61.839  65.535  72.112  0.00  0.00    +0.000 C 
ATOM     22  C   UNL     1      62.582  65.869  71.974  0.00  0.00    +0.000 C 
ATOM     23  C   UNL     1      61.927  66.297  72.417  0.00  0.00    +0.000 C 
ATOM     24  O   UNL     1      62.704  66.410  72.168  0.00  0.00    +0.000 OA
ATOM     25  C   UNL     1      62.328  67.000  72.575  0.00  0.00    +0.000 C 
ATOM     26  O   UNL     1      63.106  67.098  72.319  0.00  0.00    +0.000 OA
ATOM     27  C   UNL     1      61.951  67.606  72.989  0.00  0.00    +0.000 C 
ATOM     28  O   UNL     1      62.353  68.309  73.148  0.00  0.00    +0.000 OA
ATOM     29  P   UNL     1      63.130  68.406  72.892  0.00  0.00    +0.000 P 
ATOM     30  O   UNL     1      63.908  68.504  72.636  0.00  0.00    +0.000 OA
ATOM     31  O   UNL     1      63.145  69.163  73.222  0.00  0.00    +0.000 OA
ATOM     32  O   UNL     1      63.116  67.651  72.561  0.00  0.00    +0.000 OA
ENDROOT
TORSDOF 0
ENDMDL
MODEL 6
REMARK VINA RESULT:   -14.087      4.411      5.884
REMARK INTER + INTRA:         -14.087
REMARK INTER:                 -14.087
REMARK INTRA:                   0.000
REMARK UNBOUND:                 0.000
ROOT
REMARK  Name = betamethasone phosphate
REMARK                            x       y       z     vdW  Elec       q    Type
REMARK                         _______ _______ _______ _____ _____    ______ ____
ATOM      1  C   UNL     1      64.677  65.905  69.171  0.00  0.00    +0.000 C 
ATOM      2  C   UNL     1      64.126  65.522  69.651  0.00  0.00    +0.000 C 
ATOM      3  C   UNL     1      63.551  64.987  69.399  0.00  0.00    +0.000 C 
ATOM      4  C   UNL     1      63.123  64.742  70.060  0.00  0.00    +0.000 C 
ATOM      5  C   UNL     1      62.491  64.220  70.145  0.00  0.00    +0.000 C 
ATOM      6  C   UNL     1      62.180  63.836  69.485  0.00  0.00    +0.000 C 
ATOM      7  C   UNL     1      61.548  63.313  69.570  0.00  0.00    +0.000 C 
ATOM      8  C   UNL     1      61.226  63.174  70.317  0.00  0.00    +0.000 C 
ATOM      9  C   UNL     1      60.593  62.651  70.402  0.00  0.00    +0.000 C 
ATOM     10  C   UNL     1      60.272  62.512  71.149  0.00  0.00    +0.000 C 
ATOM     11  O   UNL     1      59.639  61.990  71.235  0.00  0.00    +0.000 OA
ATOM     12  C   UNL     1      60.582  62.896  71.810  0.00  0.00    +0.000 C 
ATOM     13  C   UNL     1      61.214  63.419  71.724  0.00  0.00    +0.000 C 
ATOM     14  C   UNL     1      61.536  63.558  70.978  0.00  0.00    +0.000 C 
ATOM     15  C   UNL     1      61.847  63.942  71.640  0.00  0.00    +0.000 C 
ATOM     16  C   UNL     1      62.169  64.081  70.893  0.00  0.00    +0.000 C 
ATOM     17  F   UNL     1      62.228  64.276  71.692  0.00  0.00    +0.000 F 
ATOM     18  C   UNL     1      62.479  64.464  71.554  0.00  0.00    +0.000 C 
ATOM     19  O   UNL     1      62.157  64.325  72.300  0.00  0.00    +0.000 OA
ATOM     20  C   UNL     1      63.111  64.987  71.468  0.00  0.00    +0.000 C 
ATOM     21  C   UNL     1      63.433  65.126  70.721  0.00  0.00    +0.000 C 
ATOM     22  C   UNL     1      63.800  65.548  71.329  0.00  0.00    +0.000 C 
ATOM     23  C   UNL     1      64.054  65.609  70.469  0.00  0.00    +0.000 C 
ATOM     24  O   UNL     1      64.249  65.909  71.211  0.00  0.00    +0.000 OA
ATOM     25  C   UNL     1      64.669  66.149  70.562  0.00  0.00    +0.000 C 
ATOM     26  O   UNL     1      64.852  66.441  71.312  0.00  0.00    +0.000 OA
ATOM     27  C   UNL     1      65.102  66.399  69.906  0.00  0.00    +0.000 C 
ATOM     28  O   UNL     1      65.718  66.940  70.000  0.00  0.00    +0.000 OA
ATOM     29  P   UNL     1      65.900  67.231  70.750  0.00  0.00    +0.000 P 
ATOM     30  O   UNL     1      66.083  67.523  71.499  0.00  0.00    +0.000 OA
ATOM     31  O   UNL     1      66.506  67.688  70.425  0.00  0.00    +0.000 OA
ATOM     32  O   UNL     1      65.295  66.775  71.074  0.00  0.00    +0.000 OA
ENDROOT
TORSDOF 0
ENDMDL
MODEL 7
REMARK VINA RESULT:   -13.998      3.277      5.923
REMARK INTER + INTRA:         -13.998
REMARK INTER:                 -13.998
REMARK INTRA:                   0.000
REMARK UNBOUND:                 0.000
ROOT
REMARK  Name = betamethasone phosphate
REMARK                            x       y       z     vdW  Elec       q    Type
REMARK                         _______ _______ _______ _____ _____    ______ ____
ATOM      1  C   UNL     1      60.213  64.628  69.107  0.00  0.00    +0.000 C 
ATOM      2  C   UNL     1      60.996  64.719  69.349  0.00  0.00    +0.000 C 
ATOM      3  C   UNL     1      61.281  65.297  69.864  0.00  0.00    +0.000 C 
ATOM      4  C   UNL     1      62.093  65.183  69.951  0.00  0.00    +0.000 C 
ATOM      5  C   UNL     1      62.663  65.586  70.391  0.00  0.00    +0.000 C 
ATOM      6  C   UNL     1      62.447  66.235  70.852  0.00  0.00    +0.000 C 
ATOM      7  C   UNL     1      63.017  66.637  71.292  0.00  0.00    +0.000 C 
ATOM      8  C   UNL     1      63.803  66.391  71.270  0.00  0.00    +0.000 C 
ATOM      9  C   UNL     1      64.374  66.795  71.711  0.00  0.00    +0.000 C 
ATOM     10  C   UNL     1      65.160  66.548  71.689  0.00  0.00    +0.000 C 
ATOM     11  O   UNL     1      65.731  66.951  72.128  0.00  0.00    +0.000 OA
ATOM     12  C   UNL     1      65.378  65.900  71.228  0.00  0.00    +0.000 C 
ATOM     13  C   UNL     1      64.808  65.497  70.788  0.00  0.00    +0.000 C 
ATOM     14  C   UNL     1      64.021  65.742  70.809  0.00  0.00    +0.000 C 
ATOM     15  C   UNL     1      64.238  65.093  70.348  0.00  0.00    +0.000 C 
ATOM     16  C   UNL     1      63.451  65.340  70.370  0.00  0.00    +0.000 C 
ATOM     17  F   UNL     1      63.968  64.784  70.047  0.00  0.00    +0.000 F 
ATOM     18  C   UNL     1      63.668  64.691  69.909  0.00  0.00    +0.000 C 
ATOM     19  O   UNL     1      64.455  64.445  69.888  0.00  0.00    +0.000 OA
ATOM     20  C   UNL     1      63.098  64.288  69.469  0.00  0.00    +0.000 C 
ATOM     21  C   UNL     1      62.311  64.534  69.490  0.00  0.00    +0.000 C 
ATOM     22  C   UNL     1      62.445  63.879  69.006  0.00  0.00    +0.000 C 
ATOM     23  C   UNL     1      61.633  64.247  69.118  0.00  0.00    +0.000 C 
ATOM     24  O   UNL     1      62.000  63.630  68.714  0.00  0.00    +0.000 OA
ATOM     25  C   UNL     1      61.202  63.742  68.628  0.00  0.00    +0.000 C 
ATOM     26  O   UNL     1      61.586  63.128  68.231  0.00  0.00    +0.000 OA
ATOM     27  C   UNL     1      60.390  63.849  68.535  0.00  0.00    +0.000 C 
ATOM     28  O   UNL     1      59.961  63.343  68.045  0.00  0.00    +0.000 OA
ATOM     29  P   UNL     1      60.343  62.730  67.648  0.00  0.00    +0.000 P 
ATOM     30  O   UNL     1      60.726  62.117  67.251  0.00  0.00    +0.000 OA
ATOM     31  O   UNL     1      59.626  62.500  67.312  0.00  0.00    +0.000 OA
ATOM     32  O   UNL     1      61.060  62.960  67.985  0.00  0.00    +0.000 OA
ENDROOT
TORSDOF 0
ENDMDL
MODEL 8
REMARK VINA RESULT:   -13.133      6.063      7.320
REMARK INTER + INTRA:         -13.133
REMARK INTER:                 -13.133
REMARK INTRA:                   0.000
REMARK UNBOUND:                 0.000
ROOT
REMARK  Name = betamethasone phosphate
REMARK                            x       y       z     vdW  Elec       q    Type
REMARK                         _______ _______ _______ _____ _____    ______ ____
ATOM      1  C   UNL     1      63.555  65.312  70.764  0.00  0.00    +0.000 C 
ATOM      2  C   UNL     1      62.869  65.518  71.174  0.00  0.00    +0.000 C 
ATOM      3  C   UNL     1      62.142  65.130  71.128  0.00  0.00    +0.000 C 
ATOM      4  C   UNL     1      61.614  65.521  71.626  0.00  0.00    +0.000 C 
ATOM      5  C   UNL     1      60.820  65.385  71.804  0.00  0.00    +0.000 C 
ATOM      6  C   UNL     1      60.419  64.756  71.451  0.00  0.00    +0.000 C 
ATOM      7  C   UNL     1      59.625  64.621  71.629  0.00  0.00    +0.000 C 
ATOM      8  C   UNL     1      59.232  65.114  72.160  0.00  0.00    +0.000 C 
ATOM      9  C   UNL     1      58.437  64.978  72.337  0.00  0.00    +0.000 C 
ATOM     10  C   UNL     1      58.043  65.471  72.869  0.00  0.00    +0.000 C 
ATOM     11  O   UNL     1      57.250  65.336  73.046  0.00  0.00    +0.000 OA
ATOM     12  C   UNL     1      58.443  66.100  73.222  0.00  0.00    +0.000 C 
ATOM     13  C   UNL     1      59.237  66.235  73.045  0.00  0.00    +0.000 C 
ATOM     14  C   UNL     1      59.632  65.743  72.514  0.00  0.00    +0.000 C 
ATOM     15  C   UNL     1      60.032  66.372  72.867  0.00  0.00    +0.000 C 
ATOM     16  C   UNL     1      60.426  65.878  72.336  0.00  0.00    +0.000 C 
ATOM     17  F   UNL     1      60.512  66.537  72.826  0.00  0.00    +0.000 F 
ATOM     18  C   UNL     1      60.826  66.507  72.690  0.00  0.00    +0.000 C 
ATOM     19  O   UNL     1      60.431  67.000  73.221  0.00  0.00    +0.000 OA
ATOM     20  C   UNL     1      61.620  66.643  72.512  0.00  0.00    +0.000 C 
ATOM     21  C   UNL     1      62.014  66.150  71.980  0.00  0.00    +0.000 C 
ATOM     22  C   UNL     1      62.484  66.754  72.289  0.00  0.00    +0.000 C 
ATOM     23  C   UNL     1      62.790  66.148  71.701  0.00  0.00    +0.000 C 
ATOM     24  O   UNL     1      63.046  66.805  72.128  0.00  0.00    +0.000 OA
ATOM     25  C   UNL     1      63.566  66.421  71.638  0.00  0.00    +0.000 C 
ATOM     26  O   UNL     1      63.807  67.080  72.073  0.00  0.00    +0.000 OA
ATOM     27  C   UNL     1      64.100  66.037  71.142  0.00  0.00    +0.000 C 
ATOM     28  O   UNL     1      64.876  66.311  71.080  0.00  0.00    +0.000 OA
ATOM     29  P   UNL     1      65.117  66.969  71.514  0.00  0.00    +0.000 P 
ATOM     30  O   UNL     1      65.358  67.627  71.948  0.00  0.00    +0.000 OA
ATOM     31  O   UNL     1      65.874  66.905  71.192  0.00  0.00    +0.000 OA
ATOM     32  O   UNL     1      64.360  67.033  71.837  0.00  0.00    +0.000 OA
ENDROOT
TORSDOF 0
ENDMDL
