MODEL 1
REMARK VINA RESULT:   -17.803      0.000      0.000
REMARK INTER + INTRA:         -17.803
REMARK INTER:                 -17.803
REMARK INTRA:                   0.000
REMARK UNBOUND:                 0.000
ROOT
REMARK  Name = beta-Ergocryptine
REMARK                            x       y       z     vdW  Elec       q    Type
REMARK                         _______ _______ _______ _____ _____    ______ ____
ATOM      1  C   UNL     1      58.629  64.626  72.227  0.00  0.00    +0.000 C 
ATOM      2  C   UNL     1      59.414  64.878  72.242  0.00  0.00    +0.000 C 
ATOM      3  C   UNL     1      59.915  64.707  71.608  0.00  0.00    +0.000 C 
ATOM      4  C   UNL     1      59.629  64.285  70.960  0.00  0.00    +0.000 C 
ATOM      5  C   UNL     1      60.700  64.960  71.624  0.00  0.00    +0.000 C 
ATOM      6  N   UNL     1      61.200  64.789  70.990  0.00  0.00    +0.000 N 
ATOM      7  C   UNL     1      61.076  64.385  70.281  0.00  0.00    +0.000 C 
ATOM      8  O   UNL     1      60.367  64.040  70.038  0.00  0.00    +0.000 OA
ATOM      9  C   UNL     1      61.785  64.388  69.859  0.00  0.00    +0.000 C 
ATOM     10  N   UNL     1      61.351  63.965  69.298  0.00  0.00    +0.000 NA
ATOM     11  C   UNL     1      61.712  63.718  68.599  0.00  0.00    +0.000 C 
ATOM     12  O   UNL     1      62.505  63.893  68.460  0.00  0.00    +0.000 OA
ATOM     13  C   UNL     1      61.278  63.294  68.038  0.00  0.00    +0.000 C 
ATOM     14  C   UNL     1      60.484  63.119  68.177  0.00  0.00    +0.000 C 
ATOM     15  N   UNL     1      60.051  62.696  67.617  0.00  0.00    +0.000 NA
ATOM     16  C   UNL     1      59.256  62.520  67.757  0.00  0.00    +0.000 C 
ATOM     17  C   UNL     1      60.412  62.448  66.918  0.00  0.00    +0.000 C 
ATOM     18  C   UNL     1      59.979  62.025  66.358  0.00  0.00    +0.000 C 
ATOM     19  C   UNL     1      60.339  61.777  65.658  0.00  0.00    +0.000 C 
ATOM     20  C   UNL     1      60.054  61.355  65.010  0.00  0.00    +0.000 C 
ATOM     21  N   UNL     1      60.671  61.269  64.470  0.00  0.00    +0.000 NA
ATOM     22  C   UNL     1      61.339  61.638  64.785  0.00  0.00    +0.000 C 
ATOM     23  C   UNL     1      62.107  61.729  64.497  0.00  0.00    +0.000 C 
ATOM     24  C   UNL     1      62.669  62.134  64.945  0.00  0.00    +0.000 C 
ATOM     25  C   UNL     1      62.464  62.449  65.680  0.00  0.00    +0.000 C 
ATOM     26  C   UNL     1      61.567  62.376  66.080  0.00  0.00    +0.000 C 
ATOM     27  C   UNL     1      61.133  61.952  65.519  0.00  0.00    +0.000 C 
ATOM     28  C   UNL     1      61.206  62.623  66.779  0.00  0.00    +0.000 C 
ATOM     29  C   UNL     1      61.640  63.047  67.339  0.00  0.00    +0.000 C 
ATOM     30  O   UNL     1      62.347  64.794  70.306  0.00  0.00    +0.000 OA
ATOM     31  C   UNL     1      61.986  65.041  71.005  0.00  0.00    +0.000 C 
ATOM     32  O   UNL     1      62.779  65.256  70.943  0.00  0.00    +0.000 OA
ATOM     33  C   UNL     1      62.271  65.464  71.654  0.00  0.00    +0.000 C 
ATOM     34  C   UNL     1      63.014  65.782  71.823  0.00  0.00    +0.000 C 
ATOM     35  C   UNL     1      62.972  66.148  72.560  0.00  0.00    +0.000 C 
ATOM     36  C   UNL     1      62.204  66.057  72.848  0.00  0.00    +0.000 C 
ATOM     37  N   UNL     1      61.771  65.634  72.287  0.00  0.00    +0.000 N 
ATOM     38  C   UNL     1      60.985  65.382  72.273  0.00  0.00    +0.000 C 
ATOM     39  O   UNL     1      60.485  65.553  72.906  0.00  0.00    +0.000 OA
ATOM     40  C   UNL     1      62.402  64.302  69.319  0.00  0.00    +0.000 C 
ATOM     41  C   UNL     1      63.145  64.620  69.487  0.00  0.00    +0.000 C 
ATOM     42  C   UNL     1      62.762  64.054  68.619  0.00  0.00    +0.000 C 
ENDROOT
TORSDOF 0
ENDMDL
MODEL 2
REMARK VINA RESULT:   -16.761      1.395      2.202
REMARK INTER + INTRA:         -16.761
REMARK INTER:                 -16.761
REMARK INTRA:                   0.000
REMARK UNBOUND:                 0.000
ROOT
REMARK  Name = beta-Ergocryptine
REMARK                            x       y       z     vdW  Elec       q    Type
REMARK                         _______ _______ _______ _____ _____    ______ ____
ATOM      1  C   UNL     1      61.176  67.366  72.806  0.00  0.00    +0.000 C 
ATOM      2  C   UNL     1      61.970  67.251  72.611  0.00  0.00    +0.000 C 
ATOM      3  C   UNL     1      62.172  66.754  71.983  0.00  0.00    +0.000 C 
ATOM      4  C   UNL     1      61.581  66.373  71.552  0.00  0.00    +0.000 C 
ATOM      5  C   UNL     1      62.965  66.639  71.789  0.00  0.00    +0.000 C 
ATOM      6  N   UNL     1      63.168  66.142  71.162  0.00  0.00    +0.000 N 
ATOM      7  C   UNL     1      62.710  65.696  70.640  0.00  0.00    +0.000 C 
ATOM      8  O   UNL     1      61.886  65.649  70.638  0.00  0.00    +0.000 OA
ATOM      9  C   UNL     1      63.220  65.305  70.124  0.00  0.00    +0.000 C 
ATOM     10  N   UNL     1      62.522  65.005  69.800  0.00  0.00    +0.000 NA
ATOM     11  C   UNL     1      62.555  64.488  69.158  0.00  0.00    +0.000 C 
ATOM     12  O   UNL     1      63.283  64.270  68.841  0.00  0.00    +0.000 OA
ATOM     13  C   UNL     1      61.857  64.188  68.834  0.00  0.00    +0.000 C 
ATOM     14  C   UNL     1      61.128  64.406  69.152  0.00  0.00    +0.000 C 
ATOM     15  N   UNL     1      60.431  64.107  68.829  0.00  0.00    +0.000 NA
ATOM     16  C   UNL     1      59.701  64.326  69.147  0.00  0.00    +0.000 C 
ATOM     17  C   UNL     1      60.462  63.589  68.187  0.00  0.00    +0.000 C 
ATOM     18  C   UNL     1      59.766  63.290  67.863  0.00  0.00    +0.000 C 
ATOM     19  C   UNL     1      59.797  62.772  67.222  0.00  0.00    +0.000 C 
ATOM     20  C   UNL     1      59.207  62.391  66.790  0.00  0.00    +0.000 C 
ATOM     21  N   UNL     1      59.570  61.938  66.206  0.00  0.00    +0.000 NA
ATOM     22  C   UNL     1      60.387  62.038  66.276  0.00  0.00    +0.000 C 
ATOM     23  C   UNL     1      61.020  61.726  65.849  0.00  0.00    +0.000 C 
ATOM     24  C   UNL     1      61.793  61.931  66.050  0.00  0.00    +0.000 C 
ATOM     25  C   UNL     1      61.934  62.447  66.679  0.00  0.00    +0.000 C 
ATOM     26  C   UNL     1      61.224  62.853  67.228  0.00  0.00    +0.000 C 
ATOM     27  C   UNL     1      60.526  62.554  66.904  0.00  0.00    +0.000 C 
ATOM     28  C   UNL     1      61.192  63.371  67.869  0.00  0.00    +0.000 C 
ATOM     29  C   UNL     1      61.890  63.671  68.193  0.00  0.00    +0.000 C 
ATOM     30  O   UNL     1      63.994  65.509  70.325  0.00  0.00    +0.000 OA
ATOM     31  C   UNL     1      63.961  66.027  70.966  0.00  0.00    +0.000 C 
ATOM     32  O   UNL     1      64.726  65.859  70.709  0.00  0.00    +0.000 OA
ATOM     33  C   UNL     1      64.552  66.408  71.398  0.00  0.00    +0.000 C 
ATOM     34  C   UNL     1      65.375  66.401  71.335  0.00  0.00    +0.000 C 
ATOM     35  C   UNL     1      65.680  66.892  71.922  0.00  0.00    +0.000 C 
ATOM     36  C   UNL     1      65.046  67.204  72.349  0.00  0.00    +0.000 C 
ATOM     37  N   UNL     1      64.349  66.904  72.025  0.00  0.00    +0.000 N 
ATOM     38  C   UNL     1      63.556  67.020  72.221  0.00  0.00    +0.000 C 
ATOM     39  O   UNL     1      63.354  67.517  72.847  0.00  0.00    +0.000 OA
ATOM     40  C   UNL     1      63.584  64.851  69.539  0.00  0.00    +0.000 C 
ATOM     41  C   UNL     1      64.407  64.843  69.475  0.00  0.00    +0.000 C 
ATOM     42  C   UNL     1      63.615  64.333  68.897  0.00  0.00    +0.000 C 
ENDROOT
TORSDOF 0
ENDMDL
MODEL 3
REMARK VINA RESULT:   -15.276      1.140      2.618
REMARK INTER + INTRA:         -15.276
REMARK INTER:                 -15.276
REMARK INTRA:                   0.000
REMARK UNBOUND:                 0.000
ROOT
REMARK  Name = beta-Ergocryptine
REMARK                            x       y       z     vdW  Elec       q    Type
REMARK                         _______ _______ _______ _____ _____    ______ ____
ATOM      1  C   UNL     1      64.837  66.366  71.023  0.00  0.00    +0.000 C 
ATOM      2  C   UNL     1      64.098  66.497  71.367  0.00  0.00    +0.000 C 
ATOM      3  C   UNL     1      63.424  66.151  71.039  0.00  0.00    +0.000 C 
ATOM      4  C   UNL     1      63.489  65.675  70.369  0.00  0.00    +0.000 C 
ATOM      5  C   UNL     1      62.685  66.282  71.383  0.00  0.00    +0.000 C 
ATOM      6  N   UNL     1      62.011  65.937  71.056  0.00  0.00    +0.000 N 
ATOM      7  C   UNL     1      61.905  65.444  70.402  0.00  0.00    +0.000 C 
ATOM      8  O   UNL     1      62.499  65.174  69.898  0.00  0.00    +0.000 OA
ATOM      9  C   UNL     1      61.100  65.272  70.342  0.00  0.00    +0.000 C 
ATOM     10  N   UNL     1      61.333  64.831  69.683  0.00  0.00    +0.000 NA
ATOM     11  C   UNL     1      60.770  64.420  69.242  0.00  0.00    +0.000 C 
ATOM     12  O   UNL     1      59.976  64.450  69.458  0.00  0.00    +0.000 OA
ATOM     13  C   UNL     1      61.003  63.980  68.584  0.00  0.00    +0.000 C 
ATOM     14  C   UNL     1      61.799  63.950  68.368  0.00  0.00    +0.000 C 
ATOM     15  N   UNL     1      62.031  63.510  67.711  0.00  0.00    +0.000 NA
ATOM     16  C   UNL     1      62.828  63.481  67.494  0.00  0.00    +0.000 C 
ATOM     17  C   UNL     1      61.469  63.099  67.269  0.00  0.00    +0.000 C 
ATOM     18  C   UNL     1      61.701  62.659  66.611  0.00  0.00    +0.000 C 
ATOM     19  C   UNL     1      61.139  62.248  66.169  0.00  0.00    +0.000 C 
ATOM     20  C   UNL     1      61.204  61.772  65.499  0.00  0.00    +0.000 C 
ATOM     21  N   UNL     1      60.449  61.507  65.301  0.00  0.00    +0.000 NA
ATOM     22  C   UNL     1      59.916  61.819  65.849  0.00  0.00    +0.000 C 
ATOM     23  C   UNL     1      59.098  61.746  65.928  0.00  0.00    +0.000 C 
ATOM     24  C   UNL     1      58.708  62.130  66.544  0.00  0.00    +0.000 C 
ATOM     25  C   UNL     1      59.135  62.589  67.081  0.00  0.00    +0.000 C 
ATOM     26  C   UNL     1      60.110  62.718  67.044  0.00  0.00    +0.000 C 
ATOM     27  C   UNL     1      60.343  62.277  66.385  0.00  0.00    +0.000 C 
ATOM     28  C   UNL     1      60.673  63.129  67.485  0.00  0.00    +0.000 C 
ATOM     29  C   UNL     1      60.440  63.569  68.143  0.00  0.00    +0.000 C 
ATOM     30  O   UNL     1      60.709  65.656  70.958  0.00  0.00    +0.000 OA
ATOM     31  C   UNL     1      61.273  66.067  71.399  0.00  0.00    +0.000 C 
ATOM     32  O   UNL     1      60.502  66.148  71.681  0.00  0.00    +0.000 OA
ATOM     33  C   UNL     1      61.208  66.544  72.070  0.00  0.00    +0.000 C 
ATOM     34  C   UNL     1      60.558  66.771  72.526  0.00  0.00    +0.000 C 
ATOM     35  C   UNL     1      60.832  67.256  73.134  0.00  0.00    +0.000 C 
ATOM     36  C   UNL     1      61.650  67.330  73.055  0.00  0.00    +0.000 C 
ATOM     37  N   UNL     1      61.882  66.889  72.397  0.00  0.00    +0.000 N 
ATOM     38  C   UNL     1      62.621  66.759  72.054  0.00  0.00    +0.000 C 
ATOM     39  O   UNL     1      63.295  67.104  72.381  0.00  0.00    +0.000 OA
ATOM     40  C   UNL     1      60.345  65.006  70.143  0.00  0.00    +0.000 C 
ATOM     41  C   UNL     1      59.695  65.233  70.598  0.00  0.00    +0.000 C 
ATOM     42  C   UNL     1      59.782  64.595  69.701  0.00  0.00    +0.000 C 
ENDROOT
TORSDOF 0
ENDMDL
MODEL 4
REMARK VINA RESULT:   -15.137      1.182      2.684
REMARK INTER + INTRA:         -15.137
REMARK INTER:                 -15.137
REMARK INTRA:                   0.000
REMARK UNBOUND:                 0.000
ROOT
REMARK  Name = beta-Ergocryptine
REMARK                            x       y       z     vdW  Elec       q    Type
REMARK                         _______ _______ _______ _____ _____    ______ ____
ATOM      1  C   UNL     1      63.809  65.550  70.323  0.00  0.00    +0.000 C 
ATOM      2  C   UNL     1      63.156  65.171  70.656  0.00  0.00    +0.000 C 
ATOM      3  C   UNL     1      62.709  64.646  70.202  0.00  0.00    +0.000 C 
ATOM      4  C   UNL     1      62.915  64.500  69.417  0.00  0.00    +0.000 C 
ATOM      5  C   UNL     1      62.056  64.267  70.535  0.00  0.00    +0.000 C 
ATOM      6  N   UNL     1      61.609  63.742  70.081  0.00  0.00    +0.000 N 
ATOM      7  C   UNL     1      61.678  63.491  69.298  0.00  0.00    +0.000 C 
ATOM      8  O   UNL     1      62.257  63.732  68.762  0.00  0.00    +0.000 OA
ATOM      9  C   UNL     1      61.068  62.957  69.147  0.00  0.00    +0.000 C 
ATOM     10  N   UNL     1      61.402  62.923  68.393  0.00  0.00    +0.000 NA
ATOM     11  C   UNL     1      61.068  62.437  67.816  0.00  0.00    +0.000 C 
ATOM     12  O   UNL     1      60.401  61.986  67.992  0.00  0.00    +0.000 OA
ATOM     13  C   UNL     1      61.402  62.403  67.062  0.00  0.00    +0.000 C 
ATOM     14  C   UNL     1      62.070  62.854  66.886  0.00  0.00    +0.000 C 
ATOM     15  N   UNL     1      62.403  62.820  66.132  0.00  0.00    +0.000 NA
ATOM     16  C   UNL     1      63.072  63.272  65.956  0.00  0.00    +0.000 C 
ATOM     17  C   UNL     1      62.069  62.334  65.554  0.00  0.00    +0.000 C 
ATOM     18  C   UNL     1      62.403  62.300  64.801  0.00  0.00    +0.000 C 
ATOM     19  C   UNL     1      62.069  61.815  64.223  0.00  0.00    +0.000 C 
ATOM     20  C   UNL     1      62.275  61.669  63.438  0.00  0.00    +0.000 C 
ATOM     21  N   UNL     1      61.735  61.128  63.129  0.00  0.00    +0.000 NA
ATOM     22  C   UNL     1      61.195  60.939  63.724  0.00  0.00    +0.000 C 
ATOM     23  C   UNL     1      60.541  60.435  63.736  0.00  0.00    +0.000 C 
ATOM     24  C   UNL     1      60.095  60.356  64.425  0.00  0.00    +0.000 C 
ATOM     25  C   UNL     1      60.301  60.781  65.102  0.00  0.00    +0.000 C 
ATOM     26  C   UNL     1      61.067  61.398  65.154  0.00  0.00    +0.000 C 
ATOM     27  C   UNL     1      61.401  61.364  64.399  0.00  0.00    +0.000 C 
ATOM     28  C   UNL     1      61.401  61.883  65.731  0.00  0.00    +0.000 C 
ATOM     29  C   UNL     1      61.067  61.917  66.485  0.00  0.00    +0.000 C 
ATOM     30  O   UNL     1      60.621  62.878  69.836  0.00  0.00    +0.000 OA
ATOM     31  C   UNL     1      60.956  63.363  70.413  0.00  0.00    +0.000 C 
ATOM     32  O   UNL     1      60.292  62.946  70.669  0.00  0.00    +0.000 OA
ATOM     33  C   UNL     1      60.749  63.509  71.199  0.00  0.00    +0.000 C 
ATOM     34  C   UNL     1      60.139  63.219  71.673  0.00  0.00    +0.000 C 
ATOM     35  C   UNL     1      60.210  63.565  72.418  0.00  0.00    +0.000 C 
ATOM     36  C   UNL     1      60.863  64.069  72.406  0.00  0.00    +0.000 C 
ATOM     37  N   UNL     1      61.196  64.034  71.652  0.00  0.00    +0.000 N 
ATOM     38  C   UNL     1      61.849  64.413  71.320  0.00  0.00    +0.000 C 
ATOM     39  O   UNL     1      62.296  64.938  71.773  0.00  0.00    +0.000 OA
ATOM     40  C   UNL     1      60.528  62.416  68.838  0.00  0.00    +0.000 C 
ATOM     41  C   UNL     1      59.918  62.125  69.311  0.00  0.00    +0.000 C 
ATOM     42  C   UNL     1      60.194  61.930  68.260  0.00  0.00    +0.000 C 
ENDROOT
TORSDOF 0
ENDMDL
