MODEL 1
REMARK VINA RESULT:   -16.038      0.000      0.000
REMARK INTER + INTRA:         -16.038
REMARK INTER:                 -16.038
REMARK INTRA:                   0.000
REMARK UNBOUND:                 0.000
ROOT
REMARK  Name = betamethasone butyrate propionate
REMARK                            x       y       z     vdW  Elec       q    Type
REMARK                         _______ _______ _______ _____ _____    ______ ____
ATOM      1  C   UNL     1      64.309  65.156  70.857  0.00  0.00    +0.000 C 
ATOM      2  C   UNL     1      63.529  65.102  71.118  0.00  0.00    +0.000 C 
ATOM      3  C   UNL     1      63.187  65.729  71.531  0.00  0.00    +0.000 C 
ATOM      4  C   UNL     1      62.407  65.675  71.792  0.00  0.00    +0.000 C 
ATOM      5  O   UNL     1      62.189  64.924  71.527  0.00  0.00    +0.000 OA
ATOM      6  O   UNL     1      62.065  66.301  72.205  0.00  0.00    +0.000 OA
ATOM      7  C   UNL     1      61.284  66.247  72.467  0.00  0.00    +0.000 C 
ATOM      8  C   UNL     1      60.533  66.351  72.790  0.00  0.00    +0.000 C 
ATOM      9  C   UNL     1      60.266  67.019  73.194  0.00  0.00    +0.000 C 
ATOM     10  C   UNL     1      60.093  65.669  72.638  0.00  0.00    +0.000 C 
ATOM     11  C   UNL     1      60.574  65.144  72.220  0.00  0.00    +0.000 C 
ATOM     12  C   UNL     1      60.435  64.387  71.923  0.00  0.00    +0.000 C 
ATOM     13  C   UNL     1      59.700  64.030  72.029  0.00  0.00    +0.000 C 
ATOM     14  C   UNL     1      59.562  63.274  71.732  0.00  0.00    +0.000 C 
ATOM     15  C   UNL     1      60.161  62.873  71.328  0.00  0.00    +0.000 C 
ATOM     16  C   UNL     1      60.023  62.116  71.031  0.00  0.00    +0.000 C 
ATOM     17  C   UNL     1      60.621  61.716  70.628  0.00  0.00    +0.000 C 
ATOM     18  O   UNL     1      60.484  60.958  70.330  0.00  0.00    +0.000 OA
ATOM     19  C   UNL     1      61.358  62.073  70.522  0.00  0.00    +0.000 C 
ATOM     20  C   UNL     1      61.495  62.830  70.820  0.00  0.00    +0.000 C 
ATOM     21  C   UNL     1      60.897  63.230  71.223  0.00  0.00    +0.000 C 
ATOM     22  C   UNL     1      61.632  63.587  71.117  0.00  0.00    +0.000 C 
ATOM     23  C   UNL     1      61.035  63.987  71.520  0.00  0.00    +0.000 C 
ATOM     24  F   UNL     1      61.815  64.041  71.259  0.00  0.00    +0.000 F 
ATOM     25  C   UNL     1      61.771  64.344  71.414  0.00  0.00    +0.000 C 
ATOM     26  O   UNL     1      62.369  63.944  71.011  0.00  0.00    +0.000 OA
ATOM     27  C   UNL     1      61.908  65.101  71.711  0.00  0.00    +0.000 C 
ATOM     28  C   UNL     1      61.309  65.501  72.115  0.00  0.00    +0.000 C 
ATOM     29  C   UNL     1      62.014  65.926  72.052  0.00  0.00    +0.000 C 
ATOM     30  C   UNL     1      61.422  67.004  72.764  0.00  0.00    +0.000 C 
ATOM     31  O   UNL     1      60.824  67.404  73.167  0.00  0.00    +0.000 OA
ATOM     32  C   UNL     1      62.158  67.361  72.658  0.00  0.00    +0.000 C 
ATOM     33  O   UNL     1      62.296  68.119  72.955  0.00  0.00    +0.000 OA
ATOM     34  C   UNL     1      63.032  68.476  72.850  0.00  0.00    +0.000 C 
ATOM     35  O   UNL     1      63.630  68.076  72.447  0.00  0.00    +0.000 OA
ATOM     36  C   UNL     1      63.170  69.233  73.147  0.00  0.00    +0.000 C 
ATOM     37  C   UNL     1      63.905  69.590  73.041  0.00  0.00    +0.000 C 
ENDROOT
TORSDOF 0
ENDMDL
MODEL 2
REMARK VINA RESULT:   -15.751      2.088      2.759
REMARK INTER + INTRA:         -15.751
REMARK INTER:                 -15.751
REMARK INTRA:                   0.000
REMARK UNBOUND:                 0.000
ROOT
REMARK  Name = betamethasone butyrate propionate
REMARK                            x       y       z     vdW  Elec       q    Type
REMARK                         _______ _______ _______ _____ _____    ______ ____
ATOM      1  C   UNL     1      60.614  67.050  68.777  0.00  0.00    +0.000 C 
ATOM      2  C   UNL     1      60.701  66.297  69.100  0.00  0.00    +0.000 C 
ATOM      3  C   UNL     1      61.000  66.208  69.864  0.00  0.00    +0.000 C 
ATOM      4  C   UNL     1      61.087  65.454  70.187  0.00  0.00    +0.000 C 
ATOM      5  O   UNL     1      60.817  64.972  69.575  0.00  0.00    +0.000 OA
ATOM      6  O   UNL     1      61.385  65.365  70.951  0.00  0.00    +0.000 OA
ATOM      7  C   UNL     1      61.473  64.610  71.275  0.00  0.00    +0.000 C 
ATOM      8  C   UNL     1      61.620  63.943  71.736  0.00  0.00    +0.000 C 
ATOM      9  C   UNL     1      61.924  63.940  72.503  0.00  0.00    +0.000 C 
ATOM     10  C   UNL     1      61.408  63.278  71.296  0.00  0.00    +0.000 C 
ATOM     11  C   UNL     1      61.131  63.535  70.563  0.00  0.00    +0.000 C 
ATOM     12  C   UNL     1      60.848  63.125  69.905  0.00  0.00    +0.000 C 
ATOM     13  C   UNL     1      60.808  62.302  69.918  0.00  0.00    +0.000 C 
ATOM     14  C   UNL     1      60.525  61.892  69.261  0.00  0.00    +0.000 C 
ATOM     15  C   UNL     1      60.281  62.307  68.590  0.00  0.00    +0.000 C 
ATOM     16  C   UNL     1      59.997  61.897  67.932  0.00  0.00    +0.000 C 
ATOM     17  C   UNL     1      59.753  62.311  67.262  0.00  0.00    +0.000 C 
ATOM     18  O   UNL     1      59.470  61.901  66.603  0.00  0.00    +0.000 OA
ATOM     19  C   UNL     1      59.793  63.136  67.249  0.00  0.00    +0.000 C 
ATOM     20  C   UNL     1      60.077  63.545  67.907  0.00  0.00    +0.000 C 
ATOM     21  C   UNL     1      60.321  63.130  68.577  0.00  0.00    +0.000 C 
ATOM     22  C   UNL     1      60.360  63.954  68.564  0.00  0.00    +0.000 C 
ATOM     23  C   UNL     1      60.604  63.540  69.234  0.00  0.00    +0.000 C 
ATOM     24  F   UNL     1      60.517  64.294  68.911  0.00  0.00    +0.000 F 
ATOM     25  C   UNL     1      60.644  64.364  69.222  0.00  0.00    +0.000 C 
ATOM     26  O   UNL     1      60.400  64.778  68.551  0.00  0.00    +0.000 OA
ATOM     27  C   UNL     1      60.927  64.773  69.879  0.00  0.00    +0.000 C 
ATOM     28  C   UNL     1      61.171  64.359  70.550  0.00  0.00    +0.000 C 
ATOM     29  C   UNL     1      61.243  65.178  70.617  0.00  0.00    +0.000 C 
ATOM     30  C   UNL     1      61.757  65.021  71.933  0.00  0.00    +0.000 C 
ATOM     31  O   UNL     1      62.000  64.606  72.603  0.00  0.00    +0.000 OA
ATOM     32  C   UNL     1      61.796  65.844  71.920  0.00  0.00    +0.000 C 
ATOM     33  O   UNL     1      62.080  66.254  72.578  0.00  0.00    +0.000 OA
ATOM     34  C   UNL     1      62.120  67.078  72.565  0.00  0.00    +0.000 C 
ATOM     35  O   UNL     1      61.876  67.492  71.895  0.00  0.00    +0.000 OA
ATOM     36  C   UNL     1      62.403  67.488  73.222  0.00  0.00    +0.000 C 
ATOM     37  C   UNL     1      62.443  68.311  73.210  0.00  0.00    +0.000 C 
ENDROOT
TORSDOF 0
ENDMDL
MODEL 3
REMARK VINA RESULT:   -15.606      1.690      4.558
REMARK INTER + INTRA:         -15.606
REMARK INTER:                 -15.606
REMARK INTRA:                   0.000
REMARK UNBOUND:                 0.000
ROOT
REMARK  Name = betamethasone butyrate propionate
REMARK                            x       y       z     vdW  Elec       q    Type
REMARK                         _______ _______ _______ _____ _____    ______ ____
ATOM      1  C   UNL     1      61.983  68.009  73.222  0.00  0.00    +0.000 C 
ATOM      2  C   UNL     1      62.191  67.483  72.622  0.00  0.00    +0.000 C 
ATOM      3  C   UNL     1      61.656  66.902  72.379  0.00  0.00    +0.000 C 
ATOM      4  C   UNL     1      61.864  66.376  71.779  0.00  0.00    +0.000 C 
ATOM      5  O   UNL     1      62.628  66.625  71.589  0.00  0.00    +0.000 OA
ATOM      6  O   UNL     1      61.331  65.796  71.536  0.00  0.00    +0.000 OA
ATOM      7  C   UNL     1      61.538  65.269  70.935  0.00  0.00    +0.000 C 
ATOM      8  C   UNL     1      61.588  64.679  70.362  0.00  0.00    +0.000 C 
ATOM      9  C   UNL     1      61.000  64.130  70.177  0.00  0.00    +0.000 C 
ATOM     10  C   UNL     1      62.330  64.733  70.004  0.00  0.00    +0.000 C 
ATOM     11  C   UNL     1      62.738  65.357  70.357  0.00  0.00    +0.000 C 
ATOM     12  C   UNL     1      63.492  65.666  70.228  0.00  0.00    +0.000 C 
ATOM     13  C   UNL     1      63.981  65.334  69.653  0.00  0.00    +0.000 C 
ATOM     14  C   UNL     1      64.735  65.643  69.524  0.00  0.00    +0.000 C 
ATOM     15  C   UNL     1      65.000  66.285  69.972  0.00  0.00    +0.000 C 
ATOM     16  C   UNL     1      65.754  66.593  69.843  0.00  0.00    +0.000 C 
ATOM     17  C   UNL     1      66.019  67.234  70.290  0.00  0.00    +0.000 C 
ATOM     18  O   UNL     1      66.774  67.544  70.161  0.00  0.00    +0.000 OA
ATOM     19  C   UNL     1      65.529  67.566  70.866  0.00  0.00    +0.000 C 
ATOM     20  C   UNL     1      64.776  67.257  70.994  0.00  0.00    +0.000 C 
ATOM     21  C   UNL     1      64.511  66.616  70.547  0.00  0.00    +0.000 C 
ATOM     22  C   UNL     1      64.022  66.947  71.122  0.00  0.00    +0.000 C 
ATOM     23  C   UNL     1      63.757  66.307  70.675  0.00  0.00    +0.000 C 
ATOM     24  F   UNL     1      63.549  66.833  71.276  0.00  0.00    +0.000 F 
ATOM     25  C   UNL     1      63.268  66.639  71.251  0.00  0.00    +0.000 C 
ATOM     26  O   UNL     1      63.532  67.280  71.698  0.00  0.00    +0.000 OA
ATOM     27  C   UNL     1      62.514  66.330  71.379  0.00  0.00    +0.000 C 
ATOM     28  C   UNL     1      62.249  65.688  70.932  0.00  0.00    +0.000 C 
ATOM     29  C   UNL     1      61.701  65.961  71.485  0.00  0.00    +0.000 C 
ATOM     30  C   UNL     1      60.784  64.961  71.064  0.00  0.00    +0.000 C 
ATOM     31  O   UNL     1      60.519  64.320  70.617  0.00  0.00    +0.000 OA
ATOM     32  C   UNL     1      60.295  65.292  71.639  0.00  0.00    +0.000 C 
ATOM     33  O   UNL     1      59.541  64.983  71.768  0.00  0.00    +0.000 OA
ATOM     34  C   UNL     1      59.052  65.315  72.343  0.00  0.00    +0.000 C 
ATOM     35  O   UNL     1      59.316  65.956  72.790  0.00  0.00    +0.000 OA
ATOM     36  C   UNL     1      58.297  65.006  72.472  0.00  0.00    +0.000 C 
ATOM     37  C   UNL     1      57.808  65.338  73.047  0.00  0.00    +0.000 C 
ENDROOT
TORSDOF 0
ENDMDL
MODEL 4
REMARK VINA RESULT:   -15.599      1.505      3.200
REMARK INTER + INTRA:         -15.599
REMARK INTER:                 -15.599
REMARK INTRA:                   0.000
REMARK UNBOUND:                 0.000
ROOT
REMARK  Name = betamethasone butyrate propionate
REMARK                            x       y       z     vdW  Elec       q    Type
REMARK                         _______ _______ _______ _____ _____    ______ ____
ATOM      1  C   UNL     1      62.369  68.313  73.222  0.00  0.00    +0.000 C 
ATOM      2  C   UNL     1      62.176  67.595  72.867  0.00  0.00    +0.000 C 
ATOM      3  C   UNL     1      62.746  67.181  72.436  0.00  0.00    +0.000 C 
ATOM      4  C   UNL     1      62.553  66.462  72.081  0.00  0.00    +0.000 C 
ATOM      5  O   UNL     1      61.760  66.373  72.293  0.00  0.00    +0.000 OA
ATOM      6  O   UNL     1      63.122  66.049  71.650  0.00  0.00    +0.000 OA
ATOM      7  C   UNL     1      62.929  65.329  71.295  0.00  0.00    +0.000 C 
ATOM      8  C   UNL     1      62.900  64.614  70.887  0.00  0.00    +0.000 C 
ATOM      9  C   UNL     1      63.524  64.264  70.475  0.00  0.00    +0.000 C 
ATOM     10  C   UNL     1      62.137  64.307  70.962  0.00  0.00    +0.000 C 
ATOM     11  C   UNL     1      61.695  64.835  71.417  0.00  0.00    +0.000 C 
ATOM     12  C   UNL     1      60.910  64.821  71.670  0.00  0.00    +0.000 C 
ATOM     13  C   UNL     1      60.421  64.190  71.464  0.00  0.00    +0.000 C 
ATOM     14  C   UNL     1      59.637  64.176  71.717  0.00  0.00    +0.000 C 
ATOM     15  C   UNL     1      59.341  64.795  72.177  0.00  0.00    +0.000 C 
ATOM     16  C   UNL     1      58.555  64.781  72.430  0.00  0.00    +0.000 C 
ATOM     17  C   UNL     1      58.259  65.400  72.889  0.00  0.00    +0.000 C 
ATOM     18  O   UNL     1      57.474  65.386  73.143  0.00  0.00    +0.000 OA
ATOM     19  C   UNL     1      58.749  66.032  73.095  0.00  0.00    +0.000 C 
ATOM     20  C   UNL     1      59.534  66.045  72.842  0.00  0.00    +0.000 C 
ATOM     21  C   UNL     1      59.830  65.427  72.383  0.00  0.00    +0.000 C 
ATOM     22  C   UNL     1      60.318  66.058  72.588  0.00  0.00    +0.000 C 
ATOM     23  C   UNL     1      60.614  65.440  72.129  0.00  0.00    +0.000 C 
ATOM     24  F   UNL     1      60.807  66.159  72.485  0.00  0.00    +0.000 F 
ATOM     25  C   UNL     1      61.104  66.072  72.335  0.00  0.00    +0.000 C 
ATOM     26  O   UNL     1      60.808  66.690  72.794  0.00  0.00    +0.000 OA
ATOM     27  C   UNL     1      61.888  66.085  72.082  0.00  0.00    +0.000 C 
ATOM     28  C   UNL     1      62.184  65.466  71.622  0.00  0.00    +0.000 C 
ATOM     29  C   UNL     1      62.736  66.058  71.784  0.00  0.00    +0.000 C 
ATOM     30  C   UNL     1      63.714  65.343  71.041  0.00  0.00    +0.000 C 
ATOM     31  O   UNL     1      64.010  64.725  70.582  0.00  0.00    +0.000 OA
ATOM     32  C   UNL     1      64.203  65.974  71.247  0.00  0.00    +0.000 C 
ATOM     33  O   UNL     1      64.988  65.988  70.994  0.00  0.00    +0.000 OA
ATOM     34  C   UNL     1      65.477  66.619  71.199  0.00  0.00    +0.000 C 
ATOM     35  O   UNL     1      65.182  67.237  71.659  0.00  0.00    +0.000 OA
ATOM     36  C   UNL     1      66.263  66.633  70.946  0.00  0.00    +0.000 C 
ATOM     37  C   UNL     1      66.752  67.264  71.152  0.00  0.00    +0.000 C 
ENDROOT
TORSDOF 0
ENDMDL
MODEL 5
REMARK VINA RESULT:   -15.151      1.063      5.176
REMARK INTER + INTRA:         -15.151
REMARK INTER:                 -15.151
REMARK INTRA:                   0.000
REMARK UNBOUND:                 0.000
ROOT
REMARK  Name = betamethasone butyrate propionate
REMARK                            x       y       z     vdW  Elec       q    Type
REMARK                         _______ _______ _______ _____ _____    ______ ____
ATOM      1  C   UNL     1      59.718  65.843  73.139  0.00  0.00    +0.000 C 
ATOM      2  C   UNL     1      60.470  65.880  72.802  0.00  0.00    +0.000 C 
ATOM      3  C   UNL     1      60.759  65.240  72.368  0.00  0.00    +0.000 C 
ATOM      4  C   UNL     1      61.512  65.277  72.031  0.00  0.00    +0.000 C 
ATOM      5  O   UNL     1      61.767  66.027  72.261  0.00  0.00    +0.000 OA
ATOM      6  O   UNL     1      61.801  64.638  71.597  0.00  0.00    +0.000 OA
ATOM      7  C   UNL     1      62.554  64.675  71.260  0.00  0.00    +0.000 C 
ATOM      8  C   UNL     1      63.268  64.553  70.867  0.00  0.00    +0.000 C 
ATOM      9  C   UNL     1      63.483  63.874  70.450  0.00  0.00    +0.000 C 
ATOM     10  C   UNL     1      63.732  65.229  70.965  0.00  0.00    +0.000 C 
ATOM     11  C   UNL     1      63.303  65.768  71.418  0.00  0.00    +0.000 C 
ATOM     12  C   UNL     1      63.482  66.527  71.688  0.00  0.00    +0.000 C 
ATOM     13  C   UNL     1      64.209  66.869  71.506  0.00  0.00    +0.000 C 
ATOM     14  C   UNL     1      64.388  67.627  71.776  0.00  0.00    +0.000 C 
ATOM     15  C   UNL     1      63.838  68.044  72.229  0.00  0.00    +0.000 C 
ATOM     16  C   UNL     1      64.017  68.803  72.499  0.00  0.00    +0.000 C 
ATOM     17  C   UNL     1      63.467  69.220  72.952  0.00  0.00    +0.000 C 
ATOM     18  O   UNL     1      63.646  69.979  73.222  0.00  0.00    +0.000 OA
ATOM     19  C   UNL     1      62.738  68.877  73.135  0.00  0.00    +0.000 C 
ATOM     20  C   UNL     1      62.561  68.119  72.864  0.00  0.00    +0.000 C 
ATOM     21  C   UNL     1      63.110  67.702  72.412  0.00  0.00    +0.000 C 
ATOM     22  C   UNL     1      62.383  67.360  72.594  0.00  0.00    +0.000 C 
ATOM     23  C   UNL     1      62.932  66.944  72.142  0.00  0.00    +0.000 C 
ATOM     24  F   UNL     1      62.180  66.907  72.478  0.00  0.00    +0.000 F 
ATOM     25  C   UNL     1      62.203  66.601  72.324  0.00  0.00    +0.000 C 
ATOM     26  O   UNL     1      61.654  67.018  72.777  0.00  0.00    +0.000 OA
ATOM     27  C   UNL     1      62.025  65.843  72.054  0.00  0.00    +0.000 C 
ATOM     28  C   UNL     1      62.575  65.426  71.601  0.00  0.00    +0.000 C 
ATOM     29  C   UNL     1      61.873  65.015  71.739  0.00  0.00    +0.000 C 
ATOM     30  C   UNL     1      62.375  63.916  70.990  0.00  0.00    +0.000 C 
ATOM     31  O   UNL     1      62.924  63.499  70.537  0.00  0.00    +0.000 OA
ATOM     32  C   UNL     1      61.647  63.574  71.172  0.00  0.00    +0.000 C 
ATOM     33  O   UNL     1      61.468  62.815  70.902  0.00  0.00    +0.000 OA
ATOM     34  C   UNL     1      60.741  62.473  71.085  0.00  0.00    +0.000 C 
ATOM     35  O   UNL     1      60.191  62.889  71.538  0.00  0.00    +0.000 OA
ATOM     36  C   UNL     1      60.561  61.714  70.815  0.00  0.00    +0.000 C 
ATOM     37  C   UNL     1      59.834  61.372  70.997  0.00  0.00    +0.000 C 
ENDROOT
TORSDOF 0
ENDMDL
MODEL 6
REMARK VINA RESULT:   -14.019      2.003      5.152
REMARK INTER + INTRA:         -14.019
REMARK INTER:                 -14.019
REMARK INTRA:                   0.000
REMARK UNBOUND:                 0.000
ROOT
REMARK  Name = betamethasone butyrate propionate
REMARK                            x       y       z     vdW  Elec       q    Type
REMARK                         _______ _______ _______ _____ _____    ______ ____
ATOM      1  C   UNL     1      59.209  66.592  68.935  0.00  0.00    +0.000 C 
ATOM      2  C   UNL     1      59.799  66.228  69.381  0.00  0.00    +0.000 C 
ATOM      3  C   UNL     1      60.006  65.443  69.229  0.00  0.00    +0.000 C 
ATOM      4  C   UNL     1      60.595  65.078  69.675  0.00  0.00    +0.000 C 
ATOM      5  O   UNL     1      60.819  65.682  70.192  0.00  0.00    +0.000 OA
ATOM      6  O   UNL     1      60.802  64.294  69.524  0.00  0.00    +0.000 OA
ATOM      7  C   UNL     1      61.393  63.929  69.970  0.00  0.00    +0.000 C 
ATOM      8  C   UNL     1      61.948  63.428  70.316  0.00  0.00    +0.000 C 
ATOM      9  C   UNL     1      62.095  62.644  70.103  0.00  0.00    +0.000 C 
ATOM     10  C   UNL     1      62.332  63.847  70.915  0.00  0.00    +0.000 C 
ATOM     11  C   UNL     1      62.013  64.607  70.938  0.00  0.00    +0.000 C 
ATOM     12  C   UNL     1      62.177  65.260  71.416  0.00  0.00    +0.000 C 
ATOM     13  C   UNL     1      62.757  65.209  71.999  0.00  0.00    +0.000 C 
ATOM     14  C   UNL     1      62.921  65.861  72.476  0.00  0.00    +0.000 C 
ATOM     15  C   UNL     1      62.503  66.566  72.369  0.00  0.00    +0.000 C 
ATOM     16  C   UNL     1      62.667  67.218  72.847  0.00  0.00    +0.000 C 
ATOM     17  C   UNL     1      62.249  67.922  72.741  0.00  0.00    +0.000 C 
ATOM     18  O   UNL     1      62.413  68.575  73.218  0.00  0.00    +0.000 OA
ATOM     19  C   UNL     1      61.668  67.973  72.156  0.00  0.00    +0.000 C 
ATOM     20  C   UNL     1      61.505  67.320  71.679  0.00  0.00    +0.000 C 
ATOM     21  C   UNL     1      61.922  66.616  71.786  0.00  0.00    +0.000 C 
ATOM     22  C   UNL     1      61.342  66.667  71.203  0.00  0.00    +0.000 C 
ATOM     23  C   UNL     1      61.759  65.964  71.309  0.00  0.00    +0.000 C 
ATOM     24  F   UNL     1      61.169  66.329  70.863  0.00  0.00    +0.000 F 
ATOM     25  C   UNL     1      61.178  66.014  70.725  0.00  0.00    +0.000 C 
ATOM     26  O   UNL     1      60.761  66.718  70.618  0.00  0.00    +0.000 OA
ATOM     27  C   UNL     1      61.015  65.362  70.248  0.00  0.00    +0.000 C 
ATOM     28  C   UNL     1      61.433  64.658  70.354  0.00  0.00    +0.000 C 
ATOM     29  C   UNL     1      60.870  64.627  69.751  0.00  0.00    +0.000 C 
ATOM     30  C   UNL     1      61.229  63.276  69.493  0.00  0.00    +0.000 C 
ATOM     31  O   UNL     1      61.646  62.573  69.599  0.00  0.00    +0.000 OA
ATOM     32  C   UNL     1      60.649  63.327  68.909  0.00  0.00    +0.000 C 
ATOM     33  O   UNL     1      60.485  62.674  68.432  0.00  0.00    +0.000 OA
ATOM     34  C   UNL     1      59.905  62.725  67.848  0.00  0.00    +0.000 C 
ATOM     35  O   UNL     1      59.487  63.429  67.742  0.00  0.00    +0.000 OA
ATOM     36  C   UNL     1      59.741  62.072  67.370  0.00  0.00    +0.000 C 
ATOM     37  C   UNL     1      59.161  62.123  66.787  0.00  0.00    +0.000 C 
ENDROOT
TORSDOF 0
ENDMDL
MODEL 7
REMARK VINA RESULT:   -13.720     25.314     27.118
REMARK INTER + INTRA:         -13.720
REMARK INTER:                 -13.720
REMARK INTRA:                   0.000
REMARK UNBOUND:                 0.000
ROOT
REMARK  Name = betamethasone butyrate propionate
REMARK                            x       y       z     vdW  Elec       q    Type
REMARK                         _______ _______ _______ _____ _____    ______ ____
ATOM      1  C   UNL     1      72.055  81.521  53.050  0.00  0.00    +0.000 C 
ATOM      2  C   UNL     1      71.581  81.146  52.488  0.00  0.00    +0.000 C 
ATOM      3  C   UNL     1      70.763  81.117  52.593  0.00  0.00    +0.000 C 
ATOM      4  C   UNL     1      70.289  80.742  52.032  0.00  0.00    +0.000 C 
ATOM      5  O   UNL     1      70.846  80.485  51.480  0.00  0.00    +0.000 OA
ATOM      6  O   UNL     1      69.471  80.713  52.136  0.00  0.00    +0.000 OA
ATOM      7  C   UNL     1      68.996  80.338  51.574  0.00  0.00    +0.000 C 
ATOM      8  C   UNL     1      68.393  80.009  51.118  0.00  0.00    +0.000 C 
ATOM      9  C   UNL     1      67.587  80.024  51.295  0.00  0.00    +0.000 C 
ATOM     10  C   UNL     1      68.737  79.663  50.452  0.00  0.00    +0.000 C 
ATOM     11  C   UNL     1      69.552  79.778  50.498  0.00  0.00    +0.000 C 
ATOM     12  C   UNL     1      70.169  79.557  49.997  0.00  0.00    +0.000 C 
ATOM     13  C   UNL     1      70.009  79.140  49.304  0.00  0.00    +0.000 C 
ATOM     14  C   UNL     1      70.626  78.919  48.803  0.00  0.00    +0.000 C 
ATOM     15  C   UNL     1      71.404  79.115  48.996  0.00  0.00    +0.000 C 
ATOM     16  C   UNL     1      72.021  78.893  48.495  0.00  0.00    +0.000 C 
ATOM     17  C   UNL     1      72.799  79.089  48.688  0.00  0.00    +0.000 C 
ATOM     18  O   UNL     1      73.417  78.868  48.187  0.00  0.00    +0.000 OA
ATOM     19  C   UNL     1      72.960  79.506  49.382  0.00  0.00    +0.000 C 
ATOM     20  C   UNL     1      72.343  79.727  49.882  0.00  0.00    +0.000 C 
ATOM     21  C   UNL     1      71.565  79.531  49.689  0.00  0.00    +0.000 C 
ATOM     22  C   UNL     1      71.725  79.948  50.382  0.00  0.00    +0.000 C 
ATOM     23  C   UNL     1      70.948  79.753  50.190  0.00  0.00    +0.000 C 
ATOM     24  F   UNL     1      71.422  80.128  50.751  0.00  0.00    +0.000 F 
ATOM     25  C   UNL     1      71.108  80.170  50.884  0.00  0.00    +0.000 C 
ATOM     26  O   UNL     1      71.886  80.366  51.076  0.00  0.00    +0.000 OA
ATOM     27  C   UNL     1      70.491  80.391  51.384  0.00  0.00    +0.000 C 
ATOM     28  C   UNL     1      69.713  80.195  51.191  0.00  0.00    +0.000 C 
ATOM     29  C   UNL     1      69.788  80.611  51.900  0.00  0.00    +0.000 C 
ATOM     30  C   UNL     1      68.379  80.559  52.075  0.00  0.00    +0.000 C 
ATOM     31  O   UNL     1      67.601  80.363  51.883  0.00  0.00    +0.000 OA
ATOM     32  C   UNL     1      68.539  80.976  52.768  0.00  0.00    +0.000 C 
ATOM     33  O   UNL     1      67.922  81.197  53.270  0.00  0.00    +0.000 OA
ATOM     34  C   UNL     1      68.083  81.614  53.962  0.00  0.00    +0.000 C 
ATOM     35  O   UNL     1      68.861  81.810  54.155  0.00  0.00    +0.000 OA
ATOM     36  C   UNL     1      67.466  81.836  54.464  0.00  0.00    +0.000 C 
ATOM     37  C   UNL     1      67.626  82.252  55.157  0.00  0.00    +0.000 C 
ENDROOT
TORSDOF 0
ENDMDL
