MODEL 1
REMARK VINA RESULT:   -11.141      0.000      0.000
REMARK INTER + INTRA:         -11.141
REMARK INTER:                 -11.141
REMARK INTRA:                   0.000
REMARK UNBOUND:                 0.000
ROOT
REMARK  Name = betoxycaine
REMARK                            x       y       z     vdW  Elec       q    Type
REMARK                         _______ _______ _______ _____ _____    ______ ____
ATOM      1  C   UNL     1      60.881  60.200  62.710  0.00  0.00    +0.000 C 
ATOM      2  C   UNL     1      61.127  60.638  63.365  0.00  0.00    +0.000 C 
ATOM      3  C   UNL     1      60.577  60.878  63.932  0.00  0.00    +0.000 C 
ATOM      4  C   UNL     1      60.823  61.315  64.586  0.00  0.00    +0.000 C 
ATOM      5  O   UNL     1      60.273  61.554  65.153  0.00  0.00    +0.000 OA
ATOM      6  C   UNL     1      60.519  61.992  65.807  0.00  0.00    +0.000 A 
ATOM      7  C   UNL     1      59.970  62.232  66.374  0.00  0.00    +0.000 A 
ATOM      8  N   UNL     1      59.174  62.033  66.286  0.00  0.00    +0.000 NA
ATOM      9  C   UNL     1      60.217  62.669  67.028  0.00  0.00    +0.000 A 
ATOM     10  C   UNL     1      61.012  62.868  67.116  0.00  0.00    +0.000 A 
ATOM     11  C   UNL     1      61.562  62.629  66.549  0.00  0.00    +0.000 A 
ATOM     12  C   UNL     1      61.315  62.191  65.895  0.00  0.00    +0.000 A 
ATOM     13  C   UNL     1      61.259  63.306  67.771  0.00  0.00    +0.000 C 
ATOM     14  O   UNL     1      62.054  63.504  67.858  0.00  0.00    +0.000 OA
ATOM     15  O   UNL     1      60.709  63.545  68.337  0.00  0.00    +0.000 OA
ATOM     16  C   UNL     1      60.955  63.983  68.992  0.00  0.00    +0.000 C 
ATOM     17  C   UNL     1      60.405  64.222  69.558  0.00  0.00    +0.000 C 
ATOM     18  O   UNL     1      60.651  64.660  70.213  0.00  0.00    +0.000 OA
ATOM     19  C   UNL     1      60.102  64.899  70.779  0.00  0.00    +0.000 C 
ATOM     20  C   UNL     1      60.348  65.337  71.434  0.00  0.00    +0.000 C 
ATOM     21  N   UNL     1      59.798  65.576  72.000  0.00  0.00    +0.000 NA
ATOM     22  C   UNL     1      60.044  66.014  72.655  0.00  0.00    +0.000 C 
ATOM     23  C   UNL     1      59.495  66.253  73.222  0.00  0.00    +0.000 C 
ATOM     24  C   UNL     1      59.002  65.378  71.914  0.00  0.00    +0.000 C 
ATOM     25  C   UNL     1      58.453  65.617  72.480  0.00  0.00    +0.000 C 
ENDROOT
TORSDOF 0
ENDMDL
MODEL 2
REMARK VINA RESULT:   -10.928      1.575      2.022
REMARK INTER + INTRA:         -10.928
REMARK INTER:                 -10.928
REMARK INTRA:                   0.000
REMARK UNBOUND:                 0.000
ROOT
REMARK  Name = betoxycaine
REMARK                            x       y       z     vdW  Elec       q    Type
REMARK                         _______ _______ _______ _____ _____    ______ ____
ATOM      1  C   UNL     1      60.745  60.106  62.362  0.00  0.00    +0.000 C 
ATOM      2  C   UNL     1      60.534  60.457  63.078  0.00  0.00    +0.000 C 
ATOM      3  C   UNL     1      61.097  60.872  63.517  0.00  0.00    +0.000 C 
ATOM      4  C   UNL     1      60.886  61.223  64.233  0.00  0.00    +0.000 C 
ATOM      5  O   UNL     1      61.449  61.638  64.671  0.00  0.00    +0.000 OA
ATOM      6  C   UNL     1      61.237  61.988  65.387  0.00  0.00    +0.000 A 
ATOM      7  C   UNL     1      61.799  62.403  65.825  0.00  0.00    +0.000 A 
ATOM      8  N   UNL     1      62.573  62.467  65.547  0.00  0.00    +0.000 NA
ATOM      9  C   UNL     1      61.588  62.753  66.541  0.00  0.00    +0.000 A 
ATOM     10  C   UNL     1      60.815  62.689  66.819  0.00  0.00    +0.000 A 
ATOM     11  C   UNL     1      60.252  62.274  66.381  0.00  0.00    +0.000 A 
ATOM     12  C   UNL     1      60.463  61.924  65.665  0.00  0.00    +0.000 A 
ATOM     13  C   UNL     1      60.603  63.040  67.536  0.00  0.00    +0.000 C 
ATOM     14  O   UNL     1      59.829  62.976  67.813  0.00  0.00    +0.000 OA
ATOM     15  O   UNL     1      61.166  63.455  67.974  0.00  0.00    +0.000 OA
ATOM     16  C   UNL     1      60.955  63.806  68.690  0.00  0.00    +0.000 C 
ATOM     17  C   UNL     1      61.517  64.220  69.128  0.00  0.00    +0.000 C 
ATOM     18  O   UNL     1      61.306  64.571  69.845  0.00  0.00    +0.000 OA
ATOM     19  C   UNL     1      61.869  64.986  70.282  0.00  0.00    +0.000 C 
ATOM     20  C   UNL     1      61.658  65.336  70.999  0.00  0.00    +0.000 C 
ATOM     21  N   UNL     1      62.220  65.751  71.436  0.00  0.00    +0.000 NA
ATOM     22  C   UNL     1      62.009  66.102  72.153  0.00  0.00    +0.000 C 
ATOM     23  C   UNL     1      62.572  66.517  72.591  0.00  0.00    +0.000 C 
ATOM     24  C   UNL     1      62.994  65.816  71.159  0.00  0.00    +0.000 C 
ATOM     25  C   UNL     1      63.557  66.230  71.596  0.00  0.00    +0.000 C 
ENDROOT
TORSDOF 0
ENDMDL
MODEL 3
REMARK VINA RESULT:   -10.927      1.868      7.328
REMARK INTER + INTRA:         -10.927
REMARK INTER:                 -10.927
REMARK INTRA:                   0.000
REMARK UNBOUND:                 0.000
ROOT
REMARK  Name = betoxycaine
REMARK                            x       y       z     vdW  Elec       q    Type
REMARK                         _______ _______ _______ _____ _____    ______ ____
ATOM      1  C   UNL     1      62.379  68.148  73.223  0.00  0.00    +0.000 C 
ATOM      2  C   UNL     1      62.004  67.595  72.737  0.00  0.00    +0.000 C 
ATOM      3  C   UNL     1      62.371  67.341  72.043  0.00  0.00    +0.000 C 
ATOM      4  C   UNL     1      61.997  66.788  71.558  0.00  0.00    +0.000 C 
ATOM      5  O   UNL     1      62.364  66.534  70.863  0.00  0.00    +0.000 OA
ATOM      6  C   UNL     1      61.989  65.982  70.379  0.00  0.00    +0.000 A 
ATOM      7  C   UNL     1      62.355  65.726  69.684  0.00  0.00    +0.000 A 
ATOM      8  N   UNL     1      63.096  66.024  69.476  0.00  0.00    +0.000 NA
ATOM      9  C   UNL     1      61.981  65.174  69.200  0.00  0.00    +0.000 A 
ATOM     10  C   UNL     1      61.241  64.877  69.408  0.00  0.00    +0.000 A 
ATOM     11  C   UNL     1      60.874  65.132  70.102  0.00  0.00    +0.000 A 
ATOM     12  C   UNL     1      61.248  65.684  70.587  0.00  0.00    +0.000 A 
ATOM     13  C   UNL     1      60.866  64.324  68.922  0.00  0.00    +0.000 C 
ATOM     14  O   UNL     1      60.126  64.028  69.131  0.00  0.00    +0.000 OA
ATOM     15  O   UNL     1      61.232  64.070  68.229  0.00  0.00    +0.000 OA
ATOM     16  C   UNL     1      60.858  63.517  67.743  0.00  0.00    +0.000 C 
ATOM     17  C   UNL     1      61.225  63.263  67.050  0.00  0.00    +0.000 C 
ATOM     18  O   UNL     1      60.850  62.710  66.564  0.00  0.00    +0.000 OA
ATOM     19  C   UNL     1      61.217  62.456  65.871  0.00  0.00    +0.000 C 
ATOM     20  C   UNL     1      60.843  61.903  65.385  0.00  0.00    +0.000 C 
ATOM     21  N   UNL     1      61.209  61.649  64.692  0.00  0.00    +0.000 NA
ATOM     22  C   UNL     1      60.835  61.096  64.206  0.00  0.00    +0.000 C 
ATOM     23  C   UNL     1      61.201  60.841  63.512  0.00  0.00    +0.000 C 
ATOM     24  C   UNL     1      61.950  61.945  64.482  0.00  0.00    +0.000 C 
ATOM     25  C   UNL     1      62.316  61.691  63.789  0.00  0.00    +0.000 C 
ENDROOT
TORSDOF 0
ENDMDL
MODEL 4
REMARK VINA RESULT:    -9.862      3.604      7.191
REMARK INTER + INTRA:          -9.862
REMARK INTER:                  -9.862
REMARK INTRA:                   0.000
REMARK UNBOUND:                 0.000
ROOT
REMARK  Name = betoxycaine
REMARK                            x       y       z     vdW  Elec       q    Type
REMARK                         _______ _______ _______ _____ _____    ______ ____
ATOM      1  C   UNL     1      67.310  67.197  72.771  0.00  0.00    +0.000 C 
ATOM      2  C   UNL     1      66.572  66.875  72.588  0.00  0.00    +0.000 C 
ATOM      3  C   UNL     1      66.439  66.542  71.845  0.00  0.00    +0.000 C 
ATOM      4  C   UNL     1      65.702  66.221  71.663  0.00  0.00    +0.000 C 
ATOM      5  O   UNL     1      65.569  65.888  70.919  0.00  0.00    +0.000 OA
ATOM      6  C   UNL     1      64.831  65.566  70.738  0.00  0.00    +0.000 A 
ATOM      7  C   UNL     1      64.698  65.234  69.995  0.00  0.00    +0.000 A 
ATOM      8  N   UNL     1      65.302  65.223  69.433  0.00  0.00    +0.000 NA
ATOM      9  C   UNL     1      63.960  64.912  69.813  0.00  0.00    +0.000 A 
ATOM     10  C   UNL     1      63.356  64.923  70.374  0.00  0.00    +0.000 A 
ATOM     11  C   UNL     1      63.490  65.255  71.118  0.00  0.00    +0.000 A 
ATOM     12  C   UNL     1      64.227  65.577  71.299  0.00  0.00    +0.000 A 
ATOM     13  C   UNL     1      62.618  64.601  70.192  0.00  0.00    +0.000 C 
ATOM     14  O   UNL     1      62.014  64.612  70.754  0.00  0.00    +0.000 OA
ATOM     15  O   UNL     1      62.485  64.269  69.449  0.00  0.00    +0.000 OA
ATOM     16  C   UNL     1      61.747  63.947  69.267  0.00  0.00    +0.000 C 
ATOM     17  C   UNL     1      61.615  63.615  68.524  0.00  0.00    +0.000 C 
ATOM     18  O   UNL     1      60.877  63.293  68.342  0.00  0.00    +0.000 OA
ATOM     19  C   UNL     1      60.744  62.960  67.599  0.00  0.00    +0.000 C 
ATOM     20  C   UNL     1      60.007  62.638  67.417  0.00  0.00    +0.000 C 
ATOM     21  N   UNL     1      59.874  62.306  66.674  0.00  0.00    +0.000 NA
ATOM     22  C   UNL     1      59.136  61.984  66.491  0.00  0.00    +0.000 C 
ATOM     23  C   UNL     1      59.002  61.652  65.748  0.00  0.00    +0.000 C 
ATOM     24  C   UNL     1      60.477  62.295  66.112  0.00  0.00    +0.000 C 
ATOM     25  C   UNL     1      60.345  61.963  65.369  0.00  0.00    +0.000 C 
ENDROOT
TORSDOF 0
ENDMDL
MODEL 5
REMARK VINA RESULT:    -8.837     14.106     15.838
REMARK INTER + INTRA:          -8.837
REMARK INTER:                  -8.837
REMARK INTRA:                   0.000
REMARK UNBOUND:                 0.000
ROOT
REMARK  Name = betoxycaine
REMARK                            x       y       z     vdW  Elec       q    Type
REMARK                         _______ _______ _______ _____ _____    ______ ____
ATOM      1  C   UNL     1      61.035  70.456  54.837  0.00  0.00    +0.000 C 
ATOM      2  C   UNL     1      61.160  69.764  54.405  0.00  0.00    +0.000 C 
ATOM      3  C   UNL     1      61.330  69.058  54.796  0.00  0.00    +0.000 C 
ATOM      4  C   UNL     1      61.454  68.367  54.364  0.00  0.00    +0.000 C 
ATOM      5  O   UNL     1      61.624  67.660  54.755  0.00  0.00    +0.000 OA
ATOM      6  C   UNL     1      61.749  66.969  54.322  0.00  0.00    +0.000 A 
ATOM      7  C   UNL     1      61.919  66.262  54.713  0.00  0.00    +0.000 A 
ATOM      8  N   UNL     1      61.964  66.248  55.536  0.00  0.00    +0.000 NA
ATOM      9  C   UNL     1      62.043  65.571  54.280  0.00  0.00    +0.000 A 
ATOM     10  C   UNL     1      61.998  65.586  53.457  0.00  0.00    +0.000 A 
ATOM     11  C   UNL     1      61.828  66.293  53.066  0.00  0.00    +0.000 A 
ATOM     12  C   UNL     1      61.703  66.984  53.499  0.00  0.00    +0.000 A 
ATOM     13  C   UNL     1      62.122  64.894  53.024  0.00  0.00    +0.000 C 
ATOM     14  O   UNL     1      62.076  64.910  52.201  0.00  0.00    +0.000 OA
ATOM     15  O   UNL     1      62.292  64.189  53.415  0.00  0.00    +0.000 OA
ATOM     16  C   UNL     1      62.416  63.497  52.983  0.00  0.00    +0.000 C 
ATOM     17  C   UNL     1      62.586  62.791  53.374  0.00  0.00    +0.000 C 
ATOM     18  O   UNL     1      62.711  62.099  52.942  0.00  0.00    +0.000 OA
ATOM     19  C   UNL     1      62.881  61.394  53.333  0.00  0.00    +0.000 C 
ATOM     20  C   UNL     1      63.005  60.702  52.901  0.00  0.00    +0.000 C 
ATOM     21  N   UNL     1      63.175  59.996  53.292  0.00  0.00    +0.000 NA
ATOM     22  C   UNL     1      63.300  59.304  52.859  0.00  0.00    +0.000 C 
ATOM     23  C   UNL     1      63.470  58.597  53.250  0.00  0.00    +0.000 C 
ATOM     24  C   UNL     1      63.221  59.980  54.115  0.00  0.00    +0.000 C 
ATOM     25  C   UNL     1      63.390  59.275  54.506  0.00  0.00    +0.000 C 
ENDROOT
TORSDOF 0
ENDMDL
MODEL 6
REMARK VINA RESULT:    -8.272      5.752      7.152
REMARK INTER + INTRA:          -8.272
REMARK INTER:                  -8.272
REMARK INTRA:                   0.000
REMARK UNBOUND:                 0.000
ROOT
REMARK  Name = betoxycaine
REMARK                            x       y       z     vdW  Elec       q    Type
REMARK                         _______ _______ _______ _____ _____    ______ ____
ATOM      1  C   UNL     1      69.179  68.165  69.142  0.00  0.00    +0.000 C 
ATOM      2  C   UNL     1      68.547  68.136  69.672  0.00  0.00    +0.000 C 
ATOM      3  C   UNL     1      67.855  67.735  69.468  0.00  0.00    +0.000 C 
ATOM      4  C   UNL     1      67.224  67.707  69.999  0.00  0.00    +0.000 C 
ATOM      5  O   UNL     1      66.532  67.306  69.795  0.00  0.00    +0.000 OA
ATOM      6  C   UNL     1      65.901  67.278  70.325  0.00  0.00    +0.000 A 
ATOM      7  C   UNL     1      65.209  66.877  70.123  0.00  0.00    +0.000 A 
ATOM      8  N   UNL     1      65.149  66.504  69.389  0.00  0.00    +0.000 NA
ATOM      9  C   UNL     1      64.578  66.849  70.653  0.00  0.00    +0.000 A 
ATOM     10  C   UNL     1      64.638  67.221  71.385  0.00  0.00    +0.000 A 
ATOM     11  C   UNL     1      65.330  67.623  71.589  0.00  0.00    +0.000 A 
ATOM     12  C   UNL     1      65.961  67.651  71.059  0.00  0.00    +0.000 A 
ATOM     13  C   UNL     1      64.006  67.193  71.916  0.00  0.00    +0.000 C 
ATOM     14  O   UNL     1      64.067  67.566  72.649  0.00  0.00    +0.000 OA
ATOM     15  O   UNL     1      63.315  66.792  71.713  0.00  0.00    +0.000 OA
ATOM     16  C   UNL     1      62.683  66.764  72.243  0.00  0.00    +0.000 C 
ATOM     17  C   UNL     1      61.991  66.363  72.039  0.00  0.00    +0.000 C 
ATOM     18  O   UNL     1      61.360  66.335  72.569  0.00  0.00    +0.000 OA
ATOM     19  C   UNL     1      60.668  65.934  72.366  0.00  0.00    +0.000 C 
ATOM     20  C   UNL     1      60.036  65.906  72.896  0.00  0.00    +0.000 C 
ATOM     21  N   UNL     1      59.345  65.505  72.692  0.00  0.00    +0.000 NA
ATOM     22  C   UNL     1      58.713  65.476  73.222  0.00  0.00    +0.000 C 
ATOM     23  C   UNL     1      58.021  65.075  73.020  0.00  0.00    +0.000 C 
ATOM     24  C   UNL     1      59.284  65.132  71.960  0.00  0.00    +0.000 C 
ATOM     25  C   UNL     1      58.593  64.731  71.756  0.00  0.00    +0.000 C 
ENDROOT
TORSDOF 0
ENDMDL
