MODEL 1
REMARK VINA RESULT:   -10.313      0.000      0.000
REMARK INTER + INTRA:         -10.313
REMARK INTER:                 -10.313
REMARK INTRA:                   0.000
REMARK UNBOUND:                 0.000
ROOT
REMARK  Name = biapenem
REMARK                            x       y       z     vdW  Elec       q    Type
REMARK                         _______ _______ _______ _____ _____    ______ ____
ATOM      1  C   UNL     1      61.816  62.103  72.901  0.00  0.00    +0.000 C 
ATOM      2  C   UNL     1      61.515  62.753  72.491  0.00  0.00    +0.000 C 
ATOM      3  O   UNL     1      61.460  63.486  72.863  0.00  0.00    +0.000 OA
ATOM      4  C   UNL     1      61.270  62.668  71.708  0.00  0.00    +0.000 C 
ATOM      5  C   UNL     1      60.952  63.174  71.139  0.00  0.00    +0.000 C 
ATOM      6  C   UNL     1      60.658  63.848  70.764  0.00  0.00    +0.000 C 
ATOM      7  C   UNL     1      60.586  64.598  71.101  0.00  0.00    +0.000 C 
ATOM      8  C   UNL     1      60.448  63.640  69.994  0.00  0.00    +0.000 C 
ATOM      9  S   UNL     1      60.130  64.146  69.425  0.00  0.00    +0.000 S 
ATOM     10  C   UNL     1      59.995  64.939  69.607  0.00  0.00    +0.000 C 
ATOM     11  C   UNL     1      59.681  65.507  69.097  0.00  0.00    +0.000 C 
ATOM     12  N   UNL     1      59.643  66.223  69.505  0.00  0.00    +0.000 NA
ATOM     13  C   UNL     1      59.425  67.016  69.443  0.00  0.00    +0.000 C 
ATOM     14  N   UNL     1      59.580  67.381  70.167  0.00  0.00    +0.000 NA
ATOM     15  C   UNL     1      59.894  66.812  70.677  0.00  0.00    +0.000 C 
ATOM     16  N   UNL     1      59.933  66.097  70.268  0.00  0.00    +0.000 N 
ATOM     17  C   UNL     1      60.150  65.304  70.330  0.00  0.00    +0.000 C 
ATOM     18  C   UNL     1      60.612  62.838  69.892  0.00  0.00    +0.000 C 
ATOM     19  N   UNL     1      60.924  62.550  70.600  0.00  0.00    +0.000 N 
ATOM     20  C   UNL     1      61.242  62.044  71.169  0.00  0.00    +0.000 C 
ATOM     21  O   UNL     1      61.447  61.246  71.190  0.00  0.00    +0.000 OA
ATOM     22  C   UNL     1      60.487  62.401  69.204  0.00  0.00    +0.000 C 
ATOM     23  O   UNL     1      60.170  62.765  68.535  0.00  0.00    +0.000 OA
ATOM     24  O   UNL     1      60.679  61.598  69.184  0.00  0.00    +0.000 OA
ENDROOT
TORSDOF 0
ENDMDL
MODEL 2
REMARK VINA RESULT:   -10.135      1.968      3.863
REMARK INTER + INTRA:         -10.135
REMARK INTER:                 -10.135
REMARK INTRA:                   0.000
REMARK UNBOUND:                 0.000
ROOT
REMARK  Name = biapenem
REMARK                            x       y       z     vdW  Elec       q    Type
REMARK                         _______ _______ _______ _____ _____    ______ ____
ATOM      1  C   UNL     1      59.445  67.034  70.380  0.00  0.00    +0.000 C 
ATOM      2  C   UNL     1      59.673  66.401  69.902  0.00  0.00    +0.000 C 
ATOM      3  O   UNL     1      59.783  66.514  69.093  0.00  0.00    +0.000 OA
ATOM      4  C   UNL     1      59.792  65.656  70.235  0.00  0.00    +0.000 C 
ATOM      5  C   UNL     1      60.014  64.916  69.944  0.00  0.00    +0.000 C 
ATOM      6  C   UNL     1      60.242  64.310  69.432  0.00  0.00    +0.000 C 
ATOM      7  C   UNL     1      60.362  64.381  68.619  0.00  0.00    +0.000 C 
ATOM      8  C   UNL     1      60.329  63.620  69.876  0.00  0.00    +0.000 C 
ATOM      9  S   UNL     1      60.551  62.881  69.585  0.00  0.00    +0.000 S 
ATOM     10  C   UNL     1      60.708  62.785  68.782  0.00  0.00    +0.000 C 
ATOM     11  C   UNL     1      60.935  62.082  68.413  0.00  0.00    +0.000 C 
ATOM     12  N   UNL     1      61.034  62.236  67.609  0.00  0.00    +0.000 NA
ATOM     13  C   UNL     1      61.236  61.897  66.884  0.00  0.00    +0.000 C 
ATOM     14  N   UNL     1      61.195  62.487  66.307  0.00  0.00    +0.000 NA
ATOM     15  C   UNL     1      60.968  63.190  66.676  0.00  0.00    +0.000 C 
ATOM     16  N   UNL     1      60.869  63.035  67.480  0.00  0.00    +0.000 N 
ATOM     17  C   UNL     1      60.668  63.373  68.205  0.00  0.00    +0.000 C 
ATOM     18  C   UNL     1      60.154  63.800  70.663  0.00  0.00    +0.000 C 
ATOM     19  N   UNL     1      59.960  64.601  70.704  0.00  0.00    +0.000 N 
ATOM     20  C   UNL     1      59.738  65.340  70.995  0.00  0.00    +0.000 C 
ATOM     21  O   UNL     1      59.543  65.640  71.738  0.00  0.00    +0.000 OA
ATOM     22  C   UNL     1      60.171  63.272  71.295  0.00  0.00    +0.000 C 
ATOM     23  O   UNL     1      60.377  62.483  71.170  0.00  0.00    +0.000 OA
ATOM     24  O   UNL     1      59.983  63.532  72.056  0.00  0.00    +0.000 OA
ENDROOT
TORSDOF 0
ENDMDL
MODEL 3
REMARK VINA RESULT:   -10.123      2.246      3.449
REMARK INTER + INTRA:         -10.123
REMARK INTER:                 -10.123
REMARK INTRA:                   0.000
REMARK UNBOUND:                 0.000
ROOT
REMARK  Name = biapenem
REMARK                            x       y       z     vdW  Elec       q    Type
REMARK                         _______ _______ _______ _____ _____    ______ ____
ATOM      1  C   UNL     1      63.578  65.427  71.098  0.00  0.00    +0.000 C 
ATOM      2  C   UNL     1      63.178  65.022  70.501  0.00  0.00    +0.000 C 
ATOM      3  O   UNL     1      63.365  65.160  69.710  0.00  0.00    +0.000 OA
ATOM      4  C   UNL     1      62.588  64.479  70.696  0.00  0.00    +0.000 C 
ATOM      5  C   UNL     1      62.085  63.986  70.267  0.00  0.00    +0.000 C 
ATOM      6  C   UNL     1      61.708  63.602  69.641  0.00  0.00    +0.000 C 
ATOM      7  C   UNL     1      61.866  63.712  68.838  0.00  0.00    +0.000 C 
ATOM      8  C   UNL     1      61.145  63.089  69.957  0.00  0.00    +0.000 C 
ATOM      9  S   UNL     1      60.641  62.596  69.528  0.00  0.00    +0.000 S 
ATOM     10  C   UNL     1      60.676  62.589  68.705  0.00  0.00    +0.000 C 
ATOM     11  C   UNL     1      60.209  62.127  68.204  0.00  0.00    +0.000 C 
ATOM     12  N   UNL     1      60.427  62.294  67.426  0.00  0.00    +0.000 NA
ATOM     13  C   UNL     1      60.274  62.112  66.636  0.00  0.00    +0.000 C 
ATOM     14  N   UNL     1      60.780  62.565  66.168  0.00  0.00    +0.000 NA
ATOM     15  C   UNL     1      61.247  63.027  66.668  0.00  0.00    +0.000 C 
ATOM     16  N   UNL     1      61.029  62.859  67.446  0.00  0.00    +0.000 N 
ATOM     17  C   UNL     1      61.182  63.041  68.236  0.00  0.00    +0.000 C 
ATOM     18  C   UNL     1      61.174  63.155  70.780  0.00  0.00    +0.000 C 
ATOM     19  N   UNL     1      61.755  63.710  70.971  0.00  0.00    +0.000 N 
ATOM     20  C   UNL     1      62.258  64.203  71.400  0.00  0.00    +0.000 C 
ATOM     21  O   UNL     1      62.381  64.356  72.200  0.00  0.00    +0.000 OA
ATOM     22  C   UNL     1      60.704  62.741  71.316  0.00  0.00    +0.000 C 
ATOM     23  O   UNL     1      60.143  62.201  71.043  0.00  0.00    +0.000 OA
ATOM     24  O   UNL     1      60.795  62.865  72.127  0.00  0.00    +0.000 OA
ENDROOT
TORSDOF 0
ENDMDL
MODEL 4
REMARK VINA RESULT:   -10.118      1.801      3.089
REMARK INTER + INTRA:         -10.118
REMARK INTER:                 -10.118
REMARK INTRA:                   0.000
REMARK UNBOUND:                 0.000
ROOT
REMARK  Name = biapenem
REMARK                            x       y       z     vdW  Elec       q    Type
REMARK                         _______ _______ _______ _____ _____    ______ ____
ATOM      1  C   UNL     1      61.625  62.675  73.063  0.00  0.00    +0.000 C 
ATOM      2  C   UNL     1      61.506  62.655  72.247  0.00  0.00    +0.000 C 
ATOM      3  O   UNL     1      61.799  62.026  71.802  0.00  0.00    +0.000 OA
ATOM      4  C   UNL     1      61.093  63.265  71.875  0.00  0.00    +0.000 C 
ATOM      5  C   UNL     1      60.872  63.431  71.098  0.00  0.00    +0.000 C 
ATOM      6  C   UNL     1      60.774  63.374  70.280  0.00  0.00    +0.000 C 
ATOM      7  C   UNL     1      61.052  62.762  69.801  0.00  0.00    +0.000 C 
ATOM      8  C   UNL     1      60.351  64.034  70.027  0.00  0.00    +0.000 C 
ATOM      9  S   UNL     1      60.130  64.200  69.250  0.00  0.00    +0.000 S 
ATOM     10  C   UNL     1      60.335  63.680  68.643  0.00  0.00    +0.000 C 
ATOM     11  C   UNL     1      60.153  63.773  67.844  0.00  0.00    +0.000 C 
ATOM     12  N   UNL     1      60.462  63.126  67.435  0.00  0.00    +0.000 NA
ATOM     13  C   UNL     1      60.541  62.783  66.689  0.00  0.00    +0.000 C 
ATOM     14  N   UNL     1      60.963  62.079  66.776  0.00  0.00    +0.000 NA
ATOM     15  C   UNL     1      61.145  61.986  67.576  0.00  0.00    +0.000 C 
ATOM     16  N   UNL     1      60.835  62.633  67.983  0.00  0.00    +0.000 N 
ATOM     17  C   UNL     1      60.756  62.976  68.729  0.00  0.00    +0.000 C 
ATOM     18  C   UNL     1      60.187  64.501  70.688  0.00  0.00    +0.000 C 
ATOM     19  N   UNL     1      60.509  64.128  71.350  0.00  0.00    +0.000 N 
ATOM     20  C   UNL     1      60.730  63.962  72.127  0.00  0.00    +0.000 C 
ATOM     21  O   UNL     1      60.629  64.337  72.855  0.00  0.00    +0.000 OA
ATOM     22  C   UNL     1      59.773  65.214  70.687  0.00  0.00    +0.000 C 
ATOM     23  O   UNL     1      59.482  65.522  69.979  0.00  0.00    +0.000 OA
ATOM     24  O   UNL     1      59.650  65.622  71.394  0.00  0.00    +0.000 OA
ENDROOT
TORSDOF 0
ENDMDL
MODEL 5
REMARK VINA RESULT:   -10.002      2.312      3.480
REMARK INTER + INTRA:         -10.002
REMARK INTER:                 -10.002
REMARK INTRA:                   0.000
REMARK UNBOUND:                 0.000
ROOT
REMARK  Name = biapenem
REMARK                            x       y       z     vdW  Elec       q    Type
REMARK                         _______ _______ _______ _____ _____    ______ ____
ATOM      1  C   UNL     1      60.559  62.423  66.754  0.00  0.00    +0.000 C 
ATOM      2  C   UNL     1      60.993  62.872  67.293  0.00  0.00    +0.000 C 
ATOM      3  O   UNL     1      61.498  63.465  67.024  0.00  0.00    +0.000 OA
ATOM      4  C   UNL     1      60.922  62.727  68.102  0.00  0.00    +0.000 C 
ATOM      5  C   UNL     1      61.255  63.051  68.784  0.00  0.00    +0.000 C 
ATOM      6  C   UNL     1      61.706  63.522  69.290  0.00  0.00    +0.000 C 
ATOM      7  C   UNL     1      62.221  64.125  69.060  0.00  0.00    +0.000 C 
ATOM      8  C   UNL     1      61.551  63.286  70.065  0.00  0.00    +0.000 C 
ATOM      9  S   UNL     1      61.884  63.610  70.746  0.00  0.00    +0.000 S 
ATOM     10  C   UNL     1      62.426  64.228  70.687  0.00  0.00    +0.000 C 
ATOM     11  C   UNL     1      62.802  64.606  71.317  0.00  0.00    +0.000 C 
ATOM     12  N   UNL     1      63.296  65.189  71.006  0.00  0.00    +0.000 NA
ATOM     13  C   UNL     1      63.834  65.783  71.204  0.00  0.00    +0.000 C 
ATOM     14  N   UNL     1      64.094  66.134  70.503  0.00  0.00    +0.000 NA
ATOM     15  C   UNL     1      63.718  65.756  69.873  0.00  0.00    +0.000 C 
ATOM     16  N   UNL     1      63.224  65.173  70.184  0.00  0.00    +0.000 N 
ATOM     17  C   UNL     1      62.687  64.579  69.987  0.00  0.00    +0.000 C 
ATOM     18  C   UNL     1      61.004  62.668  70.038  0.00  0.00    +0.000 C 
ATOM     19  N   UNL     1      60.821  62.523  69.247  0.00  0.00    +0.000 N 
ATOM     20  C   UNL     1      60.488  62.200  68.565  0.00  0.00    +0.000 C 
ATOM     21  O   UNL     1      59.946  61.598  68.410  0.00  0.00    +0.000 OA
ATOM     22  C   UNL     1      60.695  62.267  70.689  0.00  0.00    +0.000 C 
ATOM     23  O   UNL     1      60.930  62.474  71.452  0.00  0.00    +0.000 OA
ATOM     24  O   UNL     1      60.149  61.657  70.577  0.00  0.00    +0.000 OA
ENDROOT
TORSDOF 0
ENDMDL
MODEL 6
REMARK VINA RESULT:    -9.859      3.150      4.408
REMARK INTER + INTRA:          -9.859
REMARK INTER:                  -9.859
REMARK INTRA:                   0.000
REMARK UNBOUND:                 0.000
ROOT
REMARK  Name = biapenem
REMARK                            x       y       z     vdW  Elec       q    Type
REMARK                         _______ _______ _______ _____ _____    ______ ____
ATOM      1  C   UNL     1      65.569  66.961  70.457  0.00  0.00    +0.000 C 
ATOM      2  C   UNL     1      64.950  66.463  70.236  0.00  0.00    +0.000 C 
ATOM      3  O   UNL     1      64.944  66.117  69.487  0.00  0.00    +0.000 OA
ATOM      4  C   UNL     1      64.335  66.310  70.765  0.00  0.00    +0.000 C 
ATOM      5  C   UNL     1      63.645  65.858  70.742  0.00  0.00    +0.000 C 
ATOM      6  C   UNL     1      63.045  65.355  70.483  0.00  0.00    +0.000 C 
ATOM      7  C   UNL     1      63.003  64.990  69.744  0.00  0.00    +0.000 C 
ATOM      8  C   UNL     1      62.494  65.280  71.092  0.00  0.00    +0.000 C 
ATOM      9  S   UNL     1      61.804  64.828  71.070  0.00  0.00    +0.000 S 
ATOM     10  C   UNL     1      61.615  64.397  70.392  0.00  0.00    +0.000 C 
ATOM     11  C   UNL     1      60.948  63.923  70.290  0.00  0.00    +0.000 C 
ATOM     12  N   UNL     1      60.980  63.597  69.532  0.00  0.00    +0.000 NA
ATOM     13  C   UNL     1      60.588  63.103  69.001  0.00  0.00    +0.000 C 
ATOM     14  N   UNL     1      61.034  63.071  68.307  0.00  0.00    +0.000 NA
ATOM     15  C   UNL     1      61.701  63.546  68.409  0.00  0.00    +0.000 C 
ATOM     16  N   UNL     1      61.668  63.871  69.167  0.00  0.00    +0.000 N 
ATOM     17  C   UNL     1      62.060  64.365  69.698  0.00  0.00    +0.000 C 
ATOM     18  C   UNL     1      62.753  65.737  71.729  0.00  0.00    +0.000 C 
ATOM     19  N   UNL     1      63.465  66.095  71.512  0.00  0.00    +0.000 N 
ATOM     20  C   UNL     1      64.155  66.547  71.534  0.00  0.00    +0.000 C 
ATOM     21  O   UNL     1      64.515  67.033  72.094  0.00  0.00    +0.000 OA
ATOM     22  C   UNL     1      62.369  65.822  72.453  0.00  0.00    +0.000 C 
ATOM     23  O   UNL     1      61.657  65.429  72.592  0.00  0.00    +0.000 OA
ATOM     24  O   UNL     1      62.697  66.301  73.041  0.00  0.00    +0.000 OA
ENDROOT
TORSDOF 0
ENDMDL
MODEL 7
REMARK VINA RESULT:    -9.480      3.337      4.546
REMARK INTER + INTRA:          -9.480
REMARK INTER:                  -9.480
REMARK INTRA:                   0.000
REMARK UNBOUND:                 0.000
ROOT
REMARK  Name = biapenem
REMARK                            x       y       z     vdW  Elec       q    Type
REMARK                         _______ _______ _______ _____ _____    ______ ____
ATOM      1  C   UNL     1      64.387  64.922  70.274  0.00  0.00    +0.000 C 
ATOM      2  C   UNL     1      63.653  65.036  70.634  0.00  0.00    +0.000 C 
ATOM      3  O   UNL     1      63.052  64.481  70.533  0.00  0.00    +0.000 OA
ATOM      4  C   UNL     1      63.522  65.707  71.097  0.00  0.00    +0.000 C 
ATOM      5  C   UNL     1      62.884  66.000  71.530  0.00  0.00    +0.000 C 
ATOM      6  C   UNL     1      62.137  66.077  71.873  0.00  0.00    +0.000 C 
ATOM      7  C   UNL     1      61.511  65.546  71.796  0.00  0.00    +0.000 C 
ATOM      8  C   UNL     1      62.127  66.779  72.306  0.00  0.00    +0.000 C 
ATOM      9  S   UNL     1      61.489  67.073  72.739  0.00  0.00    +0.000 S 
ATOM     10  C   UNL     1      60.780  66.653  72.764  0.00  0.00    +0.000 C 
ATOM     11  C   UNL     1      60.098  66.877  73.171  0.00  0.00    +0.000 C 
ATOM     12  N   UNL     1      59.523  66.298  73.045  0.00  0.00    +0.000 NA
ATOM     13  C   UNL     1      58.747  66.079  73.218  0.00  0.00    +0.000 C 
ATOM     14  N   UNL     1      58.595  65.361  72.840  0.00  0.00    +0.000 NA
ATOM     15  C   UNL     1      59.277  65.137  72.432  0.00  0.00    +0.000 C 
ATOM     16  N   UNL     1      59.850  65.716  72.559  0.00  0.00    +0.000 N 
ATOM     17  C   UNL     1      60.626  65.936  72.386  0.00  0.00    +0.000 C 
ATOM     18  C   UNL     1      62.867  67.136  72.231  0.00  0.00    +0.000 C 
ATOM     19  N   UNL     1      63.335  66.654  71.751  0.00  0.00    +0.000 N 
ATOM     20  C   UNL     1      63.973  66.361  71.318  0.00  0.00    +0.000 C 
ATOM     21  O   UNL     1      64.743  66.616  71.169  0.00  0.00    +0.000 OA
ATOM     22  C   UNL     1      63.099  67.848  72.575  0.00  0.00    +0.000 C 
ATOM     23  O   UNL     1      62.569  68.272  73.045  0.00  0.00    +0.000 OA
ATOM     24  O   UNL     1      63.862  68.139  72.451  0.00  0.00    +0.000 OA
ENDROOT
TORSDOF 0
ENDMDL
MODEL 8
REMARK VINA RESULT:    -9.411      2.028      4.497
REMARK INTER + INTRA:          -9.411
REMARK INTER:                  -9.411
REMARK INTRA:                   0.000
REMARK UNBOUND:                 0.000
ROOT
REMARK  Name = biapenem
REMARK                            x       y       z     vdW  Elec       q    Type
REMARK                         _______ _______ _______ _____ _____    ______ ____
ATOM      1  C   UNL     1      60.030  67.767  69.086  0.00  0.00    +0.000 C 
ATOM      2  C   UNL     1      60.095  66.965  69.270  0.00  0.00    +0.000 C 
ATOM      3  O   UNL     1      60.371  66.432  68.705  0.00  0.00    +0.000 OA
ATOM      4  C   UNL     1      59.882  66.696  70.020  0.00  0.00    +0.000 C 
ATOM      5  C   UNL     1      59.871  65.961  70.395  0.00  0.00    +0.000 C 
ATOM      6  C   UNL     1      59.949  65.153  70.540  0.00  0.00    +0.000 C 
ATOM      7  C   UNL     1      60.221  64.588  70.002  0.00  0.00    +0.000 C 
ATOM      8  C   UNL     1      59.709  65.007  71.315  0.00  0.00    +0.000 C 
ATOM      9  S   UNL     1      59.697  64.272  71.690  0.00  0.00    +0.000 S 
ATOM     10  C   UNL     1      59.942  63.598  71.283  0.00  0.00    +0.000 C 
ATOM     11  C   UNL     1      59.961  62.830  71.584  0.00  0.00    +0.000 C 
ATOM     12  N   UNL     1      60.242  62.330  70.991  0.00  0.00    +0.000 NA
ATOM     13  C   UNL     1      60.428  61.547  70.810  0.00  0.00    +0.000 C 
ATOM     14  N   UNL     1      60.697  61.522  70.030  0.00  0.00    +0.000 NA
ATOM     15  C   UNL     1      60.678  62.291  69.728  0.00  0.00    +0.000 C 
ATOM     16  N   UNL     1      60.397  62.790  70.322  0.00  0.00    +0.000 N 
ATOM     17  C   UNL     1      60.212  63.573  70.503  0.00  0.00    +0.000 C 
ATOM     18  C   UNL     1      59.481  65.726  71.650  0.00  0.00    +0.000 C 
ATOM     19  N   UNL     1      59.581  66.316  71.082  0.00  0.00    +0.000 N 
ATOM     20  C   UNL     1      59.592  67.051  70.707  0.00  0.00    +0.000 C 
ATOM     21  O   UNL     1      59.396  67.820  70.927  0.00  0.00    +0.000 OA
ATOM     22  C   UNL     1      59.202  65.836  72.419  0.00  0.00    +0.000 C 
ATOM     23  O   UNL     1      59.131  65.191  72.928  0.00  0.00    +0.000 OA
ATOM     24  O   UNL     1      58.994  66.591  72.679  0.00  0.00    +0.000 OA
ENDROOT
TORSDOF 0
ENDMDL
MODEL 9
REMARK VINA RESULT:    -9.108      2.750      3.507
REMARK INTER + INTRA:          -9.108
REMARK INTER:                  -9.108
REMARK INTRA:                   0.000
REMARK UNBOUND:                 0.000
ROOT
REMARK  Name = biapenem
REMARK                            x       y       z     vdW  Elec       q    Type
REMARK                         _______ _______ _______ _____ _____    ______ ____
ATOM      1  C   UNL     1      58.367  65.859  73.040  0.00  0.00    +0.000 C 
ATOM      2  C   UNL     1      59.166  65.926  72.845  0.00  0.00    +0.000 C 
ATOM      3  O   UNL     1      59.590  66.599  73.063  0.00  0.00    +0.000 OA
ATOM      4  C   UNL     1      59.542  65.320  72.430  0.00  0.00    +0.000 C 
ATOM      5  C   UNL     1      60.306  65.193  72.147  0.00  0.00    +0.000 C 
ATOM      6  C   UNL     1      61.105  65.299  71.970  0.00  0.00    +0.000 C 
ATOM      7  C   UNL     1      61.563  65.956  72.171  0.00  0.00    +0.000 C 
ATOM      8  C   UNL     1      61.366  64.634  71.559  0.00  0.00    +0.000 C 
ATOM      9  S   UNL     1      62.131  64.507  71.276  0.00  0.00    +0.000 S 
ATOM     10  C   UNL     1      62.714  65.077  71.396  0.00  0.00    +0.000 C 
ATOM     11  C   UNL     1      63.499  65.028  71.146  0.00  0.00    +0.000 C 
ATOM     12  N   UNL     1      63.887  65.716  71.383  0.00  0.00    +0.000 NA
ATOM     13  C   UNL     1      64.611  66.112  71.375  0.00  0.00    +0.000 C 
ATOM     14  N   UNL     1      64.512  66.831  71.767  0.00  0.00    +0.000 NA
ATOM     15  C   UNL     1      63.727  66.881  72.017  0.00  0.00    +0.000 C 
ATOM     16  N   UNL     1      63.341  66.192  71.780  0.00  0.00    +0.000 N 
ATOM     17  C   UNL     1      62.617  65.797  71.788  0.00  0.00    +0.000 C 
ATOM     18  C   UNL     1      60.728  64.116  71.481  0.00  0.00    +0.000 C 
ATOM     19  N   UNL     1      60.073  64.462  71.844  0.00  0.00    +0.000 N 
ATOM     20  C   UNL     1      59.309  64.588  72.127  0.00  0.00    +0.000 C 
ATOM     21  O   UNL     1      58.604  64.161  72.113  0.00  0.00    +0.000 OA
ATOM     22  C   UNL     1      60.743  63.382  71.105  0.00  0.00    +0.000 C 
ATOM     23  O   UNL     1      61.442  63.106  70.765  0.00  0.00    +0.000 OA
ATOM     24  O   UNL     1      60.058  62.922  71.069  0.00  0.00    +0.000 OA
ENDROOT
TORSDOF 0
ENDMDL
