MODEL 1
REMARK VINA RESULT:   -12.942      0.000      0.000
REMARK INTER + INTRA:         -12.942
REMARK INTER:                 -12.942
REMARK INTRA:                   0.000
REMARK UNBOUND:                 0.000
ROOT
REMARK  Name = bidisomide
REMARK                            x       y       z     vdW  Elec       q    Type
REMARK                         _______ _______ _______ _____ _____    ______ ____
ATOM      1  C   UNL     1      59.169  66.426  72.369  0.00  0.00    +0.000 C 
ATOM      2  C   UNL     1      59.363  66.184  71.605  0.00  0.00    +0.000 C 
ATOM      3  C   UNL     1      59.353  66.730  70.985  0.00  0.00    +0.000 C 
ATOM      4  N   UNL     1      59.567  65.399  71.459  0.00  0.00    +0.000 N 
ATOM      5  C   UNL     1      59.761  65.157  70.694  0.00  0.00    +0.000 C 
ATOM      6  C   UNL     1      59.965  64.371  70.549  0.00  0.00    +0.000 C 
ATOM      7  C   UNL     1      60.159  64.130  69.785  0.00  0.00    +0.000 C 
ATOM      8  C   UNL     1      60.353  63.888  69.020  0.00  0.00    +0.000 C 
ATOM      9  C   UNL     1      60.557  63.102  68.874  0.00  0.00    +0.000 C 
ATOM     10  N   UNL     1      60.751  62.861  68.110  0.00  0.00    +0.000 NA
ATOM     11  C   UNL     1      60.955  62.075  67.964  0.00  0.00    +0.000 C 
ATOM     12  C   UNL     1      61.148  61.834  67.200  0.00  0.00    +0.000 C 
ATOM     13  C   UNL     1      61.138  62.378  66.580  0.00  0.00    +0.000 C 
ATOM     14  C   UNL     1      60.934  63.164  66.726  0.00  0.00    +0.000 C 
ATOM     15  C   UNL     1      60.741  63.405  67.490  0.00  0.00    +0.000 C 
ATOM     16  C   UNL     1      60.035  64.899  69.511  0.00  0.00    +0.000 C 
ATOM     17  N   UNL     1      60.141  65.073  68.711  0.00  0.00    +0.000 NA
ATOM     18  O   UNL     1      59.806  65.491  70.036  0.00  0.00    +0.000 OA
ATOM     19  C   UNL     1      60.282  63.362  70.058  0.00  0.00    +0.000 A 
ATOM     20  C   UNL     1      60.176  63.186  70.857  0.00  0.00    +0.000 A 
ATOM     21 CL   UNL     1      59.947  63.780  71.382  0.00  0.00    +0.000 Cl
ATOM     22  C   UNL     1      60.300  62.418  71.131  0.00  0.00    +0.000 A 
ATOM     23  C   UNL     1      60.529  61.825  70.606  0.00  0.00    +0.000 A 
ATOM     24  C   UNL     1      60.636  62.000  69.807  0.00  0.00    +0.000 A 
ATOM     25  C   UNL     1      60.512  62.768  69.533  0.00  0.00    +0.000 A 
ATOM     26  C   UNL     1      59.577  64.854  72.079  0.00  0.00    +0.000 C 
ATOM     27  C   UNL     1      59.781  64.068  71.933  0.00  0.00    +0.000 C 
ATOM     28  O   UNL     1      59.383  65.095  72.844  0.00  0.00    +0.000 OA
ENDROOT
TORSDOF 0
ENDMDL
MODEL 2
REMARK VINA RESULT:   -12.704      3.282      3.910
REMARK INTER + INTRA:         -12.704
REMARK INTER:                 -12.704
REMARK INTRA:                   0.000
REMARK UNBOUND:                 0.000
ROOT
REMARK  Name = bidisomide
REMARK                            x       y       z     vdW  Elec       q    Type
REMARK                         _______ _______ _______ _____ _____    ______ ____
ATOM      1  C   UNL     1      65.260  67.138  70.721  0.00  0.00    +0.000 C 
ATOM      2  C   UNL     1      64.818  66.493  70.456  0.00  0.00    +0.000 C 
ATOM      3  C   UNL     1      64.995  66.141  69.731  0.00  0.00    +0.000 C 
ATOM      4  N   UNL     1      64.199  66.201  70.916  0.00  0.00    +0.000 N 
ATOM      5  C   UNL     1      63.756  65.557  70.651  0.00  0.00    +0.000 C 
ATOM      6  C   UNL     1      63.136  65.264  71.111  0.00  0.00    +0.000 C 
ATOM      7  C   UNL     1      62.695  64.621  70.847  0.00  0.00    +0.000 C 
ATOM      8  C   UNL     1      62.252  63.977  70.582  0.00  0.00    +0.000 C 
ATOM      9  C   UNL     1      61.633  63.684  71.041  0.00  0.00    +0.000 C 
ATOM     10  N   UNL     1      61.191  63.040  70.776  0.00  0.00    +0.000 NA
ATOM     11  C   UNL     1      60.571  62.748  71.236  0.00  0.00    +0.000 C 
ATOM     12  C   UNL     1      60.130  62.104  70.971  0.00  0.00    +0.000 C 
ATOM     13  C   UNL     1      60.306  61.752  70.247  0.00  0.00    +0.000 C 
ATOM     14  C   UNL     1      60.926  62.044  69.788  0.00  0.00    +0.000 C 
ATOM     15  C   UNL     1      61.367  62.688  70.052  0.00  0.00    +0.000 C 
ATOM     16  C   UNL     1      63.155  64.586  70.162  0.00  0.00    +0.000 C 
ATOM     17  N   UNL     1      63.002  64.011  69.591  0.00  0.00    +0.000 NA
ATOM     18  O   UNL     1      63.768  65.126  70.049  0.00  0.00    +0.000 OA
ATOM     19  C   UNL     1      62.235  64.656  71.530  0.00  0.00    +0.000 A 
ATOM     20  C   UNL     1      62.388  65.231  72.101  0.00  0.00    +0.000 A 
ATOM     21 CL   UNL     1      63.001  65.771  71.988  0.00  0.00    +0.000 Cl
ATOM     22  C   UNL     1      61.927  65.265  72.785  0.00  0.00    +0.000 A 
ATOM     23  C   UNL     1      61.315  64.725  72.898  0.00  0.00    +0.000 A 
ATOM     24  C   UNL     1      61.162  64.149  72.327  0.00  0.00    +0.000 A 
ATOM     25  C   UNL     1      61.622  64.115  71.643  0.00  0.00    +0.000 A 
ATOM     26  C   UNL     1      64.021  66.554  71.641  0.00  0.00    +0.000 C 
ATOM     27  C   UNL     1      63.402  66.261  72.100  0.00  0.00    +0.000 C 
ATOM     28  O   UNL     1      64.463  67.198  71.906  0.00  0.00    +0.000 OA
ENDROOT
TORSDOF 0
ENDMDL
MODEL 3
REMARK VINA RESULT:   -12.667      3.548      4.543
REMARK INTER + INTRA:         -12.667
REMARK INTER:                 -12.667
REMARK INTRA:                   0.000
REMARK UNBOUND:                 0.000
ROOT
REMARK  Name = bidisomide
REMARK                            x       y       z     vdW  Elec       q    Type
REMARK                         _______ _______ _______ _____ _____    ______ ____
ATOM      1  C   UNL     1      60.229  62.467  70.961  0.00  0.00    +0.000 C 
ATOM      2  C   UNL     1      60.892  62.875  70.688  0.00  0.00    +0.000 C 
ATOM      3  C   UNL     1      61.258  62.644  69.985  0.00  0.00    +0.000 C 
ATOM      4  N   UNL     1      61.190  63.514  71.117  0.00  0.00    +0.000 N 
ATOM      5  C   UNL     1      61.853  63.921  70.844  0.00  0.00    +0.000 C 
ATOM      6  C   UNL     1      62.151  64.561  71.274  0.00  0.00    +0.000 C 
ATOM      7  C   UNL     1      62.813  64.968  71.001  0.00  0.00    +0.000 C 
ATOM      8  C   UNL     1      63.476  65.376  70.728  0.00  0.00    +0.000 C 
ATOM      9  C   UNL     1      63.774  66.014  71.157  0.00  0.00    +0.000 C 
ATOM     10  N   UNL     1      64.437  66.422  70.884  0.00  0.00    +0.000 NA
ATOM     11  C   UNL     1      64.735  67.061  71.313  0.00  0.00    +0.000 C 
ATOM     12  C   UNL     1      65.397  67.468  71.040  0.00  0.00    +0.000 C 
ATOM     13  C   UNL     1      65.763  67.238  70.337  0.00  0.00    +0.000 C 
ATOM     14  C   UNL     1      65.465  66.599  69.908  0.00  0.00    +0.000 C 
ATOM     15  C   UNL     1      64.803  66.192  70.181  0.00  0.00    +0.000 C 
ATOM     16  C   UNL     1      62.853  64.465  70.346  0.00  0.00    +0.000 C 
ATOM     17  N   UNL     1      63.447  64.568  69.783  0.00  0.00    +0.000 NA
ATOM     18  O   UNL     1      62.298  63.862  70.256  0.00  0.00    +0.000 OA
ATOM     19  C   UNL     1      62.774  65.469  71.654  0.00  0.00    +0.000 A 
ATOM     20  C   UNL     1      62.180  65.367  72.217  0.00  0.00    +0.000 A 
ATOM     21 CL   UNL     1      61.626  64.763  72.126  0.00  0.00    +0.000 Cl
ATOM     22  C   UNL     1      62.141  65.869  72.871  0.00  0.00    +0.000 A 
ATOM     23  C   UNL     1      62.695  66.473  72.961  0.00  0.00    +0.000 A 
ATOM     24  C   UNL     1      63.289  66.576  72.398  0.00  0.00    +0.000 A 
ATOM     25  C   UNL     1      63.329  66.074  71.744  0.00  0.00    +0.000 A 
ATOM     26  C   UNL     1      60.824  63.744  71.820  0.00  0.00    +0.000 C 
ATOM     27  C   UNL     1      61.122  64.383  72.249  0.00  0.00    +0.000 C 
ATOM     28  O   UNL     1      60.161  63.336  72.093  0.00  0.00    +0.000 OA
ENDROOT
TORSDOF 0
ENDMDL
MODEL 4
REMARK VINA RESULT:   -12.527      2.170      4.193
REMARK INTER + INTRA:         -12.527
REMARK INTER:                 -12.527
REMARK INTRA:                   0.000
REMARK UNBOUND:                 0.000
ROOT
REMARK  Name = bidisomide
REMARK                            x       y       z     vdW  Elec       q    Type
REMARK                         _______ _______ _______ _____ _____    ______ ____
ATOM      1  C   UNL     1      60.525  61.996  67.773  0.00  0.00    +0.000 C 
ATOM      2  C   UNL     1      60.884  62.665  68.096  0.00  0.00    +0.000 C 
ATOM      3  C   UNL     1      61.236  63.225  67.602  0.00  0.00    +0.000 C 
ATOM      4  N   UNL     1      60.891  62.775  68.914  0.00  0.00    +0.000 N 
ATOM      5  C   UNL     1      61.250  63.443  69.237  0.00  0.00    +0.000 C 
ATOM      6  C   UNL     1      61.257  63.553  70.056  0.00  0.00    +0.000 C 
ATOM      7  C   UNL     1      61.616  64.221  70.379  0.00  0.00    +0.000 C 
ATOM      8  C   UNL     1      61.975  64.890  70.702  0.00  0.00    +0.000 C 
ATOM      9  C   UNL     1      61.982  65.000  71.520  0.00  0.00    +0.000 C 
ATOM     10  N   UNL     1      62.341  65.668  71.843  0.00  0.00    +0.000 NA
ATOM     11  C   UNL     1      62.348  65.778  72.661  0.00  0.00    +0.000 C 
ATOM     12  C   UNL     1      62.707  66.446  72.984  0.00  0.00    +0.000 C 
ATOM     13  C   UNL     1      63.059  67.005  72.491  0.00  0.00    +0.000 C 
ATOM     14  C   UNL     1      63.052  66.895  71.673  0.00  0.00    +0.000 C 
ATOM     15  C   UNL     1      62.693  66.228  71.350  0.00  0.00    +0.000 C 
ATOM     16  C   UNL     1      61.815  64.481  69.620  0.00  0.00    +0.000 C 
ATOM     17  N   UNL     1      62.226  65.190  69.523  0.00  0.00    +0.000 NA
ATOM     18  O   UNL     1      61.604  64.032  68.962  0.00  0.00    +0.000 OA
ATOM     19  C   UNL     1      61.417  63.962  71.135  0.00  0.00    +0.000 A 
ATOM     20  C   UNL     1      61.006  63.253  71.234  0.00  0.00    +0.000 A 
ATOM     21 CL   UNL     1      60.795  62.804  70.575  0.00  0.00    +0.000 Cl
ATOM     22  C   UNL     1      60.807  62.994  71.992  0.00  0.00    +0.000 A 
ATOM     23  C   UNL     1      61.018  63.443  72.650  0.00  0.00    +0.000 A 
ATOM     24  C   UNL     1      61.429  64.152  72.552  0.00  0.00    +0.000 A 
ATOM     25  C   UNL     1      61.628  64.411  71.795  0.00  0.00    +0.000 A 
ATOM     26  C   UNL     1      60.539  62.215  69.408  0.00  0.00    +0.000 C 
ATOM     27  C   UNL     1      60.546  62.325  70.225  0.00  0.00    +0.000 C 
ATOM     28  O   UNL     1      60.180  61.547  69.084  0.00  0.00    +0.000 OA
ENDROOT
TORSDOF 0
ENDMDL
MODEL 5
REMARK VINA RESULT:   -12.330      1.126      4.086
REMARK INTER + INTRA:         -12.330
REMARK INTER:                 -12.330
REMARK INTRA:                   0.000
REMARK UNBOUND:                 0.000
ROOT
REMARK  Name = bidisomide
REMARK                            x       y       z     vdW  Elec       q    Type
REMARK                         _______ _______ _______ _____ _____    ______ ____
ATOM      1  C   UNL     1      61.047  62.106  67.199  0.00  0.00    +0.000 C 
ATOM      2  C   UNL     1      60.826  62.831  67.524  0.00  0.00    +0.000 C 
ATOM      3  C   UNL     1      60.747  63.495  67.039  0.00  0.00    +0.000 C 
ATOM      4  N   UNL     1      60.683  62.894  68.334  0.00  0.00    +0.000 N 
ATOM      5  C   UNL     1      60.462  63.619  68.660  0.00  0.00    +0.000 C 
ATOM      6  C   UNL     1      60.319  63.681  69.471  0.00  0.00    +0.000 C 
ATOM      7  C   UNL     1      60.098  64.406  69.796  0.00  0.00    +0.000 C 
ATOM      8  C   UNL     1      59.877  65.131  70.121  0.00  0.00    +0.000 C 
ATOM      9  C   UNL     1      59.734  65.194  70.931  0.00  0.00    +0.000 C 
ATOM     10  N   UNL     1      59.513  65.919  71.257  0.00  0.00    +0.000 NA
ATOM     11  C   UNL     1      59.370  65.981  72.067  0.00  0.00    +0.000 C 
ATOM     12  C   UNL     1      59.149  66.706  72.392  0.00  0.00    +0.000 C 
ATOM     13  C   UNL     1      59.070  67.369  71.907  0.00  0.00    +0.000 C 
ATOM     14  C   UNL     1      59.213  67.306  71.098  0.00  0.00    +0.000 C 
ATOM     15  C   UNL     1      59.434  66.582  70.772  0.00  0.00    +0.000 C 
ATOM     16  C   UNL     1      60.135  64.753  69.047  0.00  0.00    +0.000 C 
ATOM     17  N   UNL     1      59.962  65.555  68.956  0.00  0.00    +0.000 NA
ATOM     18  O   UNL     1      60.345  64.299  68.392  0.00  0.00    +0.000 OA
ATOM     19  C   UNL     1      60.061  64.059  70.542  0.00  0.00    +0.000 A 
ATOM     20  C   UNL     1      60.234  63.258  70.635  0.00  0.00    +0.000 A 
ATOM     21 CL   UNL     1      60.444  62.804  69.979  0.00  0.00    +0.000 Cl
ATOM     22  C   UNL     1      60.197  62.911  71.383  0.00  0.00    +0.000 A 
ATOM     23  C   UNL     1      59.987  63.366  72.038  0.00  0.00    +0.000 A 
ATOM     24  C   UNL     1      59.814  64.167  71.946  0.00  0.00    +0.000 A 
ATOM     25  C   UNL     1      59.851  64.514  71.199  0.00  0.00    +0.000 A 
ATOM     26  C   UNL     1      60.762  62.230  68.819  0.00  0.00    +0.000 C 
ATOM     27  C   UNL     1      60.619  62.293  69.629  0.00  0.00    +0.000 C 
ATOM     28  O   UNL     1      60.983  61.505  68.494  0.00  0.00    +0.000 OA
ENDROOT
TORSDOF 0
ENDMDL
MODEL 6
REMARK VINA RESULT:   -12.198      3.181      3.880
REMARK INTER + INTRA:         -12.198
REMARK INTER:                 -12.198
REMARK INTRA:                   0.000
REMARK UNBOUND:                 0.000
ROOT
REMARK  Name = bidisomide
REMARK                            x       y       z     vdW  Elec       q    Type
REMARK                         _______ _______ _______ _____ _____    ______ ____
ATOM      1  C   UNL     1      63.269  68.585  72.922  0.00  0.00    +0.000 C 
ATOM      2  C   UNL     1      62.761  67.941  72.836  0.00  0.00    +0.000 C 
ATOM      3  C   UNL     1      62.031  67.936  73.221  0.00  0.00    +0.000 C 
ATOM      4  N   UNL     1      62.983  67.300  72.367  0.00  0.00    +0.000 N 
ATOM      5  C   UNL     1      62.475  66.655  72.281  0.00  0.00    +0.000 C 
ATOM      6  C   UNL     1      62.697  66.014  71.811  0.00  0.00    +0.000 C 
ATOM      7  C   UNL     1      62.191  65.370  71.726  0.00  0.00    +0.000 C 
ATOM      8  C   UNL     1      61.683  64.725  71.641  0.00  0.00    +0.000 C 
ATOM      9  C   UNL     1      61.905  64.084  71.171  0.00  0.00    +0.000 C 
ATOM     10  N   UNL     1      61.397  63.440  71.086  0.00  0.00    +0.000 NA
ATOM     11  C   UNL     1      61.619  62.799  70.616  0.00  0.00    +0.000 C 
ATOM     12  C   UNL     1      61.112  62.155  70.531  0.00  0.00    +0.000 C 
ATOM     13  C   UNL     1      60.382  62.150  70.915  0.00  0.00    +0.000 C 
ATOM     14  C   UNL     1      60.160  62.791  71.385  0.00  0.00    +0.000 C 
ATOM     15  C   UNL     1      60.667  63.435  71.470  0.00  0.00    +0.000 C 
ATOM     16  C   UNL     1      61.640  65.738  72.220  0.00  0.00    +0.000 C 
ATOM     17  N   UNL     1      60.926  65.362  72.393  0.00  0.00    +0.000 NA
ATOM     18  O   UNL     1      61.805  66.479  72.540  0.00  0.00    +0.000 OA
ATOM     19  C   UNL     1      62.739  65.003  71.233  0.00  0.00    +0.000 A 
ATOM     20  C   UNL     1      63.454  65.377  71.060  0.00  0.00    +0.000 A 
ATOM     21 CL   UNL     1      63.618  66.119  71.381  0.00  0.00    +0.000 Cl
ATOM     22  C   UNL     1      64.004  65.009  70.566  0.00  0.00    +0.000 A 
ATOM     23  C   UNL     1      63.839  64.268  70.246  0.00  0.00    +0.000 A 
ATOM     24  C   UNL     1      63.124  63.893  70.419  0.00  0.00    +0.000 A 
ATOM     25  C   UNL     1      62.575  64.260  70.912  0.00  0.00    +0.000 A 
ATOM     26  C   UNL     1      63.713  67.304  71.982  0.00  0.00    +0.000 C 
ATOM     27  C   UNL     1      63.935  66.663  71.512  0.00  0.00    +0.000 C 
ATOM     28  O   UNL     1      64.221  67.949  72.067  0.00  0.00    +0.000 OA
ENDROOT
TORSDOF 0
ENDMDL
MODEL 7
REMARK VINA RESULT:   -12.080      1.499      2.992
REMARK INTER + INTRA:         -12.080
REMARK INTER:                 -12.080
REMARK INTRA:                   0.000
REMARK UNBOUND:                 0.000
ROOT
REMARK  Name = bidisomide
REMARK                            x       y       z     vdW  Elec       q    Type
REMARK                         _______ _______ _______ _____ _____    ______ ____
ATOM      1  C   UNL     1      59.466  67.564  70.300  0.00  0.00    +0.000 C 
ATOM      2  C   UNL     1      59.788  66.965  70.767  0.00  0.00    +0.000 C 
ATOM      3  C   UNL     1      59.992  67.118  71.552  0.00  0.00    +0.000 C 
ATOM      4  N   UNL     1      59.907  66.213  70.450  0.00  0.00    +0.000 N 
ATOM      5  C   UNL     1      60.230  65.614  70.916  0.00  0.00    +0.000 C 
ATOM      6  C   UNL     1      60.349  64.862  70.598  0.00  0.00    +0.000 C 
ATOM      7  C   UNL     1      60.671  64.263  71.064  0.00  0.00    +0.000 C 
ATOM      8  C   UNL     1      60.993  63.664  71.531  0.00  0.00    +0.000 C 
ATOM      9  C   UNL     1      61.112  62.912  71.214  0.00  0.00    +0.000 C 
ATOM     10  N   UNL     1      61.434  62.313  71.680  0.00  0.00    +0.000 NA
ATOM     11  C   UNL     1      61.553  61.561  71.363  0.00  0.00    +0.000 C 
ATOM     12  C   UNL     1      61.875  60.963  71.829  0.00  0.00    +0.000 C 
ATOM     13  C   UNL     1      62.079  61.115  72.614  0.00  0.00    +0.000 C 
ATOM     14  C   UNL     1      61.960  61.867  72.931  0.00  0.00    +0.000 C 
ATOM     15  C   UNL     1      61.638  62.465  72.465  0.00  0.00    +0.000 C 
ATOM     16  C   UNL     1      60.720  64.786  71.702  0.00  0.00    +0.000 C 
ATOM     17  N   UNL     1      61.023  64.528  72.424  0.00  0.00    +0.000 NA
ATOM     18  O   UNL     1      60.465  65.566  71.616  0.00  0.00    +0.000 OA
ATOM     19  C   UNL     1      60.622  63.742  70.428  0.00  0.00    +0.000 A 
ATOM     20  C   UNL     1      60.318  63.999  69.706  0.00  0.00    +0.000 A 
ATOM     21 CL   UNL     1      60.064  64.779  69.621  0.00  0.00    +0.000 Cl
ATOM     22  C   UNL     1      60.269  63.476  69.069  0.00  0.00    +0.000 A 
ATOM     23  C   UNL     1      60.524  62.697  69.155  0.00  0.00    +0.000 A 
ATOM     24  C   UNL     1      60.828  62.439  69.877  0.00  0.00    +0.000 A 
ATOM     25  C   UNL     1      60.876  62.961  70.514  0.00  0.00    +0.000 A 
ATOM     26  C   UNL     1      59.704  66.061  69.664  0.00  0.00    +0.000 C 
ATOM     27  C   UNL     1      59.823  65.309  69.347  0.00  0.00    +0.000 C 
ATOM     28  O   UNL     1      59.381  66.660  69.197  0.00  0.00    +0.000 OA
ENDROOT
TORSDOF 0
ENDMDL
MODEL 8
REMARK VINA RESULT:   -11.937      3.425      4.261
REMARK INTER + INTRA:         -11.937
REMARK INTER:                 -11.937
REMARK INTRA:                   0.000
REMARK UNBOUND:                 0.000
ROOT
REMARK  Name = bidisomide
REMARK                            x       y       z     vdW  Elec       q    Type
REMARK                         _______ _______ _______ _____ _____    ______ ____
ATOM      1  C   UNL     1      58.973  65.033  72.787  0.00  0.00    +0.000 C 
ATOM      2  C   UNL     1      59.682  65.454  72.769  0.00  0.00    +0.000 C 
ATOM      3  C   UNL     1      59.766  66.140  73.221  0.00  0.00    +0.000 C 
ATOM      4  N   UNL     1      60.307  65.191  72.300  0.00  0.00    +0.000 N 
ATOM      5  C   UNL     1      61.016  65.612  72.282  0.00  0.00    +0.000 C 
ATOM      6  C   UNL     1      61.642  65.349  71.813  0.00  0.00    +0.000 C 
ATOM      7  C   UNL     1      62.350  65.770  71.795  0.00  0.00    +0.000 C 
ATOM      8  C   UNL     1      63.059  66.191  71.777  0.00  0.00    +0.000 C 
ATOM      9  C   UNL     1      63.684  65.928  71.308  0.00  0.00    +0.000 C 
ATOM     10  N   UNL     1      64.393  66.349  71.290  0.00  0.00    +0.000 NA
ATOM     11  C   UNL     1      65.019  66.086  70.821  0.00  0.00    +0.000 C 
ATOM     12  C   UNL     1      65.727  66.507  70.804  0.00  0.00    +0.000 C 
ATOM     13  C   UNL     1      65.811  67.193  71.255  0.00  0.00    +0.000 C 
ATOM     14  C   UNL     1      65.186  67.456  71.724  0.00  0.00    +0.000 C 
ATOM     15  C   UNL     1      64.478  67.035  71.742  0.00  0.00    +0.000 C 
ATOM     16  C   UNL     1      62.037  66.318  72.327  0.00  0.00    +0.000 C 
ATOM     17  N   UNL     1      62.495  66.957  72.577  0.00  0.00    +0.000 NA
ATOM     18  O   UNL     1      61.267  66.227  72.608  0.00  0.00    +0.000 OA
ATOM     19  C   UNL     1      62.662  65.222  71.264  0.00  0.00    +0.000 A 
ATOM     20  C   UNL     1      62.205  64.583  71.013  0.00  0.00    +0.000 A 
ATOM     21 CL   UNL     1      61.435  64.493  71.295  0.00  0.00    +0.000 Cl
ATOM     22  C   UNL     1      62.517  64.035  70.481  0.00  0.00    +0.000 A 
ATOM     23  C   UNL     1      63.287  64.126  70.201  0.00  0.00    +0.000 A 
ATOM     24  C   UNL     1      63.745  64.765  70.451  0.00  0.00    +0.000 A 
ATOM     25  C   UNL     1      63.433  65.313  70.982  0.00  0.00    +0.000 A 
ATOM     26  C   UNL     1      60.223  64.505  71.848  0.00  0.00    +0.000 C 
ATOM     27  C   UNL     1      60.848  64.242  71.379  0.00  0.00    +0.000 C 
ATOM     28  O   UNL     1      59.514  64.083  71.866  0.00  0.00    +0.000 OA
ENDROOT
TORSDOF 0
ENDMDL
MODEL 9
REMARK VINA RESULT:   -11.895      3.884      4.900
REMARK INTER + INTRA:         -11.895
REMARK INTER:                 -11.895
REMARK INTRA:                   0.000
REMARK UNBOUND:                 0.000
ROOT
REMARK  Name = bidisomide
REMARK                            x       y       z     vdW  Elec       q    Type
REMARK                         _______ _______ _______ _____ _____    ______ ____
ATOM      1  C   UNL     1      66.051  67.603  70.581  0.00  0.00    +0.000 C 
ATOM      2  C   UNL     1      65.402  67.325  71.008  0.00  0.00    +0.000 C 
ATOM      3  C   UNL     1      65.244  67.626  71.761  0.00  0.00    +0.000 C 
ATOM      4  N   UNL     1      64.911  66.747  70.684  0.00  0.00    +0.000 N 
ATOM      5  C   UNL     1      64.262  66.470  71.110  0.00  0.00    +0.000 C 
ATOM      6  C   UNL     1      63.771  65.891  70.785  0.00  0.00    +0.000 C 
ATOM      7  C   UNL     1      63.123  65.614  71.211  0.00  0.00    +0.000 C 
ATOM      8  C   UNL     1      62.474  65.336  71.638  0.00  0.00    +0.000 C 
ATOM      9  C   UNL     1      61.983  64.758  71.314  0.00  0.00    +0.000 C 
ATOM     10  N   UNL     1      61.333  64.480  71.741  0.00  0.00    +0.000 NA
ATOM     11  C   UNL     1      60.842  63.902  71.416  0.00  0.00    +0.000 C 
ATOM     12  C   UNL     1      60.194  63.625  71.842  0.00  0.00    +0.000 C 
ATOM     13  C   UNL     1      60.035  63.925  72.594  0.00  0.00    +0.000 C 
ATOM     14  C   UNL     1      60.526  64.503  72.919  0.00  0.00    +0.000 C 
ATOM     15  C   UNL     1      61.174  64.780  72.492  0.00  0.00    +0.000 C 
ATOM     16  C   UNL     1      63.315  66.121  71.834  0.00  0.00    +0.000 C 
ATOM     17  N   UNL     1      62.848  66.134  72.514  0.00  0.00    +0.000 NA
ATOM     18  O   UNL     1      63.972  66.615  71.775  0.00  0.00    +0.000 OA
ATOM     19  C   UNL     1      62.931  65.107  70.590  0.00  0.00    +0.000 A 
ATOM     20  C   UNL     1      63.397  65.094  69.910  0.00  0.00    +0.000 A 
ATOM     21 CL   UNL     1      64.055  65.588  69.852  0.00  0.00    +0.000 Cl
ATOM     22  C   UNL     1      63.205  64.586  69.288  0.00  0.00    +0.000 A 
ATOM     23  C   UNL     1      62.547  64.093  69.347  0.00  0.00    +0.000 A 
ATOM     24  C   UNL     1      62.081  64.105  70.027  0.00  0.00    +0.000 A 
ATOM     25  C   UNL     1      62.272  64.613  70.649  0.00  0.00    +0.000 A 
ATOM     26  C   UNL     1      65.070  66.447  69.931  0.00  0.00    +0.000 C 
ATOM     27  C   UNL     1      64.579  65.869  69.607  0.00  0.00    +0.000 C 
ATOM     28  O   UNL     1      65.719  66.724  69.504  0.00  0.00    +0.000 OA
ENDROOT
TORSDOF 0
ENDMDL
