MODEL 1
REMARK VINA RESULT:   -16.643      0.000      0.000
REMARK INTER + INTRA:         -16.643
REMARK INTER:                 -16.643
REMARK INTRA:                   0.000
REMARK UNBOUND:                 0.000
ROOT
REMARK  Name = bisoctrizole
REMARK                            x       y       z     vdW  Elec       q    Type
REMARK                         _______ _______ _______ _____ _____    ______ ____
ATOM      1  C   UNL     1      58.607  65.077  71.070  0.00  0.00    +0.000 C 
ATOM      2  C   UNL     1      59.395  65.301  70.976  0.00  0.00    +0.000 C 
ATOM      3  C   UNL     1      59.329  65.808  71.624  0.00  0.00    +0.000 C 
ATOM      4  C   UNL     1      59.462  64.794  70.328  0.00  0.00    +0.000 C 
ATOM      5  C   UNL     1      60.184  65.525  70.882  0.00  0.00    +0.000 C 
ATOM      6  C   UNL     1      60.635  65.198  70.274  0.00  0.00    +0.000 C 
ATOM      7  C   UNL     1      59.987  64.751  70.031  0.00  0.00    +0.000 C 
ATOM      8  C   UNL     1      61.286  65.646  70.516  0.00  0.00    +0.000 C 
ATOM      9  C   UNL     1      61.088  64.871  69.666  0.00  0.00    +0.000 A 
ATOM     10  C   UNL     1      61.876  65.095  69.571  0.00  0.00    +0.000 A 
ATOM     11  C   UNL     1      62.328  64.769  68.963  0.00  0.00    +0.000 A 
ATOM     12  C   UNL     1      63.116  64.993  68.869  0.00  0.00    +0.000 C 
ATOM     13  C   UNL     1      63.452  65.544  69.382  0.00  0.00    +0.000 A 
ATOM     14  C   UNL     1      63.001  65.871  69.991  0.00  0.00    +0.000 A 
ATOM     15  O   UNL     1      62.212  65.646  70.085  0.00  0.00    +0.000 OA
ATOM     16  C   UNL     1      63.338  66.422  70.504  0.00  0.00    +0.000 A 
ATOM     17  C   UNL     1      64.125  66.645  70.410  0.00  0.00    +0.000 A 
ATOM     18  C   UNL     1      64.578  66.319  69.802  0.00  0.00    +0.000 A 
ATOM     19  C   UNL     1      64.241  65.768  69.288  0.00  0.00    +0.000 A 
ATOM     20  C   UNL     1      65.366  66.543  69.707  0.00  0.00    +0.000 C 
ATOM     21  C   UNL     1      66.154  66.767  69.614  0.00  0.00    +0.000 C 
ATOM     22  C   UNL     1      65.432  66.036  69.060  0.00  0.00    +0.000 C 
ATOM     23  C   UNL     1      65.299  67.050  70.356  0.00  0.00    +0.000 C 
ATOM     24  C   UNL     1      65.949  67.497  70.597  0.00  0.00    +0.000 C 
ATOM     25  C   UNL     1      66.400  67.171  69.990  0.00  0.00    +0.000 C 
ATOM     26  C   UNL     1      65.497  67.824  71.205  0.00  0.00    +0.000 C 
ATOM     27  C   UNL     1      66.598  67.945  70.840  0.00  0.00    +0.000 C 
ATOM     28  N   UNL     1      62.885  66.748  71.112  0.00  0.00    +0.000 N 
ATOM     29  N   UNL     1      62.094  66.579  71.274  0.00  0.00    +0.000 NA
ATOM     30  C   UNL     1      61.865  67.028  71.927  0.00  0.00    +0.000 A 
ATOM     31  C   UNL     1      61.149  67.087  72.333  0.00  0.00    +0.000 A 
ATOM     32  C   UNL     1      61.083  67.593  72.980  0.00  0.00    +0.000 A 
ATOM     33  C   UNL     1      61.732  68.041  73.222  0.00  0.00    +0.000 A 
ATOM     34  C   UNL     1      62.448  67.982  72.817  0.00  0.00    +0.000 A 
ATOM     35  C   UNL     1      62.515  67.475  72.169  0.00  0.00    +0.000 A 
ATOM     36  N   UNL     1      63.145  67.303  71.666  0.00  0.00    +0.000 NA
ATOM     37  C   UNL     1      61.992  64.218  68.450  0.00  0.00    +0.000 A 
ATOM     38  O   UNL     1      62.443  63.891  67.841  0.00  0.00    +0.000 OA
ATOM     39  C   UNL     1      61.203  63.993  68.544  0.00  0.00    +0.000 A 
ATOM     40  C   UNL     1      60.751  64.321  69.152  0.00  0.00    +0.000 A 
ATOM     41  N   UNL     1      60.866  63.442  68.030  0.00  0.00    +0.000 N 
ATOM     42  N   UNL     1      61.248  63.071  67.400  0.00  0.00    +0.000 NA
ATOM     43  C   UNL     1      60.707  62.565  67.037  0.00  0.00    +0.000 A 
ATOM     44  C   UNL     1      60.773  62.058  66.389  0.00  0.00    +0.000 A 
ATOM     45  C   UNL     1      60.124  61.611  66.147  0.00  0.00    +0.000 A 
ATOM     46  C   UNL     1      59.408  61.670  66.553  0.00  0.00    +0.000 A 
ATOM     47  C   UNL     1      59.341  62.177  67.200  0.00  0.00    +0.000 A 
ATOM     48  C   UNL     1      59.991  62.625  67.443  0.00  0.00    +0.000 A 
ATOM     49  N   UNL     1      60.089  63.167  68.056  0.00  0.00    +0.000 NA
ENDROOT
TORSDOF 0
ENDMDL
MODEL 2
REMARK VINA RESULT:   -15.979     15.259     17.791
REMARK INTER + INTRA:         -15.979
REMARK INTER:                 -15.979
REMARK INTRA:                   0.000
REMARK UNBOUND:                 0.000
ROOT
REMARK  Name = bisoctrizole
REMARK                            x       y       z     vdW  Elec       q    Type
REMARK                         _______ _______ _______ _____ _____    ______ ____
ATOM      1  C   UNL     1      61.972  65.524  55.966  0.00  0.00    +0.000 C 
ATOM      2  C   UNL     1      61.939  65.978  55.279  0.00  0.00    +0.000 C 
ATOM      3  C   UNL     1      61.994  66.666  55.731  0.00  0.00    +0.000 C 
ATOM      4  C   UNL     1      61.885  65.290  54.827  0.00  0.00    +0.000 C 
ATOM      5  C   UNL     1      61.907  66.433  54.591  0.00  0.00    +0.000 C 
ATOM      6  C   UNL     1      61.843  66.064  53.856  0.00  0.00    +0.000 C 
ATOM      7  C   UNL     1      61.844  65.327  54.225  0.00  0.00    +0.000 C 
ATOM      8  C   UNL     1      61.843  66.802  53.486  0.00  0.00    +0.000 C 
ATOM      9  C   UNL     1      61.780  65.696  53.120  0.00  0.00    +0.000 A 
ATOM     10  C   UNL     1      61.747  66.150  52.433  0.00  0.00    +0.000 A 
ATOM     11  C   UNL     1      61.683  65.782  51.697  0.00  0.00    +0.000 A 
ATOM     12  C   UNL     1      61.651  66.236  51.010  0.00  0.00    +0.000 C 
ATOM     13  C   UNL     1      61.682  67.059  51.057  0.00  0.00    +0.000 A 
ATOM     14  C   UNL     1      61.746  67.428  51.792  0.00  0.00    +0.000 A 
ATOM     15  O   UNL     1      61.779  66.973  52.480  0.00  0.00    +0.000 OA
ATOM     16  C   UNL     1      61.777  68.251  51.840  0.00  0.00    +0.000 A 
ATOM     17  C   UNL     1      61.745  68.705  51.153  0.00  0.00    +0.000 A 
ATOM     18  C   UNL     1      61.681  68.337  50.417  0.00  0.00    +0.000 A 
ATOM     19  C   UNL     1      61.650  67.514  50.369  0.00  0.00    +0.000 A 
ATOM     20  C   UNL     1      61.649  68.791  49.729  0.00  0.00    +0.000 C 
ATOM     21  C   UNL     1      61.617  69.246  49.042  0.00  0.00    +0.000 C 
ATOM     22  C   UNL     1      61.594  68.103  49.278  0.00  0.00    +0.000 C 
ATOM     23  C   UNL     1      61.704  69.479  50.182  0.00  0.00    +0.000 C 
ATOM     24  C   UNL     1      61.703  70.216  49.812  0.00  0.00    +0.000 C 
ATOM     25  C   UNL     1      61.640  69.848  49.077  0.00  0.00    +0.000 C 
ATOM     26  C   UNL     1      61.767  70.585  50.547  0.00  0.00    +0.000 C 
ATOM     27  C   UNL     1      61.703  70.955  49.443  0.00  0.00    +0.000 C 
ATOM     28  N   UNL     1      61.841  68.619  52.576  0.00  0.00    +0.000 N 
ATOM     29  N   UNL     1      61.879  68.239  53.307  0.00  0.00    +0.000 NA
ATOM     30  C   UNL     1      61.940  68.817  53.893  0.00  0.00    +0.000 A 
ATOM     31  C   UNL     1      61.995  68.768  54.714  0.00  0.00    +0.000 A 
ATOM     32  C   UNL     1      62.050  69.455  55.166  0.00  0.00    +0.000 A 
ATOM     33  C   UNL     1      62.049  70.193  54.797  0.00  0.00    +0.000 A 
ATOM     34  C   UNL     1      61.994  70.243  53.975  0.00  0.00    +0.000 A 
ATOM     35  C   UNL     1      61.939  69.555  53.522  0.00  0.00    +0.000 A 
ATOM     36  N   UNL     1      61.878  69.433  52.709  0.00  0.00    +0.000 NA
ATOM     37  C   UNL     1      61.652  64.959  51.649  0.00  0.00    +0.000 A 
ATOM     38  O   UNL     1      61.588  64.590  50.914  0.00  0.00    +0.000 OA
ATOM     39  C   UNL     1      61.685  64.504  52.337  0.00  0.00    +0.000 A 
ATOM     40  C   UNL     1      61.748  64.873  53.072  0.00  0.00    +0.000 A 
ATOM     41  N   UNL     1      61.653  63.681  52.290  0.00  0.00    +0.000 N 
ATOM     42  N   UNL     1      61.590  63.237  51.597  0.00  0.00    +0.000 NA
ATOM     43  C   UNL     1      61.577  62.440  51.805  0.00  0.00    +0.000 A 
ATOM     44  C   UNL     1      61.522  61.751  51.354  0.00  0.00    +0.000 A 
ATOM     45  C   UNL     1      61.523  61.014  51.723  0.00  0.00    +0.000 A 
ATOM     46  C   UNL     1      61.578  60.964  52.544  0.00  0.00    +0.000 A 
ATOM     47  C   UNL     1      61.633  61.652  52.997  0.00  0.00    +0.000 A 
ATOM     48  C   UNL     1      61.633  62.390  52.627  0.00  0.00    +0.000 A 
ATOM     49  N   UNL     1      61.680  63.157  52.926  0.00  0.00    +0.000 NA
ENDROOT
TORSDOF 0
ENDMDL
MODEL 3
REMARK VINA RESULT:   -15.638     14.871     17.181
REMARK INTER + INTRA:         -15.638
REMARK INTER:                 -15.638
REMARK INTRA:                   0.000
REMARK UNBOUND:                 0.000
ROOT
REMARK  Name = bisoctrizole
REMARK                            x       y       z     vdW  Elec       q    Type
REMARK                         _______ _______ _______ _____ _____    ______ ____
ATOM      1  C   UNL     1      60.477  63.706  49.904  0.00  0.00    +0.000 C 
ATOM      2  C   UNL     1      60.664  64.253  50.491  0.00  0.00    +0.000 C 
ATOM      3  C   UNL     1      60.284  64.846  50.061  0.00  0.00    +0.000 C 
ATOM      4  C   UNL     1      61.045  63.662  50.922  0.00  0.00    +0.000 C 
ATOM      5  C   UNL     1      60.852  64.802  51.079  0.00  0.00    +0.000 C 
ATOM      6  C   UNL     1      61.275  64.562  51.745  0.00  0.00    +0.000 C 
ATOM      7  C   UNL     1      61.303  63.792  51.452  0.00  0.00    +0.000 C 
ATOM      8  C   UNL     1      61.247  65.333  52.040  0.00  0.00    +0.000 C 
ATOM      9  C   UNL     1      61.698  64.324  52.413  0.00  0.00    +0.000 A 
ATOM     10  C   UNL     1      61.886  64.871  53.000  0.00  0.00    +0.000 A 
ATOM     11  C   UNL     1      62.309  64.633  53.667  0.00  0.00    +0.000 A 
ATOM     12  C   UNL     1      62.496  65.180  54.254  0.00  0.00    +0.000 C 
ATOM     13  C   UNL     1      62.261  65.967  54.175  0.00  0.00    +0.000 A 
ATOM     14  C   UNL     1      61.837  66.206  53.509  0.00  0.00    +0.000 A 
ATOM     15  O   UNL     1      61.650  65.658  52.921  0.00  0.00    +0.000 OA
ATOM     16  C   UNL     1      61.602  66.993  53.430  0.00  0.00    +0.000 A 
ATOM     17  C   UNL     1      61.789  67.540  54.017  0.00  0.00    +0.000 A 
ATOM     18  C   UNL     1      62.212  67.302  54.684  0.00  0.00    +0.000 A 
ATOM     19  C   UNL     1      62.448  66.515  54.763  0.00  0.00    +0.000 A 
ATOM     20  C   UNL     1      62.400  67.849  55.272  0.00  0.00    +0.000 C 
ATOM     21  C   UNL     1      62.587  68.397  55.859  0.00  0.00    +0.000 C 
ATOM     22  C   UNL     1      62.780  67.257  55.702  0.00  0.00    +0.000 C 
ATOM     23  C   UNL     1      62.019  68.442  54.841  0.00  0.00    +0.000 C 
ATOM     24  C   UNL     1      61.991  69.212  55.135  0.00  0.00    +0.000 C 
ATOM     25  C   UNL     1      62.414  68.973  55.801  0.00  0.00    +0.000 C 
ATOM     26  C   UNL     1      61.568  69.451  54.469  0.00  0.00    +0.000 C 
ATOM     27  C   UNL     1      61.963  69.982  55.428  0.00  0.00    +0.000 C 
ATOM     28  N   UNL     1      61.178  67.231  52.763  0.00  0.00    +0.000 N 
ATOM     29  N   UNL     1      60.952  66.749  52.133  0.00  0.00    +0.000 NA
ATOM     30  C   UNL     1      60.541  67.214  51.590  0.00  0.00    +0.000 A 
ATOM     31  C   UNL     1      60.188  67.035  50.866  0.00  0.00    +0.000 A 
ATOM     32  C   UNL     1      59.808  67.627  50.436  0.00  0.00    +0.000 A 
ATOM     33  C   UNL     1      59.780  68.398  50.729  0.00  0.00    +0.000 A 
ATOM     34  C   UNL     1      60.132  68.576  51.453  0.00  0.00    +0.000 A 
ATOM     35  C   UNL     1      60.513  67.984  51.884  0.00  0.00    +0.000 A 
ATOM     36  N   UNL     1      60.907  67.995  52.609  0.00  0.00    +0.000 NA
ATOM     37  C   UNL     1      62.545  63.846  53.746  0.00  0.00    +0.000 A 
ATOM     38  O   UNL     1      62.968  63.607  54.412  0.00  0.00    +0.000 OA
ATOM     39  C   UNL     1      62.358  63.298  53.158  0.00  0.00    +0.000 A 
ATOM     40  C   UNL     1      61.934  63.537  52.491  0.00  0.00    +0.000 A 
ATOM     41  N   UNL     1      62.593  62.511  53.237  0.00  0.00    +0.000 N 
ATOM     42  N   UNL     1      63.018  62.193  53.870  0.00  0.00    +0.000 NA
ATOM     43  C   UNL     1      63.133  61.391  53.721  0.00  0.00    +0.000 A 
ATOM     44  C   UNL     1      63.513  60.798  54.151  0.00  0.00    +0.000 A 
ATOM     45  C   UNL     1      63.541  60.028  53.858  0.00  0.00    +0.000 A 
ATOM     46  C   UNL     1      63.189  59.850  53.133  0.00  0.00    +0.000 A 
ATOM     47  C   UNL     1      62.808  60.441  52.702  0.00  0.00    +0.000 A 
ATOM     48  C   UNL     1      62.780  61.212  52.997  0.00  0.00    +0.000 A 
ATOM     49  N   UNL     1      62.447  61.905  52.698  0.00  0.00    +0.000 NA
ENDROOT
TORSDOF 0
ENDMDL
MODEL 4
REMARK VINA RESULT:   -15.055     15.723     18.067
REMARK INTER + INTRA:         -15.055
REMARK INTER:                 -15.055
REMARK INTRA:                   0.000
REMARK UNBOUND:                 0.000
ROOT
REMARK  Name = bisoctrizole
REMARK                            x       y       z     vdW  Elec       q    Type
REMARK                         _______ _______ _______ _____ _____    ______ ____
ATOM      1  C   UNL     1      59.180  65.564  50.842  0.00  0.00    +0.000 C 
ATOM      2  C   UNL     1      59.626  64.937  51.139  0.00  0.00    +0.000 C 
ATOM      3  C   UNL     1      59.187  64.408  50.682  0.00  0.00    +0.000 C 
ATOM      4  C   UNL     1      60.065  65.464  51.596  0.00  0.00    +0.000 C 
ATOM      5  C   UNL     1      60.073  64.309  51.435  0.00  0.00    +0.000 C 
ATOM      6  C   UNL     1      60.676  64.453  51.979  0.00  0.00    +0.000 C 
ATOM      7  C   UNL     1      60.509  65.260  51.951  0.00  0.00    +0.000 C 
ATOM      8  C   UNL     1      60.843  63.645  52.007  0.00  0.00    +0.000 C 
ATOM      9  C   UNL     1      61.279  64.596  52.523  0.00  0.00    +0.000 A 
ATOM     10  C   UNL     1      61.725  63.969  52.820  0.00  0.00    +0.000 A 
ATOM     11  C   UNL     1      62.329  64.112  53.364  0.00  0.00    +0.000 A 
ATOM     12  C   UNL     1      62.774  63.485  53.660  0.00  0.00    +0.000 C 
ATOM     13  C   UNL     1      62.617  62.714  53.413  0.00  0.00    +0.000 A 
ATOM     14  C   UNL     1      62.014  62.570  52.869  0.00  0.00    +0.000 A 
ATOM     15  O   UNL     1      61.568  63.198  52.572  0.00  0.00    +0.000 OA
ATOM     16  C   UNL     1      61.857  61.799  52.621  0.00  0.00    +0.000 A 
ATOM     17  C   UNL     1      62.303  61.172  52.917  0.00  0.00    +0.000 A 
ATOM     18  C   UNL     1      62.907  61.315  53.462  0.00  0.00    +0.000 A 
ATOM     19  C   UNL     1      63.064  62.086  53.709  0.00  0.00    +0.000 A 
ATOM     20  C   UNL     1      63.353  60.688  53.758  0.00  0.00    +0.000 C 
ATOM     21  C   UNL     1      63.798  60.060  54.054  0.00  0.00    +0.000 C 
ATOM     22  C   UNL     1      63.791  61.216  54.215  0.00  0.00    +0.000 C 
ATOM     23  C   UNL     1      62.913  60.160  53.300  0.00  0.00    +0.000 C 
ATOM     24  C   UNL     1      63.080  59.352  53.329  0.00  0.00    +0.000 C 
ATOM     25  C   UNL     1      63.683  59.496  53.873  0.00  0.00    +0.000 C 
ATOM     26  C   UNL     1      62.477  59.208  52.785  0.00  0.00    +0.000 C 
ATOM     27  C   UNL     1      63.247  58.545  53.357  0.00  0.00    +0.000 C 
ATOM     28  N   UNL     1      61.254  61.656  52.077  0.00  0.00    +0.000 N 
ATOM     29  N   UNL     1      60.764  62.224  51.734  0.00  0.00    +0.000 NA
ATOM     30  C   UNL     1      60.242  61.838  51.225  0.00  0.00    +0.000 A 
ATOM     31  C   UNL     1      59.636  62.118  50.740  0.00  0.00    +0.000 A 
ATOM     32  C   UNL     1      59.197  61.590  50.283  0.00  0.00    +0.000 A 
ATOM     33  C   UNL     1      59.364  60.782  50.311  0.00  0.00    +0.000 A 
ATOM     34  C   UNL     1      59.969  60.503  50.796  0.00  0.00    +0.000 A 
ATOM     35  C   UNL     1      60.409  61.031  51.254  0.00  0.00    +0.000 A 
ATOM     36  N   UNL     1      61.034  60.918  51.780  0.00  0.00    +0.000 NA
ATOM     37  C   UNL     1      62.486  64.883  53.612  0.00  0.00    +0.000 A 
ATOM     38  O   UNL     1      63.089  65.027  54.156  0.00  0.00    +0.000 OA
ATOM     39  C   UNL     1      62.039  65.511  53.315  0.00  0.00    +0.000 A 
ATOM     40  C   UNL     1      61.436  65.367  52.771  0.00  0.00    +0.000 A 
ATOM     41  N   UNL     1      62.196  66.282  53.563  0.00  0.00    +0.000 N 
ATOM     42  N   UNL     1      62.779  66.509  54.101  0.00  0.00    +0.000 NA
ATOM     43  C   UNL     1      62.741  67.329  54.187  0.00  0.00    +0.000 A 
ATOM     44  C   UNL     1      63.180  67.857  54.644  0.00  0.00    +0.000 A 
ATOM     45  C   UNL     1      63.014  68.664  54.616  0.00  0.00    +0.000 A 
ATOM     46  C   UNL     1      62.408  68.944  54.131  0.00  0.00    +0.000 A 
ATOM     47  C   UNL     1      61.968  68.416  53.673  0.00  0.00    +0.000 A 
ATOM     48  C   UNL     1      62.136  67.608  53.701  0.00  0.00    +0.000 A 
ATOM     49  N   UNL     1      61.799  66.961  53.316  0.00  0.00    +0.000 NA
ENDROOT
TORSDOF 0
ENDMDL
MODEL 5
REMARK VINA RESULT:   -14.968     15.881     18.533
REMARK INTER + INTRA:         -14.968
REMARK INTER:                 -14.968
REMARK INTRA:                   0.000
REMARK UNBOUND:                 0.000
ROOT
REMARK  Name = bisoctrizole
REMARK                            x       y       z     vdW  Elec       q    Type
REMARK                         _______ _______ _______ _____ _____    ______ ____
ATOM      1  C   UNL     1      62.048  64.294  54.851  0.00  0.00    +0.000 C 
ATOM      2  C   UNL     1      62.004  64.878  54.271  0.00  0.00    +0.000 C 
ATOM      3  C   UNL     1      61.989  65.459  54.856  0.00  0.00    +0.000 C 
ATOM      4  C   UNL     1      62.020  64.298  53.684  0.00  0.00    +0.000 C 
ATOM      5  C   UNL     1      61.961  65.463  53.690  0.00  0.00    +0.000 C 
ATOM      6  C   UNL     1      61.953  65.252  52.892  0.00  0.00    +0.000 C 
ATOM      7  C   UNL     1      61.998  64.456  53.102  0.00  0.00    +0.000 C 
ATOM      8  C   UNL     1      61.907  66.049  52.682  0.00  0.00    +0.000 C 
ATOM      9  C   UNL     1      61.944  65.042  52.094  0.00  0.00    +0.000 A 
ATOM     10  C   UNL     1      61.901  65.626  51.514  0.00  0.00    +0.000 A 
ATOM     11  C   UNL     1      61.893  65.416  50.716  0.00  0.00    +0.000 A 
ATOM     12  C   UNL     1      61.849  66.000  50.136  0.00  0.00    +0.000 C 
ATOM     13  C   UNL     1      61.814  66.795  50.353  0.00  0.00    +0.000 A 
ATOM     14  C   UNL     1      61.823  67.006  51.151  0.00  0.00    +0.000 A 
ATOM     15  O   UNL     1      61.866  66.421  51.731  0.00  0.00    +0.000 OA
ATOM     16  C   UNL     1      61.788  67.802  51.368  0.00  0.00    +0.000 A 
ATOM     17  C   UNL     1      61.744  68.386  50.788  0.00  0.00    +0.000 A 
ATOM     18  C   UNL     1      61.736  68.176  49.990  0.00  0.00    +0.000 A 
ATOM     19  C   UNL     1      61.771  67.381  49.772  0.00  0.00    +0.000 A 
ATOM     20  C   UNL     1      61.693  68.760  49.409  0.00  0.00    +0.000 C 
ATOM     21  C   UNL     1      61.649  69.345  48.830  0.00  0.00    +0.000 C 
ATOM     22  C   UNL     1      61.708  68.180  48.824  0.00  0.00    +0.000 C 
ATOM     23  C   UNL     1      61.677  69.341  49.996  0.00  0.00    +0.000 C 
ATOM     24  C   UNL     1      61.632  70.137  49.786  0.00  0.00    +0.000 C 
ATOM     25  C   UNL     1      61.623  69.927  48.989  0.00  0.00    +0.000 C 
ATOM     26  C   UNL     1      61.640  70.348  50.583  0.00  0.00    +0.000 C 
ATOM     27  C   UNL     1      61.587  70.934  49.577  0.00  0.00    +0.000 C 
ATOM     28  N   UNL     1      61.796  68.011  52.166  0.00  0.00    +0.000 N 
ATOM     29  N   UNL     1      61.837  67.491  52.805  0.00  0.00    +0.000 NA
ATOM     30  C   UNL     1      61.831  67.937  53.499  0.00  0.00    +0.000 A 
ATOM     31  C   UNL     1      61.861  67.721  54.294  0.00  0.00    +0.000 A 
ATOM     32  C   UNL     1      61.846  68.302  54.880  0.00  0.00    +0.000 A 
ATOM     33  C   UNL     1      61.801  69.099  54.670  0.00  0.00    +0.000 A 
ATOM     34  C   UNL     1      61.771  69.315  53.875  0.00  0.00    +0.000 A 
ATOM     35  C   UNL     1      61.786  68.734  53.288  0.00  0.00    +0.000 A 
ATOM     36  N   UNL     1      61.764  68.780  52.465  0.00  0.00    +0.000 NA
ATOM     37  C   UNL     1      61.928  64.621  50.499  0.00  0.00    +0.000 A 
ATOM     38  O   UNL     1      61.919  64.410  49.702  0.00  0.00    +0.000 OA
ATOM     39  C   UNL     1      61.971  64.036  51.080  0.00  0.00    +0.000 A 
ATOM     40  C   UNL     1      61.979  64.247  51.877  0.00  0.00    +0.000 A 
ATOM     41  N   UNL     1      62.006  63.241  50.863  0.00  0.00    +0.000 N 
ATOM     42  N   UNL     1      62.003  62.948  50.091  0.00  0.00    +0.000 NA
ATOM     43  C   UNL     1      62.045  62.126  50.130  0.00  0.00    +0.000 A 
ATOM     44  C   UNL     1      62.061  61.545  49.545  0.00  0.00    +0.000 A 
ATOM     45  C   UNL     1      62.106  60.749  49.754  0.00  0.00    +0.000 A 
ATOM     46  C   UNL     1      62.136  60.533  50.550  0.00  0.00    +0.000 A 
ATOM     47  C   UNL     1      62.120  61.113  51.136  0.00  0.00    +0.000 A 
ATOM     48  C   UNL     1      62.075  61.910  50.926  0.00  0.00    +0.000 A 
ATOM     49  N   UNL     1      62.051  62.599  51.378  0.00  0.00    +0.000 NA
ENDROOT
TORSDOF 0
ENDMDL
MODEL 6
REMARK VINA RESULT:   -14.630     14.705     18.148
REMARK INTER + INTRA:         -14.630
REMARK INTER:                 -14.630
REMARK INTRA:                   0.000
REMARK UNBOUND:                 0.000
ROOT
REMARK  Name = bisoctrizole
REMARK                            x       y       z     vdW  Elec       q    Type
REMARK                         _______ _______ _______ _____ _____    ______ ____
ATOM      1  C   UNL     1      61.739  69.497  51.491  0.00  0.00    +0.000 C 
ATOM      2  C   UNL     1      61.738  68.674  51.526  0.00  0.00    +0.000 C 
ATOM      3  C   UNL     1      61.593  68.639  50.714  0.00  0.00    +0.000 C 
ATOM      4  C   UNL     1      61.884  68.708  52.337  0.00  0.00    +0.000 C 
ATOM      5  C   UNL     1      61.738  67.849  51.561  0.00  0.00    +0.000 C 
ATOM      6  C   UNL     1      61.864  67.467  52.281  0.00  0.00    +0.000 C 
ATOM      7  C   UNL     1      61.937  68.198  52.656  0.00  0.00    +0.000 C 
ATOM      8  C   UNL     1      61.790  66.736  51.906  0.00  0.00    +0.000 C 
ATOM      9  C   UNL     1      61.989  67.084  53.001  0.00  0.00    +0.000 A 
ATOM     10  C   UNL     1      61.989  66.261  53.036  0.00  0.00    +0.000 A 
ATOM     11  C   UNL     1      62.115  65.878  53.756  0.00  0.00    +0.000 A 
ATOM     12  C   UNL     1      62.114  65.054  53.792  0.00  0.00    +0.000 C 
ATOM     13  C   UNL     1      61.988  64.612  53.106  0.00  0.00    +0.000 A 
ATOM     14  C   UNL     1      61.862  64.994  52.386  0.00  0.00    +0.000 A 
ATOM     15  O   UNL     1      61.863  65.819  52.351  0.00  0.00    +0.000 OA
ATOM     16  C   UNL     1      61.736  64.552  51.701  0.00  0.00    +0.000 A 
ATOM     17  C   UNL     1      61.736  63.728  51.736  0.00  0.00    +0.000 A 
ATOM     18  C   UNL     1      61.862  63.345  52.456  0.00  0.00    +0.000 A 
ATOM     19  C   UNL     1      61.988  63.787  53.141  0.00  0.00    +0.000 A 
ATOM     20  C   UNL     1      61.861  62.522  52.491  0.00  0.00    +0.000 C 
ATOM     21  C   UNL     1      61.861  61.697  52.526  0.00  0.00    +0.000 C 
ATOM     22  C   UNL     1      62.006  62.556  53.302  0.00  0.00    +0.000 C 
ATOM     23  C   UNL     1      61.716  62.487  51.679  0.00  0.00    +0.000 C 
ATOM     24  C   UNL     1      61.643  61.756  51.305  0.00  0.00    +0.000 C 
ATOM     25  C   UNL     1      61.768  61.374  52.024  0.00  0.00    +0.000 C 
ATOM     26  C   UNL     1      61.517  62.138  50.584  0.00  0.00    +0.000 C 
ATOM     27  C   UNL     1      61.570  61.025  50.929  0.00  0.00    +0.000 C 
ATOM     28  N   UNL     1      61.610  64.935  50.981  0.00  0.00    +0.000 N 
ATOM     29  N   UNL     1      61.596  65.751  50.861  0.00  0.00    +0.000 NA
ATOM     30  C   UNL     1      61.453  65.889  50.060  0.00  0.00    +0.000 A 
ATOM     31  C   UNL     1      61.381  66.585  49.624  0.00  0.00    +0.000 A 
ATOM     32  C   UNL     1      61.236  66.551  48.813  0.00  0.00    +0.000 A 
ATOM     33  C   UNL     1      61.163  65.820  48.437  0.00  0.00    +0.000 A 
ATOM     34  C   UNL     1      61.235  65.123  48.873  0.00  0.00    +0.000 A 
ATOM     35  C   UNL     1      61.380  65.157  49.685  0.00  0.00    +0.000 A 
ATOM     36  N   UNL     1      61.477  64.568  50.254  0.00  0.00    +0.000 NA
ATOM     37  C   UNL     1      62.241  66.319  54.441  0.00  0.00    +0.000 A 
ATOM     38  O   UNL     1      62.366  65.938  55.162  0.00  0.00    +0.000 OA
ATOM     39  C   UNL     1      62.241  67.144  54.407  0.00  0.00    +0.000 A 
ATOM     40  C   UNL     1      62.115  67.526  53.686  0.00  0.00    +0.000 A 
ATOM     41  N   UNL     1      62.367  67.586  55.092  0.00  0.00    +0.000 N 
ATOM     42  N   UNL     1      62.500  67.282  55.848  0.00  0.00    +0.000 NA
ATOM     43  C   UNL     1      62.598  67.917  56.364  0.00  0.00    +0.000 A 
ATOM     44  C   UNL     1      62.743  67.953  57.175  0.00  0.00    +0.000 A 
ATOM     45  C   UNL     1      62.816  68.683  57.551  0.00  0.00    +0.000 A 
ATOM     46  C   UNL     1      62.744  69.379  57.115  0.00  0.00    +0.000 A 
ATOM     47  C   UNL     1      62.598  69.346  56.303  0.00  0.00    +0.000 A 
ATOM     48  C   UNL     1      62.525  68.614  55.928  0.00  0.00    +0.000 A 
ATOM     49  N   UNL     1      62.383  68.409  55.142  0.00  0.00    +0.000 NA
ENDROOT
TORSDOF 0
ENDMDL
MODEL 7
REMARK VINA RESULT:   -14.403     16.230     18.626
REMARK INTER + INTRA:         -14.403
REMARK INTER:                 -14.403
REMARK INTRA:                   0.000
REMARK UNBOUND:                 0.000
ROOT
REMARK  Name = bisoctrizole
REMARK                            x       y       z     vdW  Elec       q    Type
REMARK                         _______ _______ _______ _____ _____    ______ ____
ATOM      1  C   UNL     1      64.892  62.667  54.461  0.00  0.00    +0.000 C 
ATOM      2  C   UNL     1      64.258  62.349  54.041  0.00  0.00    +0.000 C 
ATOM      3  C   UNL     1      64.593  61.598  54.102  0.00  0.00    +0.000 C 
ATOM      4  C   UNL     1      63.922  63.100  53.978  0.00  0.00    +0.000 C 
ATOM      5  C   UNL     1      63.623  62.031  53.620  0.00  0.00    +0.000 C 
ATOM      6  C   UNL     1      63.016  62.523  53.356  0.00  0.00    +0.000 C 
ATOM      7  C   UNL     1      63.397  63.173  53.689  0.00  0.00    +0.000 C 
ATOM      8  C   UNL     1      62.634  61.871  53.022  0.00  0.00    +0.000 C 
ATOM      9  C   UNL     1      62.408  63.014  53.091  0.00  0.00    +0.000 A 
ATOM     10  C   UNL     1      61.774  62.696  52.671  0.00  0.00    +0.000 A 
ATOM     11  C   UNL     1      61.166  63.187  52.406  0.00  0.00    +0.000 A 
ATOM     12  C   UNL     1      60.532  62.870  51.986  0.00  0.00    +0.000 C 
ATOM     13  C   UNL     1      60.505  62.060  51.829  0.00  0.00    +0.000 A 
ATOM     14  C   UNL     1      61.112  61.568  52.093  0.00  0.00    +0.000 A 
ATOM     15  O   UNL     1      61.747  61.887  52.514  0.00  0.00    +0.000 OA
ATOM     16  C   UNL     1      61.086  60.759  51.936  0.00  0.00    +0.000 A 
ATOM     17  C   UNL     1      60.452  60.441  51.515  0.00  0.00    +0.000 A 
ATOM     18  C   UNL     1      59.844  60.932  51.251  0.00  0.00    +0.000 A 
ATOM     19  C   UNL     1      59.870  61.742  51.408  0.00  0.00    +0.000 A 
ATOM     20  C   UNL     1      59.210  60.614  50.830  0.00  0.00    +0.000 C 
ATOM     21  C   UNL     1      58.576  60.296  50.410  0.00  0.00    +0.000 C 
ATOM     22  C   UNL     1      58.875  61.365  50.769  0.00  0.00    +0.000 C 
ATOM     23  C   UNL     1      59.546  59.863  50.892  0.00  0.00    +0.000 C 
ATOM     24  C   UNL     1      59.164  59.212  50.559  0.00  0.00    +0.000 C 
ATOM     25  C   UNL     1      58.557  59.703  50.295  0.00  0.00    +0.000 C 
ATOM     26  C   UNL     1      59.771  58.720  50.823  0.00  0.00    +0.000 C 
ATOM     27  C   UNL     1      58.783  58.561  50.225  0.00  0.00    +0.000 C 
ATOM     28  N   UNL     1      61.694  60.268  52.200  0.00  0.00    +0.000 N 
ATOM     29  N   UNL     1      62.360  60.505  52.625  0.00  0.00    +0.000 NA
ATOM     30  C   UNL     1      62.820  59.836  52.774  0.00  0.00    +0.000 A 
ATOM     31  C   UNL     1      63.537  59.736  53.169  0.00  0.00    +0.000 A 
ATOM     32  C   UNL     1      63.873  58.986  53.231  0.00  0.00    +0.000 A 
ATOM     33  C   UNL     1      63.491  58.334  52.897  0.00  0.00    +0.000 A 
ATOM     34  C   UNL     1      62.774  58.434  52.502  0.00  0.00    +0.000 A 
ATOM     35  C   UNL     1      62.438  59.186  52.440  0.00  0.00    +0.000 A 
ATOM     36  N   UNL     1      61.742  59.452  52.086  0.00  0.00    +0.000 NA
ATOM     37  C   UNL     1      61.192  63.997  52.563  0.00  0.00    +0.000 A 
ATOM     38  O   UNL     1      60.585  64.489  52.299  0.00  0.00    +0.000 OA
ATOM     39  C   UNL     1      61.827  64.315  52.984  0.00  0.00    +0.000 A 
ATOM     40  C   UNL     1      62.434  63.823  53.248  0.00  0.00    +0.000 A 
ATOM     41  N   UNL     1      61.853  65.125  53.141  0.00  0.00    +0.000 N 
ATOM     42  N   UNL     1      61.288  65.682  52.913  0.00  0.00    +0.000 NA
ATOM     43  C   UNL     1      61.535  66.420  53.184  0.00  0.00    +0.000 A 
ATOM     44  C   UNL     1      61.200  67.172  53.123  0.00  0.00    +0.000 A 
ATOM     45  C   UNL     1      61.581  67.822  53.456  0.00  0.00    +0.000 A 
ATOM     46  C   UNL     1      62.298  67.722  53.851  0.00  0.00    +0.000 A 
ATOM     47  C   UNL     1      62.634  66.971  53.914  0.00  0.00    +0.000 A 
ATOM     48  C   UNL     1      62.252  66.320  53.580  0.00  0.00    +0.000 A 
ATOM     49  N   UNL     1      62.449  65.520  53.553  0.00  0.00    +0.000 NA
ENDROOT
TORSDOF 0
ENDMDL
MODEL 8
REMARK VINA RESULT:   -14.298     15.756     17.698
REMARK INTER + INTRA:         -14.298
REMARK INTER:                 -14.298
REMARK INTRA:                   0.000
REMARK UNBOUND:                 0.000
ROOT
REMARK  Name = bisoctrizole
REMARK                            x       y       z     vdW  Elec       q    Type
REMARK                         _______ _______ _______ _____ _____    ______ ____
ATOM      1  C   UNL     1      59.889  61.204  50.218  0.00  0.00    +0.000 C 
ATOM      2  C   UNL     1      60.131  61.872  50.637  0.00  0.00    +0.000 C 
ATOM      3  C   UNL     1      59.631  62.341  50.178  0.00  0.00    +0.000 C 
ATOM      4  C   UNL     1      60.632  61.403  51.096  0.00  0.00    +0.000 C 
ATOM      5  C   UNL     1      60.374  62.541  51.056  0.00  0.00    +0.000 C 
ATOM      6  C   UNL     1      60.928  62.468  51.662  0.00  0.00    +0.000 C 
ATOM      7  C   UNL     1      60.969  61.656  51.529  0.00  0.00    +0.000 C 
ATOM      8  C   UNL     1      60.888  63.282  51.795  0.00  0.00    +0.000 C 
ATOM      9  C   UNL     1      61.483  62.397  52.269  0.00  0.00    +0.000 A 
ATOM     10  C   UNL     1      61.725  63.065  52.687  0.00  0.00    +0.000 A 
ATOM     11  C   UNL     1      62.280  62.994  53.294  0.00  0.00    +0.000 A 
ATOM     12  C   UNL     1      62.522  63.661  53.712  0.00  0.00    +0.000 C 
ATOM     13  C   UNL     1      62.210  64.401  53.525  0.00  0.00    +0.000 A 
ATOM     14  C   UNL     1      61.655  64.474  52.918  0.00  0.00    +0.000 A 
ATOM     15  O   UNL     1      61.413  63.805  52.499  0.00  0.00    +0.000 OA
ATOM     16  C   UNL     1      61.343  65.214  52.730  0.00  0.00    +0.000 A 
ATOM     17  C   UNL     1      61.585  65.882  53.149  0.00  0.00    +0.000 A 
ATOM     18  C   UNL     1      62.140  65.811  53.756  0.00  0.00    +0.000 A 
ATOM     19  C   UNL     1      62.452  65.071  53.943  0.00  0.00    +0.000 A 
ATOM     20  C   UNL     1      62.382  66.478  54.174  0.00  0.00    +0.000 C 
ATOM     21  C   UNL     1      62.623  67.147  54.592  0.00  0.00    +0.000 C 
ATOM     22  C   UNL     1      62.882  66.010  54.632  0.00  0.00    +0.000 C 
ATOM     23  C   UNL     1      61.881  66.947  53.715  0.00  0.00    +0.000 C 
ATOM     24  C   UNL     1      61.840  67.760  53.849  0.00  0.00    +0.000 C 
ATOM     25  C   UNL     1      62.395  67.689  54.455  0.00  0.00    +0.000 C 
ATOM     26  C   UNL     1      61.286  67.833  53.242  0.00  0.00    +0.000 C 
ATOM     27  C   UNL     1      61.799  68.574  53.982  0.00  0.00    +0.000 C 
ATOM     28  N   UNL     1      60.788  65.285  52.124  0.00  0.00    +0.000 N 
ATOM     29  N   UNL     1      60.494  64.670  51.659  0.00  0.00    +0.000 NA
ATOM     30  C   UNL     1      59.954  64.989  51.123  0.00  0.00    +0.000 A 
ATOM     31  C   UNL     1      59.494  64.645  50.532  0.00  0.00    +0.000 A 
ATOM     32  C   UNL     1      58.994  65.113  50.073  0.00  0.00    +0.000 A 
ATOM     33  C   UNL     1      58.953  65.927  50.206  0.00  0.00    +0.000 A 
ATOM     34  C   UNL     1      59.413  66.271  50.798  0.00  0.00    +0.000 A 
ATOM     35  C   UNL     1      59.914  65.802  51.257  0.00  0.00    +0.000 A 
ATOM     36  N   UNL     1      60.429  65.986  51.875  0.00  0.00    +0.000 NA
ATOM     37  C   UNL     1      62.592  62.254  53.482  0.00  0.00    +0.000 A 
ATOM     38  O   UNL     1      63.147  62.181  54.088  0.00  0.00    +0.000 OA
ATOM     39  C   UNL     1      62.350  61.585  53.063  0.00  0.00    +0.000 A 
ATOM     40  C   UNL     1      61.796  61.657  52.457  0.00  0.00    +0.000 A 
ATOM     41  N   UNL     1      62.663  60.845  53.251  0.00  0.00    +0.000 N 
ATOM     42  N   UNL     1      63.219  60.688  53.840  0.00  0.00    +0.000 NA
ATOM     43  C   UNL     1      63.373  59.879  53.836  0.00  0.00    +0.000 A 
ATOM     44  C   UNL     1      63.874  59.409  54.294  0.00  0.00    +0.000 A 
ATOM     45  C   UNL     1      63.915  58.597  54.161  0.00  0.00    +0.000 A 
ATOM     46  C   UNL     1      63.455  58.252  53.569  0.00  0.00    +0.000 A 
ATOM     47  C   UNL     1      62.954  58.720  53.111  0.00  0.00    +0.000 A 
ATOM     48  C   UNL     1      62.913  59.534  53.244  0.00  0.00    +0.000 A 
ATOM     49  N   UNL     1      62.474  60.131  52.883  0.00  0.00    +0.000 NA
ENDROOT
TORSDOF 0
ENDMDL
MODEL 9
REMARK VINA RESULT:   -13.992     16.484     19.851
REMARK INTER + INTRA:         -13.992
REMARK INTER:                 -13.992
REMARK INTRA:                   0.000
REMARK UNBOUND:                 0.000
ROOT
REMARK  Name = bisoctrizole
REMARK                            x       y       z     vdW  Elec       q    Type
REMARK                         _______ _______ _______ _____ _____    ______ ____
ATOM      1  C   UNL     1      62.421  63.820  54.212  0.00  0.00    +0.000 C 
ATOM      2  C   UNL     1      62.578  63.253  53.635  0.00  0.00    +0.000 C 
ATOM      3  C   UNL     1      62.684  62.683  54.222  0.00  0.00    +0.000 C 
ATOM      4  C   UNL     1      62.472  63.821  53.046  0.00  0.00    +0.000 C 
ATOM      5  C   UNL     1      62.735  62.685  53.057  0.00  0.00    +0.000 C 
ATOM      6  C   UNL     1      62.722  62.894  52.259  0.00  0.00    +0.000 C 
ATOM      7  C   UNL     1      62.533  63.670  52.465  0.00  0.00    +0.000 C 
ATOM      8  C   UNL     1      62.912  62.118  52.052  0.00  0.00    +0.000 C 
ATOM      9  C   UNL     1      62.709  63.103  51.461  0.00  0.00    +0.000 A 
ATOM     10  C   UNL     1      62.867  62.536  50.883  0.00  0.00    +0.000 A 
ATOM     11  C   UNL     1      62.854  62.745  50.085  0.00  0.00    +0.000 A 
ATOM     12  C   UNL     1      63.011  62.178  49.507  0.00  0.00    +0.000 C 
ATOM     13  C   UNL     1      63.181  61.401  49.728  0.00  0.00    +0.000 A 
ATOM     14  C   UNL     1      63.194  61.191  50.525  0.00  0.00    +0.000 A 
ATOM     15  O   UNL     1      63.037  61.759  51.103  0.00  0.00    +0.000 OA
ATOM     16  C   UNL     1      63.365  60.415  50.745  0.00  0.00    +0.000 A 
ATOM     17  C   UNL     1      63.522  59.848  50.168  0.00  0.00    +0.000 A 
ATOM     18  C   UNL     1      63.509  60.056  49.370  0.00  0.00    +0.000 A 
ATOM     19  C   UNL     1      63.339  60.833  49.149  0.00  0.00    +0.000 A 
ATOM     20  C   UNL     1      63.666  59.489  48.792  0.00  0.00    +0.000 C 
ATOM     21  C   UNL     1      63.824  58.922  48.215  0.00  0.00    +0.000 C 
ATOM     22  C   UNL     1      63.561  60.058  48.205  0.00  0.00    +0.000 C 
ATOM     23  C   UNL     1      63.772  58.920  49.381  0.00  0.00    +0.000 C 
ATOM     24  C   UNL     1      63.961  58.144  49.173  0.00  0.00    +0.000 C 
ATOM     25  C   UNL     1      63.948  58.353  48.376  0.00  0.00    +0.000 C 
ATOM     26  C   UNL     1      63.974  57.935  49.971  0.00  0.00    +0.000 C 
ATOM     27  C   UNL     1      64.151  57.368  48.968  0.00  0.00    +0.000 C 
ATOM     28  N   UNL     1      63.378  60.206  51.544  0.00  0.00    +0.000 N 
ATOM     29  N   UNL     1      63.232  60.711  52.180  0.00  0.00    +0.000 NA
ATOM     30  C   UNL     1      63.303  60.272  52.875  0.00  0.00    +0.000 A 
ATOM     31  C   UNL     1      63.220  60.479  53.669  0.00  0.00    +0.000 A 
ATOM     32  C   UNL     1      63.325  59.910  54.257  0.00  0.00    +0.000 A 
ATOM     33  C   UNL     1      63.515  59.134  54.051  0.00  0.00    +0.000 A 
ATOM     34  C   UNL     1      63.598  58.927  53.257  0.00  0.00    +0.000 A 
ATOM     35  C   UNL     1      63.492  59.496  52.668  0.00  0.00    +0.000 A 
ATOM     36  N   UNL     1      63.538  59.455  51.846  0.00  0.00    +0.000 NA
ATOM     37  C   UNL     1      62.683  63.521  49.865  0.00  0.00    +0.000 A 
ATOM     38  O   UNL     1      62.670  63.731  49.067  0.00  0.00    +0.000 OA
ATOM     39  C   UNL     1      62.526  64.089  50.443  0.00  0.00    +0.000 A 
ATOM     40  C   UNL     1      62.539  63.880  51.240  0.00  0.00    +0.000 A 
ATOM     41  N   UNL     1      62.356  64.866  50.223  0.00  0.00    +0.000 N 
ATOM     42  N   UNL     1      62.323  65.155  49.450  0.00  0.00    +0.000 NA
ATOM     43  C   UNL     1      62.135  65.957  49.486  0.00  0.00    +0.000 A 
ATOM     44  C   UNL     1      62.029  66.527  48.899  0.00  0.00    +0.000 A 
ATOM     45  C   UNL     1      61.840  67.302  49.105  0.00  0.00    +0.000 A 
ATOM     46  C   UNL     1      61.757  67.509  49.899  0.00  0.00    +0.000 A 
ATOM     47  C   UNL     1      61.863  66.940  50.487  0.00  0.00    +0.000 A 
ATOM     48  C   UNL     1      62.052  66.164  50.281  0.00  0.00    +0.000 A 
ATOM     49  N   UNL     1      62.188  65.490  50.735  0.00  0.00    +0.000 NA
ENDROOT
TORSDOF 0
ENDMDL
