MODEL 1
REMARK VINA RESULT:   -12.969      0.000      0.000
REMARK INTER + INTRA:         -12.969
REMARK INTER:                 -12.969
REMARK INTRA:                   0.000
REMARK UNBOUND:                 0.000
ROOT
REMARK  Name = bopindolol
REMARK                            x       y       z     vdW  Elec       q    Type
REMARK                         _______ _______ _______ _____ _____    ______ ____
ATOM      1  C   UNL     1      62.592  62.639  65.742  0.00  0.00    +0.000 C 
ATOM      2  C   UNL     1      61.817  62.543  66.007  0.00  0.00    +0.000 C 
ATOM      3  C   UNL     1      61.526  62.767  66.746  0.00  0.00    +0.000 C 
ATOM      4  C   UNL     1      60.726  62.568  66.776  0.00  0.00    +0.000 C 
ATOM      5  C   UNL     1      60.522  62.221  66.056  0.00  0.00    +0.000 C 
ATOM      6  N   UNL     1      61.197  62.206  65.581  0.00  0.00    +0.000 NA
ATOM      7  C   UNL     1      59.749  61.964  65.925  0.00  0.00    +0.000 C 
ATOM      8  C   UNL     1      59.180  62.054  66.515  0.00  0.00    +0.000 C 
ATOM      9  C   UNL     1      59.383  62.401  67.236  0.00  0.00    +0.000 C 
ATOM     10  C   UNL     1      60.156  62.658  67.366  0.00  0.00    +0.000 C 
ATOM     11  O   UNL     1      60.359  63.005  68.086  0.00  0.00    +0.000 OA
ATOM     12  C   UNL     1      61.133  63.262  68.216  0.00  0.00    +0.000 C 
ATOM     13  C   UNL     1      61.335  63.609  68.937  0.00  0.00    +0.000 C 
ATOM     14  C   UNL     1      60.766  63.698  69.526  0.00  0.00    +0.000 C 
ATOM     15  N   UNL     1      60.970  64.046  70.247  0.00  0.00    +0.000 NA
ATOM     16  C   UNL     1      60.400  64.136  70.837  0.00  0.00    +0.000 C 
ATOM     17  C   UNL     1      60.964  64.484  71.328  0.00  0.00    +0.000 C 
ATOM     18  C   UNL     1      59.836  63.787  70.346  0.00  0.00    +0.000 C 
ATOM     19  C   UNL     1      59.831  64.226  71.427  0.00  0.00    +0.000 C 
ATOM     20  O   UNL     1      62.109  63.866  69.067  0.00  0.00    +0.000 OA
ATOM     21  C   UNL     1      62.312  64.212  69.788  0.00  0.00    +0.000 C 
ATOM     22  O   UNL     1      61.743  64.302  70.377  0.00  0.00    +0.000 OA
ATOM     23  C   UNL     1      63.086  64.470  69.918  0.00  0.00    +0.000 A 
ATOM     24  C   UNL     1      63.288  64.816  70.639  0.00  0.00    +0.000 A 
ATOM     25  C   UNL     1      64.062  65.073  70.769  0.00  0.00    +0.000 A 
ATOM     26  C   UNL     1      64.632  64.983  70.179  0.00  0.00    +0.000 A 
ATOM     27  C   UNL     1      64.428  64.636  69.459  0.00  0.00    +0.000 A 
ATOM     28  C   UNL     1      63.655  64.380  69.328  0.00  0.00    +0.000 A 
ENDROOT
TORSDOF 0
ENDMDL
MODEL 2
REMARK VINA RESULT:   -12.801      2.231      5.029
REMARK INTER + INTRA:         -12.801
REMARK INTER:                 -12.801
REMARK INTRA:                   0.000
REMARK UNBOUND:                 0.000
ROOT
REMARK  Name = bopindolol
REMARK                            x       y       z     vdW  Elec       q    Type
REMARK                         _______ _______ _______ _____ _____    ______ ____
ATOM      1  C   UNL     1      60.338  67.425  69.508  0.00  0.00    +0.000 C 
ATOM      2  C   UNL     1      60.608  67.259  70.270  0.00  0.00    +0.000 C 
ATOM      3  C   UNL     1      60.764  66.508  70.575  0.00  0.00    +0.000 C 
ATOM      4  C   UNL     1      61.023  66.598  71.353  0.00  0.00    +0.000 C 
ATOM      5  C   UNL     1      61.027  67.404  71.528  0.00  0.00    +0.000 C 
ATOM      6  N   UNL     1      60.771  67.812  70.859  0.00  0.00    +0.000 NA
ATOM      7  C   UNL     1      61.264  67.663  72.275  0.00  0.00    +0.000 C 
ATOM      8  C   UNL     1      61.496  67.115  72.847  0.00  0.00    +0.000 C 
ATOM      9  C   UNL     1      61.492  66.309  72.672  0.00  0.00    +0.000 C 
ATOM     10  C   UNL     1      61.256  66.051  71.925  0.00  0.00    +0.000 C 
ATOM     11  O   UNL     1      61.252  65.245  71.750  0.00  0.00    +0.000 OA
ATOM     12  C   UNL     1      61.015  64.986  71.002  0.00  0.00    +0.000 C 
ATOM     13  C   UNL     1      61.012  64.180  70.828  0.00  0.00    +0.000 C 
ATOM     14  C   UNL     1      61.244  63.633  71.398  0.00  0.00    +0.000 C 
ATOM     15  N   UNL     1      61.240  62.826  71.223  0.00  0.00    +0.000 NA
ATOM     16  C   UNL     1      61.473  62.278  71.795  0.00  0.00    +0.000 C 
ATOM     17  C   UNL     1      61.334  61.664  71.262  0.00  0.00    +0.000 C 
ATOM     18  C   UNL     1      61.611  62.893  72.327  0.00  0.00    +0.000 C 
ATOM     19  C   UNL     1      61.705  61.731  72.366  0.00  0.00    +0.000 C 
ATOM     20  O   UNL     1      60.775  63.921  70.080  0.00  0.00    +0.000 OA
ATOM     21  C   UNL     1      60.771  63.115  69.905  0.00  0.00    +0.000 C 
ATOM     22  O   UNL     1      61.003  62.568  70.476  0.00  0.00    +0.000 OA
ATOM     23  C   UNL     1      60.534  62.857  69.158  0.00  0.00    +0.000 A 
ATOM     24  C   UNL     1      60.531  62.050  68.983  0.00  0.00    +0.000 A 
ATOM     25  C   UNL     1      60.294  61.792  68.235  0.00  0.00    +0.000 A 
ATOM     26  C   UNL     1      60.061  62.339  67.664  0.00  0.00    +0.000 A 
ATOM     27  C   UNL     1      60.066  63.146  67.840  0.00  0.00    +0.000 A 
ATOM     28  C   UNL     1      60.302  63.404  68.586  0.00  0.00    +0.000 A 
ENDROOT
TORSDOF 0
ENDMDL
MODEL 3
REMARK VINA RESULT:   -12.728      2.370      4.767
REMARK INTER + INTRA:         -12.728
REMARK INTER:                 -12.728
REMARK INTRA:                   0.000
REMARK UNBOUND:                 0.000
ROOT
REMARK  Name = bopindolol
REMARK                            x       y       z     vdW  Elec       q    Type
REMARK                         _______ _______ _______ _____ _____    ______ ____
ATOM      1  C   UNL     1      61.185  66.833  72.834  0.00  0.00    +0.000 C 
ATOM      2  C   UNL     1      60.906  66.904  72.060  0.00  0.00    +0.000 C 
ATOM      3  C   UNL     1      60.809  66.285  71.523  0.00  0.00    +0.000 C 
ATOM      4  C   UNL     1      60.518  66.603  70.819  0.00  0.00    +0.000 C 
ATOM      5  C   UNL     1      60.437  67.417  70.921  0.00  0.00    +0.000 C 
ATOM      6  N   UNL     1      60.676  67.603  71.688  0.00  0.00    +0.000 NA
ATOM      7  C   UNL     1      60.154  67.885  70.303  0.00  0.00    +0.000 C 
ATOM      8  C   UNL     1      59.954  67.538  69.582  0.00  0.00    +0.000 C 
ATOM      9  C   UNL     1      60.036  66.723  69.479  0.00  0.00    +0.000 C 
ATOM     10  C   UNL     1      60.318  66.256  70.098  0.00  0.00    +0.000 C 
ATOM     11  O   UNL     1      60.399  65.442  69.994  0.00  0.00    +0.000 OA
ATOM     12  C   UNL     1      60.682  64.974  70.613  0.00  0.00    +0.000 C 
ATOM     13  C   UNL     1      60.763  64.159  70.510  0.00  0.00    +0.000 C 
ATOM     14  C   UNL     1      60.563  63.813  69.790  0.00  0.00    +0.000 C 
ATOM     15  N   UNL     1      60.645  62.998  69.687  0.00  0.00    +0.000 NA
ATOM     16  C   UNL     1      60.444  62.651  68.966  0.00  0.00    +0.000 C 
ATOM     17  C   UNL     1      60.654  61.911  69.263  0.00  0.00    +0.000 C 
ATOM     18  C   UNL     1      60.234  63.391  68.668  0.00  0.00    +0.000 C 
ATOM     19  C   UNL     1      60.244  62.304  68.245  0.00  0.00    +0.000 C 
ATOM     20  O   UNL     1      61.046  63.692  71.129  0.00  0.00    +0.000 OA
ATOM     21  C   UNL     1      61.127  62.877  71.026  0.00  0.00    +0.000 C 
ATOM     22  O   UNL     1      60.927  62.531  70.306  0.00  0.00    +0.000 OA
ATOM     23  C   UNL     1      61.409  62.410  71.645  0.00  0.00    +0.000 A 
ATOM     24  C   UNL     1      61.491  61.595  71.542  0.00  0.00    +0.000 A 
ATOM     25  C   UNL     1      61.773  61.128  72.161  0.00  0.00    +0.000 A 
ATOM     26  C   UNL     1      61.974  61.475  72.882  0.00  0.00    +0.000 A 
ATOM     27  C   UNL     1      61.892  62.289  72.984  0.00  0.00    +0.000 A 
ATOM     28  C   UNL     1      61.610  62.757  72.366  0.00  0.00    +0.000 A 
ENDROOT
TORSDOF 0
ENDMDL
MODEL 4
REMARK VINA RESULT:   -12.549      3.507      5.783
REMARK INTER + INTRA:         -12.549
REMARK INTER:                 -12.549
REMARK INTRA:                   0.000
REMARK UNBOUND:                 0.000
ROOT
REMARK  Name = bopindolol
REMARK                            x       y       z     vdW  Elec       q    Type
REMARK                         _______ _______ _______ _____ _____    ______ ____
ATOM      1  C   UNL     1      64.703  65.907  71.308  0.00  0.00    +0.000 C 
ATOM      2  C   UNL     1      64.247  66.485  71.680  0.00  0.00    +0.000 C 
ATOM      3  C   UNL     1      63.455  66.410  71.899  0.00  0.00    +0.000 C 
ATOM      4  C   UNL     1      63.220  67.117  72.253  0.00  0.00    +0.000 C 
ATOM      5  C   UNL     1      63.866  67.629  72.252  0.00  0.00    +0.000 C 
ATOM      6  N   UNL     1      64.501  67.239  71.898  0.00  0.00    +0.000 NA
ATOM      7  C   UNL     1      63.795  68.386  72.574  0.00  0.00    +0.000 C 
ATOM      8  C   UNL     1      63.075  68.630  72.896  0.00  0.00    +0.000 C 
ATOM      9  C   UNL     1      62.428  68.117  72.897  0.00  0.00    +0.000 C 
ATOM     10  C   UNL     1      62.501  67.361  72.575  0.00  0.00    +0.000 C 
ATOM     11  O   UNL     1      61.854  66.850  72.576  0.00  0.00    +0.000 OA
ATOM     12  C   UNL     1      61.926  66.093  72.254  0.00  0.00    +0.000 C 
ATOM     13  C   UNL     1      61.279  65.581  72.254  0.00  0.00    +0.000 C 
ATOM     14  C   UNL     1      60.561  65.825  72.576  0.00  0.00    +0.000 C 
ATOM     15  N   UNL     1      59.914  65.313  72.577  0.00  0.00    +0.000 NA
ATOM     16  C   UNL     1      59.195  65.557  72.899  0.00  0.00    +0.000 C 
ATOM     17  C   UNL     1      58.863  64.824  72.714  0.00  0.00    +0.000 C 
ATOM     18  C   UNL     1      59.526  66.289  73.085  0.00  0.00    +0.000 C 
ATOM     19  C   UNL     1      58.475  65.801  73.222  0.00  0.00    +0.000 C 
ATOM     20  O   UNL     1      61.352  64.825  71.932  0.00  0.00    +0.000 OA
ATOM     21  C   UNL     1      60.705  64.313  71.933  0.00  0.00    +0.000 C 
ATOM     22  O   UNL     1      59.987  64.557  72.255  0.00  0.00    +0.000 OA
ATOM     23  C   UNL     1      60.777  63.556  71.611  0.00  0.00    +0.000 A 
ATOM     24  C   UNL     1      60.130  63.045  71.612  0.00  0.00    +0.000 A 
ATOM     25  C   UNL     1      60.203  62.288  71.289  0.00  0.00    +0.000 A 
ATOM     26  C   UNL     1      60.922  62.044  70.967  0.00  0.00    +0.000 A 
ATOM     27  C   UNL     1      61.569  62.557  70.967  0.00  0.00    +0.000 A 
ATOM     28  C   UNL     1      61.497  63.312  71.288  0.00  0.00    +0.000 A 
ENDROOT
TORSDOF 0
ENDMDL
MODEL 5
REMARK VINA RESULT:   -12.430      3.320      5.928
REMARK INTER + INTRA:         -12.430
REMARK INTER:                 -12.430
REMARK INTRA:                   0.000
REMARK UNBOUND:                 0.000
ROOT
REMARK  Name = bopindolol
REMARK                            x       y       z     vdW  Elec       q    Type
REMARK                         _______ _______ _______ _____ _____    ______ ____
ATOM      1  C   UNL     1      62.747  68.362  72.842  0.00  0.00    +0.000 C 
ATOM      2  C   UNL     1      63.136  67.734  72.475  0.00  0.00    +0.000 C 
ATOM      3  C   UNL     1      62.798  67.011  72.265  0.00  0.00    +0.000 C 
ATOM      4  C   UNL     1      63.383  66.548  71.914  0.00  0.00    +0.000 C 
ATOM      5  C   UNL     1      64.083  66.983  71.908  0.00  0.00    +0.000 C 
ATOM      6  N   UNL     1      63.931  67.716  72.254  0.00  0.00    +0.000 NA
ATOM      7  C   UNL     1      64.770  66.658  71.587  0.00  0.00    +0.000 C 
ATOM      8  C   UNL     1      64.756  65.895  71.273  0.00  0.00    +0.000 C 
ATOM      9  C   UNL     1      64.056  65.458  71.279  0.00  0.00    +0.000 C 
ATOM     10  C   UNL     1      63.370  65.785  71.600  0.00  0.00    +0.000 C 
ATOM     11  O   UNL     1      62.670  65.349  71.606  0.00  0.00    +0.000 OA
ATOM     12  C   UNL     1      61.983  65.675  71.927  0.00  0.00    +0.000 C 
ATOM     13  C   UNL     1      61.283  65.239  71.933  0.00  0.00    +0.000 C 
ATOM     14  C   UNL     1      61.269  64.477  71.619  0.00  0.00    +0.000 C 
ATOM     15  N   UNL     1      60.569  64.040  71.625  0.00  0.00    +0.000 NA
ATOM     16  C   UNL     1      60.555  63.278  71.311  0.00  0.00    +0.000 C 
ATOM     17  C   UNL     1      59.754  63.214  71.499  0.00  0.00    +0.000 C 
ATOM     18  C   UNL     1      61.355  63.341  71.122  0.00  0.00    +0.000 C 
ATOM     19  C   UNL     1      60.541  62.515  70.996  0.00  0.00    +0.000 C 
ATOM     20  O   UNL     1      60.596  65.565  72.254  0.00  0.00    +0.000 OA
ATOM     21  C   UNL     1      59.896  65.129  72.260  0.00  0.00    +0.000 C 
ATOM     22  O   UNL     1      59.883  64.367  71.946  0.00  0.00    +0.000 OA
ATOM     23  C   UNL     1      59.209  65.456  72.581  0.00  0.00    +0.000 A 
ATOM     24  C   UNL     1      58.510  65.019  72.587  0.00  0.00    +0.000 A 
ATOM     25  C   UNL     1      57.823  65.346  72.908  0.00  0.00    +0.000 A 
ATOM     26  C   UNL     1      57.836  66.108  73.222  0.00  0.00    +0.000 A 
ATOM     27  C   UNL     1      58.537  66.544  73.216  0.00  0.00    +0.000 A 
ATOM     28  C   UNL     1      59.223  66.218  72.895  0.00  0.00    +0.000 A 
ENDROOT
TORSDOF 0
ENDMDL
MODEL 6
REMARK VINA RESULT:   -12.297      3.004      4.707
REMARK INTER + INTRA:         -12.297
REMARK INTER:                 -12.297
REMARK INTRA:                   0.000
REMARK UNBOUND:                 0.000
ROOT
REMARK  Name = bopindolol
REMARK                            x       y       z     vdW  Elec       q    Type
REMARK                         _______ _______ _______ _____ _____    ______ ____
ATOM      1  C   UNL     1      59.280  64.632  72.593  0.00  0.00    +0.000 C 
ATOM      2  C   UNL     1      59.747  64.142  72.122  0.00  0.00    +0.000 C 
ATOM      3  C   UNL     1      60.515  64.304  71.867  0.00  0.00    +0.000 C 
ATOM      4  C   UNL     1      60.771  63.666  71.410  0.00  0.00    +0.000 C 
ATOM      5  C   UNL     1      60.162  63.111  71.384  0.00  0.00    +0.000 C 
ATOM      6  N   UNL     1      59.529  63.405  71.823  0.00  0.00    +0.000 NA
ATOM      7  C   UNL     1      60.262  62.408  70.962  0.00  0.00    +0.000 C 
ATOM      8  C   UNL     1      60.971  62.262  70.567  0.00  0.00    +0.000 C 
ATOM      9  C   UNL     1      61.581  62.818  70.594  0.00  0.00    +0.000 C 
ATOM     10  C   UNL     1      61.480  63.520  71.015  0.00  0.00    +0.000 C 
ATOM     11  O   UNL     1      62.090  64.075  71.042  0.00  0.00    +0.000 OA
ATOM     12  C   UNL     1      61.989  64.778  71.464  0.00  0.00    +0.000 C 
ATOM     13  C   UNL     1      62.599  65.333  71.490  0.00  0.00    +0.000 C 
ATOM     14  C   UNL     1      63.308  65.186  71.095  0.00  0.00    +0.000 C 
ATOM     15  N   UNL     1      63.917  65.742  71.122  0.00  0.00    +0.000 NA
ATOM     16  C   UNL     1      64.627  65.596  70.727  0.00  0.00    +0.000 C 
ATOM     17  C   UNL     1      64.921  66.322  70.986  0.00  0.00    +0.000 C 
ATOM     18  C   UNL     1      64.333  64.870  70.469  0.00  0.00    +0.000 C 
ATOM     19  C   UNL     1      65.336  65.449  70.332  0.00  0.00    +0.000 C 
ATOM     20  O   UNL     1      62.498  66.035  71.912  0.00  0.00    +0.000 OA
ATOM     21  C   UNL     1      63.108  66.590  71.938  0.00  0.00    +0.000 C 
ATOM     22  O   UNL     1      63.817  66.444  71.543  0.00  0.00    +0.000 OA
ATOM     23  C   UNL     1      63.008  67.293  72.360  0.00  0.00    +0.000 A 
ATOM     24  C   UNL     1      63.617  67.848  72.386  0.00  0.00    +0.000 A 
ATOM     25  C   UNL     1      63.517  68.551  72.808  0.00  0.00    +0.000 A 
ATOM     26  C   UNL     1      62.807  68.698  73.202  0.00  0.00    +0.000 A 
ATOM     27  C   UNL     1      62.198  68.141  73.175  0.00  0.00    +0.000 A 
ATOM     28  C   UNL     1      62.298  67.440  72.754  0.00  0.00    +0.000 A 
ENDROOT
TORSDOF 0
ENDMDL
MODEL 7
REMARK VINA RESULT:   -12.062      1.850      4.943
REMARK INTER + INTRA:         -12.062
REMARK INTER:                 -12.062
REMARK INTRA:                   0.000
REMARK UNBOUND:                 0.000
ROOT
REMARK  Name = bopindolol
REMARK                            x       y       z     vdW  Elec       q    Type
REMARK                         _______ _______ _______ _____ _____    ______ ____
ATOM      1  C   UNL     1      64.993  65.951  69.095  0.00  0.00    +0.000 C 
ATOM      2  C   UNL     1      64.735  66.206  69.836  0.00  0.00    +0.000 C 
ATOM      3  C   UNL     1      64.043  65.966  70.216  0.00  0.00    +0.000 C 
ATOM      4  C   UNL     1      64.003  66.356  70.942  0.00  0.00    +0.000 C 
ATOM      5  C   UNL     1      64.669  66.837  71.010  0.00  0.00    +0.000 C 
ATOM      6  N   UNL     1      65.122  66.745  70.326  0.00  0.00    +0.000 NA
ATOM      7  C   UNL     1      64.779  67.299  71.685  0.00  0.00    +0.000 C 
ATOM      8  C   UNL     1      64.221  67.278  72.293  0.00  0.00    +0.000 C 
ATOM      9  C   UNL     1      63.554  66.797  72.225  0.00  0.00    +0.000 C 
ATOM     10  C   UNL     1      63.446  66.336  71.550  0.00  0.00    +0.000 C 
ATOM     11  O   UNL     1      62.779  65.855  71.483  0.00  0.00    +0.000 OA
ATOM     12  C   UNL     1      62.670  65.394  70.807  0.00  0.00    +0.000 C 
ATOM     13  C   UNL     1      62.003  64.913  70.740  0.00  0.00    +0.000 C 
ATOM     14  C   UNL     1      61.446  64.892  71.347  0.00  0.00    +0.000 C 
ATOM     15  N   UNL     1      60.779  64.411  71.279  0.00  0.00    +0.000 NA
ATOM     16  C   UNL     1      60.222  64.390  71.887  0.00  0.00    +0.000 C 
ATOM     17  C   UNL     1      59.774  63.846  71.458  0.00  0.00    +0.000 C 
ATOM     18  C   UNL     1      60.670  64.934  72.316  0.00  0.00    +0.000 C 
ATOM     19  C   UNL     1      59.664  64.370  72.495  0.00  0.00    +0.000 C 
ATOM     20  O   UNL     1      61.894  64.451  70.064  0.00  0.00    +0.000 OA
ATOM     21  C   UNL     1      61.227  63.970  69.997  0.00  0.00    +0.000 C 
ATOM     22  O   UNL     1      60.671  63.950  70.604  0.00  0.00    +0.000 OA
ATOM     23  C   UNL     1      61.118  63.509  69.321  0.00  0.00    +0.000 A 
ATOM     24  C   UNL     1      60.452  63.028  69.254  0.00  0.00    +0.000 A 
ATOM     25  C   UNL     1      60.343  62.566  68.578  0.00  0.00    +0.000 A 
ATOM     26  C   UNL     1      60.900  62.587  67.970  0.00  0.00    +0.000 A 
ATOM     27  C   UNL     1      61.567  63.069  68.038  0.00  0.00    +0.000 A 
ATOM     28  C   UNL     1      61.676  63.529  68.713  0.00  0.00    +0.000 A 
ENDROOT
TORSDOF 0
ENDMDL
MODEL 8
REMARK VINA RESULT:   -11.558      2.832      5.673
REMARK INTER + INTRA:         -11.558
REMARK INTER:                 -11.558
REMARK INTRA:                   0.000
REMARK UNBOUND:                 0.000
ROOT
REMARK  Name = bopindolol
REMARK                            x       y       z     vdW  Elec       q    Type
REMARK                         _______ _______ _______ _____ _____    ______ ____
ATOM      1  C   UNL     1      57.175  64.713  73.174  0.00  0.00    +0.000 C 
ATOM      2  C   UNL     1      57.518  65.440  72.991  0.00  0.00    +0.000 C 
ATOM      3  C   UNL     1      58.201  65.554  72.542  0.00  0.00    +0.000 C 
ATOM      4  C   UNL     1      58.345  66.365  72.497  0.00  0.00    +0.000 C 
ATOM      5  C   UNL     1      57.751  66.752  72.917  0.00  0.00    +0.000 C 
ATOM      6  N   UNL     1      57.240  66.181  73.222  0.00  0.00    +0.000 NA
ATOM      7  C   UNL     1      57.751  67.576  72.969  0.00  0.00    +0.000 C 
ATOM      8  C   UNL     1      58.345  68.012  72.599  0.00  0.00    +0.000 C 
ATOM      9  C   UNL     1      58.940  67.624  72.178  0.00  0.00    +0.000 C 
ATOM     10  C   UNL     1      58.939  66.801  72.127  0.00  0.00    +0.000 C 
ATOM     11  O   UNL     1      59.534  66.414  71.706  0.00  0.00    +0.000 OA
ATOM     12  C   UNL     1      59.533  65.590  71.655  0.00  0.00    +0.000 C 
ATOM     13  C   UNL     1      60.128  65.203  71.234  0.00  0.00    +0.000 C 
ATOM     14  C   UNL     1      60.722  65.638  70.864  0.00  0.00    +0.000 C 
ATOM     15  N   UNL     1      61.317  65.251  70.443  0.00  0.00    +0.000 NA
ATOM     16  C   UNL     1      61.912  65.687  70.073  0.00  0.00    +0.000 C 
ATOM     17  C   UNL     1      62.255  64.988  69.800  0.00  0.00    +0.000 C 
ATOM     18  C   UNL     1      61.569  66.386  70.345  0.00  0.00    +0.000 C 
ATOM     19  C   UNL     1      62.507  66.123  69.703  0.00  0.00    +0.000 C 
ATOM     20  O   UNL     1      60.127  64.379  71.182  0.00  0.00    +0.000 OA
ATOM     21  C   UNL     1      60.722  63.992  70.761  0.00  0.00    +0.000 C 
ATOM     22  O   UNL     1      61.316  64.428  70.392  0.00  0.00    +0.000 OA
ATOM     23  C   UNL     1      60.721  63.168  70.710  0.00  0.00    +0.000 A 
ATOM     24  C   UNL     1      61.316  62.781  70.289  0.00  0.00    +0.000 A 
ATOM     25  C   UNL     1      61.315  61.957  70.238  0.00  0.00    +0.000 A 
ATOM     26  C   UNL     1      60.721  61.521  70.608  0.00  0.00    +0.000 A 
ATOM     27  C   UNL     1      60.126  61.909  71.029  0.00  0.00    +0.000 A 
ATOM     28  C   UNL     1      60.127  62.732  71.080  0.00  0.00    +0.000 A 
ENDROOT
TORSDOF 0
ENDMDL
MODEL 9
REMARK VINA RESULT:   -10.710      1.844      5.423
REMARK INTER + INTRA:         -10.710
REMARK INTER:                 -10.710
REMARK INTRA:                   0.000
REMARK UNBOUND:                 0.000
ROOT
REMARK  Name = bopindolol
REMARK                            x       y       z     vdW  Elec       q    Type
REMARK                         _______ _______ _______ _____ _____    ______ ____
ATOM      1  C   UNL     1      58.607  65.684  71.944  0.00  0.00    +0.000 C 
ATOM      2  C   UNL     1      59.316  66.053  72.149  0.00  0.00    +0.000 C 
ATOM      3  C   UNL     1      60.050  65.920  71.796  0.00  0.00    +0.000 C 
ATOM      4  C   UNL     1      60.603  66.404  72.170  0.00  0.00    +0.000 C 
ATOM      5  C   UNL     1      60.212  66.836  72.754  0.00  0.00    +0.000 C 
ATOM      6  N   UNL     1      59.416  66.619  72.740  0.00  0.00    +0.000 NA
ATOM      7  C   UNL     1      60.629  67.371  73.222  0.00  0.00    +0.000 C 
ATOM      8  C   UNL     1      61.440  67.475  73.107  0.00  0.00    +0.000 C 
ATOM      9  C   UNL     1      61.832  67.043  72.523  0.00  0.00    +0.000 C 
ATOM     10  C   UNL     1      61.414  66.508  72.055  0.00  0.00    +0.000 C 
ATOM     11  O   UNL     1      61.807  66.077  71.472  0.00  0.00    +0.000 OA
ATOM     12  C   UNL     1      61.388  65.541  71.003  0.00  0.00    +0.000 C 
ATOM     13  C   UNL     1      61.781  65.110  70.420  0.00  0.00    +0.000 C 
ATOM     14  C   UNL     1      62.590  65.214  70.305  0.00  0.00    +0.000 C 
ATOM     15  N   UNL     1      62.983  64.782  69.721  0.00  0.00    +0.000 NA
ATOM     16  C   UNL     1      63.793  64.885  69.606  0.00  0.00    +0.000 C 
ATOM     17  C   UNL     1      63.778  64.327  68.999  0.00  0.00    +0.000 C 
ATOM     18  C   UNL     1      63.808  65.444  70.213  0.00  0.00    +0.000 C 
ATOM     19  C   UNL     1      64.604  64.989  69.491  0.00  0.00    +0.000 C 
ATOM     20  O   UNL     1      61.362  64.575  69.951  0.00  0.00    +0.000 OA
ATOM     21  C   UNL     1      61.755  64.144  69.368  0.00  0.00    +0.000 C 
ATOM     22  O   UNL     1      62.564  64.247  69.253  0.00  0.00    +0.000 OA
ATOM     23  C   UNL     1      61.336  63.608  68.899  0.00  0.00    +0.000 A 
ATOM     24  C   UNL     1      61.729  63.177  68.316  0.00  0.00    +0.000 A 
ATOM     25  C   UNL     1      61.311  62.641  67.847  0.00  0.00    +0.000 A 
ATOM     26  C   UNL     1      60.500  62.538  67.962  0.00  0.00    +0.000 A 
ATOM     27  C   UNL     1      60.108  62.970  68.546  0.00  0.00    +0.000 A 
ATOM     28  C   UNL     1      60.526  63.504  69.014  0.00  0.00    +0.000 A 
ENDROOT
TORSDOF 0
ENDMDL
