MODEL 1
REMARK VINA RESULT:    -9.082      0.000      0.000
REMARK INTER + INTRA:          -9.082
REMARK INTER:                  -9.082
REMARK INTRA:                   0.000
REMARK UNBOUND:                 0.000
ROOT
REMARK  Name = brimonidine
REMARK                            x       y       z     vdW  Elec       q    Type
REMARK                         _______ _______ _______ _____ _____    ______ ____
ATOM      1 BR   UNL     1      61.666  62.440  65.764  0.00  0.00    +0.000 Br
ATOM      2  C   UNL     1      60.918  62.375  66.105  0.00  0.00    +0.000 A 
ATOM      3  C   UNL     1      60.322  61.959  65.716  0.00  0.00    +0.000 A 
ATOM      4  N   UNL     1      60.474  61.606  64.985  0.00  0.00    +0.000 NA
ATOM      5  C   UNL     1      61.223  61.670  64.645  0.00  0.00    +0.000 C 
ATOM      6  N   UNL     1      61.870  62.068  64.967  0.00  0.00    +0.000 NA
ATOM      7  C   UNL     1      62.502  61.992  64.443  0.00  0.00    +0.000 C 
ATOM      8  C   UNL     1      62.246  61.548  63.798  0.00  0.00    +0.000 C 
ATOM      9  N   UNL     1      61.456  61.349  63.922  0.00  0.00    +0.000 NA
ATOM     10  C   UNL     1      59.573  61.894  66.057  0.00  0.00    +0.000 A 
ATOM     11  C   UNL     1      59.421  62.246  66.786  0.00  0.00    +0.000 A 
ATOM     12  C   UNL     1      60.016  62.663  67.176  0.00  0.00    +0.000 A 
ATOM     13  N   UNL     1      59.864  63.016  67.906  0.00  0.00    +0.000 NA
ATOM     14  C   UNL     1      60.459  63.433  68.295  0.00  0.00    +0.000 A 
ATOM     15  C   UNL     1      61.208  63.498  67.954  0.00  0.00    +0.000 A 
ATOM     16  N   UNL     1      61.361  63.145  67.224  0.00  0.00    +0.000 NA
ATOM     17  C   UNL     1      60.765  62.728  66.834  0.00  0.00    +0.000 A 
ENDROOT
TORSDOF 0
ENDMDL
MODEL 2
REMARK VINA RESULT:    -8.708      0.662      3.218
REMARK INTER + INTRA:          -8.708
REMARK INTER:                  -8.708
REMARK INTRA:                   0.000
REMARK UNBOUND:                 0.000
ROOT
REMARK  Name = brimonidine
REMARK                            x       y       z     vdW  Elec       q    Type
REMARK                         _______ _______ _______ _____ _____    ______ ____
ATOM      1 BR   UNL     1      61.454  62.929  66.921  0.00  0.00    +0.000 Br
ATOM      2  C   UNL     1      60.984  62.495  66.401  0.00  0.00    +0.000 A 
ATOM      3  C   UNL     1      60.191  62.356  66.580  0.00  0.00    +0.000 A 
ATOM      4  N   UNL     1      59.868  62.651  67.280  0.00  0.00    +0.000 NA
ATOM      5  C   UNL     1      60.339  63.086  67.800  0.00  0.00    +0.000 C 
ATOM      6  N   UNL     1      61.136  63.268  67.695  0.00  0.00    +0.000 NA
ATOM      7  C   UNL     1      61.384  63.709  68.346  0.00  0.00    +0.000 C 
ATOM      8  C   UNL     1      60.741  63.799  68.853  0.00  0.00    +0.000 C 
ATOM      9  N   UNL     1      60.094  63.414  68.516  0.00  0.00    +0.000 NA
ATOM     10  C   UNL     1      59.720  61.921  66.060  0.00  0.00    +0.000 A 
ATOM     11  C   UNL     1      60.043  61.626  65.361  0.00  0.00    +0.000 A 
ATOM     12  C   UNL     1      60.835  61.764  65.182  0.00  0.00    +0.000 A 
ATOM     13  N   UNL     1      61.159  61.469  64.482  0.00  0.00    +0.000 NA
ATOM     14  C   UNL     1      61.951  61.608  64.303  0.00  0.00    +0.000 A 
ATOM     15  C   UNL     1      62.422  62.043  64.824  0.00  0.00    +0.000 A 
ATOM     16  N   UNL     1      62.100  62.338  65.522  0.00  0.00    +0.000 NA
ATOM     17  C   UNL     1      61.306  62.199  65.702  0.00  0.00    +0.000 A 
ENDROOT
TORSDOF 0
ENDMDL
MODEL 3
REMARK VINA RESULT:    -7.960      2.402      3.708
REMARK INTER + INTRA:          -7.960
REMARK INTER:                  -7.960
REMARK INTRA:                   0.000
REMARK UNBOUND:                 0.000
ROOT
REMARK  Name = brimonidine
REMARK                            x       y       z     vdW  Elec       q    Type
REMARK                         _______ _______ _______ _____ _____    ______ ____
ATOM      1 BR   UNL     1      60.619  63.405  68.948  0.00  0.00    +0.000 Br
ATOM      2  C   UNL     1      60.510  62.940  69.621  0.00  0.00    +0.000 A 
ATOM      3  C   UNL     1      60.566  62.120  69.568  0.00  0.00    +0.000 A 
ATOM      4  N   UNL     1      60.731  61.762  68.843  0.00  0.00    +0.000 NA
ATOM      5  C   UNL     1      60.840  62.227  68.170  0.00  0.00    +0.000 C 
ATOM      6  N   UNL     1      60.801  63.050  68.138  0.00  0.00    +0.000 NA
ATOM      7  C   UNL     1      60.944  63.282  67.360  0.00  0.00    +0.000 C 
ATOM      8  C   UNL     1      61.072  62.603  66.911  0.00  0.00    +0.000 C 
ATOM      9  N   UNL     1      61.008  61.951  67.411  0.00  0.00    +0.000 NA
ATOM     10  C   UNL     1      60.457  61.654  70.242  0.00  0.00    +0.000 A 
ATOM     11  C   UNL     1      60.292  62.011  70.967  0.00  0.00    +0.000 A 
ATOM     12  C   UNL     1      60.236  62.831  71.020  0.00  0.00    +0.000 A 
ATOM     13  N   UNL     1      60.071  63.188  71.745  0.00  0.00    +0.000 NA
ATOM     14  C   UNL     1      60.015  64.009  71.798  0.00  0.00    +0.000 A 
ATOM     15  C   UNL     1      60.124  64.475  71.124  0.00  0.00    +0.000 A 
ATOM     16  N   UNL     1      60.289  64.118  70.399  0.00  0.00    +0.000 NA
ATOM     17  C   UNL     1      60.345  63.297  70.346  0.00  0.00    +0.000 A 
ENDROOT
TORSDOF 0
ENDMDL
MODEL 4
REMARK VINA RESULT:    -7.656      3.217      5.679
REMARK INTER + INTRA:          -7.656
REMARK INTER:                  -7.656
REMARK INTRA:                   0.000
REMARK UNBOUND:                 0.000
ROOT
REMARK  Name = brimonidine
REMARK                            x       y       z     vdW  Elec       q    Type
REMARK                         _______ _______ _______ _____ _____    ______ ____
ATOM      1 BR   UNL     1      60.468  64.105  70.656  0.00  0.00    +0.000 Br
ATOM      2  C   UNL     1      60.455  63.299  70.480  0.00  0.00    +0.000 A 
ATOM      3  C   UNL     1      60.459  62.745  71.090  0.00  0.00    +0.000 A 
ATOM      4  N   UNL     1      60.475  62.995  71.876  0.00  0.00    +0.000 NA
ATOM      5  C   UNL     1      60.487  63.801  72.052  0.00  0.00    +0.000 C 
ATOM      6  N   UNL     1      60.485  64.417  71.503  0.00  0.00    +0.000 NA
ATOM      7  C   UNL     1      60.501  65.128  71.919  0.00  0.00    +0.000 C 
ATOM      8  C   UNL     1      60.512  64.953  72.724  0.00  0.00    +0.000 C 
ATOM      9  N   UNL     1      60.503  64.133  72.807  0.00  0.00    +0.000 NA
ATOM     10  C   UNL     1      60.446  61.938  70.914  0.00  0.00    +0.000 A 
ATOM     11  C   UNL     1      60.431  61.687  70.129  0.00  0.00    +0.000 A 
ATOM     12  C   UNL     1      60.427  62.242  69.519  0.00  0.00    +0.000 A 
ATOM     13  N   UNL     1      60.411  61.991  68.733  0.00  0.00    +0.000 NA
ATOM     14  C   UNL     1      60.408  62.546  68.123  0.00  0.00    +0.000 A 
ATOM     15  C   UNL     1      60.420  63.353  68.299  0.00  0.00    +0.000 A 
ATOM     16  N   UNL     1      60.436  63.603  69.084  0.00  0.00    +0.000 NA
ATOM     17  C   UNL     1      60.440  63.049  69.695  0.00  0.00    +0.000 A 
ENDROOT
TORSDOF 0
ENDMDL
MODEL 5
REMARK VINA RESULT:    -7.605      4.961      6.894
REMARK INTER + INTRA:          -7.605
REMARK INTER:                  -7.605
REMARK INTRA:                   0.000
REMARK UNBOUND:                 0.000
ROOT
REMARK  Name = brimonidine
REMARK                            x       y       z     vdW  Elec       q    Type
REMARK                         _______ _______ _______ _____ _____    ______ ____
ATOM      1 BR   UNL     1      59.836  64.233  71.522  0.00  0.00    +0.000 Br
ATOM      2  C   UNL     1      60.408  63.738  71.853  0.00  0.00    +0.000 A 
ATOM      3  C   UNL     1      60.778  63.950  72.558  0.00  0.00    +0.000 A 
ATOM      4  N   UNL     1      60.578  64.658  72.933  0.00  0.00    +0.000 NA
ATOM      5  C   UNL     1      60.006  65.152  72.602  0.00  0.00    +0.000 C 
ATOM      6  N   UNL     1      59.591  65.014  71.903  0.00  0.00    +0.000 NA
ATOM      7  C   UNL     1      59.078  65.648  71.782  0.00  0.00    +0.000 C 
ATOM      8  C   UNL     1      59.176  66.178  72.405  0.00  0.00    +0.000 C 
ATOM      9  N   UNL     1      59.750  65.872  72.912  0.00  0.00    +0.000 NA
ATOM     10  C   UNL     1      61.350  63.455  72.889  0.00  0.00    +0.000 A 
ATOM     11  C   UNL     1      61.551  62.749  72.514  0.00  0.00    +0.000 A 
ATOM     12  C   UNL     1      61.180  62.536  71.809  0.00  0.00    +0.000 A 
ATOM     13  N   UNL     1      61.381  61.829  71.434  0.00  0.00    +0.000 NA
ATOM     14  C   UNL     1      61.010  61.617  70.729  0.00  0.00    +0.000 A 
ATOM     15  C   UNL     1      60.438  62.112  70.397  0.00  0.00    +0.000 A 
ATOM     16  N   UNL     1      60.238  62.818  70.772  0.00  0.00    +0.000 NA
ATOM     17  C   UNL     1      60.608  63.032  71.478  0.00  0.00    +0.000 A 
ENDROOT
TORSDOF 0
ENDMDL
MODEL 6
REMARK VINA RESULT:    -7.440      5.142      7.054
REMARK INTER + INTRA:          -7.440
REMARK INTER:                  -7.440
REMARK INTRA:                   0.000
REMARK UNBOUND:                 0.000
ROOT
REMARK  Name = brimonidine
REMARK                            x       y       z     vdW  Elec       q    Type
REMARK                         _______ _______ _______ _____ _____    ______ ____
ATOM      1 BR   UNL     1      64.514  66.037  70.055  0.00  0.00    +0.000 Br
ATOM      2  C   UNL     1      63.945  65.817  70.611  0.00  0.00    +0.000 A 
ATOM      3  C   UNL     1      63.918  66.194  71.344  0.00  0.00    +0.000 A 
ATOM      4  N   UNL     1      64.459  66.790  71.522  0.00  0.00    +0.000 NA
ATOM      5  C   UNL     1      65.028  67.010  70.967  0.00  0.00    +0.000 C 
ATOM      6  N   UNL     1      65.123  66.685  70.215  0.00  0.00    +0.000 NA
ATOM      7  C   UNL     1      65.755  67.068  69.849  0.00  0.00    +0.000 C 
ATOM      8  C   UNL     1      66.051  67.629  70.375  0.00  0.00    +0.000 C 
ATOM      9  N   UNL     1      65.602  67.594  71.065  0.00  0.00    +0.000 NA
ATOM     10  C   UNL     1      63.348  65.974  71.900  0.00  0.00    +0.000 A 
ATOM     11  C   UNL     1      62.808  65.377  71.722  0.00  0.00    +0.000 A 
ATOM     12  C   UNL     1      62.835  65.001  70.989  0.00  0.00    +0.000 A 
ATOM     13  N   UNL     1      62.293  64.404  70.811  0.00  0.00    +0.000 NA
ATOM     14  C   UNL     1      62.321  64.028  70.078  0.00  0.00    +0.000 A 
ATOM     15  C   UNL     1      62.890  64.248  69.521  0.00  0.00    +0.000 A 
ATOM     16  N   UNL     1      63.431  64.844  69.699  0.00  0.00    +0.000 NA
ATOM     17  C   UNL     1      63.404  65.221  70.433  0.00  0.00    +0.000 A 
ENDROOT
TORSDOF 0
ENDMDL
MODEL 7
REMARK VINA RESULT:    -7.432     24.723     25.810
REMARK INTER + INTRA:          -7.432
REMARK INTER:                  -7.432
REMARK INTRA:                   0.000
REMARK UNBOUND:                 0.000
ROOT
REMARK  Name = brimonidine
REMARK                            x       y       z     vdW  Elec       q    Type
REMARK                         _______ _______ _______ _____ _____    ______ ____
ATOM      1 BR   UNL     1      70.853  80.322  50.452  0.00  0.00    +0.000 Br
ATOM      2  C   UNL     1      70.907  79.670  49.950  0.00  0.00    +0.000 A 
ATOM      3  C   UNL     1      70.287  79.127  49.911  0.00  0.00    +0.000 A 
ATOM      4  N   UNL     1      69.613  79.236  50.375  0.00  0.00    +0.000 NA
ATOM      5  C   UNL     1      69.560  79.888  50.877  0.00  0.00    +0.000 C 
ATOM      6  N   UNL     1      70.132  80.474  50.974  0.00  0.00    +0.000 NA
ATOM      7  C   UNL     1      69.850  81.017  51.527  0.00  0.00    +0.000 C 
ATOM      8  C   UNL     1      69.104  80.767  51.772  0.00  0.00    +0.000 C 
ATOM      9  N   UNL     1      68.924  80.069  51.371  0.00  0.00    +0.000 NA
ATOM     10  C   UNL     1      70.341  78.474  49.408  0.00  0.00    +0.000 A 
ATOM     11  C   UNL     1      71.014  78.365  48.945  0.00  0.00    +0.000 A 
ATOM     12  C   UNL     1      71.634  78.908  48.984  0.00  0.00    +0.000 A 
ATOM     13  N   UNL     1      72.308  78.799  48.521  0.00  0.00    +0.000 NA
ATOM     14  C   UNL     1      72.928  79.342  48.559  0.00  0.00    +0.000 A 
ATOM     15  C   UNL     1      72.874  79.995  49.062  0.00  0.00    +0.000 A 
ATOM     16  N   UNL     1      72.201  80.104  49.525  0.00  0.00    +0.000 NA
ATOM     17  C   UNL     1      71.580  79.561  49.487  0.00  0.00    +0.000 A 
ENDROOT
TORSDOF 0
ENDMDL
MODEL 8
REMARK VINA RESULT:    -7.361      4.224      5.991
REMARK INTER + INTRA:          -7.361
REMARK INTER:                  -7.361
REMARK INTRA:                   0.000
REMARK UNBOUND:                 0.000
ROOT
REMARK  Name = brimonidine
REMARK                            x       y       z     vdW  Elec       q    Type
REMARK                         _______ _______ _______ _____ _____    ______ ____
ATOM      1 BR   UNL     1      62.197  64.316  70.464  0.00  0.00    +0.000 Br
ATOM      2  C   UNL     1      61.837  63.816  71.013  0.00  0.00    +0.000 A 
ATOM      3  C   UNL     1      61.934  63.952  71.820  0.00  0.00    +0.000 A 
ATOM      4  N   UNL     1      62.392  64.587  72.080  0.00  0.00    +0.000 NA
ATOM      5  C   UNL     1      62.753  65.087  71.532  0.00  0.00    +0.000 C 
ATOM      6  N   UNL     1      62.706  65.021  70.711  0.00  0.00    +0.000 NA
ATOM      7  C   UNL     1      63.148  65.633  70.380  0.00  0.00    +0.000 C 
ATOM      8  C   UNL     1      63.468  66.078  70.996  0.00  0.00    +0.000 C 
ATOM      9  N   UNL     1      63.224  65.740  71.707  0.00  0.00    +0.000 NA
ATOM     10  C   UNL     1      61.573  63.452  72.369  0.00  0.00    +0.000 A 
ATOM     11  C   UNL     1      61.115  62.817  72.110  0.00  0.00    +0.000 A 
ATOM     12  C   UNL     1      61.018  62.682  71.302  0.00  0.00    +0.000 A 
ATOM     13  N   UNL     1      60.560  62.046  71.042  0.00  0.00    +0.000 NA
ATOM     14  C   UNL     1      60.462  61.911  70.235  0.00  0.00    +0.000 A 
ATOM     15  C   UNL     1      60.824  62.411  69.686  0.00  0.00    +0.000 A 
ATOM     16  N   UNL     1      61.281  63.045  69.945  0.00  0.00    +0.000 NA
ATOM     17  C   UNL     1      61.379  63.182  70.753  0.00  0.00    +0.000 A 
ENDROOT
TORSDOF 0
ENDMDL
MODEL 9
REMARK VINA RESULT:    -7.359      5.443      6.771
REMARK INTER + INTRA:          -7.359
REMARK INTER:                  -7.359
REMARK INTRA:                   0.000
REMARK UNBOUND:                 0.000
ROOT
REMARK  Name = brimonidine
REMARK                            x       y       z     vdW  Elec       q    Type
REMARK                         _______ _______ _______ _____ _____    ______ ____
ATOM      1 BR   UNL     1      63.236  65.248  71.378  0.00  0.00    +0.000 Br
ATOM      2  C   UNL     1      63.790  65.401  70.786  0.00  0.00    +0.000 A 
ATOM      3  C   UNL     1      63.805  64.936  70.105  0.00  0.00    +0.000 A 
ATOM      4  N   UNL     1      63.266  64.318  70.015  0.00  0.00    +0.000 NA
ATOM      5  C   UNL     1      62.711  64.165  70.606  0.00  0.00    +0.000 C 
ATOM      6  N   UNL     1      62.631  64.580  71.314  0.00  0.00    +0.000 NA
ATOM      7  C   UNL     1      62.010  64.242  71.739  0.00  0.00    +0.000 C 
ATOM      8  C   UNL     1      61.708  63.617  71.294  0.00  0.00    +0.000 C 
ATOM      9  N   UNL     1      62.141  63.570  70.594  0.00  0.00    +0.000 NA
ATOM     10  C   UNL     1      64.360  65.090  69.513  0.00  0.00    +0.000 A 
ATOM     11  C   UNL     1      64.898  65.707  69.603  0.00  0.00    +0.000 A 
ATOM     12  C   UNL     1      64.884  66.171  70.283  0.00  0.00    +0.000 A 
ATOM     13  N   UNL     1      65.423  66.789  70.374  0.00  0.00    +0.000 NA
ATOM     14  C   UNL     1      65.409  67.254  71.055  0.00  0.00    +0.000 A 
ATOM     15  C   UNL     1      64.854  67.100  71.647  0.00  0.00    +0.000 A 
ATOM     16  N   UNL     1      64.315  66.483  71.557  0.00  0.00    +0.000 NA
ATOM     17  C   UNL     1      64.329  66.018  70.876  0.00  0.00    +0.000 A 
ENDROOT
TORSDOF 0
ENDMDL
