MODEL 1
REMARK VINA RESULT:    -3.339      0.000      0.000
REMARK INTER + INTRA:          -3.339
REMARK INTER:                  -3.339
REMARK INTRA:                   0.000
REMARK UNBOUND:                 0.000
ROOT
REMARK  Name = bromoform
REMARK                            x       y       z     vdW  Elec       q    Type
REMARK                         _______ _______ _______ _____ _____    ______ ____
ATOM      1 BR   UNL     1      67.013  78.133  59.755  0.00  0.00    +0.000 Br
ATOM      2  C   UNL     1      66.233  77.865  59.712  0.00  0.00    +0.000 C 
ATOM      3 BR   UNL     1      66.027  77.140  60.048  0.00  0.00    +0.000 Br
ATOM      4 BR   UNL     1      65.660  78.322  59.333  0.00  0.00    +0.000 Br
ENDROOT
TORSDOF 0
ENDMDL
MODEL 2
REMARK VINA RESULT:    -3.140     17.138     17.621
REMARK INTER + INTRA:          -3.140
REMARK INTER:                  -3.140
REMARK INTRA:                   0.000
REMARK UNBOUND:                 0.000
ROOT
REMARK  Name = bromoform
REMARK                            x       y       z     vdW  Elec       q    Type
REMARK                         _______ _______ _______ _____ _____    ______ ____
ATOM      1 BR   UNL     1      61.065  61.330  64.582  0.00  0.00    +0.000 Br
ATOM      2  C   UNL     1      61.762  61.659  64.878  0.00  0.00    +0.000 C 
ATOM      3 BR   UNL     1      61.930  61.613  65.685  0.00  0.00    +0.000 Br
ATOM      4 BR   UNL     1      62.290  62.035  64.367  0.00  0.00    +0.000 Br
ENDROOT
TORSDOF 0
ENDMDL
MODEL 3
REMARK VINA RESULT:    -2.847     14.729     15.224
REMARK INTER + INTRA:          -2.847
REMARK INTER:                  -2.847
REMARK INTRA:                   0.000
REMARK UNBOUND:                 0.000
ROOT
REMARK  Name = bromoform
REMARK                            x       y       z     vdW  Elec       q    Type
REMARK                         _______ _______ _______ _____ _____    ______ ____
ATOM      1 BR   UNL     1      66.155  67.621  70.033  0.00  0.00    +0.000 Br
ATOM      2  C   UNL     1      65.665  67.081  70.420  0.00  0.00    +0.000 C 
ATOM      3 BR   UNL     1      65.704  67.002  71.241  0.00  0.00    +0.000 Br
ATOM      4 BR   UNL     1      65.136  66.619  69.986  0.00  0.00    +0.000 Br
ENDROOT
TORSDOF 0
ENDMDL
MODEL 4
REMARK VINA RESULT:    -2.561     19.427     19.817
REMARK INTER + INTRA:          -2.561
REMARK INTER:                  -2.561
REMARK INTRA:                   0.000
REMARK UNBOUND:                 0.000
ROOT
REMARK  Name = bromoform
REMARK                            x       y       z     vdW  Elec       q    Type
REMARK                         _______ _______ _______ _____ _____    ______ ____
ATOM      1 BR   UNL     1      60.479  63.486  71.958  0.00  0.00    +0.000 Br
ATOM      2  C   UNL     1      61.193  63.513  72.373  0.00  0.00    +0.000 C 
ATOM      3 BR   UNL     1      61.549  62.813  72.628  0.00  0.00    +0.000 Br
ATOM      4 BR   UNL     1      61.550  64.240  72.533  0.00  0.00    +0.000 Br
ENDROOT
TORSDOF 0
ENDMDL
MODEL 5
REMARK VINA RESULT:    -2.539     11.527     11.742
REMARK INTER + INTRA:          -2.539
REMARK INTER:                  -2.539
REMARK INTRA:                   0.000
REMARK UNBOUND:                 0.000
ROOT
REMARK  Name = bromoform
REMARK                            x       y       z     vdW  Elec       q    Type
REMARK                         _______ _______ _______ _____ _____    ______ ____
ATOM      1 BR   UNL     1      71.572  79.484  49.316  0.00  0.00    +0.000 Br
ATOM      2  C   UNL     1      71.003  78.940  49.069  0.00  0.00    +0.000 C 
ATOM      3 BR   UNL     1      71.062  78.591  48.323  0.00  0.00    +0.000 Br
ATOM      4 BR   UNL     1      70.376  78.744  49.568  0.00  0.00    +0.000 Br
ENDROOT
TORSDOF 0
ENDMDL
MODEL 6
REMARK VINA RESULT:    -2.379     14.961     15.236
REMARK INTER + INTRA:          -2.379
REMARK INTER:                  -2.379
REMARK INTRA:                   0.000
REMARK UNBOUND:                 0.000
ROOT
REMARK  Name = bromoform
REMARK                            x       y       z     vdW  Elec       q    Type
REMARK                         _______ _______ _______ _____ _____    ______ ____
ATOM      1 BR   UNL     1      77.075  68.565  56.766  0.00  0.00    +0.000 Br
ATOM      2  C   UNL     1      77.165  67.772  56.555  0.00  0.00    +0.000 C 
ATOM      3 BR   UNL     1      77.919  67.440  56.510  0.00  0.00    +0.000 Br
ATOM      4 BR   UNL     1      76.501  67.312  56.389  0.00  0.00    +0.000 Br
ENDROOT
TORSDOF 0
ENDMDL
MODEL 7
REMARK VINA RESULT:    -2.337     15.456     15.768
REMARK INTER + INTRA:          -2.337
REMARK INTER:                  -2.337
REMARK INTRA:                   0.000
REMARK UNBOUND:                 0.000
ROOT
REMARK  Name = bromoform
REMARK                            x       y       z     vdW  Elec       q    Type
REMARK                         _______ _______ _______ _____ _____    ______ ____
ATOM      1 BR   UNL     1      64.971  66.440  69.869  0.00  0.00    +0.000 Br
ATOM      2  C   UNL     1      64.370  65.886  69.748  0.00  0.00    +0.000 C 
ATOM      3 BR   UNL     1      63.584  66.134  69.701  0.00  0.00    +0.000 Br
ATOM      4 BR   UNL     1      64.556  65.086  69.673  0.00  0.00    +0.000 Br
ENDROOT
TORSDOF 0
ENDMDL
MODEL 8
REMARK VINA RESULT:    -2.206     10.989     11.342
REMARK INTER + INTRA:          -2.206
REMARK INTER:                  -2.206
REMARK INTRA:                   0.000
REMARK UNBOUND:                 0.000
ROOT
REMARK  Name = bromoform
REMARK                            x       y       z     vdW  Elec       q    Type
REMARK                         _______ _______ _______ _____ _____    ______ ____
ATOM      1 BR   UNL     1      63.626  76.614  48.225  0.00  0.00    +0.000 Br
ATOM      2  C   UNL     1      63.166  76.809  48.882  0.00  0.00    +0.000 C 
ATOM      3 BR   UNL     1      62.373  76.582  48.912  0.00  0.00    +0.000 Br
ATOM      4 BR   UNL     1      63.498  77.230  49.509  0.00  0.00    +0.000 Br
ENDROOT
TORSDOF 0
ENDMDL
MODEL 9
REMARK VINA RESULT:    -2.151     23.826     24.113
REMARK INTER + INTRA:          -2.151
REMARK INTER:                  -2.151
REMARK INTRA:                   0.000
REMARK UNBOUND:                 0.000
ROOT
REMARK  Name = bromoform
REMARK                            x       y       z     vdW  Elec       q    Type
REMARK                         _______ _______ _______ _____ _____    ______ ____
ATOM      1 BR   UNL     1      77.395  57.556  66.507  0.00  0.00    +0.000 Br
ATOM      2  C   UNL     1      77.127  57.753  67.263  0.00  0.00    +0.000 C 
ATOM      3 BR   UNL     1      77.365  58.463  67.613  0.00  0.00    +0.000 Br
ATOM      4 BR   UNL     1      76.624  57.241  67.669  0.00  0.00    +0.000 Br
ENDROOT
TORSDOF 0
ENDMDL
