MODEL 1
REMARK VINA RESULT:   -11.420      0.000      0.000
REMARK INTER + INTRA:         -11.420
REMARK INTER:                 -11.420
REMARK INTRA:                   0.000
REMARK UNBOUND:                 0.000
ROOT
REMARK  Name = bromazine
REMARK                            x       y       z     vdW  Elec       q    Type
REMARK                         _______ _______ _______ _____ _____    ______ ____
ATOM      1  C   UNL     1      62.125  64.125  69.390  0.00  0.00    +0.000 C 
ATOM      2  N   UNL     1      61.637  63.753  68.839  0.00  0.00    +0.000 NA
ATOM      3  C   UNL     1      60.840  63.635  69.008  0.00  0.00    +0.000 C 
ATOM      4  C   UNL     1      61.949  63.500  68.118  0.00  0.00    +0.000 C 
ATOM      5  C   UNL     1      61.461  63.128  67.566  0.00  0.00    +0.000 C 
ATOM      6  O   UNL     1      61.773  62.874  66.845  0.00  0.00    +0.000 OA
ATOM      7  C   UNL     1      61.285  62.503  66.293  0.00  0.00    +0.000 C 
ATOM      8  C   UNL     1      60.487  62.384  66.462  0.00  0.00    +0.000 A 
ATOM      9  C   UNL     1      60.175  62.637  67.183  0.00  0.00    +0.000 A 
ATOM     10  C   UNL     1      59.377  62.519  67.351  0.00  0.00    +0.000 A 
ATOM     11  C   UNL     1      58.890  62.147  66.800  0.00  0.00    +0.000 A 
ATOM     12  C   UNL     1      59.200  61.893  66.079  0.00  0.00    +0.000 A 
ATOM     13  C   UNL     1      59.999  62.012  65.910  0.00  0.00    +0.000 A 
ATOM     14  C   UNL     1      61.597  62.249  65.572  0.00  0.00    +0.000 A 
ATOM     15  C   UNL     1      61.109  61.877  65.021  0.00  0.00    +0.000 A 
ATOM     16  C   UNL     1      61.420  61.624  64.299  0.00  0.00    +0.000 A 
ATOM     17  C   UNL     1      62.219  61.742  64.130  0.00  0.00    +0.000 A 
ATOM     18 BR   UNL     1      62.530  61.489  63.410  0.00  0.00    +0.000 Br
ATOM     19  C   UNL     1      62.706  62.114  64.683  0.00  0.00    +0.000 A 
ATOM     20  C   UNL     1      62.395  62.368  65.403  0.00  0.00    +0.000 A 
ENDROOT
TORSDOF 0
ENDMDL
MODEL 2
REMARK VINA RESULT:   -10.409      1.964      3.257
REMARK INTER + INTRA:         -10.409
REMARK INTER:                 -10.409
REMARK INTRA:                   0.000
REMARK UNBOUND:                 0.000
ROOT
REMARK  Name = bromazine
REMARK                            x       y       z     vdW  Elec       q    Type
REMARK                         _______ _______ _______ _____ _____    ______ ____
ATOM      1  C   UNL     1      63.474  65.356  70.487  0.00  0.00    +0.000 C 
ATOM      2  N   UNL     1      62.944  64.725  70.465  0.00  0.00    +0.000 NA
ATOM      3  C   UNL     1      62.761  64.315  71.155  0.00  0.00    +0.000 C 
ATOM      4  C   UNL     1      62.596  64.504  69.749  0.00  0.00    +0.000 C 
ATOM      5  C   UNL     1      62.065  63.873  69.726  0.00  0.00    +0.000 C 
ATOM      6  O   UNL     1      61.718  63.652  69.011  0.00  0.00    +0.000 OA
ATOM      7  C   UNL     1      61.187  63.021  68.988  0.00  0.00    +0.000 C 
ATOM      8  C   UNL     1      61.004  62.611  69.679  0.00  0.00    +0.000 A 
ATOM      9  C   UNL     1      61.351  62.831  70.394  0.00  0.00    +0.000 A 
ATOM     10  C   UNL     1      61.168  62.421  71.086  0.00  0.00    +0.000 A 
ATOM     11  C   UNL     1      60.638  61.790  71.062  0.00  0.00    +0.000 A 
ATOM     12  C   UNL     1      60.290  61.569  70.347  0.00  0.00    +0.000 A 
ATOM     13  C   UNL     1      60.473  61.979  69.656  0.00  0.00    +0.000 A 
ATOM     14  C   UNL     1      60.839  62.801  68.272  0.00  0.00    +0.000 A 
ATOM     15  C   UNL     1      60.309  62.169  68.250  0.00  0.00    +0.000 A 
ATOM     16  C   UNL     1      59.961  61.949  67.534  0.00  0.00    +0.000 A 
ATOM     17  C   UNL     1      60.144  62.359  66.842  0.00  0.00    +0.000 A 
ATOM     18 BR   UNL     1      59.797  62.139  66.128  0.00  0.00    +0.000 Br
ATOM     19  C   UNL     1      60.675  62.991  66.866  0.00  0.00    +0.000 A 
ATOM     20  C   UNL     1      61.023  63.211  67.581  0.00  0.00    +0.000 A 
ENDROOT
TORSDOF 0
ENDMDL
MODEL 3
REMARK VINA RESULT:   -10.101      3.176      4.958
REMARK INTER + INTRA:         -10.101
REMARK INTER:                 -10.101
REMARK INTRA:                   0.000
REMARK UNBOUND:                 0.000
ROOT
REMARK  Name = bromazine
REMARK                            x       y       z     vdW  Elec       q    Type
REMARK                         _______ _______ _______ _____ _____    ______ ____
ATOM      1  C   UNL     1      59.368  66.358  72.491  0.00  0.00    +0.000 C 
ATOM      2  N   UNL     1      59.741  65.630  72.386  0.00  0.00    +0.000 NA
ATOM      3  C   UNL     1      60.111  65.260  73.023  0.00  0.00    +0.000 C 
ATOM      4  C   UNL     1      59.743  65.270  71.643  0.00  0.00    +0.000 C 
ATOM      5  C   UNL     1      60.115  64.542  71.538  0.00  0.00    +0.000 C 
ATOM      6  O   UNL     1      60.117  64.183  70.795  0.00  0.00    +0.000 OA
ATOM      7  C   UNL     1      60.490  63.454  70.690  0.00  0.00    +0.000 C 
ATOM      8  C   UNL     1      60.860  63.085  71.327  0.00  0.00    +0.000 A 
ATOM      9  C   UNL     1      60.858  63.444  72.070  0.00  0.00    +0.000 A 
ATOM     10  C   UNL     1      61.229  63.074  72.708  0.00  0.00    +0.000 A 
ATOM     11  C   UNL     1      61.601  62.346  72.603  0.00  0.00    +0.000 A 
ATOM     12  C   UNL     1      61.603  61.986  71.860  0.00  0.00    +0.000 A 
ATOM     13  C   UNL     1      61.233  62.356  71.222  0.00  0.00    +0.000 A 
ATOM     14  C   UNL     1      60.492  63.095  69.947  0.00  0.00    +0.000 A 
ATOM     15  C   UNL     1      60.864  62.367  69.842  0.00  0.00    +0.000 A 
ATOM     16  C   UNL     1      60.866  62.008  69.099  0.00  0.00    +0.000 A 
ATOM     17  C   UNL     1      60.496  62.377  68.461  0.00  0.00    +0.000 A 
ATOM     18 BR   UNL     1      60.498  62.018  67.719  0.00  0.00    +0.000 Br
ATOM     19  C   UNL     1      60.123  63.106  68.567  0.00  0.00    +0.000 A 
ATOM     20  C   UNL     1      60.121  63.465  69.309  0.00  0.00    +0.000 A 
ENDROOT
TORSDOF 0
ENDMDL
MODEL 4
REMARK VINA RESULT:    -9.954      3.239      5.595
REMARK INTER + INTRA:          -9.954
REMARK INTER:                  -9.954
REMARK INTRA:                   0.000
REMARK UNBOUND:                 0.000
ROOT
REMARK  Name = bromazine
REMARK                            x       y       z     vdW  Elec       q    Type
REMARK                         _______ _______ _______ _____ _____    ______ ____
ATOM      1  C   UNL     1      60.503  62.004  68.168  0.00  0.00    +0.000 C 
ATOM      2  N   UNL     1      60.720  62.293  68.910  0.00  0.00    +0.000 NA
ATOM      3  C   UNL     1      60.375  61.983  69.590  0.00  0.00    +0.000 C 
ATOM      4  C   UNL     1      61.283  62.894  68.970  0.00  0.00    +0.000 C 
ATOM      5  C   UNL     1      61.500  63.183  69.711  0.00  0.00    +0.000 C 
ATOM      6  O   UNL     1      62.063  63.784  69.771  0.00  0.00    +0.000 OA
ATOM      7  C   UNL     1      62.280  64.072  70.513  0.00  0.00    +0.000 C 
ATOM      8  C   UNL     1      61.935  63.762  71.193  0.00  0.00    +0.000 A 
ATOM      9  C   UNL     1      61.372  63.162  71.134  0.00  0.00    +0.000 A 
ATOM     10  C   UNL     1      61.027  62.851  71.816  0.00  0.00    +0.000 A 
ATOM     11  C   UNL     1      61.244  63.140  72.556  0.00  0.00    +0.000 A 
ATOM     12  C   UNL     1      61.806  63.740  72.617  0.00  0.00    +0.000 A 
ATOM     13  C   UNL     1      62.152  64.051  71.936  0.00  0.00    +0.000 A 
ATOM     14  C   UNL     1      62.843  64.673  70.573  0.00  0.00    +0.000 A 
ATOM     15  C   UNL     1      63.060  64.962  71.314  0.00  0.00    +0.000 A 
ATOM     16  C   UNL     1      63.623  65.563  71.374  0.00  0.00    +0.000 A 
ATOM     17  C   UNL     1      63.969  65.874  70.693  0.00  0.00    +0.000 A 
ATOM     18 BR   UNL     1      64.531  66.474  70.753  0.00  0.00    +0.000 Br
ATOM     19  C   UNL     1      63.751  65.584  69.951  0.00  0.00    +0.000 A 
ATOM     20  C   UNL     1      63.189  64.984  69.891  0.00  0.00    +0.000 A 
ENDROOT
TORSDOF 0
ENDMDL
MODEL 5
REMARK VINA RESULT:    -9.254      5.363      6.528
REMARK INTER + INTRA:          -9.254
REMARK INTER:                  -9.254
REMARK INTRA:                   0.000
REMARK UNBOUND:                 0.000
ROOT
REMARK  Name = bromazine
REMARK                            x       y       z     vdW  Elec       q    Type
REMARK                         _______ _______ _______ _____ _____    ______ ____
ATOM      1  C   UNL     1      63.270  67.600  72.466  0.00  0.00    +0.000 C 
ATOM      2  N   UNL     1      62.573  67.165  72.546  0.00  0.00    +0.000 NA
ATOM      3  C   UNL     1      61.914  67.505  72.906  0.00  0.00    +0.000 C 
ATOM      4  C   UNL     1      62.536  66.390  72.264  0.00  0.00    +0.000 C 
ATOM      5  C   UNL     1      61.839  65.956  72.343  0.00  0.00    +0.000 C 
ATOM      6  O   UNL     1      61.803  65.180  72.062  0.00  0.00    +0.000 OA
ATOM      7  C   UNL     1      61.106  64.746  72.141  0.00  0.00    +0.000 C 
ATOM      8  C   UNL     1      60.447  65.085  72.501  0.00  0.00    +0.000 A 
ATOM      9  C   UNL     1      60.483  65.860  72.783  0.00  0.00    +0.000 A 
ATOM     10  C   UNL     1      59.824  66.199  73.143  0.00  0.00    +0.000 A 
ATOM     11  C   UNL     1      59.128  65.765  73.222  0.00  0.00    +0.000 A 
ATOM     12  C   UNL     1      59.090  64.990  72.941  0.00  0.00    +0.000 A 
ATOM     13  C   UNL     1      59.750  64.650  72.580  0.00  0.00    +0.000 A 
ATOM     14  C   UNL     1      61.069  63.971  71.859  0.00  0.00    +0.000 A 
ATOM     15  C   UNL     1      60.373  63.536  71.939  0.00  0.00    +0.000 A 
ATOM     16  C   UNL     1      60.336  62.761  71.657  0.00  0.00    +0.000 A 
ATOM     17  C   UNL     1      60.996  62.421  71.296  0.00  0.00    +0.000 A 
ATOM     18 BR   UNL     1      60.959  61.647  71.015  0.00  0.00    +0.000 Br
ATOM     19  C   UNL     1      61.692  62.857  71.217  0.00  0.00    +0.000 A 
ATOM     20  C   UNL     1      61.729  63.631  71.499  0.00  0.00    +0.000 A 
ENDROOT
TORSDOF 0
ENDMDL
MODEL 6
REMARK VINA RESULT:    -9.172      4.629      6.020
REMARK INTER + INTRA:          -9.172
REMARK INTER:                  -9.172
REMARK INTRA:                   0.000
REMARK UNBOUND:                 0.000
ROOT
REMARK  Name = bromazine
REMARK                            x       y       z     vdW  Elec       q    Type
REMARK                         _______ _______ _______ _____ _____    ______ ____
ATOM      1  C   UNL     1      64.975  65.996  69.518  0.00  0.00    +0.000 C 
ATOM      2  N   UNL     1      64.394  65.873  70.090  0.00  0.00    +0.000 NA
ATOM      3  C   UNL     1      64.308  66.406  70.713  0.00  0.00    +0.000 C 
ATOM      4  C   UNL     1      63.898  65.215  70.040  0.00  0.00    +0.000 C 
ATOM      5  C   UNL     1      63.317  65.092  70.612  0.00  0.00    +0.000 C 
ATOM      6  O   UNL     1      62.821  64.433  70.561  0.00  0.00    +0.000 OA
ATOM      7  C   UNL     1      62.241  64.310  71.134  0.00  0.00    +0.000 C 
ATOM      8  C   UNL     1      62.155  64.844  71.756  0.00  0.00    +0.000 A 
ATOM      9  C   UNL     1      62.650  65.501  71.807  0.00  0.00    +0.000 A 
ATOM     10  C   UNL     1      62.564  66.035  72.430  0.00  0.00    +0.000 A 
ATOM     11  C   UNL     1      61.984  65.912  73.002  0.00  0.00    +0.000 A 
ATOM     12  C   UNL     1      61.488  65.254  72.952  0.00  0.00    +0.000 A 
ATOM     13  C   UNL     1      61.573  64.720  72.329  0.00  0.00    +0.000 A 
ATOM     14  C   UNL     1      61.745  63.652  71.083  0.00  0.00    +0.000 A 
ATOM     15  C   UNL     1      61.164  63.529  71.656  0.00  0.00    +0.000 A 
ATOM     16  C   UNL     1      60.668  62.870  71.605  0.00  0.00    +0.000 A 
ATOM     17  C   UNL     1      60.754  62.336  70.982  0.00  0.00    +0.000 A 
ATOM     18 BR   UNL     1      60.259  61.679  70.932  0.00  0.00    +0.000 Br
ATOM     19  C   UNL     1      61.335  62.461  70.410  0.00  0.00    +0.000 A 
ATOM     20  C   UNL     1      61.830  63.118  70.460  0.00  0.00    +0.000 A 
ENDROOT
TORSDOF 0
ENDMDL
MODEL 7
REMARK VINA RESULT:    -9.115      5.153      6.361
REMARK INTER + INTRA:          -9.115
REMARK INTER:                  -9.115
REMARK INTRA:                   0.000
REMARK UNBOUND:                 0.000
ROOT
REMARK  Name = bromazine
REMARK                            x       y       z     vdW  Elec       q    Type
REMARK                         _______ _______ _______ _____ _____    ______ ____
ATOM      1  C   UNL     1      59.114  67.226  73.222  0.00  0.00    +0.000 C 
ATOM      2  N   UNL     1      59.774  66.841  72.913  0.00  0.00    +0.000 NA
ATOM      3  C   UNL     1      60.495  67.237  72.859  0.00  0.00    +0.000 C 
ATOM      4  C   UNL     1      59.713  66.058  72.658  0.00  0.00    +0.000 C 
ATOM      5  C   UNL     1      60.374  65.673  72.348  0.00  0.00    +0.000 C 
ATOM      6  O   UNL     1      60.313  64.891  72.093  0.00  0.00    +0.000 OA
ATOM      7  C   UNL     1      60.973  64.506  71.783  0.00  0.00    +0.000 C 
ATOM      8  C   UNL     1      61.694  64.902  71.729  0.00  0.00    +0.000 A 
ATOM      9  C   UNL     1      61.756  65.684  71.985  0.00  0.00    +0.000 A 
ATOM     10  C   UNL     1      62.477  66.080  71.931  0.00  0.00    +0.000 A 
ATOM     11  C   UNL     1      63.137  65.695  71.622  0.00  0.00    +0.000 A 
ATOM     12  C   UNL     1      63.077  64.912  71.366  0.00  0.00    +0.000 A 
ATOM     13  C   UNL     1      62.355  64.516  71.420  0.00  0.00    +0.000 A 
ATOM     14  C   UNL     1      60.912  63.723  71.528  0.00  0.00    +0.000 A 
ATOM     15  C   UNL     1      61.573  63.338  71.218  0.00  0.00    +0.000 A 
ATOM     16  C   UNL     1      61.512  62.555  70.963  0.00  0.00    +0.000 A 
ATOM     17  C   UNL     1      60.790  62.159  71.017  0.00  0.00    +0.000 A 
ATOM     18 BR   UNL     1      60.729  61.377  70.761  0.00  0.00    +0.000 Br
ATOM     19  C   UNL     1      60.130  62.545  71.326  0.00  0.00    +0.000 A 
ATOM     20  C   UNL     1      60.191  63.326  71.582  0.00  0.00    +0.000 A 
ENDROOT
TORSDOF 0
ENDMDL
MODEL 8
REMARK VINA RESULT:    -8.839      5.650      7.166
REMARK INTER + INTRA:          -8.839
REMARK INTER:                  -8.839
REMARK INTRA:                   0.000
REMARK UNBOUND:                 0.000
ROOT
REMARK  Name = bromazine
REMARK                            x       y       z     vdW  Elec       q    Type
REMARK                         _______ _______ _______ _____ _____    ______ ____
ATOM      1  C   UNL     1      58.943  65.824  72.900  0.00  0.00    +0.000 C 
ATOM      2  N   UNL     1      59.682  66.182  72.829  0.00  0.00    +0.000 NA
ATOM      3  C   UNL     1      59.838  66.889  73.222  0.00  0.00    +0.000 C 
ATOM      4  C   UNL     1      60.267  65.831  72.363  0.00  0.00    +0.000 C 
ATOM      5  C   UNL     1      61.007  66.190  72.292  0.00  0.00    +0.000 C 
ATOM      6  O   UNL     1      61.591  65.839  71.826  0.00  0.00    +0.000 OA
ATOM      7  C   UNL     1      62.331  66.197  71.755  0.00  0.00    +0.000 C 
ATOM      8  C   UNL     1      62.486  66.904  72.149  0.00  0.00    +0.000 A 
ATOM      9  C   UNL     1      61.903  67.255  72.614  0.00  0.00    +0.000 A 
ATOM     10  C   UNL     1      62.058  67.963  73.008  0.00  0.00    +0.000 A 
ATOM     11  C   UNL     1      62.798  68.320  72.937  0.00  0.00    +0.000 A 
ATOM     12  C   UNL     1      63.383  67.970  72.472  0.00  0.00    +0.000 A 
ATOM     13  C   UNL     1      63.227  67.262  72.077  0.00  0.00    +0.000 A 
ATOM     14  C   UNL     1      62.916  65.847  71.289  0.00  0.00    +0.000 A 
ATOM     15  C   UNL     1      63.655  66.205  71.218  0.00  0.00    +0.000 A 
ATOM     16  C   UNL     1      64.240  65.854  70.752  0.00  0.00    +0.000 A 
ATOM     17  C   UNL     1      64.084  65.147  70.358  0.00  0.00    +0.000 A 
ATOM     18 BR   UNL     1      64.668  64.797  69.893  0.00  0.00    +0.000 Br
ATOM     19  C   UNL     1      63.344  64.789  70.430  0.00  0.00    +0.000 A 
ATOM     20  C   UNL     1      62.760  65.139  70.895  0.00  0.00    +0.000 A 
ENDROOT
TORSDOF 0
ENDMDL
MODEL 9
REMARK VINA RESULT:    -8.792      5.602      7.526
REMARK INTER + INTRA:          -8.792
REMARK INTER:                  -8.792
REMARK INTRA:                   0.000
REMARK UNBOUND:                 0.000
ROOT
REMARK  Name = bromazine
REMARK                            x       y       z     vdW  Elec       q    Type
REMARK                         _______ _______ _______ _____ _____    ______ ____
ATOM      1  C   UNL     1      61.076  61.637  71.052  0.00  0.00    +0.000 C 
ATOM      2  N   UNL     1      61.185  62.394  71.362  0.00  0.00    +0.000 NA
ATOM      3  C   UNL     1      61.946  62.692  71.464  0.00  0.00    +0.000 C 
ATOM      4  C   UNL     1      60.530  62.852  71.569  0.00  0.00    +0.000 C 
ATOM      5  C   UNL     1      60.639  63.609  71.878  0.00  0.00    +0.000 C 
ATOM      6  O   UNL     1      59.984  64.068  72.085  0.00  0.00    +0.000 OA
ATOM      7  C   UNL     1      60.093  64.825  72.395  0.00  0.00    +0.000 C 
ATOM      8  C   UNL     1      60.854  65.123  72.497  0.00  0.00    +0.000 A 
ATOM      9  C   UNL     1      61.509  64.665  72.290  0.00  0.00    +0.000 A 
ATOM     10  C   UNL     1      62.271  64.964  72.393  0.00  0.00    +0.000 A 
ATOM     11  C   UNL     1      62.379  65.721  72.702  0.00  0.00    +0.000 A 
ATOM     12  C   UNL     1      61.725  66.180  72.909  0.00  0.00    +0.000 A 
ATOM     13  C   UNL     1      60.963  65.881  72.807  0.00  0.00    +0.000 A 
ATOM     14  C   UNL     1      59.438  65.283  72.602  0.00  0.00    +0.000 A 
ATOM     15  C   UNL     1      59.547  66.040  72.911  0.00  0.00    +0.000 A 
ATOM     16  C   UNL     1      58.893  66.499  73.118  0.00  0.00    +0.000 A 
ATOM     17  C   UNL     1      58.130  66.200  73.015  0.00  0.00    +0.000 A 
ATOM     18 BR   UNL     1      57.477  66.658  73.222  0.00  0.00    +0.000 Br
ATOM     19  C   UNL     1      58.023  65.443  72.706  0.00  0.00    +0.000 A 
ATOM     20  C   UNL     1      58.676  64.985  72.499  0.00  0.00    +0.000 A 
ENDROOT
TORSDOF 0
ENDMDL
