MODEL 1
REMARK VINA RESULT:   -10.027      0.000      0.000
REMARK INTER + INTRA:         -10.027
REMARK INTER:                 -10.027
REMARK INTRA:                   0.000
REMARK UNBOUND:                 0.000
ROOT
REMARK  Name = bromochlorosalicylanilide
REMARK                            x       y       z     vdW  Elec       q    Type
REMARK                         _______ _______ _______ _____ _____    ______ ____
ATOM      1  O   UNL     1      60.208  61.670  67.506  0.00  0.00    +0.000 OA
ATOM      2  C   UNL     1      60.534  62.241  68.005  0.00  0.00    +0.000 A 
ATOM      3  C   UNL     1      61.164  62.705  67.744  0.00  0.00    +0.000 A 
ATOM      4  C   UNL     1      61.490  63.275  68.242  0.00  0.00    +0.000 A 
ATOM      5  C   UNL     1      61.187  63.383  69.001  0.00  0.00    +0.000 A 
ATOM      6 BR   UNL     1      61.513  63.954  69.499  0.00  0.00    +0.000 Br
ATOM      7  C   UNL     1      60.557  62.918  69.262  0.00  0.00    +0.000 A 
ATOM      8  C   UNL     1      60.231  62.348  68.764  0.00  0.00    +0.000 A 
ATOM      9  C   UNL     1      61.469  62.598  66.984  0.00  0.00    +0.000 C 
ATOM     10  O   UNL     1      62.099  63.062  66.723  0.00  0.00    +0.000 OA
ATOM     11  N   UNL     1      61.142  62.027  66.486  0.00  0.00    +0.000 NA
ATOM     12  C   UNL     1      61.446  61.920  65.727  0.00  0.00    +0.000 A 
ATOM     13  C   UNL     1      61.119  61.348  65.228  0.00  0.00    +0.000 A 
ATOM     14  C   UNL     1      61.424  61.242  64.468  0.00  0.00    +0.000 A 
ATOM     15  C   UNL     1      62.054  61.705  64.207  0.00  0.00    +0.000 A 
ATOM     16 CL   UNL     1      62.358  61.599  63.448  0.00  0.00    +0.000 Cl
ATOM     17  C   UNL     1      62.380  62.277  64.706  0.00  0.00    +0.000 A 
ATOM     18  C   UNL     1      62.076  62.384  65.465  0.00  0.00    +0.000 A 
ENDROOT
TORSDOF 0
ENDMDL
MODEL 2
REMARK VINA RESULT:    -9.798      2.300      4.163
REMARK INTER + INTRA:          -9.798
REMARK INTER:                  -9.798
REMARK INTRA:                   0.000
REMARK UNBOUND:                 0.000
ROOT
REMARK  Name = bromochlorosalicylanilide
REMARK                            x       y       z     vdW  Elec       q    Type
REMARK                         _______ _______ _______ _____ _____    ______ ____
ATOM      1  O   UNL     1      62.503  62.773  65.683  0.00  0.00    +0.000 OA
ATOM      2  C   UNL     1      62.095  62.270  65.172  0.00  0.00    +0.000 A 
ATOM      3  C   UNL     1      61.399  61.904  65.422  0.00  0.00    +0.000 A 
ATOM      4  C   UNL     1      60.991  61.402  64.912  0.00  0.00    +0.000 A 
ATOM      5  C   UNL     1      61.277  61.264  64.151  0.00  0.00    +0.000 A 
ATOM      6 BR   UNL     1      60.869  60.761  63.641  0.00  0.00    +0.000 Br
ATOM      7  C   UNL     1      61.973  61.629  63.901  0.00  0.00    +0.000 A 
ATOM      8  C   UNL     1      62.381  62.132  64.411  0.00  0.00    +0.000 A 
ATOM      9  C   UNL     1      61.111  62.042  66.184  0.00  0.00    +0.000 C 
ATOM     10  O   UNL     1      60.416  61.676  66.434  0.00  0.00    +0.000 OA
ATOM     11  N   UNL     1      61.520  62.545  66.694  0.00  0.00    +0.000 NA
ATOM     12  C   UNL     1      61.233  62.682  67.455  0.00  0.00    +0.000 A 
ATOM     13  C   UNL     1      61.642  63.186  67.966  0.00  0.00    +0.000 A 
ATOM     14  C   UNL     1      61.354  63.323  68.727  0.00  0.00    +0.000 A 
ATOM     15  C   UNL     1      60.659  62.958  68.978  0.00  0.00    +0.000 A 
ATOM     16 CL   UNL     1      60.371  63.095  69.739  0.00  0.00    +0.000 Cl
ATOM     17  C   UNL     1      60.250  62.455  68.466  0.00  0.00    +0.000 A 
ATOM     18  C   UNL     1      60.537  62.317  67.706  0.00  0.00    +0.000 A 
ENDROOT
TORSDOF 0
ENDMDL
MODEL 3
REMARK VINA RESULT:    -9.394      2.913      4.728
REMARK INTER + INTRA:          -9.394
REMARK INTER:                  -9.394
REMARK INTRA:                   0.000
REMARK UNBOUND:                 0.000
ROOT
REMARK  Name = bromochlorosalicylanilide
REMARK                            x       y       z     vdW  Elec       q    Type
REMARK                         _______ _______ _______ _____ _____    ______ ____
ATOM      1  O   UNL     1      61.854  63.438  68.137  0.00  0.00    +0.000 OA
ATOM      2  C   UNL     1      61.244  63.083  67.710  0.00  0.00    +0.000 A 
ATOM      3  C   UNL     1      60.651  62.666  68.105  0.00  0.00    +0.000 A 
ATOM      4  C   UNL     1      60.042  62.312  67.678  0.00  0.00    +0.000 A 
ATOM      5  C   UNL     1      60.024  62.373  66.856  0.00  0.00    +0.000 A 
ATOM      6 BR   UNL     1      59.414  62.017  66.429  0.00  0.00    +0.000 Br
ATOM      7  C   UNL     1      60.616  62.789  66.461  0.00  0.00    +0.000 A 
ATOM      8  C   UNL     1      61.225  63.144  66.888  0.00  0.00    +0.000 A 
ATOM      9  C   UNL     1      60.669  62.605  68.928  0.00  0.00    +0.000 C 
ATOM     10  O   UNL     1      60.077  62.189  69.323  0.00  0.00    +0.000 OA
ATOM     11  N   UNL     1      61.279  62.960  69.355  0.00  0.00    +0.000 NA
ATOM     12  C   UNL     1      61.297  62.899  70.177  0.00  0.00    +0.000 A 
ATOM     13  C   UNL     1      61.908  63.255  70.604  0.00  0.00    +0.000 A 
ATOM     14  C   UNL     1      61.925  63.193  71.427  0.00  0.00    +0.000 A 
ATOM     15  C   UNL     1      61.333  62.777  71.823  0.00  0.00    +0.000 A 
ATOM     16 CL   UNL     1      61.350  62.715  72.645  0.00  0.00    +0.000 Cl
ATOM     17  C   UNL     1      60.722  62.421  71.395  0.00  0.00    +0.000 A 
ATOM     18  C   UNL     1      60.705  62.483  70.573  0.00  0.00    +0.000 A 
ENDROOT
TORSDOF 0
ENDMDL
MODEL 4
REMARK VINA RESULT:    -9.203      2.863      3.800
REMARK INTER + INTRA:          -9.203
REMARK INTER:                  -9.203
REMARK INTRA:                   0.000
REMARK UNBOUND:                 0.000
ROOT
REMARK  Name = bromochlorosalicylanilide
REMARK                            x       y       z     vdW  Elec       q    Type
REMARK                         _______ _______ _______ _____ _____    ______ ____
ATOM      1  O   UNL     1      61.232  61.881  71.223  0.00  0.00    +0.000 OA
ATOM      2  C   UNL     1      61.274  62.595  71.635  0.00  0.00    +0.000 A 
ATOM      3  C   UNL     1      61.072  63.301  71.259  0.00  0.00    +0.000 A 
ATOM      4  C   UNL     1      61.114  64.014  71.670  0.00  0.00    +0.000 A 
ATOM      5  C   UNL     1      61.358  64.022  72.458  0.00  0.00    +0.000 A 
ATOM      6 BR   UNL     1      61.400  64.736  72.870  0.00  0.00    +0.000 Br
ATOM      7  C   UNL     1      61.560  63.316  72.834  0.00  0.00    +0.000 A 
ATOM      8  C   UNL     1      61.518  62.604  72.423  0.00  0.00    +0.000 A 
ATOM      9  C   UNL     1      60.827  63.293  70.471  0.00  0.00    +0.000 C 
ATOM     10  O   UNL     1      60.625  63.999  70.095  0.00  0.00    +0.000 OA
ATOM     11  N   UNL     1      60.785  62.579  70.059  0.00  0.00    +0.000 NA
ATOM     12  C   UNL     1      60.541  62.572  69.271  0.00  0.00    +0.000 A 
ATOM     13  C   UNL     1      60.499  61.857  68.859  0.00  0.00    +0.000 A 
ATOM     14  C   UNL     1      60.254  61.850  68.071  0.00  0.00    +0.000 A 
ATOM     15  C   UNL     1      60.052  62.555  67.695  0.00  0.00    +0.000 A 
ATOM     16 CL   UNL     1      59.808  62.548  66.907  0.00  0.00    +0.000 Cl
ATOM     17  C   UNL     1      60.094  63.270  68.107  0.00  0.00    +0.000 A 
ATOM     18  C   UNL     1      60.338  63.278  68.895  0.00  0.00    +0.000 A 
ENDROOT
TORSDOF 0
ENDMDL
MODEL 5
REMARK VINA RESULT:    -9.124      5.030      5.781
REMARK INTER + INTRA:          -9.124
REMARK INTER:                  -9.124
REMARK INTRA:                   0.000
REMARK UNBOUND:                 0.000
ROOT
REMARK  Name = bromochlorosalicylanilide
REMARK                            x       y       z     vdW  Elec       q    Type
REMARK                         _______ _______ _______ _____ _____    ______ ____
ATOM      1  O   UNL     1      62.211  64.730  72.464  0.00  0.00    +0.000 OA
ATOM      2  C   UNL     1      61.938  64.037  72.111  0.00  0.00    +0.000 A 
ATOM      3  C   UNL     1      62.227  63.807  71.373  0.00  0.00    +0.000 A 
ATOM      4  C   UNL     1      61.954  63.115  71.020  0.00  0.00    +0.000 A 
ATOM      5  C   UNL     1      61.391  62.650  71.403  0.00  0.00    +0.000 A 
ATOM      6 BR   UNL     1      61.118  61.956  71.050  0.00  0.00    +0.000 Br
ATOM      7  C   UNL     1      61.102  62.879  72.141  0.00  0.00    +0.000 A 
ATOM      8  C   UNL     1      61.375  63.572  72.494  0.00  0.00    +0.000 A 
ATOM      9  C   UNL     1      62.791  64.272  70.989  0.00  0.00    +0.000 C 
ATOM     10  O   UNL     1      63.081  64.043  70.251  0.00  0.00    +0.000 OA
ATOM     11  N   UNL     1      63.065  64.966  71.342  0.00  0.00    +0.000 NA
ATOM     12  C   UNL     1      63.628  65.430  70.958  0.00  0.00    +0.000 A 
ATOM     13  C   UNL     1      63.901  66.124  71.312  0.00  0.00    +0.000 A 
ATOM     14  C   UNL     1      64.465  66.588  70.928  0.00  0.00    +0.000 A 
ATOM     15  C   UNL     1      64.754  66.360  70.191  0.00  0.00    +0.000 A 
ATOM     16 CL   UNL     1      65.318  66.824  69.806  0.00  0.00    +0.000 Cl
ATOM     17  C   UNL     1      64.481  65.665  69.837  0.00  0.00    +0.000 A 
ATOM     18  C   UNL     1      63.918  65.201  70.220  0.00  0.00    +0.000 A 
ENDROOT
TORSDOF 0
ENDMDL
MODEL 6
REMARK VINA RESULT:    -8.875      5.728      7.157
REMARK INTER + INTRA:          -8.875
REMARK INTER:                  -8.875
REMARK INTRA:                   0.000
REMARK UNBOUND:                 0.000
ROOT
REMARK  Name = bromochlorosalicylanilide
REMARK                            x       y       z     vdW  Elec       q    Type
REMARK                         _______ _______ _______ _____ _____    ______ ____
ATOM      1  O   UNL     1      61.426  64.446  72.626  0.00  0.00    +0.000 OA
ATOM      2  C   UNL     1      61.195  63.781  72.196  0.00  0.00    +0.000 A 
ATOM      3  C   UNL     1      60.422  63.718  71.915  0.00  0.00    +0.000 A 
ATOM      4  C   UNL     1      60.192  63.054  71.485  0.00  0.00    +0.000 A 
ATOM      5  C   UNL     1      60.734  62.451  71.335  0.00  0.00    +0.000 A 
ATOM      6 BR   UNL     1      60.504  61.785  70.905  0.00  0.00    +0.000 Br
ATOM      7  C   UNL     1      61.507  62.513  71.617  0.00  0.00    +0.000 A 
ATOM      8  C   UNL     1      61.737  63.177  72.047  0.00  0.00    +0.000 A 
ATOM      9  C   UNL     1      59.879  64.322  72.064  0.00  0.00    +0.000 C 
ATOM     10  O   UNL     1      59.106  64.260  71.782  0.00  0.00    +0.000 OA
ATOM     11  N   UNL     1      60.110  64.987  72.494  0.00  0.00    +0.000 NA
ATOM     12  C   UNL     1      59.567  65.590  72.643  0.00  0.00    +0.000 A 
ATOM     13  C   UNL     1      59.798  66.256  73.074  0.00  0.00    +0.000 A 
ATOM     14  C   UNL     1      59.255  66.859  73.222  0.00  0.00    +0.000 A 
ATOM     15  C   UNL     1      58.482  66.797  72.941  0.00  0.00    +0.000 A 
ATOM     16 CL   UNL     1      57.939  67.401  73.090  0.00  0.00    +0.000 Cl
ATOM     17  C   UNL     1      58.252  66.132  72.510  0.00  0.00    +0.000 A 
ATOM     18  C   UNL     1      58.794  65.529  72.362  0.00  0.00    +0.000 A 
ENDROOT
TORSDOF 0
ENDMDL
MODEL 7
REMARK VINA RESULT:    -8.798      5.584      6.806
REMARK INTER + INTRA:          -8.798
REMARK INTER:                  -8.798
REMARK INTRA:                   0.000
REMARK UNBOUND:                 0.000
ROOT
REMARK  Name = bromochlorosalicylanilide
REMARK                            x       y       z     vdW  Elec       q    Type
REMARK                         _______ _______ _______ _____ _____    ______ ____
ATOM      1  O   UNL     1      63.172  66.712  72.580  0.00  0.00    +0.000 OA
ATOM      2  C   UNL     1      63.783  66.763  72.028  0.00  0.00    +0.000 A 
ATOM      3  C   UNL     1      63.880  66.168  71.464  0.00  0.00    +0.000 A 
ATOM      4  C   UNL     1      64.490  66.219  70.912  0.00  0.00    +0.000 A 
ATOM      5  C   UNL     1      65.004  66.864  70.922  0.00  0.00    +0.000 A 
ATOM      6 BR   UNL     1      65.614  66.915  70.370  0.00  0.00    +0.000 Br
ATOM      7  C   UNL     1      64.907  67.458  71.486  0.00  0.00    +0.000 A 
ATOM      8  C   UNL     1      64.297  67.407  72.038  0.00  0.00    +0.000 A 
ATOM      9  C   UNL     1      63.365  65.523  71.452  0.00  0.00    +0.000 C 
ATOM     10  O   UNL     1      63.462  64.929  70.888  0.00  0.00    +0.000 OA
ATOM     11  N   UNL     1      62.755  65.472  72.005  0.00  0.00    +0.000 NA
ATOM     12  C   UNL     1      62.241  64.827  71.994  0.00  0.00    +0.000 A 
ATOM     13  C   UNL     1      61.630  64.776  72.547  0.00  0.00    +0.000 A 
ATOM     14  C   UNL     1      61.116  64.131  72.535  0.00  0.00    +0.000 A 
ATOM     15  C   UNL     1      61.213  63.536  71.972  0.00  0.00    +0.000 A 
ATOM     16 CL   UNL     1      60.699  62.891  71.960  0.00  0.00    +0.000 Cl
ATOM     17  C   UNL     1      61.824  63.587  71.418  0.00  0.00    +0.000 A 
ATOM     18  C   UNL     1      62.337  64.232  71.430  0.00  0.00    +0.000 A 
ENDROOT
TORSDOF 0
ENDMDL
MODEL 8
REMARK VINA RESULT:    -8.645      3.565      5.364
REMARK INTER + INTRA:          -8.645
REMARK INTER:                  -8.645
REMARK INTRA:                   0.000
REMARK UNBOUND:                 0.000
ROOT
REMARK  Name = bromochlorosalicylanilide
REMARK                            x       y       z     vdW  Elec       q    Type
REMARK                         _______ _______ _______ _____ _____    ______ ____
ATOM      1  O   UNL     1      60.536  62.272  70.512  0.00  0.00    +0.000 OA
ATOM      2  C   UNL     1      60.674  62.382  69.706  0.00  0.00    +0.000 A 
ATOM      3  C   UNL     1      61.081  63.050  69.444  0.00  0.00    +0.000 A 
ATOM      4  C   UNL     1      61.218  63.159  68.639  0.00  0.00    +0.000 A 
ATOM      5  C   UNL     1      60.950  62.601  68.094  0.00  0.00    +0.000 A 
ATOM      6 BR   UNL     1      61.088  62.710  67.289  0.00  0.00    +0.000 Br
ATOM      7  C   UNL     1      60.544  61.933  68.357  0.00  0.00    +0.000 A 
ATOM      8  C   UNL     1      60.406  61.823  69.162  0.00  0.00    +0.000 A 
ATOM      9  C   UNL     1      61.349  63.609  69.989  0.00  0.00    +0.000 C 
ATOM     10  O   UNL     1      61.755  64.277  69.726  0.00  0.00    +0.000 OA
ATOM     11  N   UNL     1      61.211  63.500  70.795  0.00  0.00    +0.000 NA
ATOM     12  C   UNL     1      61.480  64.058  71.338  0.00  0.00    +0.000 A 
ATOM     13  C   UNL     1      61.341  63.949  72.145  0.00  0.00    +0.000 A 
ATOM     14  C   UNL     1      61.610  64.508  72.689  0.00  0.00    +0.000 A 
ATOM     15  C   UNL     1      62.016  65.176  72.428  0.00  0.00    +0.000 A 
ATOM     16 CL   UNL     1      62.285  65.736  72.971  0.00  0.00    +0.000 Cl
ATOM     17  C   UNL     1      62.154  65.286  71.621  0.00  0.00    +0.000 A 
ATOM     18  C   UNL     1      61.886  64.727  71.077  0.00  0.00    +0.000 A 
ENDROOT
TORSDOF 0
ENDMDL
MODEL 9
REMARK VINA RESULT:    -8.337      4.840      5.903
REMARK INTER + INTRA:          -8.337
REMARK INTER:                  -8.337
REMARK INTRA:                   0.000
REMARK UNBOUND:                 0.000
ROOT
REMARK  Name = bromochlorosalicylanilide
REMARK                            x       y       z     vdW  Elec       q    Type
REMARK                         _______ _______ _______ _____ _____    ______ ____
ATOM      1  O   UNL     1      63.376  64.864  70.984  0.00  0.00    +0.000 OA
ATOM      2  C   UNL     1      63.155  65.508  71.449  0.00  0.00    +0.000 A 
ATOM      3  C   UNL     1      62.428  65.505  71.839  0.00  0.00    +0.000 A 
ATOM      4  C   UNL     1      62.206  66.149  72.303  0.00  0.00    +0.000 A 
ATOM      5  C   UNL     1      62.711  66.796  72.379  0.00  0.00    +0.000 A 
ATOM      6 BR   UNL     1      62.490  67.441  72.845  0.00  0.00    +0.000 Br
ATOM      7  C   UNL     1      63.438  66.799  71.990  0.00  0.00    +0.000 A 
ATOM      8  C   UNL     1      63.660  66.156  71.525  0.00  0.00    +0.000 A 
ATOM      9  C   UNL     1      61.922  64.857  71.763  0.00  0.00    +0.000 C 
ATOM     10  O   UNL     1      61.195  64.855  72.153  0.00  0.00    +0.000 OA
ATOM     11  N   UNL     1      62.143  64.213  71.298  0.00  0.00    +0.000 NA
ATOM     12  C   UNL     1      61.638  63.566  71.222  0.00  0.00    +0.000 A 
ATOM     13  C   UNL     1      61.860  62.921  70.756  0.00  0.00    +0.000 A 
ATOM     14  C   UNL     1      61.354  62.274  70.681  0.00  0.00    +0.000 A 
ATOM     15  C   UNL     1      60.627  62.270  71.070  0.00  0.00    +0.000 A 
ATOM     16 CL   UNL     1      60.121  61.623  70.995  0.00  0.00    +0.000 Cl
ATOM     17  C   UNL     1      60.405  62.915  71.536  0.00  0.00    +0.000 A 
ATOM     18  C   UNL     1      60.910  63.562  71.612  0.00  0.00    +0.000 A 
ENDROOT
TORSDOF 0
ENDMDL
