MODEL 1
REMARK VINA RESULT:    -9.265      0.000      0.000
REMARK INTER + INTRA:          -9.265
REMARK INTER:                  -9.265
REMARK INTRA:                   0.000
REMARK UNBOUND:                 0.000
ROOT
REMARK  Name = brompheniramine
REMARK                            x       y       z     vdW  Elec       q    Type
REMARK                         _______ _______ _______ _____ _____    ______ ____
ATOM      1  C   UNL     1      59.747  65.621  70.530  0.00  0.00    +0.000 C 
ATOM      2  N   UNL     1      59.935  65.285  69.801  0.00  0.00    +0.000 NA
ATOM      3  C   UNL     1      59.936  65.752  69.121  0.00  0.00    +0.000 C 
ATOM      4  C   UNL     1      60.121  64.484  69.752  0.00  0.00    +0.000 C 
ATOM      5  C   UNL     1      60.309  64.147  69.022  0.00  0.00    +0.000 C 
ATOM      6  C   UNL     1      60.495  63.345  68.972  0.00  0.00    +0.000 C 
ATOM      7  C   UNL     1      60.683  63.009  68.243  0.00  0.00    +0.000 A 
ATOM      8  C   UNL     1      60.869  62.208  68.194  0.00  0.00    +0.000 A 
ATOM      9  C   UNL     1      61.057  61.871  67.464  0.00  0.00    +0.000 A 
ATOM     10  C   UNL     1      61.058  62.337  66.783  0.00  0.00    +0.000 A 
ATOM     11 BR   UNL     1      61.246  62.002  66.054  0.00  0.00    +0.000 Br
ATOM     12  C   UNL     1      60.872  63.140  66.833  0.00  0.00    +0.000 A 
ATOM     13  C   UNL     1      60.684  63.475  67.563  0.00  0.00    +0.000 A 
ATOM     14  C   UNL     1      60.493  62.878  69.654  0.00  0.00    +0.000 A 
ATOM     15  C   UNL     1      60.306  63.214  70.383  0.00  0.00    +0.000 A 
ATOM     16  C   UNL     1      60.304  62.748  71.064  0.00  0.00    +0.000 A 
ATOM     17  C   UNL     1      60.490  61.945  71.015  0.00  0.00    +0.000 A 
ATOM     18  C   UNL     1      60.678  61.610  70.285  0.00  0.00    +0.000 A 
ATOM     19  N   UNL     1      60.680  62.076  69.604  0.00  0.00    +0.000 NA
ENDROOT
TORSDOF 0
ENDMDL
MODEL 2
REMARK VINA RESULT:    -9.076      1.864      3.229
REMARK INTER + INTRA:          -9.076
REMARK INTER:                  -9.076
REMARK INTRA:                   0.000
REMARK UNBOUND:                 0.000
ROOT
REMARK  Name = brompheniramine
REMARK                            x       y       z     vdW  Elec       q    Type
REMARK                         _______ _______ _______ _____ _____    ______ ____
ATOM      1  C   UNL     1      59.461  66.270  69.119  0.00  0.00    +0.000 C 
ATOM      2  N   UNL     1      59.754  65.891  69.791  0.00  0.00    +0.000 NA
ATOM      3  C   UNL     1      59.808  66.301  70.504  0.00  0.00    +0.000 C 
ATOM      4  C   UNL     1      59.991  65.103  69.749  0.00  0.00    +0.000 C 
ATOM      5  C   UNL     1      60.284  64.723  70.421  0.00  0.00    +0.000 C 
ATOM      6  C   UNL     1      60.522  63.934  70.380  0.00  0.00    +0.000 C 
ATOM      7  C   UNL     1      60.814  63.556  71.051  0.00  0.00    +0.000 A 
ATOM      8  C   UNL     1      61.052  62.767  71.010  0.00  0.00    +0.000 A 
ATOM      9  C   UNL     1      61.345  62.388  71.682  0.00  0.00    +0.000 A 
ATOM     10  C   UNL     1      61.399  62.798  72.396  0.00  0.00    +0.000 A 
ATOM     11 BR   UNL     1      61.692  62.420  73.068  0.00  0.00    +0.000 Br
ATOM     12  C   UNL     1      61.161  63.588  72.437  0.00  0.00    +0.000 A 
ATOM     13  C   UNL     1      60.869  63.966  71.765  0.00  0.00    +0.000 A 
ATOM     14  C   UNL     1      60.468  63.524  69.665  0.00  0.00    +0.000 A 
ATOM     15  C   UNL     1      60.175  63.903  68.994  0.00  0.00    +0.000 A 
ATOM     16  C   UNL     1      60.120  63.493  68.280  0.00  0.00    +0.000 A 
ATOM     17  C   UNL     1      60.358  62.703  68.238  0.00  0.00    +0.000 A 
ATOM     18  C   UNL     1      60.651  62.325  68.910  0.00  0.00    +0.000 A 
ATOM     19  N   UNL     1      60.705  62.735  69.624  0.00  0.00    +0.000 NA
ENDROOT
TORSDOF 0
ENDMDL
MODEL 3
REMARK VINA RESULT:    -9.065      4.166      5.037
REMARK INTER + INTRA:          -9.065
REMARK INTER:                  -9.065
REMARK INTRA:                   0.000
REMARK UNBOUND:                 0.000
ROOT
REMARK  Name = brompheniramine
REMARK                            x       y       z     vdW  Elec       q    Type
REMARK                         _______ _______ _______ _____ _____    ______ ____
ATOM      1  C   UNL     1      61.330  63.766  69.977  0.00  0.00    +0.000 C 
ATOM      2  N   UNL     1      62.014  64.199  69.822  0.00  0.00    +0.000 NA
ATOM      3  C   UNL     1      62.390  64.128  69.091  0.00  0.00    +0.000 C 
ATOM      4  C   UNL     1      62.322  64.704  70.396  0.00  0.00    +0.000 C 
ATOM      5  C   UNL     1      63.006  65.138  70.241  0.00  0.00    +0.000 C 
ATOM      6  C   UNL     1      63.315  65.644  70.816  0.00  0.00    +0.000 C 
ATOM      7  C   UNL     1      63.999  66.077  70.661  0.00  0.00    +0.000 A 
ATOM      8  C   UNL     1      64.306  66.582  71.235  0.00  0.00    +0.000 A 
ATOM      9  C   UNL     1      64.991  67.016  71.080  0.00  0.00    +0.000 A 
ATOM     10  C   UNL     1      65.368  66.944  70.350  0.00  0.00    +0.000 A 
ATOM     11 BR   UNL     1      66.052  67.377  70.193  0.00  0.00    +0.000 Br
ATOM     12  C   UNL     1      65.060  66.438  69.774  0.00  0.00    +0.000 A 
ATOM     13  C   UNL     1      64.375  66.005  69.930  0.00  0.00    +0.000 A 
ATOM     14  C   UNL     1      62.938  65.715  71.547  0.00  0.00    +0.000 A 
ATOM     15  C   UNL     1      62.253  65.282  71.702  0.00  0.00    +0.000 A 
ATOM     16  C   UNL     1      61.876  65.353  72.433  0.00  0.00    +0.000 A 
ATOM     17  C   UNL     1      62.184  65.859  73.008  0.00  0.00    +0.000 A 
ATOM     18  C   UNL     1      62.869  66.292  72.852  0.00  0.00    +0.000 A 
ATOM     19  N   UNL     1      63.245  66.220  72.122  0.00  0.00    +0.000 NA
ENDROOT
TORSDOF 0
ENDMDL
MODEL 4
REMARK VINA RESULT:    -9.056      1.287      1.313
REMARK INTER + INTRA:          -9.056
REMARK INTER:                  -9.056
REMARK INTRA:                   0.000
REMARK UNBOUND:                 0.000
ROOT
REMARK  Name = brompheniramine
REMARK                            x       y       z     vdW  Elec       q    Type
REMARK                         _______ _______ _______ _____ _____    ______ ____
ATOM      1  C   UNL     1      62.551  65.127  70.880  0.00  0.00    +0.000 C 
ATOM      2  N   UNL     1      62.251  64.890  70.150  0.00  0.00    +0.000 NA
ATOM      3  C   UNL     1      62.377  65.356  69.481  0.00  0.00    +0.000 C 
ATOM      4  C   UNL     1      61.824  64.187  70.088  0.00  0.00    +0.000 C 
ATOM      5  C   UNL     1      61.524  63.949  69.357  0.00  0.00    +0.000 C 
ATOM      6  C   UNL     1      61.097  63.246  69.294  0.00  0.00    +0.000 C 
ATOM      7  C   UNL     1      60.797  63.009  68.564  0.00  0.00    +0.000 A 
ATOM      8  C   UNL     1      60.370  62.306  68.502  0.00  0.00    +0.000 A 
ATOM      9  C   UNL     1      60.070  62.068  67.771  0.00  0.00    +0.000 A 
ATOM     10  C   UNL     1      60.196  62.535  67.102  0.00  0.00    +0.000 A 
ATOM     11 BR   UNL     1      59.896  62.298  66.371  0.00  0.00    +0.000 Br
ATOM     12  C   UNL     1      60.623  63.239  67.164  0.00  0.00    +0.000 A 
ATOM     13  C   UNL     1      60.923  63.475  67.895  0.00  0.00    +0.000 A 
ATOM     14  C   UNL     1      60.971  62.779  69.964  0.00  0.00    +0.000 A 
ATOM     15  C   UNL     1      61.271  63.017  70.694  0.00  0.00    +0.000 A 
ATOM     16  C   UNL     1      61.145  62.550  71.363  0.00  0.00    +0.000 A 
ATOM     17  C   UNL     1      60.718  61.846  71.301  0.00  0.00    +0.000 A 
ATOM     18  C   UNL     1      60.418  61.610  70.570  0.00  0.00    +0.000 A 
ATOM     19  N   UNL     1      60.544  62.076  69.901  0.00  0.00    +0.000 NA
ENDROOT
TORSDOF 0
ENDMDL
MODEL 5
REMARK VINA RESULT:    -9.048      4.598      5.355
REMARK INTER + INTRA:          -9.048
REMARK INTER:                  -9.048
REMARK INTRA:                   0.000
REMARK UNBOUND:                 0.000
ROOT
REMARK  Name = brompheniramine
REMARK                            x       y       z     vdW  Elec       q    Type
REMARK                         _______ _______ _______ _____ _____    ______ ____
ATOM      1  C   UNL     1      61.408  66.046  72.866  0.00  0.00    +0.000 C 
ATOM      2  N   UNL     1      62.099  66.426  72.625  0.00  0.00    +0.000 NA
ATOM      3  C   UNL     1      62.337  67.124  72.994  0.00  0.00    +0.000 C 
ATOM      4  C   UNL     1      62.553  66.107  72.015  0.00  0.00    +0.000 C 
ATOM      5  C   UNL     1      63.245  66.486  71.773  0.00  0.00    +0.000 C 
ATOM      6  C   UNL     1      63.700  66.168  71.163  0.00  0.00    +0.000 C 
ATOM      7  C   UNL     1      64.391  66.547  70.921  0.00  0.00    +0.000 A 
ATOM      8  C   UNL     1      64.845  66.229  70.311  0.00  0.00    +0.000 A 
ATOM      9  C   UNL     1      65.537  66.608  70.070  0.00  0.00    +0.000 A 
ATOM     10  C   UNL     1      65.774  67.307  70.439  0.00  0.00    +0.000 A 
ATOM     11 BR   UNL     1      66.465  67.687  70.198  0.00  0.00    +0.000 Br
ATOM     12  C   UNL     1      65.320  67.626  71.050  0.00  0.00    +0.000 A 
ATOM     13  C   UNL     1      64.628  67.246  71.291  0.00  0.00    +0.000 A 
ATOM     14  C   UNL     1      63.462  65.469  70.793  0.00  0.00    +0.000 A 
ATOM     15  C   UNL     1      62.770  65.089  71.035  0.00  0.00    +0.000 A 
ATOM     16  C   UNL     1      62.533  64.391  70.666  0.00  0.00    +0.000 A 
ATOM     17  C   UNL     1      62.987  64.072  70.055  0.00  0.00    +0.000 A 
ATOM     18  C   UNL     1      63.679  64.452  69.814  0.00  0.00    +0.000 A 
ATOM     19  N   UNL     1      63.916  65.150  70.183  0.00  0.00    +0.000 NA
ENDROOT
TORSDOF 0
ENDMDL
MODEL 6
REMARK VINA RESULT:    -9.041      2.273      3.812
REMARK INTER + INTRA:          -9.041
REMARK INTER:                  -9.041
REMARK INTRA:                   0.000
REMARK UNBOUND:                 0.000
ROOT
REMARK  Name = brompheniramine
REMARK                            x       y       z     vdW  Elec       q    Type
REMARK                         _______ _______ _______ _____ _____    ______ ____
ATOM      1  C   UNL     1      58.355  67.209  72.614  0.00  0.00    +0.000 C 
ATOM      2  N   UNL     1      58.634  66.435  72.567  0.00  0.00    +0.000 NA
ATOM      3  C   UNL     1      58.561  65.930  73.216  0.00  0.00    +0.000 C 
ATOM      4  C   UNL     1      58.985  66.165  71.872  0.00  0.00    +0.000 C 
ATOM      5  C   UNL     1      59.264  65.390  71.824  0.00  0.00    +0.000 C 
ATOM      6  C   UNL     1      59.616  65.119  71.129  0.00  0.00    +0.000 C 
ATOM      7  C   UNL     1      59.895  64.344  71.082  0.00  0.00    +0.000 A 
ATOM      8  C   UNL     1      60.246  64.074  70.387  0.00  0.00    +0.000 A 
ATOM      9  C   UNL     1      60.526  63.299  70.339  0.00  0.00    +0.000 A 
ATOM     10  C   UNL     1      60.454  62.795  70.988  0.00  0.00    +0.000 A 
ATOM     11 BR   UNL     1      60.733  62.020  70.941  0.00  0.00    +0.000 Br
ATOM     12  C   UNL     1      60.102  63.065  71.684  0.00  0.00    +0.000 A 
ATOM     13  C   UNL     1      59.823  63.840  71.730  0.00  0.00    +0.000 A 
ATOM     14  C   UNL     1      59.689  65.624  70.479  0.00  0.00    +0.000 A 
ATOM     15  C   UNL     1      59.409  66.399  70.527  0.00  0.00    +0.000 A 
ATOM     16  C   UNL     1      59.481  66.903  69.878  0.00  0.00    +0.000 A 
ATOM     17  C   UNL     1      59.833  66.633  69.182  0.00  0.00    +0.000 A 
ATOM     18  C   UNL     1      60.112  65.858  69.135  0.00  0.00    +0.000 A 
ATOM     19  N   UNL     1      60.040  65.354  69.784  0.00  0.00    +0.000 NA
ENDROOT
TORSDOF 0
ENDMDL
MODEL 7
REMARK VINA RESULT:    -8.994      3.679      4.597
REMARK INTER + INTRA:          -8.994
REMARK INTER:                  -8.994
REMARK INTRA:                   0.000
REMARK UNBOUND:                 0.000
ROOT
REMARK  Name = brompheniramine
REMARK                            x       y       z     vdW  Elec       q    Type
REMARK                         _______ _______ _______ _____ _____    ______ ____
ATOM      1  C   UNL     1      63.452  67.774  72.454  0.00  0.00    +0.000 C 
ATOM      2  N   UNL     1      62.995  67.089  72.497  0.00  0.00    +0.000 NA
ATOM      3  C   UNL     1      62.385  67.034  73.049  0.00  0.00    +0.000 C 
ATOM      4  C   UNL     1      63.148  66.459  71.988  0.00  0.00    +0.000 C 
ATOM      5  C   UNL     1      62.691  65.773  72.030  0.00  0.00    +0.000 C 
ATOM      6  C   UNL     1      62.844  65.142  71.521  0.00  0.00    +0.000 C 
ATOM      7  C   UNL     1      62.388  64.457  71.563  0.00  0.00    +0.000 A 
ATOM      8  C   UNL     1      62.541  63.827  71.054  0.00  0.00    +0.000 A 
ATOM      9  C   UNL     1      62.084  63.141  71.097  0.00  0.00    +0.000 A 
ATOM     10  C   UNL     1      61.474  63.086  71.649  0.00  0.00    +0.000 A 
ATOM     11 BR   UNL     1      61.016  62.401  71.692  0.00  0.00    +0.000 Br
ATOM     12  C   UNL     1      61.320  63.717  72.159  0.00  0.00    +0.000 A 
ATOM     13  C   UNL     1      61.777  64.402  72.116  0.00  0.00    +0.000 A 
ATOM     14  C   UNL     1      63.455  65.197  70.968  0.00  0.00    +0.000 A 
ATOM     15  C   UNL     1      63.912  65.883  70.925  0.00  0.00    +0.000 A 
ATOM     16  C   UNL     1      64.522  65.938  70.373  0.00  0.00    +0.000 A 
ATOM     17  C   UNL     1      64.676  65.307  69.863  0.00  0.00    +0.000 A 
ATOM     18  C   UNL     1      64.218  64.622  69.906  0.00  0.00    +0.000 A 
ATOM     19  N   UNL     1      63.608  64.567  70.459  0.00  0.00    +0.000 NA
ENDROOT
TORSDOF 0
ENDMDL
MODEL 8
REMARK VINA RESULT:    -8.887      3.803      4.989
REMARK INTER + INTRA:          -8.887
REMARK INTER:                  -8.887
REMARK INTRA:                   0.000
REMARK UNBOUND:                 0.000
ROOT
REMARK  Name = brompheniramine
REMARK                            x       y       z     vdW  Elec       q    Type
REMARK                         _______ _______ _______ _____ _____    ______ ____
ATOM      1  C   UNL     1      65.030  66.515  69.883  0.00  0.00    +0.000 C 
ATOM      2  N   UNL     1      64.549  65.867  70.050  0.00  0.00    +0.000 NA
ATOM      3  C   UNL     1      64.608  65.181  69.594  0.00  0.00    +0.000 C 
ATOM      4  C   UNL     1      64.009  65.903  70.671  0.00  0.00    +0.000 C 
ATOM      5  C   UNL     1      63.527  65.255  70.839  0.00  0.00    +0.000 C 
ATOM      6  C   UNL     1      62.986  65.291  71.461  0.00  0.00    +0.000 C 
ATOM      7  C   UNL     1      62.504  64.643  71.628  0.00  0.00    +0.000 A 
ATOM      8  C   UNL     1      61.964  64.679  72.250  0.00  0.00    +0.000 A 
ATOM      9  C   UNL     1      61.482  64.030  72.417  0.00  0.00    +0.000 A 
ATOM     10  C   UNL     1      61.541  63.345  71.962  0.00  0.00    +0.000 A 
ATOM     11 BR   UNL     1      61.060  62.696  72.128  0.00  0.00    +0.000 Br
ATOM     12  C   UNL     1      62.082  63.308  71.339  0.00  0.00    +0.000 A 
ATOM     13  C   UNL     1      62.563  63.957  71.173  0.00  0.00    +0.000 A 
ATOM     14  C   UNL     1      62.927  65.977  71.917  0.00  0.00    +0.000 A 
ATOM     15  C   UNL     1      63.409  66.626  71.749  0.00  0.00    +0.000 A 
ATOM     16  C   UNL     1      63.350  67.311  72.205  0.00  0.00    +0.000 A 
ATOM     17  C   UNL     1      62.809  67.348  72.828  0.00  0.00    +0.000 A 
ATOM     18  C   UNL     1      62.328  66.699  72.994  0.00  0.00    +0.000 A 
ATOM     19  N   UNL     1      62.387  66.013  72.539  0.00  0.00    +0.000 NA
ENDROOT
TORSDOF 0
ENDMDL
MODEL 9
REMARK VINA RESULT:    -8.867      3.510      3.805
REMARK INTER + INTRA:          -8.867
REMARK INTER:                  -8.867
REMARK INTRA:                   0.000
REMARK UNBOUND:                 0.000
ROOT
REMARK  Name = brompheniramine
REMARK                            x       y       z     vdW  Elec       q    Type
REMARK                         _______ _______ _______ _____ _____    ______ ____
ATOM      1  C   UNL     1      60.126  66.466  73.222  0.00  0.00    +0.000 C 
ATOM      2  N   UNL     1      60.761  66.509  72.698  0.00  0.00    +0.000 NA
ATOM      3  C   UNL     1      61.047  67.244  72.455  0.00  0.00    +0.000 C 
ATOM      4  C   UNL     1      61.111  65.817  72.417  0.00  0.00    +0.000 C 
ATOM      5  C   UNL     1      61.746  65.859  71.892  0.00  0.00    +0.000 C 
ATOM      6  C   UNL     1      62.096  65.167  71.610  0.00  0.00    +0.000 C 
ATOM      7  C   UNL     1      62.731  65.210  71.085  0.00  0.00    +0.000 A 
ATOM      8  C   UNL     1      63.080  64.519  70.804  0.00  0.00    +0.000 A 
ATOM      9  C   UNL     1      63.716  64.561  70.279  0.00  0.00    +0.000 A 
ATOM     10  C   UNL     1      64.002  65.296  70.036  0.00  0.00    +0.000 A 
ATOM     11 BR   UNL     1      64.637  65.339  69.511  0.00  0.00    +0.000 Br
ATOM     12  C   UNL     1      63.652  65.988  70.318  0.00  0.00    +0.000 A 
ATOM     13  C   UNL     1      63.017  65.945  70.842  0.00  0.00    +0.000 A 
ATOM     14  C   UNL     1      61.810  64.432  71.853  0.00  0.00    +0.000 A 
ATOM     15  C   UNL     1      61.175  64.390  72.377  0.00  0.00    +0.000 A 
ATOM     16  C   UNL     1      60.889  63.655  72.620  0.00  0.00    +0.000 A 
ATOM     17  C   UNL     1      61.239  62.962  72.338  0.00  0.00    +0.000 A 
ATOM     18  C   UNL     1      61.874  63.005  71.814  0.00  0.00    +0.000 A 
ATOM     19  N   UNL     1      62.160  63.740  71.571  0.00  0.00    +0.000 NA
ENDROOT
TORSDOF 0
ENDMDL
