MODEL 1
REMARK VINA RESULT:   -12.177      0.000      0.000
REMARK INTER + INTRA:         -12.177
REMARK INTER:                 -12.177
REMARK INTRA:                   0.000
REMARK UNBOUND:                 0.000
ROOT
REMARK  Name = bumadizone
REMARK                            x       y       z     vdW  Elec       q    Type
REMARK                         _______ _______ _______ _____ _____    ______ ____
ATOM      1  C   UNL     1      59.577  62.072  66.104  0.00  0.00    +0.000 C 
ATOM      2  C   UNL     1      59.582  62.035  66.928  0.00  0.00    +0.000 C 
ATOM      3  C   UNL     1      60.154  62.448  67.355  0.00  0.00    +0.000 C 
ATOM      4  C   UNL     1      60.158  62.412  68.180  0.00  0.00    +0.000 C 
ATOM      5  C   UNL     1      60.730  62.825  68.607  0.00  0.00    +0.000 C 
ATOM      6  C   UNL     1      61.298  63.275  68.211  0.00  0.00    +0.000 C 
ATOM      7  O   UNL     1      61.870  63.688  68.638  0.00  0.00    +0.000 OA
ATOM      8  O   UNL     1      61.292  63.310  67.387  0.00  0.00    +0.000 OA
ATOM      9  C   UNL     1      60.736  62.789  69.432  0.00  0.00    +0.000 C 
ATOM     10  O   UNL     1      60.169  62.340  69.829  0.00  0.00    +0.000 OA
ATOM     11  N   UNL     1      61.308  63.202  69.860  0.00  0.00    +0.000 N 
ATOM     12  N   UNL     1      61.875  63.651  69.463  0.00  0.00    +0.000 NA
ATOM     13  C   UNL     1      62.447  64.064  69.890  0.00  0.00    +0.000 A 
ATOM     14  C   UNL     1      62.452  64.028  70.715  0.00  0.00    +0.000 A 
ATOM     15  C   UNL     1      63.024  64.441  71.142  0.00  0.00    +0.000 A 
ATOM     16  C   UNL     1      63.591  64.890  70.745  0.00  0.00    +0.000 A 
ATOM     17  C   UNL     1      63.585  64.926  69.921  0.00  0.00    +0.000 A 
ATOM     18  C   UNL     1      63.014  64.514  69.493  0.00  0.00    +0.000 A 
ATOM     19  C   UNL     1      61.313  63.166  70.683  0.00  0.00    +0.000 A 
ATOM     20  C   UNL     1      60.746  62.716  71.080  0.00  0.00    +0.000 A 
ATOM     21  C   UNL     1      60.751  62.680  71.904  0.00  0.00    +0.000 A 
ATOM     22  C   UNL     1      61.323  63.093  72.332  0.00  0.00    +0.000 A 
ATOM     23  C   UNL     1      61.890  63.542  71.935  0.00  0.00    +0.000 A 
ATOM     24  C   UNL     1      61.885  63.579  71.111  0.00  0.00    +0.000 A 
ENDROOT
TORSDOF 0
ENDMDL
MODEL 2
REMARK VINA RESULT:   -12.101      1.730      1.988
REMARK INTER + INTRA:         -12.101
REMARK INTER:                 -12.101
REMARK INTRA:                   0.000
REMARK UNBOUND:                 0.000
ROOT
REMARK  Name = bumadizone
REMARK                            x       y       z     vdW  Elec       q    Type
REMARK                         _______ _______ _______ _____ _____    ______ ____
ATOM      1  C   UNL     1      59.772  62.360  66.669  0.00  0.00    +0.000 C 
ATOM      2  C   UNL     1      60.124  62.056  67.350  0.00  0.00    +0.000 C 
ATOM      3  C   UNL     1      60.135  62.503  68.043  0.00  0.00    +0.000 C 
ATOM      4  C   UNL     1      60.488  62.199  68.724  0.00  0.00    +0.000 C 
ATOM      5  C   UNL     1      60.499  62.646  69.418  0.00  0.00    +0.000 C 
ATOM      6  C   UNL     1      60.157  63.397  69.431  0.00  0.00    +0.000 C 
ATOM      7  O   UNL     1      60.168  63.844  70.124  0.00  0.00    +0.000 OA
ATOM      8  O   UNL     1      59.805  63.700  68.749  0.00  0.00    +0.000 OA
ATOM      9  C   UNL     1      60.851  62.342  70.100  0.00  0.00    +0.000 C 
ATOM     10  O   UNL     1      61.193  61.591  70.087  0.00  0.00    +0.000 OA
ATOM     11  N   UNL     1      60.862  62.789  70.793  0.00  0.00    +0.000 N 
ATOM     12  N   UNL     1      60.520  63.540  70.805  0.00  0.00    +0.000 NA
ATOM     13  C   UNL     1      60.531  63.987  71.498  0.00  0.00    +0.000 A 
ATOM     14  C   UNL     1      60.884  63.683  72.179  0.00  0.00    +0.000 A 
ATOM     15  C   UNL     1      60.895  64.130  72.873  0.00  0.00    +0.000 A 
ATOM     16  C   UNL     1      60.553  64.881  72.885  0.00  0.00    +0.000 A 
ATOM     17  C   UNL     1      60.201  65.184  72.204  0.00  0.00    +0.000 A 
ATOM     18  C   UNL     1      60.189  64.738  71.510  0.00  0.00    +0.000 A 
ATOM     19  C   UNL     1      61.214  62.485  71.474  0.00  0.00    +0.000 A 
ATOM     20  C   UNL     1      61.556  61.734  71.462  0.00  0.00    +0.000 A 
ATOM     21  C   UNL     1      61.908  61.431  72.143  0.00  0.00    +0.000 A 
ATOM     22  C   UNL     1      61.920  61.877  72.836  0.00  0.00    +0.000 A 
ATOM     23  C   UNL     1      61.578  62.628  72.848  0.00  0.00    +0.000 A 
ATOM     24  C   UNL     1      61.225  62.932  72.167  0.00  0.00    +0.000 A 
ENDROOT
TORSDOF 0
ENDMDL
MODEL 3
REMARK VINA RESULT:   -11.872      1.094      3.663
REMARK INTER + INTRA:         -11.872
REMARK INTER:                 -11.872
REMARK INTRA:                   0.000
REMARK UNBOUND:                 0.000
ROOT
REMARK  Name = bumadizone
REMARK                            x       y       z     vdW  Elec       q    Type
REMARK                         _______ _______ _______ _____ _____    ______ ____
ATOM      1  C   UNL     1      64.785  66.535  70.962  0.00  0.00    +0.000 C 
ATOM      2  C   UNL     1      64.303  65.923  71.236  0.00  0.00    +0.000 C 
ATOM      3  C   UNL     1      63.821  65.511  70.709  0.00  0.00    +0.000 C 
ATOM      4  C   UNL     1      63.340  64.899  70.982  0.00  0.00    +0.000 C 
ATOM      5  C   UNL     1      62.858  64.487  70.455  0.00  0.00    +0.000 C 
ATOM      6  C   UNL     1      62.857  64.685  69.653  0.00  0.00    +0.000 C 
ATOM      7  O   UNL     1      62.375  64.273  69.126  0.00  0.00    +0.000 OA
ATOM      8  O   UNL     1      63.339  65.297  69.381  0.00  0.00    +0.000 OA
ATOM      9  C   UNL     1      62.375  63.875  70.728  0.00  0.00    +0.000 C 
ATOM     10  O   UNL     1      62.375  63.676  71.528  0.00  0.00    +0.000 OA
ATOM     11  N   UNL     1      61.893  63.462  70.200  0.00  0.00    +0.000 N 
ATOM     12  N   UNL     1      61.893  63.661  69.399  0.00  0.00    +0.000 NA
ATOM     13  C   UNL     1      61.411  63.249  68.872  0.00  0.00    +0.000 A 
ATOM     14  C   UNL     1      60.930  62.638  69.146  0.00  0.00    +0.000 A 
ATOM     15  C   UNL     1      60.448  62.225  68.618  0.00  0.00    +0.000 A 
ATOM     16  C   UNL     1      60.448  62.424  67.817  0.00  0.00    +0.000 A 
ATOM     17  C   UNL     1      60.929  63.035  67.544  0.00  0.00    +0.000 A 
ATOM     18  C   UNL     1      61.411  63.448  68.071  0.00  0.00    +0.000 A 
ATOM     19  C   UNL     1      61.412  62.851  70.473  0.00  0.00    +0.000 A 
ATOM     20  C   UNL     1      61.412  62.652  71.274  0.00  0.00    +0.000 A 
ATOM     21  C   UNL     1      60.930  62.041  71.547  0.00  0.00    +0.000 A 
ATOM     22  C   UNL     1      60.448  61.628  71.020  0.00  0.00    +0.000 A 
ATOM     23  C   UNL     1      60.448  61.827  70.219  0.00  0.00    +0.000 A 
ATOM     24  C   UNL     1      60.930  62.439  69.946  0.00  0.00    +0.000 A 
ENDROOT
TORSDOF 0
ENDMDL
MODEL 4
REMARK VINA RESULT:   -11.783      1.436      3.985
REMARK INTER + INTRA:         -11.783
REMARK INTER:                 -11.783
REMARK INTRA:                   0.000
REMARK UNBOUND:                 0.000
ROOT
REMARK  Name = bumadizone
REMARK                            x       y       z     vdW  Elec       q    Type
REMARK                         _______ _______ _______ _____ _____    ______ ____
ATOM      1  C   UNL     1      65.543  66.993  70.001  0.00  0.00    +0.000 C 
ATOM      2  C   UNL     1      65.000  66.503  69.619  0.00  0.00    +0.000 C 
ATOM      3  C   UNL     1      64.492  66.027  70.062  0.00  0.00    +0.000 C 
ATOM      4  C   UNL     1      63.949  65.537  69.680  0.00  0.00    +0.000 C 
ATOM      5  C   UNL     1      63.441  65.061  70.122  0.00  0.00    +0.000 C 
ATOM      6  C   UNL     1      63.476  65.074  70.947  0.00  0.00    +0.000 C 
ATOM      7  O   UNL     1      62.968  64.598  71.390  0.00  0.00    +0.000 OA
ATOM      8  O   UNL     1      64.020  65.564  71.328  0.00  0.00    +0.000 OA
ATOM      9  C   UNL     1      62.897  64.570  69.741  0.00  0.00    +0.000 C 
ATOM     10  O   UNL     1      62.862  64.556  68.917  0.00  0.00    +0.000 OA
ATOM     11  N   UNL     1      62.390  64.094  70.184  0.00  0.00    +0.000 N 
ATOM     12  N   UNL     1      62.425  64.108  71.008  0.00  0.00    +0.000 NA
ATOM     13  C   UNL     1      61.917  63.632  71.451  0.00  0.00    +0.000 A 
ATOM     14  C   UNL     1      61.374  63.142  71.069  0.00  0.00    +0.000 A 
ATOM     15  C   UNL     1      60.866  62.666  71.512  0.00  0.00    +0.000 A 
ATOM     16  C   UNL     1      60.902  62.679  72.336  0.00  0.00    +0.000 A 
ATOM     17  C   UNL     1      61.445  63.169  72.717  0.00  0.00    +0.000 A 
ATOM     18  C   UNL     1      61.953  63.645  72.275  0.00  0.00    +0.000 A 
ATOM     19  C   UNL     1      61.846  63.604  69.803  0.00  0.00    +0.000 A 
ATOM     20  C   UNL     1      61.811  63.590  68.978  0.00  0.00    +0.000 A 
ATOM     21  C   UNL     1      61.268  63.101  68.597  0.00  0.00    +0.000 A 
ATOM     22  C   UNL     1      60.760  62.624  69.039  0.00  0.00    +0.000 A 
ATOM     23  C   UNL     1      60.795  62.638  69.864  0.00  0.00    +0.000 A 
ATOM     24  C   UNL     1      61.339  63.128  70.245  0.00  0.00    +0.000 A 
ENDROOT
TORSDOF 0
ENDMDL
MODEL 5
REMARK VINA RESULT:   -11.559      0.752      2.255
REMARK INTER + INTRA:         -11.559
REMARK INTER:                 -11.559
REMARK INTRA:                   0.000
REMARK UNBOUND:                 0.000
ROOT
REMARK  Name = bumadizone
REMARK                            x       y       z     vdW  Elec       q    Type
REMARK                         _______ _______ _______ _____ _____    ______ ____
ATOM      1  C   UNL     1      60.527  62.042  66.188  0.00  0.00    +0.000 C 
ATOM      2  C   UNL     1      61.010  62.586  66.578  0.00  0.00    +0.000 C 
ATOM      3  C   UNL     1      61.013  62.617  67.402  0.00  0.00    +0.000 C 
ATOM      4  C   UNL     1      61.496  63.161  67.792  0.00  0.00    +0.000 C 
ATOM      5  C   UNL     1      61.499  63.191  68.617  0.00  0.00    +0.000 C 
ATOM      6  C   UNL     1      61.021  62.678  69.052  0.00  0.00    +0.000 C 
ATOM      7  O   UNL     1      61.024  62.709  69.876  0.00  0.00    +0.000 OA
ATOM      8  O   UNL     1      60.539  62.135  68.660  0.00  0.00    +0.000 OA
ATOM      9  C   UNL     1      61.982  63.736  69.008  0.00  0.00    +0.000 C 
ATOM     10  O   UNL     1      62.460  64.248  68.574  0.00  0.00    +0.000 OA
ATOM     11  N   UNL     1      61.986  63.766  69.832  0.00  0.00    +0.000 N 
ATOM     12  N   UNL     1      61.507  63.253  70.266  0.00  0.00    +0.000 NA
ATOM     13  C   UNL     1      61.510  63.284  71.090  0.00  0.00    +0.000 A 
ATOM     14  C   UNL     1      61.993  63.828  71.481  0.00  0.00    +0.000 A 
ATOM     15  C   UNL     1      61.996  63.858  72.305  0.00  0.00    +0.000 A 
ATOM     16  C   UNL     1      61.518  63.345  72.739  0.00  0.00    +0.000 A 
ATOM     17  C   UNL     1      61.036  62.802  72.349  0.00  0.00    +0.000 A 
ATOM     18  C   UNL     1      61.031  62.770  71.525  0.00  0.00    +0.000 A 
ATOM     19  C   UNL     1      62.467  64.310  70.222  0.00  0.00    +0.000 A 
ATOM     20  C   UNL     1      62.946  64.823  69.788  0.00  0.00    +0.000 A 
ATOM     21  C   UNL     1      63.428  65.366  70.178  0.00  0.00    +0.000 A 
ATOM     22  C   UNL     1      63.432  65.398  71.003  0.00  0.00    +0.000 A 
ATOM     23  C   UNL     1      62.954  64.884  71.437  0.00  0.00    +0.000 A 
ATOM     24  C   UNL     1      62.471  64.340  71.047  0.00  0.00    +0.000 A 
ENDROOT
TORSDOF 0
ENDMDL
MODEL 6
REMARK VINA RESULT:   -11.394      2.460      3.786
REMARK INTER + INTRA:         -11.394
REMARK INTER:                 -11.394
REMARK INTRA:                   0.000
REMARK UNBOUND:                 0.000
ROOT
REMARK  Name = bumadizone
REMARK                            x       y       z     vdW  Elec       q    Type
REMARK                         _______ _______ _______ _____ _____    ______ ____
ATOM      1  C   UNL     1      60.514  62.075  70.976  0.00  0.00    +0.000 C 
ATOM      2  C   UNL     1      60.519  62.820  71.332  0.00  0.00    +0.000 C 
ATOM      3  C   UNL     1      61.188  63.299  71.275  0.00  0.00    +0.000 C 
ATOM      4  C   UNL     1      61.193  64.044  71.632  0.00  0.00    +0.000 C 
ATOM      5  C   UNL     1      61.862  64.523  71.575  0.00  0.00    +0.000 C 
ATOM      6  C   UNL     1      62.527  64.259  71.163  0.00  0.00    +0.000 C 
ATOM      7  O   UNL     1      63.196  64.738  71.106  0.00  0.00    +0.000 OA
ATOM      8  O   UNL     1      62.520  63.514  70.807  0.00  0.00    +0.000 OA
ATOM      9  C   UNL     1      61.867  65.268  71.931  0.00  0.00    +0.000 C 
ATOM     10  O   UNL     1      61.204  65.533  72.343  0.00  0.00    +0.000 OA
ATOM     11  N   UNL     1      62.536  65.748  71.875  0.00  0.00    +0.000 N 
ATOM     12  N   UNL     1      63.200  65.483  71.463  0.00  0.00    +0.000 NA
ATOM     13  C   UNL     1      63.869  65.962  71.406  0.00  0.00    +0.000 A 
ATOM     14  C   UNL     1      63.874  66.706  71.762  0.00  0.00    +0.000 A 
ATOM     15  C   UNL     1      64.543  67.186  71.706  0.00  0.00    +0.000 A 
ATOM     16  C   UNL     1      65.207  66.921  71.294  0.00  0.00    +0.000 A 
ATOM     17  C   UNL     1      65.202  66.177  70.938  0.00  0.00    +0.000 A 
ATOM     18  C   UNL     1      64.533  65.697  70.994  0.00  0.00    +0.000 A 
ATOM     19  C   UNL     1      62.542  66.491  72.231  0.00  0.00    +0.000 A 
ATOM     20  C   UNL     1      61.878  66.756  72.643  0.00  0.00    +0.000 A 
ATOM     21  C   UNL     1      61.883  67.500  72.999  0.00  0.00    +0.000 A 
ATOM     22  C   UNL     1      62.551  67.980  72.943  0.00  0.00    +0.000 A 
ATOM     23  C   UNL     1      63.215  67.715  72.530  0.00  0.00    +0.000 A 
ATOM     24  C   UNL     1      63.211  66.971  72.174  0.00  0.00    +0.000 A 
ENDROOT
TORSDOF 0
ENDMDL
MODEL 7
REMARK VINA RESULT:   -11.289      1.954      4.269
REMARK INTER + INTRA:         -11.289
REMARK INTER:                 -11.289
REMARK INTRA:                   0.000
REMARK UNBOUND:                 0.000
ROOT
REMARK  Name = bumadizone
REMARK                            x       y       z     vdW  Elec       q    Type
REMARK                         _______ _______ _______ _____ _____    ______ ____
ATOM      1  C   UNL     1      66.300  67.629  70.098  0.00  0.00    +0.000 C 
ATOM      2  C   UNL     1      65.747  67.313  70.622  0.00  0.00    +0.000 C 
ATOM      3  C   UNL     1      65.186  66.772  70.351  0.00  0.00    +0.000 C 
ATOM      4  C   UNL     1      64.632  66.456  70.875  0.00  0.00    +0.000 C 
ATOM      5  C   UNL     1      64.071  65.915  70.604  0.00  0.00    +0.000 C 
ATOM      6  C   UNL     1      64.063  65.690  69.810  0.00  0.00    +0.000 C 
ATOM      7  O   UNL     1      63.502  65.149  69.539  0.00  0.00    +0.000 OA
ATOM      8  O   UNL     1      64.617  66.007  69.287  0.00  0.00    +0.000 OA
ATOM      9  C   UNL     1      63.516  65.598  71.128  0.00  0.00    +0.000 C 
ATOM     10  O   UNL     1      63.524  65.822  71.921  0.00  0.00    +0.000 OA
ATOM     11  N   UNL     1      62.955  65.057  70.857  0.00  0.00    +0.000 N 
ATOM     12  N   UNL     1      62.948  64.832  70.063  0.00  0.00    +0.000 NA
ATOM     13  C   UNL     1      62.387  64.291  69.793  0.00  0.00    +0.000 A 
ATOM     14  C   UNL     1      61.833  63.975  70.316  0.00  0.00    +0.000 A 
ATOM     15  C   UNL     1      61.272  63.434  70.046  0.00  0.00    +0.000 A 
ATOM     16  C   UNL     1      61.265  63.210  69.251  0.00  0.00    +0.000 A 
ATOM     17  C   UNL     1      61.819  63.526  68.729  0.00  0.00    +0.000 A 
ATOM     18  C   UNL     1      62.380  64.067  68.998  0.00  0.00    +0.000 A 
ATOM     19  C   UNL     1      62.402  64.740  71.380  0.00  0.00    +0.000 A 
ATOM     20  C   UNL     1      62.409  64.965  72.174  0.00  0.00    +0.000 A 
ATOM     21  C   UNL     1      61.856  64.649  72.697  0.00  0.00    +0.000 A 
ATOM     22  C   UNL     1      61.294  64.108  72.428  0.00  0.00    +0.000 A 
ATOM     23  C   UNL     1      61.287  63.883  71.633  0.00  0.00    +0.000 A 
ATOM     24  C   UNL     1      61.841  64.200  71.110  0.00  0.00    +0.000 A 
ENDROOT
TORSDOF 0
ENDMDL
MODEL 8
REMARK VINA RESULT:   -10.175     25.618     27.097
REMARK INTER + INTRA:         -10.175
REMARK INTER:                 -10.175
REMARK INTRA:                   0.000
REMARK UNBOUND:                 0.000
ROOT
REMARK  Name = bumadizone
REMARK                            x       y       z     vdW  Elec       q    Type
REMARK                         _______ _______ _______ _____ _____    ______ ____
ATOM      1  C   UNL     1      67.396  81.120  53.148  0.00  0.00    +0.000 C 
ATOM      2  C   UNL     1      68.199  81.223  52.990  0.00  0.00    +0.000 C 
ATOM      3  C   UNL     1      68.552  80.818  52.365  0.00  0.00    +0.000 C 
ATOM      4  C   UNL     1      69.355  80.921  52.207  0.00  0.00    +0.000 C 
ATOM      5  C   UNL     1      69.708  80.515  51.582  0.00  0.00    +0.000 C 
ATOM      6  C   UNL     1      69.259  80.006  51.113  0.00  0.00    +0.000 C 
ATOM      7  O   UNL     1      69.612  79.600  50.488  0.00  0.00    +0.000 OA
ATOM      8  O   UNL     1      68.455  79.903  51.272  0.00  0.00    +0.000 OA
ATOM      9  C   UNL     1      70.512  80.619  51.424  0.00  0.00    +0.000 C 
ATOM     10  O   UNL     1      70.962  81.127  51.891  0.00  0.00    +0.000 OA
ATOM     11  N   UNL     1      70.865  80.213  50.798  0.00  0.00    +0.000 N 
ATOM     12  N   UNL     1      70.415  79.703  50.330  0.00  0.00    +0.000 NA
ATOM     13  C   UNL     1      70.768  79.298  49.705  0.00  0.00    +0.000 A 
ATOM     14  C   UNL     1      71.571  79.401  49.547  0.00  0.00    +0.000 A 
ATOM     15  C   UNL     1      71.924  78.996  48.922  0.00  0.00    +0.000 A 
ATOM     16  C   UNL     1      71.474  78.486  48.454  0.00  0.00    +0.000 A 
ATOM     17  C   UNL     1      70.671  78.383  48.612  0.00  0.00    +0.000 A 
ATOM     18  C   UNL     1      70.318  78.788  49.237  0.00  0.00    +0.000 A 
ATOM     19  C   UNL     1      71.668  80.316  50.640  0.00  0.00    +0.000 A 
ATOM     20  C   UNL     1      72.118  80.825  51.108  0.00  0.00    +0.000 A 
ATOM     21  C   UNL     1      72.921  80.928  50.951  0.00  0.00    +0.000 A 
ATOM     22  C   UNL     1      73.275  80.523  50.326  0.00  0.00    +0.000 A 
ATOM     23  C   UNL     1      72.824  80.014  49.858  0.00  0.00    +0.000 A 
ATOM     24  C   UNL     1      72.021  79.910  50.015  0.00  0.00    +0.000 A 
ENDROOT
TORSDOF 0
ENDMDL
