MODEL 1
REMARK VINA RESULT:   -11.546      0.000      0.000
REMARK INTER + INTRA:         -11.546
REMARK INTER:                 -11.546
REMARK INTRA:                   0.000
REMARK UNBOUND:                 0.000
ROOT
REMARK  Name = bumetanide
REMARK                            x       y       z     vdW  Elec       q    Type
REMARK                         _______ _______ _______ _____ _____    ______ ____
ATOM      1  C   UNL     1      60.659  62.454  66.977  0.00  0.00    +0.000 C 
ATOM      2  C   UNL     1      60.481  63.137  67.405  0.00  0.00    +0.000 C 
ATOM      3  C   UNL     1      60.421  63.104  68.227  0.00  0.00    +0.000 C 
ATOM      4  C   UNL     1      60.243  63.786  68.655  0.00  0.00    +0.000 C 
ATOM      5  N   UNL     1      60.182  63.753  69.478  0.00  0.00    +0.000 NA
ATOM      6  C   UNL     1      60.004  64.436  69.905  0.00  0.00    +0.000 A 
ATOM      7  C   UNL     1      59.943  64.402  70.728  0.00  0.00    +0.000 A 
ATOM      8  O   UNL     1      60.061  63.687  71.122  0.00  0.00    +0.000 OA
ATOM      9  C   UNL     1      60.239  63.005  70.693  0.00  0.00    +0.000 A 
ATOM     10  C   UNL     1      60.356  62.289  71.088  0.00  0.00    +0.000 A 
ATOM     11  C   UNL     1      60.534  61.607  70.660  0.00  0.00    +0.000 A 
ATOM     12  C   UNL     1      60.595  61.639  69.837  0.00  0.00    +0.000 A 
ATOM     13  C   UNL     1      60.477  62.356  69.443  0.00  0.00    +0.000 A 
ATOM     14  C   UNL     1      60.299  63.038  69.872  0.00  0.00    +0.000 A 
ATOM     15  C   UNL     1      59.765  65.085  71.156  0.00  0.00    +0.000 A 
ATOM     16  C   UNL     1      59.648  65.799  70.762  0.00  0.00    +0.000 A 
ATOM     17  C   UNL     1      59.709  65.833  69.940  0.00  0.00    +0.000 A 
ATOM     18  C   UNL     1      59.887  65.150  69.512  0.00  0.00    +0.000 A 
ATOM     19  C   UNL     1      59.591  66.548  69.546  0.00  0.00    +0.000 C 
ATOM     20  O   UNL     1      59.652  66.581  68.724  0.00  0.00    +0.000 OA
ATOM     21  O   UNL     1      59.413  67.230  69.975  0.00  0.00    +0.000 OA
ATOM     22  S   UNL     1      59.705  65.052  71.979  0.00  0.00    +0.000 S 
ATOM     23  N   UNL     1      59.534  65.859  71.998  0.00  0.00    +0.000 NA
ATOM     24  O   UNL     1      59.875  64.245  71.958  0.00  0.00    +0.000 OA
ATOM     25  O   UNL     1      59.644  65.018  72.801  0.00  0.00    +0.000 OA
ENDROOT
TORSDOF 0
ENDMDL
MODEL 2
REMARK VINA RESULT:   -11.496      1.793      3.301
REMARK INTER + INTRA:         -11.496
REMARK INTER:                 -11.496
REMARK INTRA:                   0.000
REMARK UNBOUND:                 0.000
ROOT
REMARK  Name = bumetanide
REMARK                            x       y       z     vdW  Elec       q    Type
REMARK                         _______ _______ _______ _____ _____    ______ ____
ATOM      1  C   UNL     1      62.156  60.643  72.390  0.00  0.00    +0.000 C 
ATOM      2  C   UNL     1      61.839  60.953  71.694  0.00  0.00    +0.000 C 
ATOM      3  C   UNL     1      61.607  61.745  71.664  0.00  0.00    +0.000 C 
ATOM      4  C   UNL     1      61.290  62.055  70.969  0.00  0.00    +0.000 C 
ATOM      5  N   UNL     1      61.058  62.847  70.939  0.00  0.00    +0.000 NA
ATOM      6  C   UNL     1      60.741  63.157  70.243  0.00  0.00    +0.000 A 
ATOM      7  C   UNL     1      60.509  63.949  70.213  0.00  0.00    +0.000 A 
ATOM      8  O   UNL     1      60.595  64.430  70.878  0.00  0.00    +0.000 OA
ATOM      9  C   UNL     1      60.913  64.119  71.573  0.00  0.00    +0.000 A 
ATOM     10  C   UNL     1      60.999  64.600  72.239  0.00  0.00    +0.000 A 
ATOM     11  C   UNL     1      61.317  64.290  72.933  0.00  0.00    +0.000 A 
ATOM     12  C   UNL     1      61.548  63.498  72.964  0.00  0.00    +0.000 A 
ATOM     13  C   UNL     1      61.462  63.017  72.299  0.00  0.00    +0.000 A 
ATOM     14  C   UNL     1      61.144  63.328  71.603  0.00  0.00    +0.000 A 
ATOM     15  C   UNL     1      60.192  64.259  69.518  0.00  0.00    +0.000 A 
ATOM     16  C   UNL     1      60.106  63.779  68.854  0.00  0.00    +0.000 A 
ATOM     17  C   UNL     1      60.337  62.988  68.883  0.00  0.00    +0.000 A 
ATOM     18  C   UNL     1      60.655  62.677  69.579  0.00  0.00    +0.000 A 
ATOM     19  C   UNL     1      60.251  62.507  68.218  0.00  0.00    +0.000 C 
ATOM     20  O   UNL     1      60.482  61.715  68.249  0.00  0.00    +0.000 OA
ATOM     21  O   UNL     1      59.933  62.817  67.524  0.00  0.00    +0.000 OA
ATOM     22  S   UNL     1      59.960  65.051  69.487  0.00  0.00    +0.000 S 
ATOM     23  N   UNL     1      59.727  64.952  68.702  0.00  0.00    +0.000 NA
ATOM     24  O   UNL     1      60.193  65.149  70.272  0.00  0.00    +0.000 OA
ATOM     25  O   UNL     1      59.729  65.842  69.458  0.00  0.00    +0.000 OA
ENDROOT
TORSDOF 0
ENDMDL
MODEL 3
REMARK VINA RESULT:   -11.194      3.114      3.831
REMARK INTER + INTRA:         -11.194
REMARK INTER:                 -11.194
REMARK INTRA:                   0.000
REMARK UNBOUND:                 0.000
ROOT
REMARK  Name = bumetanide
REMARK                            x       y       z     vdW  Elec       q    Type
REMARK                         _______ _______ _______ _____ _____    ______ ____
ATOM      1  C   UNL     1      60.535  61.872  70.763  0.00  0.00    +0.000 C 
ATOM      2  C   UNL     1      61.183  62.379  70.695  0.00  0.00    +0.000 C 
ATOM      3  C   UNL     1      61.202  63.083  71.125  0.00  0.00    +0.000 C 
ATOM      4  C   UNL     1      61.850  63.590  71.057  0.00  0.00    +0.000 C 
ATOM      5  N   UNL     1      61.869  64.295  71.487  0.00  0.00    +0.000 NA
ATOM      6  C   UNL     1      62.516  64.801  71.419  0.00  0.00    +0.000 A 
ATOM      7  C   UNL     1      62.535  65.506  71.849  0.00  0.00    +0.000 A 
ATOM      8  O   UNL     1      61.907  65.703  72.346  0.00  0.00    +0.000 OA
ATOM      9  C   UNL     1      61.259  65.196  72.413  0.00  0.00    +0.000 A 
ATOM     10  C   UNL     1      60.630  65.393  72.910  0.00  0.00    +0.000 A 
ATOM     11  C   UNL     1      59.983  64.887  72.977  0.00  0.00    +0.000 A 
ATOM     12  C   UNL     1      59.963  64.182  72.548  0.00  0.00    +0.000 A 
ATOM     13  C   UNL     1      60.593  63.985  72.051  0.00  0.00    +0.000 A 
ATOM     14  C   UNL     1      61.240  64.492  71.984  0.00  0.00    +0.000 A 
ATOM     15  C   UNL     1      63.183  66.012  71.782  0.00  0.00    +0.000 A 
ATOM     16  C   UNL     1      63.811  65.815  71.286  0.00  0.00    +0.000 A 
ATOM     17  C   UNL     1      63.792  65.111  70.856  0.00  0.00    +0.000 A 
ATOM     18  C   UNL     1      63.144  64.604  70.923  0.00  0.00    +0.000 A 
ATOM     19  C   UNL     1      64.421  64.913  70.359  0.00  0.00    +0.000 C 
ATOM     20  O   UNL     1      64.401  64.209  69.930  0.00  0.00    +0.000 OA
ATOM     21  O   UNL     1      65.068  65.420  70.292  0.00  0.00    +0.000 OA
ATOM     22  S   UNL     1      63.202  66.717  72.211  0.00  0.00    +0.000 S 
ATOM     23  N   UNL     1      63.939  66.895  71.885  0.00  0.00    +0.000 NA
ATOM     24  O   UNL     1      62.465  66.537  72.537  0.00  0.00    +0.000 OA
ATOM     25  O   UNL     1      63.220  67.421  72.641  0.00  0.00    +0.000 OA
ENDROOT
TORSDOF 0
ENDMDL
MODEL 4
REMARK VINA RESULT:   -11.181      1.132      2.625
REMARK INTER + INTRA:         -11.181
REMARK INTER:                 -11.181
REMARK INTRA:                   0.000
REMARK UNBOUND:                 0.000
ROOT
REMARK  Name = bumetanide
REMARK                            x       y       z     vdW  Elec       q    Type
REMARK                         _______ _______ _______ _____ _____    ______ ____
ATOM      1  C   UNL     1      61.648  61.187  71.656  0.00  0.00    +0.000 C 
ATOM      2  C   UNL     1      61.394  61.959  71.796  0.00  0.00    +0.000 C 
ATOM      3  C   UNL     1      61.116  62.421  71.170  0.00  0.00    +0.000 C 
ATOM      4  C   UNL     1      60.862  63.193  71.310  0.00  0.00    +0.000 C 
ATOM      5  N   UNL     1      60.584  63.655  70.684  0.00  0.00    +0.000 NA
ATOM      6  C   UNL     1      60.330  64.427  70.823  0.00  0.00    +0.000 A 
ATOM      7  C   UNL     1      60.051  64.888  70.198  0.00  0.00    +0.000 A 
ATOM      8  O   UNL     1      60.028  64.577  69.434  0.00  0.00    +0.000 OA
ATOM      9  C   UNL     1      60.282  63.804  69.296  0.00  0.00    +0.000 A 
ATOM     10  C   UNL     1      60.258  63.493  68.531  0.00  0.00    +0.000 A 
ATOM     11  C   UNL     1      60.512  62.721  68.393  0.00  0.00    +0.000 A 
ATOM     12  C   UNL     1      60.790  62.259  69.018  0.00  0.00    +0.000 A 
ATOM     13  C   UNL     1      60.814  62.571  69.782  0.00  0.00    +0.000 A 
ATOM     14  C   UNL     1      60.560  63.343  69.920  0.00  0.00    +0.000 A 
ATOM     15  C   UNL     1      59.797  65.661  70.337  0.00  0.00    +0.000 A 
ATOM     16  C   UNL     1      59.821  65.972  71.100  0.00  0.00    +0.000 A 
ATOM     17  C   UNL     1      60.099  65.511  71.725  0.00  0.00    +0.000 A 
ATOM     18  C   UNL     1      60.353  64.738  71.586  0.00  0.00    +0.000 A 
ATOM     19  C   UNL     1      60.123  65.822  72.489  0.00  0.00    +0.000 C 
ATOM     20  O   UNL     1      60.401  65.360  73.113  0.00  0.00    +0.000 OA
ATOM     21  O   UNL     1      59.869  66.594  72.627  0.00  0.00    +0.000 OA
ATOM     22  S   UNL     1      59.519  66.122  69.712  0.00  0.00    +0.000 S 
ATOM     23  N   UNL     1      59.386  66.748  70.233  0.00  0.00    +0.000 NA
ATOM     24  O   UNL     1      59.652  65.496  69.191  0.00  0.00    +0.000 OA
ATOM     25  O   UNL     1      59.241  66.583  69.086  0.00  0.00    +0.000 OA
ENDROOT
TORSDOF 0
ENDMDL
MODEL 5
REMARK VINA RESULT:   -11.168      3.575      4.968
REMARK INTER + INTRA:         -11.168
REMARK INTER:                 -11.168
REMARK INTRA:                   0.000
REMARK UNBOUND:                 0.000
ROOT
REMARK  Name = bumetanide
REMARK                            x       y       z     vdW  Elec       q    Type
REMARK                         _______ _______ _______ _____ _____    ______ ____
ATOM      1  C   UNL     1      65.721  67.484  71.008  0.00  0.00    +0.000 C 
ATOM      2  C   UNL     1      65.163  66.877  71.013  0.00  0.00    +0.000 C 
ATOM      3  C   UNL     1      64.468  66.960  71.452  0.00  0.00    +0.000 C 
ATOM      4  C   UNL     1      63.910  66.353  71.457  0.00  0.00    +0.000 C 
ATOM      5  N   UNL     1      63.215  66.435  71.896  0.00  0.00    +0.000 NA
ATOM      6  C   UNL     1      62.657  65.828  71.900  0.00  0.00    +0.000 A 
ATOM      7  C   UNL     1      61.962  65.911  72.339  0.00  0.00    +0.000 A 
ATOM      8  O   UNL     1      61.827  66.600  72.772  0.00  0.00    +0.000 OA
ATOM      9  C   UNL     1      62.387  67.206  72.767  0.00  0.00    +0.000 A 
ATOM     10  C   UNL     1      62.251  67.896  73.200  0.00  0.00    +0.000 A 
ATOM     11  C   UNL     1      62.810  68.503  73.195  0.00  0.00    +0.000 A 
ATOM     12  C   UNL     1      63.504  68.421  72.757  0.00  0.00    +0.000 A 
ATOM     13  C   UNL     1      63.640  67.731  72.323  0.00  0.00    +0.000 A 
ATOM     14  C   UNL     1      63.080  67.124  72.329  0.00  0.00    +0.000 A 
ATOM     15  C   UNL     1      61.404  65.304  72.344  0.00  0.00    +0.000 A 
ATOM     16  C   UNL     1      61.539  64.616  71.912  0.00  0.00    +0.000 A 
ATOM     17  C   UNL     1      62.233  64.533  71.473  0.00  0.00    +0.000 A 
ATOM     18  C   UNL     1      62.792  65.140  71.468  0.00  0.00    +0.000 A 
ATOM     19  C   UNL     1      62.368  63.844  71.040  0.00  0.00    +0.000 C 
ATOM     20  O   UNL     1      63.062  63.762  70.602  0.00  0.00    +0.000 OA
ATOM     21  O   UNL     1      61.809  63.237  71.045  0.00  0.00    +0.000 OA
ATOM     22  S   UNL     1      60.709  65.386  72.783  0.00  0.00    +0.000 S 
ATOM     23  N   UNL     1      60.465  64.638  72.536  0.00  0.00    +0.000 NA
ATOM     24  O   UNL     1      60.955  66.134  73.030  0.00  0.00    +0.000 OA
ATOM     25  O   UNL     1      60.016  65.469  73.222  0.00  0.00    +0.000 OA
ENDROOT
TORSDOF 0
ENDMDL
MODEL 6
REMARK VINA RESULT:   -10.936      2.546      3.657
REMARK INTER + INTRA:         -10.936
REMARK INTER:                 -10.936
REMARK INTRA:                   0.000
REMARK UNBOUND:                 0.000
ROOT
REMARK  Name = bumetanide
REMARK                            x       y       z     vdW  Elec       q    Type
REMARK                         _______ _______ _______ _____ _____    ______ ____
ATOM      1  C   UNL     1      63.954  66.486  69.628  0.00  0.00    +0.000 C 
ATOM      2  C   UNL     1      63.519  65.868  69.298  0.00  0.00    +0.000 C 
ATOM      3  C   UNL     1      63.079  65.368  69.785  0.00  0.00    +0.000 C 
ATOM      4  C   UNL     1      62.643  64.750  69.455  0.00  0.00    +0.000 C 
ATOM      5  N   UNL     1      62.203  64.250  69.943  0.00  0.00    +0.000 NA
ATOM      6  C   UNL     1      61.768  63.632  69.613  0.00  0.00    +0.000 A 
ATOM      7  C   UNL     1      61.327  63.132  70.100  0.00  0.00    +0.000 A 
ATOM      8  O   UNL     1      61.323  63.250  70.916  0.00  0.00    +0.000 OA
ATOM      9  C   UNL     1      61.759  63.869  71.245  0.00  0.00    +0.000 A 
ATOM     10  C   UNL     1      61.754  63.988  72.063  0.00  0.00    +0.000 A 
ATOM     11  C   UNL     1      62.189  64.605  72.392  0.00  0.00    +0.000 A 
ATOM     12  C   UNL     1      62.630  65.106  71.905  0.00  0.00    +0.000 A 
ATOM     13  C   UNL     1      62.634  64.987  71.088  0.00  0.00    +0.000 A 
ATOM     14  C   UNL     1      62.198  64.368  70.759  0.00  0.00    +0.000 A 
ATOM     15  C   UNL     1      60.892  62.514  69.770  0.00  0.00    +0.000 A 
ATOM     16  C   UNL     1      60.897  62.395  68.954  0.00  0.00    +0.000 A 
ATOM     17  C   UNL     1      61.336  62.895  68.467  0.00  0.00    +0.000 A 
ATOM     18  C   UNL     1      61.772  63.514  68.797  0.00  0.00    +0.000 A 
ATOM     19  C   UNL     1      61.341  62.776  67.651  0.00  0.00    +0.000 C 
ATOM     20  O   UNL     1      61.781  63.277  67.164  0.00  0.00    +0.000 OA
ATOM     21  O   UNL     1      60.906  62.158  67.322  0.00  0.00    +0.000 OA
ATOM     22  S   UNL     1      60.452  62.013  70.257  0.00  0.00    +0.000 S 
ATOM     23  N   UNL     1      60.203  61.588  69.595  0.00  0.00    +0.000 NA
ATOM     24  O   UNL     1      60.701  62.439  70.918  0.00  0.00    +0.000 OA
ATOM     25  O   UNL     1      60.012  61.514  70.745  0.00  0.00    +0.000 OA
ENDROOT
TORSDOF 0
ENDMDL
MODEL 7
REMARK VINA RESULT:   -10.868      2.273      2.968
REMARK INTER + INTRA:         -10.868
REMARK INTER:                 -10.868
REMARK INTRA:                   0.000
REMARK UNBOUND:                 0.000
ROOT
REMARK  Name = bumetanide
REMARK                            x       y       z     vdW  Elec       q    Type
REMARK                         _______ _______ _______ _____ _____    ______ ____
ATOM      1  C   UNL     1      60.506  61.628  70.579  0.00  0.00    +0.000 C 
ATOM      2  C   UNL     1      60.126  62.256  70.956  0.00  0.00    +0.000 C 
ATOM      3  C   UNL     1      60.547  62.943  71.137  0.00  0.00    +0.000 C 
ATOM      4  C   UNL     1      60.168  63.570  71.515  0.00  0.00    +0.000 C 
ATOM      5  N   UNL     1      60.589  64.257  71.696  0.00  0.00    +0.000 NA
ATOM      6  C   UNL     1      60.209  64.885  72.073  0.00  0.00    +0.000 A 
ATOM      7  C   UNL     1      60.630  65.572  72.254  0.00  0.00    +0.000 A 
ATOM      8  O   UNL     1      61.429  65.631  72.057  0.00  0.00    +0.000 OA
ATOM      9  C   UNL     1      61.807  65.002  71.679  0.00  0.00    +0.000 A 
ATOM     10  C   UNL     1      62.607  65.061  71.482  0.00  0.00    +0.000 A 
ATOM     11  C   UNL     1      62.986  64.433  71.105  0.00  0.00    +0.000 A 
ATOM     12  C   UNL     1      62.566  63.746  70.923  0.00  0.00    +0.000 A 
ATOM     13  C   UNL     1      61.766  63.687  71.121  0.00  0.00    +0.000 A 
ATOM     14  C   UNL     1      61.388  64.316  71.499  0.00  0.00    +0.000 A 
ATOM     15  C   UNL     1      60.251  66.200  72.632  0.00  0.00    +0.000 A 
ATOM     16  C   UNL     1      59.453  66.141  72.828  0.00  0.00    +0.000 A 
ATOM     17  C   UNL     1      59.032  65.455  72.648  0.00  0.00    +0.000 A 
ATOM     18  C   UNL     1      59.411  64.827  72.270  0.00  0.00    +0.000 A 
ATOM     19  C   UNL     1      58.233  65.397  72.845  0.00  0.00    +0.000 C 
ATOM     20  O   UNL     1      57.813  64.710  72.664  0.00  0.00    +0.000 OA
ATOM     21  O   UNL     1      57.855  66.024  73.222  0.00  0.00    +0.000 OA
ATOM     22  S   UNL     1      60.671  66.887  72.812  0.00  0.00    +0.000 S 
ATOM     23  N   UNL     1      59.991  67.215  73.144  0.00  0.00    +0.000 NA
ATOM     24  O   UNL     1      61.351  66.557  72.481  0.00  0.00    +0.000 OA
ATOM     25  O   UNL     1      61.092  67.573  72.993  0.00  0.00    +0.000 OA
ENDROOT
TORSDOF 0
ENDMDL
MODEL 8
REMARK VINA RESULT:   -10.814      3.087      4.057
REMARK INTER + INTRA:         -10.814
REMARK INTER:                 -10.814
REMARK INTRA:                   0.000
REMARK UNBOUND:                 0.000
ROOT
REMARK  Name = bumetanide
REMARK                            x       y       z     vdW  Elec       q    Type
REMARK                         _______ _______ _______ _____ _____    ______ ____
ATOM      1  C   UNL     1      59.008  65.067  73.222  0.00  0.00    +0.000 C 
ATOM      2  C   UNL     1      59.752  65.373  73.041  0.00  0.00    +0.000 C 
ATOM      3  C   UNL     1      60.257  64.959  72.536  0.00  0.00    +0.000 C 
ATOM      4  C   UNL     1      61.001  65.265  72.355  0.00  0.00    +0.000 C 
ATOM      5  N   UNL     1      61.505  64.851  71.849  0.00  0.00    +0.000 NA
ATOM      6  C   UNL     1      62.250  65.157  71.669  0.00  0.00    +0.000 A 
ATOM      7  C   UNL     1      62.754  64.743  71.163  0.00  0.00    +0.000 A 
ATOM      8  O   UNL     1      62.514  64.023  70.839  0.00  0.00    +0.000 OA
ATOM      9  C   UNL     1      61.769  63.718  71.020  0.00  0.00    +0.000 A 
ATOM     10  C   UNL     1      61.528  62.998  70.696  0.00  0.00    +0.000 A 
ATOM     11  C   UNL     1      60.784  62.692  70.877  0.00  0.00    +0.000 A 
ATOM     12  C   UNL     1      60.280  63.105  71.382  0.00  0.00    +0.000 A 
ATOM     13  C   UNL     1      60.520  63.826  71.707  0.00  0.00    +0.000 A 
ATOM     14  C   UNL     1      61.265  64.131  71.525  0.00  0.00    +0.000 A 
ATOM     15  C   UNL     1      63.498  65.049  70.982  0.00  0.00    +0.000 A 
ATOM     16  C   UNL     1      63.738  65.768  71.306  0.00  0.00    +0.000 A 
ATOM     17  C   UNL     1      63.235  66.182  71.811  0.00  0.00    +0.000 A 
ATOM     18  C   UNL     1      62.490  65.876  71.992  0.00  0.00    +0.000 A 
ATOM     19  C   UNL     1      63.475  66.902  72.135  0.00  0.00    +0.000 C 
ATOM     20  O   UNL     1      62.970  67.315  72.640  0.00  0.00    +0.000 OA
ATOM     21  O   UNL     1      64.219  67.207  71.954  0.00  0.00    +0.000 OA
ATOM     22  S   UNL     1      64.003  64.635  70.476  0.00  0.00    +0.000 S 
ATOM     23  N   UNL     1      64.571  65.228  70.559  0.00  0.00    +0.000 NA
ATOM     24  O   UNL     1      63.434  64.043  70.394  0.00  0.00    +0.000 OA
ATOM     25  O   UNL     1      64.506  64.221  69.971  0.00  0.00    +0.000 OA
ENDROOT
TORSDOF 0
ENDMDL
