MODEL 1
REMARK VINA RESULT:   -12.843      0.000      0.000
REMARK INTER + INTRA:         -12.843
REMARK INTER:                 -12.843
REMARK INTRA:                   0.000
REMARK UNBOUND:                 0.000
ROOT
REMARK  Name = bunazosin
REMARK                            x       y       z     vdW  Elec       q    Type
REMARK                         _______ _______ _______ _____ _____    ______ ____
ATOM      1  C   UNL     1      61.621  65.222  72.792  0.00  0.00    +0.000 C 
ATOM      2  C   UNL     1      61.065  64.870  72.295  0.00  0.00    +0.000 C 
ATOM      3  C   UNL     1      61.287  64.613  71.543  0.00  0.00    +0.000 C 
ATOM      4  C   UNL     1      60.731  64.261  71.046  0.00  0.00    +0.000 C 
ATOM      5  O   UNL     1      59.951  64.167  71.300  0.00  0.00    +0.000 OA
ATOM      6  N   UNL     1      60.954  64.003  70.294  0.00  0.00    +0.000 N 
ATOM      7  C   UNL     1      61.745  64.124  70.095  0.00  0.00    +0.000 C 
ATOM      8  C   UNL     1      62.134  63.930  69.393  0.00  0.00    +0.000 C 
ATOM      9  C   UNL     1      61.828  63.568  68.718  0.00  0.00    +0.000 C 
ATOM     10  N   UNL     1      61.056  63.311  68.578  0.00  0.00    +0.000 N 
ATOM     11  C   UNL     1      60.401  63.352  69.078  0.00  0.00    +0.000 C 
ATOM     12  C   UNL     1      60.355  63.660  69.842  0.00  0.00    +0.000 C 
ATOM     13  C   UNL     1      60.923  62.967  67.840  0.00  0.00    +0.000 A 
ATOM     14  N   UNL     1      61.540  62.900  67.298  0.00  0.00    +0.000 NA
ATOM     15  C   UNL     1      61.407  62.556  66.561  0.00  0.00    +0.000 A 
ATOM     16  C   UNL     1      62.025  62.488  66.018  0.00  0.00    +0.000 A 
ATOM     17  C   UNL     1      61.891  62.145  65.281  0.00  0.00    +0.000 A 
ATOM     18  O   UNL     1      62.509  62.077  64.738  0.00  0.00    +0.000 OA
ATOM     19  C   UNL     1      62.376  61.734  64.001  0.00  0.00    +0.000 C 
ATOM     20  C   UNL     1      61.138  61.869  65.085  0.00  0.00    +0.000 A 
ATOM     21  O   UNL     1      61.005  61.525  64.346  0.00  0.00    +0.000 OA
ATOM     22  C   UNL     1      61.622  61.457  63.805  0.00  0.00    +0.000 C 
ATOM     23  C   UNL     1      60.520  61.936  65.626  0.00  0.00    +0.000 A 
ATOM     24  C   UNL     1      60.654  62.280  66.365  0.00  0.00    +0.000 A 
ATOM     25  C   UNL     1      60.036  62.348  66.906  0.00  0.00    +0.000 A 
ATOM     26  N   UNL     1      59.283  62.072  66.710  0.00  0.00    +0.000 NA
ATOM     27  N   UNL     1      60.169  62.691  67.644  0.00  0.00    +0.000 NA
ENDROOT
TORSDOF 0
ENDMDL
MODEL 2
REMARK VINA RESULT:   -12.135      0.914      5.905
REMARK INTER + INTRA:         -12.135
REMARK INTER:                 -12.135
REMARK INTRA:                   0.000
REMARK UNBOUND:                 0.000
ROOT
REMARK  Name = bunazosin
REMARK                            x       y       z     vdW  Elec       q    Type
REMARK                         _______ _______ _______ _____ _____    ______ ____
ATOM      1  C   UNL     1      60.506  60.881  64.065  0.00  0.00    +0.000 C 
ATOM      2  C   UNL     1      61.044  61.306  64.525  0.00  0.00    +0.000 C 
ATOM      3  C   UNL     1      60.814  61.606  65.258  0.00  0.00    +0.000 C 
ATOM      4  C   UNL     1      61.351  62.030  65.718  0.00  0.00    +0.000 C 
ATOM      5  O   UNL     1      62.120  62.156  65.444  0.00  0.00    +0.000 OA
ATOM      6  N   UNL     1      61.121  62.330  66.451  0.00  0.00    +0.000 N 
ATOM      7  C   UNL     1      60.342  62.174  66.673  0.00  0.00    +0.000 C 
ATOM      8  C   UNL     1      59.950  62.395  67.364  0.00  0.00    +0.000 C 
ATOM      9  C   UNL     1      60.239  62.827  68.004  0.00  0.00    +0.000 C 
ATOM     10  N   UNL     1      60.994  63.145  68.111  0.00  0.00    +0.000 N 
ATOM     11  C   UNL     1      61.644  63.109  67.604  0.00  0.00    +0.000 C 
ATOM     12  C   UNL     1      61.701  62.746  66.866  0.00  0.00    +0.000 C 
ATOM     13  C   UNL     1      61.113  63.552  68.819  0.00  0.00    +0.000 A 
ATOM     14  N   UNL     1      60.498  63.621  69.364  0.00  0.00    +0.000 NA
ATOM     15  C   UNL     1      60.618  64.028  70.071  0.00  0.00    +0.000 A 
ATOM     16  C   UNL     1      60.003  64.097  70.617  0.00  0.00    +0.000 A 
ATOM     17  C   UNL     1      60.123  64.504  71.324  0.00  0.00    +0.000 A 
ATOM     18  O   UNL     1      59.508  64.573  71.870  0.00  0.00    +0.000 OA
ATOM     19  C   UNL     1      59.627  64.981  72.577  0.00  0.00    +0.000 C 
ATOM     20  C   UNL     1      60.858  64.844  71.486  0.00  0.00    +0.000 A 
ATOM     21  O   UNL     1      60.977  65.251  72.193  0.00  0.00    +0.000 OA
ATOM     22  C   UNL     1      60.363  65.320  72.739  0.00  0.00    +0.000 C 
ATOM     23  C   UNL     1      61.472  64.775  70.940  0.00  0.00    +0.000 A 
ATOM     24  C   UNL     1      61.353  64.368  70.233  0.00  0.00    +0.000 A 
ATOM     25  C   UNL     1      61.968  64.299  69.687  0.00  0.00    +0.000 A 
ATOM     26  N   UNL     1      62.702  64.638  69.849  0.00  0.00    +0.000 NA
ATOM     27  N   UNL     1      61.848  63.892  68.981  0.00  0.00    +0.000 NA
ENDROOT
TORSDOF 0
ENDMDL
MODEL 3
REMARK VINA RESULT:   -11.873      2.521      3.405
REMARK INTER + INTRA:         -11.873
REMARK INTER:                 -11.873
REMARK INTRA:                   0.000
REMARK UNBOUND:                 0.000
ROOT
REMARK  Name = bunazosin
REMARK                            x       y       z     vdW  Elec       q    Type
REMARK                         _______ _______ _______ _____ _____    ______ ____
ATOM      1  C   UNL     1      66.488  66.854  71.894  0.00  0.00    +0.000 C 
ATOM      2  C   UNL     1      65.664  66.832  71.891  0.00  0.00    +0.000 C 
ATOM      3  C   UNL     1      65.266  66.356  71.347  0.00  0.00    +0.000 C 
ATOM      4  C   UNL     1      64.441  66.334  71.344  0.00  0.00    +0.000 C 
ATOM      5  O   UNL     1      64.014  66.789  71.884  0.00  0.00    +0.000 OA
ATOM      6  N   UNL     1      64.043  65.857  70.801  0.00  0.00    +0.000 N 
ATOM      7  C   UNL     1      64.522  65.425  70.286  0.00  0.00    +0.000 C 
ATOM      8  C   UNL     1      64.295  64.905  69.687  0.00  0.00    +0.000 C 
ATOM      9  C   UNL     1      63.533  64.688  69.455  0.00  0.00    +0.000 C 
ATOM     10  N   UNL     1      62.810  64.938  69.766  0.00  0.00    +0.000 N 
ATOM     11  C   UNL     1      62.671  65.467  70.384  0.00  0.00    +0.000 C 
ATOM     12  C   UNL     1      63.219  65.876  70.844  0.00  0.00    +0.000 C 
ATOM     13  C   UNL     1      62.139  64.617  69.410  0.00  0.00    +0.000 A 
ATOM     14  N   UNL     1      62.217  64.083  68.787  0.00  0.00    +0.000 NA
ATOM     15  C   UNL     1      61.545  63.762  68.432  0.00  0.00    +0.000 A 
ATOM     16  C   UNL     1      61.623  63.227  67.808  0.00  0.00    +0.000 A 
ATOM     17  C   UNL     1      60.952  62.906  67.454  0.00  0.00    +0.000 A 
ATOM     18  O   UNL     1      61.029  62.372  66.830  0.00  0.00    +0.000 OA
ATOM     19  C   UNL     1      60.358  62.051  66.475  0.00  0.00    +0.000 C 
ATOM     20  C   UNL     1      60.200  63.120  67.722  0.00  0.00    +0.000 A 
ATOM     21  O   UNL     1      59.529  62.799  67.367  0.00  0.00    +0.000 OA
ATOM     22  C   UNL     1      59.607  62.265  66.744  0.00  0.00    +0.000 C 
ATOM     23  C   UNL     1      60.122  63.654  68.345  0.00  0.00    +0.000 A 
ATOM     24  C   UNL     1      60.794  63.976  68.701  0.00  0.00    +0.000 A 
ATOM     25  C   UNL     1      60.716  64.510  69.324  0.00  0.00    +0.000 A 
ATOM     26  N   UNL     1      59.966  64.724  69.592  0.00  0.00    +0.000 NA
ATOM     27  N   UNL     1      61.387  64.831  69.679  0.00  0.00    +0.000 NA
ENDROOT
TORSDOF 0
ENDMDL
MODEL 4
REMARK VINA RESULT:   -11.608      3.737      5.527
REMARK INTER + INTRA:         -11.608
REMARK INTER:                 -11.608
REMARK INTRA:                   0.000
REMARK UNBOUND:                 0.000
ROOT
REMARK  Name = bunazosin
REMARK                            x       y       z     vdW  Elec       q    Type
REMARK                         _______ _______ _______ _____ _____    ______ ____
ATOM      1  C   UNL     1      67.111  68.246  69.475  0.00  0.00    +0.000 C 
ATOM      2  C   UNL     1      66.597  68.059  70.093  0.00  0.00    +0.000 C 
ATOM      3  C   UNL     1      66.053  67.445  70.005  0.00  0.00    +0.000 C 
ATOM      4  C   UNL     1      65.540  67.257  70.623  0.00  0.00    +0.000 C 
ATOM      5  O   UNL     1      65.569  67.685  71.328  0.00  0.00    +0.000 OA
ATOM      6  N   UNL     1      64.996  66.643  70.536  0.00  0.00    +0.000 N 
ATOM      7  C   UNL     1      65.012  66.252  69.809  0.00  0.00    +0.000 C 
ATOM      8  C   UNL     1      64.544  65.622  69.554  0.00  0.00    +0.000 C 
ATOM      9  C   UNL     1      63.945  65.228  69.961  0.00  0.00    +0.000 C 
ATOM     10  N   UNL     1      63.665  65.367  70.726  0.00  0.00    +0.000 N 
ATOM     11  C   UNL     1      63.916  65.934  71.270  0.00  0.00    +0.000 C 
ATOM     12  C   UNL     1      64.508  66.501  71.186  0.00  0.00    +0.000 C 
ATOM     13  C   UNL     1      63.054  64.873  70.978  0.00  0.00    +0.000 A 
ATOM     14  N   UNL     1      62.763  64.287  70.476  0.00  0.00    +0.000 NA
ATOM     15  C   UNL     1      62.152  63.794  70.728  0.00  0.00    +0.000 A 
ATOM     16  C   UNL     1      61.860  63.208  70.226  0.00  0.00    +0.000 A 
ATOM     17  C   UNL     1      61.249  62.715  70.478  0.00  0.00    +0.000 A 
ATOM     18  O   UNL     1      60.957  62.129  69.976  0.00  0.00    +0.000 OA
ATOM     19  C   UNL     1      60.346  61.636  70.228  0.00  0.00    +0.000 C 
ATOM     20  C   UNL     1      60.929  62.808  71.234  0.00  0.00    +0.000 A 
ATOM     21  O   UNL     1      60.318  62.314  71.486  0.00  0.00    +0.000 OA
ATOM     22  C   UNL     1      60.027  61.728  70.984  0.00  0.00    +0.000 C 
ATOM     23  C   UNL     1      61.221  63.393  71.736  0.00  0.00    +0.000 A 
ATOM     24  C   UNL     1      61.832  63.887  71.484  0.00  0.00    +0.000 A 
ATOM     25  C   UNL     1      62.124  64.472  71.986  0.00  0.00    +0.000 A 
ATOM     26  N   UNL     1      61.804  64.564  72.741  0.00  0.00    +0.000 NA
ATOM     27  N   UNL     1      62.734  64.965  71.733  0.00  0.00    +0.000 NA
ENDROOT
TORSDOF 0
ENDMDL
MODEL 5
REMARK VINA RESULT:   -11.237      1.154      2.148
REMARK INTER + INTRA:         -11.237
REMARK INTER:                 -11.237
REMARK INTRA:                   0.000
REMARK UNBOUND:                 0.000
ROOT
REMARK  Name = bunazosin
REMARK                            x       y       z     vdW  Elec       q    Type
REMARK                         _______ _______ _______ _____ _____    ______ ____
ATOM      1  C   UNL     1      60.113  63.773  71.693  0.00  0.00    +0.000 C 
ATOM      2  C   UNL     1      60.659  63.882  71.086  0.00  0.00    +0.000 C 
ATOM      3  C   UNL     1      60.558  63.493  70.365  0.00  0.00    +0.000 C 
ATOM      4  C   UNL     1      61.105  63.601  69.757  0.00  0.00    +0.000 C 
ATOM      5  O   UNL     1      61.754  64.099  69.869  0.00  0.00    +0.000 OA
ATOM      6  N   UNL     1      61.004  63.212  69.036  0.00  0.00    +0.000 N 
ATOM      7  C   UNL     1      60.338  62.728  68.982  0.00  0.00    +0.000 C 
ATOM      8  C   UNL     1      60.085  62.271  68.343  0.00  0.00    +0.000 C 
ATOM      9  C   UNL     1      60.436  62.185  67.601  0.00  0.00    +0.000 C 
ATOM     10  N   UNL     1      61.126  62.535  67.315  0.00  0.00    +0.000 N 
ATOM     11  C   UNL     1      61.636  63.058  67.700  0.00  0.00    +0.000 C 
ATOM     12  C   UNL     1      61.582  63.359  68.466  0.00  0.00    +0.000 C 
ATOM     13  C   UNL     1      61.334  62.337  66.541  0.00  0.00    +0.000 A 
ATOM     14  N   UNL     1      60.862  61.818  66.108  0.00  0.00    +0.000 NA
ATOM     15  C   UNL     1      61.070  61.620  65.335  0.00  0.00    +0.000 A 
ATOM     16  C   UNL     1      60.598  61.101  64.900  0.00  0.00    +0.000 A 
ATOM     17  C   UNL     1      60.805  60.903  64.128  0.00  0.00    +0.000 A 
ATOM     18  O   UNL     1      60.333  60.384  63.693  0.00  0.00    +0.000 OA
ATOM     19  C   UNL     1      60.541  60.186  62.920  0.00  0.00    +0.000 C 
ATOM     20  C   UNL     1      61.487  61.223  63.788  0.00  0.00    +0.000 A 
ATOM     21  O   UNL     1      61.694  61.024  63.014  0.00  0.00    +0.000 OA
ATOM     22  C   UNL     1      61.222  60.506  62.581  0.00  0.00    +0.000 C 
ATOM     23  C   UNL     1      61.959  61.741  64.222  0.00  0.00    +0.000 A 
ATOM     24  C   UNL     1      61.751  61.940  64.995  0.00  0.00    +0.000 A 
ATOM     25  C   UNL     1      62.223  62.459  65.429  0.00  0.00    +0.000 A 
ATOM     26  N   UNL     1      62.904  62.779  65.090  0.00  0.00    +0.000 NA
ATOM     27  N   UNL     1      62.015  62.657  66.202  0.00  0.00    +0.000 NA
ENDROOT
TORSDOF 0
ENDMDL
