MODEL 1
REMARK VINA RESULT:   -12.352      0.000      0.000
REMARK INTER + INTRA:         -12.352
REMARK INTER:                 -12.352
REMARK INTRA:                   0.000
REMARK UNBOUND:                 0.000
ROOT
REMARK  Name = butalamine
REMARK                            x       y       z     vdW  Elec       q    Type
REMARK                         _______ _______ _______ _____ _____    ______ ____
ATOM      1  C   UNL     1      60.793  63.942  72.744  0.00  0.00    +0.000 C 
ATOM      2  C   UNL     1      60.517  63.518  72.093  0.00  0.00    +0.000 C 
ATOM      3  C   UNL     1      60.919  63.558  71.373  0.00  0.00    +0.000 C 
ATOM      4  C   UNL     1      60.642  63.133  70.723  0.00  0.00    +0.000 C 
ATOM      5  N   UNL     1      61.044  63.173  70.003  0.00  0.00    +0.000 NA
ATOM      6  C   UNL     1      61.724  63.636  69.935  0.00  0.00    +0.000 C 
ATOM      7  C   UNL     1      62.000  64.061  70.586  0.00  0.00    +0.000 C 
ATOM      8  C   UNL     1      62.679  64.524  70.519  0.00  0.00    +0.000 C 
ATOM      9  C   UNL     1      62.956  64.948  71.169  0.00  0.00    +0.000 C 
ATOM     10  C   UNL     1      60.768  62.749  69.352  0.00  0.00    +0.000 C 
ATOM     11  C   UNL     1      61.170  62.788  68.633  0.00  0.00    +0.000 C 
ATOM     12  N   UNL     1      60.893  62.364  67.982  0.00  0.00    +0.000 NA
ATOM     13  C   UNL     1      61.295  62.404  67.263  0.00  0.00    +0.000 A 
ATOM     14  N   UNL     1      61.085  62.012  66.567  0.00  0.00    +0.000 NA
ATOM     15  C   UNL     1      61.638  62.208  65.987  0.00  0.00    +0.000 A 
ATOM     16  N   UNL     1      62.190  62.721  66.324  0.00  0.00    +0.000 NA
ATOM     17  O   UNL     1      61.978  62.841  67.111  0.00  0.00    +0.000 OA
ATOM     18  C   UNL     1      61.639  61.939  65.208  0.00  0.00    +0.000 A 
ATOM     19  C   UNL     1      61.048  61.425  64.948  0.00  0.00    +0.000 A 
ATOM     20  C   UNL     1      61.049  61.155  64.168  0.00  0.00    +0.000 A 
ATOM     21  C   UNL     1      61.641  61.400  63.648  0.00  0.00    +0.000 A 
ATOM     22  C   UNL     1      62.231  61.913  63.908  0.00  0.00    +0.000 A 
ATOM     23  C   UNL     1      62.231  62.183  64.687  0.00  0.00    +0.000 A 
ENDROOT
TORSDOF 0
ENDMDL
MODEL 2
REMARK VINA RESULT:   -11.588      1.916      5.820
REMARK INTER + INTRA:         -11.588
REMARK INTER:                 -11.588
REMARK INTRA:                   0.000
REMARK UNBOUND:                 0.000
ROOT
REMARK  Name = butalamine
REMARK                            x       y       z     vdW  Elec       q    Type
REMARK                         _______ _______ _______ _____ _____    ______ ____
ATOM      1  C   UNL     1      59.096  61.869  66.105  0.00  0.00    +0.000 C 
ATOM      2  C   UNL     1      59.222  62.346  66.766  0.00  0.00    +0.000 C 
ATOM      3  C   UNL     1      59.985  62.598  66.954  0.00  0.00    +0.000 C 
ATOM      4  C   UNL     1      60.109  63.075  67.615  0.00  0.00    +0.000 C 
ATOM      5  N   UNL     1      60.872  63.327  67.803  0.00  0.00    +0.000 NA
ATOM      6  C   UNL     1      61.510  63.103  67.330  0.00  0.00    +0.000 C 
ATOM      7  C   UNL     1      61.384  62.626  66.668  0.00  0.00    +0.000 C 
ATOM      8  C   UNL     1      62.021  62.402  66.195  0.00  0.00    +0.000 C 
ATOM      9  C   UNL     1      61.896  61.925  65.534  0.00  0.00    +0.000 C 
ATOM     10  C   UNL     1      60.998  63.804  68.465  0.00  0.00    +0.000 C 
ATOM     11  C   UNL     1      61.761  64.057  68.652  0.00  0.00    +0.000 C 
ATOM     12  N   UNL     1      61.886  64.533  69.314  0.00  0.00    +0.000 NA
ATOM     13  C   UNL     1      62.649  64.786  69.501  0.00  0.00    +0.000 A 
ATOM     14  N   UNL     1      62.858  65.262  70.142  0.00  0.00    +0.000 NA
ATOM     15  C   UNL     1      63.675  65.377  70.119  0.00  0.00    +0.000 A 
ATOM     16  N   UNL     1      63.970  64.972  69.463  0.00  0.00    +0.000 NA
ATOM     17  O   UNL     1      63.336  64.607  69.082  0.00  0.00    +0.000 OA
ATOM     18  C   UNL     1      64.117  65.819  70.655  0.00  0.00    +0.000 A 
ATOM     19  C   UNL     1      63.744  66.195  71.287  0.00  0.00    +0.000 A 
ATOM     20  C   UNL     1      64.187  66.638  71.825  0.00  0.00    +0.000 A 
ATOM     21  C   UNL     1      65.004  66.704  71.730  0.00  0.00    +0.000 A 
ATOM     22  C   UNL     1      65.378  66.328  71.098  0.00  0.00    +0.000 A 
ATOM     23  C   UNL     1      64.935  65.885  70.561  0.00  0.00    +0.000 A 
ENDROOT
TORSDOF 0
ENDMDL
MODEL 3
REMARK VINA RESULT:   -11.036      0.907      5.882
REMARK INTER + INTRA:         -11.036
REMARK INTER:                 -11.036
REMARK INTRA:                   0.000
REMARK UNBOUND:                 0.000
ROOT
REMARK  Name = butalamine
REMARK                            x       y       z     vdW  Elec       q    Type
REMARK                         _______ _______ _______ _____ _____    ______ ____
ATOM      1  C   UNL     1      60.466  60.895  63.834  0.00  0.00    +0.000 C 
ATOM      2  C   UNL     1      60.156  60.975  64.594  0.00  0.00    +0.000 C 
ATOM      3  C   UNL     1      60.578  61.392  65.169  0.00  0.00    +0.000 C 
ATOM      4  C   UNL     1      60.268  61.472  65.929  0.00  0.00    +0.000 C 
ATOM      5  N   UNL     1      60.689  61.888  66.504  0.00  0.00    +0.000 NA
ATOM      6  C   UNL     1      61.420  62.224  66.318  0.00  0.00    +0.000 C 
ATOM      7  C   UNL     1      61.729  62.143  65.558  0.00  0.00    +0.000 C 
ATOM      8  C   UNL     1      62.459  62.478  65.372  0.00  0.00    +0.000 C 
ATOM      9  C   UNL     1      62.769  62.398  64.612  0.00  0.00    +0.000 C 
ATOM     10  C   UNL     1      60.380  61.969  67.264  0.00  0.00    +0.000 C 
ATOM     11  C   UNL     1      60.801  62.386  67.839  0.00  0.00    +0.000 C 
ATOM     12  N   UNL     1      60.491  62.466  68.599  0.00  0.00    +0.000 NA
ATOM     13  C   UNL     1      60.912  62.882  69.174  0.00  0.00    +0.000 A 
ATOM     14  N   UNL     1      60.674  63.008  69.954  0.00  0.00    +0.000 NA
ATOM     15  C   UNL     1      61.260  63.449  70.332  0.00  0.00    +0.000 A 
ATOM     16  N   UNL     1      61.861  63.596  69.785  0.00  0.00    +0.000 NA
ATOM     17  O   UNL     1      61.645  63.246  69.070  0.00  0.00    +0.000 OA
ATOM     18  C   UNL     1      61.247  63.699  71.117  0.00  0.00    +0.000 A 
ATOM     19  C   UNL     1      60.606  63.509  71.600  0.00  0.00    +0.000 A 
ATOM     20  C   UNL     1      60.594  63.760  72.387  0.00  0.00    +0.000 A 
ATOM     21  C   UNL     1      61.223  64.200  72.690  0.00  0.00    +0.000 A 
ATOM     22  C   UNL     1      61.864  64.389  72.206  0.00  0.00    +0.000 A 
ATOM     23  C   UNL     1      61.877  64.140  71.420  0.00  0.00    +0.000 A 
ENDROOT
TORSDOF 0
ENDMDL
MODEL 4
REMARK VINA RESULT:   -10.985      2.913      5.825
REMARK INTER + INTRA:         -10.985
REMARK INTER:                 -10.985
REMARK INTRA:                   0.000
REMARK UNBOUND:                 0.000
ROOT
REMARK  Name = butalamine
REMARK                            x       y       z     vdW  Elec       q    Type
REMARK                         _______ _______ _______ _____ _____    ______ ____
ATOM      1  C   UNL     1      59.914  61.267  70.593  0.00  0.00    +0.000 C 
ATOM      2  C   UNL     1      60.526  61.670  70.971  0.00  0.00    +0.000 C 
ATOM      3  C   UNL     1      60.939  62.262  70.571  0.00  0.00    +0.000 C 
ATOM      4  C   UNL     1      61.551  62.665  70.950  0.00  0.00    +0.000 C 
ATOM      5  N   UNL     1      61.964  63.258  70.549  0.00  0.00    +0.000 NA
ATOM      6  C   UNL     1      61.764  63.446  69.771  0.00  0.00    +0.000 C 
ATOM      7  C   UNL     1      61.152  63.043  69.393  0.00  0.00    +0.000 C 
ATOM      8  C   UNL     1      60.952  63.231  68.616  0.00  0.00    +0.000 C 
ATOM      9  C   UNL     1      60.340  62.828  68.237  0.00  0.00    +0.000 C 
ATOM     10  C   UNL     1      62.576  63.661  70.927  0.00  0.00    +0.000 C 
ATOM     11  C   UNL     1      62.989  64.253  70.527  0.00  0.00    +0.000 C 
ATOM     12  N   UNL     1      63.600  64.656  70.905  0.00  0.00    +0.000 NA
ATOM     13  C   UNL     1      64.013  65.249  70.505  0.00  0.00    +0.000 A 
ATOM     14  N   UNL     1      64.635  65.697  70.810  0.00  0.00    +0.000 NA
ATOM     15  C   UNL     1      64.883  66.222  70.223  0.00  0.00    +0.000 A 
ATOM     16  N   UNL     1      64.414  66.098  69.556  0.00  0.00    +0.000 NA
ATOM     17  O   UNL     1      63.877  65.497  69.730  0.00  0.00    +0.000 OA
ATOM     18  C   UNL     1      65.492  66.773  70.292  0.00  0.00    +0.000 A 
ATOM     19  C   UNL     1      65.915  66.835  70.998  0.00  0.00    +0.000 A 
ATOM     20  C   UNL     1      66.524  67.387  71.067  0.00  0.00    +0.000 A 
ATOM     21  C   UNL     1      66.711  67.877  70.430  0.00  0.00    +0.000 A 
ATOM     22  C   UNL     1      66.288  67.816  69.725  0.00  0.00    +0.000 A 
ATOM     23  C   UNL     1      65.678  67.264  69.655  0.00  0.00    +0.000 A 
ENDROOT
TORSDOF 0
ENDMDL
MODEL 5
REMARK VINA RESULT:    -9.466      5.857      6.625
REMARK INTER + INTRA:          -9.466
REMARK INTER:                  -9.466
REMARK INTRA:                   0.000
REMARK UNBOUND:                 0.000
ROOT
REMARK  Name = butalamine
REMARK                            x       y       z     vdW  Elec       q    Type
REMARK                         _______ _______ _______ _____ _____    ______ ____
ATOM      1  C   UNL     1      57.128  65.014  72.992  0.00  0.00    +0.000 C 
ATOM      2  C   UNL     1      57.899  64.757  72.851  0.00  0.00    +0.000 C 
ATOM      3  C   UNL     1      58.501  65.308  72.726  0.00  0.00    +0.000 C 
ATOM      4  C   UNL     1      59.271  65.051  72.586  0.00  0.00    +0.000 C 
ATOM      5  N   UNL     1      59.873  65.602  72.461  0.00  0.00    +0.000 NA
ATOM      6  C   UNL     1      59.704  66.409  72.477  0.00  0.00    +0.000 C 
ATOM      7  C   UNL     1      58.932  66.666  72.617  0.00  0.00    +0.000 C 
ATOM      8  C   UNL     1      58.762  67.472  72.633  0.00  0.00    +0.000 C 
ATOM      9  C   UNL     1      57.992  67.730  72.774  0.00  0.00    +0.000 C 
ATOM     10  C   UNL     1      60.645  65.345  72.321  0.00  0.00    +0.000 C 
ATOM     11  C   UNL     1      61.246  65.896  72.196  0.00  0.00    +0.000 C 
ATOM     12  N   UNL     1      62.017  65.639  72.056  0.00  0.00    +0.000 NA
ATOM     13  C   UNL     1      62.619  66.190  71.931  0.00  0.00    +0.000 A 
ATOM     14  N   UNL     1      63.413  66.017  71.785  0.00  0.00    +0.000 NA
ATOM     15  C   UNL     1      63.817  66.730  71.694  0.00  0.00    +0.000 A 
ATOM     16  N   UNL     1      63.273  67.344  71.784  0.00  0.00    +0.000 NA
ATOM     17  O   UNL     1      62.534  67.010  71.930  0.00  0.00    +0.000 OA
ATOM     18  C   UNL     1      64.622  66.814  71.540  0.00  0.00    +0.000 A 
ATOM     19  C   UNL     1      65.100  66.146  71.463  0.00  0.00    +0.000 A 
ATOM     20  C   UNL     1      65.906  66.230  71.309  0.00  0.00    +0.000 A 
ATOM     21  C   UNL     1      66.235  66.983  71.232  0.00  0.00    +0.000 A 
ATOM     22  C   UNL     1      65.758  67.651  71.309  0.00  0.00    +0.000 A 
ATOM     23  C   UNL     1      64.952  67.568  71.463  0.00  0.00    +0.000 A 
ENDROOT
TORSDOF 0
ENDMDL
