MODEL 1
REMARK VINA RESULT:   -10.324      0.000      0.000
REMARK INTER + INTRA:         -10.324
REMARK INTER:                 -10.324
REMARK INTRA:                   0.000
REMARK UNBOUND:                 0.000
ROOT
REMARK  Name = butamisole
REMARK                            x       y       z     vdW  Elec       q    Type
REMARK                         _______ _______ _______ _____ _____    ______ ____
ATOM      1  C   UNL     1      61.227  61.244  63.929  0.00  0.00    +0.000 C 
ATOM      2  C   UNL     1      61.561  61.627  64.579  0.00  0.00    +0.000 C 
ATOM      3  C   UNL     1      62.365  61.815  64.580  0.00  0.00    +0.000 C 
ATOM      4  C   UNL     1      61.092  61.824  65.228  0.00  0.00    +0.000 C 
ATOM      5  O   UNL     1      60.287  61.637  65.227  0.00  0.00    +0.000 OA
ATOM      6  N   UNL     1      61.425  62.207  65.878  0.00  0.00    +0.000 NA
ATOM      7  C   UNL     1      60.955  62.404  66.527  0.00  0.00    +0.000 A 
ATOM      8  C   UNL     1      60.152  62.217  66.526  0.00  0.00    +0.000 A 
ATOM      9  C   UNL     1      59.681  62.413  67.175  0.00  0.00    +0.000 A 
ATOM     10  C   UNL     1      60.015  62.796  67.825  0.00  0.00    +0.000 A 
ATOM     11  C   UNL     1      60.819  62.984  67.826  0.00  0.00    +0.000 A 
ATOM     12  C   UNL     1      61.288  62.787  67.177  0.00  0.00    +0.000 A 
ATOM     13  C   UNL     1      61.153  63.367  68.476  0.00  0.00    +0.000 C 
ATOM     14  C   UNL     1      60.754  63.597  69.161  0.00  0.00    +0.000 C 
ATOM     15  N   UNL     1      61.298  63.960  69.663  0.00  0.00    +0.000 N 
ATOM     16  C   UNL     1      61.389  64.326  70.396  0.00  0.00    +0.000 C 
ATOM     17  C   UNL     1      62.179  64.547  70.476  0.00  0.00    +0.000 C 
ATOM     18  S   UNL     1      62.578  64.318  69.791  0.00  0.00    +0.000 S 
ATOM     19  C   UNL     1      62.033  63.954  69.289  0.00  0.00    +0.000 C 
ATOM     20  N   UNL     1      61.943  63.588  68.555  0.00  0.00    +0.000 NA
ENDROOT
TORSDOF 0
ENDMDL
MODEL 2
REMARK VINA RESULT:    -9.849      1.829      4.494
REMARK INTER + INTRA:          -9.849
REMARK INTER:                  -9.849
REMARK INTRA:                   0.000
REMARK UNBOUND:                 0.000
ROOT
REMARK  Name = butamisole
REMARK                            x       y       z     vdW  Elec       q    Type
REMARK                         _______ _______ _______ _____ _____    ______ ____
ATOM      1  C   UNL     1      62.092  64.747  70.811  0.00  0.00    +0.000 C 
ATOM      2  C   UNL     1      62.289  64.500  70.049  0.00  0.00    +0.000 C 
ATOM      3  C   UNL     1      63.020  64.705  69.724  0.00  0.00    +0.000 C 
ATOM      4  C   UNL     1      61.756  64.049  69.610  0.00  0.00    +0.000 C 
ATOM      5  O   UNL     1      61.024  63.844  69.935  0.00  0.00    +0.000 OA
ATOM      6  N   UNL     1      61.952  63.802  68.848  0.00  0.00    +0.000 NA
ATOM      7  C   UNL     1      61.417  63.350  68.411  0.00  0.00    +0.000 A 
ATOM      8  C   UNL     1      60.688  63.146  68.735  0.00  0.00    +0.000 A 
ATOM      9  C   UNL     1      60.153  62.694  68.297  0.00  0.00    +0.000 A 
ATOM     10  C   UNL     1      60.350  62.448  67.535  0.00  0.00    +0.000 A 
ATOM     11  C   UNL     1      61.081  62.652  67.210  0.00  0.00    +0.000 A 
ATOM     12  C   UNL     1      61.614  63.104  67.648  0.00  0.00    +0.000 A 
ATOM     13  C   UNL     1      61.277  62.405  66.448  0.00  0.00    +0.000 C 
ATOM     14  C   UNL     1      60.802  61.954  65.946  0.00  0.00    +0.000 C 
ATOM     15  N   UNL     1      61.214  61.836  65.242  0.00  0.00    +0.000 N 
ATOM     16  C   UNL     1      61.176  61.485  64.497  0.00  0.00    +0.000 C 
ATOM     17  C   UNL     1      61.882  61.646  64.102  0.00  0.00    +0.000 C 
ATOM     18  S   UNL     1      62.356  62.097  64.603  0.00  0.00    +0.000 S 
ATOM     19  C   UNL     1      61.944  62.215  65.308  0.00  0.00    +0.000 C 
ATOM     20  N   UNL     1      61.983  62.567  66.052  0.00  0.00    +0.000 NA
ENDROOT
TORSDOF 0
ENDMDL
MODEL 3
REMARK VINA RESULT:    -9.407      4.046      5.439
REMARK INTER + INTRA:          -9.407
REMARK INTER:                  -9.407
REMARK INTRA:                   0.000
REMARK UNBOUND:                 0.000
ROOT
REMARK  Name = butamisole
REMARK                            x       y       z     vdW  Elec       q    Type
REMARK                         _______ _______ _______ _____ _____    ______ ____
ATOM      1  C   UNL     1      60.807  62.399  71.749  0.00  0.00    +0.000 C 
ATOM      2  C   UNL     1      61.404  62.951  71.888  0.00  0.00    +0.000 C 
ATOM      3  C   UNL     1      61.633  63.127  72.661  0.00  0.00    +0.000 C 
ATOM      4  C   UNL     1      61.773  63.328  71.253  0.00  0.00    +0.000 C 
ATOM      5  O   UNL     1      61.544  63.152  70.480  0.00  0.00    +0.000 OA
ATOM      6  N   UNL     1      62.370  63.881  71.392  0.00  0.00    +0.000 NA
ATOM      7  C   UNL     1      62.738  64.257  70.756  0.00  0.00    +0.000 A 
ATOM      8  C   UNL     1      62.510  64.082  69.984  0.00  0.00    +0.000 A 
ATOM      9  C   UNL     1      62.879  64.458  69.348  0.00  0.00    +0.000 A 
ATOM     10  C   UNL     1      63.476  65.010  69.487  0.00  0.00    +0.000 A 
ATOM     11  C   UNL     1      63.704  65.186  70.260  0.00  0.00    +0.000 A 
ATOM     12  C   UNL     1      63.335  64.809  70.894  0.00  0.00    +0.000 A 
ATOM     13  C   UNL     1      64.301  65.739  70.398  0.00  0.00    +0.000 C 
ATOM     14  C   UNL     1      64.718  66.157  69.823  0.00  0.00    +0.000 C 
ATOM     15  N   UNL     1      65.260  66.646  70.204  0.00  0.00    +0.000 N 
ATOM     16  C   UNL     1      65.853  67.208  70.085  0.00  0.00    +0.000 C 
ATOM     17  C   UNL     1      66.139  67.439  70.824  0.00  0.00    +0.000 C 
ATOM     18  S   UNL     1      65.722  67.020  71.400  0.00  0.00    +0.000 S 
ATOM     19  C   UNL     1      65.179  66.530  71.017  0.00  0.00    +0.000 C 
ATOM     20  N   UNL     1      64.587  65.970  71.137  0.00  0.00    +0.000 NA
ENDROOT
TORSDOF 0
ENDMDL
MODEL 4
REMARK VINA RESULT:    -9.359      4.462      5.830
REMARK INTER + INTRA:          -9.359
REMARK INTER:                  -9.359
REMARK INTRA:                   0.000
REMARK UNBOUND:                 0.000
ROOT
REMARK  Name = butamisole
REMARK                            x       y       z     vdW  Elec       q    Type
REMARK                         _______ _______ _______ _____ _____    ______ ____
ATOM      1  C   UNL     1      66.188  67.630  70.135  0.00  0.00    +0.000 C 
ATOM      2  C   UNL     1      65.598  67.273  70.588  0.00  0.00    +0.000 C 
ATOM      3  C   UNL     1      65.413  67.573  71.335  0.00  0.00    +0.000 C 
ATOM      4  C   UNL     1      65.194  66.616  70.296  0.00  0.00    +0.000 C 
ATOM      5  O   UNL     1      65.380  66.317  69.549  0.00  0.00    +0.000 OA
ATOM      6  N   UNL     1      64.604  66.259  70.749  0.00  0.00    +0.000 NA
ATOM      7  C   UNL     1      64.200  65.602  70.455  0.00  0.00    +0.000 A 
ATOM      8  C   UNL     1      64.386  65.303  69.710  0.00  0.00    +0.000 A 
ATOM      9  C   UNL     1      63.982  64.646  69.416  0.00  0.00    +0.000 A 
ATOM     10  C   UNL     1      63.392  64.289  69.869  0.00  0.00    +0.000 A 
ATOM     11  C   UNL     1      63.206  64.588  70.616  0.00  0.00    +0.000 A 
ATOM     12  C   UNL     1      63.611  65.245  70.908  0.00  0.00    +0.000 A 
ATOM     13  C   UNL     1      62.616  64.231  71.069  0.00  0.00    +0.000 C 
ATOM     14  C   UNL     1      62.168  63.574  70.850  0.00  0.00    +0.000 C 
ATOM     15  N   UNL     1      61.646  63.405  71.465  0.00  0.00    +0.000 N 
ATOM     16  C   UNL     1      61.046  62.895  71.712  0.00  0.00    +0.000 C 
ATOM     17  C   UNL     1      60.802  63.131  72.463  0.00  0.00    +0.000 C 
ATOM     18  S   UNL     1      61.250  63.788  72.682  0.00  0.00    +0.000 S 
ATOM     19  C   UNL     1      61.772  63.957  72.065  0.00  0.00    +0.000 C 
ATOM     20  N   UNL     1      62.372  64.467  71.820  0.00  0.00    +0.000 NA
ENDROOT
TORSDOF 0
ENDMDL
MODEL 5
REMARK VINA RESULT:    -9.338      1.048      1.571
REMARK INTER + INTRA:          -9.338
REMARK INTER:                  -9.338
REMARK INTRA:                   0.000
REMARK UNBOUND:                 0.000
ROOT
REMARK  Name = butamisole
REMARK                            x       y       z     vdW  Elec       q    Type
REMARK                         _______ _______ _______ _____ _____    ______ ____
ATOM      1  C   UNL     1      60.369  61.632  65.319  0.00  0.00    +0.000 C 
ATOM      2  C   UNL     1      60.956  61.988  65.776  0.00  0.00    +0.000 C 
ATOM      3  C   UNL     1      61.731  62.028  65.495  0.00  0.00    +0.000 C 
ATOM      4  C   UNL     1      60.770  62.304  66.515  0.00  0.00    +0.000 C 
ATOM      5  O   UNL     1      59.994  62.263  66.796  0.00  0.00    +0.000 OA
ATOM      6  N   UNL     1      61.357  62.660  66.972  0.00  0.00    +0.000 NA
ATOM      7  C   UNL     1      61.168  62.976  67.711  0.00  0.00    +0.000 A 
ATOM      8  C   UNL     1      60.395  62.935  67.992  0.00  0.00    +0.000 A 
ATOM      9  C   UNL     1      60.207  63.251  68.731  0.00  0.00    +0.000 A 
ATOM     10  C   UNL     1      60.794  63.607  69.189  0.00  0.00    +0.000 A 
ATOM     11  C   UNL     1      61.569  63.648  68.907  0.00  0.00    +0.000 A 
ATOM     12  C   UNL     1      61.756  63.332  68.168  0.00  0.00    +0.000 A 
ATOM     13  C   UNL     1      62.156  64.004  69.364  0.00  0.00    +0.000 C 
ATOM     14  C   UNL     1      62.052  64.342  70.110  0.00  0.00    +0.000 C 
ATOM     15  N   UNL     1      62.781  64.631  70.363  0.00  0.00    +0.000 N 
ATOM     16  C   UNL     1      63.169  65.019  70.979  0.00  0.00    +0.000 C 
ATOM     17  C   UNL     1      63.963  65.100  70.772  0.00  0.00    +0.000 C 
ATOM     18  S   UNL     1      64.066  64.762  70.027  0.00  0.00    +0.000 S 
ATOM     19  C   UNL     1      63.336  64.472  69.774  0.00  0.00    +0.000 C 
ATOM     20  N   UNL     1      62.950  64.084  69.157  0.00  0.00    +0.000 NA
ENDROOT
TORSDOF 0
ENDMDL
MODEL 6
REMARK VINA RESULT:    -8.833      2.242      3.844
REMARK INTER + INTRA:          -8.833
REMARK INTER:                  -8.833
REMARK INTRA:                   0.000
REMARK UNBOUND:                 0.000
ROOT
REMARK  Name = butamisole
REMARK                            x       y       z     vdW  Elec       q    Type
REMARK                         _______ _______ _______ _____ _____    ______ ____
ATOM      1  C   UNL     1      60.155  62.129  68.141  0.00  0.00    +0.000 C 
ATOM      2  C   UNL     1      60.769  62.679  68.181  0.00  0.00    +0.000 C 
ATOM      3  C   UNL     1      61.091  62.990  67.488  0.00  0.00    +0.000 C 
ATOM      4  C   UNL     1      61.062  62.918  68.914  0.00  0.00    +0.000 C 
ATOM      5  O   UNL     1      60.741  62.606  69.608  0.00  0.00    +0.000 OA
ATOM      6  N   UNL     1      61.676  63.467  68.955  0.00  0.00    +0.000 NA
ATOM      7  C   UNL     1      61.969  63.705  69.689  0.00  0.00    +0.000 A 
ATOM      8  C   UNL     1      61.648  63.394  70.381  0.00  0.00    +0.000 A 
ATOM      9  C   UNL     1      61.941  63.632  71.115  0.00  0.00    +0.000 A 
ATOM     10  C   UNL     1      62.555  64.182  71.156  0.00  0.00    +0.000 A 
ATOM     11  C   UNL     1      62.876  64.494  70.462  0.00  0.00    +0.000 A 
ATOM     12  C   UNL     1      62.583  64.255  69.729  0.00  0.00    +0.000 A 
ATOM     13  C   UNL     1      63.490  65.043  70.502  0.00  0.00    +0.000 C 
ATOM     14  C   UNL     1      63.838  65.332  71.191  0.00  0.00    +0.000 C 
ATOM     15  N   UNL     1      64.426  65.868  70.976  0.00  0.00    +0.000 N 
ATOM     16  C   UNL     1      65.006  66.378  71.268  0.00  0.00    +0.000 C 
ATOM     17  C   UNL     1      65.380  66.735  70.625  0.00  0.00    +0.000 C 
ATOM     18  S   UNL     1      65.032  66.446  69.936  0.00  0.00    +0.000 S 
ATOM     19  C   UNL     1      64.443  65.910  70.152  0.00  0.00    +0.000 C 
ATOM     20  N   UNL     1      63.864  65.400  69.859  0.00  0.00    +0.000 NA
ENDROOT
TORSDOF 0
ENDMDL
MODEL 7
REMARK VINA RESULT:    -8.441      4.265      6.013
REMARK INTER + INTRA:          -8.441
REMARK INTER:                  -8.441
REMARK INTRA:                   0.000
REMARK UNBOUND:                 0.000
ROOT
REMARK  Name = butamisole
REMARK                            x       y       z     vdW  Elec       q    Type
REMARK                         _______ _______ _______ _____ _____    ______ ____
ATOM      1  C   UNL     1      66.458  66.749  71.576  0.00  0.00    +0.000 C 
ATOM      2  C   UNL     1      65.693  66.933  71.326  0.00  0.00    +0.000 C 
ATOM      3  C   UNL     1      65.441  67.719  71.312  0.00  0.00    +0.000 C 
ATOM      4  C   UNL     1      65.180  66.331  71.091  0.00  0.00    +0.000 C 
ATOM      5  O   UNL     1      65.432  65.545  71.105  0.00  0.00    +0.000 OA
ATOM      6  N   UNL     1      64.416  66.515  70.841  0.00  0.00    +0.000 NA
ATOM      7  C   UNL     1      63.903  65.912  70.606  0.00  0.00    +0.000 A 
ATOM      8  C   UNL     1      64.155  65.127  70.621  0.00  0.00    +0.000 A 
ATOM      9  C   UNL     1      63.642  64.525  70.385  0.00  0.00    +0.000 A 
ATOM     10  C   UNL     1      62.877  64.708  70.136  0.00  0.00    +0.000 A 
ATOM     11  C   UNL     1      62.625  65.494  70.121  0.00  0.00    +0.000 A 
ATOM     12  C   UNL     1      63.138  66.096  70.357  0.00  0.00    +0.000 A 
ATOM     13  C   UNL     1      61.861  65.678  69.872  0.00  0.00    +0.000 C 
ATOM     14  C   UNL     1      61.289  65.138  69.622  0.00  0.00    +0.000 C 
ATOM     15  N   UNL     1      60.609  65.559  69.424  0.00  0.00    +0.000 N 
ATOM     16  C   UNL     1      59.835  65.487  69.147  0.00  0.00    +0.000 C 
ATOM     17  C   UNL     1      59.507  66.243  69.104  0.00  0.00    +0.000 C 
ATOM     18  S   UNL     1      60.079  66.783  69.354  0.00  0.00    +0.000 S 
ATOM     19  C   UNL     1      60.760  66.360  69.552  0.00  0.00    +0.000 C 
ATOM     20  N   UNL     1      61.533  66.433  69.828  0.00  0.00    +0.000 NA
ENDROOT
TORSDOF 0
ENDMDL
MODEL 8
REMARK VINA RESULT:    -8.166     24.729     25.286
REMARK INTER + INTRA:          -8.166
REMARK INTER:                  -8.166
REMARK INTRA:                   0.000
REMARK UNBOUND:                 0.000
ROOT
REMARK  Name = butamisole
REMARK                            x       y       z     vdW  Elec       q    Type
REMARK                         _______ _______ _______ _____ _____    ______ ____
ATOM      1  C   UNL     1      71.013  78.509  48.114  0.00  0.00    +0.000 C 
ATOM      2  C   UNL     1      71.269  78.848  48.822  0.00  0.00    +0.000 C 
ATOM      3  C   UNL     1      72.076  78.906  48.983  0.00  0.00    +0.000 C 
ATOM      4  C   UNL     1      70.719  79.129  49.368  0.00  0.00    +0.000 C 
ATOM      5  O   UNL     1      69.911  79.071  49.207  0.00  0.00    +0.000 OA
ATOM      6  N   UNL     1      70.975  79.468  50.075  0.00  0.00    +0.000 NA
ATOM      7  C   UNL     1      70.423  79.749  50.621  0.00  0.00    +0.000 A 
ATOM      8  C   UNL     1      69.617  79.691  50.460  0.00  0.00    +0.000 A 
ATOM      9  C   UNL     1      69.065  79.972  51.006  0.00  0.00    +0.000 A 
ATOM     10  C   UNL     1      69.322  80.311  51.714  0.00  0.00    +0.000 A 
ATOM     11  C   UNL     1      70.129  80.369  51.875  0.00  0.00    +0.000 A 
ATOM     12  C   UNL     1      70.680  80.088  51.328  0.00  0.00    +0.000 A 
ATOM     13  C   UNL     1      70.386  80.708  52.582  0.00  0.00    +0.000 C 
ATOM     14  C   UNL     1      69.902  81.011  53.178  0.00  0.00    +0.000 C 
ATOM     15  N   UNL     1      70.387  81.293  53.781  0.00  0.00    +0.000 N 
ATOM     16  C   UNL     1      70.390  81.655  54.523  0.00  0.00    +0.000 C 
ATOM     17  C   UNL     1      71.174  81.751  54.758  0.00  0.00    +0.000 C 
ATOM     18  S   UNL     1      71.657  81.447  54.163  0.00  0.00    +0.000 S 
ATOM     19  C   UNL     1      71.171  81.165  53.559  0.00  0.00    +0.000 C 
ATOM     20  N   UNL     1      71.170  80.803  52.818  0.00  0.00    +0.000 NA
ENDROOT
TORSDOF 0
ENDMDL
MODEL 9
REMARK VINA RESULT:    -7.848     13.673     14.130
REMARK INTER + INTRA:          -7.848
REMARK INTER:                  -7.848
REMARK INTRA:                   0.000
REMARK UNBOUND:                 0.000
ROOT
REMARK  Name = butamisole
REMARK                            x       y       z     vdW  Elec       q    Type
REMARK                         _______ _______ _______ _____ _____    ______ ____
ATOM      1  C   UNL     1      62.311  68.406  54.629  0.00  0.00    +0.000 C 
ATOM      2  C   UNL     1      62.723  67.691  54.633  0.00  0.00    +0.000 C 
ATOM      3  C   UNL     1      63.503  67.667  54.903  0.00  0.00    +0.000 C 
ATOM      4  C   UNL     1      62.358  67.002  54.367  0.00  0.00    +0.000 C 
ATOM      5  O   UNL     1      61.578  67.026  54.096  0.00  0.00    +0.000 OA
ATOM      6  N   UNL     1      62.771  66.287  54.371  0.00  0.00    +0.000 NA
ATOM      7  C   UNL     1      62.404  65.598  54.104  0.00  0.00    +0.000 A 
ATOM      8  C   UNL     1      61.625  65.622  53.834  0.00  0.00    +0.000 A 
ATOM      9  C   UNL     1      61.258  64.933  53.568  0.00  0.00    +0.000 A 
ATOM     10  C   UNL     1      61.671  64.219  53.571  0.00  0.00    +0.000 A 
ATOM     11  C   UNL     1      62.451  64.194  53.842  0.00  0.00    +0.000 A 
ATOM     12  C   UNL     1      62.817  64.884  54.108  0.00  0.00    +0.000 A 
ATOM     13  C   UNL     1      62.864  63.480  53.846  0.00  0.00    +0.000 C 
ATOM     14  C   UNL     1      62.572  62.749  53.598  0.00  0.00    +0.000 C 
ATOM     15  N   UNL     1      63.168  62.189  53.697  0.00  0.00    +0.000 N 
ATOM     16  C   UNL     1      63.357  61.391  53.605  0.00  0.00    +0.000 C 
ATOM     17  C   UNL     1      64.134  61.281  53.858  0.00  0.00    +0.000 C 
ATOM     18  S   UNL     1      64.426  62.012  54.106  0.00  0.00    +0.000 S 
ATOM     19  C   UNL     1      63.829  62.573  54.007  0.00  0.00    +0.000 C 
ATOM     20  N   UNL     1      63.641  63.370  54.099  0.00  0.00    +0.000 NA
ENDROOT
TORSDOF 0
ENDMDL
