MODEL 1
REMARK VINA RESULT:   -11.478      0.000      0.000
REMARK INTER + INTRA:         -11.478
REMARK INTER:                 -11.478
REMARK INTRA:                   0.000
REMARK UNBOUND:                 0.000
ROOT
REMARK  Name = butaverine
REMARK                            x       y       z     vdW  Elec       q    Type
REMARK                         _______ _______ _______ _____ _____    ______ ____
ATOM      1  C   UNL     1      62.472  64.806  70.516  0.00  0.00    +0.000 C 
ATOM      2  C   UNL     1      61.961  64.432  69.986  0.00  0.00    +0.000 C 
ATOM      3  C   UNL     1      62.248  64.149  69.267  0.00  0.00    +0.000 C 
ATOM      4  C   UNL     1      61.738  63.775  68.737  0.00  0.00    +0.000 C 
ATOM      5  O   UNL     1      62.025  63.492  68.018  0.00  0.00    +0.000 OA
ATOM      6  C   UNL     1      61.514  63.119  67.489  0.00  0.00    +0.000 C 
ATOM      7  O   UNL     1      60.716  63.029  67.679  0.00  0.00    +0.000 OA
ATOM      8  C   UNL     1      61.801  62.835  66.769  0.00  0.00    +0.000 C 
ATOM      9  C   UNL     1      61.291  62.462  66.239  0.00  0.00    +0.000 C 
ATOM     10  N   UNL     1      61.577  62.178  65.520  0.00  0.00    +0.000 NA
ATOM     11  C   UNL     1      61.067  61.805  64.990  0.00  0.00    +0.000 C 
ATOM     12  C   UNL     1      61.354  61.521  64.271  0.00  0.00    +0.000 C 
ATOM     13  C   UNL     1      62.152  61.610  64.081  0.00  0.00    +0.000 C 
ATOM     14  C   UNL     1      62.663  61.984  64.611  0.00  0.00    +0.000 C 
ATOM     15  C   UNL     1      62.375  62.267  65.330  0.00  0.00    +0.000 C 
ATOM     16  C   UNL     1      60.492  62.372  66.429  0.00  0.00    +0.000 A 
ATOM     17  C   UNL     1      60.205  62.656  67.149  0.00  0.00    +0.000 A 
ATOM     18  C   UNL     1      59.407  62.566  67.338  0.00  0.00    +0.000 A 
ATOM     19  C   UNL     1      58.896  62.193  66.808  0.00  0.00    +0.000 A 
ATOM     20  C   UNL     1      59.184  61.910  66.089  0.00  0.00    +0.000 A 
ATOM     21  C   UNL     1      59.982  61.999  65.899  0.00  0.00    +0.000 A 
ENDROOT
TORSDOF 0
ENDMDL
MODEL 2
REMARK VINA RESULT:   -10.830      2.118      4.587
REMARK INTER + INTRA:         -10.830
REMARK INTER:                 -10.830
REMARK INTRA:                   0.000
REMARK UNBOUND:                 0.000
ROOT
REMARK  Name = butaverine
REMARK                            x       y       z     vdW  Elec       q    Type
REMARK                         _______ _______ _______ _____ _____    ______ ____
ATOM      1  C   UNL     1      62.098  61.632  64.938  0.00  0.00    +0.000 C 
ATOM      2  C   UNL     1      61.864  61.641  65.729  0.00  0.00    +0.000 C 
ATOM      3  C   UNL     1      61.616  62.345  66.079  0.00  0.00    +0.000 C 
ATOM      4  C   UNL     1      61.381  62.353  66.870  0.00  0.00    +0.000 C 
ATOM      5  O   UNL     1      61.134  63.057  67.220  0.00  0.00    +0.000 OA
ATOM      6  C   UNL     1      60.899  63.064  68.010  0.00  0.00    +0.000 C 
ATOM      7  O   UNL     1      60.912  62.366  68.451  0.00  0.00    +0.000 OA
ATOM      8  C   UNL     1      60.651  63.769  68.361  0.00  0.00    +0.000 C 
ATOM      9  C   UNL     1      60.416  63.777  69.152  0.00  0.00    +0.000 C 
ATOM     10  N   UNL     1      60.169  64.481  69.502  0.00  0.00    +0.000 NA
ATOM     11  C   UNL     1      59.934  64.488  70.293  0.00  0.00    +0.000 C 
ATOM     12  C   UNL     1      59.686  65.193  70.643  0.00  0.00    +0.000 C 
ATOM     13  C   UNL     1      59.673  65.890  70.203  0.00  0.00    +0.000 C 
ATOM     14  C   UNL     1      59.908  65.883  69.411  0.00  0.00    +0.000 C 
ATOM     15  C   UNL     1      60.156  65.178  69.062  0.00  0.00    +0.000 C 
ATOM     16  C   UNL     1      60.429  63.079  69.593  0.00  0.00    +0.000 A 
ATOM     17  C   UNL     1      60.677  62.374  69.242  0.00  0.00    +0.000 A 
ATOM     18  C   UNL     1      60.690  61.677  69.683  0.00  0.00    +0.000 A 
ATOM     19  C   UNL     1      60.456  61.684  70.475  0.00  0.00    +0.000 A 
ATOM     20  C   UNL     1      60.208  62.389  70.824  0.00  0.00    +0.000 A 
ATOM     21  C   UNL     1      60.195  63.086  70.384  0.00  0.00    +0.000 A 
ENDROOT
TORSDOF 0
ENDMDL
MODEL 3
REMARK VINA RESULT:   -10.671      2.748      4.482
REMARK INTER + INTRA:         -10.671
REMARK INTER:                 -10.671
REMARK INTRA:                   0.000
REMARK UNBOUND:                 0.000
ROOT
REMARK  Name = butaverine
REMARK                            x       y       z     vdW  Elec       q    Type
REMARK                         _______ _______ _______ _____ _____    ______ ____
ATOM      1  C   UNL     1      65.388  66.896  70.048  0.00  0.00    +0.000 C 
ATOM      2  C   UNL     1      64.842  66.390  70.405  0.00  0.00    +0.000 C 
ATOM      3  C   UNL     1      64.363  65.906  69.941  0.00  0.00    +0.000 C 
ATOM      4  C   UNL     1      63.818  65.400  70.297  0.00  0.00    +0.000 C 
ATOM      5  O   UNL     1      63.339  64.915  69.833  0.00  0.00    +0.000 OA
ATOM      6  C   UNL     1      62.794  64.410  70.190  0.00  0.00    +0.000 C 
ATOM      7  O   UNL     1      62.728  64.389  71.013  0.00  0.00    +0.000 OA
ATOM      8  C   UNL     1      62.315  63.925  69.725  0.00  0.00    +0.000 C 
ATOM      9  C   UNL     1      61.769  63.419  70.082  0.00  0.00    +0.000 C 
ATOM     10  N   UNL     1      61.290  62.935  69.617  0.00  0.00    +0.000 NA
ATOM     11  C   UNL     1      60.745  62.429  69.974  0.00  0.00    +0.000 C 
ATOM     12  C   UNL     1      60.266  61.944  69.510  0.00  0.00    +0.000 C 
ATOM     13  C   UNL     1      60.331  61.965  68.688  0.00  0.00    +0.000 C 
ATOM     14  C   UNL     1      60.877  62.472  68.330  0.00  0.00    +0.000 C 
ATOM     15  C   UNL     1      61.356  62.956  68.795  0.00  0.00    +0.000 C 
ATOM     16  C   UNL     1      61.703  63.397  70.905  0.00  0.00    +0.000 A 
ATOM     17  C   UNL     1      62.183  63.882  71.369  0.00  0.00    +0.000 A 
ATOM     18  C   UNL     1      62.117  63.861  72.191  0.00  0.00    +0.000 A 
ATOM     19  C   UNL     1      61.572  63.355  72.549  0.00  0.00    +0.000 A 
ATOM     20  C   UNL     1      61.093  62.871  72.084  0.00  0.00    +0.000 A 
ATOM     21  C   UNL     1      61.159  62.892  71.262  0.00  0.00    +0.000 A 
ENDROOT
TORSDOF 0
ENDMDL
MODEL 4
REMARK VINA RESULT:   -10.588      2.616      5.348
REMARK INTER + INTRA:         -10.588
REMARK INTER:                 -10.588
REMARK INTRA:                   0.000
REMARK UNBOUND:                 0.000
ROOT
REMARK  Name = butaverine
REMARK                            x       y       z     vdW  Elec       q    Type
REMARK                         _______ _______ _______ _____ _____    ______ ____
ATOM      1  C   UNL     1      59.710  61.969  65.997  0.00  0.00    +0.000 C 
ATOM      2  C   UNL     1      59.737  62.395  66.704  0.00  0.00    +0.000 C 
ATOM      3  C   UNL     1      60.094  62.067  67.370  0.00  0.00    +0.000 C 
ATOM      4  C   UNL     1      60.121  62.493  68.076  0.00  0.00    +0.000 C 
ATOM      5  O   UNL     1      60.478  62.165  68.743  0.00  0.00    +0.000 OA
ATOM      6  C   UNL     1      60.505  62.591  69.448  0.00  0.00    +0.000 C 
ATOM      7  O   UNL     1      60.173  63.347  69.487  0.00  0.00    +0.000 OA
ATOM      8  C   UNL     1      60.862  62.263  70.116  0.00  0.00    +0.000 C 
ATOM      9  C   UNL     1      60.889  62.689  70.822  0.00  0.00    +0.000 C 
ATOM     10  N   UNL     1      61.246  62.361  71.489  0.00  0.00    +0.000 NA
ATOM     11  C   UNL     1      61.273  62.787  72.194  0.00  0.00    +0.000 C 
ATOM     12  C   UNL     1      61.631  62.459  72.862  0.00  0.00    +0.000 C 
ATOM     13  C   UNL     1      61.962  61.705  72.823  0.00  0.00    +0.000 C 
ATOM     14  C   UNL     1      61.935  61.278  72.117  0.00  0.00    +0.000 C 
ATOM     15  C   UNL     1      61.578  61.607  71.450  0.00  0.00    +0.000 C 
ATOM     16  C   UNL     1      60.558  63.445  70.861  0.00  0.00    +0.000 A 
ATOM     17  C   UNL     1      60.200  63.773  70.194  0.00  0.00    +0.000 A 
ATOM     18  C   UNL     1      59.869  64.527  70.232  0.00  0.00    +0.000 A 
ATOM     19  C   UNL     1      59.895  64.954  70.939  0.00  0.00    +0.000 A 
ATOM     20  C   UNL     1      60.253  64.625  71.605  0.00  0.00    +0.000 A 
ATOM     21  C   UNL     1      60.584  63.871  71.566  0.00  0.00    +0.000 A 
ENDROOT
TORSDOF 0
ENDMDL
MODEL 5
REMARK VINA RESULT:   -10.457      1.938      4.846
REMARK INTER + INTRA:         -10.457
REMARK INTER:                 -10.457
REMARK INTRA:                   0.000
REMARK UNBOUND:                 0.000
ROOT
REMARK  Name = butaverine
REMARK                            x       y       z     vdW  Elec       q    Type
REMARK                         _______ _______ _______ _____ _____    ______ ____
ATOM      1  C   UNL     1      59.356  61.987  65.713  0.00  0.00    +0.000 C 
ATOM      2  C   UNL     1      59.551  61.954  66.514  0.00  0.00    +0.000 C 
ATOM      3  C   UNL     1      60.070  62.508  66.836  0.00  0.00    +0.000 C 
ATOM      4  C   UNL     1      60.265  62.475  67.637  0.00  0.00    +0.000 C 
ATOM      5  O   UNL     1      60.784  63.028  67.959  0.00  0.00    +0.000 OA
ATOM      6  C   UNL     1      60.979  62.995  68.759  0.00  0.00    +0.000 C 
ATOM      7  O   UNL     1      60.654  62.406  69.239  0.00  0.00    +0.000 OA
ATOM      8  C   UNL     1      61.498  63.549  69.082  0.00  0.00    +0.000 C 
ATOM      9  C   UNL     1      61.693  63.516  69.883  0.00  0.00    +0.000 C 
ATOM     10  N   UNL     1      62.212  64.070  70.205  0.00  0.00    +0.000 NA
ATOM     11  C   UNL     1      62.407  64.036  71.005  0.00  0.00    +0.000 C 
ATOM     12  C   UNL     1      62.926  64.590  71.328  0.00  0.00    +0.000 C 
ATOM     13  C   UNL     1      63.250  65.179  70.849  0.00  0.00    +0.000 C 
ATOM     14  C   UNL     1      63.056  65.212  70.047  0.00  0.00    +0.000 C 
ATOM     15  C   UNL     1      62.536  64.658  69.726  0.00  0.00    +0.000 C 
ATOM     16  C   UNL     1      61.368  62.927  70.362  0.00  0.00    +0.000 A 
ATOM     17  C   UNL     1      60.849  62.373  70.040  0.00  0.00    +0.000 A 
ATOM     18  C   UNL     1      60.524  61.785  70.519  0.00  0.00    +0.000 A 
ATOM     19  C   UNL     1      60.719  61.751  71.320  0.00  0.00    +0.000 A 
ATOM     20  C   UNL     1      61.238  62.305  71.642  0.00  0.00    +0.000 A 
ATOM     21  C   UNL     1      61.563  62.894  71.163  0.00  0.00    +0.000 A 
ENDROOT
TORSDOF 0
ENDMDL
MODEL 6
REMARK VINA RESULT:   -10.366      2.933      5.994
REMARK INTER + INTRA:         -10.366
REMARK INTER:                 -10.366
REMARK INTRA:                   0.000
REMARK UNBOUND:                 0.000
ROOT
REMARK  Name = butaverine
REMARK                            x       y       z     vdW  Elec       q    Type
REMARK                         _______ _______ _______ _____ _____    ______ ____
ATOM      1  C   UNL     1      60.888  62.053  66.686  0.00  0.00    +0.000 C 
ATOM      2  C   UNL     1      61.021  62.066  67.500  0.00  0.00    +0.000 C 
ATOM      3  C   UNL     1      60.677  62.653  67.965  0.00  0.00    +0.000 C 
ATOM      4  C   UNL     1      60.810  62.667  68.779  0.00  0.00    +0.000 C 
ATOM      5  O   UNL     1      60.466  63.254  69.244  0.00  0.00    +0.000 OA
ATOM      6  C   UNL     1      60.599  63.267  70.058  0.00  0.00    +0.000 C 
ATOM      7  O   UNL     1      61.077  62.691  70.407  0.00  0.00    +0.000 OA
ATOM      8  C   UNL     1      60.255  63.855  70.524  0.00  0.00    +0.000 C 
ATOM      9  C   UNL     1      60.388  63.868  71.338  0.00  0.00    +0.000 C 
ATOM     10  N   UNL     1      60.045  64.455  71.803  0.00  0.00    +0.000 NA
ATOM     11  C   UNL     1      60.178  64.468  72.617  0.00  0.00    +0.000 C 
ATOM     12  C   UNL     1      59.834  65.056  73.082  0.00  0.00    +0.000 C 
ATOM     13  C   UNL     1      59.356  65.632  72.734  0.00  0.00    +0.000 C 
ATOM     14  C   UNL     1      59.223  65.619  71.919  0.00  0.00    +0.000 C 
ATOM     15  C   UNL     1      59.567  65.031  71.454  0.00  0.00    +0.000 C 
ATOM     16  C   UNL     1      60.866  63.292  71.687  0.00  0.00    +0.000 A 
ATOM     17  C   UNL     1      61.210  62.704  71.222  0.00  0.00    +0.000 A 
ATOM     18  C   UNL     1      61.688  62.129  71.570  0.00  0.00    +0.000 A 
ATOM     19  C   UNL     1      61.821  62.141  72.385  0.00  0.00    +0.000 A 
ATOM     20  C   UNL     1      61.477  62.729  72.850  0.00  0.00    +0.000 A 
ATOM     21  C   UNL     1      60.999  63.305  72.501  0.00  0.00    +0.000 A 
ENDROOT
TORSDOF 0
ENDMDL
MODEL 7
REMARK VINA RESULT:   -10.329      2.004      4.493
REMARK INTER + INTRA:         -10.329
REMARK INTER:                 -10.329
REMARK INTRA:                   0.000
REMARK UNBOUND:                 0.000
ROOT
REMARK  Name = butaverine
REMARK                            x       y       z     vdW  Elec       q    Type
REMARK                         _______ _______ _______ _____ _____    ______ ____
ATOM      1  C   UNL     1      62.241  62.049  64.472  0.00  0.00    +0.000 C 
ATOM      2  C   UNL     1      62.020  62.519  65.114  0.00  0.00    +0.000 C 
ATOM      3  C   UNL     1      61.816  62.167  65.831  0.00  0.00    +0.000 C 
ATOM      4  C   UNL     1      61.594  62.637  66.473  0.00  0.00    +0.000 C 
ATOM      5  O   UNL     1      61.390  62.286  67.190  0.00  0.00    +0.000 OA
ATOM      6  C   UNL     1      61.169  62.755  67.831  0.00  0.00    +0.000 C 
ATOM      7  O   UNL     1      61.151  63.577  67.754  0.00  0.00    +0.000 OA
ATOM      8  C   UNL     1      60.964  62.404  68.549  0.00  0.00    +0.000 C 
ATOM      9  C   UNL     1      60.743  62.873  69.191  0.00  0.00    +0.000 C 
ATOM     10  N   UNL     1      60.539  62.522  69.908  0.00  0.00    +0.000 NA
ATOM     11  C   UNL     1      60.317  62.991  70.549  0.00  0.00    +0.000 C 
ATOM     12  C   UNL     1      60.113  62.640  71.267  0.00  0.00    +0.000 C 
ATOM     13  C   UNL     1      60.131  61.819  71.344  0.00  0.00    +0.000 C 
ATOM     14  C   UNL     1      60.352  61.349  70.702  0.00  0.00    +0.000 C 
ATOM     15  C   UNL     1      60.556  61.701  69.985  0.00  0.00    +0.000 C 
ATOM     16  C   UNL     1      60.725  63.695  69.114  0.00  0.00    +0.000 A 
ATOM     17  C   UNL     1      60.929  64.046  68.395  0.00  0.00    +0.000 A 
ATOM     18  C   UNL     1      60.912  64.867  68.318  0.00  0.00    +0.000 A 
ATOM     19  C   UNL     1      60.690  65.338  68.960  0.00  0.00    +0.000 A 
ATOM     20  C   UNL     1      60.486  64.986  69.677  0.00  0.00    +0.000 A 
ATOM     21  C   UNL     1      60.504  64.164  69.754  0.00  0.00    +0.000 A 
ENDROOT
TORSDOF 0
ENDMDL
MODEL 8
REMARK VINA RESULT:   -10.165      1.924      5.590
REMARK INTER + INTRA:         -10.165
REMARK INTER:                 -10.165
REMARK INTRA:                   0.000
REMARK UNBOUND:                 0.000
ROOT
REMARK  Name = butaverine
REMARK                            x       y       z     vdW  Elec       q    Type
REMARK                         _______ _______ _______ _____ _____    ______ ____
ATOM      1  C   UNL     1      61.160  62.374  65.781  0.00  0.00    +0.000 C 
ATOM      2  C   UNL     1      61.568  62.746  66.394  0.00  0.00    +0.000 C 
ATOM      3  C   UNL     1      61.256  62.747  67.157  0.00  0.00    +0.000 C 
ATOM      4  C   UNL     1      61.664  63.119  67.770  0.00  0.00    +0.000 C 
ATOM      5  O   UNL     1      61.351  63.121  68.533  0.00  0.00    +0.000 OA
ATOM      6  C   UNL     1      61.759  63.492  69.145  0.00  0.00    +0.000 C 
ATOM      7  O   UNL     1      62.482  63.863  68.994  0.00  0.00    +0.000 OA
ATOM      8  C   UNL     1      61.446  63.494  69.909  0.00  0.00    +0.000 C 
ATOM      9  C   UNL     1      61.855  63.866  70.522  0.00  0.00    +0.000 C 
ATOM     10  N   UNL     1      61.542  63.868  71.285  0.00  0.00    +0.000 NA
ATOM     11  C   UNL     1      61.950  64.239  71.897  0.00  0.00    +0.000 C 
ATOM     12  C   UNL     1      61.637  64.241  72.661  0.00  0.00    +0.000 C 
ATOM     13  C   UNL     1      60.916  63.871  72.811  0.00  0.00    +0.000 C 
ATOM     14  C   UNL     1      60.506  63.499  72.198  0.00  0.00    +0.000 C 
ATOM     15  C   UNL     1      60.820  63.498  71.435  0.00  0.00    +0.000 C 
ATOM     16  C   UNL     1      62.577  64.236  70.371  0.00  0.00    +0.000 A 
ATOM     17  C   UNL     1      62.890  64.234  69.608  0.00  0.00    +0.000 A 
ATOM     18  C   UNL     1      63.612  64.604  69.457  0.00  0.00    +0.000 A 
ATOM     19  C   UNL     1      64.021  64.976  70.070  0.00  0.00    +0.000 A 
ATOM     20  C   UNL     1      63.708  64.978  70.833  0.00  0.00    +0.000 A 
ATOM     21  C   UNL     1      62.986  64.608  70.984  0.00  0.00    +0.000 A 
ENDROOT
TORSDOF 0
ENDMDL
MODEL 9
REMARK VINA RESULT:   -10.160      3.316      5.087
REMARK INTER + INTRA:         -10.160
REMARK INTER:                 -10.160
REMARK INTRA:                   0.000
REMARK UNBOUND:                 0.000
ROOT
REMARK  Name = butaverine
REMARK                            x       y       z     vdW  Elec       q    Type
REMARK                         _______ _______ _______ _____ _____    ______ ____
ATOM      1  C   UNL     1      57.902  67.419  73.222  0.00  0.00    +0.000 C 
ATOM      2  C   UNL     1      58.389  66.763  73.114  0.00  0.00    +0.000 C 
ATOM      3  C   UNL     1      58.530  66.474  72.355  0.00  0.00    +0.000 C 
ATOM      4  C   UNL     1      59.018  65.817  72.246  0.00  0.00    +0.000 C 
ATOM      5  O   UNL     1      59.159  65.529  71.487  0.00  0.00    +0.000 OA
ATOM      6  C   UNL     1      59.646  64.873  71.379  0.00  0.00    +0.000 C 
ATOM      7  O   UNL     1      59.993  64.504  72.032  0.00  0.00    +0.000 OA
ATOM      8  C   UNL     1      59.788  64.583  70.619  0.00  0.00    +0.000 C 
ATOM      9  C   UNL     1      60.276  63.927  70.511  0.00  0.00    +0.000 C 
ATOM     10  N   UNL     1      60.417  63.638  69.752  0.00  0.00    +0.000 NA
ATOM     11  C   UNL     1      60.904  62.982  69.644  0.00  0.00    +0.000 C 
ATOM     12  C   UNL     1      61.046  62.693  68.884  0.00  0.00    +0.000 C 
ATOM     13  C   UNL     1      60.699  63.061  68.232  0.00  0.00    +0.000 C 
ATOM     14  C   UNL     1      60.211  63.718  68.340  0.00  0.00    +0.000 C 
ATOM     15  C   UNL     1      60.071  64.006  69.099  0.00  0.00    +0.000 C 
ATOM     16  C   UNL     1      60.622  63.558  71.164  0.00  0.00    +0.000 A 
ATOM     17  C   UNL     1      60.481  63.847  71.923  0.00  0.00    +0.000 A 
ATOM     18  C   UNL     1      60.827  63.479  72.575  0.00  0.00    +0.000 A 
ATOM     19  C   UNL     1      61.315  62.822  72.468  0.00  0.00    +0.000 A 
ATOM     20  C   UNL     1      61.456  62.534  71.708  0.00  0.00    +0.000 A 
ATOM     21  C   UNL     1      61.110  62.902  71.056  0.00  0.00    +0.000 A 
ENDROOT
TORSDOF 0
ENDMDL
