MODEL 1
REMARK VINA RESULT:   -12.688      0.000      0.000
REMARK INTER + INTRA:         -12.688
REMARK INTER:                 -12.688
REMARK INTRA:                   0.000
REMARK UNBOUND:                 0.000
ROOT
REMARK  Name = butinoline
REMARK                            x       y       z     vdW  Elec       q    Type
REMARK                         _______ _______ _______ _____ _____    ______ ____
ATOM      1  O   UNL     1      62.366  62.459  65.859  0.00  0.00    +0.000 OA
ATOM      2  C   UNL     1      61.564  62.351  66.017  0.00  0.00    +0.000 C 
ATOM      3  C   UNL     1      61.651  62.755  66.731  0.00  0.00    +0.000 C 
ATOM      4  C   UNL     1      61.737  63.158  67.446  0.00  0.00    +0.000 C 
ATOM      5  C   UNL     1      61.823  63.562  68.160  0.00  0.00    +0.000 C 
ATOM      6  N   UNL     1      61.171  63.670  68.655  0.00  0.00    +0.000 NA
ATOM      7  C   UNL     1      60.404  63.407  68.508  0.00  0.00    +0.000 C 
ATOM      8  C   UNL     1      59.931  63.634  69.145  0.00  0.00    +0.000 C 
ATOM      9  C   UNL     1      60.407  64.038  69.685  0.00  0.00    +0.000 C 
ATOM     10  C   UNL     1      61.174  64.060  69.381  0.00  0.00    +0.000 C 
ATOM     11  C   UNL     1      61.477  61.948  65.303  0.00  0.00    +0.000 A 
ATOM     12  C   UNL     1      62.130  61.840  64.808  0.00  0.00    +0.000 A 
ATOM     13  C   UNL     1      62.043  61.436  64.094  0.00  0.00    +0.000 A 
ATOM     14  C   UNL     1      61.305  61.141  63.873  0.00  0.00    +0.000 A 
ATOM     15  C   UNL     1      60.653  61.249  64.368  0.00  0.00    +0.000 A 
ATOM     16  C   UNL     1      60.740  61.653  65.082  0.00  0.00    +0.000 A 
ATOM     17  C   UNL     1      60.762  62.243  66.175  0.00  0.00    +0.000 A 
ATOM     18  C   UNL     1      60.286  61.839  65.635  0.00  0.00    +0.000 A 
ATOM     19  C   UNL     1      59.483  61.732  65.794  0.00  0.00    +0.000 A 
ATOM     20  C   UNL     1      59.157  62.027  66.491  0.00  0.00    +0.000 A 
ATOM     21  C   UNL     1      59.633  62.430  67.031  0.00  0.00    +0.000 A 
ATOM     22  C   UNL     1      60.435  62.539  66.873  0.00  0.00    +0.000 A 
ENDROOT
TORSDOF 0
ENDMDL
MODEL 2
REMARK VINA RESULT:   -11.797      2.181      5.061
REMARK INTER + INTRA:         -11.797
REMARK INTER:                 -11.797
REMARK INTRA:                   0.000
REMARK UNBOUND:                 0.000
ROOT
REMARK  Name = butinoline
REMARK                            x       y       z     vdW  Elec       q    Type
REMARK                         _______ _______ _______ _____ _____    ______ ____
ATOM      1  O   UNL     1      61.839  64.289  70.424  0.00  0.00    +0.000 OA
ATOM      2  C   UNL     1      61.441  63.567  70.406  0.00  0.00    +0.000 C 
ATOM      3  C   UNL     1      61.394  63.613  69.584  0.00  0.00    +0.000 C 
ATOM      4  C   UNL     1      61.347  63.659  68.761  0.00  0.00    +0.000 C 
ATOM      5  C   UNL     1      61.299  63.704  67.939  0.00  0.00    +0.000 C 
ATOM      6  N   UNL     1      60.931  63.102  67.513  0.00  0.00    +0.000 NA
ATOM      7  C   UNL     1      60.587  62.424  67.831  0.00  0.00    +0.000 C 
ATOM      8  C   UNL     1      60.285  61.975  67.208  0.00  0.00    +0.000 C 
ATOM      9  C   UNL     1      60.443  62.376  66.505  0.00  0.00    +0.000 C 
ATOM     10  C   UNL     1      60.843  63.073  66.693  0.00  0.00    +0.000 C 
ATOM     11  C   UNL     1      61.487  63.521  71.229  0.00  0.00    +0.000 A 
ATOM     12  C   UNL     1      61.856  64.124  71.656  0.00  0.00    +0.000 A 
ATOM     13  C   UNL     1      61.903  64.078  72.477  0.00  0.00    +0.000 A 
ATOM     14  C   UNL     1      61.582  63.429  72.874  0.00  0.00    +0.000 A 
ATOM     15  C   UNL     1      61.213  62.826  72.447  0.00  0.00    +0.000 A 
ATOM     16  C   UNL     1      61.166  62.873  71.624  0.00  0.00    +0.000 A 
ATOM     17  C   UNL     1      61.042  62.845  70.389  0.00  0.00    +0.000 A 
ATOM     18  C   UNL     1      60.884  62.444  71.093  0.00  0.00    +0.000 A 
ATOM     19  C   UNL     1      60.485  61.722  71.074  0.00  0.00    +0.000 A 
ATOM     20  C   UNL     1      60.246  61.400  70.354  0.00  0.00    +0.000 A 
ATOM     21  C   UNL     1      60.404  61.801  69.651  0.00  0.00    +0.000 A 
ATOM     22  C   UNL     1      60.802  62.523  69.667  0.00  0.00    +0.000 A 
ENDROOT
TORSDOF 0
ENDMDL
MODEL 3
REMARK VINA RESULT:   -11.570      5.501      6.915
REMARK INTER + INTRA:         -11.570
REMARK INTER:                 -11.570
REMARK INTRA:                   0.000
REMARK UNBOUND:                 0.000
ROOT
REMARK  Name = butinoline
REMARK                            x       y       z     vdW  Elec       q    Type
REMARK                         _______ _______ _______ _____ _____    ______ ____
ATOM      1  O   UNL     1      64.149  67.189  71.940  0.00  0.00    +0.000 OA
ATOM      2  C   UNL     1      64.120  66.535  71.439  0.00  0.00    +0.000 C 
ATOM      3  C   UNL     1      63.487  66.232  71.872  0.00  0.00    +0.000 C 
ATOM      4  C   UNL     1      62.852  65.928  72.305  0.00  0.00    +0.000 C 
ATOM      5  C   UNL     1      62.219  65.625  72.737  0.00  0.00    +0.000 C 
ATOM      6  N   UNL     1      61.877  64.906  72.519  0.00  0.00    +0.000 NA
ATOM      7  C   UNL     1      62.108  64.432  71.886  0.00  0.00    +0.000 C 
ATOM      8  C   UNL     1      61.617  63.769  71.872  0.00  0.00    +0.000 C 
ATOM      9  C   UNL     1      61.083  63.833  72.497  0.00  0.00    +0.000 C 
ATOM     10  C   UNL     1      61.244  64.537  72.898  0.00  0.00    +0.000 C 
ATOM     11  C   UNL     1      64.753  66.837  71.006  0.00  0.00    +0.000 A 
ATOM     12  C   UNL     1      65.096  67.556  71.224  0.00  0.00    +0.000 A 
ATOM     13  C   UNL     1      65.729  67.859  70.792  0.00  0.00    +0.000 A 
ATOM     14  C   UNL     1      66.021  67.444  70.141  0.00  0.00    +0.000 A 
ATOM     15  C   UNL     1      65.679  66.725  69.923  0.00  0.00    +0.000 A 
ATOM     16  C   UNL     1      65.045  66.422  70.356  0.00  0.00    +0.000 A 
ATOM     17  C   UNL     1      64.091  65.880  70.938  0.00  0.00    +0.000 A 
ATOM     18  C   UNL     1      64.625  65.816  70.312  0.00  0.00    +0.000 A 
ATOM     19  C   UNL     1      64.595  65.161  69.811  0.00  0.00    +0.000 A 
ATOM     20  C   UNL     1      64.032  64.571  69.935  0.00  0.00    +0.000 A 
ATOM     21  C   UNL     1      63.498  64.636  70.560  0.00  0.00    +0.000 A 
ATOM     22  C   UNL     1      63.527  65.290  71.062  0.00  0.00    +0.000 A 
ENDROOT
TORSDOF 0
ENDMDL
MODEL 4
REMARK VINA RESULT:   -11.306      4.816      6.801
REMARK INTER + INTRA:         -11.306
REMARK INTER:                 -11.306
REMARK INTRA:                   0.000
REMARK UNBOUND:                 0.000
ROOT
REMARK  Name = butinoline
REMARK                            x       y       z     vdW  Elec       q    Type
REMARK                         _______ _______ _______ _____ _____    ______ ____
ATOM      1  O   UNL     1      64.691  65.538  69.753  0.00  0.00    +0.000 OA
ATOM      2  C   UNL     1      64.321  65.779  70.449  0.00  0.00    +0.000 C 
ATOM      3  C   UNL     1      63.816  65.128  70.407  0.00  0.00    +0.000 C 
ATOM      4  C   UNL     1      63.311  64.477  70.364  0.00  0.00    +0.000 C 
ATOM      5  C   UNL     1      62.806  63.826  70.322  0.00  0.00    +0.000 C 
ATOM      6  N   UNL     1      62.233  63.710  70.905  0.00  0.00    +0.000 NA
ATOM      7  C   UNL     1      62.101  64.195  71.558  0.00  0.00    +0.000 C 
ATOM      8  C   UNL     1      61.478  63.872  71.992  0.00  0.00    +0.000 C 
ATOM      9  C   UNL     1      61.225  63.188  71.607  0.00  0.00    +0.000 C 
ATOM     10  C   UNL     1      61.692  63.087  70.934  0.00  0.00    +0.000 C 
ATOM     11  C   UNL     1      64.826  66.430  70.493  0.00  0.00    +0.000 A 
ATOM     12  C   UNL     1      65.399  66.547  69.910  0.00  0.00    +0.000 A 
ATOM     13  C   UNL     1      65.904  67.197  69.952  0.00  0.00    +0.000 A 
ATOM     14  C   UNL     1      65.836  67.732  70.577  0.00  0.00    +0.000 A 
ATOM     15  C   UNL     1      65.263  67.616  71.160  0.00  0.00    +0.000 A 
ATOM     16  C   UNL     1      64.758  66.964  71.117  0.00  0.00    +0.000 A 
ATOM     17  C   UNL     1      63.951  66.021  71.146  0.00  0.00    +0.000 A 
ATOM     18  C   UNL     1      64.204  66.705  71.531  0.00  0.00    +0.000 A 
ATOM     19  C   UNL     1      63.833  66.946  72.228  0.00  0.00    +0.000 A 
ATOM     20  C   UNL     1      63.211  66.504  72.540  0.00  0.00    +0.000 A 
ATOM     21  C   UNL     1      62.959  65.819  72.155  0.00  0.00    +0.000 A 
ATOM     22  C   UNL     1      63.329  65.577  71.458  0.00  0.00    +0.000 A 
ENDROOT
TORSDOF 0
ENDMDL
MODEL 5
REMARK VINA RESULT:   -11.300      5.384      6.705
REMARK INTER + INTRA:         -11.300
REMARK INTER:                 -11.300
REMARK INTRA:                   0.000
REMARK UNBOUND:                 0.000
ROOT
REMARK  Name = butinoline
REMARK                            x       y       z     vdW  Elec       q    Type
REMARK                         _______ _______ _______ _____ _____    ______ ____
ATOM      1  O   UNL     1      62.867  63.751  70.731  0.00  0.00    +0.000 OA
ATOM      2  C   UNL     1      62.791  64.383  71.254  0.00  0.00    +0.000 C 
ATOM      3  C   UNL     1      63.430  64.759  70.894  0.00  0.00    +0.000 C 
ATOM      4  C   UNL     1      64.070  65.135  70.533  0.00  0.00    +0.000 C 
ATOM      5  C   UNL     1      64.709  65.512  70.172  0.00  0.00    +0.000 C 
ATOM      6  N   UNL     1      64.963  66.248  70.446  0.00  0.00    +0.000 NA
ATOM      7  C   UNL     1      64.633  66.672  71.071  0.00  0.00    +0.000 C 
ATOM      8  C   UNL     1      65.057  67.375  71.153  0.00  0.00    +0.000 C 
ATOM      9  C   UNL     1      65.649  67.384  70.579  0.00  0.00    +0.000 C 
ATOM     10  C   UNL     1      65.591  66.687  70.141  0.00  0.00    +0.000 C 
ATOM     11  C   UNL     1      62.151  64.007  71.616  0.00  0.00    +0.000 A 
ATOM     12  C   UNL     1      61.897  63.270  71.342  0.00  0.00    +0.000 A 
ATOM     13  C   UNL     1      61.258  62.895  71.702  0.00  0.00    +0.000 A 
ATOM     14  C   UNL     1      60.872  63.254  72.337  0.00  0.00    +0.000 A 
ATOM     15  C   UNL     1      61.126  63.991  72.611  0.00  0.00    +0.000 A 
ATOM     16  C   UNL     1      61.765  64.367  72.249  0.00  0.00    +0.000 A 
ATOM     17  C   UNL     1      62.714  65.015  71.779  0.00  0.00    +0.000 A 
ATOM     18  C   UNL     1      62.122  65.006  72.353  0.00  0.00    +0.000 A 
ATOM     19  C   UNL     1      62.046  65.639  72.877  0.00  0.00    +0.000 A 
ATOM     20  C   UNL     1      62.561  66.280  72.827  0.00  0.00    +0.000 A 
ATOM     21  C   UNL     1      63.153  66.290  72.252  0.00  0.00    +0.000 A 
ATOM     22  C   UNL     1      63.230  65.658  71.728  0.00  0.00    +0.000 A 
ENDROOT
TORSDOF 0
ENDMDL
MODEL 6
REMARK VINA RESULT:   -11.231      3.699      5.294
REMARK INTER + INTRA:         -11.231
REMARK INTER:                 -11.231
REMARK INTRA:                   0.000
REMARK UNBOUND:                 0.000
ROOT
REMARK  Name = butinoline
REMARK                            x       y       z     vdW  Elec       q    Type
REMARK                         _______ _______ _______ _____ _____    ______ ____
ATOM      1  O   UNL     1      61.495  63.642  69.555  0.00  0.00    +0.000 OA
ATOM      2  C   UNL     1      61.520  63.598  70.378  0.00  0.00    +0.000 C 
ATOM      3  C   UNL     1      61.924  64.316  70.404  0.00  0.00    +0.000 C 
ATOM      4  C   UNL     1      62.328  65.036  70.431  0.00  0.00    +0.000 C 
ATOM      5  C   UNL     1      62.732  65.754  70.458  0.00  0.00    +0.000 C 
ATOM      6  N   UNL     1      62.956  66.075  71.184  0.00  0.00    +0.000 NA
ATOM      7  C   UNL     1      62.814  65.742  71.925  0.00  0.00    +0.000 C 
ATOM      8  C   UNL     1      63.132  66.247  72.496  0.00  0.00    +0.000 C 
ATOM      9  C   UNL     1      63.469  66.892  72.107  0.00  0.00    +0.000 C 
ATOM     10  C   UNL     1      63.360  66.786  71.296  0.00  0.00    +0.000 C 
ATOM     11  C   UNL     1      61.116  62.879  70.352  0.00  0.00    +0.000 A 
ATOM     12  C   UNL     1      60.892  62.558  69.625  0.00  0.00    +0.000 A 
ATOM     13  C   UNL     1      60.488  61.840  69.598  0.00  0.00    +0.000 A 
ATOM     14  C   UNL     1      60.308  61.441  70.298  0.00  0.00    +0.000 A 
ATOM     15  C   UNL     1      60.532  61.762  71.025  0.00  0.00    +0.000 A 
ATOM     16  C   UNL     1      60.936  62.481  71.051  0.00  0.00    +0.000 A 
ATOM     17  C   UNL     1      61.545  63.553  71.201  0.00  0.00    +0.000 A 
ATOM     18  C   UNL     1      61.207  62.908  71.590  0.00  0.00    +0.000 A 
ATOM     19  C   UNL     1      61.233  62.865  72.413  0.00  0.00    +0.000 A 
ATOM     20  C   UNL     1      61.595  63.464  72.848  0.00  0.00    +0.000 A 
ATOM     21  C   UNL     1      61.932  64.109  72.459  0.00  0.00    +0.000 A 
ATOM     22  C   UNL     1      61.908  64.154  71.636  0.00  0.00    +0.000 A 
ENDROOT
TORSDOF 0
ENDMDL
MODEL 7
REMARK VINA RESULT:   -11.064      2.089      3.664
REMARK INTER + INTRA:         -11.064
REMARK INTER:                 -11.064
REMARK INTRA:                   0.000
REMARK UNBOUND:                 0.000
ROOT
REMARK  Name = butinoline
REMARK                            x       y       z     vdW  Elec       q    Type
REMARK                         _______ _______ _______ _____ _____    ______ ____
ATOM      1  O   UNL     1      60.420  64.311  68.501  0.00  0.00    +0.000 OA
ATOM      2  C   UNL     1      60.427  63.692  69.046  0.00  0.00    +0.000 C 
ATOM      3  C   UNL     1      60.405  64.237  69.665  0.00  0.00    +0.000 C 
ATOM      4  C   UNL     1      60.384  64.783  70.284  0.00  0.00    +0.000 C 
ATOM      5  C   UNL     1      60.363  65.327  70.904  0.00  0.00    +0.000 C 
ATOM      6  N   UNL     1      60.358  65.063  71.685  0.00  0.00    +0.000 NA
ATOM      7  C   UNL     1      60.372  64.277  71.931  0.00  0.00    +0.000 C 
ATOM      8  C   UNL     1      60.361  64.268  72.756  0.00  0.00    +0.000 C 
ATOM      9  C   UNL     1      60.340  65.049  73.020  0.00  0.00    +0.000 C 
ATOM     10  C   UNL     1      60.338  65.542  72.357  0.00  0.00    +0.000 C 
ATOM     11  C   UNL     1      60.448  63.147  68.428  0.00  0.00    +0.000 A 
ATOM     12  C   UNL     1      60.453  63.410  67.645  0.00  0.00    +0.000 A 
ATOM     13  C   UNL     1      60.474  62.866  67.027  0.00  0.00    +0.000 A 
ATOM     14  C   UNL     1      60.490  62.057  67.189  0.00  0.00    +0.000 A 
ATOM     15  C   UNL     1      60.485  61.793  67.972  0.00  0.00    +0.000 A 
ATOM     16  C   UNL     1      60.464  62.339  68.590  0.00  0.00    +0.000 A 
ATOM     17  C   UNL     1      60.433  63.073  69.591  0.00  0.00    +0.000 A 
ATOM     18  C   UNL     1      60.454  62.291  69.328  0.00  0.00    +0.000 A 
ATOM     19  C   UNL     1      60.460  61.673  69.874  0.00  0.00    +0.000 A 
ATOM     20  C   UNL     1      60.445  61.835  70.682  0.00  0.00    +0.000 A 
ATOM     21  C   UNL     1      60.424  62.617  70.945  0.00  0.00    +0.000 A 
ATOM     22  C   UNL     1      60.418  63.236  70.401  0.00  0.00    +0.000 A 
ENDROOT
TORSDOF 0
ENDMDL
MODEL 8
REMARK VINA RESULT:   -10.656      2.789      6.116
REMARK INTER + INTRA:         -10.656
REMARK INTER:                 -10.656
REMARK INTRA:                   0.000
REMARK UNBOUND:                 0.000
ROOT
REMARK  Name = butinoline
REMARK                            x       y       z     vdW  Elec       q    Type
REMARK                         _______ _______ _______ _____ _____    ______ ____
ATOM      1  O   UNL     1      59.505  65.929  70.329  0.00  0.00    +0.000 OA
ATOM      2  C   UNL     1      59.721  65.259  70.759  0.00  0.00    +0.000 C 
ATOM      3  C   UNL     1      59.826  64.842  70.056  0.00  0.00    +0.000 C 
ATOM      4  C   UNL     1      59.932  64.424  69.352  0.00  0.00    +0.000 C 
ATOM      5  C   UNL     1      60.038  64.006  68.649  0.00  0.00    +0.000 C 
ATOM      6  N   UNL     1      60.278  63.217  68.669  0.00  0.00    +0.000 NA
ATOM      7  C   UNL     1      60.432  62.775  69.348  0.00  0.00    +0.000 C 
ATOM      8  C   UNL     1      60.655  62.016  69.113  0.00  0.00    +0.000 C 
ATOM      9  C   UNL     1      60.639  61.990  68.289  0.00  0.00    +0.000 C 
ATOM     10  C   UNL     1      60.406  62.732  68.014  0.00  0.00    +0.000 C 
ATOM     11  C   UNL     1      59.615  65.677  71.463  0.00  0.00    +0.000 A 
ATOM     12  C   UNL     1      59.375  66.467  71.442  0.00  0.00    +0.000 A 
ATOM     13  C   UNL     1      59.269  66.884  72.145  0.00  0.00    +0.000 A 
ATOM     14  C   UNL     1      59.403  66.513  72.870  0.00  0.00    +0.000 A 
ATOM     15  C   UNL     1      59.643  65.723  72.891  0.00  0.00    +0.000 A 
ATOM     16  C   UNL     1      59.749  65.306  72.187  0.00  0.00    +0.000 A 
ATOM     17  C   UNL     1      59.936  64.590  71.189  0.00  0.00    +0.000 A 
ATOM     18  C   UNL     1      59.952  64.617  72.014  0.00  0.00    +0.000 A 
ATOM     19  C   UNL     1      60.169  63.946  72.444  0.00  0.00    +0.000 A 
ATOM     20  C   UNL     1      60.368  63.250  72.050  0.00  0.00    +0.000 A 
ATOM     21  C   UNL     1      60.352  63.223  71.226  0.00  0.00    +0.000 A 
ATOM     22  C   UNL     1      60.136  63.893  70.795  0.00  0.00    +0.000 A 
ENDROOT
TORSDOF 0
ENDMDL
MODEL 9
REMARK VINA RESULT:   -10.105      5.135      6.320
REMARK INTER + INTRA:         -10.105
REMARK INTER:                 -10.105
REMARK INTRA:                   0.000
REMARK UNBOUND:                 0.000
ROOT
REMARK  Name = butinoline
REMARK                            x       y       z     vdW  Elec       q    Type
REMARK                         _______ _______ _______ _____ _____    ______ ____
ATOM      1  O   UNL     1      62.167  64.231  70.414  0.00  0.00    +0.000 OA
ATOM      2  C   UNL     1      62.262  64.796  71.006  0.00  0.00    +0.000 C 
ATOM      3  C   UNL     1      61.465  64.723  71.205  0.00  0.00    +0.000 C 
ATOM      4  C   UNL     1      60.668  64.649  71.404  0.00  0.00    +0.000 C 
ATOM      5  C   UNL     1      59.871  64.576  71.604  0.00  0.00    +0.000 C 
ATOM      6  N   UNL     1      59.555  65.029  72.217  0.00  0.00    +0.000 NA
ATOM      7  C   UNL     1      59.967  65.576  72.676  0.00  0.00    +0.000 C 
ATOM      8  C   UNL     1      59.438  65.900  73.221  0.00  0.00    +0.000 C 
ATOM      9  C   UNL     1      58.700  65.553  73.097  0.00  0.00    +0.000 C 
ATOM     10  C   UNL     1      58.772  65.015  72.476  0.00  0.00    +0.000 C 
ATOM     11  C   UNL     1      63.060  64.870  70.808  0.00  0.00    +0.000 A 
ATOM     12  C   UNL     1      63.376  64.416  70.194  0.00  0.00    +0.000 A 
ATOM     13  C   UNL     1      64.172  64.490  69.996  0.00  0.00    +0.000 A 
ATOM     14  C   UNL     1      64.655  65.017  70.409  0.00  0.00    +0.000 A 
ATOM     15  C   UNL     1      64.339  65.471  71.022  0.00  0.00    +0.000 A 
ATOM     16  C   UNL     1      63.541  65.397  71.221  0.00  0.00    +0.000 A 
ATOM     17  C   UNL     1      62.359  65.362  71.599  0.00  0.00    +0.000 A 
ATOM     18  C   UNL     1      63.097  65.709  71.723  0.00  0.00    +0.000 A 
ATOM     19  C   UNL     1      63.192  66.275  72.316  0.00  0.00    +0.000 A 
ATOM     20  C   UNL     1      62.550  66.494  72.784  0.00  0.00    +0.000 A 
ATOM     21  C   UNL     1      61.812  66.147  72.660  0.00  0.00    +0.000 A 
ATOM     22  C   UNL     1      61.715  65.581  72.068  0.00  0.00    +0.000 A 
ENDROOT
TORSDOF 0
ENDMDL
