MODEL 1
REMARK VINA RESULT:   -14.281      0.000      0.000
REMARK INTER + INTRA:         -14.281
REMARK INTER:                 -14.281
REMARK INTRA:                   0.000
REMARK UNBOUND:                 0.000
ROOT
REMARK  Name = cabergoline
REMARK                            x       y       z     vdW  Elec       q    Type
REMARK                         _______ _______ _______ _____ _____    ______ ____
ATOM      1  C   UNL     1      60.777  61.614  69.691  0.00  0.00    +0.000 C 
ATOM      2  C   UNL     1      60.536  62.306  70.070  0.00  0.00    +0.000 C 
ATOM      3  N   UNL     1      60.501  63.016  69.651  0.00  0.00    +0.000 NA
ATOM      4  C   UNL     1      60.707  63.033  68.852  0.00  0.00    +0.000 C 
ATOM      5  O   UNL     1      60.948  62.342  68.473  0.00  0.00    +0.000 OA
ATOM      6  N   UNL     1      60.672  63.743  68.433  0.00  0.00    +0.000 N 
ATOM      7  C   UNL     1      60.878  63.761  67.633  0.00  0.00    +0.000 C 
ATOM      8  C   UNL     1      61.119  63.068  67.254  0.00  0.00    +0.000 C 
ATOM      9  C   UNL     1      61.325  63.086  66.456  0.00  0.00    +0.000 C 
ATOM     10  N   UNL     1      61.567  62.395  66.077  0.00  0.00    +0.000 NA
ATOM     11  C   UNL     1      61.773  62.412  65.278  0.00  0.00    +0.000 C 
ATOM     12  C   UNL     1      61.602  61.685  66.496  0.00  0.00    +0.000 C 
ATOM     13  C   UNL     1      60.430  64.435  68.812  0.00  0.00    +0.000 C 
ATOM     14  O   UNL     1      60.395  65.144  68.393  0.00  0.00    +0.000 OA
ATOM     15  C   UNL     1      60.224  64.417  69.611  0.00  0.00    +0.000 C 
ATOM     16  C   UNL     1      59.983  65.108  69.990  0.00  0.00    +0.000 C 
ATOM     17  C   UNL     1      59.777  65.090  70.788  0.00  0.00    +0.000 C 
ATOM     18  C   UNL     1      59.812  64.381  71.208  0.00  0.00    +0.000 C 
ATOM     19  C   UNL     1      59.606  64.363  72.006  0.00  0.00    +0.000 C 
ATOM     20  C   UNL     1      59.365  65.056  72.385  0.00  0.00    +0.000 C 
ATOM     21  C   UNL     1      59.130  65.206  73.162  0.00  0.00    +0.000 C 
ATOM     22  N   UNL     1      58.950  66.009  73.222  0.00  0.00    +0.000 NA
ATOM     23  C   UNL     1      59.073  66.354  72.483  0.00  0.00    +0.000 C 
ATOM     24  C   UNL     1      58.985  67.130  72.214  0.00  0.00    +0.000 C 
ATOM     25  C   UNL     1      59.153  67.315  71.428  0.00  0.00    +0.000 C 
ATOM     26  C   UNL     1      59.410  66.726  70.911  0.00  0.00    +0.000 C 
ATOM     27  C   UNL     1      59.536  65.782  71.167  0.00  0.00    +0.000 C 
ATOM     28  C   UNL     1      59.330  65.765  71.966  0.00  0.00    +0.000 C 
ATOM     29  N   UNL     1      60.053  63.689  70.829  0.00  0.00    +0.000 NA
ATOM     30  C   UNL     1      60.089  62.980  71.248  0.00  0.00    +0.000 C 
ATOM     31  C   UNL     1      60.330  62.288  70.869  0.00  0.00    +0.000 C 
ATOM     32  C   UNL     1      60.365  61.579  71.288  0.00  0.00    +0.000 C 
ATOM     33  C   UNL     1      60.260  63.707  70.030  0.00  0.00    +0.000 C 
ENDROOT
TORSDOF 0
ENDMDL
MODEL 2
REMARK VINA RESULT:   -13.660      3.742      4.117
REMARK INTER + INTRA:         -13.660
REMARK INTER:                 -13.660
REMARK INTRA:                   0.000
REMARK UNBOUND:                 0.000
ROOT
REMARK  Name = cabergoline
REMARK                            x       y       z     vdW  Elec       q    Type
REMARK                         _______ _______ _______ _____ _____    ______ ____
ATOM      1  C   UNL     1      61.110  63.673  71.481  0.00  0.00    +0.000 C 
ATOM      2  C   UNL     1      61.742  64.200  71.421  0.00  0.00    +0.000 C 
ATOM      3  N   UNL     1      62.122  64.311  70.696  0.00  0.00    +0.000 NA
ATOM      4  C   UNL     1      61.868  63.894  70.032  0.00  0.00    +0.000 C 
ATOM      5  O   UNL     1      61.236  63.367  70.090  0.00  0.00    +0.000 OA
ATOM      6  N   UNL     1      62.247  64.004  69.307  0.00  0.00    +0.000 N 
ATOM      7  C   UNL     1      61.994  63.587  68.641  0.00  0.00    +0.000 C 
ATOM      8  C   UNL     1      61.362  63.060  68.700  0.00  0.00    +0.000 C 
ATOM      9  C   UNL     1      61.109  62.643  68.035  0.00  0.00    +0.000 C 
ATOM     10  N   UNL     1      60.477  62.116  68.093  0.00  0.00    +0.000 NA
ATOM     11  C   UNL     1      60.224  61.699  67.429  0.00  0.00    +0.000 C 
ATOM     12  C   UNL     1      60.098  62.006  68.818  0.00  0.00    +0.000 C 
ATOM     13  C   UNL     1      62.879  64.531  69.248  0.00  0.00    +0.000 C 
ATOM     14  O   UNL     1      63.258  64.641  68.523  0.00  0.00    +0.000 OA
ATOM     15  C   UNL     1      63.132  64.948  69.913  0.00  0.00    +0.000 C 
ATOM     16  C   UNL     1      63.764  65.475  69.854  0.00  0.00    +0.000 C 
ATOM     17  C   UNL     1      64.017  65.891  70.520  0.00  0.00    +0.000 C 
ATOM     18  C   UNL     1      63.638  65.781  71.244  0.00  0.00    +0.000 C 
ATOM     19  C   UNL     1      63.891  66.198  71.909  0.00  0.00    +0.000 C 
ATOM     20  C   UNL     1      64.523  66.725  71.850  0.00  0.00    +0.000 C 
ATOM     21  C   UNL     1      64.892  67.209  72.407  0.00  0.00    +0.000 C 
ATOM     22  N   UNL     1      65.499  67.619  72.027  0.00  0.00    +0.000 NA
ATOM     23  C   UNL     1      65.505  67.388  71.235  0.00  0.00    +0.000 C 
ATOM     24  C   UNL     1      65.982  67.609  70.599  0.00  0.00    +0.000 C 
ATOM     25  C   UNL     1      65.856  67.278  69.854  0.00  0.00    +0.000 C 
ATOM     26  C   UNL     1      65.253  66.725  69.745  0.00  0.00    +0.000 C 
ATOM     27  C   UNL     1      64.649  66.419  70.460  0.00  0.00    +0.000 C 
ATOM     28  C   UNL     1      64.902  66.835  71.126  0.00  0.00    +0.000 C 
ATOM     29  N   UNL     1      63.006  65.254  71.303  0.00  0.00    +0.000 NA
ATOM     30  C   UNL     1      62.628  65.144  72.027  0.00  0.00    +0.000 C 
ATOM     31  C   UNL     1      61.995  64.617  72.087  0.00  0.00    +0.000 C 
ATOM     32  C   UNL     1      61.617  64.507  72.811  0.00  0.00    +0.000 C 
ATOM     33  C   UNL     1      62.753  64.838  70.638  0.00  0.00    +0.000 C 
ENDROOT
TORSDOF 0
ENDMDL
MODEL 3
REMARK VINA RESULT:   -13.201      3.597      4.875
REMARK INTER + INTRA:         -13.201
REMARK INTER:                 -13.201
REMARK INTRA:                   0.000
REMARK UNBOUND:                 0.000
ROOT
REMARK  Name = cabergoline
REMARK                            x       y       z     vdW  Elec       q    Type
REMARK                         _______ _______ _______ _____ _____    ______ ____
ATOM      1  C   UNL     1      63.237  67.038  72.391  0.00  0.00    +0.000 C 
ATOM      2  C   UNL     1      62.825  66.373  72.128  0.00  0.00    +0.000 C 
ATOM      3  N   UNL     1      63.073  65.974  71.450  0.00  0.00    +0.000 NA
ATOM      4  C   UNL     1      63.734  66.241  71.035  0.00  0.00    +0.000 C 
ATOM      5  O   UNL     1      64.146  66.905  71.296  0.00  0.00    +0.000 OA
ATOM      6  N   UNL     1      63.982  65.842  70.356  0.00  0.00    +0.000 N 
ATOM      7  C   UNL     1      64.644  66.108  69.939  0.00  0.00    +0.000 C 
ATOM      8  C   UNL     1      65.056  66.773  70.202  0.00  0.00    +0.000 C 
ATOM      9  C   UNL     1      65.717  67.039  69.786  0.00  0.00    +0.000 C 
ATOM     10  N   UNL     1      66.129  67.703  70.048  0.00  0.00    +0.000 NA
ATOM     11  C   UNL     1      66.790  67.970  69.632  0.00  0.00    +0.000 C 
ATOM     12  C   UNL     1      65.881  68.102  70.726  0.00  0.00    +0.000 C 
ATOM     13  C   UNL     1      63.570  65.177  70.093  0.00  0.00    +0.000 C 
ATOM     14  O   UNL     1      63.818  64.779  69.415  0.00  0.00    +0.000 OA
ATOM     15  C   UNL     1      62.909  64.911  70.509  0.00  0.00    +0.000 C 
ATOM     16  C   UNL     1      62.497  64.247  70.248  0.00  0.00    +0.000 C 
ATOM     17  C   UNL     1      61.836  63.981  70.664  0.00  0.00    +0.000 C 
ATOM     18  C   UNL     1      61.588  64.379  71.342  0.00  0.00    +0.000 C 
ATOM     19  C   UNL     1      60.927  64.113  71.758  0.00  0.00    +0.000 C 
ATOM     20  C   UNL     1      60.514  63.448  71.495  0.00  0.00    +0.000 C 
ATOM     21  C   UNL     1      59.848  63.060  71.789  0.00  0.00    +0.000 C 
ATOM     22  N   UNL     1      59.685  62.422  71.293  0.00  0.00    +0.000 NA
ATOM     23  C   UNL     1      60.250  62.416  70.692  0.00  0.00    +0.000 C 
ATOM     24  C   UNL     1      60.364  61.914  70.047  0.00  0.00    +0.000 C 
ATOM     25  C   UNL     1      60.991  62.046  69.527  0.00  0.00    +0.000 C 
ATOM     26  C   UNL     1      61.503  62.681  69.652  0.00  0.00    +0.000 C 
ATOM     27  C   UNL     1      61.423  63.316  70.401  0.00  0.00    +0.000 C 
ATOM     28  C   UNL     1      60.763  63.050  70.817  0.00  0.00    +0.000 C 
ATOM     29  N   UNL     1      62.000  65.044  71.604  0.00  0.00    +0.000 NA
ATOM     30  C   UNL     1      61.752  65.442  72.282  0.00  0.00    +0.000 C 
ATOM     31  C   UNL     1      62.164  66.107  72.545  0.00  0.00    +0.000 C 
ATOM     32  C   UNL     1      61.916  66.505  73.222  0.00  0.00    +0.000 C 
ATOM     33  C   UNL     1      62.661  65.310  71.188  0.00  0.00    +0.000 C 
ENDROOT
TORSDOF 0
ENDMDL
MODEL 4
REMARK VINA RESULT:   -13.170      0.906      5.151
REMARK INTER + INTRA:         -13.170
REMARK INTER:                 -13.170
REMARK INTRA:                   0.000
REMARK UNBOUND:                 0.000
ROOT
REMARK  Name = cabergoline
REMARK                            x       y       z     vdW  Elec       q    Type
REMARK                         _______ _______ _______ _____ _____    ______ ____
ATOM      1  C   UNL     1      60.066  62.934  71.330  0.00  0.00    +0.000 C 
ATOM      2  C   UNL     1      60.287  62.795  70.547  0.00  0.00    +0.000 C 
ATOM      3  N   UNL     1      60.287  63.415  70.002  0.00  0.00    +0.000 NA
ATOM      4  C   UNL     1      60.067  64.173  70.240  0.00  0.00    +0.000 C 
ATOM      5  O   UNL     1      59.846  64.312  71.022  0.00  0.00    +0.000 OA
ATOM      6  N   UNL     1      60.067  64.793  69.695  0.00  0.00    +0.000 N 
ATOM      7  C   UNL     1      59.846  65.552  69.933  0.00  0.00    +0.000 C 
ATOM      8  C   UNL     1      59.625  65.691  70.716  0.00  0.00    +0.000 C 
ATOM      9  C   UNL     1      59.405  66.449  70.953  0.00  0.00    +0.000 C 
ATOM     10  N   UNL     1      59.183  66.589  71.735  0.00  0.00    +0.000 NA
ATOM     11  C   UNL     1      58.963  67.347  71.974  0.00  0.00    +0.000 C 
ATOM     12  C   UNL     1      59.183  65.969  72.281  0.00  0.00    +0.000 C 
ATOM     13  C   UNL     1      60.288  64.654  68.912  0.00  0.00    +0.000 C 
ATOM     14  O   UNL     1      60.289  65.273  68.368  0.00  0.00    +0.000 OA
ATOM     15  C   UNL     1      60.509  63.896  68.674  0.00  0.00    +0.000 C 
ATOM     16  C   UNL     1      60.730  63.756  67.892  0.00  0.00    +0.000 C 
ATOM     17  C   UNL     1      60.951  62.998  67.655  0.00  0.00    +0.000 C 
ATOM     18  C   UNL     1      60.950  62.379  68.199  0.00  0.00    +0.000 C 
ATOM     19  C   UNL     1      61.171  61.620  67.962  0.00  0.00    +0.000 C 
ATOM     20  C   UNL     1      61.392  61.481  67.179  0.00  0.00    +0.000 C 
ATOM     21  C   UNL     1      61.635  60.797  66.787  0.00  0.00    +0.000 C 
ATOM     22  N   UNL     1      61.785  60.993  66.000  0.00  0.00    +0.000 NA
ATOM     23  C   UNL     1      61.635  61.799  65.906  0.00  0.00    +0.000 C 
ATOM     24  C   UNL     1      61.689  62.298  65.250  0.00  0.00    +0.000 C 
ATOM     25  C   UNL     1      61.500  63.097  65.323  0.00  0.00    +0.000 C 
ATOM     26  C   UNL     1      61.257  63.399  66.052  0.00  0.00    +0.000 C 
ATOM     27  C   UNL     1      61.172  62.859  66.872  0.00  0.00    +0.000 C 
ATOM     28  C   UNL     1      61.393  62.101  66.634  0.00  0.00    +0.000 C 
ATOM     29  N   UNL     1      60.729  62.517  68.982  0.00  0.00    +0.000 NA
ATOM     30  C   UNL     1      60.729  61.898  69.526  0.00  0.00    +0.000 C 
ATOM     31  C   UNL     1      60.507  62.037  70.309  0.00  0.00    +0.000 C 
ATOM     32  C   UNL     1      60.507  61.418  70.853  0.00  0.00    +0.000 C 
ATOM     33  C   UNL     1      60.508  63.276  69.220  0.00  0.00    +0.000 C 
ENDROOT
TORSDOF 0
ENDMDL
MODEL 5
REMARK VINA RESULT:   -13.151      2.490      5.071
REMARK INTER + INTRA:         -13.151
REMARK INTER:                 -13.151
REMARK INTRA:                   0.000
REMARK UNBOUND:                 0.000
ROOT
REMARK  Name = cabergoline
REMARK                            x       y       z     vdW  Elec       q    Type
REMARK                         _______ _______ _______ _____ _____    ______ ____
ATOM      1  C   UNL     1      60.942  65.296  71.311  0.00  0.00    +0.000 C 
ATOM      2  C   UNL     1      60.880  64.856  70.615  0.00  0.00    +0.000 C 
ATOM      3  N   UNL     1      61.543  64.743  70.138  0.00  0.00    +0.000 NA
ATOM      4  C   UNL     1      62.268  65.070  70.356  0.00  0.00    +0.000 C 
ATOM      5  O   UNL     1      62.331  65.509  71.051  0.00  0.00    +0.000 OA
ATOM      6  N   UNL     1      62.932  64.956  69.878  0.00  0.00    +0.000 N 
ATOM      7  C   UNL     1      63.658  65.283  70.096  0.00  0.00    +0.000 C 
ATOM      8  C   UNL     1      63.720  65.723  70.792  0.00  0.00    +0.000 C 
ATOM      9  C   UNL     1      64.446  66.049  71.010  0.00  0.00    +0.000 C 
ATOM     10  N   UNL     1      64.509  66.489  71.704  0.00  0.00    +0.000 NA
ATOM     11  C   UNL     1      65.234  66.816  71.923  0.00  0.00    +0.000 C 
ATOM     12  C   UNL     1      63.845  66.602  72.182  0.00  0.00    +0.000 C 
ATOM     13  C   UNL     1      62.870  64.516  69.183  0.00  0.00    +0.000 C 
ATOM     14  O   UNL     1      63.533  64.403  68.706  0.00  0.00    +0.000 OA
ATOM     15  C   UNL     1      62.144  64.190  68.965  0.00  0.00    +0.000 C 
ATOM     16  C   UNL     1      62.082  63.751  68.270  0.00  0.00    +0.000 C 
ATOM     17  C   UNL     1      61.356  63.424  68.053  0.00  0.00    +0.000 C 
ATOM     18  C   UNL     1      60.693  63.537  68.530  0.00  0.00    +0.000 C 
ATOM     19  C   UNL     1      59.967  63.211  68.312  0.00  0.00    +0.000 C 
ATOM     20  C   UNL     1      59.905  62.771  67.616  0.00  0.00    +0.000 C 
ATOM     21  C   UNL     1      59.268  62.385  67.262  0.00  0.00    +0.000 C 
ATOM     22  N   UNL     1      59.536  62.033  66.567  0.00  0.00    +0.000 NA
ATOM     23  C   UNL     1      60.341  62.202  66.490  0.00  0.00    +0.000 C 
ATOM     24  C   UNL     1      60.895  61.999  65.913  0.00  0.00    +0.000 C 
ATOM     25  C   UNL     1      61.677  62.252  65.986  0.00  0.00    +0.000 C 
ATOM     26  C   UNL     1      61.904  62.708  66.635  0.00  0.00    +0.000 C 
ATOM     27  C   UNL     1      61.294  62.984  67.357  0.00  0.00    +0.000 C 
ATOM     28  C   UNL     1      60.568  62.658  67.139  0.00  0.00    +0.000 C 
ATOM     29  N   UNL     1      60.755  63.977  69.225  0.00  0.00    +0.000 NA
ATOM     30  C   UNL     1      60.092  64.090  69.702  0.00  0.00    +0.000 C 
ATOM     31  C   UNL     1      60.154  64.530  70.398  0.00  0.00    +0.000 C 
ATOM     32  C   UNL     1      59.491  64.643  70.875  0.00  0.00    +0.000 C 
ATOM     33  C   UNL     1      61.481  64.303  69.443  0.00  0.00    +0.000 C 
ENDROOT
TORSDOF 0
ENDMDL
MODEL 6
REMARK VINA RESULT:   -13.135      3.208      4.114
REMARK INTER + INTRA:         -13.135
REMARK INTER:                 -13.135
REMARK INTRA:                   0.000
REMARK UNBOUND:                 0.000
ROOT
REMARK  Name = cabergoline
REMARK                            x       y       z     vdW  Elec       q    Type
REMARK                         _______ _______ _______ _____ _____    ______ ____
ATOM      1  C   UNL     1      62.702  64.065  71.686  0.00  0.00    +0.000 C 
ATOM      2  C   UNL     1      61.974  64.401  71.885  0.00  0.00    +0.000 C 
ATOM      3  N   UNL     1      61.914  65.216  72.004  0.00  0.00    +0.000 NA
ATOM      4  C   UNL     1      62.581  65.694  71.922  0.00  0.00    +0.000 C 
ATOM      5  O   UNL     1      63.308  65.359  71.723  0.00  0.00    +0.000 OA
ATOM      6  N   UNL     1      62.521  66.508  72.041  0.00  0.00    +0.000 N 
ATOM      7  C   UNL     1      63.188  66.988  71.960  0.00  0.00    +0.000 C 
ATOM      8  C   UNL     1      63.915  66.652  71.760  0.00  0.00    +0.000 C 
ATOM      9  C   UNL     1      64.582  67.131  71.679  0.00  0.00    +0.000 C 
ATOM     10  N   UNL     1      65.309  66.797  71.480  0.00  0.00    +0.000 NA
ATOM     11  C   UNL     1      65.976  67.275  71.399  0.00  0.00    +0.000 C 
ATOM     12  C   UNL     1      65.369  65.982  71.362  0.00  0.00    +0.000 C 
ATOM     13  C   UNL     1      61.794  66.844  72.240  0.00  0.00    +0.000 C 
ATOM     14  O   UNL     1      61.734  67.658  72.358  0.00  0.00    +0.000 OA
ATOM     15  C   UNL     1      61.127  66.365  72.321  0.00  0.00    +0.000 C 
ATOM     16  C   UNL     1      60.400  66.700  72.521  0.00  0.00    +0.000 C 
ATOM     17  C   UNL     1      59.734  66.221  72.602  0.00  0.00    +0.000 C 
ATOM     18  C   UNL     1      59.794  65.407  72.483  0.00  0.00    +0.000 C 
ATOM     19  C   UNL     1      59.127  64.928  72.565  0.00  0.00    +0.000 C 
ATOM     20  C   UNL     1      58.400  65.264  72.764  0.00  0.00    +0.000 C 
ATOM     21  C   UNL     1      57.653  64.933  72.881  0.00  0.00    +0.000 C 
ATOM     22  N   UNL     1      57.132  65.542  73.072  0.00  0.00    +0.000 NA
ATOM     23  C   UNL     1      57.556  66.250  73.073  0.00  0.00    +0.000 C 
ATOM     24  C   UNL     1      57.330  67.030  73.222  0.00  0.00    +0.000 C 
ATOM     25  C   UNL     1      57.887  67.636  73.181  0.00  0.00    +0.000 C 
ATOM     26  C   UNL     1      58.671  67.463  72.990  0.00  0.00    +0.000 C 
ATOM     27  C   UNL     1      59.007  66.556  72.801  0.00  0.00    +0.000 C 
ATOM     28  C   UNL     1      58.340  66.077  72.882  0.00  0.00    +0.000 C 
ATOM     29  N   UNL     1      60.521  65.071  72.284  0.00  0.00    +0.000 NA
ATOM     30  C   UNL     1      60.581  64.258  72.166  0.00  0.00    +0.000 C 
ATOM     31  C   UNL     1      61.308  63.922  71.966  0.00  0.00    +0.000 C 
ATOM     32  C   UNL     1      61.368  63.108  71.848  0.00  0.00    +0.000 C 
ATOM     33  C   UNL     1      61.187  65.550  72.203  0.00  0.00    +0.000 C 
ENDROOT
TORSDOF 0
ENDMDL
MODEL 7
REMARK VINA RESULT:   -12.490      3.644      5.336
REMARK INTER + INTRA:         -12.490
REMARK INTER:                 -12.490
REMARK INTRA:                   0.000
REMARK UNBOUND:                 0.000
ROOT
REMARK  Name = cabergoline
REMARK                            x       y       z     vdW  Elec       q    Type
REMARK                         _______ _______ _______ _____ _____    ______ ____
ATOM      1  C   UNL     1      60.575  63.825  71.356  0.00  0.00    +0.000 C 
ATOM      2  C   UNL     1      61.274  64.263  71.357  0.00  0.00    +0.000 C 
ATOM      3  N   UNL     1      61.283  65.027  71.667  0.00  0.00    +0.000 NA
ATOM      4  C   UNL     1      60.592  65.353  71.978  0.00  0.00    +0.000 C 
ATOM      5  O   UNL     1      59.893  64.916  71.978  0.00  0.00    +0.000 OA
ATOM      6  N   UNL     1      60.601  66.118  72.289  0.00  0.00    +0.000 N 
ATOM      7  C   UNL     1      59.909  66.445  72.600  0.00  0.00    +0.000 C 
ATOM      8  C   UNL     1      59.210  66.007  72.600  0.00  0.00    +0.000 C 
ATOM      9  C   UNL     1      58.519  66.334  72.911  0.00  0.00    +0.000 C 
ATOM     10  N   UNL     1      57.820  65.897  72.911  0.00  0.00    +0.000 NA
ATOM     11  C   UNL     1      57.129  66.222  73.221  0.00  0.00    +0.000 C 
ATOM     12  C   UNL     1      57.811  65.132  72.600  0.00  0.00    +0.000 C 
ATOM     13  C   UNL     1      61.300  66.556  72.289  0.00  0.00    +0.000 C 
ATOM     14  O   UNL     1      61.309  67.319  72.600  0.00  0.00    +0.000 OA
ATOM     15  C   UNL     1      61.991  66.229  71.978  0.00  0.00    +0.000 C 
ATOM     16  C   UNL     1      62.690  66.666  71.978  0.00  0.00    +0.000 C 
ATOM     17  C   UNL     1      63.381  66.339  71.667  0.00  0.00    +0.000 C 
ATOM     18  C   UNL     1      63.372  65.576  71.357  0.00  0.00    +0.000 C 
ATOM     19  C   UNL     1      64.063  65.249  71.046  0.00  0.00    +0.000 C 
ATOM     20  C   UNL     1      64.763  65.687  71.046  0.00  0.00    +0.000 C 
ATOM     21  C   UNL     1      65.524  65.511  70.779  0.00  0.00    +0.000 C 
ATOM     22  N   UNL     1      66.002  66.167  70.925  0.00  0.00    +0.000 NA
ATOM     23  C   UNL     1      65.537  66.748  71.282  0.00  0.00    +0.000 C 
ATOM     24  C   UNL     1      65.713  67.509  71.549  0.00  0.00    +0.000 C 
ATOM     25  C   UNL     1      65.122  67.972  71.890  0.00  0.00    +0.000 C 
ATOM     26  C   UNL     1      64.356  67.675  71.965  0.00  0.00    +0.000 C 
ATOM     27  C   UNL     1      64.080  66.777  71.668  0.00  0.00    +0.000 C 
ATOM     28  C   UNL     1      64.771  66.450  71.357  0.00  0.00    +0.000 C 
ATOM     29  N   UNL     1      62.673  65.138  71.357  0.00  0.00    +0.000 NA
ATOM     30  C   UNL     1      62.665  64.374  71.046  0.00  0.00    +0.000 C 
ATOM     31  C   UNL     1      61.965  63.936  71.046  0.00  0.00    +0.000 C 
ATOM     32  C   UNL     1      61.957  63.173  70.735  0.00  0.00    +0.000 C 
ATOM     33  C   UNL     1      61.982  65.464  71.667  0.00  0.00    +0.000 C 
ENDROOT
TORSDOF 0
ENDMDL
MODEL 8
REMARK VINA RESULT:   -11.432     14.519     16.580
REMARK INTER + INTRA:         -11.432
REMARK INTER:                 -11.432
REMARK INTRA:                   0.000
REMARK UNBOUND:                 0.000
ROOT
REMARK  Name = cabergoline
REMARK                            x       y       z     vdW  Elec       q    Type
REMARK                         _______ _______ _______ _____ _____    ______ ____
ATOM      1  C   UNL     1      61.471  65.655  51.425  0.00  0.00    +0.000 C 
ATOM      2  C   UNL     1      61.616  66.141  52.077  0.00  0.00    +0.000 C 
ATOM      3  N   UNL     1      61.791  65.806  52.811  0.00  0.00    +0.000 NA
ATOM      4  C   UNL     1      61.821  64.986  52.892  0.00  0.00    +0.000 C 
ATOM      5  O   UNL     1      61.676  64.500  52.242  0.00  0.00    +0.000 OA
ATOM      6  N   UNL     1      61.996  64.651  53.626  0.00  0.00    +0.000 N 
ATOM      7  C   UNL     1      62.025  63.830  53.708  0.00  0.00    +0.000 C 
ATOM      8  C   UNL     1      61.880  63.344  53.057  0.00  0.00    +0.000 C 
ATOM      9  C   UNL     1      61.910  62.524  53.139  0.00  0.00    +0.000 C 
ATOM     10  N   UNL     1      61.765  62.039  52.489  0.00  0.00    +0.000 NA
ATOM     11  C   UNL     1      61.794  61.219  52.570  0.00  0.00    +0.000 C 
ATOM     12  C   UNL     1      61.590  62.374  51.755  0.00  0.00    +0.000 C 
ATOM     13  C   UNL     1      62.141  65.136  54.277  0.00  0.00    +0.000 C 
ATOM     14  O   UNL     1      62.315  64.801  55.010  0.00  0.00    +0.000 OA
ATOM     15  C   UNL     1      62.111  65.956  54.195  0.00  0.00    +0.000 C 
ATOM     16  C   UNL     1      62.256  66.442  54.845  0.00  0.00    +0.000 C 
ATOM     17  C   UNL     1      62.227  67.262  54.763  0.00  0.00    +0.000 C 
ATOM     18  C   UNL     1      62.052  67.597  54.030  0.00  0.00    +0.000 C 
ATOM     19  C   UNL     1      62.022  68.417  53.948  0.00  0.00    +0.000 C 
ATOM     20  C   UNL     1      62.168  68.902  54.599  0.00  0.00    +0.000 C 
ATOM     21  C   UNL     1      62.177  69.723  54.685  0.00  0.00    +0.000 C 
ATOM     22  N   UNL     1      62.358  69.895  55.471  0.00  0.00    +0.000 NA
ATOM     23  C   UNL     1      62.460  69.181  55.871  0.00  0.00    +0.000 C 
ATOM     24  C   UNL     1      62.645  69.010  56.657  0.00  0.00    +0.000 C 
ATOM     25  C   UNL     1      62.712  68.226  56.904  0.00  0.00    +0.000 C 
ATOM     26  C   UNL     1      62.595  67.612  56.365  0.00  0.00    +0.000 C 
ATOM     27  C   UNL     1      62.372  67.747  55.414  0.00  0.00    +0.000 C 
ATOM     28  C   UNL     1      62.342  68.567  55.332  0.00  0.00    +0.000 C 
ATOM     29  N   UNL     1      61.907  67.111  53.379  0.00  0.00    +0.000 NA
ATOM     30  C   UNL     1      61.732  67.446  52.646  0.00  0.00    +0.000 C 
ATOM     31  C   UNL     1      61.587  66.961  51.994  0.00  0.00    +0.000 C 
ATOM     32  C   UNL     1      61.412  67.296  51.261  0.00  0.00    +0.000 C 
ATOM     33  C   UNL     1      61.936  66.291  53.461  0.00  0.00    +0.000 C 
ENDROOT
TORSDOF 0
ENDMDL
