MODEL 1
REMARK VINA RESULT:    -6.747      0.000      0.000
REMARK INTER + INTRA:          -6.747
REMARK INTER:                  -6.747
REMARK INTRA:                   0.000
REMARK UNBOUND:                 0.000
ROOT
REMARK  Name = caffeine
REMARK                            x       y       z     vdW  Elec       q    Type
REMARK                         _______ _______ _______ _____ _____    ______ ____
ATOM      1  C   UNL     1      61.279  61.272  64.209  0.00  0.00    +0.000 C 
ATOM      2  N   UNL     1      61.520  61.712  64.863  0.00  0.00    +0.000 N 
ATOM      3  C   UNL     1      62.284  61.988  65.008  0.00  0.00    +0.000 A 
ATOM      4  N   UNL     1      62.275  62.400  65.723  0.00  0.00    +0.000 NA
ATOM      5  C   UNL     1      61.506  62.378  66.020  0.00  0.00    +0.000 A 
ATOM      6  C   UNL     1      61.039  61.952  65.489  0.00  0.00    +0.000 A 
ATOM      7  C   UNL     1      60.237  61.840  65.644  0.00  0.00    +0.000 A 
ATOM      8  O   UNL     1      59.770  61.414  65.113  0.00  0.00    +0.000 OA
ATOM      9  N   UNL     1      59.901  62.152  66.329  0.00  0.00    +0.000 N 
ATOM     10  C   UNL     1      59.099  62.039  66.484  0.00  0.00    +0.000 C 
ATOM     11  C   UNL     1      60.368  62.577  66.860  0.00  0.00    +0.000 A 
ATOM     12  O   UNL     1      60.033  62.890  67.546  0.00  0.00    +0.000 OA
ATOM     13  N   UNL     1      61.170  62.690  66.706  0.00  0.00    +0.000 N 
ATOM     14  C   UNL     1      61.637  63.116  67.237  0.00  0.00    +0.000 C 
ENDROOT
TORSDOF 0
ENDMDL
MODEL 2
REMARK VINA RESULT:    -6.514      0.933      2.310
REMARK INTER + INTRA:          -6.514
REMARK INTER:                  -6.514
REMARK INTRA:                   0.000
REMARK UNBOUND:                 0.000
ROOT
REMARK  Name = caffeine
REMARK                            x       y       z     vdW  Elec       q    Type
REMARK                         _______ _______ _______ _____ _____    ______ ____
ATOM      1  C   UNL     1      59.742  62.279  66.863  0.00  0.00    +0.000 C 
ATOM      2  N   UNL     1      60.485  62.407  66.531  0.00  0.00    +0.000 N 
ATOM      3  C   UNL     1      61.086  62.873  66.852  0.00  0.00    +0.000 A 
ATOM      4  N   UNL     1      61.731  62.847  66.338  0.00  0.00    +0.000 NA
ATOM      5  C   UNL     1      61.529  62.365  65.700  0.00  0.00    +0.000 A 
ATOM      6  C   UNL     1      60.759  62.094  65.819  0.00  0.00    +0.000 A 
ATOM      7  C   UNL     1      60.408  61.595  65.263  0.00  0.00    +0.000 A 
ATOM      8  O   UNL     1      59.638  61.324  65.382  0.00  0.00    +0.000 OA
ATOM      9  N   UNL     1      60.825  61.369  64.589  0.00  0.00    +0.000 N 
ATOM     10  C   UNL     1      60.473  60.871  64.034  0.00  0.00    +0.000 C 
ATOM     11  C   UNL     1      61.595  61.640  64.471  0.00  0.00    +0.000 A 
ATOM     12  O   UNL     1      62.013  61.414  63.797  0.00  0.00    +0.000 OA
ATOM     13  N   UNL     1      61.947  62.138  65.025  0.00  0.00    +0.000 N 
ATOM     14  C   UNL     1      62.717  62.410  64.906  0.00  0.00    +0.000 C 
ENDROOT
TORSDOF 0
ENDMDL
MODEL 3
REMARK VINA RESULT:    -6.507      1.082      2.848
REMARK INTER + INTRA:          -6.507
REMARK INTER:                  -6.507
REMARK INTRA:                   0.000
REMARK UNBOUND:                 0.000
ROOT
REMARK  Name = caffeine
REMARK                            x       y       z     vdW  Elec       q    Type
REMARK                         _______ _______ _______ _____ _____    ______ ____
ATOM      1  C   UNL     1      60.173  62.894  67.302  0.00  0.00    +0.000 C 
ATOM      2  N   UNL     1      60.079  62.415  66.637  0.00  0.00    +0.000 N 
ATOM      3  C   UNL     1      59.385  62.031  66.410  0.00  0.00    +0.000 A 
ATOM      4  N   UNL     1      59.540  61.614  65.716  0.00  0.00    +0.000 NA
ATOM      5  C   UNL     1      60.329  61.739  65.514  0.00  0.00    +0.000 A 
ATOM      6  C   UNL     1      60.663  62.234  66.083  0.00  0.00    +0.000 A 
ATOM      7  C   UNL     1      61.455  62.457  66.023  0.00  0.00    +0.000 A 
ATOM      8  O   UNL     1      61.789  62.951  66.593  0.00  0.00    +0.000 OA
ATOM      9  N   UNL     1      61.914  62.184  65.394  0.00  0.00    +0.000 N 
ATOM     10  C   UNL     1      62.705  62.407  65.335  0.00  0.00    +0.000 C 
ATOM     11  C   UNL     1      61.580  61.690  64.825  0.00  0.00    +0.000 A 
ATOM     12  O   UNL     1      62.038  61.417  64.195  0.00  0.00    +0.000 OA
ATOM     13  N   UNL     1      60.788  61.467  64.884  0.00  0.00    +0.000 N 
ATOM     14  C   UNL     1      60.455  60.972  64.314  0.00  0.00    +0.000 C 
ENDROOT
TORSDOF 0
ENDMDL
MODEL 4
REMARK VINA RESULT:    -5.992      2.539      3.494
REMARK INTER + INTRA:          -5.992
REMARK INTER:                  -5.992
REMARK INTRA:                   0.000
REMARK UNBOUND:                 0.000
ROOT
REMARK  Name = caffeine
REMARK                            x       y       z     vdW  Elec       q    Type
REMARK                         _______ _______ _______ _____ _____    ______ ____
ATOM      1  C   UNL     1      60.364  62.247  67.441  0.00  0.00    +0.000 C 
ATOM      2  N   UNL     1      60.838  62.752  67.888  0.00  0.00    +0.000 N 
ATOM      3  C   UNL     1      61.296  63.374  67.595  0.00  0.00    +0.000 A 
ATOM      4  N   UNL     1      61.678  63.731  68.232  0.00  0.00    +0.000 NA
ATOM      5  C   UNL     1      61.457  63.332  68.919  0.00  0.00    +0.000 A 
ATOM      6  C   UNL     1      60.938  62.727  68.706  0.00  0.00    +0.000 A 
ATOM      7  C   UNL     1      60.624  62.231  69.286  0.00  0.00    +0.000 A 
ATOM      8  O   UNL     1      60.104  61.626  69.073  0.00  0.00    +0.000 OA
ATOM      9  N   UNL     1      60.828  62.339  70.077  0.00  0.00    +0.000 N 
ATOM     10  C   UNL     1      60.514  61.843  70.656  0.00  0.00    +0.000 C 
ATOM     11  C   UNL     1      61.347  62.944  70.290  0.00  0.00    +0.000 A 
ATOM     12  O   UNL     1      61.552  63.053  71.081  0.00  0.00    +0.000 OA
ATOM     13  N   UNL     1      61.662  63.440  69.711  0.00  0.00    +0.000 N 
ATOM     14  C   UNL     1      62.181  64.045  69.924  0.00  0.00    +0.000 C 
ENDROOT
TORSDOF 0
ENDMDL
MODEL 5
REMARK VINA RESULT:    -5.946      5.399      6.504
REMARK INTER + INTRA:          -5.946
REMARK INTER:                  -5.946
REMARK INTRA:                   0.000
REMARK UNBOUND:                 0.000
ROOT
REMARK  Name = caffeine
REMARK                            x       y       z     vdW  Elec       q    Type
REMARK                         _______ _______ _______ _____ _____    ______ ____
ATOM      1  C   UNL     1      59.624  66.918  69.135  0.00  0.00    +0.000 C 
ATOM      2  N   UNL     1      59.676  66.209  69.552  0.00  0.00    +0.000 N 
ATOM      3  C   UNL     1      59.876  65.473  69.235  0.00  0.00    +0.000 A 
ATOM      4  N   UNL     1      59.861  64.919  69.846  0.00  0.00    +0.000 NA
ATOM      5  C   UNL     1      59.653  65.312  70.540  0.00  0.00    +0.000 A 
ATOM      6  C   UNL     1      59.539  66.109  70.359  0.00  0.00    +0.000 A 
ATOM      7  C   UNL     1      59.324  66.640  70.953  0.00  0.00    +0.000 A 
ATOM      8  O   UNL     1      59.210  67.436  70.771  0.00  0.00    +0.000 OA
ATOM      9  N   UNL     1      59.224  66.375  71.727  0.00  0.00    +0.000 N 
ATOM     10  C   UNL     1      59.009  66.906  72.320  0.00  0.00    +0.000 C 
ATOM     11  C   UNL     1      59.338  65.578  71.908  0.00  0.00    +0.000 A 
ATOM     12  O   UNL     1      59.238  65.313  72.683  0.00  0.00    +0.000 OA
ATOM     13  N   UNL     1      59.552  65.046  71.316  0.00  0.00    +0.000 N 
ATOM     14  C   UNL     1      59.667  64.250  71.497  0.00  0.00    +0.000 C 
ENDROOT
TORSDOF 0
ENDMDL
MODEL 6
REMARK VINA RESULT:    -5.942      2.787      4.195
REMARK INTER + INTRA:          -5.942
REMARK INTER:                  -5.942
REMARK INTRA:                   0.000
REMARK UNBOUND:                 0.000
ROOT
REMARK  Name = caffeine
REMARK                            x       y       z     vdW  Elec       q    Type
REMARK                         _______ _______ _______ _____ _____    ______ ____
ATOM      1  C   UNL     1      62.555  64.620  69.456  0.00  0.00    +0.000 C 
ATOM      2  N   UNL     1      62.122  64.043  69.856  0.00  0.00    +0.000 N 
ATOM      3  C   UNL     1      62.087  63.943  70.675  0.00  0.00    +0.000 A 
ATOM      4  N   UNL     1      61.592  63.303  70.832  0.00  0.00    +0.000 NA
ATOM      5  C   UNL     1      61.320  63.008  70.112  0.00  0.00    +0.000 A 
ATOM      6  C   UNL     1      61.648  63.466  69.509  0.00  0.00    +0.000 A 
ATOM      7  C   UNL     1      61.471  63.296  68.720  0.00  0.00    +0.000 A 
ATOM      8  O   UNL     1      61.799  63.753  68.117  0.00  0.00    +0.000 OA
ATOM      9  N   UNL     1      60.968  62.670  68.535  0.00  0.00    +0.000 N 
ATOM     10  C   UNL     1      60.792  62.501  67.748  0.00  0.00    +0.000 C 
ATOM     11  C   UNL     1      60.640  62.213  69.139  0.00  0.00    +0.000 A 
ATOM     12  O   UNL     1      60.136  61.586  68.954  0.00  0.00    +0.000 OA
ATOM     13  N   UNL     1      60.815  62.381  69.927  0.00  0.00    +0.000 N 
ATOM     14  C   UNL     1      60.488  61.924  70.530  0.00  0.00    +0.000 C 
ENDROOT
TORSDOF 0
ENDMDL
MODEL 7
REMARK VINA RESULT:    -5.847      3.129      4.764
REMARK INTER + INTRA:          -5.847
REMARK INTER:                  -5.847
REMARK INTRA:                   0.000
REMARK UNBOUND:                 0.000
ROOT
REMARK  Name = caffeine
REMARK                            x       y       z     vdW  Elec       q    Type
REMARK                         _______ _______ _______ _____ _____    ______ ____
ATOM      1  C   UNL     1      61.261  62.724  71.808  0.00  0.00    +0.000 C 
ATOM      2  N   UNL     1      61.003  62.431  71.082  0.00  0.00    +0.000 N 
ATOM      3  C   UNL     1      60.538  61.759  70.967  0.00  0.00    +0.000 A 
ATOM      4  N   UNL     1      60.412  61.671  70.157  0.00  0.00    +0.000 NA
ATOM      5  C   UNL     1      60.800  62.287  69.770  0.00  0.00    +0.000 A 
ATOM      6  C   UNL     1      61.165  62.757  70.342  0.00  0.00    +0.000 A 
ATOM      7  C   UNL     1      61.598  63.422  70.114  0.00  0.00    +0.000 A 
ATOM      8  O   UNL     1      61.963  63.891  70.685  0.00  0.00    +0.000 OA
ATOM      9  N   UNL     1      61.665  63.616  69.316  0.00  0.00    +0.000 N 
ATOM     10  C   UNL     1      62.098  64.280  69.088  0.00  0.00    +0.000 C 
ATOM     11  C   UNL     1      61.300  63.147  68.744  0.00  0.00    +0.000 A 
ATOM     12  O   UNL     1      61.367  63.341  67.945  0.00  0.00    +0.000 OA
ATOM     13  N   UNL     1      60.867  62.482  68.971  0.00  0.00    +0.000 N 
ATOM     14  C   UNL     1      60.502  62.012  68.399  0.00  0.00    +0.000 C 
ENDROOT
TORSDOF 0
ENDMDL
MODEL 8
REMARK VINA RESULT:    -5.702      4.458      5.907
REMARK INTER + INTRA:          -5.702
REMARK INTER:                  -5.702
REMARK INTRA:                   0.000
REMARK UNBOUND:                 0.000
ROOT
REMARK  Name = caffeine
REMARK                            x       y       z     vdW  Elec       q    Type
REMARK                         _______ _______ _______ _____ _____    ______ ____
ATOM      1  C   UNL     1      59.360  66.964  70.484  0.00  0.00    +0.000 C 
ATOM      2  N   UNL     1      59.465  66.239  70.863  0.00  0.00    +0.000 N 
ATOM      3  C   UNL     1      59.356  66.092  71.668  0.00  0.00    +0.000 A 
ATOM      4  N   UNL     1      59.521  65.296  71.807  0.00  0.00    +0.000 NA
ATOM      5  C   UNL     1      59.731  64.951  71.088  0.00  0.00    +0.000 A 
ATOM      6  C   UNL     1      59.696  65.533  70.505  0.00  0.00    +0.000 A 
ATOM      7  C   UNL     1      59.880  65.345  69.723  0.00  0.00    +0.000 A 
ATOM      8  O   UNL     1      59.845  65.928  69.140  0.00  0.00    +0.000 OA
ATOM      9  N   UNL     1      60.098  64.575  69.524  0.00  0.00    +0.000 N 
ATOM     10  C   UNL     1      60.281  64.388  68.742  0.00  0.00    +0.000 C 
ATOM     11  C   UNL     1      60.133  63.993  70.107  0.00  0.00    +0.000 A 
ATOM     12  O   UNL     1      60.351  63.222  69.908  0.00  0.00    +0.000 OA
ATOM     13  N   UNL     1      59.949  64.180  70.889  0.00  0.00    +0.000 N 
ATOM     14  C   UNL     1      59.984  63.597  71.472  0.00  0.00    +0.000 C 
ENDROOT
TORSDOF 0
ENDMDL
MODEL 9
REMARK VINA RESULT:    -5.616      6.019      7.343
REMARK INTER + INTRA:          -5.616
REMARK INTER:                  -5.616
REMARK INTRA:                   0.000
REMARK UNBOUND:                 0.000
ROOT
REMARK  Name = caffeine
REMARK                            x       y       z     vdW  Elec       q    Type
REMARK                         _______ _______ _______ _____ _____    ______ ____
ATOM      1  C   UNL     1      64.746  67.259  71.741  0.00  0.00    +0.000 C 
ATOM      2  N   UNL     1      64.085  66.770  71.808  0.00  0.00    +0.000 N 
ATOM      3  C   UNL     1      63.441  66.892  72.310  0.00  0.00    +0.000 A 
ATOM      4  N   UNL     1      62.910  66.272  72.197  0.00  0.00    +0.000 NA
ATOM      5  C   UNL     1      63.224  65.767  71.626  0.00  0.00    +0.000 A 
ATOM      6  C   UNL     1      63.951  66.075  71.386  0.00  0.00    +0.000 A 
ATOM      7  C   UNL     1      64.396  65.682  70.812  0.00  0.00    +0.000 A 
ATOM      8  O   UNL     1      65.122  65.991  70.572  0.00  0.00    +0.000 OA
ATOM      9  N   UNL     1      64.115  64.982  70.480  0.00  0.00    +0.000 N 
ATOM     10  C   UNL     1      64.559  64.590  69.907  0.00  0.00    +0.000 C 
ATOM     11  C   UNL     1      63.388  64.674  70.721  0.00  0.00    +0.000 A 
ATOM     12  O   UNL     1      63.107  63.973  70.389  0.00  0.00    +0.000 OA
ATOM     13  N   UNL     1      62.943  65.066  71.294  0.00  0.00    +0.000 N 
ATOM     14  C   UNL     1      62.216  64.757  71.534  0.00  0.00    +0.000 C 
ENDROOT
TORSDOF 0
ENDMDL
