MODEL 1
REMARK VINA RESULT:   -14.285      0.000      0.000
REMARK INTER + INTRA:         -14.285
REMARK INTER:                 -14.285
REMARK INTRA:                   0.000
REMARK UNBOUND:                 0.000
ROOT
REMARK  Name = canrenone
REMARK                            x       y       z     vdW  Elec       q    Type
REMARK                         _______ _______ _______ _____ _____    ______ ____
ATOM      1  C   UNL     1      61.497  63.167  67.627  0.00  0.00    +0.000 C 
ATOM      2  C   UNL     1      60.896  62.721  67.281  0.00  0.00    +0.000 C 
ATOM      3  C   UNL     1      61.646  62.934  67.016  0.00  0.00    +0.000 C 
ATOM      4  C   UNL     1      61.907  62.686  66.272  0.00  0.00    +0.000 C 
ATOM      5  C   UNL     1      61.416  62.227  65.796  0.00  0.00    +0.000 C 
ATOM      6  C   UNL     1      60.664  62.013  66.061  0.00  0.00    +0.000 C 
ATOM      7  C   UNL     1      60.173  61.553  65.585  0.00  0.00    +0.000 C 
ATOM      8  C   UNL     1      60.433  61.306  64.842  0.00  0.00    +0.000 C 
ATOM      9  C   UNL     1      61.184  61.519  64.576  0.00  0.00    +0.000 C 
ATOM     10  C   UNL     1      61.444  61.272  63.832  0.00  0.00    +0.000 C 
ATOM     11  C   UNL     1      62.195  61.485  63.567  0.00  0.00    +0.000 C 
ATOM     12  O   UNL     1      62.455  61.238  62.823  0.00  0.00    +0.000 OA
ATOM     13  C   UNL     1      62.686  61.945  64.043  0.00  0.00    +0.000 C 
ATOM     14  C   UNL     1      62.426  62.193  64.787  0.00  0.00    +0.000 C 
ATOM     15  C   UNL     1      61.676  61.979  65.052  0.00  0.00    +0.000 C 
ATOM     16  C   UNL     1      62.166  62.440  65.530  0.00  0.00    +0.000 C 
ATOM     17  C   UNL     1      60.404  62.260  66.805  0.00  0.00    +0.000 C 
ATOM     18  C   UNL     1      59.697  62.137  67.211  0.00  0.00    +0.000 C 
ATOM     19  C   UNL     1      59.751  62.520  67.940  0.00  0.00    +0.000 C 
ATOM     20  C   UNL     1      60.492  62.881  67.983  0.00  0.00    +0.000 C 
ATOM     21  C   UNL     1      61.233  63.242  68.026  0.00  0.00    +0.000 C 
ATOM     22  C   UNL     1      61.287  63.626  68.755  0.00  0.00    +0.000 C 
ATOM     23  C   UNL     1      60.580  63.502  69.161  0.00  0.00    +0.000 C 
ATOM     24  O   UNL     1      60.396  63.789  69.913  0.00  0.00    +0.000 OA
ATOM     25  O   UNL     1      60.089  63.042  68.685  0.00  0.00    +0.000 OA
ENDROOT
TORSDOF 0
ENDMDL
MODEL 2
REMARK VINA RESULT:   -14.285      0.448      4.107
REMARK INTER + INTRA:         -14.285
REMARK INTER:                 -14.285
REMARK INTRA:                   0.000
REMARK UNBOUND:                 0.000
ROOT
REMARK  Name = canrenone
REMARK                            x       y       z     vdW  Elec       q    Type
REMARK                         _______ _______ _______ _____ _____    ______ ____
ATOM      1  C   UNL     1      62.247  62.289  65.100  0.00  0.00    +0.000 C 
ATOM      2  C   UNL     1      61.479  62.047  65.276  0.00  0.00    +0.000 C 
ATOM      3  C   UNL     1      62.022  62.506  65.693  0.00  0.00    +0.000 C 
ATOM      4  C   UNL     1      61.820  62.812  66.433  0.00  0.00    +0.000 C 
ATOM      5  C   UNL     1      61.077  62.659  66.754  0.00  0.00    +0.000 C 
ATOM      6  C   UNL     1      60.533  62.199  66.336  0.00  0.00    +0.000 C 
ATOM      7  C   UNL     1      59.790  62.046  66.657  0.00  0.00    +0.000 C 
ATOM      8  C   UNL     1      59.588  62.351  67.396  0.00  0.00    +0.000 C 
ATOM      9  C   UNL     1      60.131  62.811  67.814  0.00  0.00    +0.000 C 
ATOM     10  C   UNL     1      59.929  63.117  68.554  0.00  0.00    +0.000 C 
ATOM     11  C   UNL     1      60.473  63.576  68.972  0.00  0.00    +0.000 C 
ATOM     12  O   UNL     1      60.271  63.882  69.712  0.00  0.00    +0.000 OA
ATOM     13  C   UNL     1      61.216  63.730  68.651  0.00  0.00    +0.000 C 
ATOM     14  C   UNL     1      61.418  63.424  67.911  0.00  0.00    +0.000 C 
ATOM     15  C   UNL     1      60.875  62.965  67.494  0.00  0.00    +0.000 C 
ATOM     16  C   UNL     1      61.619  63.118  67.172  0.00  0.00    +0.000 C 
ATOM     17  C   UNL     1      60.735  61.893  65.596  0.00  0.00    +0.000 C 
ATOM     18  C   UNL     1      60.317  61.426  65.061  0.00  0.00    +0.000 C 
ATOM     19  C   UNL     1      60.803  61.290  64.407  0.00  0.00    +0.000 C 
ATOM     20  C   UNL     1      61.520  61.674  64.541  0.00  0.00    +0.000 C 
ATOM     21  C   UNL     1      62.239  62.059  64.673  0.00  0.00    +0.000 C 
ATOM     22  C   UNL     1      62.725  61.923  64.020  0.00  0.00    +0.000 C 
ATOM     23  C   UNL     1      62.308  61.455  63.485  0.00  0.00    +0.000 C 
ATOM     24  O   UNL     1      62.585  61.188  62.755  0.00  0.00    +0.000 OA
ATOM     25  O   UNL     1      61.564  61.302  63.806  0.00  0.00    +0.000 OA
ENDROOT
TORSDOF 0
ENDMDL
MODEL 3
REMARK VINA RESULT:   -13.098      5.109      6.381
REMARK INTER + INTRA:         -13.098
REMARK INTER:                 -13.098
REMARK INTRA:                   0.000
REMARK UNBOUND:                 0.000
ROOT
REMARK  Name = canrenone
REMARK                            x       y       z     vdW  Elec       q    Type
REMARK                         _______ _______ _______ _____ _____    ______ ____
ATOM      1  C   UNL     1      60.196  65.158  72.924  0.00  0.00    +0.000 C 
ATOM      2  C   UNL     1      60.087  64.824  72.178  0.00  0.00    +0.000 C 
ATOM      3  C   UNL     1      60.484  64.557  72.849  0.00  0.00    +0.000 C 
ATOM      4  C   UNL     1      60.866  63.825  72.839  0.00  0.00    +0.000 C 
ATOM      5  C   UNL     1      60.849  63.361  72.157  0.00  0.00    +0.000 C 
ATOM      6  C   UNL     1      60.452  63.628  71.485  0.00  0.00    +0.000 C 
ATOM      7  C   UNL     1      60.435  63.164  70.804  0.00  0.00    +0.000 C 
ATOM      8  C   UNL     1      60.816  62.433  70.794  0.00  0.00    +0.000 C 
ATOM      9  C   UNL     1      61.214  62.166  71.464  0.00  0.00    +0.000 C 
ATOM     10  C   UNL     1      61.596  61.434  71.454  0.00  0.00    +0.000 C 
ATOM     11  C   UNL     1      61.994  61.167  72.126  0.00  0.00    +0.000 C 
ATOM     12  O   UNL     1      62.376  60.435  72.115  0.00  0.00    +0.000 OA
ATOM     13  C   UNL     1      62.010  61.630  72.807  0.00  0.00    +0.000 C 
ATOM     14  C   UNL     1      61.629  62.363  72.818  0.00  0.00    +0.000 C 
ATOM     15  C   UNL     1      61.231  62.629  72.147  0.00  0.00    +0.000 C 
ATOM     16  C   UNL     1      61.247  63.094  72.828  0.00  0.00    +0.000 C 
ATOM     17  C   UNL     1      60.070  64.360  71.496  0.00  0.00    +0.000 C 
ATOM     18  C   UNL     1      59.637  64.765  70.922  0.00  0.00    +0.000 C 
ATOM     19  C   UNL     1      59.386  65.479  71.249  0.00  0.00    +0.000 C 
ATOM     20  C   UNL     1      59.664  65.515  72.025  0.00  0.00    +0.000 C 
ATOM     21  C   UNL     1      59.942  65.552  72.802  0.00  0.00    +0.000 C 
ATOM     22  C   UNL     1      59.690  66.267  73.129  0.00  0.00    +0.000 C 
ATOM     23  C   UNL     1      59.257  66.671  72.555  0.00  0.00    +0.000 C 
ATOM     24  O   UNL     1      58.903  67.411  72.647  0.00  0.00    +0.000 OA
ATOM     25  O   UNL     1      59.241  66.208  71.874  0.00  0.00    +0.000 OA
ENDROOT
TORSDOF 0
ENDMDL
MODEL 4
REMARK VINA RESULT:   -12.912      4.997      6.541
REMARK INTER + INTRA:         -12.912
REMARK INTER:                 -12.912
REMARK INTRA:                   0.000
REMARK UNBOUND:                 0.000
ROOT
REMARK  Name = canrenone
REMARK                            x       y       z     vdW  Elec       q    Type
REMARK                         _______ _______ _______ _____ _____    ______ ____
ATOM      1  C   UNL     1      62.440  64.948  72.027  0.00  0.00    +0.000 C 
ATOM      2  C   UNL     1      62.737  64.740  71.287  0.00  0.00    +0.000 C 
ATOM      3  C   UNL     1      62.936  65.344  71.812  0.00  0.00    +0.000 C 
ATOM      4  C   UNL     1      63.537  65.876  71.620  0.00  0.00    +0.000 C 
ATOM      5  C   UNL     1      63.940  65.802  70.905  0.00  0.00    +0.000 C 
ATOM      6  C   UNL     1      63.742  65.198  70.379  0.00  0.00    +0.000 C 
ATOM      7  C   UNL     1      64.144  65.125  69.663  0.00  0.00    +0.000 C 
ATOM      8  C   UNL     1      64.745  65.656  69.472  0.00  0.00    +0.000 C 
ATOM      9  C   UNL     1      64.944  66.261  69.997  0.00  0.00    +0.000 C 
ATOM     10  C   UNL     1      65.546  66.792  69.805  0.00  0.00    +0.000 C 
ATOM     11  C   UNL     1      65.744  67.397  70.331  0.00  0.00    +0.000 C 
ATOM     12  O   UNL     1      66.346  67.929  70.139  0.00  0.00    +0.000 OA
ATOM     13  C   UNL     1      65.342  67.470  71.046  0.00  0.00    +0.000 C 
ATOM     14  C   UNL     1      64.740  66.938  71.238  0.00  0.00    +0.000 C 
ATOM     15  C   UNL     1      64.542  66.334  70.713  0.00  0.00    +0.000 C 
ATOM     16  C   UNL     1      64.139  66.407  71.429  0.00  0.00    +0.000 C 
ATOM     17  C   UNL     1      63.140  64.666  70.571  0.00  0.00    +0.000 C 
ATOM     18  C   UNL     1      62.825  64.020  70.166  0.00  0.00    +0.000 C 
ATOM     19  C   UNL     1      62.228  63.694  70.632  0.00  0.00    +0.000 C 
ATOM     20  C   UNL     1      62.174  64.139  71.324  0.00  0.00    +0.000 C 
ATOM     21  C   UNL     1      62.119  64.583  72.018  0.00  0.00    +0.000 C 
ATOM     22  C   UNL     1      61.522  64.257  72.484  0.00  0.00    +0.000 C 
ATOM     23  C   UNL     1      61.207  63.611  72.079  0.00  0.00    +0.000 C 
ATOM     24  O   UNL     1      60.597  63.123  72.344  0.00  0.00    +0.000 OA
ATOM     25  O   UNL     1      61.610  63.537  71.364  0.00  0.00    +0.000 OA
ENDROOT
TORSDOF 0
ENDMDL
MODEL 5
REMARK VINA RESULT:   -12.840      2.038      5.152
REMARK INTER + INTRA:         -12.840
REMARK INTER:                 -12.840
REMARK INTRA:                   0.000
REMARK UNBOUND:                 0.000
ROOT
REMARK  Name = canrenone
REMARK                            x       y       z     vdW  Elec       q    Type
REMARK                         _______ _______ _______ _____ _____    ______ ____
ATOM      1  C   UNL     1      60.150  62.012  68.248  0.00  0.00    +0.000 C 
ATOM      2  C   UNL     1      60.695  62.616  68.377  0.00  0.00    +0.000 C 
ATOM      3  C   UNL     1      60.329  62.085  68.890  0.00  0.00    +0.000 C 
ATOM      4  C   UNL     1      60.497  62.110  69.698  0.00  0.00    +0.000 C 
ATOM      5  C   UNL     1      61.030  62.667  69.991  0.00  0.00    +0.000 C 
ATOM      6  C   UNL     1      61.396  63.199  69.478  0.00  0.00    +0.000 C 
ATOM      7  C   UNL     1      61.929  63.755  69.771  0.00  0.00    +0.000 C 
ATOM      8  C   UNL     1      62.097  63.780  70.578  0.00  0.00    +0.000 C 
ATOM      9  C   UNL     1      61.731  63.249  71.092  0.00  0.00    +0.000 C 
ATOM     10  C   UNL     1      61.898  63.274  71.900  0.00  0.00    +0.000 C 
ATOM     11  C   UNL     1      61.532  62.742  72.413  0.00  0.00    +0.000 C 
ATOM     12  O   UNL     1      61.699  62.767  73.222  0.00  0.00    +0.000 OA
ATOM     13  C   UNL     1      60.999  62.186  72.120  0.00  0.00    +0.000 C 
ATOM     14  C   UNL     1      60.831  62.161  71.312  0.00  0.00    +0.000 C 
ATOM     15  C   UNL     1      61.197  62.692  70.799  0.00  0.00    +0.000 C 
ATOM     16  C   UNL     1      60.664  62.135  70.505  0.00  0.00    +0.000 C 
ATOM     17  C   UNL     1      61.229  63.173  68.670  0.00  0.00    +0.000 C 
ATOM     18  C   UNL     1      61.503  63.623  68.035  0.00  0.00    +0.000 C 
ATOM     19  C   UNL     1      61.139  63.345  67.349  0.00  0.00    +0.000 C 
ATOM     20  C   UNL     1      60.640  62.723  67.560  0.00  0.00    +0.000 C 
ATOM     21  C   UNL     1      60.141  62.100  67.771  0.00  0.00    +0.000 C 
ATOM     22  C   UNL     1      59.777  61.822  67.085  0.00  0.00    +0.000 C 
ATOM     23  C   UNL     1      60.051  62.272  66.451  0.00  0.00    +0.000 C 
ATOM     24  O   UNL     1      59.830  62.182  65.660  0.00  0.00    +0.000 OA
ATOM     25  O   UNL     1      60.584  62.828  66.744  0.00  0.00    +0.000 OA
ENDROOT
TORSDOF 0
ENDMDL
MODEL 6
REMARK VINA RESULT:   -12.825      5.138      6.939
REMARK INTER + INTRA:         -12.825
REMARK INTER:                 -12.825
REMARK INTRA:                   0.000
REMARK UNBOUND:                 0.000
ROOT
REMARK  Name = canrenone
REMARK                            x       y       z     vdW  Elec       q    Type
REMARK                         _______ _______ _______ _____ _____    ______ ____
ATOM      1  C   UNL     1      64.513  66.584  71.177  0.00  0.00    +0.000 C 
ATOM      2  C   UNL     1      64.344  65.975  70.647  0.00  0.00    +0.000 C 
ATOM      3  C   UNL     1      64.026  66.171  71.382  0.00  0.00    +0.000 C 
ATOM      4  C   UNL     1      63.421  65.711  71.705  0.00  0.00    +0.000 C 
ATOM      5  C   UNL     1      63.136  65.056  71.293  0.00  0.00    +0.000 C 
ATOM      6  C   UNL     1      63.454  64.860  70.557  0.00  0.00    +0.000 C 
ATOM      7  C   UNL     1      63.169  64.205  70.145  0.00  0.00    +0.000 C 
ATOM      8  C   UNL     1      62.565  63.746  70.468  0.00  0.00    +0.000 C 
ATOM      9  C   UNL     1      62.246  63.941  71.203  0.00  0.00    +0.000 C 
ATOM     10  C   UNL     1      61.641  63.482  71.526  0.00  0.00    +0.000 C 
ATOM     11  C   UNL     1      61.322  63.678  72.261  0.00  0.00    +0.000 C 
ATOM     12  O   UNL     1      60.717  63.218  72.584  0.00  0.00    +0.000 OA
ATOM     13  C   UNL     1      61.607  64.333  72.673  0.00  0.00    +0.000 C 
ATOM     14  C   UNL     1      62.212  64.793  72.350  0.00  0.00    +0.000 C 
ATOM     15  C   UNL     1      62.531  64.597  71.616  0.00  0.00    +0.000 C 
ATOM     16  C   UNL     1      62.816  65.252  72.027  0.00  0.00    +0.000 C 
ATOM     17  C   UNL     1      64.059  65.320  70.234  0.00  0.00    +0.000 C 
ATOM     18  C   UNL     1      64.478  65.262  69.526  0.00  0.00    +0.000 C 
ATOM     19  C   UNL     1      65.022  65.881  69.500  0.00  0.00    +0.000 C 
ATOM     20  C   UNL     1      64.939  66.321  70.193  0.00  0.00    +0.000 C 
ATOM     21  C   UNL     1      64.857  66.762  70.886  0.00  0.00    +0.000 C 
ATOM     22  C   UNL     1      65.401  67.382  70.860  0.00  0.00    +0.000 C 
ATOM     23  C   UNL     1      65.820  67.324  70.152  0.00  0.00    +0.000 C 
ATOM     24  O   UNL     1      66.420  67.832  69.900  0.00  0.00    +0.000 OA
ATOM     25  O   UNL     1      65.535  66.669  69.740  0.00  0.00    +0.000 OA
ENDROOT
TORSDOF 0
ENDMDL
MODEL 7
REMARK VINA RESULT:   -11.829      4.014      6.448
REMARK INTER + INTRA:         -11.829
REMARK INTER:                 -11.829
REMARK INTRA:                   0.000
REMARK UNBOUND:                 0.000
ROOT
REMARK  Name = canrenone
REMARK                            x       y       z     vdW  Elec       q    Type
REMARK                         _______ _______ _______ _____ _____    ______ ____
ATOM      1  C   UNL     1      61.592  63.368  70.208  0.00  0.00    +0.000 C 
ATOM      2  C   UNL     1      61.376  63.565  70.979  0.00  0.00    +0.000 C 
ATOM      3  C   UNL     1      61.909  63.906  70.451  0.00  0.00    +0.000 C 
ATOM      4  C   UNL     1      62.341  64.574  70.674  0.00  0.00    +0.000 C 
ATOM      5  C   UNL     1      62.238  64.899  71.425  0.00  0.00    +0.000 C 
ATOM      6  C   UNL     1      61.704  64.558  71.954  0.00  0.00    +0.000 C 
ATOM      7  C   UNL     1      61.601  64.883  72.704  0.00  0.00    +0.000 C 
ATOM      8  C   UNL     1      62.032  65.550  72.927  0.00  0.00    +0.000 C 
ATOM      9  C   UNL     1      62.566  65.891  72.400  0.00  0.00    +0.000 C 
ATOM     10  C   UNL     1      62.998  66.559  72.623  0.00  0.00    +0.000 C 
ATOM     11  C   UNL     1      63.531  66.900  72.095  0.00  0.00    +0.000 C 
ATOM     12  O   UNL     1      63.963  67.568  72.318  0.00  0.00    +0.000 OA
ATOM     13  C   UNL     1      63.634  66.575  71.344  0.00  0.00    +0.000 C 
ATOM     14  C   UNL     1      63.203  65.907  71.121  0.00  0.00    +0.000 C 
ATOM     15  C   UNL     1      62.669  65.567  71.648  0.00  0.00    +0.000 C 
ATOM     16  C   UNL     1      62.772  65.241  70.898  0.00  0.00    +0.000 C 
ATOM     17  C   UNL     1      61.272  63.890  71.730  0.00  0.00    +0.000 C 
ATOM     18  C   UNL     1      60.711  63.438  72.129  0.00  0.00    +0.000 C 
ATOM     19  C   UNL     1      60.466  62.832  71.626  0.00  0.00    +0.000 C 
ATOM     20  C   UNL     1      60.877  62.911  70.915  0.00  0.00    +0.000 C 
ATOM     21  C   UNL     1      61.288  62.990  70.203  0.00  0.00    +0.000 C 
ATOM     22  C   UNL     1      61.043  62.384  69.699  0.00  0.00    +0.000 C 
ATOM     23  C   UNL     1      60.482  61.931  70.099  0.00  0.00    +0.000 C 
ATOM     24  O   UNL     1      60.091  61.269  69.799  0.00  0.00    +0.000 OA
ATOM     25  O   UNL     1      60.379  62.256  70.849  0.00  0.00    +0.000 OA
ENDROOT
TORSDOF 0
ENDMDL
MODEL 8
REMARK VINA RESULT:   -11.558      2.257      5.217
REMARK INTER + INTRA:         -11.558
REMARK INTER:                 -11.558
REMARK INTRA:                   0.000
REMARK UNBOUND:                 0.000
ROOT
REMARK  Name = canrenone
REMARK                            x       y       z     vdW  Elec       q    Type
REMARK                         _______ _______ _______ _____ _____    ______ ____
ATOM      1  C   UNL     1      61.253  63.513  68.148  0.00  0.00    +0.000 C 
ATOM      2  C   UNL     1      61.169  63.185  68.900  0.00  0.00    +0.000 C 
ATOM      3  C   UNL     1      61.559  63.861  68.634  0.00  0.00    +0.000 C 
ATOM      4  C   UNL     1      61.960  64.344  69.170  0.00  0.00    +0.000 C 
ATOM      5  C   UNL     1      61.971  64.150  69.971  0.00  0.00    +0.000 C 
ATOM      6  C   UNL     1      61.582  63.473  70.238  0.00  0.00    +0.000 C 
ATOM      7  C   UNL     1      61.593  63.279  71.039  0.00  0.00    +0.000 C 
ATOM      8  C   UNL     1      61.994  63.762  71.574  0.00  0.00    +0.000 C 
ATOM      9  C   UNL     1      62.383  64.439  71.308  0.00  0.00    +0.000 C 
ATOM     10  C   UNL     1      62.785  64.922  71.844  0.00  0.00    +0.000 C 
ATOM     11  C   UNL     1      63.174  65.598  71.577  0.00  0.00    +0.000 C 
ATOM     12  O   UNL     1      63.576  66.081  72.113  0.00  0.00    +0.000 OA
ATOM     13  C   UNL     1      63.163  65.792  70.776  0.00  0.00    +0.000 C 
ATOM     14  C   UNL     1      62.762  65.309  70.240  0.00  0.00    +0.000 C 
ATOM     15  C   UNL     1      62.372  64.633  70.507  0.00  0.00    +0.000 C 
ATOM     16  C   UNL     1      62.361  64.826  69.705  0.00  0.00    +0.000 C 
ATOM     17  C   UNL     1      61.180  62.990  69.702  0.00  0.00    +0.000 C 
ATOM     18  C   UNL     1      60.750  62.294  69.802  0.00  0.00    +0.000 C 
ATOM     19  C   UNL     1      60.472  62.057  69.062  0.00  0.00    +0.000 C 
ATOM     20  C   UNL     1      60.732  62.608  68.505  0.00  0.00    +0.000 C 
ATOM     21  C   UNL     1      60.991  63.158  67.947  0.00  0.00    +0.000 C 
ATOM     22  C   UNL     1      60.713  62.921  67.207  0.00  0.00    +0.000 C 
ATOM     23  C   UNL     1      60.283  62.225  67.308  0.00  0.00    +0.000 C 
ATOM     24  O   UNL     1      59.906  61.797  66.710  0.00  0.00    +0.000 OA
ATOM     25  O   UNL     1      60.294  62.031  68.109  0.00  0.00    +0.000 OA
ENDROOT
TORSDOF 0
ENDMDL
