MODEL 1
REMARK VINA RESULT:   -11.221      0.000      0.000
REMARK INTER + INTRA:         -11.221
REMARK INTER:                 -11.221
REMARK INTRA:                   0.000
REMARK UNBOUND:                 0.000
ROOT
REMARK  Name = caramiphen
REMARK                            x       y       z     vdW  Elec       q    Type
REMARK                         _______ _______ _______ _____ _____    ______ ____
ATOM      1  C   UNL     1      61.101  64.792  70.450  0.00  0.00    +0.000 C 
ATOM      2  C   UNL     1      60.649  64.373  69.902  0.00  0.00    +0.000 C 
ATOM      3  N   UNL     1      61.001  64.072  69.220  0.00  0.00    +0.000 NA
ATOM      4  C   UNL     1      61.806  64.189  69.086  0.00  0.00    +0.000 C 
ATOM      5  C   UNL     1      62.159  63.887  68.403  0.00  0.00    +0.000 C 
ATOM      6  C   UNL     1      60.548  63.653  68.672  0.00  0.00    +0.000 C 
ATOM      7  C   UNL     1      60.900  63.352  67.990  0.00  0.00    +0.000 C 
ATOM      8  O   UNL     1      60.447  62.933  67.442  0.00  0.00    +0.000 OA
ATOM      9  C   UNL     1      60.799  62.631  66.760  0.00  0.00    +0.000 C 
ATOM     10  O   UNL     1      61.604  62.748  66.626  0.00  0.00    +0.000 OA
ATOM     11  C   UNL     1      60.346  62.212  66.212  0.00  0.00    +0.000 C 
ATOM     12  C   UNL     1      60.042  61.781  65.579  0.00  0.00    +0.000 C 
ATOM     13  C   UNL     1      59.237  61.664  65.713  0.00  0.00    +0.000 C 
ATOM     14  C   UNL     1      59.043  62.023  66.430  0.00  0.00    +0.000 C 
ATOM     15  C   UNL     1      59.728  62.362  66.738  0.00  0.00    +0.000 C 
ATOM     16  C   UNL     1      61.059  62.151  65.801  0.00  0.00    +0.000 A 
ATOM     17  C   UNL     1      61.744  62.490  66.109  0.00  0.00    +0.000 A 
ATOM     18  C   UNL     1      62.457  62.428  65.697  0.00  0.00    +0.000 A 
ATOM     19  C   UNL     1      62.483  62.026  64.977  0.00  0.00    +0.000 A 
ATOM     20  C   UNL     1      61.796  61.687  64.669  0.00  0.00    +0.000 A 
ATOM     21  C   UNL     1      61.085  61.749  65.080  0.00  0.00    +0.000 A 
ENDROOT
TORSDOF 0
ENDMDL
MODEL 2
REMARK VINA RESULT:   -10.812      2.365      5.282
REMARK INTER + INTRA:         -10.812
REMARK INTER:                 -10.812
REMARK INTRA:                   0.000
REMARK UNBOUND:                 0.000
ROOT
REMARK  Name = caramiphen
REMARK                            x       y       z     vdW  Elec       q    Type
REMARK                         _______ _______ _______ _____ _____    ______ ____
ATOM      1  C   UNL     1      59.791  62.389  66.766  0.00  0.00    +0.000 C 
ATOM      2  C   UNL     1      60.094  62.042  67.450  0.00  0.00    +0.000 C 
ATOM      3  N   UNL     1      60.216  62.498  68.126  0.00  0.00    +0.000 NA
ATOM      4  C   UNL     1      60.034  63.303  68.118  0.00  0.00    +0.000 C 
ATOM      5  C   UNL     1      60.156  63.760  68.795  0.00  0.00    +0.000 C 
ATOM      6  C   UNL     1      60.519  62.151  68.810  0.00  0.00    +0.000 C 
ATOM      7  C   UNL     1      60.640  62.607  69.486  0.00  0.00    +0.000 C 
ATOM      8  O   UNL     1      60.943  62.260  70.170  0.00  0.00    +0.000 OA
ATOM      9  C   UNL     1      61.064  62.716  70.846  0.00  0.00    +0.000 C 
ATOM     10  O   UNL     1      60.883  63.521  70.838  0.00  0.00    +0.000 OA
ATOM     11  C   UNL     1      61.367  62.368  71.531  0.00  0.00    +0.000 C 
ATOM     12  C   UNL     1      61.656  62.179  72.279  0.00  0.00    +0.000 C 
ATOM     13  C   UNL     1      61.838  61.375  72.287  0.00  0.00    +0.000 C 
ATOM     14  C   UNL     1      61.661  61.066  71.543  0.00  0.00    +0.000 C 
ATOM     15  C   UNL     1      61.370  61.680  71.075  0.00  0.00    +0.000 C 
ATOM     16  C   UNL     1      61.301  63.129  71.842  0.00  0.00    +0.000 A 
ATOM     17  C   UNL     1      61.010  63.743  71.374  0.00  0.00    +0.000 A 
ATOM     18  C   UNL     1      60.944  64.504  71.687  0.00  0.00    +0.000 A 
ATOM     19  C   UNL     1      61.169  64.651  72.467  0.00  0.00    +0.000 A 
ATOM     20  C   UNL     1      61.460  64.036  72.935  0.00  0.00    +0.000 A 
ATOM     21  C   UNL     1      61.526  63.276  72.623  0.00  0.00    +0.000 A 
ENDROOT
TORSDOF 0
ENDMDL
MODEL 3
REMARK VINA RESULT:   -10.664      2.182      3.704
REMARK INTER + INTRA:         -10.664
REMARK INTER:                 -10.664
REMARK INTRA:                   0.000
REMARK UNBOUND:                 0.000
ROOT
REMARK  Name = caramiphen
REMARK                            x       y       z     vdW  Elec       q    Type
REMARK                         _______ _______ _______ _____ _____    ______ ____
ATOM      1  C   UNL     1      59.447  67.584  71.279  0.00  0.00    +0.000 C 
ATOM      2  C   UNL     1      59.620  66.794  71.446  0.00  0.00    +0.000 C 
ATOM      3  N   UNL     1      59.702  66.251  70.831  0.00  0.00    +0.000 NA
ATOM      4  C   UNL     1      59.610  66.495  70.049  0.00  0.00    +0.000 C 
ATOM      5  C   UNL     1      59.692  65.951  69.434  0.00  0.00    +0.000 C 
ATOM      6  C   UNL     1      59.875  65.461  70.999  0.00  0.00    +0.000 C 
ATOM      7  C   UNL     1      59.956  64.917  70.384  0.00  0.00    +0.000 C 
ATOM      8  O   UNL     1      60.129  64.128  70.552  0.00  0.00    +0.000 OA
ATOM      9  C   UNL     1      60.210  63.584  69.937  0.00  0.00    +0.000 C 
ATOM     10  O   UNL     1      60.119  63.829  69.155  0.00  0.00    +0.000 OA
ATOM     11  C   UNL     1      60.383  62.795  70.105  0.00  0.00    +0.000 C 
ATOM     12  C   UNL     1      60.551  61.987  70.101  0.00  0.00    +0.000 C 
ATOM     13  C   UNL     1      60.642  61.743  70.884  0.00  0.00    +0.000 C 
ATOM     14  C   UNL     1      60.531  62.398  71.371  0.00  0.00    +0.000 C 
ATOM     15  C   UNL     1      60.371  63.049  70.890  0.00  0.00    +0.000 C 
ATOM     16  C   UNL     1      60.359  62.706  69.285  0.00  0.00    +0.000 A 
ATOM     17  C   UNL     1      60.199  63.356  68.804  0.00  0.00    +0.000 A 
ATOM     18  C   UNL     1      60.175  63.267  67.983  0.00  0.00    +0.000 A 
ATOM     19  C   UNL     1      60.311  62.527  67.645  0.00  0.00    +0.000 A 
ATOM     20  C   UNL     1      60.472  61.876  68.127  0.00  0.00    +0.000 A 
ATOM     21  C   UNL     1      60.496  61.965  68.946  0.00  0.00    +0.000 A 
ENDROOT
TORSDOF 0
ENDMDL
MODEL 4
REMARK VINA RESULT:   -10.542      2.139      3.604
REMARK INTER + INTRA:         -10.542
REMARK INTER:                 -10.542
REMARK INTRA:                   0.000
REMARK UNBOUND:                 0.000
ROOT
REMARK  Name = caramiphen
REMARK                            x       y       z     vdW  Elec       q    Type
REMARK                         _______ _______ _______ _____ _____    ______ ____
ATOM      1  C   UNL     1      64.066  66.370  71.310  0.00  0.00    +0.000 C 
ATOM      2  C   UNL     1      63.592  65.713  71.469  0.00  0.00    +0.000 C 
ATOM      3  N   UNL     1      63.203  65.326  70.853  0.00  0.00    +0.000 NA
ATOM      4  C   UNL     1      63.288  65.595  70.078  0.00  0.00    +0.000 C 
ATOM      5  C   UNL     1      62.898  65.208  69.462  0.00  0.00    +0.000 C 
ATOM      6  C   UNL     1      62.730  64.669  71.012  0.00  0.00    +0.000 C 
ATOM      7  C   UNL     1      62.341  64.282  70.397  0.00  0.00    +0.000 C 
ATOM      8  O   UNL     1      61.868  63.625  70.555  0.00  0.00    +0.000 OA
ATOM      9  C   UNL     1      61.479  63.238  69.940  0.00  0.00    +0.000 C 
ATOM     10  O   UNL     1      61.563  63.508  69.165  0.00  0.00    +0.000 OA
ATOM     11  C   UNL     1      61.005  62.581  70.098  0.00  0.00    +0.000 C 
ATOM     12  C   UNL     1      60.506  61.925  70.087  0.00  0.00    +0.000 C 
ATOM     13  C   UNL     1      60.422  61.655  70.862  0.00  0.00    +0.000 C 
ATOM     14  C   UNL     1      60.869  62.144  71.353  0.00  0.00    +0.000 C 
ATOM     15  C   UNL     1      61.230  62.717  70.881  0.00  0.00    +0.000 C 
ATOM     16  C   UNL     1      60.880  62.583  69.283  0.00  0.00    +0.000 A 
ATOM     17  C   UNL     1      61.241  63.155  68.811  0.00  0.00    +0.000 A 
ATOM     18  C   UNL     1      61.115  63.156  67.995  0.00  0.00    +0.000 A 
ATOM     19  C   UNL     1      60.629  62.585  67.652  0.00  0.00    +0.000 A 
ATOM     20  C   UNL     1      60.268  62.012  68.125  0.00  0.00    +0.000 A 
ATOM     21  C   UNL     1      60.393  62.011  68.940  0.00  0.00    +0.000 A 
ENDROOT
TORSDOF 0
ENDMDL
MODEL 5
REMARK VINA RESULT:    -9.968      4.185      6.129
REMARK INTER + INTRA:          -9.968
REMARK INTER:                  -9.968
REMARK INTRA:                   0.000
REMARK UNBOUND:                 0.000
ROOT
REMARK  Name = caramiphen
REMARK                            x       y       z     vdW  Elec       q    Type
REMARK                         _______ _______ _______ _____ _____    ______ ____
ATOM      1  C   UNL     1      60.353  61.734  70.908  0.00  0.00    +0.000 C 
ATOM      2  C   UNL     1      61.016  62.117  70.601  0.00  0.00    +0.000 C 
ATOM      3  N   UNL     1      61.285  62.816  70.944  0.00  0.00    +0.000 NA
ATOM      4  C   UNL     1      60.891  63.133  71.596  0.00  0.00    +0.000 C 
ATOM      5  C   UNL     1      61.160  63.834  71.941  0.00  0.00    +0.000 C 
ATOM      6  C   UNL     1      61.948  63.200  70.637  0.00  0.00    +0.000 C 
ATOM      7  C   UNL     1      62.217  63.899  70.980  0.00  0.00    +0.000 C 
ATOM      8  O   UNL     1      62.880  64.282  70.673  0.00  0.00    +0.000 OA
ATOM      9  C   UNL     1      63.149  64.981  71.017  0.00  0.00    +0.000 C 
ATOM     10  O   UNL     1      62.755  65.299  71.669  0.00  0.00    +0.000 OA
ATOM     11  C   UNL     1      63.812  65.365  70.709  0.00  0.00    +0.000 C 
ATOM     12  C   UNL     1      64.445  65.861  70.527  0.00  0.00    +0.000 C 
ATOM     13  C   UNL     1      64.839  65.543  69.875  0.00  0.00    +0.000 C 
ATOM     14  C   UNL     1      64.449  64.851  69.654  0.00  0.00    +0.000 C 
ATOM     15  C   UNL     1      63.814  64.740  70.169  0.00  0.00    +0.000 C 
ATOM     16  C   UNL     1      63.671  65.908  71.313  0.00  0.00    +0.000 A 
ATOM     17  C   UNL     1      63.036  65.797  71.828  0.00  0.00    +0.000 A 
ATOM     18  C   UNL     1      62.896  66.342  72.433  0.00  0.00    +0.000 A 
ATOM     19  C   UNL     1      63.389  66.996  72.521  0.00  0.00    +0.000 A 
ATOM     20  C   UNL     1      64.024  67.107  72.006  0.00  0.00    +0.000 A 
ATOM     21  C   UNL     1      64.165  66.563  71.402  0.00  0.00    +0.000 A 
ENDROOT
TORSDOF 0
ENDMDL
MODEL 6
REMARK VINA RESULT:    -9.956      5.121      6.541
REMARK INTER + INTRA:          -9.956
REMARK INTER:                  -9.956
REMARK INTRA:                   0.000
REMARK UNBOUND:                 0.000
ROOT
REMARK  Name = caramiphen
REMARK                            x       y       z     vdW  Elec       q    Type
REMARK                         _______ _______ _______ _____ _____    ______ ____
ATOM      1  C   UNL     1      59.856  66.829  73.220  0.00  0.00    +0.000 C 
ATOM      2  C   UNL     1      60.333  66.374  72.723  0.00  0.00    +0.000 C 
ATOM      3  N   UNL     1      61.098  66.622  72.545  0.00  0.00    +0.000 NA
ATOM      4  C   UNL     1      61.388  67.326  72.864  0.00  0.00    +0.000 C 
ATOM      5  C   UNL     1      62.155  67.575  72.686  0.00  0.00    +0.000 C 
ATOM      6  C   UNL     1      61.575  66.167  72.049  0.00  0.00    +0.000 C 
ATOM      7  C   UNL     1      62.341  66.416  71.871  0.00  0.00    +0.000 C 
ATOM      8  O   UNL     1      62.818  65.961  71.374  0.00  0.00    +0.000 OA
ATOM      9  C   UNL     1      63.584  66.209  71.196  0.00  0.00    +0.000 C 
ATOM     10  O   UNL     1      63.874  66.913  71.515  0.00  0.00    +0.000 OA
ATOM     11  C   UNL     1      64.061  65.755  70.699  0.00  0.00    +0.000 C 
ATOM     12  C   UNL     1      64.653  65.424  70.230  0.00  0.00    +0.000 C 
ATOM     13  C   UNL     1      64.363  64.720  69.912  0.00  0.00    +0.000 C 
ATOM     14  C   UNL     1      63.591  64.616  70.183  0.00  0.00    +0.000 C 
ATOM     15  C   UNL     1      63.404  65.255  70.670  0.00  0.00    +0.000 C 
ATOM     16  C   UNL     1      64.617  66.349  70.832  0.00  0.00    +0.000 A 
ATOM     17  C   UNL     1      64.430  66.988  71.319  0.00  0.00    +0.000 A 
ATOM     18  C   UNL     1      64.987  67.582  71.452  0.00  0.00    +0.000 A 
ATOM     19  C   UNL     1      65.730  67.537  71.098  0.00  0.00    +0.000 A 
ATOM     20  C   UNL     1      65.917  66.898  70.611  0.00  0.00    +0.000 A 
ATOM     21  C   UNL     1      65.361  66.304  70.478  0.00  0.00    +0.000 A 
ENDROOT
TORSDOF 0
ENDMDL
MODEL 7
REMARK VINA RESULT:    -9.590      4.881      6.002
REMARK INTER + INTRA:          -9.590
REMARK INTER:                  -9.590
REMARK INTRA:                   0.000
REMARK UNBOUND:                 0.000
ROOT
REMARK  Name = caramiphen
REMARK                            x       y       z     vdW  Elec       q    Type
REMARK                         _______ _______ _______ _____ _____    ______ ____
ATOM      1  C   UNL     1      57.623  67.359  73.222  0.00  0.00    +0.000 C 
ATOM      2  C   UNL     1      58.414  67.218  73.037  0.00  0.00    +0.000 C 
ATOM      3  N   UNL     1      58.657  66.465  72.807  0.00  0.00    +0.000 NA
ATOM      4  C   UNL     1      58.108  65.850  72.763  0.00  0.00    +0.000 C 
ATOM      5  C   UNL     1      58.351  65.095  72.533  0.00  0.00    +0.000 C 
ATOM      6  C   UNL     1      59.449  66.324  72.621  0.00  0.00    +0.000 C 
ATOM      7  C   UNL     1      59.691  65.571  72.392  0.00  0.00    +0.000 C 
ATOM      8  O   UNL     1      60.483  65.430  72.206  0.00  0.00    +0.000 OA
ATOM      9  C   UNL     1      60.726  64.676  71.976  0.00  0.00    +0.000 C 
ATOM     10  O   UNL     1      60.177  64.062  71.932  0.00  0.00    +0.000 OA
ATOM     11  C   UNL     1      61.517  64.536  71.791  0.00  0.00    +0.000 C 
ATOM     12  C   UNL     1      62.254  64.235  71.576  0.00  0.00    +0.000 C 
ATOM     13  C   UNL     1      62.803  64.850  71.620  0.00  0.00    +0.000 C 
ATOM     14  C   UNL     1      62.405  65.530  71.862  0.00  0.00    +0.000 C 
ATOM     15  C   UNL     1      61.611  65.337  71.967  0.00  0.00    +0.000 C 
ATOM     16  C   UNL     1      61.258  63.765  71.653  0.00  0.00    +0.000 A 
ATOM     17  C   UNL     1      60.463  63.571  71.758  0.00  0.00    +0.000 A 
ATOM     18  C   UNL     1      60.205  62.800  71.620  0.00  0.00    +0.000 A 
ATOM     19  C   UNL     1      60.741  62.223  71.377  0.00  0.00    +0.000 A 
ATOM     20  C   UNL     1      61.537  62.417  71.272  0.00  0.00    +0.000 A 
ATOM     21  C   UNL     1      61.795  63.187  71.410  0.00  0.00    +0.000 A 
ENDROOT
TORSDOF 0
ENDMDL
MODEL 8
REMARK VINA RESULT:    -9.479      5.030      6.509
REMARK INTER + INTRA:          -9.479
REMARK INTER:                  -9.479
REMARK INTRA:                   0.000
REMARK UNBOUND:                 0.000
ROOT
REMARK  Name = caramiphen
REMARK                            x       y       z     vdW  Elec       q    Type
REMARK                         _______ _______ _______ _____ _____    ______ ____
ATOM      1  C   UNL     1      59.239  66.753  73.222  0.00  0.00    +0.000 C 
ATOM      2  C   UNL     1      60.030  66.980  73.161  0.00  0.00    +0.000 C 
ATOM      3  N   UNL     1      60.544  66.557  72.676  0.00  0.00    +0.000 NA
ATOM      4  C   UNL     1      60.269  65.905  72.251  0.00  0.00    +0.000 C 
ATOM      5  C   UNL     1      60.784  65.481  71.765  0.00  0.00    +0.000 C 
ATOM      6  C   UNL     1      61.336  66.783  72.615  0.00  0.00    +0.000 C 
ATOM      7  C   UNL     1      61.850  66.360  72.129  0.00  0.00    +0.000 C 
ATOM      8  O   UNL     1      62.641  66.587  72.068  0.00  0.00    +0.000 OA
ATOM      9  C   UNL     1      63.156  66.163  71.583  0.00  0.00    +0.000 C 
ATOM     10  O   UNL     1      62.880  65.512  71.158  0.00  0.00    +0.000 OA
ATOM     11  C   UNL     1      63.947  66.390  71.521  0.00  0.00    +0.000 C 
ATOM     12  C   UNL     1      64.748  66.483  71.353  0.00  0.00    +0.000 C 
ATOM     13  C   UNL     1      65.024  67.135  71.778  0.00  0.00    +0.000 C 
ATOM     14  C   UNL     1      64.393  67.444  72.209  0.00  0.00    +0.000 C 
ATOM     15  C   UNL     1      63.727  66.984  72.051  0.00  0.00    +0.000 C 
ATOM     16  C   UNL     1      64.001  65.749  71.005  0.00  0.00    +0.000 A 
ATOM     17  C   UNL     1      63.334  65.289  70.847  0.00  0.00    +0.000 A 
ATOM     18  C   UNL     1      63.389  64.647  70.331  0.00  0.00    +0.000 A 
ATOM     19  C   UNL     1      64.110  64.467  69.973  0.00  0.00    +0.000 A 
ATOM     20  C   UNL     1      64.776  64.927  70.131  0.00  0.00    +0.000 A 
ATOM     21  C   UNL     1      64.722  65.568  70.647  0.00  0.00    +0.000 A 
ENDROOT
TORSDOF 0
ENDMDL
MODEL 9
REMARK VINA RESULT:    -9.149     24.943     25.990
REMARK INTER + INTRA:          -9.149
REMARK INTER:                  -9.149
REMARK INTRA:                   0.000
REMARK UNBOUND:                 0.000
ROOT
REMARK  Name = caramiphen
REMARK                            x       y       z     vdW  Elec       q    Type
REMARK                         _______ _______ _______ _____ _____    ______ ____
ATOM      1  C   UNL     1      69.384  81.340  53.901  0.00  0.00    +0.000 C 
ATOM      2  C   UNL     1      69.383  80.813  53.267  0.00  0.00    +0.000 C 
ATOM      3  N   UNL     1      69.961  80.870  52.681  0.00  0.00    +0.000 NA
ATOM      4  C   UNL     1      70.540  81.455  52.729  0.00  0.00    +0.000 C 
ATOM      5  C   UNL     1      71.119  81.512  52.143  0.00  0.00    +0.000 C 
ATOM      6  C   UNL     1      69.960  80.342  52.047  0.00  0.00    +0.000 C 
ATOM      7  C   UNL     1      70.537  80.399  51.461  0.00  0.00    +0.000 C 
ATOM      8  O   UNL     1      70.536  79.871  50.827  0.00  0.00    +0.000 OA
ATOM      9  C   UNL     1      71.113  79.928  50.242  0.00  0.00    +0.000 C 
ATOM     10  O   UNL     1      71.693  80.513  50.290  0.00  0.00    +0.000 OA
ATOM     11  C   UNL     1      71.112  79.400  49.607  0.00  0.00    +0.000 C 
ATOM     12  C   UNL     1      71.249  78.961  48.923  0.00  0.00    +0.000 C 
ATOM     13  C   UNL     1      70.670  78.376  48.875  0.00  0.00    +0.000 C 
ATOM     14  C   UNL     1      70.174  78.453  49.529  0.00  0.00    +0.000 C 
ATOM     15  C   UNL     1      70.447  79.086  49.982  0.00  0.00    +0.000 C 
ATOM     16  C   UNL     1      71.777  79.825  49.365  0.00  0.00    +0.000 A 
ATOM     17  C   UNL     1      72.050  80.457  49.818  0.00  0.00    +0.000 A 
ATOM     18  C   UNL     1      72.716  80.882  49.575  0.00  0.00    +0.000 A 
ATOM     19  C   UNL     1      73.107  80.672  48.880  0.00  0.00    +0.000 A 
ATOM     20  C   UNL     1      72.833  80.039  48.427  0.00  0.00    +0.000 A 
ATOM     21  C   UNL     1      72.169  79.615  48.669  0.00  0.00    +0.000 A 
ENDROOT
TORSDOF 0
ENDMDL
