MODEL 1
REMARK VINA RESULT:   -12.403      0.000      0.000
REMARK INTER + INTRA:         -12.403
REMARK INTER:                 -12.403
REMARK INTRA:                   0.000
REMARK UNBOUND:                 0.000
ROOT
REMARK  Name = carbocromen
REMARK                            x       y       z     vdW  Elec       q    Type
REMARK                         _______ _______ _______ _____ _____    ______ ____
ATOM      1  C   UNL     1      62.427  62.240  63.946  0.00  0.00    +0.000 C 
ATOM      2  C   UNL     1      62.236  61.868  64.658  0.00  0.00    +0.000 C 
ATOM      3  O   UNL     1      61.957  62.311  65.294  0.00  0.00    +0.000 OA
ATOM      4  C   UNL     1      61.767  61.939  66.005  0.00  0.00    +0.000 C 
ATOM      5  O   UNL     1      61.856  61.122  66.080  0.00  0.00    +0.000 OA
ATOM      6  C   UNL     1      61.488  62.383  66.642  0.00  0.00    +0.000 C 
ATOM      7  O   UNL     1      61.297  62.011  67.353  0.00  0.00    +0.000 OA
ATOM      8  C   UNL     1      61.018  62.454  67.989  0.00  0.00    +0.000 A 
ATOM      9  C   UNL     1      60.828  62.082  68.701  0.00  0.00    +0.000 A 
ATOM     10  C   UNL     1      60.549  62.525  69.337  0.00  0.00    +0.000 A 
ATOM     11  C   UNL     1      60.459  63.343  69.263  0.00  0.00    +0.000 A 
ATOM     12  C   UNL     1      60.180  63.787  69.899  0.00  0.00    +0.000 A 
ATOM     13  C   UNL     1      59.990  63.415  70.611  0.00  0.00    +0.000 C 
ATOM     14  C   UNL     1      60.091  64.604  69.825  0.00  0.00    +0.000 A 
ATOM     15  C   UNL     1      59.811  65.047  70.462  0.00  0.00    +0.000 C 
ATOM     16  C   UNL     1      59.722  65.864  70.388  0.00  0.00    +0.000 C 
ATOM     17  N   UNL     1      59.442  66.309  71.025  0.00  0.00    +0.000 NA
ATOM     18  C   UNL     1      59.353  67.125  70.951  0.00  0.00    +0.000 C 
ATOM     19  C   UNL     1      59.074  67.570  71.587  0.00  0.00    +0.000 C 
ATOM     20  C   UNL     1      59.253  65.935  71.735  0.00  0.00    +0.000 C 
ATOM     21  C   UNL     1      58.973  66.380  72.372  0.00  0.00    +0.000 C 
ATOM     22  C   UNL     1      60.281  64.976  69.114  0.00  0.00    +0.000 A 
ATOM     23  O   UNL     1      60.192  65.793  69.040  0.00  0.00    +0.000 OA
ATOM     24  O   UNL     1      60.560  64.532  68.478  0.00  0.00    +0.000 OA
ATOM     25  C   UNL     1      60.649  63.716  68.552  0.00  0.00    +0.000 A 
ATOM     26  C   UNL     1      60.929  63.272  67.915  0.00  0.00    +0.000 A 
ENDROOT
TORSDOF 0
ENDMDL
MODEL 2
REMARK VINA RESULT:   -12.222      2.290      5.778
REMARK INTER + INTRA:         -12.222
REMARK INTER:                 -12.222
REMARK INTRA:                   0.000
REMARK UNBOUND:                 0.000
ROOT
REMARK  Name = carbocromen
REMARK                            x       y       z     vdW  Elec       q    Type
REMARK                         _______ _______ _______ _____ _____    ______ ____
ATOM      1  C   UNL     1      62.467  66.494  73.022  0.00  0.00    +0.000 C 
ATOM      2  C   UNL     1      61.986  65.831  72.928  0.00  0.00    +0.000 C 
ATOM      3  O   UNL     1      61.938  65.456  72.195  0.00  0.00    +0.000 OA
ATOM      4  C   UNL     1      61.456  64.793  72.101  0.00  0.00    +0.000 C 
ATOM      5  O   UNL     1      61.022  64.505  72.741  0.00  0.00    +0.000 OA
ATOM      6  C   UNL     1      61.408  64.418  71.368  0.00  0.00    +0.000 C 
ATOM      7  O   UNL     1      60.926  63.755  71.274  0.00  0.00    +0.000 OA
ATOM      8  C   UNL     1      60.878  63.380  70.541  0.00  0.00    +0.000 A 
ATOM      9  C   UNL     1      60.397  62.717  70.447  0.00  0.00    +0.000 A 
ATOM     10  C   UNL     1      60.349  62.342  69.714  0.00  0.00    +0.000 A 
ATOM     11  C   UNL     1      60.783  62.631  69.074  0.00  0.00    +0.000 A 
ATOM     12  C   UNL     1      60.735  62.256  68.341  0.00  0.00    +0.000 A 
ATOM     13  C   UNL     1      60.253  61.593  68.247  0.00  0.00    +0.000 C 
ATOM     14  C   UNL     1      61.169  62.545  67.701  0.00  0.00    +0.000 A 
ATOM     15  C   UNL     1      61.121  62.169  66.968  0.00  0.00    +0.000 C 
ATOM     16  C   UNL     1      61.554  62.458  66.328  0.00  0.00    +0.000 C 
ATOM     17  N   UNL     1      61.507  62.082  65.594  0.00  0.00    +0.000 NA
ATOM     18  C   UNL     1      61.940  62.371  64.955  0.00  0.00    +0.000 C 
ATOM     19  C   UNL     1      61.893  61.996  64.221  0.00  0.00    +0.000 C 
ATOM     20  C   UNL     1      61.025  61.419  65.501  0.00  0.00    +0.000 C 
ATOM     21  C   UNL     1      60.977  61.045  64.768  0.00  0.00    +0.000 C 
ATOM     22  C   UNL     1      61.650  63.207  67.795  0.00  0.00    +0.000 A 
ATOM     23  O   UNL     1      62.084  63.496  67.155  0.00  0.00    +0.000 OA
ATOM     24  O   UNL     1      61.698  63.582  68.528  0.00  0.00    +0.000 OA
ATOM     25  C   UNL     1      61.264  63.294  69.168  0.00  0.00    +0.000 A 
ATOM     26  C   UNL     1      61.313  63.669  69.901  0.00  0.00    +0.000 A 
ENDROOT
TORSDOF 0
ENDMDL
MODEL 3
REMARK VINA RESULT:   -12.200      1.928      5.836
REMARK INTER + INTRA:         -12.200
REMARK INTER:                 -12.200
REMARK INTRA:                   0.000
REMARK UNBOUND:                 0.000
ROOT
REMARK  Name = carbocromen
REMARK                            x       y       z     vdW  Elec       q    Type
REMARK                         _______ _______ _______ _____ _____    ______ ____
ATOM      1  C   UNL     1      58.873  67.303  73.122  0.00  0.00    +0.000 C 
ATOM      2  C   UNL     1      58.998  66.488  73.152  0.00  0.00    +0.000 C 
ATOM      3  O   UNL     1      59.249  66.083  72.479  0.00  0.00    +0.000 OA
ATOM      4  C   UNL     1      59.374  65.268  72.510  0.00  0.00    +0.000 C 
ATOM      5  O   UNL     1      59.248  64.858  73.214  0.00  0.00    +0.000 OA
ATOM      6  C   UNL     1      59.624  64.863  71.837  0.00  0.00    +0.000 C 
ATOM      7  O   UNL     1      59.749  64.048  71.867  0.00  0.00    +0.000 OA
ATOM      8  C   UNL     1      60.000  63.643  71.194  0.00  0.00    +0.000 A 
ATOM      9  C   UNL     1      60.125  62.828  71.225  0.00  0.00    +0.000 A 
ATOM     10  C   UNL     1      60.375  62.423  70.552  0.00  0.00    +0.000 A 
ATOM     11  C   UNL     1      60.501  62.834  69.846  0.00  0.00    +0.000 A 
ATOM     12  C   UNL     1      60.752  62.429  69.173  0.00  0.00    +0.000 A 
ATOM     13  C   UNL     1      60.877  61.614  69.203  0.00  0.00    +0.000 C 
ATOM     14  C   UNL     1      60.878  62.839  68.468  0.00  0.00    +0.000 A 
ATOM     15  C   UNL     1      61.129  62.433  67.795  0.00  0.00    +0.000 C 
ATOM     16  C   UNL     1      61.255  62.843  67.090  0.00  0.00    +0.000 C 
ATOM     17  N   UNL     1      61.506  62.438  66.416  0.00  0.00    +0.000 NA
ATOM     18  C   UNL     1      61.631  62.848  65.711  0.00  0.00    +0.000 C 
ATOM     19  C   UNL     1      61.882  62.443  65.037  0.00  0.00    +0.000 C 
ATOM     20  C   UNL     1      61.630  61.623  66.448  0.00  0.00    +0.000 C 
ATOM     21  C   UNL     1      61.881  61.219  65.774  0.00  0.00    +0.000 C 
ATOM     22  C   UNL     1      60.753  63.653  68.437  0.00  0.00    +0.000 A 
ATOM     23  O   UNL     1      60.879  64.063  67.732  0.00  0.00    +0.000 OA
ATOM     24  O   UNL     1      60.503  64.058  69.110  0.00  0.00    +0.000 OA
ATOM     25  C   UNL     1      60.377  63.648  69.815  0.00  0.00    +0.000 A 
ATOM     26  C   UNL     1      60.126  64.053  70.488  0.00  0.00    +0.000 A 
ENDROOT
TORSDOF 0
ENDMDL
MODEL 4
REMARK VINA RESULT:   -11.528      3.579      3.939
REMARK INTER + INTRA:         -11.528
REMARK INTER:                 -11.528
REMARK INTRA:                   0.000
REMARK UNBOUND:                 0.000
ROOT
REMARK  Name = carbocromen
REMARK                            x       y       z     vdW  Elec       q    Type
REMARK                         _______ _______ _______ _____ _____    ______ ____
ATOM      1  C   UNL     1      59.768  61.997  65.736  0.00  0.00    +0.000 C 
ATOM      2  C   UNL     1      59.771  61.986  66.561  0.00  0.00    +0.000 C 
ATOM      3  O   UNL     1      60.322  62.433  66.979  0.00  0.00    +0.000 OA
ATOM      4  C   UNL     1      60.325  62.422  67.804  0.00  0.00    +0.000 C 
ATOM      5  O   UNL     1      59.774  61.962  68.211  0.00  0.00    +0.000 OA
ATOM      6  C   UNL     1      60.877  62.870  68.221  0.00  0.00    +0.000 C 
ATOM      7  O   UNL     1      60.879  62.858  69.046  0.00  0.00    +0.000 OA
ATOM      8  C   UNL     1      61.431  63.306  69.464  0.00  0.00    +0.000 A 
ATOM      9  C   UNL     1      61.433  63.295  70.289  0.00  0.00    +0.000 A 
ATOM     10  C   UNL     1      61.985  63.743  70.707  0.00  0.00    +0.000 A 
ATOM     11  C   UNL     1      62.536  64.203  70.299  0.00  0.00    +0.000 A 
ATOM     12  C   UNL     1      63.088  64.651  70.717  0.00  0.00    +0.000 A 
ATOM     13  C   UNL     1      63.090  64.640  71.542  0.00  0.00    +0.000 C 
ATOM     14  C   UNL     1      63.639  65.111  70.310  0.00  0.00    +0.000 A 
ATOM     15  C   UNL     1      64.191  65.560  70.728  0.00  0.00    +0.000 C 
ATOM     16  C   UNL     1      64.741  66.020  70.321  0.00  0.00    +0.000 C 
ATOM     17  N   UNL     1      65.294  66.469  70.739  0.00  0.00    +0.000 NA
ATOM     18  C   UNL     1      65.845  66.929  70.332  0.00  0.00    +0.000 C 
ATOM     19  C   UNL     1      66.397  67.377  70.749  0.00  0.00    +0.000 C 
ATOM     20  C   UNL     1      65.296  66.456  71.564  0.00  0.00    +0.000 C 
ATOM     21  C   UNL     1      65.848  66.905  71.981  0.00  0.00    +0.000 C 
ATOM     22  C   UNL     1      63.637  65.123  69.485  0.00  0.00    +0.000 A 
ATOM     23  O   UNL     1      64.187  65.583  69.078  0.00  0.00    +0.000 OA
ATOM     24  O   UNL     1      63.085  64.675  69.068  0.00  0.00    +0.000 OA
ATOM     25  C   UNL     1      62.534  64.215  69.475  0.00  0.00    +0.000 A 
ATOM     26  C   UNL     1      61.982  63.767  69.056  0.00  0.00    +0.000 A 
ENDROOT
TORSDOF 0
ENDMDL
MODEL 5
REMARK VINA RESULT:    -9.406     13.829     16.044
REMARK INTER + INTRA:          -9.406
REMARK INTER:                  -9.406
REMARK INTRA:                   0.000
REMARK UNBOUND:                 0.000
ROOT
REMARK  Name = carbocromen
REMARK                            x       y       z     vdW  Elec       q    Type
REMARK                         _______ _______ _______ _____ _____    ______ ____
ATOM      1  C   UNL     1      63.081  68.103  56.427  0.00  0.00    +0.000 C 
ATOM      2  C   UNL     1      62.615  67.825  55.806  0.00  0.00    +0.000 C 
ATOM      3  O   UNL     1      62.687  67.043  55.553  0.00  0.00    +0.000 OA
ATOM      4  C   UNL     1      62.220  66.765  54.932  0.00  0.00    +0.000 C 
ATOM      5  O   UNL     1      61.681  67.269  54.563  0.00  0.00    +0.000 OA
ATOM      6  C   UNL     1      62.292  65.984  54.679  0.00  0.00    +0.000 C 
ATOM      7  O   UNL     1      61.826  65.705  54.058  0.00  0.00    +0.000 OA
ATOM      8  C   UNL     1      61.898  64.924  53.805  0.00  0.00    +0.000 A 
ATOM      9  C   UNL     1      61.431  64.646  53.184  0.00  0.00    +0.000 A 
ATOM     10  C   UNL     1      61.504  63.864  52.931  0.00  0.00    +0.000 A 
ATOM     11  C   UNL     1      62.043  63.359  53.300  0.00  0.00    +0.000 A 
ATOM     12  C   UNL     1      62.115  62.578  53.047  0.00  0.00    +0.000 A 
ATOM     13  C   UNL     1      61.649  62.300  52.426  0.00  0.00    +0.000 C 
ATOM     14  C   UNL     1      62.654  62.073  53.416  0.00  0.00    +0.000 A 
ATOM     15  C   UNL     1      62.726  61.291  53.163  0.00  0.00    +0.000 C 
ATOM     16  C   UNL     1      63.265  60.787  53.531  0.00  0.00    +0.000 C 
ATOM     17  N   UNL     1      63.337  60.004  53.278  0.00  0.00    +0.000 NA
ATOM     18  C   UNL     1      63.876  59.500  53.647  0.00  0.00    +0.000 C 
ATOM     19  C   UNL     1      63.949  58.718  53.394  0.00  0.00    +0.000 C 
ATOM     20  C   UNL     1      62.870  59.727  52.657  0.00  0.00    +0.000 C 
ATOM     21  C   UNL     1      62.943  58.945  52.405  0.00  0.00    +0.000 C 
ATOM     22  C   UNL     1      63.120  62.351  54.036  0.00  0.00    +0.000 A 
ATOM     23  O   UNL     1      63.659  61.847  54.405  0.00  0.00    +0.000 OA
ATOM     24  O   UNL     1      63.048  63.132  54.289  0.00  0.00    +0.000 OA
ATOM     25  C   UNL     1      62.509  63.637  53.921  0.00  0.00    +0.000 A 
ATOM     26  C   UNL     1      62.437  64.419  54.174  0.00  0.00    +0.000 A 
ENDROOT
TORSDOF 0
ENDMDL
