MODEL 1
REMARK VINA RESULT:   -10.938      0.000      0.000
REMARK INTER + INTRA:         -10.938
REMARK INTER:                 -10.938
REMARK INTRA:                   0.000
REMARK UNBOUND:                 0.000
ROOT
REMARK  Name = carbinoxamine
REMARK                            x       y       z     vdW  Elec       q    Type
REMARK                         _______ _______ _______ _____ _____    ______ ____
ATOM      1  C   UNL     1      62.159  64.129  69.329  0.00  0.00    +0.000 C 
ATOM      2  N   UNL     1      61.671  63.750  68.782  0.00  0.00    +0.000 NA
ATOM      3  C   UNL     1      60.873  63.626  68.958  0.00  0.00    +0.000 C 
ATOM      4  C   UNL     1      61.978  63.496  68.061  0.00  0.00    +0.000 C 
ATOM      5  C   UNL     1      61.490  63.117  67.515  0.00  0.00    +0.000 C 
ATOM      6  O   UNL     1      61.797  62.862  66.793  0.00  0.00    +0.000 OA
ATOM      7  C   UNL     1      61.309  62.483  66.247  0.00  0.00    +0.000 C 
ATOM      8  C   UNL     1      61.617  62.228  65.525  0.00  0.00    +0.000 A 
ATOM      9  C   UNL     1      61.128  61.850  64.979  0.00  0.00    +0.000 A 
ATOM     10  C   UNL     1      61.436  61.594  64.257  0.00  0.00    +0.000 A 
ATOM     11  C   UNL     1      62.232  61.718  64.082  0.00  0.00    +0.000 A 
ATOM     12 CL   UNL     1      62.540  61.464  63.360  0.00  0.00    +0.000 Cl
ATOM     13  C   UNL     1      62.721  62.097  64.628  0.00  0.00    +0.000 A 
ATOM     14  C   UNL     1      62.413  62.352  65.350  0.00  0.00    +0.000 A 
ATOM     15  C   UNL     1      60.512  62.359  66.422  0.00  0.00    +0.000 A 
ATOM     16  C   UNL     1      60.204  62.614  67.144  0.00  0.00    +0.000 A 
ATOM     17  C   UNL     1      59.408  62.490  67.320  0.00  0.00    +0.000 A 
ATOM     18  C   UNL     1      58.919  62.111  66.773  0.00  0.00    +0.000 A 
ATOM     19  C   UNL     1      59.227  61.856  66.052  0.00  0.00    +0.000 A 
ATOM     20  N   UNL     1      60.023  61.980  65.876  0.00  0.00    +0.000 NA
ENDROOT
TORSDOF 0
ENDMDL
MODEL 2
REMARK VINA RESULT:    -9.674      2.092      3.202
REMARK INTER + INTRA:          -9.674
REMARK INTER:                  -9.674
REMARK INTRA:                   0.000
REMARK UNBOUND:                 0.000
ROOT
REMARK  Name = carbinoxamine
REMARK                            x       y       z     vdW  Elec       q    Type
REMARK                         _______ _______ _______ _____ _____    ______ ____
ATOM      1  C   UNL     1      63.732  65.318  70.091  0.00  0.00    +0.000 C 
ATOM      2  N   UNL     1      63.160  64.723  70.121  0.00  0.00    +0.000 NA
ATOM      3  C   UNL     1      62.980  64.362  70.842  0.00  0.00    +0.000 C 
ATOM      4  C   UNL     1      62.770  64.490  69.434  0.00  0.00    +0.000 C 
ATOM      5  C   UNL     1      62.200  63.896  69.465  0.00  0.00    +0.000 C 
ATOM      6  O   UNL     1      61.809  63.661  68.777  0.00  0.00    +0.000 OA
ATOM      7  C   UNL     1      61.237  63.067  68.808  0.00  0.00    +0.000 C 
ATOM      8  C   UNL     1      60.847  62.833  68.120  0.00  0.00    +0.000 A 
ATOM      9  C   UNL     1      60.277  62.239  68.151  0.00  0.00    +0.000 A 
ATOM     10  C   UNL     1      59.886  62.005  67.463  0.00  0.00    +0.000 A 
ATOM     11  C   UNL     1      60.066  62.366  66.744  0.00  0.00    +0.000 A 
ATOM     12 CL   UNL     1      59.676  62.133  66.056  0.00  0.00    +0.000 Cl
ATOM     13  C   UNL     1      60.637  62.961  66.712  0.00  0.00    +0.000 A 
ATOM     14  C   UNL     1      61.028  63.194  67.401  0.00  0.00    +0.000 A 
ATOM     15  C   UNL     1      61.057  62.705  69.528  0.00  0.00    +0.000 A 
ATOM     16  C   UNL     1      61.448  62.939  70.216  0.00  0.00    +0.000 A 
ATOM     17  C   UNL     1      61.267  62.578  70.936  0.00  0.00    +0.000 A 
ATOM     18  C   UNL     1      60.696  61.983  70.967  0.00  0.00    +0.000 A 
ATOM     19  C   UNL     1      60.306  61.750  70.279  0.00  0.00    +0.000 A 
ATOM     20  N   UNL     1      60.486  62.111  69.559  0.00  0.00    +0.000 NA
ENDROOT
TORSDOF 0
ENDMDL
MODEL 3
REMARK VINA RESULT:    -9.358      2.566      4.880
REMARK INTER + INTRA:          -9.358
REMARK INTER:                  -9.358
REMARK INTRA:                   0.000
REMARK UNBOUND:                 0.000
ROOT
REMARK  Name = carbinoxamine
REMARK                            x       y       z     vdW  Elec       q    Type
REMARK                         _______ _______ _______ _____ _____    ______ ____
ATOM      1  C   UNL     1      61.257  62.728  66.138  0.00  0.00    +0.000 C 
ATOM      2  N   UNL     1      61.188  62.694  66.960  0.00  0.00    +0.000 NA
ATOM      3  C   UNL     1      60.687  62.138  67.309  0.00  0.00    +0.000 C 
ATOM      4  C   UNL     1      61.618  63.215  67.432  0.00  0.00    +0.000 C 
ATOM      5  C   UNL     1      61.548  63.181  68.253  0.00  0.00    +0.000 C 
ATOM      6  O   UNL     1      61.978  63.702  68.727  0.00  0.00    +0.000 OA
ATOM      7  C   UNL     1      61.909  63.668  69.548  0.00  0.00    +0.000 C 
ATOM      8  C   UNL     1      62.339  64.189  70.021  0.00  0.00    +0.000 A 
ATOM      9  C   UNL     1      62.269  64.155  70.841  0.00  0.00    +0.000 A 
ATOM     10  C   UNL     1      62.700  64.676  71.315  0.00  0.00    +0.000 A 
ATOM     11  C   UNL     1      63.200  65.231  70.967  0.00  0.00    +0.000 A 
ATOM     12 CL   UNL     1      63.631  65.753  71.439  0.00  0.00    +0.000 Cl
ATOM     13  C   UNL     1      63.270  65.266  70.145  0.00  0.00    +0.000 A 
ATOM     14  C   UNL     1      62.839  64.745  69.672  0.00  0.00    +0.000 A 
ATOM     15  C   UNL     1      61.408  63.112  69.897  0.00  0.00    +0.000 A 
ATOM     16  C   UNL     1      60.978  62.591  69.424  0.00  0.00    +0.000 A 
ATOM     17  C   UNL     1      60.477  62.035  69.772  0.00  0.00    +0.000 A 
ATOM     18  C   UNL     1      60.407  62.000  70.594  0.00  0.00    +0.000 A 
ATOM     19  C   UNL     1      60.838  62.522  71.066  0.00  0.00    +0.000 A 
ATOM     20  N   UNL     1      61.338  63.077  70.718  0.00  0.00    +0.000 NA
ENDROOT
TORSDOF 0
ENDMDL
MODEL 4
REMARK VINA RESULT:    -9.353      4.049      6.734
REMARK INTER + INTRA:          -9.353
REMARK INTER:                  -9.353
REMARK INTRA:                   0.000
REMARK UNBOUND:                 0.000
ROOT
REMARK  Name = carbinoxamine
REMARK                            x       y       z     vdW  Elec       q    Type
REMARK                         _______ _______ _______ _____ _____    ______ ____
ATOM      1  C   UNL     1      61.670  63.509  68.861  0.00  0.00    +0.000 C 
ATOM      2  N   UNL     1      61.895  63.987  69.495  0.00  0.00    +0.000 NA
ATOM      3  C   UNL     1      61.439  64.000  70.184  0.00  0.00    +0.000 C 
ATOM      4  C   UNL     1      62.576  64.449  69.442  0.00  0.00    +0.000 C 
ATOM      5  C   UNL     1      62.801  64.926  70.076  0.00  0.00    +0.000 C 
ATOM      6  O   UNL     1      63.482  65.389  70.024  0.00  0.00    +0.000 OA
ATOM      7  C   UNL     1      63.707  65.866  70.658  0.00  0.00    +0.000 C 
ATOM      8  C   UNL     1      64.387  66.329  70.605  0.00  0.00    +0.000 A 
ATOM      9  C   UNL     1      64.613  66.806  71.239  0.00  0.00    +0.000 A 
ATOM     10  C   UNL     1      65.293  67.269  71.186  0.00  0.00    +0.000 A 
ATOM     11  C   UNL     1      65.749  67.255  70.499  0.00  0.00    +0.000 A 
ATOM     12 CL   UNL     1      66.430  67.718  70.445  0.00  0.00    +0.000 Cl
ATOM     13  C   UNL     1      65.524  66.778  69.864  0.00  0.00    +0.000 A 
ATOM     14  C   UNL     1      64.843  66.315  69.917  0.00  0.00    +0.000 A 
ATOM     15  C   UNL     1      63.251  65.880  71.347  0.00  0.00    +0.000 A 
ATOM     16  C   UNL     1      62.570  65.417  71.399  0.00  0.00    +0.000 A 
ATOM     17  C   UNL     1      62.115  65.430  72.087  0.00  0.00    +0.000 A 
ATOM     18  C   UNL     1      62.340  65.908  72.722  0.00  0.00    +0.000 A 
ATOM     19  C   UNL     1      63.021  66.370  72.668  0.00  0.00    +0.000 A 
ATOM     20  N   UNL     1      63.476  66.357  71.980  0.00  0.00    +0.000 NA
ENDROOT
TORSDOF 0
ENDMDL
MODEL 5
REMARK VINA RESULT:    -9.274      3.145      4.802
REMARK INTER + INTRA:          -9.274
REMARK INTER:                  -9.274
REMARK INTRA:                   0.000
REMARK UNBOUND:                 0.000
ROOT
REMARK  Name = carbinoxamine
REMARK                            x       y       z     vdW  Elec       q    Type
REMARK                         _______ _______ _______ _____ _____    ______ ____
ATOM      1  C   UNL     1      59.420  66.373  72.275  0.00  0.00    +0.000 C 
ATOM      2  N   UNL     1      59.772  65.634  72.168  0.00  0.00    +0.000 NA
ATOM      3  C   UNL     1      60.134  65.253  72.805  0.00  0.00    +0.000 C 
ATOM      4  C   UNL     1      59.763  65.277  71.425  0.00  0.00    +0.000 C 
ATOM      5  C   UNL     1      60.115  64.539  71.319  0.00  0.00    +0.000 C 
ATOM      6  O   UNL     1      60.106  64.180  70.575  0.00  0.00    +0.000 OA
ATOM      7  C   UNL     1      60.458  63.442  70.468  0.00  0.00    +0.000 C 
ATOM      8  C   UNL     1      60.448  63.084  69.725  0.00  0.00    +0.000 A 
ATOM      9  C   UNL     1      60.800  62.346  69.618  0.00  0.00    +0.000 A 
ATOM     10  C   UNL     1      60.791  61.987  68.875  0.00  0.00    +0.000 A 
ATOM     11  C   UNL     1      60.430  62.368  68.239  0.00  0.00    +0.000 A 
ATOM     12 CL   UNL     1      60.420  62.011  67.495  0.00  0.00    +0.000 Cl
ATOM     13  C   UNL     1      60.077  63.107  68.345  0.00  0.00    +0.000 A 
ATOM     14  C   UNL     1      60.087  63.464  69.089  0.00  0.00    +0.000 A 
ATOM     15  C   UNL     1      60.819  63.060  71.105  0.00  0.00    +0.000 A 
ATOM     16  C   UNL     1      60.828  63.419  71.848  0.00  0.00    +0.000 A 
ATOM     17  C   UNL     1      61.189  63.038  72.485  0.00  0.00    +0.000 A 
ATOM     18  C   UNL     1      61.542  62.299  72.378  0.00  0.00    +0.000 A 
ATOM     19  C   UNL     1      61.532  61.942  71.635  0.00  0.00    +0.000 A 
ATOM     20  N   UNL     1      61.171  62.322  70.998  0.00  0.00    +0.000 NA
ENDROOT
TORSDOF 0
ENDMDL
MODEL 6
REMARK VINA RESULT:    -8.970      6.898      7.907
REMARK INTER + INTRA:          -8.970
REMARK INTER:                  -8.970
REMARK INTRA:                   0.000
REMARK UNBOUND:                 0.000
ROOT
REMARK  Name = carbinoxamine
REMARK                            x       y       z     vdW  Elec       q    Type
REMARK                         _______ _______ _______ _____ _____    ______ ____
ATOM      1  C   UNL     1      57.473  66.755  73.222  0.00  0.00    +0.000 C 
ATOM      2  N   UNL     1      58.183  66.353  73.099  0.00  0.00    +0.000 NA
ATOM      3  C   UNL     1      58.186  65.530  73.037  0.00  0.00    +0.000 C 
ATOM      4  C   UNL     1      58.890  66.773  73.038  0.00  0.00    +0.000 C 
ATOM      5  C   UNL     1      59.599  66.371  72.915  0.00  0.00    +0.000 C 
ATOM      6  O   UNL     1      60.307  66.790  72.854  0.00  0.00    +0.000 OA
ATOM      7  C   UNL     1      61.017  66.388  72.731  0.00  0.00    +0.000 C 
ATOM      8  C   UNL     1      61.724  66.808  72.670  0.00  0.00    +0.000 A 
ATOM      9  C   UNL     1      62.433  66.406  72.547  0.00  0.00    +0.000 A 
ATOM     10  C   UNL     1      63.141  66.825  72.485  0.00  0.00    +0.000 A 
ATOM     11  C   UNL     1      63.139  67.648  72.547  0.00  0.00    +0.000 A 
ATOM     12 CL   UNL     1      63.846  68.068  72.486  0.00  0.00    +0.000 Cl
ATOM     13  C   UNL     1      62.429  68.051  72.670  0.00  0.00    +0.000 A 
ATOM     14  C   UNL     1      61.722  67.630  72.731  0.00  0.00    +0.000 A 
ATOM     15  C   UNL     1      61.019  65.564  72.669  0.00  0.00    +0.000 A 
ATOM     16  C   UNL     1      60.312  65.145  72.730  0.00  0.00    +0.000 A 
ATOM     17  C   UNL     1      60.314  64.322  72.668  0.00  0.00    +0.000 A 
ATOM     18  C   UNL     1      61.024  63.919  72.545  0.00  0.00    +0.000 A 
ATOM     19  C   UNL     1      61.731  64.340  72.484  0.00  0.00    +0.000 A 
ATOM     20  N   UNL     1      61.728  65.162  72.546  0.00  0.00    +0.000 NA
ENDROOT
TORSDOF 0
ENDMDL
MODEL 7
REMARK VINA RESULT:    -8.933      5.404      6.046
REMARK INTER + INTRA:          -8.933
REMARK INTER:                  -8.933
REMARK INTRA:                   0.000
REMARK UNBOUND:                 0.000
ROOT
REMARK  Name = carbinoxamine
REMARK                            x       y       z     vdW  Elec       q    Type
REMARK                         _______ _______ _______ _____ _____    ______ ____
ATOM      1  C   UNL     1      59.530  66.830  73.222  0.00  0.00    +0.000 C 
ATOM      2  N   UNL     1      59.931  66.155  72.968  0.00  0.00    +0.000 NA
ATOM      3  C   UNL     1      59.673  65.407  73.207  0.00  0.00    +0.000 C 
ATOM      4  C   UNL     1      60.588  66.226  72.476  0.00  0.00    +0.000 C 
ATOM      5  C   UNL     1      60.989  65.552  72.222  0.00  0.00    +0.000 C 
ATOM      6  O   UNL     1      61.647  65.623  71.729  0.00  0.00    +0.000 OA
ATOM      7  C   UNL     1      62.048  64.948  71.474  0.00  0.00    +0.000 C 
ATOM      8  C   UNL     1      62.705  65.019  70.982  0.00  0.00    +0.000 A 
ATOM      9  C   UNL     1      63.105  64.345  70.728  0.00  0.00    +0.000 A 
ATOM     10  C   UNL     1      63.763  64.415  70.235  0.00  0.00    +0.000 A 
ATOM     11  C   UNL     1      64.021  65.162  69.997  0.00  0.00    +0.000 A 
ATOM     12 CL   UNL     1      64.678  65.234  69.504  0.00  0.00    +0.000 Cl
ATOM     13  C   UNL     1      63.620  65.838  70.251  0.00  0.00    +0.000 A 
ATOM     14  C   UNL     1      62.962  65.766  70.743  0.00  0.00    +0.000 A 
ATOM     15  C   UNL     1      61.790  64.200  71.714  0.00  0.00    +0.000 A 
ATOM     16  C   UNL     1      61.132  64.129  72.206  0.00  0.00    +0.000 A 
ATOM     17  C   UNL     1      60.875  63.383  72.445  0.00  0.00    +0.000 A 
ATOM     18  C   UNL     1      61.275  62.707  72.191  0.00  0.00    +0.000 A 
ATOM     19  C   UNL     1      61.933  62.779  71.698  0.00  0.00    +0.000 A 
ATOM     20  N   UNL     1      62.190  63.526  71.460  0.00  0.00    +0.000 NA
ENDROOT
TORSDOF 0
ENDMDL
MODEL 8
REMARK VINA RESULT:    -8.891      6.163      7.337
REMARK INTER + INTRA:          -8.891
REMARK INTER:                  -8.891
REMARK INTRA:                   0.000
REMARK UNBOUND:                 0.000
ROOT
REMARK  Name = carbinoxamine
REMARK                            x       y       z     vdW  Elec       q    Type
REMARK                         _______ _______ _______ _____ _____    ______ ____
ATOM      1  C   UNL     1      65.773  66.845  71.137  0.00  0.00    +0.000 C 
ATOM      2  N   UNL     1      65.018  66.879  71.468  0.00  0.00    +0.000 NA
ATOM      3  C   UNL     1      64.747  67.583  71.806  0.00  0.00    +0.000 C 
ATOM      4  C   UNL     1      64.534  66.212  71.462  0.00  0.00    +0.000 C 
ATOM      5  C   UNL     1      63.780  66.247  71.793  0.00  0.00    +0.000 C 
ATOM      6  O   UNL     1      63.294  65.580  71.787  0.00  0.00    +0.000 OA
ATOM      7  C   UNL     1      62.539  65.614  72.118  0.00  0.00    +0.000 C 
ATOM      8  C   UNL     1      62.055  64.947  72.111  0.00  0.00    +0.000 A 
ATOM      9  C   UNL     1      61.301  64.982  72.442  0.00  0.00    +0.000 A 
ATOM     10  C   UNL     1      60.815  64.314  72.436  0.00  0.00    +0.000 A 
ATOM     11  C   UNL     1      61.086  63.611  72.099  0.00  0.00    +0.000 A 
ATOM     12 CL   UNL     1      60.602  62.943  72.092  0.00  0.00    +0.000 Cl
ATOM     13  C   UNL     1      61.841  63.576  71.767  0.00  0.00    +0.000 A 
ATOM     14  C   UNL     1      62.325  64.244  71.774  0.00  0.00    +0.000 A 
ATOM     15  C   UNL     1      62.269  66.317  72.455  0.00  0.00    +0.000 A 
ATOM     16  C   UNL     1      62.754  66.985  72.461  0.00  0.00    +0.000 A 
ATOM     17  C   UNL     1      62.483  67.688  72.799  0.00  0.00    +0.000 A 
ATOM     18  C   UNL     1      61.728  67.723  73.130  0.00  0.00    +0.000 A 
ATOM     19  C   UNL     1      61.244  67.055  73.124  0.00  0.00    +0.000 A 
ATOM     20  N   UNL     1      61.514  66.352  72.786  0.00  0.00    +0.000 NA
ENDROOT
TORSDOF 0
ENDMDL
MODEL 9
REMARK VINA RESULT:    -8.768      4.804      5.847
REMARK INTER + INTRA:          -8.768
REMARK INTER:                  -8.768
REMARK INTRA:                   0.000
REMARK UNBOUND:                 0.000
ROOT
REMARK  Name = carbinoxamine
REMARK                            x       y       z     vdW  Elec       q    Type
REMARK                         _______ _______ _______ _____ _____    ______ ____
ATOM      1  C   UNL     1      61.945  67.643  73.051  0.00  0.00    +0.000 C 
ATOM      2  N   UNL     1      61.608  67.150  72.482  0.00  0.00    +0.000 NA
ATOM      3  C   UNL     1      61.172  67.476  71.860  0.00  0.00    +0.000 C 
ATOM      4  C   UNL     1      61.704  66.333  72.534  0.00  0.00    +0.000 C 
ATOM      5  C   UNL     1      61.367  65.841  71.965  0.00  0.00    +0.000 C 
ATOM      6  O   UNL     1      61.463  65.023  72.017  0.00  0.00    +0.000 OA
ATOM      7  C   UNL     1      61.126  64.530  71.448  0.00  0.00    +0.000 C 
ATOM      8  C   UNL     1      61.222  63.713  71.499  0.00  0.00    +0.000 A 
ATOM      9  C   UNL     1      60.885  63.221  70.931  0.00  0.00    +0.000 A 
ATOM     10  C   UNL     1      60.981  62.403  70.982  0.00  0.00    +0.000 A 
ATOM     11  C   UNL     1      61.416  62.077  71.603  0.00  0.00    +0.000 A 
ATOM     12 CL   UNL     1      61.514  61.260  71.656  0.00  0.00    +0.000 Cl
ATOM     13  C   UNL     1      61.755  62.570  72.173  0.00  0.00    +0.000 A 
ATOM     14  C   UNL     1      61.657  63.388  72.121  0.00  0.00    +0.000 A 
ATOM     15  C   UNL     1      60.690  64.855  70.826  0.00  0.00    +0.000 A 
ATOM     16  C   UNL     1      60.593  65.673  70.775  0.00  0.00    +0.000 A 
ATOM     17  C   UNL     1      60.159  65.998  70.153  0.00  0.00    +0.000 A 
ATOM     18  C   UNL     1      59.820  65.506  69.584  0.00  0.00    +0.000 A 
ATOM     19  C   UNL     1      59.918  64.688  69.636  0.00  0.00    +0.000 A 
ATOM     20  N   UNL     1      60.353  64.363  70.257  0.00  0.00    +0.000 NA
ENDROOT
TORSDOF 0
ENDMDL
