MODEL 1
REMARK VINA RESULT:   -18.757      0.000      0.000
REMARK INTER + INTRA:         -18.757
REMARK INTER:                 -18.757
REMARK INTRA:                   0.000
REMARK UNBOUND:                 0.000
ROOT
REMARK  Name = carbomycin
REMARK                            x       y       z     vdW  Elec       q    Type
REMARK                         _______ _______ _______ _____ _____    ______ ____
ATOM      1  C   UNL     1      60.541  63.433  67.954  0.00  0.00    +0.000 C 
ATOM      2  C   UNL     1      61.342  63.448  67.751  0.00  0.00    +0.000 C 
ATOM      3  C   UNL     1      61.607  63.030  67.091  0.00  0.00    +0.000 C 
ATOM      4  C   UNL     1      62.319  63.357  67.350  0.00  0.00    +0.000 C 
ATOM      5  O   UNL     1      62.120  62.726  66.521  0.00  0.00    +0.000 OA
ATOM      6  C   UNL     1      61.073  62.598  66.634  0.00  0.00    +0.000 C 
ATOM      7  O   UNL     1      61.338  62.180  65.974  0.00  0.00    +0.000 OA
ATOM      8  C   UNL     1      60.805  61.748  65.517  0.00  0.00    +0.000 C 
ATOM      9  O   UNL     1      60.005  61.733  65.720  0.00  0.00    +0.000 OA
ATOM     10  C   UNL     1      61.070  61.330  64.858  0.00  0.00    +0.000 C 
ATOM     11  C   UNL     1      60.537  60.897  64.400  0.00  0.00    +0.000 C 
ATOM     12  C   UNL     1      60.802  60.480  63.741  0.00  0.00    +0.000 C 
ATOM     13  C   UNL     1      59.737  60.883  64.604  0.00  0.00    +0.000 C 
ATOM     14  C   UNL     1      60.274  62.583  66.837  0.00  0.00    +0.000 C 
ATOM     15  C   UNL     1      59.740  62.151  66.380  0.00  0.00    +0.000 C 
ATOM     16  O   UNL     1      60.007  63.001  67.497  0.00  0.00    +0.000 OA
ATOM     17  O   UNL     1      60.276  63.851  68.614  0.00  0.00    +0.000 OA
ATOM     18  C   UNL     1      60.810  64.283  69.071  0.00  0.00    +0.000 C 
ATOM     19  C   UNL     1      61.609  64.298  68.868  0.00  0.00    +0.000 C 
ATOM     20  C   UNL     1      61.875  63.880  68.207  0.00  0.00    +0.000 C 
ATOM     21  O   UNL     1      62.143  64.730  69.324  0.00  0.00    +0.000 OA
ATOM     22  C   UNL     1      61.877  65.148  69.984  0.00  0.00    +0.000 C 
ATOM     23  O   UNL     1      62.411  65.580  70.441  0.00  0.00    +0.000 OA
ATOM     24  C   UNL     1      63.219  65.746  70.448  0.00  0.00    +0.000 C 
ATOM     25  C   UNL     1      63.149  65.260  69.785  0.00  0.00    +0.000 C 
ATOM     26  C   UNL     1      62.411  64.959  69.570  0.00  0.00    +0.000 C 
ATOM     27  C   UNL     1      62.341  64.472  68.908  0.00  0.00    +0.000 C 
ATOM     28  O   UNL     1      63.008  64.286  68.460  0.00  0.00    +0.000 OA
ATOM     29  C   UNL     1      63.817  65.073  69.337  0.00  0.00    +0.000 C 
ATOM     30  C   UNL     1      64.554  65.373  69.552  0.00  0.00    +0.000 C 
ATOM     31  C   UNL     1      65.221  65.187  69.104  0.00  0.00    +0.000 C 
ATOM     32  C   UNL     1      64.624  65.860  70.214  0.00  0.00    +0.000 C 
ATOM     33  O   UNL     1      63.957  66.046  70.662  0.00  0.00    +0.000 OA
ATOM     34  C   UNL     1      65.362  66.160  70.429  0.00  0.00    +0.000 C 
ATOM     35  C   UNL     1      65.433  66.647  71.092  0.00  0.00    +0.000 C 
ATOM     36  C   UNL     1      66.171  66.947  71.307  0.00  0.00    +0.000 C 
ATOM     37  O   UNL     1      66.909  67.247  71.521  0.00  0.00    +0.000 OA
ATOM     38  C   UNL     1      66.240  67.434  71.969  0.00  0.00    +0.000 C 
ATOM     39  C   UNL     1      65.573  67.620  72.417  0.00  0.00    +0.000 C 
ATOM     40  C   UNL     1      64.836  67.320  72.202  0.00  0.00    +0.000 C 
ATOM     41  C   UNL     1      64.766  66.833  71.539  0.00  0.00    +0.000 C 
ATOM     42  O   UNL     1      64.168  67.506  72.650  0.00  0.00    +0.000 OA
ATOM     43  C   UNL     1      63.431  67.206  72.435  0.00  0.00    +0.000 C 
ATOM     44  O   UNL     1      62.763  67.392  72.883  0.00  0.00    +0.000 OA
ATOM     45  C   UNL     1      63.360  66.719  71.772  0.00  0.00    +0.000 C 
ATOM     46  C   UNL     1      62.622  66.419  71.557  0.00  0.00    +0.000 C 
ATOM     47  O   UNL     1      61.955  66.605  72.005  0.00  0.00    +0.000 OA
ATOM     48  C   UNL     1      62.026  67.092  72.668  0.00  0.00    +0.000 C 
ATOM     49  C   UNL     1      62.420  67.563  73.218  0.00  0.00    +0.000 C 
ATOM     50  O   UNL     1      61.358  67.279  73.116  0.00  0.00    +0.000 OA
ATOM     51  C   UNL     1      62.552  65.932  70.895  0.00  0.00    +0.000 C 
ATOM     52  O   UNL     1      61.814  65.632  70.680  0.00  0.00    +0.000 OA
ATOM     53  C   UNL     1      61.147  65.819  71.129  0.00  0.00    +0.000 C 
ATOM     54  C   UNL     1      61.078  65.133  70.187  0.00  0.00    +0.000 C 
ATOM     55  O   UNL     1      60.813  65.551  70.847  0.00  0.00    +0.000 OA
ATOM     56  C   UNL     1      60.544  64.701  69.731  0.00  0.00    +0.000 C 
ATOM     57  N   UNL     1      59.744  64.687  69.934  0.00  0.00    +0.000 NA
ATOM     58  C   UNL     1      59.211  64.254  69.476  0.00  0.00    +0.000 C 
ATOM     59  C   UNL     1      59.479  65.104  70.593  0.00  0.00    +0.000 C 
ENDROOT
TORSDOF 0
ENDMDL
MODEL 2
REMARK VINA RESULT:   -18.261     14.628     16.678
REMARK INTER + INTRA:         -18.261
REMARK INTER:                 -18.261
REMARK INTRA:                   0.000
REMARK UNBOUND:                 0.000
ROOT
REMARK  Name = carbomycin
REMARK                            x       y       z     vdW  Elec       q    Type
REMARK                         _______ _______ _______ _____ _____    ______ ____
ATOM      1  C   UNL     1      61.873  62.944  52.484  0.00  0.00    +0.000 C 
ATOM      2  C   UNL     1      62.243  63.193  53.178  0.00  0.00    +0.000 C 
ATOM      3  C   UNL     1      62.648  62.649  53.647  0.00  0.00    +0.000 C 
ATOM      4  C   UNL     1      62.768  63.336  54.088  0.00  0.00    +0.000 C 
ATOM      5  O   UNL     1      63.094  62.343  54.270  0.00  0.00    +0.000 OA
ATOM      6  C   UNL     1      62.682  61.856  53.423  0.00  0.00    +0.000 C 
ATOM      7  O   UNL     1      63.087  61.311  53.892  0.00  0.00    +0.000 OA
ATOM      8  C   UNL     1      63.122  60.518  53.669  0.00  0.00    +0.000 C 
ATOM      9  O   UNL     1      62.752  60.269  52.974  0.00  0.00    +0.000 OA
ATOM     10  C   UNL     1      63.526  59.974  54.138  0.00  0.00    +0.000 C 
ATOM     11  C   UNL     1      63.561  59.181  53.914  0.00  0.00    +0.000 C 
ATOM     12  C   UNL     1      63.966  58.636  54.383  0.00  0.00    +0.000 C 
ATOM     13  C   UNL     1      63.191  58.932  53.219  0.00  0.00    +0.000 C 
ATOM     14  C   UNL     1      62.313  61.607  52.729  0.00  0.00    +0.000 C 
ATOM     15  C   UNL     1      62.347  60.814  52.505  0.00  0.00    +0.000 C 
ATOM     16  O   UNL     1      61.907  62.151  52.259  0.00  0.00    +0.000 OA
ATOM     17  O   UNL     1      61.468  63.489  52.014  0.00  0.00    +0.000 OA
ATOM     18  C   UNL     1      61.434  64.282  52.239  0.00  0.00    +0.000 C 
ATOM     19  C   UNL     1      61.804  64.531  52.933  0.00  0.00    +0.000 C 
ATOM     20  C   UNL     1      62.209  63.986  53.402  0.00  0.00    +0.000 C 
ATOM     21  O   UNL     1      61.769  65.324  53.157  0.00  0.00    +0.000 OA
ATOM     22  C   UNL     1      61.364  65.868  52.687  0.00  0.00    +0.000 C 
ATOM     23  O   UNL     1      61.330  66.661  52.912  0.00  0.00    +0.000 OA
ATOM     24  C   UNL     1      61.603  67.136  53.528  0.00  0.00    +0.000 C 
ATOM     25  C   UNL     1      61.894  66.395  53.742  0.00  0.00    +0.000 C 
ATOM     26  C   UNL     1      61.744  65.740  53.263  0.00  0.00    +0.000 C 
ATOM     27  C   UNL     1      62.035  64.997  53.476  0.00  0.00    +0.000 C 
ATOM     28  O   UNL     1      62.476  64.911  54.168  0.00  0.00    +0.000 OA
ATOM     29  C   UNL     1      62.336  66.308  54.433  0.00  0.00    +0.000 C 
ATOM     30  C   UNL     1      62.486  66.963  54.912  0.00  0.00    +0.000 C 
ATOM     31  C   UNL     1      62.927  66.876  55.603  0.00  0.00    +0.000 C 
ATOM     32  C   UNL     1      62.195  67.705  54.698  0.00  0.00    +0.000 C 
ATOM     33  O   UNL     1      61.754  67.791  54.007  0.00  0.00    +0.000 OA
ATOM     34  C   UNL     1      62.345  68.360  55.176  0.00  0.00    +0.000 C 
ATOM     35  C   UNL     1      62.054  69.102  54.963  0.00  0.00    +0.000 C 
ATOM     36  C   UNL     1      62.205  69.758  55.441  0.00  0.00    +0.000 C 
ATOM     37  O   UNL     1      62.355  70.412  55.920  0.00  0.00    +0.000 OA
ATOM     38  C   UNL     1      61.913  70.499  55.227  0.00  0.00    +0.000 C 
ATOM     39  C   UNL     1      61.472  70.586  54.536  0.00  0.00    +0.000 C 
ATOM     40  C   UNL     1      61.322  69.930  54.058  0.00  0.00    +0.000 C 
ATOM     41  C   UNL     1      61.613  69.189  54.272  0.00  0.00    +0.000 C 
ATOM     42  O   UNL     1      60.881  70.018  53.366  0.00  0.00    +0.000 OA
ATOM     43  C   UNL     1      60.731  69.362  52.888  0.00  0.00    +0.000 C 
ATOM     44  O   UNL     1      60.290  69.449  52.196  0.00  0.00    +0.000 OA
ATOM     45  C   UNL     1      61.021  68.620  53.101  0.00  0.00    +0.000 C 
ATOM     46  C   UNL     1      60.871  67.965  52.623  0.00  0.00    +0.000 C 
ATOM     47  O   UNL     1      60.430  68.052  51.931  0.00  0.00    +0.000 OA
ATOM     48  C   UNL     1      60.139  68.794  51.718  0.00  0.00    +0.000 C 
ATOM     49  C   UNL     1      60.012  69.605  51.798  0.00  0.00    +0.000 C 
ATOM     50  O   UNL     1      59.698  68.881  51.026  0.00  0.00    +0.000 OA
ATOM     51  C   UNL     1      61.162  67.223  52.836  0.00  0.00    +0.000 C 
ATOM     52  O   UNL     1      61.012  66.568  52.358  0.00  0.00    +0.000 OA
ATOM     53  C   UNL     1      60.570  66.655  51.666  0.00  0.00    +0.000 C 
ATOM     54  C   UNL     1      60.994  65.619  51.993  0.00  0.00    +0.000 C 
ATOM     55  O   UNL     1      60.590  66.163  51.524  0.00  0.00    +0.000 OA
ATOM     56  C   UNL     1      61.029  64.826  51.768  0.00  0.00    +0.000 C 
ATOM     57  N   UNL     1      60.659  64.577  51.075  0.00  0.00    +0.000 NA
ATOM     58  C   UNL     1      60.694  63.784  50.850  0.00  0.00    +0.000 C 
ATOM     59  C   UNL     1      60.254  65.121  50.605  0.00  0.00    +0.000 C 
ENDROOT
TORSDOF 0
ENDMDL
MODEL 3
REMARK VINA RESULT:   -17.519     15.317     17.812
REMARK INTER + INTRA:         -17.519
REMARK INTER:                 -17.519
REMARK INTRA:                   0.000
REMARK UNBOUND:                 0.000
ROOT
REMARK  Name = carbomycin
REMARK                            x       y       z     vdW  Elec       q    Type
REMARK                         _______ _______ _______ _____ _____    ______ ____
ATOM      1  C   UNL     1      61.086  66.237  52.822  0.00  0.00    +0.000 C 
ATOM      2  C   UNL     1      61.665  65.970  53.346  0.00  0.00    +0.000 C 
ATOM      3  C   UNL     1      62.024  66.499  53.867  0.00  0.00    +0.000 C 
ATOM      4  C   UNL     1      62.416  65.803  54.076  0.00  0.00    +0.000 C 
ATOM      5  O   UNL     1      62.520  66.787  54.461  0.00  0.00    +0.000 OA
ATOM      6  C   UNL     1      61.805  67.295  53.865  0.00  0.00    +0.000 C 
ATOM      7  O   UNL     1      62.164  67.824  54.386  0.00  0.00    +0.000 OA
ATOM      8  C   UNL     1      61.945  68.619  54.384  0.00  0.00    +0.000 C 
ATOM      9  O   UNL     1      61.365  68.886  53.860  0.00  0.00    +0.000 OA
ATOM     10  C   UNL     1      62.304  69.147  54.905  0.00  0.00    +0.000 C 
ATOM     11  C   UNL     1      62.084  69.943  54.903  0.00  0.00    +0.000 C 
ATOM     12  C   UNL     1      62.443  70.472  55.424  0.00  0.00    +0.000 C 
ATOM     13  C   UNL     1      61.505  70.209  54.379  0.00  0.00    +0.000 C 
ATOM     14  C   UNL     1      61.226  67.561  53.341  0.00  0.00    +0.000 C 
ATOM     15  C   UNL     1      61.006  68.356  53.339  0.00  0.00    +0.000 C 
ATOM     16  O   UNL     1      60.866  67.033  52.820  0.00  0.00    +0.000 OA
ATOM     17  O   UNL     1      60.726  65.708  52.301  0.00  0.00    +0.000 OA
ATOM     18  C   UNL     1      60.946  64.913  52.303  0.00  0.00    +0.000 C 
ATOM     19  C   UNL     1      61.525  64.647  52.827  0.00  0.00    +0.000 C 
ATOM     20  C   UNL     1      61.884  65.176  53.349  0.00  0.00    +0.000 C 
ATOM     21  O   UNL     1      61.745  63.851  52.830  0.00  0.00    +0.000 OA
ATOM     22  C   UNL     1      61.385  63.323  52.308  0.00  0.00    +0.000 C 
ATOM     23  O   UNL     1      61.605  62.528  52.311  0.00  0.00    +0.000 OA
ATOM     24  C   UNL     1      62.130  62.038  52.716  0.00  0.00    +0.000 C 
ATOM     25  C   UNL     1      62.271  62.770  53.069  0.00  0.00    +0.000 C 
ATOM     26  C   UNL     1      61.851  63.435  52.821  0.00  0.00    +0.000 C 
ATOM     27  C   UNL     1      61.991  64.167  53.174  0.00  0.00    +0.000 C 
ATOM     28  O   UNL     1      62.553  64.235  53.774  0.00  0.00    +0.000 OA
ATOM     29  C   UNL     1      62.833  62.838  53.670  0.00  0.00    +0.000 C 
ATOM     30  C   UNL     1      63.254  62.173  53.917  0.00  0.00    +0.000 C 
ATOM     31  C   UNL     1      63.816  62.240  54.517  0.00  0.00    +0.000 C 
ATOM     32  C   UNL     1      63.113  61.441  53.564  0.00  0.00    +0.000 C 
ATOM     33  O   UNL     1      62.552  61.373  52.964  0.00  0.00    +0.000 OA
ATOM     34  C   UNL     1      63.534  60.776  53.812  0.00  0.00    +0.000 C 
ATOM     35  C   UNL     1      63.394  60.043  53.459  0.00  0.00    +0.000 C 
ATOM     36  C   UNL     1      63.815  59.378  53.707  0.00  0.00    +0.000 C 
ATOM     37  O   UNL     1      64.236  58.713  53.955  0.00  0.00    +0.000 OA
ATOM     38  C   UNL     1      63.674  58.646  53.354  0.00  0.00    +0.000 C 
ATOM     39  C   UNL     1      63.112  58.578  52.754  0.00  0.00    +0.000 C 
ATOM     40  C   UNL     1      62.691  59.244  52.506  0.00  0.00    +0.000 C 
ATOM     41  C   UNL     1      62.832  59.975  52.859  0.00  0.00    +0.000 C 
ATOM     42  O   UNL     1      62.129  59.175  51.905  0.00  0.00    +0.000 OA
ATOM     43  C   UNL     1      61.708  59.840  51.658  0.00  0.00    +0.000 C 
ATOM     44  O   UNL     1      61.147  59.773  51.058  0.00  0.00    +0.000 OA
ATOM     45  C   UNL     1      61.849  60.573  52.010  0.00  0.00    +0.000 C 
ATOM     46  C   UNL     1      61.428  61.238  51.763  0.00  0.00    +0.000 C 
ATOM     47  O   UNL     1      60.866  61.171  51.163  0.00  0.00    +0.000 OA
ATOM     48  C   UNL     1      60.726  60.438  50.810  0.00  0.00    +0.000 C 
ATOM     49  C   UNL     1      60.828  59.629  50.687  0.00  0.00    +0.000 C 
ATOM     50  O   UNL     1      60.164  60.370  50.210  0.00  0.00    +0.000 OA
ATOM     51  C   UNL     1      61.569  61.970  52.116  0.00  0.00    +0.000 C 
ATOM     52  O   UNL     1      61.148  62.635  51.868  0.00  0.00    +0.000 OA
ATOM     53  C   UNL     1      60.586  62.567  51.268  0.00  0.00    +0.000 C 
ATOM     54  C   UNL     1      60.806  63.589  51.784  0.00  0.00    +0.000 C 
ATOM     55  O   UNL     1      60.447  63.060  51.263  0.00  0.00    +0.000 OA
ATOM     56  C   UNL     1      60.586  64.384  51.782  0.00  0.00    +0.000 C 
ATOM     57  N   UNL     1      60.007  64.651  51.258  0.00  0.00    +0.000 NA
ATOM     58  C   UNL     1      59.788  65.446  51.256  0.00  0.00    +0.000 C 
ATOM     59  C   UNL     1      59.648  64.122  50.737  0.00  0.00    +0.000 C 
ENDROOT
TORSDOF 0
ENDMDL
MODEL 4
REMARK VINA RESULT:   -17.269     15.522     18.191
REMARK INTER + INTRA:         -17.269
REMARK INTER:                 -17.269
REMARK INTRA:                   0.000
REMARK UNBOUND:                 0.000
ROOT
REMARK  Name = carbomycin
REMARK                            x       y       z     vdW  Elec       q    Type
REMARK                         _______ _______ _______ _____ _____    ______ ____
ATOM      1  C   UNL     1      62.773  64.638  53.850  0.00  0.00    +0.000 C 
ATOM      2  C   UNL     1      62.045  64.615  53.463  0.00  0.00    +0.000 C 
ATOM      3  C   UNL     1      61.591  65.301  53.400  0.00  0.00    +0.000 C 
ATOM      4  C   UNL     1      61.100  64.767  53.007  0.00  0.00    +0.000 C 
ATOM      5  O   UNL     1      60.966  65.802  53.200  0.00  0.00    +0.000 OA
ATOM      6  C   UNL     1      61.865  66.009  53.723  0.00  0.00    +0.000 C 
ATOM      7  O   UNL     1      61.412  66.695  53.660  0.00  0.00    +0.000 OA
ATOM      8  C   UNL     1      61.685  67.403  53.982  0.00  0.00    +0.000 C 
ATOM      9  O   UNL     1      62.414  67.425  54.369  0.00  0.00    +0.000 OA
ATOM     10  C   UNL     1      61.232  68.089  53.919  0.00  0.00    +0.000 C 
ATOM     11  C   UNL     1      61.506  68.797  54.242  0.00  0.00    +0.000 C 
ATOM     12  C   UNL     1      61.052  69.483  54.179  0.00  0.00    +0.000 C 
ATOM     13  C   UNL     1      62.235  68.818  54.628  0.00  0.00    +0.000 C 
ATOM     14  C   UNL     1      62.593  66.031  54.109  0.00  0.00    +0.000 C 
ATOM     15  C   UNL     1      62.868  66.739  54.433  0.00  0.00    +0.000 C 
ATOM     16  O   UNL     1      63.048  65.345  54.173  0.00  0.00    +0.000 OA
ATOM     17  O   UNL     1      63.227  63.951  53.914  0.00  0.00    +0.000 OA
ATOM     18  C   UNL     1      62.953  63.244  53.590  0.00  0.00    +0.000 C 
ATOM     19  C   UNL     1      62.225  63.222  53.204  0.00  0.00    +0.000 C 
ATOM     20  C   UNL     1      61.771  63.908  53.140  0.00  0.00    +0.000 C 
ATOM     21  O   UNL     1      61.950  62.514  52.881  0.00  0.00    +0.000 OA
ATOM     22  C   UNL     1      62.405  61.828  52.945  0.00  0.00    +0.000 C 
ATOM     23  O   UNL     1      62.130  61.121  52.621  0.00  0.00    +0.000 OA
ATOM     24  C   UNL     1      61.469  60.851  52.207  0.00  0.00    +0.000 C 
ATOM     25  C   UNL     1      61.290  61.649  52.316  0.00  0.00    +0.000 C 
ATOM     26  C   UNL     1      61.818  62.140  52.717  0.00  0.00    +0.000 C 
ATOM     27  C   UNL     1      61.639  62.938  52.825  0.00  0.00    +0.000 C 
ATOM     28  O   UNL     1      60.932  63.245  52.533  0.00  0.00    +0.000 OA
ATOM     29  C   UNL     1      60.582  61.957  52.023  0.00  0.00    +0.000 C 
ATOM     30  C   UNL     1      60.054  61.466  51.623  0.00  0.00    +0.000 C 
ATOM     31  C   UNL     1      59.346  61.773  51.330  0.00  0.00    +0.000 C 
ATOM     32  C   UNL     1      60.233  60.668  51.514  0.00  0.00    +0.000 C 
ATOM     33  O   UNL     1      60.941  60.361  51.806  0.00  0.00    +0.000 OA
ATOM     34  C   UNL     1      59.705  60.177  51.113  0.00  0.00    +0.000 C 
ATOM     35  C   UNL     1      59.884  59.379  51.005  0.00  0.00    +0.000 C 
ATOM     36  C   UNL     1      59.356  58.888  50.604  0.00  0.00    +0.000 C 
ATOM     37  O   UNL     1      58.827  58.398  50.203  0.00  0.00    +0.000 OA
ATOM     38  C   UNL     1      59.535  58.090  50.495  0.00  0.00    +0.000 C 
ATOM     39  C   UNL     1      60.243  57.783  50.787  0.00  0.00    +0.000 C 
ATOM     40  C   UNL     1      60.771  58.274  51.188  0.00  0.00    +0.000 C 
ATOM     41  C   UNL     1      60.591  59.072  51.297  0.00  0.00    +0.000 C 
ATOM     42  O   UNL     1      61.479  57.966  51.481  0.00  0.00    +0.000 OA
ATOM     43  C   UNL     1      62.007  58.457  51.881  0.00  0.00    +0.000 C 
ATOM     44  O   UNL     1      62.714  58.150  52.174  0.00  0.00    +0.000 OA
ATOM     45  C   UNL     1      61.828  59.255  51.990  0.00  0.00    +0.000 C 
ATOM     46  C   UNL     1      62.356  59.746  52.391  0.00  0.00    +0.000 C 
ATOM     47  O   UNL     1      63.064  59.439  52.683  0.00  0.00    +0.000 OA
ATOM     48  C   UNL     1      63.243  58.641  52.575  0.00  0.00    +0.000 C 
ATOM     49  C   UNL     1      63.116  57.869  52.313  0.00  0.00    +0.000 C 
ATOM     50  O   UNL     1      63.950  58.333  52.867  0.00  0.00    +0.000 OA
ATOM     51  C   UNL     1      62.177  60.544  52.499  0.00  0.00    +0.000 C 
ATOM     52  O   UNL     1      62.705  61.035  52.900  0.00  0.00    +0.000 OA
ATOM     53  C   UNL     1      63.413  60.727  53.193  0.00  0.00    +0.000 C 
ATOM     54  C   UNL     1      63.133  61.850  53.331  0.00  0.00    +0.000 C 
ATOM     55  O   UNL     1      63.586  61.165  53.395  0.00  0.00    +0.000 OA
ATOM     56  C   UNL     1      63.408  62.558  53.654  0.00  0.00    +0.000 C 
ATOM     57  N   UNL     1      64.136  62.580  54.041  0.00  0.00    +0.000 NA
ATOM     58  C   UNL     1      64.410  63.288  54.364  0.00  0.00    +0.000 C 
ATOM     59  C   UNL     1      64.589  61.894  54.104  0.00  0.00    +0.000 C 
ENDROOT
TORSDOF 0
ENDMDL
MODEL 5
REMARK VINA RESULT:   -16.766     14.735     17.468
REMARK INTER + INTRA:         -16.766
REMARK INTER:                 -16.766
REMARK INTRA:                   0.000
REMARK UNBOUND:                 0.000
ROOT
REMARK  Name = carbomycin
REMARK                            x       y       z     vdW  Elec       q    Type
REMARK                         _______ _______ _______ _____ _____    ______ ____
ATOM      1  C   UNL     1      62.413  63.449  53.686  0.00  0.00    +0.000 C 
ATOM      2  C   UNL     1      62.457  63.518  52.865  0.00  0.00    +0.000 C 
ATOM      3  C   UNL     1      62.634  62.856  52.405  0.00  0.00    +0.000 C 
ATOM      4  C   UNL     1      62.553  63.425  51.813  0.00  0.00    +0.000 C 
ATOM      5  O   UNL     1      62.783  62.391  51.739  0.00  0.00    +0.000 OA
ATOM      6  C   UNL     1      62.766  62.126  52.766  0.00  0.00    +0.000 C 
ATOM      7  O   UNL     1      62.943  61.464  52.307  0.00  0.00    +0.000 OA
ATOM      8  C   UNL     1      63.075  60.734  52.667  0.00  0.00    +0.000 C 
ATOM      9  O   UNL     1      63.031  60.666  53.488  0.00  0.00    +0.000 OA
ATOM     10  C   UNL     1      63.252  60.073  52.208  0.00  0.00    +0.000 C 
ATOM     11  C   UNL     1      63.385  59.342  52.568  0.00  0.00    +0.000 C 
ATOM     12  C   UNL     1      63.561  58.681  52.109  0.00  0.00    +0.000 C 
ATOM     13  C   UNL     1      63.340  59.275  53.390  0.00  0.00    +0.000 C 
ATOM     14  C   UNL     1      62.722  62.058  53.587  0.00  0.00    +0.000 C 
ATOM     15  C   UNL     1      62.854  61.328  53.948  0.00  0.00    +0.000 C 
ATOM     16  O   UNL     1      62.545  62.719  54.047  0.00  0.00    +0.000 OA
ATOM     17  O   UNL     1      62.236  64.111  54.146  0.00  0.00    +0.000 OA
ATOM     18  C   UNL     1      62.104  64.841  53.785  0.00  0.00    +0.000 C 
ATOM     19  C   UNL     1      62.148  64.909  52.964  0.00  0.00    +0.000 C 
ATOM     20  C   UNL     1      62.325  64.247  52.504  0.00  0.00    +0.000 C 
ATOM     21  O   UNL     1      62.016  65.639  52.603  0.00  0.00    +0.000 OA
ATOM     22  C   UNL     1      61.839  66.301  53.063  0.00  0.00    +0.000 C 
ATOM     23  O   UNL     1      61.707  67.030  52.702  0.00  0.00    +0.000 OA
ATOM     24  C   UNL     1      61.694  67.344  51.939  0.00  0.00    +0.000 C 
ATOM     25  C   UNL     1      61.876  66.552  51.796  0.00  0.00    +0.000 C 
ATOM     26  C   UNL     1      61.945  66.025  52.426  0.00  0.00    +0.000 C 
ATOM     27  C   UNL     1      62.127  65.233  52.284  0.00  0.00    +0.000 C 
ATOM     28  O   UNL     1      62.240  64.968  51.511  0.00  0.00    +0.000 OA
ATOM     29  C   UNL     1      61.989  66.287  51.022  0.00  0.00    +0.000 C 
ATOM     30  C   UNL     1      61.920  66.815  50.392  0.00  0.00    +0.000 C 
ATOM     31  C   UNL     1      62.033  66.550  49.619  0.00  0.00    +0.000 C 
ATOM     32  C   UNL     1      61.738  67.606  50.535  0.00  0.00    +0.000 C 
ATOM     33  O   UNL     1      61.625  67.871  51.308  0.00  0.00    +0.000 OA
ATOM     34  C   UNL     1      61.669  68.134  49.904  0.00  0.00    +0.000 C 
ATOM     35  C   UNL     1      61.487  68.926  50.047  0.00  0.00    +0.000 C 
ATOM     36  C   UNL     1      61.418  69.454  49.416  0.00  0.00    +0.000 C 
ATOM     37  O   UNL     1      61.349  69.981  48.785  0.00  0.00    +0.000 OA
ATOM     38  C   UNL     1      61.236  70.245  49.559  0.00  0.00    +0.000 C 
ATOM     39  C   UNL     1      61.123  70.510  50.332  0.00  0.00    +0.000 C 
ATOM     40  C   UNL     1      61.192  69.982  50.963  0.00  0.00    +0.000 C 
ATOM     41  C   UNL     1      61.374  69.191  50.820  0.00  0.00    +0.000 C 
ATOM     42  O   UNL     1      61.078  70.247  51.736  0.00  0.00    +0.000 OA
ATOM     43  C   UNL     1      61.147  69.720  52.366  0.00  0.00    +0.000 C 
ATOM     44  O   UNL     1      61.034  69.984  53.139  0.00  0.00    +0.000 OA
ATOM     45  C   UNL     1      61.329  68.928  52.224  0.00  0.00    +0.000 C 
ATOM     46  C   UNL     1      61.398  68.400  52.855  0.00  0.00    +0.000 C 
ATOM     47  O   UNL     1      61.285  68.664  53.628  0.00  0.00    +0.000 OA
ATOM     48  C   UNL     1      61.103  69.456  53.770  0.00  0.00    +0.000 C 
ATOM     49  C   UNL     1      60.947  70.241  53.570  0.00  0.00    +0.000 C 
ATOM     50  O   UNL     1      60.990  69.722  54.543  0.00  0.00    +0.000 OA
ATOM     51  C   UNL     1      61.580  67.608  52.712  0.00  0.00    +0.000 C 
ATOM     52  O   UNL     1      61.649  67.081  53.342  0.00  0.00    +0.000 OA
ATOM     53  C   UNL     1      61.536  67.346  54.116  0.00  0.00    +0.000 C 
ATOM     54  C   UNL     1      61.794  66.232  53.884  0.00  0.00    +0.000 C 
ATOM     55  O   UNL     1      61.618  66.894  54.343  0.00  0.00    +0.000 OA
ATOM     56  C   UNL     1      61.927  65.503  54.245  0.00  0.00    +0.000 C 
ATOM     57  N   UNL     1      61.882  65.434  55.066  0.00  0.00    +0.000 NA
ATOM     58  C   UNL     1      62.015  64.704  55.427  0.00  0.00    +0.000 C 
ATOM     59  C   UNL     1      61.706  66.096  55.525  0.00  0.00    +0.000 C 
ENDROOT
TORSDOF 0
ENDMDL
MODEL 6
REMARK VINA RESULT:   -16.305     15.662     18.977
REMARK INTER + INTRA:         -16.305
REMARK INTER:                 -16.305
REMARK INTRA:                   0.000
REMARK UNBOUND:                 0.000
ROOT
REMARK  Name = carbomycin
REMARK                            x       y       z     vdW  Elec       q    Type
REMARK                         _______ _______ _______ _____ _____    ______ ____
ATOM      1  C   UNL     1      62.043  65.314  51.791  0.00  0.00    +0.000 C 
ATOM      2  C   UNL     1      62.102  64.986  51.035  0.00  0.00    +0.000 C 
ATOM      3  C   UNL     1      62.007  65.465  50.370  0.00  0.00    +0.000 C 
ATOM      4  C   UNL     1      62.144  64.737  50.006  0.00  0.00    +0.000 C 
ATOM      5  O   UNL     1      61.960  65.691  49.578  0.00  0.00    +0.000 OA
ATOM      6  C   UNL     1      61.853  66.271  50.460  0.00  0.00    +0.000 C 
ATOM      7  O   UNL     1      61.758  66.749  49.795  0.00  0.00    +0.000 OA
ATOM      8  C   UNL     1      61.605  67.554  49.884  0.00  0.00    +0.000 C 
ATOM      9  O   UNL     1      61.546  67.882  50.639  0.00  0.00    +0.000 OA
ATOM     10  C   UNL     1      61.510  68.033  49.219  0.00  0.00    +0.000 C 
ATOM     11  C   UNL     1      61.356  68.839  49.309  0.00  0.00    +0.000 C 
ATOM     12  C   UNL     1      61.261  69.317  48.644  0.00  0.00    +0.000 C 
ATOM     13  C   UNL     1      61.297  69.165  50.064  0.00  0.00    +0.000 C 
ATOM     14  C   UNL     1      61.795  66.598  51.215  0.00  0.00    +0.000 C 
ATOM     15  C   UNL     1      61.641  67.403  51.305  0.00  0.00    +0.000 C 
ATOM     16  O   UNL     1      61.890  66.119  51.881  0.00  0.00    +0.000 OA
ATOM     17  O   UNL     1      62.138  64.835  52.456  0.00  0.00    +0.000 OA
ATOM     18  C   UNL     1      62.292  64.029  52.366  0.00  0.00    +0.000 C 
ATOM     19  C   UNL     1      62.351  63.702  51.611  0.00  0.00    +0.000 C 
ATOM     20  C   UNL     1      62.256  64.181  50.946  0.00  0.00    +0.000 C 
ATOM     21  O   UNL     1      62.504  62.897  51.521  0.00  0.00    +0.000 OA
ATOM     22  C   UNL     1      62.599  62.419  52.187  0.00  0.00    +0.000 C 
ATOM     23  O   UNL     1      62.753  61.613  52.097  0.00  0.00    +0.000 OA
ATOM     24  C   UNL     1      62.853  61.073  51.482  0.00  0.00    +0.000 C 
ATOM     25  C   UNL     1      62.717  61.775  51.072  0.00  0.00    +0.000 C 
ATOM     26  C   UNL     1      62.585  62.476  51.487  0.00  0.00    +0.000 C 
ATOM     27  C   UNL     1      62.448  63.179  51.078  0.00  0.00    +0.000 C 
ATOM     28  O   UNL     1      62.443  63.182  50.254  0.00  0.00    +0.000 OA
ATOM     29  C   UNL     1      62.712  61.779  50.247  0.00  0.00    +0.000 C 
ATOM     30  C   UNL     1      62.844  61.078  49.831  0.00  0.00    +0.000 C 
ATOM     31  C   UNL     1      62.839  61.081  49.007  0.00  0.00    +0.000 C 
ATOM     32  C   UNL     1      62.980  60.375  50.241  0.00  0.00    +0.000 C 
ATOM     33  O   UNL     1      62.985  60.373  51.065  0.00  0.00    +0.000 OA
ATOM     34  C   UNL     1      63.112  59.675  49.825  0.00  0.00    +0.000 C 
ATOM     35  C   UNL     1      63.249  58.971  50.235  0.00  0.00    +0.000 C 
ATOM     36  C   UNL     1      63.381  58.271  49.819  0.00  0.00    +0.000 C 
ATOM     37  O   UNL     1      63.513  57.571  49.403  0.00  0.00    +0.000 OA
ATOM     38  C   UNL     1      63.518  57.568  50.229  0.00  0.00    +0.000 C 
ATOM     39  C   UNL     1      63.522  57.565  51.053  0.00  0.00    +0.000 C 
ATOM     40  C   UNL     1      63.390  58.266  51.469  0.00  0.00    +0.000 C 
ATOM     41  C   UNL     1      63.254  58.969  51.059  0.00  0.00    +0.000 C 
ATOM     42  O   UNL     1      63.395  58.263  52.294  0.00  0.00    +0.000 OA
ATOM     43  C   UNL     1      63.263  58.963  52.710  0.00  0.00    +0.000 C 
ATOM     44  O   UNL     1      63.268  58.960  53.534  0.00  0.00    +0.000 OA
ATOM     45  C   UNL     1      63.127  59.667  52.301  0.00  0.00    +0.000 C 
ATOM     46  C   UNL     1      62.995  60.367  52.716  0.00  0.00    +0.000 C 
ATOM     47  O   UNL     1      62.999  60.364  53.540  0.00  0.00    +0.000 OA
ATOM     48  C   UNL     1      63.136  59.661  53.950  0.00  0.00    +0.000 C 
ATOM     49  C   UNL     1      63.291  58.855  54.032  0.00  0.00    +0.000 C 
ATOM     50  O   UNL     1      63.141  59.658  54.775  0.00  0.00    +0.000 OA
ATOM     51  C   UNL     1      62.858  61.070  52.306  0.00  0.00    +0.000 C 
ATOM     52  O   UNL     1      62.726  61.770  52.722  0.00  0.00    +0.000 OA
ATOM     53  C   UNL     1      62.731  61.767  53.547  0.00  0.00    +0.000 C 
ATOM     54  C   UNL     1      62.541  62.746  52.942  0.00  0.00    +0.000 C 
ATOM     55  O   UNL     1      62.636  62.267  53.606  0.00  0.00    +0.000 OA
ATOM     56  C   UNL     1      62.387  63.551  53.032  0.00  0.00    +0.000 C 
ATOM     57  N   UNL     1      62.328  63.878  53.787  0.00  0.00    +0.000 NA
ATOM     58  C   UNL     1      62.174  64.684  53.876  0.00  0.00    +0.000 C 
ATOM     59  C   UNL     1      62.423  63.400  54.451  0.00  0.00    +0.000 C 
ENDROOT
TORSDOF 0
ENDMDL
