MODEL 1
REMARK VINA RESULT:   -13.207      0.000      0.000
REMARK INTER + INTRA:         -13.207
REMARK INTER:                 -13.207
REMARK INTRA:                   0.000
REMARK UNBOUND:                 0.000
ROOT
REMARK  Name = carfenazine
REMARK                            x       y       z     vdW  Elec       q    Type
REMARK                         _______ _______ _______ _____ _____    ______ ____
ATOM      1  C   UNL     1      60.432  63.817  72.845  0.00  0.00    +0.000 C 
ATOM      2  C   UNL     1      60.527  63.345  72.174  0.00  0.00    +0.000 C 
ATOM      3  C   UNL     1      60.402  63.665  71.423  0.00  0.00    +0.000 C 
ATOM      4  O   UNL     1      60.182  64.455  71.343  0.00  0.00    +0.000 OA
ATOM      5  C   UNL     1      60.498  63.193  70.754  0.00  0.00    +0.000 A 
ATOM      6  C   UNL     1      60.718  62.402  70.834  0.00  0.00    +0.000 A 
ATOM      7  C   UNL     1      60.813  61.931  70.164  0.00  0.00    +0.000 A 
ATOM      8  C   UNL     1      60.688  62.250  69.413  0.00  0.00    +0.000 A 
ATOM      9  S   UNL     1      60.783  61.779  68.743  0.00  0.00    +0.000 S 
ATOM     10  C   UNL     1      60.658  62.097  67.993  0.00  0.00    +0.000 A 
ATOM     11  C   UNL     1      60.754  61.626  67.323  0.00  0.00    +0.000 A 
ATOM     12  C   UNL     1      60.629  61.945  66.572  0.00  0.00    +0.000 A 
ATOM     13  C   UNL     1      60.408  62.736  66.492  0.00  0.00    +0.000 A 
ATOM     14  C   UNL     1      60.313  63.208  67.163  0.00  0.00    +0.000 A 
ATOM     15  C   UNL     1      60.438  62.888  67.913  0.00  0.00    +0.000 A 
ATOM     16  N   UNL     1      60.342  63.360  68.583  0.00  0.00    +0.000 N 
ATOM     17  C   UNL     1      60.122  64.150  68.503  0.00  0.00    +0.000 C 
ATOM     18  C   UNL     1      60.027  64.622  69.173  0.00  0.00    +0.000 C 
ATOM     19  C   UNL     1      59.806  65.413  69.093  0.00  0.00    +0.000 C 
ATOM     20  N   UNL     1      59.711  65.884  69.764  0.00  0.00    +0.000 NA
ATOM     21  C   UNL     1      59.490  66.676  69.684  0.00  0.00    +0.000 C 
ATOM     22  C   UNL     1      59.395  67.147  70.353  0.00  0.00    +0.000 C 
ATOM     23  N   UNL     1      59.520  66.828  71.103  0.00  0.00    +0.000 NA
ATOM     24  C   UNL     1      59.425  67.300  71.774  0.00  0.00    +0.000 C 
ATOM     25  C   UNL     1      59.550  66.981  72.525  0.00  0.00    +0.000 C 
ATOM     26  O   UNL     1      59.455  67.452  73.194  0.00  0.00    +0.000 OA
ATOM     27  C   UNL     1      59.741  66.037  71.183  0.00  0.00    +0.000 C 
ATOM     28  C   UNL     1      59.836  65.566  70.513  0.00  0.00    +0.000 C 
ATOM     29  C   UNL     1      60.468  63.041  69.333  0.00  0.00    +0.000 A 
ATOM     30  C   UNL     1      60.372  63.513  70.004  0.00  0.00    +0.000 A 
ENDROOT
TORSDOF 0
ENDMDL
MODEL 2
REMARK VINA RESULT:   -13.092      3.387      4.169
REMARK INTER + INTRA:         -13.092
REMARK INTER:                 -13.092
REMARK INTRA:                   0.000
REMARK UNBOUND:                 0.000
ROOT
REMARK  Name = carfenazine
REMARK                            x       y       z     vdW  Elec       q    Type
REMARK                         _______ _______ _______ _____ _____    ______ ____
ATOM      1  C   UNL     1      62.966  67.114  72.913  0.00  0.00    +0.000 C 
ATOM      2  C   UNL     1      62.445  66.476  72.851  0.00  0.00    +0.000 C 
ATOM      3  C   UNL     1      62.535  65.927  72.241  0.00  0.00    +0.000 C 
ATOM      4  O   UNL     1      63.145  66.016  71.694  0.00  0.00    +0.000 OA
ATOM      5  C   UNL     1      62.014  65.291  72.179  0.00  0.00    +0.000 A 
ATOM      6  C   UNL     1      61.403  65.203  72.727  0.00  0.00    +0.000 A 
ATOM      7  C   UNL     1      60.883  64.567  72.664  0.00  0.00    +0.000 A 
ATOM      8  C   UNL     1      60.972  64.018  72.055  0.00  0.00    +0.000 A 
ATOM      9  S   UNL     1      60.452  63.381  71.992  0.00  0.00    +0.000 S 
ATOM     10  C   UNL     1      60.541  62.832  71.383  0.00  0.00    +0.000 A 
ATOM     11  C   UNL     1      60.021  62.196  71.320  0.00  0.00    +0.000 A 
ATOM     12  C   UNL     1      60.110  61.647  70.711  0.00  0.00    +0.000 A 
ATOM     13  C   UNL     1      60.721  61.735  70.163  0.00  0.00    +0.000 A 
ATOM     14  C   UNL     1      61.242  62.372  70.225  0.00  0.00    +0.000 A 
ATOM     15  C   UNL     1      61.152  62.920  70.835  0.00  0.00    +0.000 A 
ATOM     16  N   UNL     1      61.673  63.558  70.897  0.00  0.00    +0.000 N 
ATOM     17  C   UNL     1      62.283  63.646  70.351  0.00  0.00    +0.000 C 
ATOM     18  C   UNL     1      62.805  64.282  70.412  0.00  0.00    +0.000 C 
ATOM     19  C   UNL     1      63.415  64.370  69.865  0.00  0.00    +0.000 C 
ATOM     20  N   UNL     1      63.936  65.008  69.928  0.00  0.00    +0.000 NA
ATOM     21  C   UNL     1      64.548  65.096  69.379  0.00  0.00    +0.000 C 
ATOM     22  C   UNL     1      65.068  65.732  69.442  0.00  0.00    +0.000 C 
ATOM     23  N   UNL     1      64.978  66.280  70.051  0.00  0.00    +0.000 NA
ATOM     24  C   UNL     1      65.499  66.917  70.114  0.00  0.00    +0.000 C 
ATOM     25  C   UNL     1      65.410  67.466  70.723  0.00  0.00    +0.000 C 
ATOM     26  O   UNL     1      65.930  68.103  70.786  0.00  0.00    +0.000 OA
ATOM     27  C   UNL     1      64.367  66.192  70.599  0.00  0.00    +0.000 C 
ATOM     28  C   UNL     1      63.846  65.556  70.537  0.00  0.00    +0.000 C 
ATOM     29  C   UNL     1      61.583  64.106  71.507  0.00  0.00    +0.000 A 
ATOM     30  C   UNL     1      62.104  64.743  71.569  0.00  0.00    +0.000 A 
ENDROOT
TORSDOF 0
ENDMDL
MODEL 3
REMARK VINA RESULT:   -12.821      3.459      4.585
REMARK INTER + INTRA:         -12.821
REMARK INTER:                 -12.821
REMARK INTRA:                   0.000
REMARK UNBOUND:                 0.000
ROOT
REMARK  Name = carfenazine
REMARK                            x       y       z     vdW  Elec       q    Type
REMARK                         _______ _______ _______ _____ _____    ______ ____
ATOM      1  C   UNL     1      60.649  63.417  70.884  0.00  0.00    +0.000 C 
ATOM      2  C   UNL     1      61.416  63.693  70.753  0.00  0.00    +0.000 C 
ATOM      3  C   UNL     1      61.657  64.413  71.077  0.00  0.00    +0.000 C 
ATOM      4  O   UNL     1      61.132  64.857  71.531  0.00  0.00    +0.000 OA
ATOM      5  C   UNL     1      62.423  64.688  70.946  0.00  0.00    +0.000 A 
ATOM      6  C   UNL     1      62.949  64.243  70.491  0.00  0.00    +0.000 A 
ATOM      7  C   UNL     1      63.715  64.519  70.361  0.00  0.00    +0.000 A 
ATOM      8  C   UNL     1      63.957  65.238  70.685  0.00  0.00    +0.000 A 
ATOM      9  S   UNL     1      64.723  65.514  70.554  0.00  0.00    +0.000 S 
ATOM     10  C   UNL     1      64.964  66.233  70.878  0.00  0.00    +0.000 A 
ATOM     11  C   UNL     1      65.730  66.509  70.747  0.00  0.00    +0.000 A 
ATOM     12  C   UNL     1      65.971  67.228  71.071  0.00  0.00    +0.000 A 
ATOM     13  C   UNL     1      65.446  67.673  71.525  0.00  0.00    +0.000 A 
ATOM     14  C   UNL     1      64.678  67.397  71.656  0.00  0.00    +0.000 A 
ATOM     15  C   UNL     1      64.438  66.678  71.332  0.00  0.00    +0.000 A 
ATOM     16  N   UNL     1      63.671  66.402  71.463  0.00  0.00    +0.000 N 
ATOM     17  C   UNL     1      63.146  66.846  71.917  0.00  0.00    +0.000 C 
ATOM     18  C   UNL     1      62.379  66.571  72.048  0.00  0.00    +0.000 C 
ATOM     19  C   UNL     1      61.853  67.015  72.503  0.00  0.00    +0.000 C 
ATOM     20  N   UNL     1      61.086  66.740  72.633  0.00  0.00    +0.000 NA
ATOM     21  C   UNL     1      60.560  67.184  73.088  0.00  0.00    +0.000 C 
ATOM     22  C   UNL     1      59.794  66.909  73.219  0.00  0.00    +0.000 C 
ATOM     23  N   UNL     1      59.553  66.190  72.895  0.00  0.00    +0.000 NA
ATOM     24  C   UNL     1      58.786  65.914  73.026  0.00  0.00    +0.000 C 
ATOM     25  C   UNL     1      58.545  65.194  72.702  0.00  0.00    +0.000 C 
ATOM     26  O   UNL     1      57.779  64.919  72.832  0.00  0.00    +0.000 OA
ATOM     27  C   UNL     1      60.080  65.745  72.440  0.00  0.00    +0.000 C 
ATOM     28  C   UNL     1      60.846  66.020  72.310  0.00  0.00    +0.000 C 
ATOM     29  C   UNL     1      63.431  65.683  71.139  0.00  0.00    +0.000 A 
ATOM     30  C   UNL     1      62.663  65.407  71.270  0.00  0.00    +0.000 A 
ENDROOT
TORSDOF 0
ENDMDL
MODEL 4
REMARK VINA RESULT:   -12.592      3.926      5.280
REMARK INTER + INTRA:         -12.592
REMARK INTER:                 -12.592
REMARK INTRA:                   0.000
REMARK UNBOUND:                 0.000
ROOT
REMARK  Name = carfenazine
REMARK                            x       y       z     vdW  Elec       q    Type
REMARK                         _______ _______ _______ _____ _____    ______ ____
ATOM      1  C   UNL     1      61.051  64.755  72.946  0.00  0.00    +0.000 C 
ATOM      2  C   UNL     1      61.685  65.275  72.856  0.00  0.00    +0.000 C 
ATOM      3  C   UNL     1      62.125  65.273  72.157  0.00  0.00    +0.000 C 
ATOM      4  O   UNL     1      61.930  64.751  71.549  0.00  0.00    +0.000 OA
ATOM      5  C   UNL     1      62.759  65.793  72.067  0.00  0.00    +0.000 A 
ATOM      6  C   UNL     1      62.954  66.315  72.675  0.00  0.00    +0.000 A 
ATOM      7  C   UNL     1      63.587  66.835  72.585  0.00  0.00    +0.000 A 
ATOM      8  C   UNL     1      64.027  66.833  71.887  0.00  0.00    +0.000 A 
ATOM      9  S   UNL     1      64.661  67.352  71.797  0.00  0.00    +0.000 S 
ATOM     10  C   UNL     1      65.101  67.351  71.098  0.00  0.00    +0.000 A 
ATOM     11  C   UNL     1      65.734  67.870  71.008  0.00  0.00    +0.000 A 
ATOM     12  C   UNL     1      66.174  67.868  70.310  0.00  0.00    +0.000 A 
ATOM     13  C   UNL     1      65.979  67.346  69.701  0.00  0.00    +0.000 A 
ATOM     14  C   UNL     1      65.344  66.826  69.792  0.00  0.00    +0.000 A 
ATOM     15  C   UNL     1      64.906  66.828  70.490  0.00  0.00    +0.000 A 
ATOM     16  N   UNL     1      64.271  66.308  70.580  0.00  0.00    +0.000 N 
ATOM     17  C   UNL     1      64.076  65.786  69.973  0.00  0.00    +0.000 C 
ATOM     18  C   UNL     1      63.442  65.266  70.062  0.00  0.00    +0.000 C 
ATOM     19  C   UNL     1      63.247  64.744  69.454  0.00  0.00    +0.000 C 
ATOM     20  N   UNL     1      62.613  64.224  69.545  0.00  0.00    +0.000 NA
ATOM     21  C   UNL     1      62.418  63.702  68.936  0.00  0.00    +0.000 C 
ATOM     22  C   UNL     1      61.784  63.182  69.026  0.00  0.00    +0.000 C 
ATOM     23  N   UNL     1      61.345  63.184  69.724  0.00  0.00    +0.000 NA
ATOM     24  C   UNL     1      60.711  62.664  69.814  0.00  0.00    +0.000 C 
ATOM     25  C   UNL     1      60.271  62.666  70.513  0.00  0.00    +0.000 C 
ATOM     26  O   UNL     1      59.637  62.147  70.603  0.00  0.00    +0.000 OA
ATOM     27  C   UNL     1      61.540  63.707  70.333  0.00  0.00    +0.000 C 
ATOM     28  C   UNL     1      62.174  64.226  70.242  0.00  0.00    +0.000 C 
ATOM     29  C   UNL     1      63.832  66.311  71.279  0.00  0.00    +0.000 A 
ATOM     30  C   UNL     1      63.198  65.790  71.369  0.00  0.00    +0.000 A 
ENDROOT
TORSDOF 0
ENDMDL
MODEL 5
REMARK VINA RESULT:   -12.212      3.667      5.250
REMARK INTER + INTRA:         -12.212
REMARK INTER:                 -12.212
REMARK INTRA:                   0.000
REMARK UNBOUND:                 0.000
ROOT
REMARK  Name = carfenazine
REMARK                            x       y       z     vdW  Elec       q    Type
REMARK                         _______ _______ _______ _____ _____    ______ ____
ATOM      1  C   UNL     1      63.498  68.717  72.836  0.00  0.00    +0.000 C 
ATOM      2  C   UNL     1      62.766  68.344  72.915  0.00  0.00    +0.000 C 
ATOM      3  C   UNL     1      62.636  67.611  72.560  0.00  0.00    +0.000 C 
ATOM      4  O   UNL     1      63.237  67.250  72.126  0.00  0.00    +0.000 OA
ATOM      5  C   UNL     1      61.904  67.238  72.640  0.00  0.00    +0.000 A 
ATOM      6  C   UNL     1      61.302  67.599  73.074  0.00  0.00    +0.000 A 
ATOM      7  C   UNL     1      60.571  67.226  73.154  0.00  0.00    +0.000 A 
ATOM      8  C   UNL     1      60.441  66.493  72.799  0.00  0.00    +0.000 A 
ATOM      9  S   UNL     1      59.709  66.120  72.878  0.00  0.00    +0.000 S 
ATOM     10  C   UNL     1      59.579  65.387  72.523  0.00  0.00    +0.000 A 
ATOM     11  C   UNL     1      58.848  65.014  72.602  0.00  0.00    +0.000 A 
ATOM     12  C   UNL     1      58.717  64.281  72.248  0.00  0.00    +0.000 A 
ATOM     13  C   UNL     1      59.318  63.920  71.813  0.00  0.00    +0.000 A 
ATOM     14  C   UNL     1      60.051  64.293  71.733  0.00  0.00    +0.000 A 
ATOM     15  C   UNL     1      60.180  65.026  72.089  0.00  0.00    +0.000 A 
ATOM     16  N   UNL     1      60.913  65.399  72.009  0.00  0.00    +0.000 N 
ATOM     17  C   UNL     1      61.513  65.039  71.575  0.00  0.00    +0.000 C 
ATOM     18  C   UNL     1      62.245  65.411  71.495  0.00  0.00    +0.000 C 
ATOM     19  C   UNL     1      62.847  65.051  71.061  0.00  0.00    +0.000 C 
ATOM     20  N   UNL     1      63.578  65.424  70.982  0.00  0.00    +0.000 NA
ATOM     21  C   UNL     1      64.181  65.063  70.547  0.00  0.00    +0.000 C 
ATOM     22  C   UNL     1      64.912  65.436  70.467  0.00  0.00    +0.000 C 
ATOM     23  N   UNL     1      65.042  66.168  70.822  0.00  0.00    +0.000 NA
ATOM     24  C   UNL     1      65.774  66.542  70.743  0.00  0.00    +0.000 C 
ATOM     25  C   UNL     1      65.904  67.275  71.098  0.00  0.00    +0.000 C 
ATOM     26  O   UNL     1      66.636  67.648  71.019  0.00  0.00    +0.000 OA
ATOM     27  C   UNL     1      64.440  66.529  71.257  0.00  0.00    +0.000 C 
ATOM     28  C   UNL     1      63.709  66.157  71.336  0.00  0.00    +0.000 C 
ATOM     29  C   UNL     1      61.042  66.132  72.364  0.00  0.00    +0.000 A 
ATOM     30  C   UNL     1      61.774  66.505  72.285  0.00  0.00    +0.000 A 
ENDROOT
TORSDOF 0
ENDMDL
MODEL 6
REMARK VINA RESULT:   -11.884      2.836      3.385
REMARK INTER + INTRA:         -11.884
REMARK INTER:                 -11.884
REMARK INTRA:                   0.000
REMARK UNBOUND:                 0.000
ROOT
REMARK  Name = carfenazine
REMARK                            x       y       z     vdW  Elec       q    Type
REMARK                         _______ _______ _______ _____ _____    ______ ____
ATOM      1  C   UNL     1      61.133  67.294  71.300  0.00  0.00    +0.000 C 
ATOM      2  C   UNL     1      60.778  66.747  70.795  0.00  0.00    +0.000 C 
ATOM      3  C   UNL     1      61.236  66.164  70.430  0.00  0.00    +0.000 C 
ATOM      4  O   UNL     1      62.047  66.129  70.571  0.00  0.00    +0.000 OA
ATOM      5  C   UNL     1      60.880  65.617  69.925  0.00  0.00    +0.000 A 
ATOM      6  C   UNL     1      60.068  65.652  69.784  0.00  0.00    +0.000 A 
ATOM      7  C   UNL     1      59.714  65.105  69.280  0.00  0.00    +0.000 A 
ATOM      8  C   UNL     1      60.171  64.522  68.915  0.00  0.00    +0.000 A 
ATOM      9  S   UNL     1      59.816  63.976  68.410  0.00  0.00    +0.000 S 
ATOM     10  C   UNL     1      60.273  63.393  68.046  0.00  0.00    +0.000 A 
ATOM     11  C   UNL     1      59.918  62.846  67.541  0.00  0.00    +0.000 A 
ATOM     12  C   UNL     1      60.375  62.263  67.176  0.00  0.00    +0.000 A 
ATOM     13  C   UNL     1      61.187  62.229  67.317  0.00  0.00    +0.000 A 
ATOM     14  C   UNL     1      61.543  62.776  67.823  0.00  0.00    +0.000 A 
ATOM     15  C   UNL     1      61.085  63.358  68.187  0.00  0.00    +0.000 A 
ATOM     16  N   UNL     1      61.440  63.906  68.692  0.00  0.00    +0.000 N 
ATOM     17  C   UNL     1      62.251  63.871  68.833  0.00  0.00    +0.000 C 
ATOM     18  C   UNL     1      62.607  64.418  69.338  0.00  0.00    +0.000 C 
ATOM     19  C   UNL     1      63.419  64.383  69.479  0.00  0.00    +0.000 C 
ATOM     20  N   UNL     1      63.773  64.930  69.984  0.00  0.00    +0.000 NA
ATOM     21  C   UNL     1      64.586  64.896  70.125  0.00  0.00    +0.000 C 
ATOM     22  C   UNL     1      64.941  65.442  70.630  0.00  0.00    +0.000 C 
ATOM     23  N   UNL     1      64.484  66.024  70.994  0.00  0.00    +0.000 NA
ATOM     24  C   UNL     1      64.839  66.572  71.499  0.00  0.00    +0.000 C 
ATOM     25  C   UNL     1      64.382  67.155  71.864  0.00  0.00    +0.000 C 
ATOM     26  O   UNL     1      64.736  67.701  72.369  0.00  0.00    +0.000 OA
ATOM     27  C   UNL     1      63.671  66.059  70.853  0.00  0.00    +0.000 C 
ATOM     28  C   UNL     1      63.317  65.512  70.348  0.00  0.00    +0.000 C 
ATOM     29  C   UNL     1      60.983  64.488  69.056  0.00  0.00    +0.000 A 
ATOM     30  C   UNL     1      61.338  65.035  69.561  0.00  0.00    +0.000 A 
ENDROOT
TORSDOF 0
ENDMDL
MODEL 7
REMARK VINA RESULT:   -11.809      3.028      5.020
REMARK INTER + INTRA:         -11.809
REMARK INTER:                 -11.809
REMARK INTRA:                   0.000
REMARK UNBOUND:                 0.000
ROOT
REMARK  Name = carfenazine
REMARK                            x       y       z     vdW  Elec       q    Type
REMARK                         _______ _______ _______ _____ _____    ______ ____
ATOM      1  C   UNL     1      59.817  63.201  71.686  0.00  0.00    +0.000 C 
ATOM      2  C   UNL     1      60.323  63.785  71.977  0.00  0.00    +0.000 C 
ATOM      3  C   UNL     1      60.921  64.091  71.497  0.00  0.00    +0.000 C 
ATOM      4  O   UNL     1      61.012  63.813  70.726  0.00  0.00    +0.000 OA
ATOM      5  C   UNL     1      61.426  64.674  71.789  0.00  0.00    +0.000 A 
ATOM      6  C   UNL     1      61.334  64.951  72.560  0.00  0.00    +0.000 A 
ATOM      7  C   UNL     1      61.839  65.534  72.851  0.00  0.00    +0.000 A 
ATOM      8  C   UNL     1      62.437  65.840  72.372  0.00  0.00    +0.000 A 
ATOM      9  S   UNL     1      62.942  66.423  72.663  0.00  0.00    +0.000 S 
ATOM     10  C   UNL     1      63.540  66.729  72.183  0.00  0.00    +0.000 A 
ATOM     11  C   UNL     1      64.045  67.312  72.474  0.00  0.00    +0.000 A 
ATOM     12  C   UNL     1      64.643  67.618  71.995  0.00  0.00    +0.000 A 
ATOM     13  C   UNL     1      64.735  67.340  71.223  0.00  0.00    +0.000 A 
ATOM     14  C   UNL     1      64.229  66.756  70.931  0.00  0.00    +0.000 A 
ATOM     15  C   UNL     1      63.632  66.451  71.412  0.00  0.00    +0.000 A 
ATOM     16  N   UNL     1      63.126  65.868  71.120  0.00  0.00    +0.000 N 
ATOM     17  C   UNL     1      63.218  65.590  70.349  0.00  0.00    +0.000 C 
ATOM     18  C   UNL     1      62.713  65.007  70.057  0.00  0.00    +0.000 C 
ATOM     19  C   UNL     1      62.804  64.729  69.286  0.00  0.00    +0.000 C 
ATOM     20  N   UNL     1      62.298  64.146  68.995  0.00  0.00    +0.000 NA
ATOM     21  C   UNL     1      62.390  63.868  68.223  0.00  0.00    +0.000 C 
ATOM     22  C   UNL     1      61.885  63.285  67.932  0.00  0.00    +0.000 C 
ATOM     23  N   UNL     1      61.288  62.980  68.411  0.00  0.00    +0.000 NA
ATOM     24  C   UNL     1      60.782  62.397  68.120  0.00  0.00    +0.000 C 
ATOM     25  C   UNL     1      60.184  62.091  68.600  0.00  0.00    +0.000 C 
ATOM     26  O   UNL     1      59.679  61.508  68.309  0.00  0.00    +0.000 OA
ATOM     27  C   UNL     1      61.196  63.258  69.183  0.00  0.00    +0.000 C 
ATOM     28  C   UNL     1      61.701  63.841  69.475  0.00  0.00    +0.000 C 
ATOM     29  C   UNL     1      62.529  65.562  71.600  0.00  0.00    +0.000 A 
ATOM     30  C   UNL     1      62.023  64.979  71.308  0.00  0.00    +0.000 A 
ENDROOT
TORSDOF 0
ENDMDL
MODEL 8
REMARK VINA RESULT:   -11.622      1.725      4.674
REMARK INTER + INTRA:         -11.622
REMARK INTER:                 -11.622
REMARK INTRA:                   0.000
REMARK UNBOUND:                 0.000
ROOT
REMARK  Name = carfenazine
REMARK                            x       y       z     vdW  Elec       q    Type
REMARK                         _______ _______ _______ _____ _____    ______ ____
ATOM      1  C   UNL     1      61.606  61.452  70.906  0.00  0.00    +0.000 C 
ATOM      2  C   UNL     1      61.345  62.060  71.400  0.00  0.00    +0.000 C 
ATOM      3  C   UNL     1      60.981  62.727  71.077  0.00  0.00    +0.000 C 
ATOM      4  O   UNL     1      60.878  62.786  70.262  0.00  0.00    +0.000 OA
ATOM      5  C   UNL     1      60.721  63.334  71.571  0.00  0.00    +0.000 A 
ATOM      6  C   UNL     1      60.824  63.275  72.388  0.00  0.00    +0.000 A 
ATOM      7  C   UNL     1      60.564  63.882  72.881  0.00  0.00    +0.000 A 
ATOM      8  C   UNL     1      60.200  64.549  72.558  0.00  0.00    +0.000 A 
ATOM      9  S   UNL     1      59.940  65.157  73.052  0.00  0.00    +0.000 S 
ATOM     10  C   UNL     1      59.576  65.823  72.729  0.00  0.00    +0.000 A 
ATOM     11  C   UNL     1      59.316  66.431  73.222  0.00  0.00    +0.000 A 
ATOM     12  C   UNL     1      58.952  67.098  72.900  0.00  0.00    +0.000 A 
ATOM     13  C   UNL     1      58.849  67.157  72.084  0.00  0.00    +0.000 A 
ATOM     14  C   UNL     1      59.110  66.549  71.590  0.00  0.00    +0.000 A 
ATOM     15  C   UNL     1      59.473  65.882  71.913  0.00  0.00    +0.000 A 
ATOM     16  N   UNL     1      59.734  65.274  71.419  0.00  0.00    +0.000 N 
ATOM     17  C   UNL     1      59.630  65.333  70.603  0.00  0.00    +0.000 C 
ATOM     18  C   UNL     1      59.891  64.726  70.109  0.00  0.00    +0.000 C 
ATOM     19  C   UNL     1      59.787  64.785  69.293  0.00  0.00    +0.000 C 
ATOM     20  N   UNL     1      60.048  64.177  68.800  0.00  0.00    +0.000 NA
ATOM     21  C   UNL     1      59.945  64.236  67.982  0.00  0.00    +0.000 C 
ATOM     22  C   UNL     1      60.205  63.629  67.489  0.00  0.00    +0.000 C 
ATOM     23  N   UNL     1      60.568  62.963  67.812  0.00  0.00    +0.000 NA
ATOM     24  C   UNL     1      60.829  62.355  67.318  0.00  0.00    +0.000 C 
ATOM     25  C   UNL     1      61.193  61.688  67.641  0.00  0.00    +0.000 C 
ATOM     26  O   UNL     1      61.453  61.081  67.147  0.00  0.00    +0.000 OA
ATOM     27  C   UNL     1      60.672  62.904  68.629  0.00  0.00    +0.000 C 
ATOM     28  C   UNL     1      60.411  63.511  69.122  0.00  0.00    +0.000 C 
ATOM     29  C   UNL     1      60.097  64.608  71.742  0.00  0.00    +0.000 A 
ATOM     30  C   UNL     1      60.358  64.000  71.248  0.00  0.00    +0.000 A 
ENDROOT
TORSDOF 0
ENDMDL
MODEL 9
REMARK VINA RESULT:   -11.051      1.799      2.956
REMARK INTER + INTRA:         -11.051
REMARK INTER:                 -11.051
REMARK INTRA:                   0.000
REMARK UNBOUND:                 0.000
ROOT
REMARK  Name = carfenazine
REMARK                            x       y       z     vdW  Elec       q    Type
REMARK                         _______ _______ _______ _____ _____    ______ ____
ATOM      1  C   UNL     1      60.232  68.002  70.500  0.00  0.00    +0.000 C 
ATOM      2  C   UNL     1      60.530  67.271  70.256  0.00  0.00    +0.000 C 
ATOM      3  C   UNL     1      60.237  66.574  70.588  0.00  0.00    +0.000 C 
ATOM      4  O   UNL     1      59.648  66.608  71.163  0.00  0.00    +0.000 OA
ATOM      5  C   UNL     1      60.535  65.845  70.343  0.00  0.00    +0.000 A 
ATOM      6  C   UNL     1      61.124  65.812  69.767  0.00  0.00    +0.000 A 
ATOM      7  C   UNL     1      61.421  65.082  69.524  0.00  0.00    +0.000 A 
ATOM      8  C   UNL     1      61.129  64.385  69.855  0.00  0.00    +0.000 A 
ATOM      9  S   UNL     1      61.426  63.656  69.611  0.00  0.00    +0.000 S 
ATOM     10  C   UNL     1      61.134  62.959  69.942  0.00  0.00    +0.000 A 
ATOM     11  C   UNL     1      61.431  62.230  69.699  0.00  0.00    +0.000 A 
ATOM     12  C   UNL     1      61.138  61.533  70.030  0.00  0.00    +0.000 A 
ATOM     13  C   UNL     1      60.548  61.566  70.606  0.00  0.00    +0.000 A 
ATOM     14  C   UNL     1      60.251  62.296  70.850  0.00  0.00    +0.000 A 
ATOM     15  C   UNL     1      60.544  62.992  70.518  0.00  0.00    +0.000 A 
ATOM     16  N   UNL     1      60.246  63.723  70.763  0.00  0.00    +0.000 N 
ATOM     17  C   UNL     1      59.657  63.756  71.338  0.00  0.00    +0.000 C 
ATOM     18  C   UNL     1      59.360  64.485  71.582  0.00  0.00    +0.000 C 
ATOM     19  C   UNL     1      58.770  64.519  72.158  0.00  0.00    +0.000 C 
ATOM     20  N   UNL     1      58.473  65.249  72.402  0.00  0.00    +0.000 NA
ATOM     21  C   UNL     1      57.882  65.283  72.979  0.00  0.00    +0.000 C 
ATOM     22  C   UNL     1      57.585  66.012  73.222  0.00  0.00    +0.000 C 
ATOM     23  N   UNL     1      57.878  66.708  72.891  0.00  0.00    +0.000 NA
ATOM     24  C   UNL     1      57.581  67.438  73.135  0.00  0.00    +0.000 C 
ATOM     25  C   UNL     1      57.873  68.135  72.804  0.00  0.00    +0.000 C 
ATOM     26  O   UNL     1      57.576  68.865  73.048  0.00  0.00    +0.000 OA
ATOM     27  C   UNL     1      58.468  66.675  72.315  0.00  0.00    +0.000 C 
ATOM     28  C   UNL     1      58.765  65.945  72.071  0.00  0.00    +0.000 C 
ATOM     29  C   UNL     1      60.539  64.419  70.431  0.00  0.00    +0.000 A 
ATOM     30  C   UNL     1      60.242  65.149  70.675  0.00  0.00    +0.000 A 
ENDROOT
TORSDOF 0
ENDMDL
