MODEL 1
REMARK VINA RESULT:   -13.110      0.000      0.000
REMARK INTER + INTRA:         -13.110
REMARK INTER:                 -13.110
REMARK INTRA:                   0.000
REMARK UNBOUND:                 0.000
ROOT
REMARK  Name = cariprazine
REMARK                            x       y       z     vdW  Elec       q    Type
REMARK                         _______ _______ _______ _____ _____    ______ ____
ATOM      1  C   UNL     1      60.896  67.161  73.189  0.00  0.00    +0.000 C 
ATOM      2  N   UNL     1      60.358  66.670  72.802  0.00  0.00    +0.000 N 
ATOM      3  C   UNL     1      59.600  66.565  73.111  0.00  0.00    +0.000 C 
ATOM      4  C   UNL     1      60.577  66.284  72.108  0.00  0.00    +0.000 C 
ATOM      5  O   UNL     1      61.336  66.389  71.799  0.00  0.00    +0.000 OA
ATOM      6  N   UNL     1      60.039  65.793  71.720  0.00  0.00    +0.000 NA
ATOM      7  C   UNL     1      60.259  65.407  71.025  0.00  0.00    +0.000 C 
ATOM      8  C   UNL     1      59.721  64.917  70.639  0.00  0.00    +0.000 C 
ATOM      9  C   UNL     1      59.941  64.530  69.943  0.00  0.00    +0.000 C 
ATOM     10  C   UNL     1      60.698  64.635  69.635  0.00  0.00    +0.000 C 
ATOM     11  C   UNL     1      60.918  64.249  68.939  0.00  0.00    +0.000 C 
ATOM     12  C   UNL     1      60.380  63.758  68.552  0.00  0.00    +0.000 C 
ATOM     13  N   UNL     1      60.599  63.373  67.858  0.00  0.00    +0.000 NA
ATOM     14  C   UNL     1      60.060  62.881  67.470  0.00  0.00    +0.000 C 
ATOM     15  C   UNL     1      60.280  62.495  66.775  0.00  0.00    +0.000 C 
ATOM     16  N   UNL     1      61.038  62.601  66.467  0.00  0.00    +0.000 N 
ATOM     17  C   UNL     1      61.576  63.091  66.854  0.00  0.00    +0.000 C 
ATOM     18  C   UNL     1      61.357  63.477  67.549  0.00  0.00    +0.000 C 
ATOM     19  C   UNL     1      61.258  62.215  65.772  0.00  0.00    +0.000 A 
ATOM     20  C   UNL     1      60.719  61.723  65.385  0.00  0.00    +0.000 A 
ATOM     21 CL   UNL     1      59.962  61.619  65.693  0.00  0.00    +0.000 Cl
ATOM     22  C   UNL     1      60.939  61.337  64.689  0.00  0.00    +0.000 A 
ATOM     23 CL   UNL     1      60.401  60.846  64.303  0.00  0.00    +0.000 Cl
ATOM     24  C   UNL     1      61.697  61.442  64.381  0.00  0.00    +0.000 A 
ATOM     25  C   UNL     1      62.235  61.933  64.768  0.00  0.00    +0.000 A 
ATOM     26  C   UNL     1      62.016  62.319  65.463  0.00  0.00    +0.000 A 
ATOM     27  C   UNL     1      61.236  65.126  70.021  0.00  0.00    +0.000 C 
ATOM     28  C   UNL     1      61.016  65.512  70.717  0.00  0.00    +0.000 C 
ENDROOT
TORSDOF 0
ENDMDL
MODEL 2
REMARK VINA RESULT:   -12.398      2.831      6.820
REMARK INTER + INTRA:         -12.398
REMARK INTER:                 -12.398
REMARK INTRA:                   0.000
REMARK UNBOUND:                 0.000
ROOT
REMARK  Name = cariprazine
REMARK                            x       y       z     vdW  Elec       q    Type
REMARK                         _______ _______ _______ _____ _____    ______ ____
ATOM      1  C   UNL     1      62.208  61.268  63.198  0.00  0.00    +0.000 C 
ATOM      2  N   UNL     1      61.586  61.266  63.740  0.00  0.00    +0.000 N 
ATOM      3  C   UNL     1      60.875  60.893  63.551  0.00  0.00    +0.000 C 
ATOM      4  C   UNL     1      61.675  61.637  64.471  0.00  0.00    +0.000 C 
ATOM      5  O   UNL     1      62.387  62.011  64.660  0.00  0.00    +0.000 OA
ATOM      6  N   UNL     1      61.054  61.636  65.013  0.00  0.00    +0.000 NA
ATOM      7  C   UNL     1      61.143  62.008  65.744  0.00  0.00    +0.000 C 
ATOM      8  C   UNL     1      60.522  62.006  66.286  0.00  0.00    +0.000 C 
ATOM      9  C   UNL     1      60.611  62.378  67.018  0.00  0.00    +0.000 C 
ATOM     10  C   UNL     1      61.321  62.751  67.206  0.00  0.00    +0.000 C 
ATOM     11  C   UNL     1      61.410  63.123  67.938  0.00  0.00    +0.000 C 
ATOM     12  C   UNL     1      60.789  63.121  68.480  0.00  0.00    +0.000 C 
ATOM     13  N   UNL     1      60.878  63.493  69.210  0.00  0.00    +0.000 NA
ATOM     14  C   UNL     1      60.256  63.491  69.753  0.00  0.00    +0.000 C 
ATOM     15  C   UNL     1      60.345  63.863  70.484  0.00  0.00    +0.000 C 
ATOM     16  N   UNL     1      61.057  64.236  70.673  0.00  0.00    +0.000 N 
ATOM     17  C   UNL     1      61.678  64.238  70.131  0.00  0.00    +0.000 C 
ATOM     18  C   UNL     1      61.589  63.866  69.400  0.00  0.00    +0.000 C 
ATOM     19  C   UNL     1      61.146  64.608  71.404  0.00  0.00    +0.000 A 
ATOM     20  C   UNL     1      60.524  64.606  71.946  0.00  0.00    +0.000 A 
ATOM     21 CL   UNL     1      59.813  64.232  71.757  0.00  0.00    +0.000 Cl
ATOM     22  C   UNL     1      60.613  64.978  72.678  0.00  0.00    +0.000 A 
ATOM     23 CL   UNL     1      59.991  64.976  73.219  0.00  0.00    +0.000 Cl
ATOM     24  C   UNL     1      61.324  65.351  72.866  0.00  0.00    +0.000 A 
ATOM     25  C   UNL     1      61.946  65.353  72.324  0.00  0.00    +0.000 A 
ATOM     26  C   UNL     1      61.856  64.981  71.593  0.00  0.00    +0.000 A 
ATOM     27  C   UNL     1      61.943  62.753  66.665  0.00  0.00    +0.000 C 
ATOM     28  C   UNL     1      61.853  62.381  65.933  0.00  0.00    +0.000 C 
ENDROOT
TORSDOF 0
ENDMDL
MODEL 3
REMARK VINA RESULT:   -10.410     14.520     15.860
REMARK INTER + INTRA:         -10.410
REMARK INTER:                 -10.410
REMARK INTRA:                   0.000
REMARK UNBOUND:                 0.000
ROOT
REMARK  Name = cariprazine
REMARK                            x       y       z     vdW  Elec       q    Type
REMARK                         _______ _______ _______ _____ _____    ______ ____
ATOM      1  C   UNL     1      63.660  59.718  53.614  0.00  0.00    +0.000 C 
ATOM      2  N   UNL     1      63.142  60.248  53.249  0.00  0.00    +0.000 N 
ATOM      3  C   UNL     1      62.653  59.990  52.637  0.00  0.00    +0.000 C 
ATOM      4  C   UNL     1      63.114  61.033  53.497  0.00  0.00    +0.000 C 
ATOM      5  O   UNL     1      63.604  61.290  54.110  0.00  0.00    +0.000 OA
ATOM      6  N   UNL     1      62.597  61.562  53.134  0.00  0.00    +0.000 NA
ATOM      7  C   UNL     1      62.569  62.349  53.382  0.00  0.00    +0.000 C 
ATOM      8  C   UNL     1      62.051  62.877  53.018  0.00  0.00    +0.000 C 
ATOM      9  C   UNL     1      62.023  63.665  53.267  0.00  0.00    +0.000 C 
ATOM     10  C   UNL     1      62.513  63.921  53.878  0.00  0.00    +0.000 C 
ATOM     11  C   UNL     1      62.484  64.708  54.126  0.00  0.00    +0.000 C 
ATOM     12  C   UNL     1      61.967  65.237  53.763  0.00  0.00    +0.000 C 
ATOM     13  N   UNL     1      61.939  66.023  54.011  0.00  0.00    +0.000 NA
ATOM     14  C   UNL     1      61.421  66.552  53.647  0.00  0.00    +0.000 C 
ATOM     15  C   UNL     1      61.393  67.339  53.895  0.00  0.00    +0.000 C 
ATOM     16  N   UNL     1      61.883  67.595  54.507  0.00  0.00    +0.000 N 
ATOM     17  C   UNL     1      62.400  67.066  54.871  0.00  0.00    +0.000 C 
ATOM     18  C   UNL     1      62.428  66.280  54.623  0.00  0.00    +0.000 C 
ATOM     19  C   UNL     1      61.855  68.381  54.755  0.00  0.00    +0.000 A 
ATOM     20  C   UNL     1      61.337  68.911  54.391  0.00  0.00    +0.000 A 
ATOM     21 CL   UNL     1      60.847  68.654  53.779  0.00  0.00    +0.000 Cl
ATOM     22  C   UNL     1      61.309  69.698  54.639  0.00  0.00    +0.000 A 
ATOM     23 CL   UNL     1      60.791  70.226  54.275  0.00  0.00    +0.000 Cl
ATOM     24  C   UNL     1      61.799  69.954  55.252  0.00  0.00    +0.000 A 
ATOM     25  C   UNL     1      62.316  69.425  55.615  0.00  0.00    +0.000 A 
ATOM     26  C   UNL     1      62.344  68.639  55.367  0.00  0.00    +0.000 A 
ATOM     27  C   UNL     1      63.030  63.393  54.242  0.00  0.00    +0.000 C 
ATOM     28  C   UNL     1      63.058  62.605  53.994  0.00  0.00    +0.000 C 
ENDROOT
TORSDOF 0
ENDMDL
MODEL 4
REMARK VINA RESULT:   -10.152     14.622     14.965
REMARK INTER + INTRA:         -10.152
REMARK INTER:                 -10.152
REMARK INTRA:                   0.000
REMARK UNBOUND:                 0.000
ROOT
REMARK  Name = cariprazine
REMARK                            x       y       z     vdW  Elec       q    Type
REMARK                         _______ _______ _______ _____ _____    ______ ____
ATOM      1  C   UNL     1      62.015  70.228  55.199  0.00  0.00    +0.000 C 
ATOM      2  N   UNL     1      61.616  69.688  54.719  0.00  0.00    +0.000 N 
ATOM      3  C   UNL     1      60.976  69.938  54.261  0.00  0.00    +0.000 C 
ATOM      4  C   UNL     1      61.856  68.900  54.696  0.00  0.00    +0.000 C 
ATOM      5  O   UNL     1      62.496  68.650  55.153  0.00  0.00    +0.000 OA
ATOM      6  N   UNL     1      61.458  68.361  54.216  0.00  0.00    +0.000 NA
ATOM      7  C   UNL     1      61.698  67.572  54.193  0.00  0.00    +0.000 C 
ATOM      8  C   UNL     1      61.299  67.033  53.713  0.00  0.00    +0.000 C 
ATOM      9  C   UNL     1      61.540  66.243  53.690  0.00  0.00    +0.000 C 
ATOM     10  C   UNL     1      62.179  65.994  54.147  0.00  0.00    +0.000 C 
ATOM     11  C   UNL     1      62.420  65.205  54.124  0.00  0.00    +0.000 C 
ATOM     12  C   UNL     1      62.021  64.666  53.644  0.00  0.00    +0.000 C 
ATOM     13  N   UNL     1      62.262  63.878  53.621  0.00  0.00    +0.000 NA
ATOM     14  C   UNL     1      61.863  63.338  53.140  0.00  0.00    +0.000 C 
ATOM     15  C   UNL     1      62.103  62.549  53.117  0.00  0.00    +0.000 C 
ATOM     16  N   UNL     1      62.743  62.300  53.575  0.00  0.00    +0.000 N 
ATOM     17  C   UNL     1      63.142  62.839  54.055  0.00  0.00    +0.000 C 
ATOM     18  C   UNL     1      62.901  63.628  54.078  0.00  0.00    +0.000 C 
ATOM     19  C   UNL     1      62.984  61.512  53.552  0.00  0.00    +0.000 A 
ATOM     20  C   UNL     1      62.584  60.972  53.071  0.00  0.00    +0.000 A 
ATOM     21 CL   UNL     1      61.945  61.222  52.614  0.00  0.00    +0.000 Cl
ATOM     22  C   UNL     1      62.825  60.183  53.048  0.00  0.00    +0.000 A 
ATOM     23 CL   UNL     1      62.426  59.644  52.568  0.00  0.00    +0.000 Cl
ATOM     24  C   UNL     1      63.465  59.934  53.506  0.00  0.00    +0.000 A 
ATOM     25  C   UNL     1      63.864  60.473  53.986  0.00  0.00    +0.000 A 
ATOM     26  C   UNL     1      63.623  61.261  54.009  0.00  0.00    +0.000 A 
ATOM     27  C   UNL     1      62.578  66.533  54.627  0.00  0.00    +0.000 C 
ATOM     28  C   UNL     1      62.337  67.323  54.650  0.00  0.00    +0.000 C 
ENDROOT
TORSDOF 0
ENDMDL
MODEL 5
REMARK VINA RESULT:   -10.118     14.568     15.019
REMARK INTER + INTRA:         -10.118
REMARK INTER:                 -10.118
REMARK INTRA:                   0.000
REMARK UNBOUND:                 0.000
ROOT
REMARK  Name = cariprazine
REMARK                            x       y       z     vdW  Elec       q    Type
REMARK                         _______ _______ _______ _____ _____    ______ ____
ATOM      1  C   UNL     1      60.891  70.149  54.356  0.00  0.00    +0.000 C 
ATOM      2  N   UNL     1      61.485  69.649  54.636  0.00  0.00    +0.000 N 
ATOM      3  C   UNL     1      62.074  69.946  55.131  0.00  0.00    +0.000 C 
ATOM      4  C   UNL     1      61.490  68.853  54.421  0.00  0.00    +0.000 C 
ATOM      5  O   UNL     1      60.900  68.556  53.926  0.00  0.00    +0.000 OA
ATOM      6  N   UNL     1      62.084  68.353  54.701  0.00  0.00    +0.000 NA
ATOM      7  C   UNL     1      62.088  67.557  54.486  0.00  0.00    +0.000 C 
ATOM      8  C   UNL     1      62.682  67.058  54.766  0.00  0.00    +0.000 C 
ATOM      9  C   UNL     1      62.687  66.261  54.551  0.00  0.00    +0.000 C 
ATOM     10  C   UNL     1      62.098  65.964  54.056  0.00  0.00    +0.000 C 
ATOM     11  C   UNL     1      62.103  65.168  53.841  0.00  0.00    +0.000 C 
ATOM     12  C   UNL     1      62.696  64.668  54.121  0.00  0.00    +0.000 C 
ATOM     13  N   UNL     1      62.701  63.872  53.906  0.00  0.00    +0.000 NA
ATOM     14  C   UNL     1      63.296  63.372  54.186  0.00  0.00    +0.000 C 
ATOM     15  C   UNL     1      63.300  62.576  53.971  0.00  0.00    +0.000 C 
ATOM     16  N   UNL     1      62.711  62.279  53.476  0.00  0.00    +0.000 N 
ATOM     17  C   UNL     1      62.117  62.778  53.196  0.00  0.00    +0.000 C 
ATOM     18  C   UNL     1      62.112  63.575  53.411  0.00  0.00    +0.000 C 
ATOM     19  C   UNL     1      62.715  61.483  53.261  0.00  0.00    +0.000 A 
ATOM     20  C   UNL     1      63.310  60.983  53.541  0.00  0.00    +0.000 A 
ATOM     21 CL   UNL     1      63.899  61.281  54.036  0.00  0.00    +0.000 Cl
ATOM     22  C   UNL     1      63.315  60.186  53.326  0.00  0.00    +0.000 A 
ATOM     23 CL   UNL     1      63.908  59.688  53.606  0.00  0.00    +0.000 Cl
ATOM     24  C   UNL     1      62.725  59.890  52.831  0.00  0.00    +0.000 A 
ATOM     25  C   UNL     1      62.131  60.389  52.551  0.00  0.00    +0.000 A 
ATOM     26  C   UNL     1      62.126  61.185  52.766  0.00  0.00    +0.000 A 
ATOM     27  C   UNL     1      61.504  66.463  53.776  0.00  0.00    +0.000 C 
ATOM     28  C   UNL     1      61.500  67.260  53.991  0.00  0.00    +0.000 C 
ENDROOT
TORSDOF 0
ENDMDL
