MODEL 1
REMARK VINA RESULT:   -11.761      0.000      0.000
REMARK INTER + INTRA:         -11.761
REMARK INTER:                 -11.761
REMARK INTRA:                   0.000
REMARK UNBOUND:                 0.000
ROOT
REMARK  Name = carumonam
REMARK                            x       y       z     vdW  Elec       q    Type
REMARK                         _______ _______ _______ _____ _____    ______ ____
ATOM      1  N   UNL     1      65.651  67.435  71.342  0.00  0.00    +0.000 NA
ATOM      2  C   UNL     1      65.011  66.914  71.318  0.00  0.00    +0.000 C 
ATOM      3  O   UNL     1      65.076  66.201  70.908  0.00  0.00    +0.000 OA
ATOM      4  O   UNL     1      64.307  67.107  71.703  0.00  0.00    +0.000 OA
ATOM      5  C   UNL     1      63.668  66.586  71.679  0.00  0.00    +0.000 C 
ATOM      6  C   UNL     1      62.964  66.779  72.064  0.00  0.00    +0.000 C 
ATOM      7  C   UNL     1      62.232  66.411  72.160  0.00  0.00    +0.000 C 
ATOM      8  N   UNL     1      61.900  65.699  71.909  0.00  0.00    +0.000 NA
ATOM      9  C   UNL     1      62.343  65.175  71.450  0.00  0.00    +0.000 C 
ATOM     10  O   UNL     1      63.119  65.365  71.242  0.00  0.00    +0.000 OA
ATOM     11  C   UNL     1      62.011  64.463  71.200  0.00  0.00    +0.000 C 
ATOM     12  N   UNL     1      62.454  63.939  70.741  0.00  0.00    +0.000 NA
ATOM     13  O   UNL     1      63.230  64.129  70.533  0.00  0.00    +0.000 OA
ATOM     14  C   UNL     1      63.562  64.842  70.783  0.00  0.00    +0.000 C 
ATOM     15  C   UNL     1      64.337  65.032  70.575  0.00  0.00    +0.000 C 
ATOM     16  O   UNL     1      64.781  64.508  70.116  0.00  0.00    +0.000 OA
ATOM     17  O   UNL     1      64.669  65.744  70.825  0.00  0.00    +0.000 OA
ATOM     18  C   UNL     1      61.235  64.273  71.408  0.00  0.00    +0.000 A 
ATOM     19  C   UNL     1      60.832  63.585  71.199  0.00  0.00    +0.000 A 
ATOM     20  S   UNL     1      60.074  63.625  71.524  0.00  0.00    +0.000 S 
ATOM     21  C   UNL     1      60.011  64.338  71.933  0.00  0.00    +0.000 A 
ATOM     22  N   UNL     1      59.345  64.604  72.343  0.00  0.00    +0.000 NA
ATOM     23  N   UNL     1      60.727  64.739  71.862  0.00  0.00    +0.000 NA
ATOM     24  C   UNL     1      61.969  67.051  72.609  0.00  0.00    +0.000 C 
ATOM     25  O   UNL     1      61.265  67.243  72.994  0.00  0.00    +0.000 OA
ATOM     26  N   UNL     1      62.701  67.418  72.514  0.00  0.00    +0.000 N 
ATOM     27  S   UNL     1      63.033  68.131  72.764  0.00  0.00    +0.000 S 
ATOM     28  O   UNL     1      63.365  68.843  73.014  0.00  0.00    +0.000 OA
ATOM     29  O   UNL     1      63.737  67.938  72.379  0.00  0.00    +0.000 OA
ATOM     30  O   UNL     1      62.329  68.323  73.149  0.00  0.00    +0.000 OA
ENDROOT
TORSDOF 0
ENDMDL
MODEL 2
REMARK VINA RESULT:   -11.696      1.325      3.054
REMARK INTER + INTRA:         -11.696
REMARK INTER:                 -11.696
REMARK INTRA:                   0.000
REMARK UNBOUND:                 0.000
ROOT
REMARK  Name = carumonam
REMARK                            x       y       z     vdW  Elec       q    Type
REMARK                         _______ _______ _______ _____ _____    ______ ____
ATOM      1  N   UNL     1      65.687  67.026  71.054  0.00  0.00    +0.000 NA
ATOM      2  C   UNL     1      64.916  67.001  71.348  0.00  0.00    +0.000 C 
ATOM      3  O   UNL     1      64.629  67.623  71.807  0.00  0.00    +0.000 OA
ATOM      4  O   UNL     1      64.432  66.353  71.183  0.00  0.00    +0.000 OA
ATOM      5  C   UNL     1      63.662  66.328  71.477  0.00  0.00    +0.000 C 
ATOM      6  C   UNL     1      63.178  65.680  71.312  0.00  0.00    +0.000 C 
ATOM      7  C   UNL     1      62.405  65.466  71.502  0.00  0.00    +0.000 C 
ATOM      8  N   UNL     1      61.794  65.811  71.937  0.00  0.00    +0.000 NA
ATOM      9  C   UNL     1      61.908  66.544  72.298  0.00  0.00    +0.000 C 
ATOM     10  O   UNL     1      62.632  66.932  72.223  0.00  0.00    +0.000 OA
ATOM     11  C   UNL     1      61.298  66.889  72.733  0.00  0.00    +0.000 C 
ATOM     12  N   UNL     1      61.411  67.623  73.094  0.00  0.00    +0.000 NA
ATOM     13  O   UNL     1      62.135  68.011  73.019  0.00  0.00    +0.000 OA
ATOM     14  C   UNL     1      62.746  67.666  72.584  0.00  0.00    +0.000 C 
ATOM     15  C   UNL     1      63.470  68.054  72.509  0.00  0.00    +0.000 C 
ATOM     16  O   UNL     1      63.583  68.788  72.870  0.00  0.00    +0.000 OA
ATOM     17  O   UNL     1      64.080  67.709  72.074  0.00  0.00    +0.000 OA
ATOM     18  C   UNL     1      60.573  66.501  72.807  0.00  0.00    +0.000 A 
ATOM     19  C   UNL     1      59.916  66.776  73.222  0.00  0.00    +0.000 A 
ATOM     20  S   UNL     1      59.316  66.214  73.152  0.00  0.00    +0.000 S 
ATOM     21  C   UNL     1      59.603  65.592  72.692  0.00  0.00    +0.000 A 
ATOM     22  N   UNL     1      59.185  64.912  72.482  0.00  0.00    +0.000 NA
ATOM     23  N   UNL     1      60.380  65.768  72.479  0.00  0.00    +0.000 NA
ATOM     24  C   UNL     1      62.494  64.764  71.078  0.00  0.00    +0.000 C 
ATOM     25  O   UNL     1      62.011  64.117  70.913  0.00  0.00    +0.000 OA
ATOM     26  N   UNL     1      63.267  64.978  70.887  0.00  0.00    +0.000 N 
ATOM     27  S   UNL     1      63.878  64.633  70.453  0.00  0.00    +0.000 S 
ATOM     28  O   UNL     1      64.488  64.289  70.018  0.00  0.00    +0.000 OA
ATOM     29  O   UNL     1      64.361  65.281  70.618  0.00  0.00    +0.000 OA
ATOM     30  O   UNL     1      63.394  63.986  70.287  0.00  0.00    +0.000 OA
ENDROOT
TORSDOF 0
ENDMDL
MODEL 3
REMARK VINA RESULT:   -11.613      3.138      3.881
REMARK INTER + INTRA:         -11.613
REMARK INTER:                 -11.613
REMARK INTRA:                   0.000
REMARK UNBOUND:                 0.000
ROOT
REMARK  Name = carumonam
REMARK                            x       y       z     vdW  Elec       q    Type
REMARK                         _______ _______ _______ _____ _____    ______ ____
ATOM      1  N   UNL     1      60.725  66.428  73.222  0.00  0.00    +0.000 NA
ATOM      2  C   UNL     1      60.709  65.819  72.665  0.00  0.00    +0.000 C 
ATOM      3  O   UNL     1      60.972  65.065  72.871  0.00  0.00    +0.000 OA
ATOM      4  O   UNL     1      60.430  65.965  71.902  0.00  0.00    +0.000 OA
ATOM      5  C   UNL     1      60.414  65.357  71.346  0.00  0.00    +0.000 C 
ATOM      6  C   UNL     1      60.135  65.503  70.584  0.00  0.00    +0.000 C 
ATOM      7  C   UNL     1      60.038  65.050  69.901  0.00  0.00    +0.000 C 
ATOM      8  N   UNL     1      60.181  64.263  69.698  0.00  0.00    +0.000 NA
ATOM      9  C   UNL     1      60.494  63.743  70.257  0.00  0.00    +0.000 C 
ATOM     10  O   UNL     1      60.664  64.010  71.018  0.00  0.00    +0.000 OA
ATOM     11  C   UNL     1      60.637  62.956  70.054  0.00  0.00    +0.000 C 
ATOM     12  N   UNL     1      60.950  62.436  70.612  0.00  0.00    +0.000 NA
ATOM     13  O   UNL     1      61.120  62.703  71.375  0.00  0.00    +0.000 OA
ATOM     14  C   UNL     1      60.978  63.490  71.578  0.00  0.00    +0.000 C 
ATOM     15  C   UNL     1      61.148  63.758  72.339  0.00  0.00    +0.000 C 
ATOM     16  O   UNL     1      61.461  63.237  72.898  0.00  0.00    +0.000 OA
ATOM     17  O   UNL     1      61.005  64.544  72.542  0.00  0.00    +0.000 OA
ATOM     18  C   UNL     1      60.466  62.689  69.292  0.00  0.00    +0.000 A 
ATOM     19  C   UNL     1      60.579  61.922  69.011  0.00  0.00    +0.000 A 
ATOM     20  S   UNL     1      60.335  61.900  68.223  0.00  0.00    +0.000 S 
ATOM     21  C   UNL     1      60.072  62.655  68.018  0.00  0.00    +0.000 A 
ATOM     22  N   UNL     1      59.779  62.882  67.280  0.00  0.00    +0.000 NA
ATOM     23  N   UNL     1      60.153  63.142  68.678  0.00  0.00    +0.000 NA
ATOM     24  C   UNL     1      59.740  65.709  69.505  0.00  0.00    +0.000 C 
ATOM     25  O   UNL     1      59.460  65.855  68.743  0.00  0.00    +0.000 OA
ATOM     26  N   UNL     1      59.836  66.162  70.187  0.00  0.00    +0.000 N 
ATOM     27  S   UNL     1      59.694  66.949  70.390  0.00  0.00    +0.000 S 
ATOM     28  O   UNL     1      59.551  67.736  70.593  0.00  0.00    +0.000 OA
ATOM     29  O   UNL     1      59.973  66.803  71.153  0.00  0.00    +0.000 OA
ATOM     30  O   UNL     1      59.414  67.095  69.628  0.00  0.00    +0.000 OA
ENDROOT
TORSDOF 0
ENDMDL
MODEL 4
REMARK VINA RESULT:   -11.483      2.927      4.601
REMARK INTER + INTRA:         -11.483
REMARK INTER:                 -11.483
REMARK INTRA:                   0.000
REMARK UNBOUND:                 0.000
ROOT
REMARK  Name = carumonam
REMARK                            x       y       z     vdW  Elec       q    Type
REMARK                         _______ _______ _______ _____ _____    ______ ____
ATOM      1  N   UNL     1      61.603  63.582  72.991  0.00  0.00    +0.000 NA
ATOM      2  C   UNL     1      61.468  63.354  72.210  0.00  0.00    +0.000 C 
ATOM      3  O   UNL     1      60.913  62.767  72.042  0.00  0.00    +0.000 OA
ATOM      4  O   UNL     1      61.888  63.712  71.597  0.00  0.00    +0.000 OA
ATOM      5  C   UNL     1      61.752  63.484  70.816  0.00  0.00    +0.000 C 
ATOM      6  C   UNL     1      62.172  63.842  70.203  0.00  0.00    +0.000 C 
ATOM      7  C   UNL     1      62.188  63.764  69.382  0.00  0.00    +0.000 C 
ATOM      8  N   UNL     1      61.789  63.293  68.834  0.00  0.00    +0.000 NA
ATOM      9  C   UNL     1      61.226  62.747  69.091  0.00  0.00    +0.000 C 
ATOM     10  O   UNL     1      61.062  62.672  69.895  0.00  0.00    +0.000 OA
ATOM     11  C   UNL     1      60.827  62.276  68.542  0.00  0.00    +0.000 C 
ATOM     12  N   UNL     1      60.264  61.731  68.799  0.00  0.00    +0.000 NA
ATOM     13  O   UNL     1      60.100  61.656  69.604  0.00  0.00    +0.000 OA
ATOM     14  C   UNL     1      60.499  62.126  70.152  0.00  0.00    +0.000 C 
ATOM     15  C   UNL     1      60.335  62.051  70.957  0.00  0.00    +0.000 C 
ATOM     16  O   UNL     1      59.771  61.505  71.214  0.00  0.00    +0.000 OA
ATOM     17  O   UNL     1      60.733  62.522  71.505  0.00  0.00    +0.000 OA
ATOM     18  C   UNL     1      60.992  62.351  67.737  0.00  0.00    +0.000 A 
ATOM     19  C   UNL     1      60.639  61.921  67.128  0.00  0.00    +0.000 A 
ATOM     20  S   UNL     1      60.967  62.174  66.414  0.00  0.00    +0.000 S 
ATOM     21  C   UNL     1      61.522  62.760  66.583  0.00  0.00    +0.000 A 
ATOM     22  N   UNL     1      61.981  63.166  66.030  0.00  0.00    +0.000 NA
ATOM     23  N   UNL     1      61.538  62.871  67.400  0.00  0.00    +0.000 NA
ATOM     24  C   UNL     1      62.766  64.349  69.336  0.00  0.00    +0.000 C 
ATOM     25  O   UNL     1      63.186  64.708  68.723  0.00  0.00    +0.000 OA
ATOM     26  N   UNL     1      62.751  64.428  70.156  0.00  0.00    +0.000 N 
ATOM     27  S   UNL     1      63.150  64.899  70.704  0.00  0.00    +0.000 S 
ATOM     28  O   UNL     1      63.548  65.369  71.252  0.00  0.00    +0.000 OA
ATOM     29  O   UNL     1      62.730  64.541  71.317  0.00  0.00    +0.000 OA
ATOM     30  O   UNL     1      63.570  65.257  70.091  0.00  0.00    +0.000 OA
ENDROOT
TORSDOF 0
ENDMDL
MODEL 5
REMARK VINA RESULT:   -11.382      3.119      5.001
REMARK INTER + INTRA:         -11.382
REMARK INTER:                 -11.382
REMARK INTRA:                   0.000
REMARK UNBOUND:                 0.000
ROOT
REMARK  Name = carumonam
REMARK                            x       y       z     vdW  Elec       q    Type
REMARK                         _______ _______ _______ _____ _____    ______ ____
ATOM      1  N   UNL     1      61.652  61.048  71.372  0.00  0.00    +0.000 NA
ATOM      2  C   UNL     1      61.440  61.845  71.327  0.00  0.00    +0.000 C 
ATOM      3  O   UNL     1      61.540  62.335  71.983  0.00  0.00    +0.000 OA
ATOM      4  O   UNL     1      61.128  62.151  70.627  0.00  0.00    +0.000 OA
ATOM      5  C   UNL     1      60.916  62.946  70.584  0.00  0.00    +0.000 C 
ATOM      6  C   UNL     1      60.604  63.252  69.884  0.00  0.00    +0.000 C 
ATOM      7  C   UNL     1      60.337  63.993  69.638  0.00  0.00    +0.000 C 
ATOM      8  N   UNL     1      60.273  64.736  69.991  0.00  0.00    +0.000 NA
ATOM      9  C   UNL     1      60.511  64.843  70.775  0.00  0.00    +0.000 C 
ATOM     10  O   UNL     1      60.813  64.206  71.204  0.00  0.00    +0.000 OA
ATOM     11  C   UNL     1      60.446  65.586  71.128  0.00  0.00    +0.000 C 
ATOM     12  N   UNL     1      60.684  65.693  71.911  0.00  0.00    +0.000 NA
ATOM     13  O   UNL     1      60.986  65.056  72.340  0.00  0.00    +0.000 OA
ATOM     14  C   UNL     1      61.051  64.313  71.987  0.00  0.00    +0.000 C 
ATOM     15  C   UNL     1      61.354  63.677  72.416  0.00  0.00    +0.000 C 
ATOM     16  O   UNL     1      61.592  63.784  73.199  0.00  0.00    +0.000 OA
ATOM     17  O   UNL     1      61.418  62.934  72.063  0.00  0.00    +0.000 OA
ATOM     18  C   UNL     1      60.143  66.222  70.698  0.00  0.00    +0.000 A 
ATOM     19  C   UNL     1      60.046  66.992  70.976  0.00  0.00    +0.000 A 
ATOM     20  S   UNL     1      59.728  67.446  70.365  0.00  0.00    +0.000 S 
ATOM     21  C   UNL     1      59.628  66.955  69.710  0.00  0.00    +0.000 A 
ATOM     22  N   UNL     1      59.324  67.182  68.977  0.00  0.00    +0.000 NA
ATOM     23  N   UNL     1      59.884  66.199  69.915  0.00  0.00    +0.000 NA
ATOM     24  C   UNL     1      60.163  63.684  68.894  0.00  0.00    +0.000 C 
ATOM     25  O   UNL     1      59.850  63.990  68.194  0.00  0.00    +0.000 OA
ATOM     26  N   UNL     1      60.429  62.943  69.139  0.00  0.00    +0.000 N 
ATOM     27  S   UNL     1      60.493  62.201  68.786  0.00  0.00    +0.000 S 
ATOM     28  O   UNL     1      60.558  61.458  68.432  0.00  0.00    +0.000 OA
ATOM     29  O   UNL     1      60.805  61.895  69.485  0.00  0.00    +0.000 OA
ATOM     30  O   UNL     1      60.181  62.506  68.086  0.00  0.00    +0.000 OA
ENDROOT
TORSDOF 0
ENDMDL
MODEL 6
REMARK VINA RESULT:   -11.230      1.758      3.192
REMARK INTER + INTRA:         -11.230
REMARK INTER:                 -11.230
REMARK INTRA:                   0.000
REMARK UNBOUND:                 0.000
ROOT
REMARK  Name = carumonam
REMARK                            x       y       z     vdW  Elec       q    Type
REMARK                         _______ _______ _______ _____ _____    ______ ____
ATOM      1  N   UNL     1      62.788  68.430  73.144  0.00  0.00    +0.000 NA
ATOM      2  C   UNL     1      62.439  67.922  72.595  0.00  0.00    +0.000 C 
ATOM      3  O   UNL     1      61.623  67.943  72.475  0.00  0.00    +0.000 OA
ATOM      4  O   UNL     1      62.906  67.393  72.167  0.00  0.00    +0.000 OA
ATOM      5  C   UNL     1      62.558  66.886  71.619  0.00  0.00    +0.000 C 
ATOM      6  C   UNL     1      63.025  66.357  71.191  0.00  0.00    +0.000 C 
ATOM      7  C   UNL     1      62.880  65.785  70.615  0.00  0.00    +0.000 C 
ATOM      8  N   UNL     1      62.208  65.503  70.228  0.00  0.00    +0.000 NA
ATOM      9  C   UNL     1      61.467  65.820  70.406  0.00  0.00    +0.000 C 
ATOM     10  O   UNL     1      61.399  66.419  70.969  0.00  0.00    +0.000 OA
ATOM     11  C   UNL     1      60.794  65.539  70.019  0.00  0.00    +0.000 C 
ATOM     12  N   UNL     1      60.053  65.856  70.196  0.00  0.00    +0.000 NA
ATOM     13  O   UNL     1      59.985  66.454  70.760  0.00  0.00    +0.000 OA
ATOM     14  C   UNL     1      60.657  66.736  71.147  0.00  0.00    +0.000 C 
ATOM     15  C   UNL     1      60.590  67.334  71.711  0.00  0.00    +0.000 C 
ATOM     16  O   UNL     1      59.848  67.651  71.888  0.00  0.00    +0.000 OA
ATOM     17  O   UNL     1      61.262  67.615  72.097  0.00  0.00    +0.000 OA
ATOM     18  C   UNL     1      60.863  64.940  69.455  0.00  0.00    +0.000 A 
ATOM     19  C   UNL     1      60.243  64.606  69.026  0.00  0.00    +0.000 A 
ATOM     20  S   UNL     1      60.560  64.030  68.526  0.00  0.00    +0.000 S 
ATOM     21  C   UNL     1      61.376  64.010  68.648  0.00  0.00    +0.000 A 
ATOM     22  N   UNL     1      61.911  63.513  68.262  0.00  0.00    +0.000 NA
ATOM     23  N   UNL     1      61.563  64.572  69.221  0.00  0.00    +0.000 NA
ATOM     24  C   UNL     1      63.686  65.610  70.586  0.00  0.00    +0.000 C 
ATOM     25  O   UNL     1      64.153  65.081  70.158  0.00  0.00    +0.000 OA
ATOM     26  N   UNL     1      63.831  66.182  71.161  0.00  0.00    +0.000 N 
ATOM     27  S   UNL     1      64.503  66.463  71.548  0.00  0.00    +0.000 S 
ATOM     28  O   UNL     1      65.175  66.745  71.934  0.00  0.00    +0.000 OA
ATOM     29  O   UNL     1      64.036  66.992  71.976  0.00  0.00    +0.000 OA
ATOM     30  O   UNL     1      64.970  65.935  71.120  0.00  0.00    +0.000 OA
ENDROOT
TORSDOF 0
ENDMDL
MODEL 7
REMARK VINA RESULT:   -11.158      1.498      2.270
REMARK INTER + INTRA:         -11.158
REMARK INTER:                 -11.158
REMARK INTRA:                   0.000
REMARK UNBOUND:                 0.000
ROOT
REMARK  Name = carumonam
REMARK                            x       y       z     vdW  Elec       q    Type
REMARK                         _______ _______ _______ _____ _____    ______ ____
ATOM      1  N   UNL     1      64.629  64.423  69.921  0.00  0.00    +0.000 NA
ATOM      2  C   UNL     1      63.864  64.557  70.202  0.00  0.00    +0.000 C 
ATOM      3  O   UNL     1      63.254  64.042  69.995  0.00  0.00    +0.000 OA
ATOM      4  O   UNL     1      63.711  65.206  70.688  0.00  0.00    +0.000 OA
ATOM      5  C   UNL     1      62.947  65.339  70.968  0.00  0.00    +0.000 C 
ATOM      6  C   UNL     1      62.794  65.987  71.455  0.00  0.00    +0.000 C 
ATOM      7  C   UNL     1      62.124  66.291  71.830  0.00  0.00    +0.000 C 
ATOM      8  N   UNL     1      61.330  66.070  71.873  0.00  0.00    +0.000 NA
ATOM      9  C   UNL     1      61.066  65.398  71.473  0.00  0.00    +0.000 C 
ATOM     10  O   UNL     1      61.596  64.947  71.030  0.00  0.00    +0.000 OA
ATOM     11  C   UNL     1      60.272  65.178  71.516  0.00  0.00    +0.000 C 
ATOM     12  N   UNL     1      60.007  64.507  71.116  0.00  0.00    +0.000 NA
ATOM     13  O   UNL     1      60.538  64.055  70.673  0.00  0.00    +0.000 OA
ATOM     14  C   UNL     1      61.331  64.275  70.630  0.00  0.00    +0.000 C 
ATOM     15  C   UNL     1      61.862  63.824  70.187  0.00  0.00    +0.000 C 
ATOM     16  O   UNL     1      61.597  63.152  69.787  0.00  0.00    +0.000 OA
ATOM     17  O   UNL     1      62.656  64.044  70.144  0.00  0.00    +0.000 OA
ATOM     18  C   UNL     1      59.741  65.630  71.959  0.00  0.00    +0.000 A 
ATOM     19  C   UNL     1      58.936  65.478  72.052  0.00  0.00    +0.000 A 
ATOM     20  S   UNL     1      58.621  66.067  72.537  0.00  0.00    +0.000 S 
ATOM     21  C   UNL     1      59.232  66.581  72.743  0.00  0.00    +0.000 A 
ATOM     22  N   UNL     1      59.162  67.250  73.222  0.00  0.00    +0.000 NA
ATOM     23  N   UNL     1      59.924  66.312  72.386  0.00  0.00    +0.000 NA
ATOM     24  C   UNL     1      62.577  66.904  72.143  0.00  0.00    +0.000 C 
ATOM     25  O   UNL     1      62.423  67.553  72.629  0.00  0.00    +0.000 OA
ATOM     26  N   UNL     1      63.246  66.602  71.769  0.00  0.00    +0.000 N 
ATOM     27  S   UNL     1      64.040  66.822  71.726  0.00  0.00    +0.000 S 
ATOM     28  O   UNL     1      64.834  67.042  71.683  0.00  0.00    +0.000 OA
ATOM     29  O   UNL     1      64.193  66.174  71.239  0.00  0.00    +0.000 OA
ATOM     30  O   UNL     1      63.887  67.470  72.212  0.00  0.00    +0.000 OA
ENDROOT
TORSDOF 0
ENDMDL
MODEL 8
REMARK VINA RESULT:   -11.062      1.492      4.730
REMARK INTER + INTRA:         -11.062
REMARK INTER:                 -11.062
REMARK INTRA:                   0.000
REMARK UNBOUND:                 0.000
ROOT
REMARK  Name = carumonam
REMARK                            x       y       z     vdW  Elec       q    Type
REMARK                         _______ _______ _______ _____ _____    ______ ____
ATOM      1  N   UNL     1      58.630  64.752  72.201  0.00  0.00    +0.000 NA
ATOM      2  C   UNL     1      59.370  65.116  72.174  0.00  0.00    +0.000 C 
ATOM      3  O   UNL     1      59.482  65.849  72.534  0.00  0.00    +0.000 OA
ATOM      4  O   UNL     1      59.998  64.746  71.787  0.00  0.00    +0.000 OA
ATOM      5  C   UNL     1      60.738  65.110  71.761  0.00  0.00    +0.000 C 
ATOM      6  C   UNL     1      61.365  64.740  71.374  0.00  0.00    +0.000 C 
ATOM      7  C   UNL     1      62.157  64.926  71.236  0.00  0.00    +0.000 C 
ATOM      8  N   UNL     1      62.649  65.560  71.428  0.00  0.00    +0.000 NA
ATOM      9  C   UNL     1      62.351  66.198  71.860  0.00  0.00    +0.000 C 
ATOM     10  O   UNL     1      61.562  66.201  72.098  0.00  0.00    +0.000 OA
ATOM     11  C   UNL     1      62.843  66.832  72.052  0.00  0.00    +0.000 C 
ATOM     12  N   UNL     1      62.546  67.469  72.483  0.00  0.00    +0.000 NA
ATOM     13  O   UNL     1      61.755  67.472  72.722  0.00  0.00    +0.000 OA
ATOM     14  C   UNL     1      61.264  66.838  72.530  0.00  0.00    +0.000 C 
ATOM     15  C   UNL     1      60.474  66.841  72.768  0.00  0.00    +0.000 C 
ATOM     16  O   UNL     1      60.176  67.479  73.200  0.00  0.00    +0.000 OA
ATOM     17  O   UNL     1      59.982  66.207  72.576  0.00  0.00    +0.000 OA
ATOM     18  C   UNL     1      63.633  66.829  71.813  0.00  0.00    +0.000 A 
ATOM     19  C   UNL     1      64.188  67.420  71.964  0.00  0.00    +0.000 A 
ATOM     20  S   UNL     1      64.904  67.190  71.626  0.00  0.00    +0.000 S 
ATOM     21  C   UNL     1      64.792  66.456  71.266  0.00  0.00    +0.000 A 
ATOM     22  N   UNL     1      65.365  66.022  70.861  0.00  0.00    +0.000 NA
ATOM     23  N   UNL     1      64.007  66.232  71.381  0.00  0.00    +0.000 NA
ATOM     24  C   UNL     1      62.254  64.217  70.827  0.00  0.00    +0.000 C 
ATOM     25  O   UNL     1      62.882  63.847  70.440  0.00  0.00    +0.000 OA
ATOM     26  N   UNL     1      61.462  64.030  70.964  0.00  0.00    +0.000 N 
ATOM     27  S   UNL     1      60.971  63.397  70.772  0.00  0.00    +0.000 S 
ATOM     28  O   UNL     1      60.479  62.763  70.579  0.00  0.00    +0.000 OA
ATOM     29  O   UNL     1      60.343  63.766  71.158  0.00  0.00    +0.000 OA
ATOM     30  O   UNL     1      61.599  63.027  70.385  0.00  0.00    +0.000 OA
ENDROOT
TORSDOF 0
ENDMDL
MODEL 9
REMARK VINA RESULT:   -11.061      2.186      2.891
REMARK INTER + INTRA:         -11.061
REMARK INTER:                 -11.061
REMARK INTRA:                   0.000
REMARK UNBOUND:                 0.000
ROOT
REMARK  Name = carumonam
REMARK                            x       y       z     vdW  Elec       q    Type
REMARK                         _______ _______ _______ _____ _____    ______ ____
ATOM      1  N   UNL     1      62.233  68.045  72.888  0.00  0.00    +0.000 NA
ATOM      2  C   UNL     1      62.231  67.450  72.315  0.00  0.00    +0.000 C 
ATOM      3  O   UNL     1      62.918  67.020  72.167  0.00  0.00    +0.000 OA
ATOM      4  O   UNL     1      61.541  67.287  71.892  0.00  0.00    +0.000 OA
ATOM      5  C   UNL     1      61.539  66.693  71.321  0.00  0.00    +0.000 C 
ATOM      6  C   UNL     1      60.850  66.530  70.898  0.00  0.00    +0.000 C 
ATOM      7  C   UNL     1      60.642  65.996  70.304  0.00  0.00    +0.000 C 
ATOM      8  N   UNL     1      61.038  65.404  69.888  0.00  0.00    +0.000 NA
ATOM      9  C   UNL     1      61.833  65.249  70.046  0.00  0.00    +0.000 C 
ATOM     10  O   UNL     1      62.231  65.686  70.620  0.00  0.00    +0.000 OA
ATOM     11  C   UNL     1      62.229  64.656  69.630  0.00  0.00    +0.000 C 
ATOM     12  N   UNL     1      63.023  64.501  69.787  0.00  0.00    +0.000 NA
ATOM     13  O   UNL     1      63.422  64.939  70.362  0.00  0.00    +0.000 OA
ATOM     14  C   UNL     1      63.027  65.531  70.779  0.00  0.00    +0.000 C 
ATOM     15  C   UNL     1      63.425  65.969  71.353  0.00  0.00    +0.000 C 
ATOM     16  O   UNL     1      64.221  65.814  71.511  0.00  0.00    +0.000 OA
ATOM     17  O   UNL     1      63.030  66.561  71.769  0.00  0.00    +0.000 OA
ATOM     18  C   UNL     1      61.829  64.218  69.055  0.00  0.00    +0.000 A 
ATOM     19  C   UNL     1      62.151  63.613  68.597  0.00  0.00    +0.000 A 
ATOM     20  S   UNL     1      61.559  63.330  68.096  0.00  0.00    +0.000 S 
ATOM     21  C   UNL     1      60.872  63.761  68.246  0.00  0.00    +0.000 A 
ATOM     22  N   UNL     1      60.145  63.661  67.868  0.00  0.00    +0.000 NA
ATOM     23  N   UNL     1      61.038  64.310  68.838  0.00  0.00    +0.000 NA
ATOM     24  C   UNL     1      59.875  66.299  70.299  0.00  0.00    +0.000 C 
ATOM     25  O   UNL     1      59.186  66.136  69.876  0.00  0.00    +0.000 OA
ATOM     26  N   UNL     1      60.083  66.833  70.892  0.00  0.00    +0.000 N 
ATOM     27  S   UNL     1      59.687  67.425  71.308  0.00  0.00    +0.000 S 
ATOM     28  O   UNL     1      59.291  68.018  71.725  0.00  0.00    +0.000 OA
ATOM     29  O   UNL     1      60.376  67.589  71.731  0.00  0.00    +0.000 OA
ATOM     30  O   UNL     1      58.998  67.262  70.885  0.00  0.00    +0.000 OA
ENDROOT
TORSDOF 0
ENDMDL
