MODEL 1
REMARK VINA RESULT:   -12.472      0.000      0.000
REMARK INTER + INTRA:         -12.472
REMARK INTER:                 -12.472
REMARK INTRA:                   0.000
REMARK UNBOUND:                 0.000
ROOT
REMARK  Name = cefaloglycin
REMARK                            x       y       z     vdW  Elec       q    Type
REMARK                         _______ _______ _______ _____ _____    ______ ____
ATOM      1  C   UNL     1      58.993  64.995  72.299  0.00  0.00    +0.000 C 
ATOM      2  C   UNL     1      59.730  65.005  71.930  0.00  0.00    +0.000 C 
ATOM      3  O   UNL     1      60.371  65.375  72.297  0.00  0.00    +0.000 OA
ATOM      4  O   UNL     1      59.828  64.645  71.193  0.00  0.00    +0.000 OA
ATOM      5  C   UNL     1      60.565  64.655  70.824  0.00  0.00    +0.000 C 
ATOM      6  C   UNL     1      60.664  64.295  70.088  0.00  0.00    +0.000 C 
ATOM      7  CA  UNL     1      61.401  64.305  69.719  0.00  0.00    +0.000 C 
ATOM      8  N   UNL     1      61.499  63.946  68.983  0.00  0.00    +0.000 N 
ATOM      9  C   UNL     1      60.859  63.576  68.617  0.00  0.00    +0.000 C 
ATOM     10  S   UNL     1      60.122  63.566  68.986  0.00  0.00    +0.000 S 
ATOM     11  C   UNL     1      60.024  63.926  69.721  0.00  0.00    +0.000 C 
ATOM     12  CA  UNL     1      61.342  63.374  67.978  0.00  0.00    +0.000 C 
ATOM     13  N   UNL     1      61.230  62.970  67.268  0.00  0.00    +0.000 NA
ATOM     14  C   UNL     1      60.487  62.665  67.079  0.00  0.00    +0.000 C 
ATOM     15  O   UNL     1      59.855  62.764  67.600  0.00  0.00    +0.000 OA
ATOM     16  CA  UNL     1      60.375  62.261  66.368  0.00  0.00    +0.000 C 
ATOM     17  N   UNL     1      59.633  61.956  66.180  0.00  0.00    +0.000 NA
ATOM     18  C   UNL     1      61.007  62.162  65.846  0.00  0.00    +0.000 A 
ATOM     19  C   UNL     1      61.750  62.467  66.036  0.00  0.00    +0.000 A 
ATOM     20  C   UNL     1      62.381  62.367  65.514  0.00  0.00    +0.000 A 
ATOM     21  C   UNL     1      62.270  61.963  64.804  0.00  0.00    +0.000 A 
ATOM     22  C   UNL     1      61.527  61.658  64.614  0.00  0.00    +0.000 A 
ATOM     23  C   UNL     1      60.896  61.758  65.136  0.00  0.00    +0.000 A 
ATOM     24  C   UNL     1      61.981  63.744  68.344  0.00  0.00    +0.000 C 
ATOM     25  O   UNL     1      62.774  63.863  68.153  0.00  0.00    +0.000 OA
ATOM     26  C   UNL     1      62.041  64.675  70.086  0.00  0.00    +0.000 C 
ATOM     27  O   UNL     1      62.778  64.685  69.717  0.00  0.00    +0.000 OA
ATOM     28  OXT UNL     1      61.944  65.035  70.821  0.00  0.00    +0.000 OA
ENDROOT
TORSDOF 0
ENDMDL
MODEL 2
REMARK VINA RESULT:   -12.226      1.690      5.571
REMARK INTER + INTRA:         -12.226
REMARK INTER:                 -12.226
REMARK INTRA:                   0.000
REMARK UNBOUND:                 0.000
ROOT
REMARK  Name = cefaloglycin
REMARK                            x       y       z     vdW  Elec       q    Type
REMARK                         _______ _______ _______ _____ _____    ______ ____
ATOM      1  C   UNL     1      61.623  62.752  65.741  0.00  0.00    +0.000 C 
ATOM      2  C   UNL     1      61.444  62.472  66.495  0.00  0.00    +0.000 C 
ATOM      3  O   UNL     1      61.532  61.670  66.670  0.00  0.00    +0.000 OA
ATOM      4  O   UNL     1      61.176  62.993  67.077  0.00  0.00    +0.000 OA
ATOM      5  C   UNL     1      60.997  62.713  67.831  0.00  0.00    +0.000 C 
ATOM      6  C   UNL     1      60.729  63.234  68.412  0.00  0.00    +0.000 C 
ATOM      7  CA  UNL     1      60.550  62.954  69.166  0.00  0.00    +0.000 C 
ATOM      8  N   UNL     1      60.282  63.475  69.747  0.00  0.00    +0.000 N 
ATOM      9  C   UNL     1      60.194  64.277  69.573  0.00  0.00    +0.000 C 
ATOM     10  S   UNL     1      60.374  64.557  68.818  0.00  0.00    +0.000 S 
ATOM     11  C   UNL     1      60.641  64.036  68.238  0.00  0.00    +0.000 C 
ATOM     12  CA  UNL     1      59.936  64.416  70.345  0.00  0.00    +0.000 C 
ATOM     13  N   UNL     1      59.691  65.081  70.766  0.00  0.00    +0.000 NA
ATOM     14  C   UNL     1      59.673  65.819  70.398  0.00  0.00    +0.000 C 
ATOM     15  O   UNL     1      59.899  65.893  69.608  0.00  0.00    +0.000 OA
ATOM     16  CA  UNL     1      59.428  66.485  70.821  0.00  0.00    +0.000 C 
ATOM     17  N   UNL     1      59.410  67.223  70.452  0.00  0.00    +0.000 NA
ATOM     18  C   UNL     1      59.201  66.412  71.611  0.00  0.00    +0.000 A 
ATOM     19  C   UNL     1      59.220  65.673  71.978  0.00  0.00    +0.000 A 
ATOM     20  C   UNL     1      58.993  65.601  72.768  0.00  0.00    +0.000 A 
ATOM     21  C   UNL     1      58.748  66.266  73.190  0.00  0.00    +0.000 A 
ATOM     22  C   UNL     1      58.730  67.004  72.822  0.00  0.00    +0.000 A 
ATOM     23  C   UNL     1      58.956  67.077  72.032  0.00  0.00    +0.000 A 
ATOM     24  C   UNL     1      60.024  63.615  70.519  0.00  0.00    +0.000 C 
ATOM     25  O   UNL     1      59.903  63.147  71.187  0.00  0.00    +0.000 OA
ATOM     26  C   UNL     1      60.638  62.152  69.341  0.00  0.00    +0.000 C 
ATOM     27  O   UNL     1      60.458  61.872  70.095  0.00  0.00    +0.000 OA
ATOM     28  OXT UNL     1      60.905  61.631  68.761  0.00  0.00    +0.000 OA
ENDROOT
TORSDOF 0
ENDMDL
MODEL 3
REMARK VINA RESULT:   -12.129      1.363      2.540
REMARK INTER + INTRA:         -12.129
REMARK INTER:                 -12.129
REMARK INTRA:                   0.000
REMARK UNBOUND:                 0.000
ROOT
REMARK  Name = cefaloglycin
REMARK                            x       y       z     vdW  Elec       q    Type
REMARK                         _______ _______ _______ _____ _____    ______ ____
ATOM      1  C   UNL     1      64.728  66.114  71.397  0.00  0.00    +0.000 C 
ATOM      2  C   UNL     1      63.914  65.982  71.404  0.00  0.00    +0.000 C 
ATOM      3  O   UNL     1      63.452  66.284  72.018  0.00  0.00    +0.000 OA
ATOM      4  O   UNL     1      63.561  65.548  70.798  0.00  0.00    +0.000 OA
ATOM      5  C   UNL     1      62.747  65.415  70.805  0.00  0.00    +0.000 C 
ATOM      6  C   UNL     1      62.394  64.981  70.199  0.00  0.00    +0.000 C 
ATOM      7  CA  UNL     1      61.580  64.849  70.206  0.00  0.00    +0.000 C 
ATOM      8  N   UNL     1      61.228  64.415  69.600  0.00  0.00    +0.000 N 
ATOM      9  C   UNL     1      61.689  64.113  68.986  0.00  0.00    +0.000 C 
ATOM     10  S   UNL     1      62.503  64.245  68.979  0.00  0.00    +0.000 S 
ATOM     11  C   UNL     1      62.855  64.679  69.585  0.00  0.00    +0.000 C 
ATOM     12  CA  UNL     1      61.015  63.785  68.640  0.00  0.00    +0.000 C 
ATOM     13  N   UNL     1      60.865  63.341  67.962  0.00  0.00    +0.000 NA
ATOM     14  C   UNL     1      61.485  63.134  67.459  0.00  0.00    +0.000 C 
ATOM     15  O   UNL     1      62.256  63.372  67.634  0.00  0.00    +0.000 OA
ATOM     16  CA  UNL     1      61.335  62.689  66.780  0.00  0.00    +0.000 C 
ATOM     17  N   UNL     1      61.955  62.483  66.277  0.00  0.00    +0.000 NA
ATOM     18  C   UNL     1      60.564  62.451  66.605  0.00  0.00    +0.000 A 
ATOM     19  C   UNL     1      59.945  62.659  67.108  0.00  0.00    +0.000 A 
ATOM     20  C   UNL     1      59.174  62.420  66.932  0.00  0.00    +0.000 A 
ATOM     21  C   UNL     1      59.024  61.976  66.254  0.00  0.00    +0.000 A 
ATOM     22  C   UNL     1      59.644  61.769  65.751  0.00  0.00    +0.000 A 
ATOM     23  C   UNL     1      60.414  62.007  65.927  0.00  0.00    +0.000 A 
ATOM     24  C   UNL     1      60.553  64.087  69.254  0.00  0.00    +0.000 C 
ATOM     25  O   UNL     1      59.751  64.069  69.443  0.00  0.00    +0.000 OA
ATOM     26  C   UNL     1      61.118  65.151  70.820  0.00  0.00    +0.000 C 
ATOM     27  O   UNL     1      60.305  65.018  70.827  0.00  0.00    +0.000 OA
ATOM     28  OXT UNL     1      61.471  65.585  71.426  0.00  0.00    +0.000 OA
ENDROOT
TORSDOF 0
ENDMDL
MODEL 4
REMARK VINA RESULT:   -11.746      2.785      4.644
REMARK INTER + INTRA:         -11.746
REMARK INTER:                 -11.746
REMARK INTRA:                   0.000
REMARK UNBOUND:                 0.000
ROOT
REMARK  Name = cefaloglycin
REMARK                            x       y       z     vdW  Elec       q    Type
REMARK                         _______ _______ _______ _____ _____    ______ ____
ATOM      1  C   UNL     1      66.501  67.986  69.474  0.00  0.00    +0.000 C 
ATOM      2  C   UNL     1      66.049  67.723  70.111  0.00  0.00    +0.000 C 
ATOM      3  O   UNL     1      66.168  68.044  70.862  0.00  0.00    +0.000 OA
ATOM      4  O   UNL     1      65.476  67.140  69.998  0.00  0.00    +0.000 OA
ATOM      5  C   UNL     1      65.023  66.877  70.635  0.00  0.00    +0.000 C 
ATOM      6  C   UNL     1      64.451  66.293  70.522  0.00  0.00    +0.000 C 
ATOM      7  CA  UNL     1      63.998  66.030  71.159  0.00  0.00    +0.000 C 
ATOM      8  N   UNL     1      63.426  65.448  71.046  0.00  0.00    +0.000 N 
ATOM      9  C   UNL     1      63.307  65.127  70.295  0.00  0.00    +0.000 C 
ATOM     10  S   UNL     1      63.759  65.390  69.658  0.00  0.00    +0.000 S 
ATOM     11  C   UNL     1      64.331  65.973  69.771  0.00  0.00    +0.000 C 
ATOM     12  CA  UNL     1      62.714  64.638  70.598  0.00  0.00    +0.000 C 
ATOM     13  N   UNL     1      62.211  64.067  70.282  0.00  0.00    +0.000 NA
ATOM     14  C   UNL     1      62.249  63.884  69.478  0.00  0.00    +0.000 C 
ATOM     15  O   UNL     1      62.790  64.273  68.991  0.00  0.00    +0.000 OA
ATOM     16  CA  UNL     1      61.746  63.311  69.161  0.00  0.00    +0.000 C 
ATOM     17  N   UNL     1      61.784  63.129  68.358  0.00  0.00    +0.000 NA
ATOM     18  C   UNL     1      61.205  62.922  69.648  0.00  0.00    +0.000 A 
ATOM     19  C   UNL     1      61.168  63.106  70.451  0.00  0.00    +0.000 A 
ATOM     20  C   UNL     1      60.627  62.716  70.938  0.00  0.00    +0.000 A 
ATOM     21  C   UNL     1      60.124  62.145  70.621  0.00  0.00    +0.000 A 
ATOM     22  C   UNL     1      60.161  61.961  69.817  0.00  0.00    +0.000 A 
ATOM     23  C   UNL     1      60.702  62.351  69.331  0.00  0.00    +0.000 A 
ATOM     24  C   UNL     1      62.834  64.958  71.349  0.00  0.00    +0.000 C 
ATOM     25  O   UNL     1      62.500  64.840  72.094  0.00  0.00    +0.000 OA
ATOM     26  C   UNL     1      64.118  66.351  71.911  0.00  0.00    +0.000 C 
ATOM     27  O   UNL     1      63.666  66.088  72.548  0.00  0.00    +0.000 OA
ATOM     28  OXT UNL     1      64.690  66.934  72.024  0.00  0.00    +0.000 OA
ENDROOT
TORSDOF 0
ENDMDL
MODEL 5
REMARK VINA RESULT:   -11.143      4.278      6.250
REMARK INTER + INTRA:         -11.143
REMARK INTER:                 -11.143
REMARK INTRA:                   0.000
REMARK UNBOUND:                 0.000
ROOT
REMARK  Name = cefaloglycin
REMARK                            x       y       z     vdW  Elec       q    Type
REMARK                         _______ _______ _______ _____ _____    ______ ____
ATOM      1  C   UNL     1      65.674  67.322  71.211  0.00  0.00    +0.000 C 
ATOM      2  C   UNL     1      65.205  66.649  71.127  0.00  0.00    +0.000 C 
ATOM      3  O   UNL     1      65.528  65.959  70.808  0.00  0.00    +0.000 OA
ATOM      4  O   UNL     1      64.414  66.664  71.361  0.00  0.00    +0.000 OA
ATOM      5  C   UNL     1      63.946  65.991  71.277  0.00  0.00    +0.000 C 
ATOM      6  C   UNL     1      63.155  66.006  71.512  0.00  0.00    +0.000 C 
ATOM      7  CA  UNL     1      62.686  65.333  71.428  0.00  0.00    +0.000 C 
ATOM      8  N   UNL     1      61.896  65.348  71.662  0.00  0.00    +0.000 N 
ATOM      9  C   UNL     1      61.574  66.038  71.981  0.00  0.00    +0.000 C 
ATOM     10  S   UNL     1      62.042  66.711  72.065  0.00  0.00    +0.000 S 
ATOM     11  C   UNL     1      62.832  66.695  71.831  0.00  0.00    +0.000 C 
ATOM     12  CA  UNL     1      60.846  65.657  72.068  0.00  0.00    +0.000 C 
ATOM     13  N   UNL     1      60.104  65.876  72.354  0.00  0.00    +0.000 NA
ATOM     14  C   UNL     1      59.982  66.641  72.640  0.00  0.00    +0.000 C 
ATOM     15  O   UNL     1      60.601  67.186  72.639  0.00  0.00    +0.000 OA
ATOM     16  CA  UNL     1      59.239  66.860  72.927  0.00  0.00    +0.000 C 
ATOM     17  N   UNL     1      59.117  67.623  73.212  0.00  0.00    +0.000 NA
ATOM     18  C   UNL     1      58.620  66.314  72.928  0.00  0.00    +0.000 A 
ATOM     19  C   UNL     1      58.743  65.550  72.643  0.00  0.00    +0.000 A 
ATOM     20  C   UNL     1      58.124  65.005  72.644  0.00  0.00    +0.000 A 
ATOM     21  C   UNL     1      57.383  65.223  72.931  0.00  0.00    +0.000 A 
ATOM     22  C   UNL     1      57.259  65.988  73.216  0.00  0.00    +0.000 A 
ATOM     23  C   UNL     1      57.879  66.532  73.215  0.00  0.00    +0.000 A 
ATOM     24  C   UNL     1      61.168  64.968  71.749  0.00  0.00    +0.000 C 
ATOM     25  O   UNL     1      60.882  64.212  71.585  0.00  0.00    +0.000 OA
ATOM     26  C   UNL     1      63.009  64.643  71.108  0.00  0.00    +0.000 C 
ATOM     27  O   UNL     1      62.540  63.970  71.024  0.00  0.00    +0.000 OA
ATOM     28  OXT UNL     1      63.799  64.627  70.874  0.00  0.00    +0.000 OA
ENDROOT
TORSDOF 0
ENDMDL
MODEL 6
REMARK VINA RESULT:   -11.021      3.597      4.735
REMARK INTER + INTRA:         -11.021
REMARK INTER:                 -11.021
REMARK INTRA:                   0.000
REMARK UNBOUND:                 0.000
ROOT
REMARK  Name = cefaloglycin
REMARK                            x       y       z     vdW  Elec       q    Type
REMARK                         _______ _______ _______ _____ _____    ______ ____
ATOM      1  C   UNL     1      63.153  69.484  73.222  0.00  0.00    +0.000 C 
ATOM      2  C   UNL     1      63.518  68.876  72.802  0.00  0.00    +0.000 C 
ATOM      3  O   UNL     1      64.294  68.967  72.534  0.00  0.00    +0.000 OA
ATOM      4  O   UNL     1      63.109  68.176  72.649  0.00  0.00    +0.000 OA
ATOM      5  C   UNL     1      63.473  67.567  72.229  0.00  0.00    +0.000 C 
ATOM      6  C   UNL     1      63.064  66.867  72.077  0.00  0.00    +0.000 C 
ATOM      7  CA  UNL     1      63.429  66.259  71.657  0.00  0.00    +0.000 C 
ATOM      8  N   UNL     1      63.019  65.560  71.504  0.00  0.00    +0.000 N 
ATOM      9  C   UNL     1      62.244  65.469  71.772  0.00  0.00    +0.000 C 
ATOM     10  S   UNL     1      61.880  66.077  72.192  0.00  0.00    +0.000 S 
ATOM     11  C   UNL     1      62.289  66.776  72.345  0.00  0.00    +0.000 C 
ATOM     12  CA  UNL     1      62.218  64.713  71.441  0.00  0.00    +0.000 C 
ATOM     13  N   UNL     1      61.653  64.115  71.397  0.00  0.00    +0.000 NA
ATOM     14  C   UNL     1      60.911  64.223  71.741  0.00  0.00    +0.000 C 
ATOM     15  O   UNL     1      60.734  64.929  72.130  0.00  0.00    +0.000 OA
ATOM     16  CA  UNL     1      60.344  63.624  71.697  0.00  0.00    +0.000 C 
ATOM     17  N   UNL     1      59.603  63.732  72.041  0.00  0.00    +0.000 NA
ATOM     18  C   UNL     1      60.520  62.918  71.308  0.00  0.00    +0.000 A 
ATOM     19  C   UNL     1      61.262  62.810  70.963  0.00  0.00    +0.000 A 
ATOM     20  C   UNL     1      61.437  62.104  70.575  0.00  0.00    +0.000 A 
ATOM     21  C   UNL     1      60.871  61.506  70.530  0.00  0.00    +0.000 A 
ATOM     22  C   UNL     1      60.129  61.613  70.875  0.00  0.00    +0.000 A 
ATOM     23  C   UNL     1      59.954  62.320  71.263  0.00  0.00    +0.000 A 
ATOM     24  C   UNL     1      62.993  64.803  71.173  0.00  0.00    +0.000 C 
ATOM     25  O   UNL     1      63.523  64.334  70.750  0.00  0.00    +0.000 OA
ATOM     26  C   UNL     1      64.205  66.350  71.388  0.00  0.00    +0.000 C 
ATOM     27  O   UNL     1      64.569  65.741  70.968  0.00  0.00    +0.000 OA
ATOM     28  OXT UNL     1      64.614  67.049  71.541  0.00  0.00    +0.000 OA
ENDROOT
TORSDOF 0
ENDMDL
MODEL 7
REMARK VINA RESULT:    -9.641     14.732     15.676
REMARK INTER + INTRA:          -9.641
REMARK INTER:                  -9.641
REMARK INTRA:                   0.000
REMARK UNBOUND:                 0.000
ROOT
REMARK  Name = cefaloglycin
REMARK                            x       y       z     vdW  Elec       q    Type
REMARK                         _______ _______ _______ _____ _____    ______ ____
ATOM      1  C   UNL     1      62.140  58.740  52.278  0.00  0.00    +0.000 C 
ATOM      2  C   UNL     1      62.668  59.237  52.669  0.00  0.00    +0.000 C 
ATOM      3  O   UNL     1      63.375  58.934  52.970  0.00  0.00    +0.000 OA
ATOM      4  O   UNL     1      62.491  60.038  52.760  0.00  0.00    +0.000 OA
ATOM      5  C   UNL     1      63.019  60.536  53.151  0.00  0.00    +0.000 C 
ATOM      6  C   UNL     1      62.842  61.337  53.243  0.00  0.00    +0.000 C 
ATOM      7  CA  UNL     1      63.371  61.834  53.634  0.00  0.00    +0.000 C 
ATOM      8  N   UNL     1      63.193  62.634  53.725  0.00  0.00    +0.000 N 
ATOM      9  C   UNL     1      62.487  62.937  53.424  0.00  0.00    +0.000 C 
ATOM     10  S   UNL     1      61.959  62.439  53.033  0.00  0.00    +0.000 S 
ATOM     11  C   UNL     1      62.136  61.639  52.942  0.00  0.00    +0.000 C 
ATOM     12  CA  UNL     1      62.690  63.687  53.703  0.00  0.00    +0.000 C 
ATOM     13  N   UNL     1      62.334  64.431  53.687  0.00  0.00    +0.000 NA
ATOM     14  C   UNL     1      61.599  64.529  53.325  0.00  0.00    +0.000 C 
ATOM     15  O   UNL     1      61.220  63.883  52.978  0.00  0.00    +0.000 OA
ATOM     16  CA  UNL     1      61.243  65.274  53.309  0.00  0.00    +0.000 C 
ATOM     17  N   UNL     1      60.509  65.371  52.947  0.00  0.00    +0.000 NA
ATOM     18  C   UNL     1      61.622  65.920  53.656  0.00  0.00    +0.000 A 
ATOM     19  C   UNL     1      62.357  65.821  54.018  0.00  0.00    +0.000 A 
ATOM     20  C   UNL     1      62.735  66.467  54.365  0.00  0.00    +0.000 A 
ATOM     21  C   UNL     1      62.379  67.210  54.349  0.00  0.00    +0.000 A 
ATOM     22  C   UNL     1      61.644  67.309  53.987  0.00  0.00    +0.000 A 
ATOM     23  C   UNL     1      61.266  66.663  53.641  0.00  0.00    +0.000 A 
ATOM     24  C   UNL     1      63.396  63.385  54.003  0.00  0.00    +0.000 C 
ATOM     25  O   UNL     1      64.039  63.701  54.412  0.00  0.00    +0.000 OA
ATOM     26  C   UNL     1      64.078  61.531  53.934  0.00  0.00    +0.000 C 
ATOM     27  O   UNL     1      64.606  62.029  54.325  0.00  0.00    +0.000 OA
ATOM     28  OXT UNL     1      64.255  60.732  53.844  0.00  0.00    +0.000 OA
ENDROOT
TORSDOF 0
ENDMDL
MODEL 8
REMARK VINA RESULT:    -9.510     14.573     15.432
REMARK INTER + INTRA:          -9.510
REMARK INTER:                  -9.510
REMARK INTRA:                   0.000
REMARK UNBOUND:                 0.000
ROOT
REMARK  Name = cefaloglycin
REMARK                            x       y       z     vdW  Elec       q    Type
REMARK                         _______ _______ _______ _____ _____    ______ ____
ATOM      1  C   UNL     1      63.144  67.167  54.845  0.00  0.00    +0.000 C 
ATOM      2  C   UNL     1      62.651  66.749  54.334  0.00  0.00    +0.000 C 
ATOM      3  O   UNL     1      62.071  67.148  53.902  0.00  0.00    +0.000 OA
ATOM      4  O   UNL     1      62.736  65.932  54.252  0.00  0.00    +0.000 OA
ATOM      5  C   UNL     1      62.243  65.515  53.740  0.00  0.00    +0.000 C 
ATOM      6  C   UNL     1      62.328  64.698  53.659  0.00  0.00    +0.000 C 
ATOM      7  CA  UNL     1      61.835  64.280  53.147  0.00  0.00    +0.000 C 
ATOM      8  N   UNL     1      61.921  63.465  53.066  0.00  0.00    +0.000 N 
ATOM      9  C   UNL     1      62.500  63.066  53.497  0.00  0.00    +0.000 C 
ATOM     10  S   UNL     1      62.993  63.483  54.008  0.00  0.00    +0.000 S 
ATOM     11  C   UNL     1      62.908  64.299  54.090  0.00  0.00    +0.000 C 
ATOM     12  CA  UNL     1      62.264  62.352  53.154  0.00  0.00    +0.000 C 
ATOM     13  N   UNL     1      62.507  61.567  53.216  0.00  0.00    +0.000 NA
ATOM     14  C   UNL     1      63.128  61.367  53.721  0.00  0.00    +0.000 C 
ATOM     15  O   UNL     1      63.506  61.952  54.164  0.00  0.00    +0.000 OA
ATOM     16  CA  UNL     1      63.372  60.580  53.784  0.00  0.00    +0.000 C 
ATOM     17  N   UNL     1      63.992  60.380  54.289  0.00  0.00    +0.000 NA
ATOM     18  C   UNL     1      62.994  59.995  53.341  0.00  0.00    +0.000 A 
ATOM     19  C   UNL     1      62.373  60.196  52.836  0.00  0.00    +0.000 A 
ATOM     20  C   UNL     1      61.996  59.611  52.394  0.00  0.00    +0.000 A 
ATOM     21  C   UNL     1      62.239  58.825  52.457  0.00  0.00    +0.000 A 
ATOM     22  C   UNL     1      62.860  58.624  52.961  0.00  0.00    +0.000 A 
ATOM     23  C   UNL     1      63.237  59.210  53.404  0.00  0.00    +0.000 A 
ATOM     24  C   UNL     1      61.685  62.751  52.723  0.00  0.00    +0.000 C 
ATOM     25  O   UNL     1      61.109  62.529  52.176  0.00  0.00    +0.000 OA
ATOM     26  C   UNL     1      61.255  64.680  52.716  0.00  0.00    +0.000 C 
ATOM     27  O   UNL     1      60.761  64.262  52.204  0.00  0.00    +0.000 OA
ATOM     28  OXT UNL     1      61.169  65.496  52.797  0.00  0.00    +0.000 OA
ENDROOT
TORSDOF 0
ENDMDL
MODEL 9
REMARK VINA RESULT:    -9.485     14.148     15.602
REMARK INTER + INTRA:          -9.485
REMARK INTER:                  -9.485
REMARK INTRA:                   0.000
REMARK UNBOUND:                 0.000
ROOT
REMARK  Name = cefaloglycin
REMARK                            x       y       z     vdW  Elec       q    Type
REMARK                         _______ _______ _______ _____ _____    ______ ____
ATOM      1  C   UNL     1      63.145  61.711  53.879  0.00  0.00    +0.000 C 
ATOM      2  C   UNL     1      62.674  62.233  53.448  0.00  0.00    +0.000 C 
ATOM      3  O   UNL     1      62.261  61.965  52.785  0.00  0.00    +0.000 OA
ATOM      4  O   UNL     1      62.613  63.022  53.680  0.00  0.00    +0.000 OA
ATOM      5  C   UNL     1      62.141  63.544  53.250  0.00  0.00    +0.000 C 
ATOM      6  C   UNL     1      62.081  64.334  53.482  0.00  0.00    +0.000 C 
ATOM      7  CA  UNL     1      61.609  64.855  53.052  0.00  0.00    +0.000 C 
ATOM      8  N   UNL     1      61.549  65.644  53.284  0.00  0.00    +0.000 N 
ATOM      9  C   UNL     1      61.961  65.911  53.947  0.00  0.00    +0.000 C 
ATOM     10  S   UNL     1      62.432  65.390  54.377  0.00  0.00    +0.000 S 
ATOM     11  C   UNL     1      62.493  64.601  54.145  0.00  0.00    +0.000 C 
ATOM     12  CA  UNL     1      61.653  66.669  53.832  0.00  0.00    +0.000 C 
ATOM     13  N   UNL     1      61.727  67.393  54.219  0.00  0.00    +0.000 NA
ATOM     14  C   UNL     1      62.205  67.455  54.890  0.00  0.00    +0.000 C 
ATOM     15  O   UNL     1      62.608  66.794  55.172  0.00  0.00    +0.000 OA
ATOM     16  CA  UNL     1      62.279  68.181  55.278  0.00  0.00    +0.000 C 
ATOM     17  N   UNL     1      62.756  68.242  55.947  0.00  0.00    +0.000 NA
ATOM     18  C   UNL     1      61.875  68.843  54.995  0.00  0.00    +0.000 A 
ATOM     19  C   UNL     1      61.398  68.780  54.325  0.00  0.00    +0.000 A 
ATOM     20  C   UNL     1      60.994  69.442  54.044  0.00  0.00    +0.000 A 
ATOM     21  C   UNL     1      61.068  70.166  54.431  0.00  0.00    +0.000 A 
ATOM     22  C   UNL     1      61.545  70.229  55.101  0.00  0.00    +0.000 A 
ATOM     23  C   UNL     1      61.949  69.567  55.383  0.00  0.00    +0.000 A 
ATOM     24  C   UNL     1      61.241  66.402  53.169  0.00  0.00    +0.000 C 
ATOM     25  O   UNL     1      60.733  66.748  52.620  0.00  0.00    +0.000 OA
ATOM     26  C   UNL     1      61.197  64.587  52.388  0.00  0.00    +0.000 C 
ATOM     27  O   UNL     1      60.725  65.109  51.958  0.00  0.00    +0.000 OA
ATOM     28  OXT UNL     1      61.257  63.799  52.156  0.00  0.00    +0.000 OA
ENDROOT
TORSDOF 0
ENDMDL
