MODEL 1
REMARK VINA RESULT:   -13.085      0.000      0.000
REMARK INTER + INTRA:         -13.085
REMARK INTER:                 -13.085
REMARK INTRA:                   0.000
REMARK UNBOUND:                 0.000
ROOT
REMARK  Name = cefcapene
REMARK                            x       y       z     vdW  Elec       q    Type
REMARK                         _______ _______ _______ _____ _____    ______ ____
ATOM      1  C   UNL     1      59.756  62.730  67.551  0.00  0.00    +0.000 C 
ATOM      2  C   UNL     1      59.392  62.332  66.925  0.00  0.00    +0.000 C 
ATOM      3  C   UNL     1      59.835  62.108  66.266  0.00  0.00    +0.000 C 
ATOM      4  C   UNL     1      60.640  62.281  66.232  0.00  0.00    +0.000 C 
ATOM      5  C   UNL     1      61.004  62.679  66.856  0.00  0.00    +0.000 C 
ATOM      6  O   UNL     1      61.810  62.852  66.822  0.00  0.00    +0.000 OA
ATOM      7  N   UNL     1      60.562  62.903  67.516  0.00  0.00    +0.000 NA
ATOM      8  CA  UNL     1      60.925  63.301  68.141  0.00  0.00    +0.000 C 
ATOM      9  C   UNL     1      60.673  63.602  68.865  0.00  0.00    +0.000 C 
ATOM     10  S   UNL     1      60.070  63.733  69.414  0.00  0.00    +0.000 S 
ATOM     11  C   UNL     1      60.236  64.125  70.121  0.00  0.00    +0.000 C 
ATOM     12  C   UNL     1      61.002  64.386  70.280  0.00  0.00    +0.000 C 
ATOM     13  C   UNL     1      61.167  64.778  70.988  0.00  0.00    +0.000 C 
ATOM     14  O   UNL     1      61.933  65.038  71.146  0.00  0.00    +0.000 OA
ATOM     15  C   UNL     1      62.098  65.429  71.853  0.00  0.00    +0.000 C 
ATOM     16  N   UNL     1      62.865  65.690  72.011  0.00  0.00    +0.000 NA
ATOM     17  O   UNL     1      61.496  65.561  72.402  0.00  0.00    +0.000 OA
ATOM     18  CA  UNL     1      61.604  64.255  69.732  0.00  0.00    +0.000 C 
ATOM     19  N   UNL     1      61.440  63.863  69.024  0.00  0.00    +0.000 N 
ATOM     20  C   UNL     1      61.692  63.561  68.300  0.00  0.00    +0.000 C 
ATOM     21  O   UNL     1      62.412  63.532  67.898  0.00  0.00    +0.000 OA
ATOM     22  C   UNL     1      62.370  64.515  69.890  0.00  0.00    +0.000 C 
ATOM     23  O   UNL     1      62.973  64.384  69.341  0.00  0.00    +0.000 OA
ATOM     24  OXT UNL     1      62.535  64.906  70.597  0.00  0.00    +0.000 OA
ATOM     25  C   UNL     1      61.082  62.057  65.572  0.00  0.00    +0.000 A 
ATOM     26  C   UNL     1      61.888  62.192  65.460  0.00  0.00    +0.000 A 
ATOM     27  S   UNL     1      62.101  61.877  64.728  0.00  0.00    +0.000 S 
ATOM     28  C   UNL     1      61.425  61.547  64.387  0.00  0.00    +0.000 A 
ATOM     29  N   UNL     1      61.387  61.172  63.654  0.00  0.00    +0.000 NA
ATOM     30  N   UNL     1      60.796  61.658  64.909  0.00  0.00    +0.000 NA
ENDROOT
TORSDOF 0
ENDMDL
MODEL 2
REMARK VINA RESULT:   -12.950      2.156      2.717
REMARK INTER + INTRA:         -12.950
REMARK INTER:                 -12.950
REMARK INTRA:                   0.000
REMARK UNBOUND:                 0.000
ROOT
REMARK  Name = cefcapene
REMARK                            x       y       z     vdW  Elec       q    Type
REMARK                         _______ _______ _______ _____ _____    ______ ____
ATOM      1  C   UNL     1      60.437  62.503  69.908  0.00  0.00    +0.000 C 
ATOM      2  C   UNL     1      60.685  61.795  69.563  0.00  0.00    +0.000 C 
ATOM      3  C   UNL     1      60.882  61.774  68.762  0.00  0.00    +0.000 C 
ATOM      4  C   UNL     1      60.831  62.460  68.306  0.00  0.00    +0.000 C 
ATOM      5  C   UNL     1      60.583  63.167  68.651  0.00  0.00    +0.000 C 
ATOM      6  O   UNL     1      60.532  63.852  68.195  0.00  0.00    +0.000 OA
ATOM      7  N   UNL     1      60.386  63.189  69.452  0.00  0.00    +0.000 NA
ATOM      8  CA  UNL     1      60.138  63.896  69.797  0.00  0.00    +0.000 C 
ATOM      9  C   UNL     1      59.904  64.124  70.554  0.00  0.00    +0.000 C 
ATOM     10  S   UNL     1      59.758  63.937  71.344  0.00  0.00    +0.000 S 
ATOM     11  C   UNL     1      59.497  64.521  71.865  0.00  0.00    +0.000 C 
ATOM     12  C   UNL     1      59.381  65.292  71.596  0.00  0.00    +0.000 C 
ATOM     13  C   UNL     1      59.120  65.877  72.117  0.00  0.00    +0.000 C 
ATOM     14  O   UNL     1      59.004  66.647  71.848  0.00  0.00    +0.000 OA
ATOM     15  C   UNL     1      58.743  67.231  72.368  0.00  0.00    +0.000 C 
ATOM     16  N   UNL     1      58.627  68.003  72.099  0.00  0.00    +0.000 NA
ATOM     17  O   UNL     1      58.597  67.044  73.159  0.00  0.00    +0.000 OA
ATOM     18  CA  UNL     1      59.526  65.480  70.806  0.00  0.00    +0.000 C 
ATOM     19  N   UNL     1      59.788  64.896  70.284  0.00  0.00    +0.000 N 
ATOM     20  C   UNL     1      60.022  64.667  69.528  0.00  0.00    +0.000 C 
ATOM     21  O   UNL     1      60.107  65.050  68.802  0.00  0.00    +0.000 OA
ATOM     22  C   UNL     1      59.411  66.250  70.537  0.00  0.00    +0.000 C 
ATOM     23  O   UNL     1      59.556  66.438  69.746  0.00  0.00    +0.000 OA
ATOM     24  OXT UNL     1      59.149  66.835  71.057  0.00  0.00    +0.000 OA
ATOM     25  C   UNL     1      61.028  62.438  67.506  0.00  0.00    +0.000 A 
ATOM     26  C   UNL     1      61.004  63.075  66.983  0.00  0.00    +0.000 A 
ATOM     27  S   UNL     1      61.244  62.806  66.241  0.00  0.00    +0.000 S 
ATOM     28  C   UNL     1      61.417  62.002  66.305  0.00  0.00    +0.000 A 
ATOM     29  N   UNL     1      61.677  61.513  65.695  0.00  0.00    +0.000 NA
ATOM     30  N   UNL     1      61.283  61.775  67.087  0.00  0.00    +0.000 NA
ENDROOT
TORSDOF 0
ENDMDL
MODEL 3
REMARK VINA RESULT:   -11.944      1.318      5.443
REMARK INTER + INTRA:         -11.944
REMARK INTER:                 -11.944
REMARK INTRA:                   0.000
REMARK UNBOUND:                 0.000
ROOT
REMARK  Name = cefcapene
REMARK                            x       y       z     vdW  Elec       q    Type
REMARK                         _______ _______ _______ _____ _____    ______ ____
ATOM      1  C   UNL     1      60.133  63.394  69.332  0.00  0.00    +0.000 C 
ATOM      2  C   UNL     1      59.981  63.689  70.088  0.00  0.00    +0.000 C 
ATOM      3  C   UNL     1      60.565  64.111  70.491  0.00  0.00    +0.000 C 
ATOM      4  C   UNL     1      61.300  64.236  70.139  0.00  0.00    +0.000 C 
ATOM      5  C   UNL     1      61.452  63.941  69.385  0.00  0.00    +0.000 C 
ATOM      6  O   UNL     1      62.188  64.066  69.032  0.00  0.00    +0.000 OA
ATOM      7  N   UNL     1      60.869  63.519  68.981  0.00  0.00    +0.000 NA
ATOM      8  CA  UNL     1      61.020  63.224  68.225  0.00  0.00    +0.000 C 
ATOM      9  C   UNL     1      60.590  62.792  67.671  0.00  0.00    +0.000 C 
ATOM     10  S   UNL     1      59.893  62.410  67.447  0.00  0.00    +0.000 S 
ATOM     11  C   UNL     1      59.843  62.043  66.710  0.00  0.00    +0.000 C 
ATOM     12  C   UNL     1      60.489  62.058  66.197  0.00  0.00    +0.000 C 
ATOM     13  C   UNL     1      60.439  61.690  65.459  0.00  0.00    +0.000 C 
ATOM     14  O   UNL     1      61.084  61.705  64.947  0.00  0.00    +0.000 OA
ATOM     15  C   UNL     1      61.035  61.338  64.210  0.00  0.00    +0.000 C 
ATOM     16  N   UNL     1      61.681  61.352  63.697  0.00  0.00    +0.000 NA
ATOM     17  O   UNL     1      60.338  60.956  63.986  0.00  0.00    +0.000 OA
ATOM     18  CA  UNL     1      61.186  62.439  66.421  0.00  0.00    +0.000 C 
ATOM     19  N   UNL     1      61.236  62.806  67.158  0.00  0.00    +0.000 N 
ATOM     20  C   UNL     1      61.667  63.238  67.713  0.00  0.00    +0.000 C 
ATOM     21  O   UNL     1      62.428  63.554  67.743  0.00  0.00    +0.000 OA
ATOM     22  C   UNL     1      61.831  62.453  65.908  0.00  0.00    +0.000 C 
ATOM     23  O   UNL     1      62.528  62.835  66.133  0.00  0.00    +0.000 OA
ATOM     24  OXT UNL     1      61.781  62.086  65.171  0.00  0.00    +0.000 OA
ATOM     25  C   UNL     1      61.884  64.657  70.543  0.00  0.00    +0.000 A 
ATOM     26  C   UNL     1      62.641  64.825  70.263  0.00  0.00    +0.000 A 
ATOM     27  S   UNL     1      63.038  65.256  70.845  0.00  0.00    +0.000 S 
ATOM     28  C   UNL     1      62.525  65.354  71.483  0.00  0.00    +0.000 A 
ATOM     29  N   UNL     1      62.697  65.752  72.185  0.00  0.00    +0.000 NA
ATOM     30  N   UNL     1      61.812  64.984  71.297  0.00  0.00    +0.000 NA
ENDROOT
TORSDOF 0
ENDMDL
MODEL 4
REMARK VINA RESULT:   -11.738      1.710      5.414
REMARK INTER + INTRA:         -11.738
REMARK INTER:                 -11.738
REMARK INTRA:                   0.000
REMARK UNBOUND:                 0.000
ROOT
REMARK  Name = cefcapene
REMARK                            x       y       z     vdW  Elec       q    Type
REMARK                         _______ _______ _______ _____ _____    ______ ____
ATOM      1  C   UNL     1      61.776  64.149  70.966  0.00  0.00    +0.000 C 
ATOM      2  C   UNL     1      62.067  64.467  71.671  0.00  0.00    +0.000 C 
ATOM      3  C   UNL     1      62.778  64.885  71.672  0.00  0.00    +0.000 C 
ATOM      4  C   UNL     1      63.199  64.985  70.970  0.00  0.00    +0.000 C 
ATOM      5  C   UNL     1      62.909  64.668  70.266  0.00  0.00    +0.000 C 
ATOM      6  O   UNL     1      63.330  64.768  69.564  0.00  0.00    +0.000 OA
ATOM      7  N   UNL     1      62.198  64.249  70.264  0.00  0.00    +0.000 NA
ATOM      8  CA  UNL     1      61.907  63.931  69.560  0.00  0.00    +0.000 C 
ATOM      9  C   UNL     1      61.241  63.495  69.349  0.00  0.00    +0.000 C 
ATOM     10  S   UNL     1      60.534  63.123  69.558  0.00  0.00    +0.000 S 
ATOM     11  C   UNL     1      60.085  62.739  68.982  0.00  0.00    +0.000 C 
ATOM     12  C   UNL     1      60.342  62.726  68.198  0.00  0.00    +0.000 C 
ATOM     13  C   UNL     1      59.893  62.341  67.623  0.00  0.00    +0.000 C 
ATOM     14  O   UNL     1      60.149  62.329  66.840  0.00  0.00    +0.000 OA
ATOM     15  C   UNL     1      59.701  61.944  66.264  0.00  0.00    +0.000 C 
ATOM     16  N   UNL     1      59.958  61.931  65.480  0.00  0.00    +0.000 NA
ATOM     17  O   UNL     1      58.994  61.572  66.473  0.00  0.00    +0.000 OA
ATOM     18  CA  UNL     1      61.048  63.098  67.989  0.00  0.00    +0.000 C 
ATOM     19  N   UNL     1      61.498  63.482  68.565  0.00  0.00    +0.000 N 
ATOM     20  C   UNL     1      62.164  63.918  68.777  0.00  0.00    +0.000 C 
ATOM     21  O   UNL     1      62.818  64.218  68.373  0.00  0.00    +0.000 OA
ATOM     22  C   UNL     1      61.305  63.085  67.206  0.00  0.00    +0.000 C 
ATOM     23  O   UNL     1      62.012  63.457  66.998  0.00  0.00    +0.000 OA
ATOM     24  OXT UNL     1      60.856  62.700  66.631  0.00  0.00    +0.000 OA
ATOM     25  C   UNL     1      63.910  65.404  70.972  0.00  0.00    +0.000 A 
ATOM     26  C   UNL     1      64.389  65.548  70.316  0.00  0.00    +0.000 A 
ATOM     27  S   UNL     1      65.042  65.985  70.569  0.00  0.00    +0.000 S 
ATOM     28  C   UNL     1      64.966  66.110  71.381  0.00  0.00    +0.000 A 
ATOM     29  N   UNL     1      65.497  66.522  71.858  0.00  0.00    +0.000 NA
ATOM     30  N   UNL     1      64.266  65.751  71.630  0.00  0.00    +0.000 NA
ENDROOT
TORSDOF 0
ENDMDL
MODEL 5
REMARK VINA RESULT:   -11.063      4.166      5.750
REMARK INTER + INTRA:         -11.063
REMARK INTER:                 -11.063
REMARK INTRA:                   0.000
REMARK UNBOUND:                 0.000
ROOT
REMARK  Name = cefcapene
REMARK                            x       y       z     vdW  Elec       q    Type
REMARK                         _______ _______ _______ _____ _____    ______ ____
ATOM      1  C   UNL     1      60.989  65.307  70.151  0.00  0.00    +0.000 C 
ATOM      2  C   UNL     1      60.220  65.019  70.063  0.00  0.00    +0.000 C 
ATOM      3  C   UNL     1      59.685  65.075  70.689  0.00  0.00    +0.000 C 
ATOM      4  C   UNL     1      59.919  65.419  71.402  0.00  0.00    +0.000 C 
ATOM      5  C   UNL     1      60.686  65.707  71.489  0.00  0.00    +0.000 C 
ATOM      6  O   UNL     1      60.920  66.051  72.201  0.00  0.00    +0.000 OA
ATOM      7  N   UNL     1      61.222  65.651  70.864  0.00  0.00    +0.000 NA
ATOM      8  CA  UNL     1      61.990  65.938  70.950  0.00  0.00    +0.000 C 
ATOM      9  C   UNL     1      62.656  65.978  70.466  0.00  0.00    +0.000 C 
ATOM     10  S   UNL     1      63.023  65.829  69.742  0.00  0.00    +0.000 S 
ATOM     11  C   UNL     1      63.810  66.048  69.626  0.00  0.00    +0.000 C 
ATOM     12  C   UNL     1      64.230  66.414  70.234  0.00  0.00    +0.000 C 
ATOM     13  C   UNL     1      65.018  66.633  70.119  0.00  0.00    +0.000 C 
ATOM     14  O   UNL     1      65.438  66.999  70.726  0.00  0.00    +0.000 OA
ATOM     15  C   UNL     1      66.225  67.217  70.611  0.00  0.00    +0.000 C 
ATOM     16  N   UNL     1      66.645  67.584  71.219  0.00  0.00    +0.000 NA
ATOM     17  O   UNL     1      66.592  67.068  69.886  0.00  0.00    +0.000 OA
ATOM     18  CA  UNL     1      63.864  66.563  70.958  0.00  0.00    +0.000 C 
ATOM     19  N   UNL     1      63.076  66.345  71.074  0.00  0.00    +0.000 N 
ATOM     20  C   UNL     1      62.411  66.305  71.558  0.00  0.00    +0.000 C 
ATOM     21  O   UNL     1      62.236  66.536  72.331  0.00  0.00    +0.000 OA
ATOM     22  C   UNL     1      64.284  66.930  71.565  0.00  0.00    +0.000 C 
ATOM     23  O   UNL     1      63.916  67.079  72.290  0.00  0.00    +0.000 OA
ATOM     24  OXT UNL     1      65.071  67.148  71.450  0.00  0.00    +0.000 OA
ATOM     25  C   UNL     1      59.383  65.476  72.027  0.00  0.00    +0.000 A 
ATOM     26  C   UNL     1      59.536  65.804  72.768  0.00  0.00    +0.000 A 
ATOM     27  S   UNL     1      58.849  65.745  73.221  0.00  0.00    +0.000 S 
ATOM     28  C   UNL     1      58.271  65.380  72.758  0.00  0.00    +0.000 A 
ATOM     29  N   UNL     1      57.499  65.211  72.993  0.00  0.00    +0.000 NA
ATOM     30  N   UNL     1      58.601  65.214  72.021  0.00  0.00    +0.000 NA
ENDROOT
TORSDOF 0
ENDMDL
MODEL 6
REMARK VINA RESULT:   -11.035      1.841      5.933
REMARK INTER + INTRA:         -11.035
REMARK INTER:                 -11.035
REMARK INTRA:                   0.000
REMARK UNBOUND:                 0.000
ROOT
REMARK  Name = cefcapene
REMARK                            x       y       z     vdW  Elec       q    Type
REMARK                         _______ _______ _______ _____ _____    ______ ____
ATOM      1  C   UNL     1      63.065  65.264  69.864  0.00  0.00    +0.000 C 
ATOM      2  C   UNL     1      63.569  65.708  70.345  0.00  0.00    +0.000 C 
ATOM      3  C   UNL     1      63.255  66.199  70.928  0.00  0.00    +0.000 C 
ATOM      4  C   UNL     1      62.437  66.246  71.031  0.00  0.00    +0.000 C 
ATOM      5  C   UNL     1      61.935  65.803  70.551  0.00  0.00    +0.000 C 
ATOM      6  O   UNL     1      61.117  65.851  70.654  0.00  0.00    +0.000 OA
ATOM      7  N   UNL     1      62.248  65.312  69.967  0.00  0.00    +0.000 NA
ATOM      8  CA  UNL     1      61.745  64.868  69.486  0.00  0.00    +0.000 C 
ATOM      9  C   UNL     1      61.851  64.335  68.867  0.00  0.00    +0.000 C 
ATOM     10  S   UNL     1      62.352  63.920  68.359  0.00  0.00    +0.000 S 
ATOM     11  C   UNL     1      62.034  63.411  67.792  0.00  0.00    +0.000 C 
ATOM     12  C   UNL     1      61.217  63.318  67.733  0.00  0.00    +0.000 C 
ATOM     13  C   UNL     1      60.899  62.809  67.166  0.00  0.00    +0.000 C 
ATOM     14  O   UNL     1      60.083  62.715  67.107  0.00  0.00    +0.000 OA
ATOM     15  C   UNL     1      59.765  62.207  66.540  0.00  0.00    +0.000 C 
ATOM     16  N   UNL     1      58.948  62.114  66.481  0.00  0.00    +0.000 NA
ATOM     17  O   UNL     1      60.266  61.791  66.032  0.00  0.00    +0.000 OA
ATOM     18  CA  UNL     1      60.716  63.733  68.240  0.00  0.00    +0.000 C 
ATOM     19  N   UNL     1      61.033  64.242  68.807  0.00  0.00    +0.000 N 
ATOM     20  C   UNL     1      60.928  64.775  69.427  0.00  0.00    +0.000 C 
ATOM     21  O   UNL     1      60.275  65.087  69.824  0.00  0.00    +0.000 OA
ATOM     22  C   UNL     1      59.899  63.640  68.181  0.00  0.00    +0.000 C 
ATOM     23  O   UNL     1      59.398  64.055  68.689  0.00  0.00    +0.000 OA
ATOM     24  OXT UNL     1      59.582  63.131  67.615  0.00  0.00    +0.000 OA
ATOM     25  C   UNL     1      62.124  66.738  71.615  0.00  0.00    +0.000 A 
ATOM     26  C   UNL     1      61.323  66.842  71.782  0.00  0.00    +0.000 A 
ATOM     27  S   UNL     1      61.260  67.380  72.405  0.00  0.00    +0.000 S 
ATOM     28  C   UNL     1      62.022  67.608  72.622  0.00  0.00    +0.000 A 
ATOM     29  N   UNL     1      62.216  68.139  73.222  0.00  0.00    +0.000 NA
ATOM     30  N   UNL     1      62.556  67.211  72.134  0.00  0.00    +0.000 NA
ENDROOT
TORSDOF 0
ENDMDL
MODEL 7
REMARK VINA RESULT:   -10.121     14.444     15.405
REMARK INTER + INTRA:         -10.121
REMARK INTER:                 -10.121
REMARK INTRA:                   0.000
REMARK UNBOUND:                 0.000
ROOT
REMARK  Name = cefcapene
REMARK                            x       y       z     vdW  Elec       q    Type
REMARK                         _______ _______ _______ _____ _____    ______ ____
ATOM      1  C   UNL     1      61.196  64.648  53.014  0.00  0.00    +0.000 C 
ATOM      2  C   UNL     1      60.851  65.397  52.964  0.00  0.00    +0.000 C 
ATOM      3  C   UNL     1      61.210  66.042  53.333  0.00  0.00    +0.000 C 
ATOM      4  C   UNL     1      61.913  65.938  53.752  0.00  0.00    +0.000 C 
ATOM      5  C   UNL     1      62.257  65.190  53.802  0.00  0.00    +0.000 C 
ATOM      6  O   UNL     1      62.960  65.087  54.221  0.00  0.00    +0.000 OA
ATOM      7  N   UNL     1      61.899  64.545  53.434  0.00  0.00    +0.000 NA
ATOM      8  CA  UNL     1      62.243  63.797  53.484  0.00  0.00    +0.000 C 
ATOM      9  C   UNL     1      62.053  63.047  53.198  0.00  0.00    +0.000 C 
ATOM     10  S   UNL     1      61.549  62.551  52.772  0.00  0.00    +0.000 S 
ATOM     11  C   UNL     1      61.724  61.748  52.703  0.00  0.00    +0.000 C 
ATOM     12  C   UNL     1      62.401  61.440  53.061  0.00  0.00    +0.000 C 
ATOM     13  C   UNL     1      62.575  60.636  52.992  0.00  0.00    +0.000 C 
ATOM     14  O   UNL     1      63.251  60.329  53.349  0.00  0.00    +0.000 OA
ATOM     15  C   UNL     1      63.425  59.526  53.280  0.00  0.00    +0.000 C 
ATOM     16  N   UNL     1      64.102  59.218  53.637  0.00  0.00    +0.000 NA
ATOM     17  O   UNL     1      62.922  59.029  52.853  0.00  0.00    +0.000 OA
ATOM     18  CA  UNL     1      62.904  61.936  53.487  0.00  0.00    +0.000 C 
ATOM     19  N   UNL     1      62.730  62.740  53.556  0.00  0.00    +0.000 N 
ATOM     20  C   UNL     1      62.920  63.489  53.841  0.00  0.00    +0.000 C 
ATOM     21  O   UNL     1      63.533  63.803  54.296  0.00  0.00    +0.000 OA
ATOM     22  C   UNL     1      63.580  61.628  53.844  0.00  0.00    +0.000 C 
ATOM     23  O   UNL     1      64.084  62.124  54.270  0.00  0.00    +0.000 OA
ATOM     24  OXT UNL     1      63.755  60.825  53.775  0.00  0.00    +0.000 OA
ATOM     25  C   UNL     1      62.272  66.583  54.120  0.00  0.00    +0.000 A 
ATOM     26  C   UNL     1      62.972  66.565  54.556  0.00  0.00    +0.000 A 
ATOM     27  S   UNL     1      63.126  67.331  54.823  0.00  0.00    +0.000 S 
ATOM     28  C   UNL     1      62.521  67.821  54.552  0.00  0.00    +0.000 A 
ATOM     29  N   UNL     1      62.457  68.632  54.691  0.00  0.00    +0.000 NA
ATOM     30  N   UNL     1      61.994  67.360  54.117  0.00  0.00    +0.000 NA
ENDROOT
TORSDOF 0
ENDMDL
