MODEL 1
REMARK VINA RESULT:   -12.362      0.000      0.000
REMARK INTER + INTRA:         -12.362
REMARK INTER:                 -12.362
REMARK INTRA:                   0.000
REMARK UNBOUND:                 0.000
ROOT
REMARK  Name = cefmetazole
REMARK                            x       y       z     vdW  Elec       q    Type
REMARK                         _______ _______ _______ _____ _____    ______ ____
ATOM      1  C   UNL     1      59.733  63.893  72.363  0.00  0.00    +0.000 C 
ATOM      2  O   UNL     1      59.690  64.560  71.880  0.00  0.00    +0.000 OA
ATOM      3  C   UNL     1      59.868  64.499  71.077  0.00  0.00    +0.000 C 
ATOM      4  N   UNL     1      59.717  65.304  70.982  0.00  0.00    +0.000 NA
ATOM      5  C   UNL     1      59.486  65.759  71.631  0.00  0.00    +0.000 C 
ATOM      6  O   UNL     1      59.408  65.409  72.373  0.00  0.00    +0.000 OA
ATOM      7  C   UNL     1      59.334  66.565  71.536  0.00  0.00    +0.000 C 
ATOM      8  S   UNL     1      59.413  66.915  70.793  0.00  0.00    +0.000 S 
ATOM      9  C   UNL     1      59.643  66.459  70.145  0.00  0.00    +0.000 C 
ATOM     10  C   UNL     1      59.722  66.810  69.402  0.00  0.00    +0.000 C 
ATOM     11  N   UNL     1      59.800  67.160  68.660  0.00  0.00    +0.000 NA
ATOM     12  C   UNL     1      60.047  64.439  70.273  0.00  0.00    +0.000 C 
ATOM     13  S   UNL     1      60.125  64.789  69.531  0.00  0.00    +0.000 S 
ATOM     14  C   UNL     1      60.355  64.334  68.882  0.00  0.00    +0.000 C 
ATOM     15  C   UNL     1      60.507  63.528  68.977  0.00  0.00    +0.000 C 
ATOM     16  C   UNL     1      60.738  63.074  68.328  0.00  0.00    +0.000 C 
ATOM     17  S   UNL     1      60.816  63.424  67.586  0.00  0.00    +0.000 S 
ATOM     18  C   UNL     1      61.047  62.968  66.937  0.00  0.00    +0.000 A 
ATOM     19  N   UNL     1      61.148  63.241  66.164  0.00  0.00    +0.000 NA
ATOM     20  N   UNL     1      61.380  62.602  65.698  0.00  0.00    +0.000 NA
ATOM     21  N   UNL     1      61.422  61.934  66.180  0.00  0.00    +0.000 NA
ATOM     22  N   UNL     1      61.216  62.161  66.948  0.00  0.00    +0.000 N 
ATOM     23  C   UNL     1      61.185  61.667  67.607  0.00  0.00    +0.000 C 
ATOM     24  C   UNL     1      60.429  63.178  69.719  0.00  0.00    +0.000 C 
ATOM     25  N   UNL     1      60.199  63.634  70.368  0.00  0.00    +0.000 N 
ATOM     26  C   UNL     1      60.020  63.694  71.171  0.00  0.00    +0.000 C 
ATOM     27  O   UNL     1      60.002  63.167  71.806  0.00  0.00    +0.000 OA
ATOM     28  C   UNL     1      60.581  62.373  69.814  0.00  0.00    +0.000 C 
ATOM     29  O   UNL     1      60.502  62.023  70.557  0.00  0.00    +0.000 OA
ATOM     30  O   UNL     1      60.811  61.917  69.165  0.00  0.00    +0.000 OA
ENDROOT
TORSDOF 0
ENDMDL
MODEL 2
REMARK VINA RESULT:   -11.925      2.017      2.048
REMARK INTER + INTRA:         -11.925
REMARK INTER:                 -11.925
REMARK INTRA:                   0.000
REMARK UNBOUND:                 0.000
ROOT
REMARK  Name = cefmetazole
REMARK                            x       y       z     vdW  Elec       q    Type
REMARK                         _______ _______ _______ _____ _____    ______ ____
ATOM      1  C   UNL     1      61.036  64.029  72.848  0.00  0.00    +0.000 C 
ATOM      2  O   UNL     1      61.550  64.518  72.429  0.00  0.00    +0.000 OA
ATOM      3  C   UNL     1      61.657  64.408  71.619  0.00  0.00    +0.000 C 
ATOM      4  N   UNL     1      62.190  65.036  71.602  0.00  0.00    +0.000 NA
ATOM      5  C   UNL     1      62.365  65.446  72.296  0.00  0.00    +0.000 C 
ATOM      6  O   UNL     1      62.006  65.228  73.005  0.00  0.00    +0.000 OA
ATOM      7  C   UNL     1      62.899  66.076  72.280  0.00  0.00    +0.000 C 
ATOM      8  S   UNL     1      63.257  66.294  71.570  0.00  0.00    +0.000 S 
ATOM      9  C   UNL     1      63.082  65.884  70.876  0.00  0.00    +0.000 C 
ATOM     10  C   UNL     1      63.441  66.102  70.165  0.00  0.00    +0.000 C 
ATOM     11  N   UNL     1      63.799  66.321  69.456  0.00  0.00    +0.000 NA
ATOM     12  C   UNL     1      61.763  64.297  70.807  0.00  0.00    +0.000 C 
ATOM     13  S   UNL     1      62.121  64.515  70.097  0.00  0.00    +0.000 S 
ATOM     14  C   UNL     1      61.947  64.105  69.403  0.00  0.00    +0.000 C 
ATOM     15  C   UNL     1      61.413  63.476  69.419  0.00  0.00    +0.000 C 
ATOM     16  C   UNL     1      61.238  63.066  68.725  0.00  0.00    +0.000 C 
ATOM     17  S   UNL     1      61.596  63.284  68.016  0.00  0.00    +0.000 S 
ATOM     18  C   UNL     1      61.421  62.873  67.321  0.00  0.00    +0.000 A 
ATOM     19  N   UNL     1      61.735  63.028  66.574  0.00  0.00    +0.000 NA
ATOM     20  N   UNL     1      61.410  62.487  66.044  0.00  0.00    +0.000 NA
ATOM     21  N   UNL     1      60.894  61.997  66.463  0.00  0.00    +0.000 NA
ATOM     22  N   UNL     1      60.902  62.237  67.253  0.00  0.00    +0.000 N 
ATOM     23  C   UNL     1      60.466  61.898  67.866  0.00  0.00    +0.000 C 
ATOM     24  C   UNL     1      61.054  63.257  70.130  0.00  0.00    +0.000 C 
ATOM     25  N   UNL     1      61.229  63.668  70.823  0.00  0.00    +0.000 N 
ATOM     26  C   UNL     1      61.123  63.778  71.634  0.00  0.00    +0.000 C 
ATOM     27  O   UNL     1      60.671  63.412  72.219  0.00  0.00    +0.000 OA
ATOM     28  C   UNL     1      60.521  62.629  70.145  0.00  0.00    +0.000 C 
ATOM     29  O   UNL     1      60.162  62.410  70.856  0.00  0.00    +0.000 OA
ATOM     30  O   UNL     1      60.345  62.218  69.452  0.00  0.00    +0.000 OA
ENDROOT
TORSDOF 0
ENDMDL
MODEL 3
REMARK VINA RESULT:   -11.651      3.408      4.650
REMARK INTER + INTRA:         -11.651
REMARK INTER:                 -11.651
REMARK INTRA:                   0.000
REMARK UNBOUND:                 0.000
ROOT
REMARK  Name = cefmetazole
REMARK                            x       y       z     vdW  Elec       q    Type
REMARK                         _______ _______ _______ _____ _____    ______ ____
ATOM      1  C   UNL     1      60.357  64.380  72.859  0.00  0.00    +0.000 C 
ATOM      2  O   UNL     1      60.499  64.122  72.089  0.00  0.00    +0.000 OA
ATOM      3  C   UNL     1      61.140  64.421  71.665  0.00  0.00    +0.000 C 
ATOM      4  N   UNL     1      60.934  63.951  71.020  0.00  0.00    +0.000 NA
ATOM      5  C   UNL     1      60.275  63.456  71.065  0.00  0.00    +0.000 C 
ATOM      6  O   UNL     1      59.823  63.433  71.754  0.00  0.00    +0.000 OA
ATOM      7  C   UNL     1      60.068  62.985  70.419  0.00  0.00    +0.000 C 
ATOM      8  S   UNL     1      60.520  63.009  69.730  0.00  0.00    +0.000 S 
ATOM      9  C   UNL     1      61.179  63.504  69.686  0.00  0.00    +0.000 C 
ATOM     10  C   UNL     1      61.632  63.527  68.995  0.00  0.00    +0.000 C 
ATOM     11  N   UNL     1      62.084  63.551  68.307  0.00  0.00    +0.000 NA
ATOM     12  C   UNL     1      61.782  64.720  71.241  0.00  0.00    +0.000 C 
ATOM     13  S   UNL     1      62.234  64.744  70.552  0.00  0.00    +0.000 S 
ATOM     14  C   UNL     1      62.893  65.238  70.507  0.00  0.00    +0.000 C 
ATOM     15  C   UNL     1      63.100  65.709  71.152  0.00  0.00    +0.000 C 
ATOM     16  C   UNL     1      63.759  66.203  71.107  0.00  0.00    +0.000 C 
ATOM     17  S   UNL     1      64.211  66.227  70.419  0.00  0.00    +0.000 S 
ATOM     18  C   UNL     1      64.870  66.722  70.374  0.00  0.00    +0.000 A 
ATOM     19  N   UNL     1      65.373  66.803  69.724  0.00  0.00    +0.000 NA
ATOM     20  N   UNL     1      65.955  67.353  69.920  0.00  0.00    +0.000 NA
ATOM     21  N   UNL     1      65.814  67.612  70.691  0.00  0.00    +0.000 NA
ATOM     22  N   UNL     1      65.142  67.221  70.971  0.00  0.00    +0.000 N 
ATOM     23  C   UNL     1      64.804  67.314  71.718  0.00  0.00    +0.000 C 
ATOM     24  C   UNL     1      62.648  65.686  71.842  0.00  0.00    +0.000 C 
ATOM     25  N   UNL     1      61.989  65.191  71.886  0.00  0.00    +0.000 N 
ATOM     26  C   UNL     1      61.347  64.892  72.310  0.00  0.00    +0.000 C 
ATOM     27  O   UNL     1      61.039  65.013  73.066  0.00  0.00    +0.000 OA
ATOM     28  C   UNL     1      62.855  66.156  72.487  0.00  0.00    +0.000 C 
ATOM     29  O   UNL     1      62.402  66.133  73.177  0.00  0.00    +0.000 OA
ATOM     30  O   UNL     1      63.514  66.651  72.443  0.00  0.00    +0.000 OA
ENDROOT
TORSDOF 0
ENDMDL
MODEL 4
REMARK VINA RESULT:   -11.481      3.330      4.414
REMARK INTER + INTRA:         -11.481
REMARK INTER:                 -11.481
REMARK INTRA:                   0.000
REMARK UNBOUND:                 0.000
ROOT
REMARK  Name = cefmetazole
REMARK                            x       y       z     vdW  Elec       q    Type
REMARK                         _______ _______ _______ _____ _____    ______ ____
ATOM      1  C   UNL     1      62.358  67.785  73.201  0.00  0.00    +0.000 C 
ATOM      2  O   UNL     1      62.931  67.465  72.702  0.00  0.00    +0.000 OA
ATOM      3  C   UNL     1      62.799  66.739  72.335  0.00  0.00    +0.000 C 
ATOM      4  N   UNL     1      63.537  66.788  71.970  0.00  0.00    +0.000 NA
ATOM      5  C   UNL     1      64.020  67.443  72.106  0.00  0.00    +0.000 C 
ATOM      6  O   UNL     1      63.765  68.047  72.605  0.00  0.00    +0.000 OA
ATOM      7  C   UNL     1      64.759  67.493  71.740  0.00  0.00    +0.000 C 
ATOM      8  S   UNL     1      65.013  66.889  71.240  0.00  0.00    +0.000 S 
ATOM      9  C   UNL     1      64.529  66.234  71.105  0.00  0.00    +0.000 C 
ATOM     10  C   UNL     1      64.784  65.629  70.604  0.00  0.00    +0.000 C 
ATOM     11  N   UNL     1      65.039  65.025  70.104  0.00  0.00    +0.000 NA
ATOM     12  C   UNL     1      62.667  66.011  71.968  0.00  0.00    +0.000 C 
ATOM     13  S   UNL     1      62.921  65.407  71.468  0.00  0.00    +0.000 S 
ATOM     14  C   UNL     1      62.439  64.752  71.332  0.00  0.00    +0.000 C 
ATOM     15  C   UNL     1      61.700  64.702  71.698  0.00  0.00    +0.000 C 
ATOM     16  C   UNL     1      61.217  64.047  71.562  0.00  0.00    +0.000 C 
ATOM     17  S   UNL     1      61.471  63.443  71.062  0.00  0.00    +0.000 S 
ATOM     18  C   UNL     1      60.988  62.788  70.927  0.00  0.00    +0.000 A 
ATOM     19  N   UNL     1      61.168  62.144  70.443  0.00  0.00    +0.000 NA
ATOM     20  N   UNL     1      60.531  61.620  70.469  0.00  0.00    +0.000 NA
ATOM     21  N   UNL     1      59.957  61.940  70.968  0.00  0.00    +0.000 NA
ATOM     22  N   UNL     1      60.240  62.663  71.252  0.00  0.00    +0.000 N 
ATOM     23  C   UNL     1      59.844  63.169  71.769  0.00  0.00    +0.000 C 
ATOM     24  C   UNL     1      61.445  65.306  72.198  0.00  0.00    +0.000 C 
ATOM     25  N   UNL     1      61.929  65.961  72.333  0.00  0.00    +0.000 N 
ATOM     26  C   UNL     1      62.061  66.688  72.700  0.00  0.00    +0.000 C 
ATOM     27  O   UNL     1      61.632  67.167  73.218  0.00  0.00    +0.000 OA
ATOM     28  C   UNL     1      60.708  65.256  72.563  0.00  0.00    +0.000 C 
ATOM     29  O   UNL     1      60.453  65.861  73.063  0.00  0.00    +0.000 OA
ATOM     30  O   UNL     1      60.224  64.601  72.428  0.00  0.00    +0.000 OA
ENDROOT
TORSDOF 0
ENDMDL
MODEL 5
REMARK VINA RESULT:   -11.357      3.434      3.750
REMARK INTER + INTRA:         -11.357
REMARK INTER:                 -11.357
REMARK INTRA:                   0.000
REMARK UNBOUND:                 0.000
ROOT
REMARK  Name = cefmetazole
REMARK                            x       y       z     vdW  Elec       q    Type
REMARK                         _______ _______ _______ _____ _____    ______ ____
ATOM      1  C   UNL     1      65.048  66.633  71.469  0.00  0.00    +0.000 C 
ATOM      2  O   UNL     1      64.306  66.905  71.703  0.00  0.00    +0.000 OA
ATOM      3  C   UNL     1      63.624  66.588  71.364  0.00  0.00    +0.000 C 
ATOM      4  N   UNL     1      63.160  67.086  71.830  0.00  0.00    +0.000 NA
ATOM      5  C   UNL     1      63.519  67.610  72.356  0.00  0.00    +0.000 C 
ATOM      6  O   UNL     1      64.340  67.636  72.416  0.00  0.00    +0.000 OA
ATOM      7  C   UNL     1      63.055  68.109  72.822  0.00  0.00    +0.000 C 
ATOM      8  S   UNL     1      62.232  68.082  72.762  0.00  0.00    +0.000 S 
ATOM      9  C   UNL     1      61.874  67.558  72.235  0.00  0.00    +0.000 C 
ATOM     10  C   UNL     1      61.051  67.531  72.175  0.00  0.00    +0.000 C 
ATOM     11  N   UNL     1      60.230  67.505  72.114  0.00  0.00    +0.000 NA
ATOM     12  C   UNL     1      62.942  66.269  71.025  0.00  0.00    +0.000 C 
ATOM     13  S   UNL     1      62.120  66.243  70.965  0.00  0.00    +0.000 S 
ATOM     14  C   UNL     1      61.761  65.719  70.439  0.00  0.00    +0.000 C 
ATOM     15  C   UNL     1      62.225  65.220  69.973  0.00  0.00    +0.000 C 
ATOM     16  C   UNL     1      61.866  64.696  69.447  0.00  0.00    +0.000 C 
ATOM     17  S   UNL     1      61.045  64.670  69.386  0.00  0.00    +0.000 S 
ATOM     18  C   UNL     1      60.686  64.145  68.860  0.00  0.00    +0.000 A 
ATOM     19  N   UNL     1      59.874  64.057  68.740  0.00  0.00    +0.000 NA
ATOM     20  N   UNL     1      59.763  63.474  68.167  0.00  0.00    +0.000 NA
ATOM     21  N   UNL     1      60.505  63.201  67.932  0.00  0.00    +0.000 NA
ATOM     22  N   UNL     1      61.076  63.617  68.361  0.00  0.00    +0.000 N 
ATOM     23  C   UNL     1      61.893  63.519  68.301  0.00  0.00    +0.000 C 
ATOM     24  C   UNL     1      63.047  65.246  70.033  0.00  0.00    +0.000 C 
ATOM     25  N   UNL     1      63.405  65.771  70.560  0.00  0.00    +0.000 N 
ATOM     26  C   UNL     1      64.088  66.089  70.898  0.00  0.00    +0.000 C 
ATOM     27  O   UNL     1      64.898  65.962  70.808  0.00  0.00    +0.000 OA
ATOM     28  C   UNL     1      63.511  64.748  69.567  0.00  0.00    +0.000 C 
ATOM     29  O   UNL     1      64.334  64.775  69.628  0.00  0.00    +0.000 OA
ATOM     30  O   UNL     1      63.153  64.224  69.041  0.00  0.00    +0.000 OA
ENDROOT
TORSDOF 0
ENDMDL
MODEL 6
REMARK VINA RESULT:   -11.213      3.383      4.331
REMARK INTER + INTRA:         -11.213
REMARK INTER:                 -11.213
REMARK INTRA:                   0.000
REMARK UNBOUND:                 0.000
ROOT
REMARK  Name = cefmetazole
REMARK                            x       y       z     vdW  Elec       q    Type
REMARK                         _______ _______ _______ _____ _____    ______ ____
ATOM      1  C   UNL     1      60.523  62.943  70.804  0.00  0.00    +0.000 C 
ATOM      2  O   UNL     1      60.318  63.606  71.248  0.00  0.00    +0.000 OA
ATOM      3  C   UNL     1      60.866  64.211  71.363  0.00  0.00    +0.000 C 
ATOM      4  N   UNL     1      60.312  64.629  71.809  0.00  0.00    +0.000 NA
ATOM      5  C   UNL     1      59.561  64.314  71.932  0.00  0.00    +0.000 C 
ATOM      6  O   UNL     1      59.363  63.581  71.610  0.00  0.00    +0.000 OA
ATOM      7  C   UNL     1      59.006  64.732  72.379  0.00  0.00    +0.000 C 
ATOM      8  S   UNL     1      59.204  65.465  72.701  0.00  0.00    +0.000 S 
ATOM      9  C   UNL     1      59.957  65.780  72.577  0.00  0.00    +0.000 C 
ATOM     10  C   UNL     1      60.155  66.514  72.900  0.00  0.00    +0.000 C 
ATOM     11  N   UNL     1      60.353  67.246  73.222  0.00  0.00    +0.000 NA
ATOM     12  C   UNL     1      61.415  64.817  71.478  0.00  0.00    +0.000 C 
ATOM     13  S   UNL     1      61.613  65.550  71.800  0.00  0.00    +0.000 S 
ATOM     14  C   UNL     1      62.365  65.866  71.677  0.00  0.00    +0.000 C 
ATOM     15  C   UNL     1      62.920  65.448  71.230  0.00  0.00    +0.000 C 
ATOM     16  C   UNL     1      63.672  65.764  71.107  0.00  0.00    +0.000 C 
ATOM     17  S   UNL     1      63.870  66.496  71.429  0.00  0.00    +0.000 S 
ATOM     18  C   UNL     1      64.622  66.812  71.306  0.00  0.00    +0.000 A 
ATOM     19  N   UNL     1      64.898  67.535  71.593  0.00  0.00    +0.000 NA
ATOM     20  N   UNL     1      65.677  67.630  71.338  0.00  0.00    +0.000 NA
ATOM     21  N   UNL     1      65.883  66.966  70.894  0.00  0.00    +0.000 NA
ATOM     22  N   UNL     1      65.230  66.460  70.874  0.00  0.00    +0.000 N 
ATOM     23  C   UNL     1      65.194  65.730  70.490  0.00  0.00    +0.000 C 
ATOM     24  C   UNL     1      62.722  64.715  70.908  0.00  0.00    +0.000 C 
ATOM     25  N   UNL     1      61.969  64.400  71.032  0.00  0.00    +0.000 N 
ATOM     26  C   UNL     1      61.421  63.794  70.917  0.00  0.00    +0.000 C 
ATOM     27  O   UNL     1      61.424  63.071  70.520  0.00  0.00    +0.000 OA
ATOM     28  C   UNL     1      63.276  64.298  70.462  0.00  0.00    +0.000 C 
ATOM     29  O   UNL     1      63.077  63.564  70.139  0.00  0.00    +0.000 OA
ATOM     30  O   UNL     1      64.028  64.613  70.338  0.00  0.00    +0.000 OA
ENDROOT
TORSDOF 0
ENDMDL
MODEL 7
REMARK VINA RESULT:   -10.820      2.356      5.092
REMARK INTER + INTRA:         -10.820
REMARK INTER:                 -10.820
REMARK INTRA:                   0.000
REMARK UNBOUND:                 0.000
ROOT
REMARK  Name = cefmetazole
REMARK                            x       y       z     vdW  Elec       q    Type
REMARK                         _______ _______ _______ _____ _____    ______ ____
ATOM      1  C   UNL     1      60.078  63.527  68.336  0.00  0.00    +0.000 C 
ATOM      2  O   UNL     1      60.320  63.161  69.034  0.00  0.00    +0.000 OA
ATOM      3  C   UNL     1      60.592  63.615  69.665  0.00  0.00    +0.000 C 
ATOM      4  N   UNL     1      60.714  62.930  70.107  0.00  0.00    +0.000 NA
ATOM      5  C   UNL     1      60.538  62.193  69.781  0.00  0.00    +0.000 C 
ATOM      6  O   UNL     1      60.241  62.142  69.014  0.00  0.00    +0.000 OA
ATOM      7  C   UNL     1      60.659  61.506  70.223  0.00  0.00    +0.000 C 
ATOM      8  S   UNL     1      60.956  61.557  70.991  0.00  0.00    +0.000 S 
ATOM      9  C   UNL     1      61.132  62.295  71.317  0.00  0.00    +0.000 C 
ATOM     10  C   UNL     1      61.429  62.346  72.086  0.00  0.00    +0.000 C 
ATOM     11  N   UNL     1      61.726  62.397  72.853  0.00  0.00    +0.000 NA
ATOM     12  C   UNL     1      60.866  64.071  70.298  0.00  0.00    +0.000 C 
ATOM     13  S   UNL     1      61.163  64.122  71.066  0.00  0.00    +0.000 S 
ATOM     14  C   UNL     1      61.339  64.858  71.392  0.00  0.00    +0.000 C 
ATOM     15  C   UNL     1      61.217  65.545  70.950  0.00  0.00    +0.000 C 
ATOM     16  C   UNL     1      61.393  66.282  71.277  0.00  0.00    +0.000 C 
ATOM     17  S   UNL     1      61.690  66.332  72.044  0.00  0.00    +0.000 S 
ATOM     18  C   UNL     1      61.866  67.070  72.371  0.00  0.00    +0.000 A 
ATOM     19  N   UNL     1      62.165  67.206  73.128  0.00  0.00    +0.000 NA
ATOM     20  N   UNL     1      62.257  68.021  73.222  0.00  0.00    +0.000 NA
ATOM     21  N   UNL     1      62.016  68.388  72.524  0.00  0.00    +0.000 NA
ATOM     22  N   UNL     1      61.774  67.799  71.997  0.00  0.00    +0.000 N 
ATOM     23  C   UNL     1      61.490  67.921  71.232  0.00  0.00    +0.000 C 
ATOM     24  C   UNL     1      60.920  65.494  70.182  0.00  0.00    +0.000 C 
ATOM     25  N   UNL     1      60.745  64.756  69.856  0.00  0.00    +0.000 N 
ATOM     26  C   UNL     1      60.471  64.302  69.224  0.00  0.00    +0.000 C 
ATOM     27  O   UNL     1      60.193  64.465  68.465  0.00  0.00    +0.000 OA
ATOM     28  C   UNL     1      60.799  66.180  69.741  0.00  0.00    +0.000 C 
ATOM     29  O   UNL     1      60.502  66.129  68.972  0.00  0.00    +0.000 OA
ATOM     30  O   UNL     1      60.975  66.917  70.067  0.00  0.00    +0.000 OA
ENDROOT
TORSDOF 0
ENDMDL
MODEL 8
REMARK VINA RESULT:   -10.706      1.659      2.816
REMARK INTER + INTRA:         -10.706
REMARK INTER:                 -10.706
REMARK INTRA:                   0.000
REMARK UNBOUND:                 0.000
ROOT
REMARK  Name = cefmetazole
REMARK                            x       y       z     vdW  Elec       q    Type
REMARK                         _______ _______ _______ _____ _____    ______ ____
ATOM      1  C   UNL     1      59.912  65.194  71.517  0.00  0.00    +0.000 C 
ATOM      2  O   UNL     1      60.299  64.490  71.701  0.00  0.00    +0.000 OA
ATOM      3  C   UNL     1      60.512  63.968  71.100  0.00  0.00    +0.000 C 
ATOM      4  N   UNL     1      60.837  63.455  71.659  0.00  0.00    +0.000 NA
ATOM      5  C   UNL     1      60.814  63.652  72.460  0.00  0.00    +0.000 C 
ATOM      6  O   UNL     1      60.467  64.360  72.701  0.00  0.00    +0.000 OA
ATOM      7  C   UNL     1      61.139  63.140  73.020  0.00  0.00    +0.000 C 
ATOM      8  S   UNL     1      61.486  62.431  72.778  0.00  0.00    +0.000 S 
ATOM      9  C   UNL     1      61.508  62.235  71.977  0.00  0.00    +0.000 C 
ATOM     10  C   UNL     1      61.856  61.526  71.736  0.00  0.00    +0.000 C 
ATOM     11  N   UNL     1      62.202  60.818  71.495  0.00  0.00    +0.000 NA
ATOM     12  C   UNL     1      60.726  63.445  70.498  0.00  0.00    +0.000 C 
ATOM     13  S   UNL     1      61.073  62.736  70.256  0.00  0.00    +0.000 S 
ATOM     14  C   UNL     1      61.096  62.539  69.456  0.00  0.00    +0.000 C 
ATOM     15  C   UNL     1      60.771  63.051  68.896  0.00  0.00    +0.000 C 
ATOM     16  C   UNL     1      60.794  62.854  68.095  0.00  0.00    +0.000 C 
ATOM     17  S   UNL     1      61.140  62.147  67.854  0.00  0.00    +0.000 S 
ATOM     18  C   UNL     1      61.163  61.950  67.053  0.00  0.00    +0.000 A 
ATOM     19  N   UNL     1      61.490  61.264  66.731  0.00  0.00    +0.000 NA
ATOM     20  N   UNL     1      61.391  61.295  65.912  0.00  0.00    +0.000 NA
ATOM     21  N   UNL     1      61.004  61.999  65.728  0.00  0.00    +0.000 NA
ATOM     22  N   UNL     1      60.862  62.404  66.434  0.00  0.00    +0.000 N 
ATOM     23  C   UNL     1      60.487  63.135  66.506  0.00  0.00    +0.000 C 
ATOM     24  C   UNL     1      60.424  63.760  69.137  0.00  0.00    +0.000 C 
ATOM     25  N   UNL     1      60.402  63.956  69.938  0.00  0.00    +0.000 N 
ATOM     26  C   UNL     1      60.188  64.479  70.540  0.00  0.00    +0.000 C 
ATOM     27  O   UNL     1      59.808  65.211  70.570  0.00  0.00    +0.000 OA
ATOM     28  C   UNL     1      60.100  64.271  68.578  0.00  0.00    +0.000 C 
ATOM     29  O   UNL     1      59.752  64.981  68.819  0.00  0.00    +0.000 OA
ATOM     30  O   UNL     1      60.122  64.075  67.776  0.00  0.00    +0.000 OA
ENDROOT
TORSDOF 0
ENDMDL
MODEL 9
REMARK VINA RESULT:    -9.799     15.997     17.357
REMARK INTER + INTRA:          -9.799
REMARK INTER:                  -9.799
REMARK INTRA:                   0.000
REMARK UNBOUND:                 0.000
ROOT
REMARK  Name = cefmetazole
REMARK                            x       y       z     vdW  Elec       q    Type
REMARK                         _______ _______ _______ _____ _____    ______ ____
ATOM      1  C   UNL     1      63.845  59.094  53.401  0.00  0.00    +0.000 C 
ATOM      2  O   UNL     1      63.127  59.192  53.008  0.00  0.00    +0.000 OA
ATOM      3  C   UNL     1      62.776  59.937  52.969  0.00  0.00    +0.000 C 
ATOM      4  N   UNL     1      62.149  59.620  52.537  0.00  0.00    +0.000 NA
ATOM      5  C   UNL     1      62.140  58.816  52.354  0.00  0.00    +0.000 C 
ATOM      6  O   UNL     1      62.757  58.329  52.603  0.00  0.00    +0.000 OA
ATOM      7  C   UNL     1      61.513  58.499  51.921  0.00  0.00    +0.000 C 
ATOM      8  S   UNL     1      60.895  58.986  51.672  0.00  0.00    +0.000 S 
ATOM      9  C   UNL     1      60.905  59.790  51.856  0.00  0.00    +0.000 C 
ATOM     10  C   UNL     1      60.287  60.278  51.606  0.00  0.00    +0.000 C 
ATOM     11  N   UNL     1      59.670  60.765  51.358  0.00  0.00    +0.000 NA
ATOM     12  C   UNL     1      62.425  60.683  52.931  0.00  0.00    +0.000 C 
ATOM     13  S   UNL     1      61.808  61.170  52.682  0.00  0.00    +0.000 S 
ATOM     14  C   UNL     1      61.816  61.975  52.865  0.00  0.00    +0.000 C 
ATOM     15  C   UNL     1      62.444  62.292  53.298  0.00  0.00    +0.000 C 
ATOM     16  C   UNL     1      62.453  63.096  53.481  0.00  0.00    +0.000 C 
ATOM     17  S   UNL     1      61.836  63.583  53.232  0.00  0.00    +0.000 S 
ATOM     18  C   UNL     1      61.846  64.388  53.415  0.00  0.00    +0.000 A 
ATOM     19  N   UNL     1      61.269  64.940  53.205  0.00  0.00    +0.000 NA
ATOM     20  N   UNL     1      61.501  65.674  53.501  0.00  0.00    +0.000 NA
ATOM     21  N   UNL     1      62.219  65.577  53.894  0.00  0.00    +0.000 NA
ATOM     22  N   UNL     1      62.432  64.780  53.841  0.00  0.00    +0.000 N 
ATOM     23  C   UNL     1      63.113  64.439  54.159  0.00  0.00    +0.000 C 
ATOM     24  C   UNL     1      63.061  61.805  53.547  0.00  0.00    +0.000 C 
ATOM     25  N   UNL     1      63.051  61.000  53.364  0.00  0.00    +0.000 N 
ATOM     26  C   UNL     1      63.403  60.255  53.402  0.00  0.00    +0.000 C 
ATOM     27  O   UNL     1      64.094  59.951  53.734  0.00  0.00    +0.000 OA
ATOM     28  C   UNL     1      63.688  62.122  53.979  0.00  0.00    +0.000 C 
ATOM     29  O   UNL     1      64.306  61.634  54.229  0.00  0.00    +0.000 OA
ATOM     30  O   UNL     1      63.698  62.926  54.163  0.00  0.00    +0.000 OA
ENDROOT
TORSDOF 0
ENDMDL
