MODEL 1
REMARK VINA RESULT:   -12.773      0.000      0.000
REMARK INTER + INTRA:         -12.773
REMARK INTER:                 -12.773
REMARK INTRA:                   0.000
REMARK UNBOUND:                 0.000
ROOT
REMARK  Name = cefovecin
REMARK                            x       y       z     vdW  Elec       q    Type
REMARK                         _______ _______ _______ _____ _____    ______ ____
ATOM      1  C   UNL     1      59.808  64.555  70.738  0.00  0.00    +0.000 C 
ATOM      2  S   UNL     1      59.628  64.424  71.533  0.00  0.00    +0.000 S 
ATOM      3  C   UNL     1      59.365  65.047  72.004  0.00  0.00    +0.000 C 
ATOM      4  C   UNL     1      59.281  65.802  71.682  0.00  0.00    +0.000 C 
ATOM      5  C   UNL     1      59.017  66.426  72.154  0.00  0.00    +0.000 C 
ATOM      6  C   UNL     1      58.818  66.378  72.953  0.00  0.00    +0.000 C 
ATOM      7  C   UNL     1      58.584  67.129  73.203  0.00  0.00    +0.000 C 
ATOM      8  C   UNL     1      58.640  67.641  72.557  0.00  0.00    +0.000 C 
ATOM      9  O   UNL     1      58.907  67.206  71.910  0.00  0.00    +0.000 OA
ATOM     10  CA  UNL     1      59.460  65.934  70.888  0.00  0.00    +0.000 C 
ATOM     11  N   UNL     1      59.724  65.310  70.415  0.00  0.00    +0.000 N 
ATOM     12  C   UNL     1      59.980  65.026  69.685  0.00  0.00    +0.000 C 
ATOM     13  O   UNL     1      60.101  65.358  68.940  0.00  0.00    +0.000 OA
ATOM     14  CA  UNL     1      60.063  64.271  70.008  0.00  0.00    +0.000 C 
ATOM     15  N   UNL     1      60.304  63.537  69.718  0.00  0.00    +0.000 NA
ATOM     16  C   UNL     1      60.529  63.458  68.928  0.00  0.00    +0.000 C 
ATOM     17  O   UNL     1      60.514  64.113  68.428  0.00  0.00    +0.000 OA
ATOM     18  C   UNL     1      60.769  62.723  68.640  0.00  0.00    +0.000 C 
ATOM     19  N   UNL     1      60.784  62.068  69.140  0.00  0.00    +0.000 NA
ATOM     20  O   UNL     1      60.559  62.146  69.930  0.00  0.00    +0.000 OA
ATOM     21  C   UNL     1      60.574  61.491  70.431  0.00  0.00    +0.000 C 
ATOM     22  C   UNL     1      60.995  62.644  67.850  0.00  0.00    +0.000 A 
ATOM     23  C   UNL     1      61.008  63.246  67.287  0.00  0.00    +0.000 A 
ATOM     24  S   UNL     1      61.268  62.923  66.573  0.00  0.00    +0.000 S 
ATOM     25  C   UNL     1      61.415  62.121  66.696  0.00  0.00    +0.000 A 
ATOM     26  N   UNL     1      61.684  61.586  66.129  0.00  0.00    +0.000 NA
ATOM     27  N   UNL     1      61.246  61.948  67.485  0.00  0.00    +0.000 NA
ATOM     28  C   UNL     1      59.377  66.688  70.565  0.00  0.00    +0.000 C 
ATOM     29  O   UNL     1      59.556  66.819  69.770  0.00  0.00    +0.000 OA
ATOM     30  OXT UNL     1      59.113  67.311  71.037  0.00  0.00    +0.000 OA
ENDROOT
TORSDOF 0
ENDMDL
MODEL 2
REMARK VINA RESULT:   -12.697      1.985      5.971
REMARK INTER + INTRA:         -12.697
REMARK INTER:                 -12.697
REMARK INTRA:                   0.000
REMARK UNBOUND:                 0.000
ROOT
REMARK  Name = cefovecin
REMARK                            x       y       z     vdW  Elec       q    Type
REMARK                         _______ _______ _______ _____ _____    ______ ____
ATOM      1  C   UNL     1      61.415  62.989  67.338  0.00  0.00    +0.000 C 
ATOM      2  S   UNL     1      62.062  62.888  66.835  0.00  0.00    +0.000 S 
ATOM      3  C   UNL     1      61.969  62.492  66.117  0.00  0.00    +0.000 C 
ATOM      4  C   UNL     1      61.229  62.197  65.901  0.00  0.00    +0.000 C 
ATOM      5  C   UNL     1      61.136  61.802  65.183  0.00  0.00    +0.000 C 
ATOM      6  C   UNL     1      61.730  61.660  64.627  0.00  0.00    +0.000 C 
ATOM      7  C   UNL     1      61.394  61.249  63.995  0.00  0.00    +0.000 C 
ATOM      8  C   UNL     1      60.593  61.137  64.161  0.00  0.00    +0.000 C 
ATOM      9  O   UNL     1      60.434  61.479  64.895  0.00  0.00    +0.000 OA
ATOM     10  CA  UNL     1      60.582  62.298  66.403  0.00  0.00    +0.000 C 
ATOM     11  N   UNL     1      60.675  62.694  67.122  0.00  0.00    +0.000 N 
ATOM     12  C   UNL     1      60.356  62.980  67.825  0.00  0.00    +0.000 C 
ATOM     13  O   UNL     1      59.607  62.974  68.171  0.00  0.00    +0.000 OA
ATOM     14  CA  UNL     1      61.095  63.275  68.041  0.00  0.00    +0.000 C 
ATOM     15  N   UNL     1      61.392  63.686  68.692  0.00  0.00    +0.000 NA
ATOM     16  C   UNL     1      60.892  63.886  69.317  0.00  0.00    +0.000 C 
ATOM     17  O   UNL     1      60.095  63.675  69.291  0.00  0.00    +0.000 OA
ATOM     18  C   UNL     1      61.188  64.297  69.968  0.00  0.00    +0.000 C 
ATOM     19  N   UNL     1      61.986  64.508  69.994  0.00  0.00    +0.000 NA
ATOM     20  O   UNL     1      62.486  64.308  69.370  0.00  0.00    +0.000 OA
ATOM     21  C   UNL     1      63.284  64.519  69.396  0.00  0.00    +0.000 C 
ATOM     22  C   UNL     1      60.688  64.498  70.592  0.00  0.00    +0.000 A 
ATOM     23  C   UNL     1      59.883  64.325  70.644  0.00  0.00    +0.000 A 
ATOM     24  S   UNL     1      59.603  64.627  71.359  0.00  0.00    +0.000 S 
ATOM     25  C   UNL     1      60.234  64.985  71.749  0.00  0.00    +0.000 A 
ATOM     26  N   UNL     1      60.200  65.358  72.484  0.00  0.00    +0.000 NA
ATOM     27  N   UNL     1      60.905  64.906  71.276  0.00  0.00    +0.000 NA
ATOM     28  C   UNL     1      59.844  62.003  66.187  0.00  0.00    +0.000 C 
ATOM     29  O   UNL     1      59.196  62.104  66.690  0.00  0.00    +0.000 OA
ATOM     30  OXT UNL     1      59.750  61.608  65.470  0.00  0.00    +0.000 OA
ENDROOT
TORSDOF 0
ENDMDL
MODEL 3
REMARK VINA RESULT:   -12.147      2.219      3.011
REMARK INTER + INTRA:         -12.147
REMARK INTER:                 -12.147
REMARK INTRA:                   0.000
REMARK UNBOUND:                 0.000
ROOT
REMARK  Name = cefovecin
REMARK                            x       y       z     vdW  Elec       q    Type
REMARK                         _______ _______ _______ _____ _____    ______ ____
ATOM      1  C   UNL     1      60.748  63.510  68.806  0.00  0.00    +0.000 C 
ATOM      2  S   UNL     1      60.115  63.593  69.331  0.00  0.00    +0.000 S 
ATOM      3  C   UNL     1      60.232  63.953  70.064  0.00  0.00    +0.000 C 
ATOM      4  C   UNL     1      60.981  64.230  70.273  0.00  0.00    +0.000 C 
ATOM      5  C   UNL     1      61.098  64.590  71.007  0.00  0.00    +0.000 C 
ATOM      6  C   UNL     1      60.521  64.711  71.585  0.00  0.00    +0.000 C 
ATOM      7  C   UNL     1      60.878  65.088  72.226  0.00  0.00    +0.000 C 
ATOM      8  C   UNL     1      61.676  65.200  72.044  0.00  0.00    +0.000 C 
ATOM      9  O   UNL     1      61.811  64.892  71.290  0.00  0.00    +0.000 OA
ATOM     10  CA  UNL     1      61.613  64.147  69.749  0.00  0.00    +0.000 C 
ATOM     11  N   UNL     1      61.496  63.787  69.016  0.00  0.00    +0.000 N 
ATOM     12  C   UNL     1      61.793  63.532  68.291  0.00  0.00    +0.000 C 
ATOM     13  O   UNL     1      62.533  63.547  67.925  0.00  0.00    +0.000 OA
ATOM     14  CA  UNL     1      61.045  63.255  68.081  0.00  0.00    +0.000 C 
ATOM     15  N   UNL     1      60.727  62.878  67.420  0.00  0.00    +0.000 NA
ATOM     16  C   UNL     1      61.207  62.703  66.773  0.00  0.00    +0.000 C 
ATOM     17  O   UNL     1      62.007  62.905  66.787  0.00  0.00    +0.000 OA
ATOM     18  C   UNL     1      60.889  62.326  66.112  0.00  0.00    +0.000 C 
ATOM     19  N   UNL     1      60.089  62.125  66.097  0.00  0.00    +0.000 NA
ATOM     20  O   UNL     1      59.607  62.300  66.744  0.00  0.00    +0.000 OA
ATOM     21  C   UNL     1      58.807  62.098  66.730  0.00  0.00    +0.000 C 
ATOM     22  C   UNL     1      61.369  62.151  65.465  0.00  0.00    +0.000 A 
ATOM     23  C   UNL     1      62.174  62.318  65.400  0.00  0.00    +0.000 A 
ATOM     24  S   UNL     1      62.432  62.048  64.664  0.00  0.00    +0.000 S 
ATOM     25  C   UNL     1      61.786  61.715  64.274  0.00  0.00    +0.000 A 
ATOM     26  N   UNL     1      61.796  61.377  63.522  0.00  0.00    +0.000 NA
ATOM     27  N   UNL     1      61.129  61.778  64.769  0.00  0.00    +0.000 NA
ATOM     28  C   UNL     1      62.360  64.424  69.958  0.00  0.00    +0.000 C 
ATOM     29  O   UNL     1      62.993  64.341  69.434  0.00  0.00    +0.000 OA
ATOM     30  OXT UNL     1      62.478  64.784  70.691  0.00  0.00    +0.000 OA
ENDROOT
TORSDOF 0
ENDMDL
MODEL 4
REMARK VINA RESULT:   -11.751      3.782      4.962
REMARK INTER + INTRA:         -11.751
REMARK INTER:                 -11.751
REMARK INTRA:                   0.000
REMARK UNBOUND:                 0.000
ROOT
REMARK  Name = cefovecin
REMARK                            x       y       z     vdW  Elec       q    Type
REMARK                         _______ _______ _______ _____ _____    ______ ____
ATOM      1  C   UNL     1      61.012  66.704  72.590  0.00  0.00    +0.000 C 
ATOM      2  S   UNL     1      60.442  67.125  73.014  0.00  0.00    +0.000 S 
ATOM      3  C   UNL     1      59.679  66.822  73.089  0.00  0.00    +0.000 C 
ATOM      4  C   UNL     1      59.484  66.100  72.741  0.00  0.00    +0.000 C 
ATOM      5  C   UNL     1      58.720  65.798  72.817  0.00  0.00    +0.000 C 
ATOM      6  C   UNL     1      58.095  66.154  73.222  0.00  0.00    +0.000 C 
ATOM      7  C   UNL     1      57.435  65.663  73.156  0.00  0.00    +0.000 C 
ATOM      8  C   UNL     1      57.653  65.003  72.710  0.00  0.00    +0.000 C 
ATOM      9  O   UNL     1      58.446  65.087  72.501  0.00  0.00    +0.000 OA
ATOM     10  CA  UNL     1      60.054  65.679  72.318  0.00  0.00    +0.000 C 
ATOM     11  N   UNL     1      60.818  65.981  72.243  0.00  0.00    +0.000 N 
ATOM     12  C   UNL     1      61.587  65.913  71.955  0.00  0.00    +0.000 C 
ATOM     13  O   UNL     1      61.995  65.354  71.505  0.00  0.00    +0.000 OA
ATOM     14  CA  UNL     1      61.782  66.635  72.303  0.00  0.00    +0.000 C 
ATOM     15  N   UNL     1      62.464  67.097  72.344  0.00  0.00    +0.000 NA
ATOM     16  C   UNL     1      63.158  66.845  71.977  0.00  0.00    +0.000 C 
ATOM     17  O   UNL     1      63.169  66.129  71.566  0.00  0.00    +0.000 OA
ATOM     18  C   UNL     1      63.839  67.307  72.019  0.00  0.00    +0.000 C 
ATOM     19  N   UNL     1      63.828  68.023  72.429  0.00  0.00    +0.000 NA
ATOM     20  O   UNL     1      63.135  68.276  72.797  0.00  0.00    +0.000 OA
ATOM     21  C   UNL     1      63.123  68.992  73.208  0.00  0.00    +0.000 C 
ATOM     22  C   UNL     1      64.533  67.054  71.651  0.00  0.00    +0.000 A 
ATOM     23  C   UNL     1      64.628  66.355  71.223  0.00  0.00    +0.000 A 
ATOM     24  S   UNL     1      65.407  66.325  70.953  0.00  0.00    +0.000 S 
ATOM     25  C   UNL     1      65.794  67.005  71.215  0.00  0.00    +0.000 A 
ATOM     26  N   UNL     1      66.582  67.199  71.071  0.00  0.00    +0.000 NA
ATOM     27  N   UNL     1      65.254  67.456  71.646  0.00  0.00    +0.000 NA
ATOM     28  C   UNL     1      59.860  64.957  71.971  0.00  0.00    +0.000 C 
ATOM     29  O   UNL     1      60.430  64.536  71.547  0.00  0.00    +0.000 OA
ATOM     30  OXT UNL     1      59.096  64.655  72.046  0.00  0.00    +0.000 OA
ENDROOT
TORSDOF 0
ENDMDL
MODEL 5
REMARK VINA RESULT:   -11.679      2.301      2.382
REMARK INTER + INTRA:         -11.679
REMARK INTER:                 -11.679
REMARK INTRA:                   0.000
REMARK UNBOUND:                 0.000
ROOT
REMARK  Name = cefovecin
REMARK                            x       y       z     vdW  Elec       q    Type
REMARK                         _______ _______ _______ _____ _____    ______ ____
ATOM      1  C   UNL     1      61.682  64.383  70.514  0.00  0.00    +0.000 C 
ATOM      2  S   UNL     1      61.547  64.294  71.324  0.00  0.00    +0.000 S 
ATOM      3  C   UNL     1      61.810  64.872  71.850  0.00  0.00    +0.000 C 
ATOM      4  C   UNL     1      62.207  65.538  71.568  0.00  0.00    +0.000 C 
ATOM      5  C   UNL     1      62.470  66.117  72.096  0.00  0.00    +0.000 C 
ATOM      6  C   UNL     1      62.376  66.104  72.916  0.00  0.00    +0.000 C 
ATOM      7  C   UNL     1      62.721  66.788  73.222  0.00  0.00    +0.000 C 
ATOM      8  C   UNL     1      63.028  67.223  72.592  0.00  0.00    +0.000 C 
ATOM      9  O   UNL     1      62.873  66.808  71.896  0.00  0.00    +0.000 OA
ATOM     10  CA  UNL     1      62.342  65.627  70.760  0.00  0.00    +0.000 C 
ATOM     11  N   UNL     1      62.079  65.048  70.232  0.00  0.00    +0.000 N 
ATOM     12  C   UNL     1      62.006  64.766  69.461  0.00  0.00    +0.000 C 
ATOM     13  O   UNL     1      62.234  65.036  68.716  0.00  0.00    +0.000 OA
ATOM     14  CA  UNL     1      61.608  64.100  69.743  0.00  0.00    +0.000 C 
ATOM     15  N   UNL     1      61.276  63.430  69.397  0.00  0.00    +0.000 NA
ATOM     16  C   UNL     1      61.307  63.328  68.578  0.00  0.00    +0.000 C 
ATOM     17  O   UNL     1      61.671  63.899  68.107  0.00  0.00    +0.000 OA
ATOM     18  C   UNL     1      60.974  62.658  68.233  0.00  0.00    +0.000 C 
ATOM     19  N   UNL     1      60.609  62.088  68.704  0.00  0.00    +0.000 NA
ATOM     20  O   UNL     1      60.577  62.188  69.523  0.00  0.00    +0.000 OA
ATOM     21  C   UNL     1      60.213  61.618  69.995  0.00  0.00    +0.000 C 
ATOM     22  C   UNL     1      61.005  62.557  67.414  0.00  0.00    +0.000 A 
ATOM     23  C   UNL     1      61.349  63.077  66.874  0.00  0.00    +0.000 A 
ATOM     24  S   UNL     1      61.255  62.760  66.119  0.00  0.00    +0.000 S 
ATOM     25  C   UNL     1      60.852  62.044  66.192  0.00  0.00    +0.000 A 
ATOM     26  N   UNL     1      60.641  61.542  65.573  0.00  0.00    +0.000 NA
ATOM     27  N   UNL     1      60.698  61.918  66.992  0.00  0.00    +0.000 NA
ATOM     28  C   UNL     1      62.739  66.292  70.478  0.00  0.00    +0.000 C 
ATOM     29  O   UNL     1      62.874  66.380  69.668  0.00  0.00    +0.000 OA
ATOM     30  OXT UNL     1      63.002  66.870  71.004  0.00  0.00    +0.000 OA
ENDROOT
TORSDOF 0
ENDMDL
MODEL 6
REMARK VINA RESULT:   -11.610      2.793      5.340
REMARK INTER + INTRA:         -11.610
REMARK INTER:                 -11.610
REMARK INTRA:                   0.000
REMARK UNBOUND:                 0.000
ROOT
REMARK  Name = cefovecin
REMARK                            x       y       z     vdW  Elec       q    Type
REMARK                         _______ _______ _______ _____ _____    ______ ____
ATOM      1  C   UNL     1      60.952  63.851  68.802  0.00  0.00    +0.000 C 
ATOM      2  S   UNL     1      60.141  63.693  68.809  0.00  0.00    +0.000 S 
ATOM      3  C   UNL     1      59.800  63.262  68.194  0.00  0.00    +0.000 C 
ATOM      4  C   UNL     1      60.268  62.989  67.572  0.00  0.00    +0.000 C 
ATOM      5  C   UNL     1      59.926  62.557  66.957  0.00  0.00    +0.000 C 
ATOM      6  C   UNL     1      59.128  62.358  66.890  0.00  0.00    +0.000 C 
ATOM      7  C   UNL     1      59.031  61.927  66.193  0.00  0.00    +0.000 C 
ATOM      8  C   UNL     1      59.770  61.860  65.829  0.00  0.00    +0.000 C 
ATOM      9  O   UNL     1      60.322  62.250  66.302  0.00  0.00    +0.000 OA
ATOM     10  CA  UNL     1      61.078  63.146  67.565  0.00  0.00    +0.000 C 
ATOM     11  N   UNL     1      61.420  63.577  68.180  0.00  0.00    +0.000 N 
ATOM     12  C   UNL     1      62.084  63.916  68.531  0.00  0.00    +0.000 C 
ATOM     13  O   UNL     1      62.885  63.964  68.340  0.00  0.00    +0.000 OA
ATOM     14  CA  UNL     1      61.616  64.190  69.153  0.00  0.00    +0.000 C 
ATOM     15  N   UNL     1      61.756  64.624  69.840  0.00  0.00    +0.000 NA
ATOM     16  C   UNL     1      62.519  64.881  70.019  0.00  0.00    +0.000 C 
ATOM     17  O   UNL     1      63.143  64.705  69.509  0.00  0.00    +0.000 OA
ATOM     18  C   UNL     1      62.658  65.315  70.706  0.00  0.00    +0.000 C 
ATOM     19  N   UNL     1      62.034  65.491  71.216  0.00  0.00    +0.000 NA
ATOM     20  O   UNL     1      61.271  65.234  71.039  0.00  0.00    +0.000 OA
ATOM     21  C   UNL     1      60.646  65.410  71.549  0.00  0.00    +0.000 C 
ATOM     22  C   UNL     1      63.421  65.572  70.885  0.00  0.00    +0.000 A 
ATOM     23  C   UNL     1      64.097  65.439  70.430  0.00  0.00    +0.000 A 
ATOM     24  S   UNL     1      64.736  65.793  70.813  0.00  0.00    +0.000 S 
ATOM     25  C   UNL     1      64.456  66.145  71.505  0.00  0.00    +0.000 A 
ATOM     26  N   UNL     1      64.909  66.560  72.054  0.00  0.00    +0.000 NA
ATOM     27  N   UNL     1      63.643  66.009  71.549  0.00  0.00    +0.000 NA
ATOM     28  C   UNL     1      61.545  62.872  66.944  0.00  0.00    +0.000 C 
ATOM     29  O   UNL     1      62.356  63.030  66.936  0.00  0.00    +0.000 OA
ATOM     30  OXT UNL     1      61.204  62.441  66.329  0.00  0.00    +0.000 OA
ENDROOT
TORSDOF 0
ENDMDL
MODEL 7
REMARK VINA RESULT:   -10.022      4.048      5.383
REMARK INTER + INTRA:         -10.022
REMARK INTER:                 -10.022
REMARK INTRA:                   0.000
REMARK UNBOUND:                 0.000
ROOT
REMARK  Name = cefovecin
REMARK                            x       y       z     vdW  Elec       q    Type
REMARK                         _______ _______ _______ _____ _____    ______ ____
ATOM      1  C   UNL     1      62.428  64.757  71.268  0.00  0.00    +0.000 C 
ATOM      2  S   UNL     1      61.871  64.606  71.859  0.00  0.00    +0.000 S 
ATOM      3  C   UNL     1      61.331  63.989  71.769  0.00  0.00    +0.000 C 
ATOM      4  C   UNL     1      61.347  63.523  71.089  0.00  0.00    +0.000 C 
ATOM      5  C   UNL     1      60.806  62.905  70.999  0.00  0.00    +0.000 C 
ATOM      6  C   UNL     1      60.221  62.690  71.540  0.00  0.00    +0.000 C 
ATOM      7  C   UNL     1      59.810  62.047  71.228  0.00  0.00    +0.000 C 
ATOM      8  C   UNL     1      60.140  61.864  70.494  0.00  0.00    +0.000 C 
ATOM      9  O   UNL     1      60.756  62.395  70.353  0.00  0.00    +0.000 OA
ATOM     10  CA  UNL     1      61.903  63.672  70.498  0.00  0.00    +0.000 C 
ATOM     11  N   UNL     1      62.444  64.290  70.587  0.00  0.00    +0.000 N 
ATOM     12  C   UNL     1      63.076  64.732  70.299  0.00  0.00    +0.000 C 
ATOM     13  O   UNL     1      63.535  64.716  69.613  0.00  0.00    +0.000 OA
ATOM     14  CA  UNL     1      63.060  65.199  70.979  0.00  0.00    +0.000 C 
ATOM     15  N   UNL     1      63.497  65.843  71.255  0.00  0.00    +0.000 NA
ATOM     16  C   UNL     1      64.112  66.150  70.799  0.00  0.00    +0.000 C 
ATOM     17  O   UNL     1      64.291  65.814  70.068  0.00  0.00    +0.000 OA
ATOM     18  C   UNL     1      64.549  66.793  71.076  0.00  0.00    +0.000 C 
ATOM     19  N   UNL     1      64.370  67.129  71.807  0.00  0.00    +0.000 NA
ATOM     20  O   UNL     1      63.754  66.823  72.263  0.00  0.00    +0.000 OA
ATOM     21  C   UNL     1      63.575  67.159  72.995  0.00  0.00    +0.000 C 
ATOM     22  C   UNL     1      65.164  67.100  70.621  0.00  0.00    +0.000 A 
ATOM     23  C   UNL     1      65.406  66.824  69.882  0.00  0.00    +0.000 A 
ATOM     24  S   UNL     1      66.037  67.291  69.629  0.00  0.00    +0.000 S 
ATOM     25  C   UNL     1      66.186  67.856  70.211  0.00  0.00    +0.000 A 
ATOM     26  N   UNL     1      66.771  68.436  70.184  0.00  0.00    +0.000 NA
ATOM     27  N   UNL     1      65.646  67.738  70.824  0.00  0.00    +0.000 NA
ATOM     28  C   UNL     1      61.919  63.206  69.818  0.00  0.00    +0.000 C 
ATOM     29  O   UNL     1      62.475  63.356  69.227  0.00  0.00    +0.000 OA
ATOM     30  OXT UNL     1      61.379  62.589  69.728  0.00  0.00    +0.000 OA
ENDROOT
TORSDOF 0
ENDMDL
MODEL 8
REMARK VINA RESULT:   -10.015     16.126     17.399
REMARK INTER + INTRA:         -10.015
REMARK INTER:                 -10.015
REMARK INTRA:                   0.000
REMARK UNBOUND:                 0.000
ROOT
REMARK  Name = cefovecin
REMARK                            x       y       z     vdW  Elec       q    Type
REMARK                         _______ _______ _______ _____ _____    ______ ____
ATOM      1  C   UNL     1      62.286  62.853  53.151  0.00  0.00    +0.000 C 
ATOM      2  S   UNL     1      61.899  62.276  52.705  0.00  0.00    +0.000 S 
ATOM      3  C   UNL     1      62.191  61.505  52.687  0.00  0.00    +0.000 C 
ATOM      4  C   UNL     1      62.869  61.310  53.116  0.00  0.00    +0.000 C 
ATOM      5  C   UNL     1      63.161  60.538  53.098  0.00  0.00    +0.000 C 
ATOM      6  C   UNL     1      62.835  59.906  52.678  0.00  0.00    +0.000 C 
ATOM      7  C   UNL     1      63.302  59.240  52.817  0.00  0.00    +0.000 C 
ATOM      8  C   UNL     1      63.916  59.460  53.323  0.00  0.00    +0.000 C 
ATOM      9  O   UNL     1      63.829  60.263  53.495  0.00  0.00    +0.000 OA
ATOM     10  CA  UNL     1      63.255  61.886  53.562  0.00  0.00    +0.000 C 
ATOM     11  N   UNL     1      62.964  62.658  53.580  0.00  0.00    +0.000 N 
ATOM     12  C   UNL     1      63.018  63.435  53.847  0.00  0.00    +0.000 C 
ATOM     13  O   UNL     1      63.536  63.848  54.340  0.00  0.00    +0.000 OA
ATOM     14  CA  UNL     1      62.341  63.630  53.419  0.00  0.00    +0.000 C 
ATOM     15  N   UNL     1      61.900  64.319  53.306  0.00  0.00    +0.000 NA
ATOM     16  C   UNL     1      62.128  65.021  53.676  0.00  0.00    +0.000 C 
ATOM     17  O   UNL     1      62.797  65.033  54.159  0.00  0.00    +0.000 OA
ATOM     18  C   UNL     1      61.688  65.709  53.562  0.00  0.00    +0.000 C 
ATOM     19  N   UNL     1      61.019  65.696  53.080  0.00  0.00    +0.000 NA
ATOM     20  O   UNL     1      60.791  64.995  52.710  0.00  0.00    +0.000 OA
ATOM     21  C   UNL     1      60.122  64.981  52.226  0.00  0.00    +0.000 C 
ATOM     22  C   UNL     1      61.916  66.410  53.932  0.00  0.00    +0.000 A 
ATOM     23  C   UNL     1      62.568  66.507  54.428  0.00  0.00    +0.000 A 
ATOM     24  S   UNL     1      62.587  67.295  54.673  0.00  0.00    +0.000 S 
ATOM     25  C   UNL     1      61.947  67.684  54.328  0.00  0.00    +0.000 A 
ATOM     26  N   UNL     1      61.755  68.481  54.425  0.00  0.00    +0.000 NA
ATOM     27  N   UNL     1      61.532  67.138  53.871  0.00  0.00    +0.000 NA
ATOM     28  C   UNL     1      63.932  61.691  53.990  0.00  0.00    +0.000 C 
ATOM     29  O   UNL     1      64.319  62.268  54.436  0.00  0.00    +0.000 OA
ATOM     30  OXT UNL     1      64.224  60.920  53.972  0.00  0.00    +0.000 OA
ENDROOT
TORSDOF 0
ENDMDL
MODEL 9
REMARK VINA RESULT:    -9.857     15.637     16.382
REMARK INTER + INTRA:          -9.857
REMARK INTER:                  -9.857
REMARK INTRA:                   0.000
REMARK UNBOUND:                 0.000
ROOT
REMARK  Name = cefovecin
REMARK                            x       y       z     vdW  Elec       q    Type
REMARK                         _______ _______ _______ _____ _____    ______ ____
ATOM      1  C   UNL     1      61.682  66.898  53.648  0.00  0.00    +0.000 C 
ATOM      2  S   UNL     1      61.227  67.478  53.277  0.00  0.00    +0.000 S 
ATOM      3  C   UNL     1      61.238  68.254  53.559  0.00  0.00    +0.000 C 
ATOM      4  C   UNL     1      61.703  68.449  54.212  0.00  0.00    +0.000 C 
ATOM      5  C   UNL     1      61.714  69.225  54.493  0.00  0.00    +0.000 C 
ATOM      6  C   UNL     1      61.290  69.861  54.180  0.00  0.00    +0.000 C 
ATOM      7  C   UNL     1      61.464  70.529  54.631  0.00  0.00    +0.000 C 
ATOM      8  C   UNL     1      61.995  70.307  55.222  0.00  0.00    +0.000 C 
ATOM      9  O   UNL     1      62.149  69.501  55.137  0.00  0.00    +0.000 OA
ATOM     10  CA  UNL     1      62.157  67.870  54.583  0.00  0.00    +0.000 C 
ATOM     11  N   UNL     1      62.146  67.094  54.301  0.00  0.00    +0.000 N 
ATOM     12  C   UNL     1      62.402  66.312  54.353  0.00  0.00    +0.000 C 
ATOM     13  O   UNL     1      62.912  65.896  54.851  0.00  0.00    +0.000 OA
ATOM     14  CA  UNL     1      61.937  66.117  53.700  0.00  0.00    +0.000 C 
ATOM     15  N   UNL     1      61.790  65.425  53.275  0.00  0.00    +0.000 NA
ATOM     16  C   UNL     1      62.158  64.719  53.494  0.00  0.00    +0.000 C 
ATOM     17  O   UNL     1      62.673  64.706  54.138  0.00  0.00    +0.000 OA
ATOM     18  C   UNL     1      62.010  64.028  53.069  0.00  0.00    +0.000 C 
ATOM     19  N   UNL     1      61.495  64.041  52.425  0.00  0.00    +0.000 NA
ATOM     20  O   UNL     1      61.127  64.746  52.206  0.00  0.00    +0.000 OA
ATOM     21  C   UNL     1      60.612  64.761  51.561  0.00  0.00    +0.000 C 
ATOM     22  C   UNL     1      62.378  63.322  53.288  0.00  0.00    +0.000 A 
ATOM     23  C   UNL     1      62.903  63.224  53.916  0.00  0.00    +0.000 A 
ATOM     24  S   UNL     1      63.135  62.432  53.934  0.00  0.00    +0.000 S 
ATOM     25  C   UNL     1      62.752  62.041  53.316  0.00  0.00    +0.000 A 
ATOM     26  N   UNL     1      62.825  61.241  53.131  0.00  0.00    +0.000 NA
ATOM     27  N   UNL     1      62.284  62.591  52.918  0.00  0.00    +0.000 NA
ATOM     28  C   UNL     1      62.621  68.065  55.235  0.00  0.00    +0.000 C 
ATOM     29  O   UNL     1      63.076  67.484  55.607  0.00  0.00    +0.000 OA
ATOM     30  OXT UNL     1      62.632  68.840  55.517  0.00  0.00    +0.000 OA
ENDROOT
TORSDOF 0
ENDMDL
