MODEL 1
REMARK VINA RESULT:   -17.359      0.000      0.000
REMARK INTER + INTRA:         -17.359
REMARK INTER:                 -17.359
REMARK INTRA:                   0.000
REMARK UNBOUND:                 0.000
ROOT
REMARK  Name = cefpiramide
REMARK                            x       y       z     vdW  Elec       q    Type
REMARK                         _______ _______ _______ _____ _____    ______ ____
ATOM      1  C   UNL     1      62.594  62.347  64.269  0.00  0.00    +0.000 C 
ATOM      2  N   UNL     1      61.901  61.908  64.360  0.00  0.00    +0.000 N 
ATOM      3  N   UNL     1      61.560  61.418  63.792  0.00  0.00    +0.000 NA
ATOM      4  N   UNL     1      60.877  61.088  64.116  0.00  0.00    +0.000 NA
ATOM      5  N   UNL     1      60.796  61.374  64.885  0.00  0.00    +0.000 NA
ATOM      6  C   UNL     1      61.430  61.881  65.036  0.00  0.00    +0.000 A 
ATOM      7  S   UNL     1      61.567  62.289  65.740  0.00  0.00    +0.000 S 
ATOM      8  C   UNL     1      61.044  62.208  66.373  0.00  0.00    +0.000 C 
ATOM      9  C   UNL     1      61.181  62.617  67.077  0.00  0.00    +0.000 C 
ATOM     10  CA  UNL     1      60.659  62.536  67.709  0.00  0.00    +0.000 C 
ATOM     11  N   UNL     1      60.796  62.944  68.412  0.00  0.00    +0.000 N 
ATOM     12  C   UNL     1      61.456  63.433  68.483  0.00  0.00    +0.000 C 
ATOM     13  S   UNL     1      61.979  63.514  67.850  0.00  0.00    +0.000 S 
ATOM     14  C   UNL     1      61.842  63.106  67.147  0.00  0.00    +0.000 C 
ATOM     15  CA  UNL     1      61.233  63.622  69.255  0.00  0.00    +0.000 C 
ATOM     16  N   UNL     1      61.543  64.102  69.851  0.00  0.00    +0.000 NA
ATOM     17  C   UNL     1      62.238  64.526  69.719  0.00  0.00    +0.000 C 
ATOM     18  O   UNL     1      62.625  64.470  68.992  0.00  0.00    +0.000 OA
ATOM     19  CA  UNL     1      62.548  65.006  70.315  0.00  0.00    +0.000 C 
ATOM     20  N   UNL     1      63.243  65.429  70.183  0.00  0.00    +0.000 NA
ATOM     21  C   UNL     1      63.553  65.909  70.779  0.00  0.00    +0.000 C 
ATOM     22  O   UNL     1      63.167  65.965  71.505  0.00  0.00    +0.000 OA
ATOM     23  C   UNL     1      64.248  66.333  70.647  0.00  0.00    +0.000 A 
ATOM     24  C   UNL     1      64.558  66.813  71.242  0.00  0.00    +0.000 A 
ATOM     25  N   UNL     1      65.253  67.237  71.112  0.00  0.00    +0.000 NA
ATOM     26  C   UNL     1      65.638  67.181  70.384  0.00  0.00    +0.000 A 
ATOM     27  C   UNL     1      66.334  67.605  70.252  0.00  0.00    +0.000 C 
ATOM     28  C   UNL     1      65.329  66.701  69.789  0.00  0.00    +0.000 A 
ATOM     29  C   UNL     1      64.634  66.277  69.920  0.00  0.00    +0.000 A 
ATOM     30  O   UNL     1      64.325  65.798  69.325  0.00  0.00    +0.000 OA
ATOM     31  C   UNL     1      62.162  65.061  71.042  0.00  0.00    +0.000 A 
ATOM     32  C   UNL     1      61.466  64.637  71.173  0.00  0.00    +0.000 A 
ATOM     33  C   UNL     1      61.081  64.693  71.900  0.00  0.00    +0.000 A 
ATOM     34  C   UNL     1      61.390  65.173  72.495  0.00  0.00    +0.000 A 
ATOM     35  O   UNL     1      61.004  65.228  73.222  0.00  0.00    +0.000 OA
ATOM     36  C   UNL     1      62.085  65.597  72.364  0.00  0.00    +0.000 A 
ATOM     37  C   UNL     1      62.471  65.541  71.637  0.00  0.00    +0.000 A 
ATOM     38  C   UNL     1      60.573  63.133  69.185  0.00  0.00    +0.000 C 
ATOM     39  O   UNL     1      59.949  62.920  69.680  0.00  0.00    +0.000 OA
ATOM     40  C   UNL     1      59.998  62.045  67.638  0.00  0.00    +0.000 C 
ATOM     41  O   UNL     1      59.475  61.964  68.271  0.00  0.00    +0.000 OA
ATOM     42  OXT UNL     1      59.861  61.638  66.935  0.00  0.00    +0.000 OA
ENDROOT
TORSDOF 0
ENDMDL
