MODEL 1
REMARK VINA RESULT:   -13.275      0.000      0.000
REMARK INTER + INTRA:         -13.275
REMARK INTER:                 -13.275
REMARK INTRA:                   0.000
REMARK UNBOUND:                 0.000
ROOT
REMARK  Name = cefpodoxime proxetil
REMARK                            x       y       z     vdW  Elec       q    Type
REMARK                         _______ _______ _______ _____ _____    ______ ____
ATOM      1  C   UNL     1      58.658  62.030  66.631  0.00  0.00    +0.000 C 
ATOM      2  O   UNL     1      59.047  62.450  67.226  0.00  0.00    +0.000 OA
ATOM      3  C   UNL     1      59.850  62.621  67.152  0.00  0.00    +0.000 C 
ATOM      4  C   UNL     1      60.239  63.040  67.746  0.00  0.00    +0.000 C 
ATOM      5  C   UNL     1      61.043  63.211  67.672  0.00  0.00    +0.000 C 
ATOM      6  N   UNL     1      61.431  63.630  68.267  0.00  0.00    +0.000 N 
ATOM      7  C   UNL     1      61.017  63.879  68.935  0.00  0.00    +0.000 C 
ATOM      8  S   UNL     1      60.213  63.709  69.009  0.00  0.00    +0.000 S 
ATOM      9  C   UNL     1      59.824  63.289  68.414  0.00  0.00    +0.000 C 
ATOM     10  C   UNL     1      61.706  64.220  69.235  0.00  0.00    +0.000 C 
ATOM     11  N   UNL     1      61.899  64.637  69.921  0.00  0.00    +0.000 NA
ATOM     12  C   UNL     1      62.672  64.902  70.038  0.00  0.00    +0.000 C 
ATOM     13  O   UNL     1      63.250  64.749  69.470  0.00  0.00    +0.000 OA
ATOM     14  C   UNL     1      62.865  65.319  70.724  0.00  0.00    +0.000 C 
ATOM     15  N   UNL     1      62.286  65.471  71.291  0.00  0.00    +0.000 NA
ATOM     16  O   UNL     1      61.514  65.206  71.173  0.00  0.00    +0.000 OA
ATOM     17  C   UNL     1      60.935  65.358  71.741  0.00  0.00    +0.000 C 
ATOM     18  C   UNL     1      63.637  65.583  70.841  0.00  0.00    +0.000 A 
ATOM     19  C   UNL     1      64.271  65.473  70.325  0.00  0.00    +0.000 A 
ATOM     20  S   UNL     1      64.937  65.827  70.659  0.00  0.00    +0.000 S 
ATOM     21  C   UNL     1      64.715  66.155  71.383  0.00  0.00    +0.000 A 
ATOM     22  N   UNL     1      65.209  66.562  71.903  0.00  0.00    +0.000 NA
ATOM     23  N   UNL     1      63.912  66.005  71.494  0.00  0.00    +0.000 NA
ATOM     24  C   UNL     1      62.121  63.971  68.568  0.00  0.00    +0.000 C 
ATOM     25  O   UNL     1      62.901  64.036  68.307  0.00  0.00    +0.000 OA
ATOM     26  C   UNL     1      61.457  62.962  67.005  0.00  0.00    +0.000 C 
ATOM     27  O   UNL     1      62.262  63.133  66.931  0.00  0.00    +0.000 OA
ATOM     28  O   UNL     1      61.069  62.543  66.410  0.00  0.00    +0.000 OA
ATOM     29  C   UNL     1      61.484  62.293  65.741  0.00  0.00    +0.000 C 
ATOM     30  C   UNL     1      62.288  62.464  65.667  0.00  0.00    +0.000 C 
ATOM     31  O   UNL     1      61.095  61.874  65.147  0.00  0.00    +0.000 OA
ATOM     32  C   UNL     1      61.510  61.625  64.479  0.00  0.00    +0.000 C 
ATOM     33  O   UNL     1      62.314  61.796  64.405  0.00  0.00    +0.000 OA
ATOM     34  O   UNL     1      61.121  61.206  63.884  0.00  0.00    +0.000 OA
ATOM     35  C   UNL     1      61.536  60.957  63.216  0.00  0.00    +0.000 C 
ATOM     36  C   UNL     1      61.147  60.537  62.621  0.00  0.00    +0.000 C 
ATOM     37  C   UNL     1      62.340  61.128  63.143  0.00  0.00    +0.000 C 
ENDROOT
TORSDOF 0
ENDMDL
MODEL 2
REMARK VINA RESULT:   -11.552     13.492     14.966
REMARK INTER + INTRA:         -11.552
REMARK INTER:                 -11.552
REMARK INTRA:                   0.000
REMARK UNBOUND:                 0.000
ROOT
REMARK  Name = cefpodoxime proxetil
REMARK                            x       y       z     vdW  Elec       q    Type
REMARK                         _______ _______ _______ _____ _____    ______ ____
ATOM      1  C   UNL     1      61.489  61.986  50.520  0.00  0.00    +0.000 C 
ATOM      2  O   UNL     1      61.464  62.742  50.851  0.00  0.00    +0.000 OA
ATOM      3  C   UNL     1      61.789  62.876  51.596  0.00  0.00    +0.000 C 
ATOM      4  C   UNL     1      61.765  63.630  51.928  0.00  0.00    +0.000 C 
ATOM      5  C   UNL     1      62.091  63.764  52.674  0.00  0.00    +0.000 C 
ATOM      6  N   UNL     1      62.066  64.519  53.005  0.00  0.00    +0.000 N 
ATOM      7  C   UNL     1      61.715  65.141  52.591  0.00  0.00    +0.000 C 
ATOM      8  S   UNL     1      61.390  65.007  51.845  0.00  0.00    +0.000 S 
ATOM      9  C   UNL     1      61.414  64.251  51.513  0.00  0.00    +0.000 C 
ATOM     10  C   UNL     1      61.890  65.654  53.213  0.00  0.00    +0.000 C 
ATOM     11  N   UNL     1      61.764  66.456  53.360  0.00  0.00    +0.000 NA
ATOM     12  C   UNL     1      62.023  66.792  54.068  0.00  0.00    +0.000 C 
ATOM     13  O   UNL     1      62.407  66.324  54.629  0.00  0.00    +0.000 OA
ATOM     14  C   UNL     1      61.898  67.594  54.214  0.00  0.00    +0.000 C 
ATOM     15  N   UNL     1      61.514  68.060  53.653  0.00  0.00    +0.000 NA
ATOM     16  O   UNL     1      61.256  67.725  52.944  0.00  0.00    +0.000 OA
ATOM     17  C   UNL     1      60.872  68.193  52.383  0.00  0.00    +0.000 C 
ATOM     18  C   UNL     1      62.157  67.928  54.922  0.00  0.00    +0.000 A 
ATOM     19  C   UNL     1      62.546  67.533  55.532  0.00  0.00    +0.000 A 
ATOM     20  S   UNL     1      62.702  68.078  56.131  0.00  0.00    +0.000 S 
ATOM     21  C   UNL     1      62.408  68.811  55.892  0.00  0.00    +0.000 A 
ATOM     22  N   UNL     1      62.445  69.512  56.324  0.00  0.00    +0.000 NA
ATOM     23  N   UNL     1      62.071  68.718  55.145  0.00  0.00    +0.000 NA
ATOM     24  C   UNL     1      62.240  65.033  53.628  0.00  0.00    +0.000 C 
ATOM     25  O   UNL     1      62.611  64.956  54.361  0.00  0.00    +0.000 OA
ATOM     26  C   UNL     1      62.441  63.144  53.088  0.00  0.00    +0.000 C 
ATOM     27  O   UNL     1      62.768  63.278  53.835  0.00  0.00    +0.000 OA
ATOM     28  O   UNL     1      62.466  62.388  52.758  0.00  0.00    +0.000 OA
ATOM     29  C   UNL     1      62.817  61.766  53.172  0.00  0.00    +0.000 C 
ATOM     30  C   UNL     1      63.143  61.901  53.919  0.00  0.00    +0.000 C 
ATOM     31  O   UNL     1      62.842  61.012  52.841  0.00  0.00    +0.000 OA
ATOM     32  C   UNL     1      63.192  60.391  53.255  0.00  0.00    +0.000 C 
ATOM     33  O   UNL     1      63.518  60.525  54.002  0.00  0.00    +0.000 OA
ATOM     34  O   UNL     1      63.217  59.636  52.924  0.00  0.00    +0.000 OA
ATOM     35  C   UNL     1      63.567  59.015  53.338  0.00  0.00    +0.000 C 
ATOM     36  C   UNL     1      63.593  58.259  53.008  0.00  0.00    +0.000 C 
ATOM     37  C   UNL     1      63.894  59.149  54.085  0.00  0.00    +0.000 C 
ENDROOT
TORSDOF 0
ENDMDL
MODEL 3
REMARK VINA RESULT:   -11.352     14.655     16.735
REMARK INTER + INTRA:         -11.352
REMARK INTER:                 -11.352
REMARK INTRA:                   0.000
REMARK UNBOUND:                 0.000
ROOT
REMARK  Name = cefpodoxime proxetil
REMARK                            x       y       z     vdW  Elec       q    Type
REMARK                         _______ _______ _______ _____ _____    ______ ____
ATOM      1  C   UNL     1      65.633  63.492  54.082  0.00  0.00    +0.000 C 
ATOM      2  O   UNL     1      65.245  62.835  53.766  0.00  0.00    +0.000 OA
ATOM      3  C   UNL     1      64.441  62.876  53.592  0.00  0.00    +0.000 C 
ATOM      4  C   UNL     1      64.052  62.220  53.277  0.00  0.00    +0.000 C 
ATOM      5  C   UNL     1      63.247  62.261  53.102  0.00  0.00    +0.000 C 
ATOM      6  N   UNL     1      62.860  61.605  52.788  0.00  0.00    +0.000 N 
ATOM      7  C   UNL     1      63.277  60.907  52.646  0.00  0.00    +0.000 C 
ATOM      8  S   UNL     1      64.082  60.866  52.821  0.00  0.00    +0.000 S 
ATOM      9  C   UNL     1      64.470  61.523  53.136  0.00  0.00    +0.000 C 
ATOM     10  C   UNL     1      62.588  60.552  52.364  0.00  0.00    +0.000 C 
ATOM     11  N   UNL     1      62.396  59.808  52.064  0.00  0.00    +0.000 NA
ATOM     12  C   UNL     1      61.623  59.644  51.828  0.00  0.00    +0.000 C 
ATOM     13  O   UNL     1      61.042  60.227  51.891  0.00  0.00    +0.000 OA
ATOM     14  C   UNL     1      61.432  58.900  51.528  0.00  0.00    +0.000 C 
ATOM     15  N   UNL     1      62.013  58.319  51.465  0.00  0.00    +0.000 NA
ATOM     16  O   UNL     1      62.786  58.482  51.702  0.00  0.00    +0.000 OA
ATOM     17  C   UNL     1      63.368  57.899  51.639  0.00  0.00    +0.000 C 
ATOM     18  C   UNL     1      60.658  58.738  51.292  0.00  0.00    +0.000 A 
ATOM     19  C   UNL     1      60.021  59.261  51.322  0.00  0.00    +0.000 A 
ATOM     20  S   UNL     1      59.355  58.870  51.032  0.00  0.00    +0.000 S 
ATOM     21  C   UNL     1      59.580  58.104  50.823  0.00  0.00    +0.000 A 
ATOM     22  N   UNL     1      59.087  57.523  50.509  0.00  0.00    +0.000 NA
ATOM     23  N   UNL     1      60.385  58.023  50.984  0.00  0.00    +0.000 NA
ATOM     24  C   UNL     1      62.170  61.249  52.505  0.00  0.00    +0.000 C 
ATOM     25  O   UNL     1      61.388  61.492  52.404  0.00  0.00    +0.000 OA
ATOM     26  C   UNL     1      62.830  62.958  53.243  0.00  0.00    +0.000 C 
ATOM     27  O   UNL     1      62.024  62.999  53.069  0.00  0.00    +0.000 OA
ATOM     28  O   UNL     1      63.217  63.615  53.559  0.00  0.00    +0.000 OA
ATOM     29  C   UNL     1      62.800  64.313  53.700  0.00  0.00    +0.000 C 
ATOM     30  C   UNL     1      61.994  64.354  53.525  0.00  0.00    +0.000 C 
ATOM     31  O   UNL     1      63.187  64.969  54.015  0.00  0.00    +0.000 OA
ATOM     32  C   UNL     1      62.770  65.666  54.155  0.00  0.00    +0.000 C 
ATOM     33  O   UNL     1      61.964  65.707  53.981  0.00  0.00    +0.000 OA
ATOM     34  O   UNL     1      63.157  66.323  54.471  0.00  0.00    +0.000 OA
ATOM     35  C   UNL     1      62.740  67.020  54.611  0.00  0.00    +0.000 C 
ATOM     36  C   UNL     1      63.128  67.677  54.927  0.00  0.00    +0.000 C 
ATOM     37  C   UNL     1      61.934  67.061  54.437  0.00  0.00    +0.000 C 
ENDROOT
TORSDOF 0
ENDMDL
MODEL 4
REMARK VINA RESULT:   -11.327     14.109     16.003
REMARK INTER + INTRA:         -11.327
REMARK INTER:                 -11.327
REMARK INTRA:                   0.000
REMARK UNBOUND:                 0.000
ROOT
REMARK  Name = cefpodoxime proxetil
REMARK                            x       y       z     vdW  Elec       q    Type
REMARK                         _______ _______ _______ _____ _____    ______ ____
ATOM      1  C   UNL     1      61.065  67.368  51.267  0.00  0.00    +0.000 C 
ATOM      2  O   UNL     1      61.231  66.560  51.296  0.00  0.00    +0.000 OA
ATOM      3  C   UNL     1      61.544  66.228  51.983  0.00  0.00    +0.000 C 
ATOM      4  C   UNL     1      61.710  65.421  52.013  0.00  0.00    +0.000 C 
ATOM      5  C   UNL     1      62.023  65.089  52.700  0.00  0.00    +0.000 C 
ATOM      6  N   UNL     1      62.188  64.282  52.730  0.00  0.00    +0.000 N 
ATOM      7  C   UNL     1      62.041  63.806  52.072  0.00  0.00    +0.000 C 
ATOM      8  S   UNL     1      61.728  64.138  51.385  0.00  0.00    +0.000 S 
ATOM      9  C   UNL     1      61.562  64.946  51.355  0.00  0.00    +0.000 C 
ATOM     10  C   UNL     1      62.318  63.148  52.487  0.00  0.00    +0.000 C 
ATOM     11  N   UNL     1      62.409  62.346  52.314  0.00  0.00    +0.000 NA
ATOM     12  C   UNL     1      62.714  61.834  52.884  0.00  0.00    +0.000 C 
ATOM     13  O   UNL     1      62.928  62.124  53.626  0.00  0.00    +0.000 OA
ATOM     14  C   UNL     1      62.805  61.032  52.711  0.00  0.00    +0.000 C 
ATOM     15  N   UNL     1      62.591  60.743  51.969  0.00  0.00    +0.000 NA
ATOM     16  O   UNL     1      62.286  61.256  51.399  0.00  0.00    +0.000 OA
ATOM     17  C   UNL     1      62.072  60.966  50.657  0.00  0.00    +0.000 C 
ATOM     18  C   UNL     1      63.110  60.520  53.282  0.00  0.00    +0.000 A 
ATOM     19  C   UNL     1      63.347  60.728  54.044  0.00  0.00    +0.000 A 
ATOM     20  S   UNL     1      63.615  60.047  54.423  0.00  0.00    +0.000 S 
ATOM     21  C   UNL     1      63.545  59.417  53.895  0.00  0.00    +0.000 A 
ATOM     22  N   UNL     1      63.750  58.632  54.046  0.00  0.00    +0.000 NA
ATOM     23  N   UNL     1      63.232  59.710  53.190  0.00  0.00    +0.000 NA
ATOM     24  C   UNL     1      62.465  63.624  53.144  0.00  0.00    +0.000 C 
ATOM     25  O   UNL     1      62.765  63.495  53.902  0.00  0.00    +0.000 OA
ATOM     26  C   UNL     1      62.170  65.565  53.357  0.00  0.00    +0.000 C 
ATOM     27  O   UNL     1      62.484  65.232  54.046  0.00  0.00    +0.000 OA
ATOM     28  O   UNL     1      62.005  66.373  53.328  0.00  0.00    +0.000 OA
ATOM     29  C   UNL     1      62.152  66.849  53.986  0.00  0.00    +0.000 C 
ATOM     30  C   UNL     1      62.466  66.517  54.674  0.00  0.00    +0.000 C 
ATOM     31  O   UNL     1      61.987  67.656  53.957  0.00  0.00    +0.000 OA
ATOM     32  C   UNL     1      62.134  68.132  54.614  0.00  0.00    +0.000 C 
ATOM     33  O   UNL     1      62.448  67.799  55.302  0.00  0.00    +0.000 OA
ATOM     34  O   UNL     1      61.968  68.940  54.585  0.00  0.00    +0.000 OA
ATOM     35  C   UNL     1      62.116  69.415  55.242  0.00  0.00    +0.000 C 
ATOM     36  C   UNL     1      61.950  70.223  55.213  0.00  0.00    +0.000 C 
ATOM     37  C   UNL     1      62.429  69.083  55.930  0.00  0.00    +0.000 C 
ENDROOT
TORSDOF 0
ENDMDL
MODEL 5
REMARK VINA RESULT:   -10.840     13.715     15.948
REMARK INTER + INTRA:         -10.840
REMARK INTER:                 -10.840
REMARK INTRA:                   0.000
REMARK UNBOUND:                 0.000
ROOT
REMARK  Name = cefpodoxime proxetil
REMARK                            x       y       z     vdW  Elec       q    Type
REMARK                         _______ _______ _______ _____ _____    ______ ____
ATOM      1  C   UNL     1      63.756  60.371  54.005  0.00  0.00    +0.000 C 
ATOM      2  O   UNL     1      63.504  61.154  54.084  0.00  0.00    +0.000 OA
ATOM      3  C   UNL     1      63.246  61.572  53.422  0.00  0.00    +0.000 C 
ATOM      4  C   UNL     1      62.994  62.353  53.500  0.00  0.00    +0.000 C 
ATOM      5  C   UNL     1      62.735  62.771  52.837  0.00  0.00    +0.000 C 
ATOM      6  N   UNL     1      62.483  63.552  52.916  0.00  0.00    +0.000 N 
ATOM      7  C   UNL     1      62.490  63.917  53.656  0.00  0.00    +0.000 C 
ATOM      8  S   UNL     1      62.749  63.498  54.318  0.00  0.00    +0.000 S 
ATOM      9  C   UNL     1      63.001  62.716  54.240  0.00  0.00    +0.000 C 
ATOM     10  C   UNL     1      62.195  64.609  53.318  0.00  0.00    +0.000 C 
ATOM     11  N   UNL     1      61.992  65.356  53.604  0.00  0.00    +0.000 NA
ATOM     12  C   UNL     1      61.705  65.932  53.087  0.00  0.00    +0.000 C 
ATOM     13  O   UNL     1      61.622  65.759  52.284  0.00  0.00    +0.000 OA
ATOM     14  C   UNL     1      61.502  66.678  53.372  0.00  0.00    +0.000 C 
ATOM     15  N   UNL     1      61.585  66.850  54.174  0.00  0.00    +0.000 NA
ATOM     16  O   UNL     1      61.872  66.274  54.692  0.00  0.00    +0.000 OA
ATOM     17  C   UNL     1      61.955  66.447  55.494  0.00  0.00    +0.000 C 
ATOM     18  C   UNL     1      61.215  67.253  52.855  0.00  0.00    +0.000 A 
ATOM     19  C   UNL     1      61.103  67.162  52.043  0.00  0.00    +0.000 A 
ATOM     20  S   UNL     1      60.809  67.873  51.744  0.00  0.00    +0.000 S 
ATOM     21  C   UNL     1      60.739  68.403  52.372  0.00  0.00    +0.000 A 
ATOM     22  N   UNL     1      60.466  69.180  52.323  0.00  0.00    +0.000 NA
ATOM     23  N   UNL     1      60.990  68.020  53.058  0.00  0.00    +0.000 NA
ATOM     24  C   UNL     1      62.188  64.246  52.578  0.00  0.00    +0.000 C 
ATOM     25  O   UNL     1      61.975  64.478  51.816  0.00  0.00    +0.000 OA
ATOM     26  C   UNL     1      62.728  62.408  52.097  0.00  0.00    +0.000 C 
ATOM     27  O   UNL     1      62.469  62.827  51.434  0.00  0.00    +0.000 OA
ATOM     28  O   UNL     1      62.980  61.626  52.018  0.00  0.00    +0.000 OA
ATOM     29  C   UNL     1      62.973  61.262  51.278  0.00  0.00    +0.000 C 
ATOM     30  C   UNL     1      62.713  61.681  50.615  0.00  0.00    +0.000 C 
ATOM     31  O   UNL     1      63.224  60.481  51.200  0.00  0.00    +0.000 OA
ATOM     32  C   UNL     1      63.217  60.117  50.460  0.00  0.00    +0.000 C 
ATOM     33  O   UNL     1      62.958  60.536  49.797  0.00  0.00    +0.000 OA
ATOM     34  O   UNL     1      63.469  59.336  50.381  0.00  0.00    +0.000 OA
ATOM     35  C   UNL     1      63.462  58.972  49.641  0.00  0.00    +0.000 C 
ATOM     36  C   UNL     1      63.714  58.190  49.562  0.00  0.00    +0.000 C 
ATOM     37  C   UNL     1      63.203  59.391  48.978  0.00  0.00    +0.000 C 
ENDROOT
TORSDOF 0
ENDMDL
MODEL 6
REMARK VINA RESULT:   -10.822     13.860     16.308
REMARK INTER + INTRA:         -10.822
REMARK INTER:                 -10.822
REMARK INTRA:                   0.000
REMARK UNBOUND:                 0.000
ROOT
REMARK  Name = cefpodoxime proxetil
REMARK                            x       y       z     vdW  Elec       q    Type
REMARK                         _______ _______ _______ _____ _____    ______ ____
ATOM      1  C   UNL     1      62.377  69.503  56.335  0.00  0.00    +0.000 C 
ATOM      2  O   UNL     1      62.472  68.792  55.924  0.00  0.00    +0.000 OA
ATOM      3  C   UNL     1      62.025  68.645  55.247  0.00  0.00    +0.000 C 
ATOM      4  C   UNL     1      62.119  67.936  54.837  0.00  0.00    +0.000 C 
ATOM      5  C   UNL     1      61.672  67.789  54.159  0.00  0.00    +0.000 C 
ATOM      6  N   UNL     1      61.767  67.079  53.750  0.00  0.00    +0.000 N 
ATOM      7  C   UNL     1      62.307  66.516  54.017  0.00  0.00    +0.000 C 
ATOM      8  S   UNL     1      62.754  66.664  54.695  0.00  0.00    +0.000 S 
ATOM      9  C   UNL     1      62.660  67.374  55.105  0.00  0.00    +0.000 C 
ATOM     10  C   UNL     1      62.103  66.022  53.389  0.00  0.00    +0.000 C 
ATOM     11  N   UNL     1      62.342  65.274  53.135  0.00  0.00    +0.000 NA
ATOM     12  C   UNL     1      62.006  64.941  52.459  0.00  0.00    +0.000 C 
ATOM     13  O   UNL     1      61.431  65.357  52.038  0.00  0.00    +0.000 OA
ATOM     14  C   UNL     1      62.245  64.194  52.204  0.00  0.00    +0.000 C 
ATOM     15  N   UNL     1      62.819  63.779  52.625  0.00  0.00    +0.000 NA
ATOM     16  O   UNL     1      63.156  64.112  53.301  0.00  0.00    +0.000 OA
ATOM     17  C   UNL     1      63.731  63.696  53.722  0.00  0.00    +0.000 C 
ATOM     18  C   UNL     1      61.908  63.862  51.528  0.00  0.00    +0.000 A 
ATOM     19  C   UNL     1      61.330  64.209  51.053  0.00  0.00    +0.000 A 
ATOM     20  S   UNL     1      61.155  63.686  50.440  0.00  0.00    +0.000 S 
ATOM     21  C   UNL     1      61.624  63.015  50.536  0.00  0.00    +0.000 A 
ATOM     22  N   UNL     1      61.628  62.351  50.046  0.00  0.00    +0.000 NA
ATOM     23  N   UNL     1      62.090  63.123  51.209  0.00  0.00    +0.000 NA
ATOM     24  C   UNL     1      61.563  66.584  53.121  0.00  0.00    +0.000 C 
ATOM     25  O   UNL     1      61.036  66.632  52.488  0.00  0.00    +0.000 OA
ATOM     26  C   UNL     1      61.132  68.351  53.892  0.00  0.00    +0.000 C 
ATOM     27  O   UNL     1      60.685  68.203  53.213  0.00  0.00    +0.000 OA
ATOM     28  O   UNL     1      61.037  69.061  54.301  0.00  0.00    +0.000 OA
ATOM     29  C   UNL     1      60.497  69.624  54.034  0.00  0.00    +0.000 C 
ATOM     30  C   UNL     1      60.049  69.476  53.355  0.00  0.00    +0.000 C 
ATOM     31  O   UNL     1      60.402  70.333  54.443  0.00  0.00    +0.000 OA
ATOM     32  C   UNL     1      59.862  70.895  54.176  0.00  0.00    +0.000 C 
ATOM     33  O   UNL     1      59.415  70.748  53.497  0.00  0.00    +0.000 OA
ATOM     34  O   UNL     1      59.767  71.605  54.585  0.00  0.00    +0.000 OA
ATOM     35  C   UNL     1      59.227  72.167  54.318  0.00  0.00    +0.000 C 
ATOM     36  C   UNL     1      59.132  72.877  54.727  0.00  0.00    +0.000 C 
ATOM     37  C   UNL     1      58.780  72.020  53.639  0.00  0.00    +0.000 C 
ENDROOT
TORSDOF 0
ENDMDL
MODEL 7
REMARK VINA RESULT:   -10.642     13.897     16.656
REMARK INTER + INTRA:         -10.642
REMARK INTER:                 -10.642
REMARK INTRA:                   0.000
REMARK UNBOUND:                 0.000
ROOT
REMARK  Name = cefpodoxime proxetil
REMARK                            x       y       z     vdW  Elec       q    Type
REMARK                         _______ _______ _______ _____ _____    ______ ____
ATOM      1  C   UNL     1      61.797  66.156  55.280  0.00  0.00    +0.000 C 
ATOM      2  O   UNL     1      61.983  65.393  55.026  0.00  0.00    +0.000 OA
ATOM      3  C   UNL     1      61.990  65.217  54.221  0.00  0.00    +0.000 C 
ATOM      4  C   UNL     1      62.176  64.455  53.966  0.00  0.00    +0.000 C 
ATOM      5  C   UNL     1      62.183  64.280  53.160  0.00  0.00    +0.000 C 
ATOM      6  N   UNL     1      62.368  63.517  52.906  0.00  0.00    +0.000 N 
ATOM      7  C   UNL     1      62.547  62.930  53.457  0.00  0.00    +0.000 C 
ATOM      8  S   UNL     1      62.539  63.106  54.263  0.00  0.00    +0.000 S 
ATOM      9  C   UNL     1      62.354  63.869  54.518  0.00  0.00    +0.000 C 
ATOM     10  C   UNL     1      62.658  62.389  52.844  0.00  0.00    +0.000 C 
ATOM     11  N   UNL     1      62.863  61.591  52.802  0.00  0.00    +0.000 NA
ATOM     12  C   UNL     1      62.924  61.219  52.068  0.00  0.00    +0.000 C 
ATOM     13  O   UNL     1      62.781  61.646  51.377  0.00  0.00    +0.000 OA
ATOM     14  C   UNL     1      63.129  60.421  52.026  0.00  0.00    +0.000 C 
ATOM     15  N   UNL     1      63.272  59.994  52.717  0.00  0.00    +0.000 NA
ATOM     16  O   UNL     1      63.211  60.366  53.451  0.00  0.00    +0.000 OA
ATOM     17  C   UNL     1      63.354  59.939  54.142  0.00  0.00    +0.000 C 
ATOM     18  C   UNL     1      63.190  60.050  51.291  0.00  0.00    +0.000 A 
ATOM     19  C   UNL     1      63.064  60.403  50.557  0.00  0.00    +0.000 A 
ATOM     20  S   UNL     1      63.184  59.832  49.974  0.00  0.00    +0.000 S 
ATOM     21  C   UNL     1      63.385  59.125  50.348  0.00  0.00    +0.000 A 
ATOM     22  N   UNL     1      63.553  58.409  49.975  0.00  0.00    +0.000 NA
ATOM     23  N   UNL     1      63.389  59.260  51.162  0.00  0.00    +0.000 NA
ATOM     24  C   UNL     1      62.480  62.975  52.293  0.00  0.00    +0.000 C 
ATOM     25  O   UNL     1      62.432  63.008  51.470  0.00  0.00    +0.000 OA
ATOM     26  C   UNL     1      62.005  64.866  52.608  0.00  0.00    +0.000 C 
ATOM     27  O   UNL     1      62.012  64.690  51.801  0.00  0.00    +0.000 OA
ATOM     28  O   UNL     1      61.819  65.629  52.862  0.00  0.00    +0.000 OA
ATOM     29  C   UNL     1      61.641  66.217  52.311  0.00  0.00    +0.000 C 
ATOM     30  C   UNL     1      61.648  66.041  51.504  0.00  0.00    +0.000 C 
ATOM     31  O   UNL     1      61.455  66.979  52.565  0.00  0.00    +0.000 OA
ATOM     32  C   UNL     1      61.277  67.565  52.014  0.00  0.00    +0.000 C 
ATOM     33  O   UNL     1      61.285  67.389  51.207  0.00  0.00    +0.000 OA
ATOM     34  O   UNL     1      61.092  68.328  52.267  0.00  0.00    +0.000 OA
ATOM     35  C   UNL     1      60.914  68.915  51.716  0.00  0.00    +0.000 C 
ATOM     36  C   UNL     1      60.728  69.678  51.970  0.00  0.00    +0.000 C 
ATOM     37  C   UNL     1      60.921  68.739  50.909  0.00  0.00    +0.000 C 
ENDROOT
TORSDOF 0
ENDMDL
MODEL 8
REMARK VINA RESULT:   -10.357     13.896     15.541
REMARK INTER + INTRA:         -10.357
REMARK INTER:                 -10.357
REMARK INTRA:                   0.000
REMARK UNBOUND:                 0.000
ROOT
REMARK  Name = cefpodoxime proxetil
REMARK                            x       y       z     vdW  Elec       q    Type
REMARK                         _______ _______ _______ _____ _____    ______ ____
ATOM      1  C   UNL     1      63.654  63.088  53.867  0.00  0.00    +0.000 C 
ATOM      2  O   UNL     1      63.421  63.861  54.042  0.00  0.00    +0.000 OA
ATOM      3  C   UNL     1      62.868  64.242  53.564  0.00  0.00    +0.000 C 
ATOM      4  C   UNL     1      62.634  65.014  53.739  0.00  0.00    +0.000 C 
ATOM      5  C   UNL     1      62.081  65.396  53.261  0.00  0.00    +0.000 C 
ATOM      6  N   UNL     1      61.848  66.167  53.436  0.00  0.00    +0.000 N 
ATOM      7  C   UNL     1      62.168  66.557  54.089  0.00  0.00    +0.000 C 
ATOM      8  S   UNL     1      62.721  66.175  54.567  0.00  0.00    +0.000 S 
ATOM      9  C   UNL     1      62.955  65.403  54.392  0.00  0.00    +0.000 C 
ATOM     10  C   UNL     1      61.713  67.223  53.913  0.00  0.00    +0.000 C 
ATOM     11  N   UNL     1      61.619  67.970  54.252  0.00  0.00    +0.000 NA
ATOM     12  C   UNL     1      61.097  68.513  53.914  0.00  0.00    +0.000 C 
ATOM     13  O   UNL     1      60.671  68.308  53.238  0.00  0.00    +0.000 OA
ATOM     14  C   UNL     1      61.003  69.259  54.252  0.00  0.00    +0.000 C 
ATOM     15  N   UNL     1      61.430  69.463  54.928  0.00  0.00    +0.000 NA
ATOM     16  O   UNL     1      61.951  68.920  55.265  0.00  0.00    +0.000 OA
ATOM     17  C   UNL     1      62.378  69.125  55.941  0.00  0.00    +0.000 C 
ATOM     18  C   UNL     1      60.481  69.802  53.914  0.00  0.00    +0.000 A 
ATOM     19  C   UNL     1      60.020  69.677  53.242  0.00  0.00    +0.000 A 
ATOM     20  S   UNL     1      59.583  70.362  53.101  0.00  0.00    +0.000 S 
ATOM     21  C   UNL     1      59.774  70.911  53.686  0.00  0.00    +0.000 A 
ATOM     22  N   UNL     1      59.465  71.673  53.757  0.00  0.00    +0.000 NA
ATOM     23  N   UNL     1      60.330  70.565  54.188  0.00  0.00    +0.000 NA
ATOM     24  C   UNL     1      61.394  66.834  53.261  0.00  0.00    +0.000 C 
ATOM     25  O   UNL     1      60.846  67.029  52.675  0.00  0.00    +0.000 OA
ATOM     26  C   UNL     1      61.761  65.006  52.609  0.00  0.00    +0.000 C 
ATOM     27  O   UNL     1      61.207  65.389  52.130  0.00  0.00    +0.000 OA
ATOM     28  O   UNL     1      61.994  64.234  52.433  0.00  0.00    +0.000 OA
ATOM     29  C   UNL     1      61.674  63.844  51.780  0.00  0.00    +0.000 C 
ATOM     30  C   UNL     1      61.120  64.226  51.302  0.00  0.00    +0.000 C 
ATOM     31  O   UNL     1      61.907  63.073  51.605  0.00  0.00    +0.000 OA
ATOM     32  C   UNL     1      61.587  62.683  50.953  0.00  0.00    +0.000 C 
ATOM     33  O   UNL     1      61.033  63.066  50.474  0.00  0.00    +0.000 OA
ATOM     34  O   UNL     1      61.820  61.911  50.777  0.00  0.00    +0.000 OA
ATOM     35  C   UNL     1      61.500  61.522  50.125  0.00  0.00    +0.000 C 
ATOM     36  C   UNL     1      61.733  60.750  49.950  0.00  0.00    +0.000 C 
ATOM     37  C   UNL     1      60.946  61.904  49.647  0.00  0.00    +0.000 C 
ENDROOT
TORSDOF 0
ENDMDL
