MODEL 1
REMARK VINA RESULT:   -14.111      0.000      0.000
REMARK INTER + INTRA:         -14.111
REMARK INTER:                 -14.111
REMARK INTRA:                   0.000
REMARK UNBOUND:                 0.000
ROOT
REMARK  Name = ceftriaxone
REMARK                            x       y       z     vdW  Elec       q    Type
REMARK                         _______ _______ _______ _____ _____    ______ ____
ATOM      1  C   UNL     1      60.558  66.775  72.259  0.00  0.00    +0.000 C 
ATOM      2  O   UNL     1      61.131  66.436  71.773  0.00  0.00    +0.000 OA
ATOM      3  N   UNL     1      61.930  66.589  71.910  0.00  0.00    +0.000 NA
ATOM      4  C   UNL     1      62.504  66.250  71.424  0.00  0.00    +0.000 C 
ATOM      5  C   UNL     1      62.279  65.758  70.800  0.00  0.00    +0.000 C 
ATOM      6  O   UNL     1      62.853  65.419  70.315  0.00  0.00    +0.000 OA
ATOM      7  N   UNL     1      61.480  65.605  70.664  0.00  0.00    +0.000 NA
ATOM      8  CA  UNL     1      61.255  65.112  70.041  0.00  0.00    +0.000 C 
ATOM      9  C   UNL     1      61.656  64.689  69.459  0.00  0.00    +0.000 C 
ATOM     10  S   UNL     1      62.364  64.458  69.103  0.00  0.00    +0.000 S 
ATOM     11  C   UNL     1      62.351  63.955  68.449  0.00  0.00    +0.000 C 
ATOM     12  C   UNL     1      61.631  63.683  68.152  0.00  0.00    +0.000 C 
ATOM     13  C   UNL     1      61.618  63.179  67.497  0.00  0.00    +0.000 C 
ATOM     14  S   UNL     1      60.900  62.907  67.200  0.00  0.00    +0.000 S 
ATOM     15  C   UNL     1      60.886  62.404  66.547  0.00  0.00    +0.000 A 
ATOM     16  N   UNL     1      61.595  62.173  66.190  0.00  0.00    +0.000 NA
ATOM     17  C   UNL     1      61.581  61.670  65.537  0.00  0.00    +0.000 A 
ATOM     18  O   UNL     1      62.290  61.439  65.180  0.00  0.00    +0.000 OA
ATOM     19  C   UNL     1      60.862  61.398  65.239  0.00  0.00    +0.000 A 
ATOM     20  O   UNL     1      60.849  60.894  64.585  0.00  0.00    +0.000 OA
ATOM     21  N   UNL     1      60.154  61.628  65.595  0.00  0.00    +0.000 NA
ATOM     22  N   UNL     1      60.167  62.132  66.249  0.00  0.00    +0.000 N 
ATOM     23  C   UNL     1      59.459  62.363  66.605  0.00  0.00    +0.000 C 
ATOM     24  CA  UNL     1      60.923  63.913  68.507  0.00  0.00    +0.000 C 
ATOM     25  N   UNL     1      60.936  64.417  69.161  0.00  0.00    +0.000 N 
ATOM     26  C   UNL     1      60.535  64.840  69.744  0.00  0.00    +0.000 C 
ATOM     27  O   UNL     1      59.743  64.948  69.946  0.00  0.00    +0.000 OA
ATOM     28  C   UNL     1      60.204  63.642  68.210  0.00  0.00    +0.000 C 
ATOM     29  O   UNL     1      59.496  63.873  68.566  0.00  0.00    +0.000 OA
ATOM     30  OXT UNL     1      60.191  63.138  67.557  0.00  0.00    +0.000 OA
ATOM     31  C   UNL     1      63.304  66.403  71.560  0.00  0.00    +0.000 A 
ATOM     32  C   UNL     1      63.611  66.881  72.158  0.00  0.00    +0.000 A 
ATOM     33  S   UNL     1      64.433  66.879  72.090  0.00  0.00    +0.000 S 
ATOM     34  C   UNL     1      64.634  66.399  71.450  0.00  0.00    +0.000 A 
ATOM     35  N   UNL     1      65.398  66.241  71.184  0.00  0.00    +0.000 NA
ATOM     36  N   UNL     1      63.936  66.105  71.122  0.00  0.00    +0.000 NA
ENDROOT
TORSDOF 0
ENDMDL
MODEL 2
REMARK VINA RESULT:   -11.673     14.140     16.549
REMARK INTER + INTRA:         -11.673
REMARK INTER:                 -11.673
REMARK INTRA:                   0.000
REMARK UNBOUND:                 0.000
ROOT
REMARK  Name = ceftriaxone
REMARK                            x       y       z     vdW  Elec       q    Type
REMARK                         _______ _______ _______ _____ _____    ______ ____
ATOM      1  C   UNL     1      60.795  61.065  50.604  0.00  0.00    +0.000 C 
ATOM      2  O   UNL     1      61.187  61.271  51.300  0.00  0.00    +0.000 OA
ATOM      3  N   UNL     1      61.586  60.694  51.734  0.00  0.00    +0.000 NA
ATOM      4  C   UNL     1      61.978  60.899  52.430  0.00  0.00    +0.000 C 
ATOM      5  C   UNL     1      61.971  61.682  52.693  0.00  0.00    +0.000 C 
ATOM      6  O   UNL     1      62.362  61.887  53.388  0.00  0.00    +0.000 OA
ATOM      7  N   UNL     1      61.571  62.259  52.258  0.00  0.00    +0.000 NA
ATOM      8  CA  UNL     1      61.564  63.041  52.520  0.00  0.00    +0.000 C 
ATOM      9  C   UNL     1      61.882  63.442  53.166  0.00  0.00    +0.000 C 
ATOM     10  S   UNL     1      62.322  63.438  53.865  0.00  0.00    +0.000 S 
ATOM     11  C   UNL     1      62.432  64.138  54.287  0.00  0.00    +0.000 C 
ATOM     12  C   UNL     1      62.104  64.843  54.011  0.00  0.00    +0.000 C 
ATOM     13  C   UNL     1      62.215  65.544  54.433  0.00  0.00    +0.000 C 
ATOM     14  S   UNL     1      61.888  66.247  54.157  0.00  0.00    +0.000 S 
ATOM     15  C   UNL     1      61.999  66.948  54.578  0.00  0.00    +0.000 A 
ATOM     16  N   UNL     1      62.438  66.943  55.277  0.00  0.00    +0.000 NA
ATOM     17  C   UNL     1      62.549  67.643  55.699  0.00  0.00    +0.000 A 
ATOM     18  O   UNL     1      62.989  67.638  56.398  0.00  0.00    +0.000 OA
ATOM     19  C   UNL     1      62.221  68.348  55.423  0.00  0.00    +0.000 A 
ATOM     20  O   UNL     1      62.332  69.049  55.845  0.00  0.00    +0.000 OA
ATOM     21  N   UNL     1      61.782  68.353  54.724  0.00  0.00    +0.000 NA
ATOM     22  N   UNL     1      61.670  67.652  54.302  0.00  0.00    +0.000 N 
ATOM     23  C   UNL     1      61.231  67.658  53.604  0.00  0.00    +0.000 C 
ATOM     24  CA  UNL     1      61.665  64.848  53.312  0.00  0.00    +0.000 C 
ATOM     25  N   UNL     1      61.554  64.147  52.890  0.00  0.00    +0.000 N 
ATOM     26  C   UNL     1      61.236  63.746  52.244  0.00  0.00    +0.000 C 
ATOM     27  O   UNL     1      60.780  63.960  51.591  0.00  0.00    +0.000 OA
ATOM     28  C   UNL     1      61.337  65.552  53.037  0.00  0.00    +0.000 C 
ATOM     29  O   UNL     1      60.898  65.557  52.338  0.00  0.00    +0.000 OA
ATOM     30  OXT UNL     1      61.448  66.252  53.458  0.00  0.00    +0.000 OA
ATOM     31  C   UNL     1      62.377  60.323  52.865  0.00  0.00    +0.000 A 
ATOM     32  C   UNL     1      62.432  59.523  52.673  0.00  0.00    +0.000 A 
ATOM     33  S   UNL     1      62.881  59.150  53.256  0.00  0.00    +0.000 S 
ATOM     34  C   UNL     1      63.102  59.721  53.810  0.00  0.00    +0.000 A 
ATOM     35  N   UNL     1      63.556  59.589  54.486  0.00  0.00    +0.000 NA
ATOM     36  N   UNL     1      62.791  60.446  53.567  0.00  0.00    +0.000 NA
ENDROOT
TORSDOF 0
ENDMDL
MODEL 3
REMARK VINA RESULT:   -11.490     14.106     15.740
REMARK INTER + INTRA:         -11.490
REMARK INTER:                 -11.490
REMARK INTRA:                   0.000
REMARK UNBOUND:                 0.000
ROOT
REMARK  Name = ceftriaxone
REMARK                            x       y       z     vdW  Elec       q    Type
REMARK                         _______ _______ _______ _____ _____    ______ ____
ATOM      1  C   UNL     1      60.605  67.798  52.119  0.00  0.00    +0.000 C 
ATOM      2  O   UNL     1      61.018  67.349  52.675  0.00  0.00    +0.000 OA
ATOM      3  N   UNL     1      61.326  67.711  53.349  0.00  0.00    +0.000 NA
ATOM      4  C   UNL     1      61.739  67.263  53.906  0.00  0.00    +0.000 C 
ATOM      5  C   UNL     1      61.843  66.453  53.788  0.00  0.00    +0.000 C 
ATOM      6  O   UNL     1      62.256  66.005  54.344  0.00  0.00    +0.000 OA
ATOM      7  N   UNL     1      61.535  66.091  53.113  0.00  0.00    +0.000 NA
ATOM      8  CA  UNL     1      61.640  65.281  52.995  0.00  0.00    +0.000 C 
ATOM      9  C   UNL     1      62.007  64.674  53.413  0.00  0.00    +0.000 C 
ATOM     10  S   UNL     1      62.437  64.416  54.070  0.00  0.00    +0.000 S 
ATOM     11  C   UNL     1      62.645  63.621  54.139  0.00  0.00    +0.000 C 
ATOM     12  C   UNL     1      62.425  63.084  53.553  0.00  0.00    +0.000 C 
ATOM     13  C   UNL     1      62.634  62.288  53.622  0.00  0.00    +0.000 C 
ATOM     14  S   UNL     1      62.413  61.751  53.037  0.00  0.00    +0.000 S 
ATOM     15  C   UNL     1      62.622  60.956  53.106  0.00  0.00    +0.000 A 
ATOM     16  N   UNL     1      63.051  60.698  53.762  0.00  0.00    +0.000 NA
ATOM     17  C   UNL     1      63.260  59.903  53.831  0.00  0.00    +0.000 A 
ATOM     18  O   UNL     1      63.689  59.645  54.487  0.00  0.00    +0.000 OA
ATOM     19  C   UNL     1      63.039  59.366  53.245  0.00  0.00    +0.000 A 
ATOM     20  O   UNL     1      63.248  58.570  53.315  0.00  0.00    +0.000 OA
ATOM     21  N   UNL     1      62.610  59.623  52.589  0.00  0.00    +0.000 NA
ATOM     22  N   UNL     1      62.401  60.419  52.520  0.00  0.00    +0.000 N 
ATOM     23  C   UNL     1      61.972  60.676  51.864  0.00  0.00    +0.000 C 
ATOM     24  CA  UNL     1      61.996  63.341  52.897  0.00  0.00    +0.000 C 
ATOM     25  N   UNL     1      61.787  64.137  52.827  0.00  0.00    +0.000 N 
ATOM     26  C   UNL     1      61.419  64.744  52.409  0.00  0.00    +0.000 C 
ATOM     27  O   UNL     1      61.002  64.795  51.699  0.00  0.00    +0.000 OA
ATOM     28  C   UNL     1      61.775  62.805  52.312  0.00  0.00    +0.000 C 
ATOM     29  O   UNL     1      61.346  63.063  51.655  0.00  0.00    +0.000 OA
ATOM     30  OXT UNL     1      61.984  62.009  52.381  0.00  0.00    +0.000 OA
ATOM     31  C   UNL     1      62.047  67.625  54.581  0.00  0.00    +0.000 A 
ATOM     32  C   UNL     1      61.987  68.424  54.773  0.00  0.00    +0.000 A 
ATOM     33  S   UNL     1      62.372  68.544  55.492  0.00  0.00    +0.000 S 
ATOM     34  C   UNL     1      62.671  67.817  55.745  0.00  0.00    +0.000 A 
ATOM     35  N   UNL     1      63.096  67.683  56.439  0.00  0.00    +0.000 NA
ATOM     36  N   UNL     1      62.470  67.249  55.181  0.00  0.00    +0.000 NA
ENDROOT
TORSDOF 0
ENDMDL
