MODEL 1
REMARK VINA RESULT:   -13.725      0.000      0.000
REMARK INTER + INTRA:         -13.725
REMARK INTER:                 -13.725
REMARK INTRA:                   0.000
REMARK UNBOUND:                 0.000
ROOT
REMARK  Name = ceftiofur
REMARK                            x       y       z     vdW  Elec       q    Type
REMARK                         _______ _______ _______ _____ _____    ______ ____
ATOM      1  C   UNL     1      60.773  63.192  68.997  0.00  0.00    +0.000 C 
ATOM      2  S   UNL     1      60.128  62.689  68.888  0.00  0.00    +0.000 S 
ATOM      3  C   UNL     1      60.037  62.284  68.175  0.00  0.00    +0.000 C 
ATOM      4  C   UNL     1      60.591  62.381  67.571  0.00  0.00    +0.000 C 
ATOM      5  C   UNL     1      60.499  61.976  66.858  0.00  0.00    +0.000 C 
ATOM      6  S   UNL     1      61.052  62.073  66.254  0.00  0.00    +0.000 S 
ATOM      7  C   UNL     1      60.961  61.668  65.542  0.00  0.00    +0.000 C 
ATOM      8  O   UNL     1      60.316  61.165  65.433  0.00  0.00    +0.000 OA
ATOM      9  C   UNL     1      61.515  61.766  64.938  0.00  0.00    +0.000 A 
ATOM     10  C   UNL     1      61.496  61.399  64.199  0.00  0.00    +0.000 A 
ATOM     11  C   UNL     1      62.154  61.654  63.770  0.00  0.00    +0.000 A 
ATOM     12  C   UNL     1      62.579  62.178  64.245  0.00  0.00    +0.000 A 
ATOM     13  O   UNL     1      62.184  62.247  64.966  0.00  0.00    +0.000 OA
ATOM     14  CA  UNL     1      61.236  62.884  67.679  0.00  0.00    +0.000 C 
ATOM     15  N   UNL     1      61.327  63.290  68.393  0.00  0.00    +0.000 N 
ATOM     16  C   UNL     1      61.752  63.813  68.866  0.00  0.00    +0.000 C 
ATOM     17  O   UNL     1      62.444  64.254  68.775  0.00  0.00    +0.000 OA
ATOM     18  CA  UNL     1      61.198  63.716  69.470  0.00  0.00    +0.000 C 
ATOM     19  N   UNL     1      61.108  64.018  70.233  0.00  0.00    +0.000 NA
ATOM     20  C   UNL     1      61.661  64.550  70.535  0.00  0.00    +0.000 C 
ATOM     21  O   UNL     1      62.306  64.780  70.074  0.00  0.00    +0.000 OA
ATOM     22  C   UNL     1      61.571  64.851  71.297  0.00  0.00    +0.000 C 
ATOM     23  N   UNL     1      60.926  64.622  71.758  0.00  0.00    +0.000 NA
ATOM     24  O   UNL     1      60.372  64.090  71.457  0.00  0.00    +0.000 OA
ATOM     25  C   UNL     1      59.727  63.859  71.917  0.00  0.00    +0.000 C 
ATOM     26  C   UNL     1      62.124  65.383  71.599  0.00  0.00    +0.000 A 
ATOM     27  C   UNL     1      62.793  65.662  71.206  0.00  0.00    +0.000 A 
ATOM     28  S   UNL     1      63.189  66.181  71.711  0.00  0.00    +0.000 S 
ATOM     29  C   UNL     1      62.764  66.222  72.417  0.00  0.00    +0.000 A 
ATOM     30  N   UNL     1      62.963  66.677  73.075  0.00  0.00    +0.000 NA
ATOM     31  N   UNL     1      62.106  65.729  72.348  0.00  0.00    +0.000 NA
ATOM     32  C   UNL     1      61.788  62.982  67.076  0.00  0.00    +0.000 C 
ATOM     33  O   UNL     1      62.434  63.485  67.185  0.00  0.00    +0.000 OA
ATOM     34  OXT UNL     1      61.697  62.577  66.363  0.00  0.00    +0.000 OA
ENDROOT
TORSDOF 0
ENDMDL
MODEL 2
REMARK VINA RESULT:   -13.423      1.647      6.113
REMARK INTER + INTRA:         -13.423
REMARK INTER:                 -13.423
REMARK INTRA:                   0.000
REMARK UNBOUND:                 0.000
ROOT
REMARK  Name = ceftiofur
REMARK                            x       y       z     vdW  Elec       q    Type
REMARK                         _______ _______ _______ _____ _____    ______ ____
ATOM      1  C   UNL     1      60.673  63.691  68.656  0.00  0.00    +0.000 C 
ATOM      2  S   UNL     1      60.039  63.790  69.175  0.00  0.00    +0.000 S 
ATOM      3  C   UNL     1      60.144  64.209  69.878  0.00  0.00    +0.000 C 
ATOM      4  C   UNL     1      60.882  64.529  70.062  0.00  0.00    +0.000 C 
ATOM      5  C   UNL     1      60.986  64.949  70.765  0.00  0.00    +0.000 C 
ATOM      6  S   UNL     1      61.723  65.268  70.948  0.00  0.00    +0.000 S 
ATOM      7  C   UNL     1      61.829  65.688  71.651  0.00  0.00    +0.000 C 
ATOM      8  O   UNL     1      61.195  65.786  72.171  0.00  0.00    +0.000 OA
ATOM      9  C   UNL     1      62.566  66.008  71.834  0.00  0.00    +0.000 A 
ATOM     10  C   UNL     1      62.753  66.438  72.514  0.00  0.00    +0.000 A 
ATOM     11  C   UNL     1      63.549  66.651  72.470  0.00  0.00    +0.000 A 
ATOM     12  C   UNL     1      63.855  66.352  71.764  0.00  0.00    +0.000 A 
ATOM     13  O   UNL     1      63.247  65.954  71.372  0.00  0.00    +0.000 OA
ATOM     14  CA  UNL     1      61.515  64.431  69.543  0.00  0.00    +0.000 C 
ATOM     15  N   UNL     1      61.410  64.011  68.839  0.00  0.00    +0.000 N 
ATOM     16  C   UNL     1      61.715  63.713  68.134  0.00  0.00    +0.000 C 
ATOM     17  O   UNL     1      62.453  63.727  67.764  0.00  0.00    +0.000 OA
ATOM     18  CA  UNL     1      60.977  63.392  67.951  0.00  0.00    +0.000 C 
ATOM     19  N   UNL     1      60.672  62.954  67.322  0.00  0.00    +0.000 NA
ATOM     20  C   UNL     1      61.157  62.748  66.687  0.00  0.00    +0.000 C 
ATOM     21  O   UNL     1      61.949  62.981  66.682  0.00  0.00    +0.000 OA
ATOM     22  C   UNL     1      60.852  62.311  66.059  0.00  0.00    +0.000 C 
ATOM     23  N   UNL     1      60.060  62.078  66.064  0.00  0.00    +0.000 NA
ATOM     24  O   UNL     1      59.574  62.284  66.698  0.00  0.00    +0.000 OA
ATOM     25  C   UNL     1      58.782  62.052  66.704  0.00  0.00    +0.000 C 
ATOM     26  C   UNL     1      61.337  62.105  65.424  0.00  0.00    +0.000 A 
ATOM     27  C   UNL     1      62.135  62.296  65.342  0.00  0.00    +0.000 A 
ATOM     28  S   UNL     1      62.402  61.981  64.628  0.00  0.00    +0.000 S 
ATOM     29  C   UNL     1      61.768  61.594  64.268  0.00  0.00    +0.000 A 
ATOM     30  N   UNL     1      61.789  61.201  63.544  0.00  0.00    +0.000 NA
ATOM     31  N   UNL     1      61.110  61.671  64.761  0.00  0.00    +0.000 NA
ATOM     32  C   UNL     1      62.252  64.751  69.726  0.00  0.00    +0.000 C 
ATOM     33  O   UNL     1      62.886  64.652  69.206  0.00  0.00    +0.000 OA
ATOM     34  OXT UNL     1      62.357  65.170  70.428  0.00  0.00    +0.000 OA
ENDROOT
TORSDOF 0
ENDMDL
MODEL 3
REMARK VINA RESULT:   -12.285      1.914      2.472
REMARK INTER + INTRA:         -12.285
REMARK INTER:                 -12.285
REMARK INTRA:                   0.000
REMARK UNBOUND:                 0.000
ROOT
REMARK  Name = ceftiofur
REMARK                            x       y       z     vdW  Elec       q    Type
REMARK                         _______ _______ _______ _____ _____    ______ ____
ATOM      1  C   UNL     1      61.545  64.510  69.254  0.00  0.00    +0.000 C 
ATOM      2  S   UNL     1      62.323  64.323  69.048  0.00  0.00    +0.000 S 
ATOM      3  C   UNL     1      62.471  63.830  68.404  0.00  0.00    +0.000 C 
ATOM      4  C   UNL     1      61.843  63.523  67.966  0.00  0.00    +0.000 C 
ATOM      5  C   UNL     1      61.992  63.028  67.321  0.00  0.00    +0.000 C 
ATOM      6  S   UNL     1      61.365  62.722  66.883  0.00  0.00    +0.000 S 
ATOM      7  C   UNL     1      61.513  62.228  66.239  0.00  0.00    +0.000 C 
ATOM      8  O   UNL     1      62.291  62.041  66.034  0.00  0.00    +0.000 OA
ATOM      9  C   UNL     1      60.885  61.921  65.801  0.00  0.00    +0.000 A 
ATOM     10  C   UNL     1      60.949  61.423  65.146  0.00  0.00    +0.000 A 
ATOM     11  C   UNL     1      60.186  61.252  64.881  0.00  0.00    +0.000 A 
ATOM     12  C   UNL     1      59.652  61.645  65.371  0.00  0.00    +0.000 A 
ATOM     13  O   UNL     1      60.084  62.059  65.940  0.00  0.00    +0.000 OA
ATOM     14  CA  UNL     1      61.066  63.709  68.171  0.00  0.00    +0.000 C 
ATOM     15  N   UNL     1      60.917  64.203  68.815  0.00  0.00    +0.000 N 
ATOM     16  C   UNL     1      60.384  64.596  69.305  0.00  0.00    +0.000 C 
ATOM     17  O   UNL     1      59.562  64.657  69.343  0.00  0.00    +0.000 OA
ATOM     18  CA  UNL     1      61.012  64.903  69.744  0.00  0.00    +0.000 C 
ATOM     19  N   UNL     1      61.077  65.398  70.400  0.00  0.00    +0.000 NA
ATOM     20  C   UNL     1      60.399  65.698  70.761  0.00  0.00    +0.000 C 
ATOM     21  O   UNL     1      59.654  65.503  70.464  0.00  0.00    +0.000 OA
ATOM     22  C   UNL     1      60.465  66.192  71.418  0.00  0.00    +0.000 C 
ATOM     23  N   UNL     1      61.209  66.388  71.714  0.00  0.00    +0.000 NA
ATOM     24  O   UNL     1      61.888  66.088  71.354  0.00  0.00    +0.000 OA
ATOM     25  C   UNL     1      62.634  66.282  71.651  0.00  0.00    +0.000 C 
ATOM     26  C   UNL     1      59.786  66.493  71.778  0.00  0.00    +0.000 A 
ATOM     27  C   UNL     1      59.008  66.347  71.545  0.00  0.00    +0.000 A 
ATOM     28  S   UNL     1      58.507  66.756  72.058  0.00  0.00    +0.000 S 
ATOM     29  C   UNL     1      58.976  67.154  72.608  0.00  0.00    +0.000 A 
ATOM     30  N   UNL     1      58.701  67.630  73.222  0.00  0.00    +0.000 NA
ATOM     31  N   UNL     1      59.766  66.991  72.435  0.00  0.00    +0.000 NA
ATOM     32  C   UNL     1      60.439  63.402  67.733  0.00  0.00    +0.000 C 
ATOM     33  O   UNL     1      59.662  63.589  67.939  0.00  0.00    +0.000 OA
ATOM     34  OXT UNL     1      60.587  62.909  67.089  0.00  0.00    +0.000 OA
ENDROOT
TORSDOF 0
ENDMDL
MODEL 4
REMARK VINA RESULT:   -11.204     14.293     15.356
REMARK INTER + INTRA:         -11.204
REMARK INTER:                 -11.204
REMARK INTRA:                   0.000
REMARK UNBOUND:                 0.000
ROOT
REMARK  Name = ceftiofur
REMARK                            x       y       z     vdW  Elec       q    Type
REMARK                         _______ _______ _______ _____ _____    ______ ____
ATOM      1  C   UNL     1      61.842  64.340  52.843  0.00  0.00    +0.000 C 
ATOM      2  S   UNL     1      61.528  64.039  52.141  0.00  0.00    +0.000 S 
ATOM      3  C   UNL     1      61.589  63.234  51.975  0.00  0.00    +0.000 C 
ATOM      4  C   UNL     1      61.963  62.728  52.509  0.00  0.00    +0.000 C 
ATOM      5  C   UNL     1      62.023  61.922  52.342  0.00  0.00    +0.000 C 
ATOM      6  S   UNL     1      62.396  61.417  52.876  0.00  0.00    +0.000 S 
ATOM      7  C   UNL     1      62.457  60.612  52.709  0.00  0.00    +0.000 C 
ATOM      8  O   UNL     1      62.143  60.311  52.007  0.00  0.00    +0.000 OA
ATOM      9  C   UNL     1      62.831  60.107  53.244  0.00  0.00    +0.000 A 
ATOM     10  C   UNL     1      62.932  59.293  53.152  0.00  0.00    +0.000 A 
ATOM     11  C   UNL     1      63.333  59.009  53.815  0.00  0.00    +0.000 A 
ATOM     12  C   UNL     1      63.480  59.648  54.317  0.00  0.00    +0.000 A 
ATOM     13  O   UNL     1      63.169  60.326  53.963  0.00  0.00    +0.000 OA
ATOM     14  CA  UNL     1      62.277  63.028  53.210  0.00  0.00    +0.000 C 
ATOM     15  N   UNL     1      62.216  63.835  53.377  0.00  0.00    +0.000 N 
ATOM     16  C   UNL     1      62.363  64.473  53.878  0.00  0.00    +0.000 C 
ATOM     17  O   UNL     1      62.731  64.568  54.610  0.00  0.00    +0.000 OA
ATOM     18  CA  UNL     1      61.989  64.978  53.343  0.00  0.00    +0.000 C 
ATOM     19  N   UNL     1      61.828  65.787  53.321  0.00  0.00    +0.000 NA
ATOM     20  C   UNL     1      62.066  66.273  53.943  0.00  0.00    +0.000 C 
ATOM     21  O   UNL     1      62.465  65.950  54.589  0.00  0.00    +0.000 OA
ATOM     22  C   UNL     1      61.906  67.082  53.920  0.00  0.00    +0.000 C 
ATOM     23  N   UNL     1      61.506  67.405  53.274  0.00  0.00    +0.000 NA
ATOM     24  O   UNL     1      61.268  66.919  52.651  0.00  0.00    +0.000 OA
ATOM     25  C   UNL     1      60.869  67.241  52.005  0.00  0.00    +0.000 C 
ATOM     26  C   UNL     1      62.144  67.568  54.542  0.00  0.00    +0.000 A 
ATOM     27  C   UNL     1      62.545  67.326  55.220  0.00  0.00    +0.000 A 
ATOM     28  S   UNL     1      62.672  67.990  55.693  0.00  0.00    +0.000 S 
ATOM     29  C   UNL     1      62.349  68.643  55.306  0.00  0.00    +0.000 A 
ATOM     30  N   UNL     1      62.352  69.420  55.583  0.00  0.00    +0.000 NA
ATOM     31  N   UNL     1      62.022  68.382  54.595  0.00  0.00    +0.000 NA
ATOM     32  C   UNL     1      62.650  62.524  53.744  0.00  0.00    +0.000 C 
ATOM     33  O   UNL     1      62.964  62.824  54.446  0.00  0.00    +0.000 OA
ATOM     34  OXT UNL     1      62.711  61.718  53.578  0.00  0.00    +0.000 OA
ENDROOT
TORSDOF 0
ENDMDL
MODEL 5
REMARK VINA RESULT:   -11.115     14.787     16.160
REMARK INTER + INTRA:         -11.115
REMARK INTER:                 -11.115
REMARK INTRA:                   0.000
REMARK UNBOUND:                 0.000
ROOT
REMARK  Name = ceftiofur
REMARK                            x       y       z     vdW  Elec       q    Type
REMARK                         _______ _______ _______ _____ _____    ______ ____
ATOM      1  C   UNL     1      61.573  64.797  52.825  0.00  0.00    +0.000 C 
ATOM      2  S   UNL     1      61.039  65.183  52.327  0.00  0.00    +0.000 S 
ATOM      3  C   UNL     1      60.872  65.982  52.443  0.00  0.00    +0.000 C 
ATOM      4  C   UNL     1      61.238  66.396  53.055  0.00  0.00    +0.000 C 
ATOM      5  C   UNL     1      61.070  67.197  53.170  0.00  0.00    +0.000 C 
ATOM      6  S   UNL     1      61.436  67.610  53.782  0.00  0.00    +0.000 S 
ATOM      7  C   UNL     1      61.269  68.410  53.897  0.00  0.00    +0.000 C 
ATOM      8  O   UNL     1      60.734  68.795  53.400  0.00  0.00    +0.000 OA
ATOM      9  C   UNL     1      61.635  68.824  54.509  0.00  0.00    +0.000 A 
ATOM     10  C   UNL     1      61.522  69.622  54.691  0.00  0.00    +0.000 A 
ATOM     11  C   UNL     1      61.996  69.805  55.341  0.00  0.00    +0.000 A 
ATOM     12  C   UNL     1      62.401  69.121  55.562  0.00  0.00    +0.000 A 
ATOM     13  O   UNL     1      62.178  68.515  55.047  0.00  0.00    +0.000 OA
ATOM     14  CA  UNL     1      61.772  66.012  53.552  0.00  0.00    +0.000 C 
ATOM     15  N   UNL     1      61.940  65.212  53.437  0.00  0.00    +0.000 N 
ATOM     16  C   UNL     1      62.344  64.529  53.657  0.00  0.00    +0.000 C 
ATOM     17  O   UNL     1      62.890  64.337  54.246  0.00  0.00    +0.000 OA
ATOM     18  CA  UNL     1      61.978  64.114  53.045  0.00  0.00    +0.000 C 
ATOM     19  N   UNL     1      62.006  63.337  52.769  0.00  0.00    +0.000 NA
ATOM     20  C   UNL     1      62.492  62.783  53.140  0.00  0.00    +0.000 C 
ATOM     21  O   UNL     1      62.951  63.007  53.788  0.00  0.00    +0.000 OA
ATOM     22  C   UNL     1      62.520  62.007  52.863  0.00  0.00    +0.000 C 
ATOM     23  N   UNL     1      62.061  61.784  52.215  0.00  0.00    +0.000 NA
ATOM     24  O   UNL     1      61.575  62.337  51.843  0.00  0.00    +0.000 OA
ATOM     25  C   UNL     1      61.116  62.114  51.194  0.00  0.00    +0.000 C 
ATOM     26  C   UNL     1      63.006  61.454  53.234  0.00  0.00    +0.000 A 
ATOM     27  C   UNL     1      63.493  61.595  53.884  0.00  0.00    +0.000 A 
ATOM     28  S   UNL     1      63.879  60.890  54.073  0.00  0.00    +0.000 S 
ATOM     29  C   UNL     1      63.629  60.313  53.538  0.00  0.00    +0.000 A 
ATOM     30  N   UNL     1      63.877  59.527  53.525  0.00  0.00    +0.000 NA
ATOM     31  N   UNL     1      63.090  60.661  53.020  0.00  0.00    +0.000 NA
ATOM     32  C   UNL     1      62.138  66.426  54.164  0.00  0.00    +0.000 C 
ATOM     33  O   UNL     1      62.672  66.041  54.661  0.00  0.00    +0.000 OA
ATOM     34  OXT UNL     1      61.970  67.225  54.279  0.00  0.00    +0.000 OA
ENDROOT
TORSDOF 0
ENDMDL
