MODEL 1
REMARK VINA RESULT:   -10.397      0.000      0.000
REMARK INTER + INTRA:         -10.397
REMARK INTER:                 -10.397
REMARK INTRA:                   0.000
REMARK UNBOUND:                 0.000
ROOT
REMARK  Name = cetilistat
REMARK                            x       y       z     vdW  Elec       q    Type
REMARK                         _______ _______ _______ _____ _____    ______ ____
ATOM      1  C   UNL     1      57.944  75.029  54.662  0.00  0.00    +0.000 C 
ATOM      2  C   UNL     1      57.917  74.213  54.548  0.00  0.00    +0.000 C 
ATOM      3  C   UNL     1      58.608  73.765  54.596  0.00  0.00    +0.000 C 
ATOM      4  C   UNL     1      58.581  72.949  54.482  0.00  0.00    +0.000 C 
ATOM      5  C   UNL     1      59.272  72.502  54.530  0.00  0.00    +0.000 C 
ATOM      6  C   UNL     1      59.245  71.686  54.416  0.00  0.00    +0.000 C 
ATOM      7  C   UNL     1      59.937  71.238  54.464  0.00  0.00    +0.000 C 
ATOM      8  C   UNL     1      59.909  70.422  54.350  0.00  0.00    +0.000 C 
ATOM      9  C   UNL     1      60.600  69.976  54.398  0.00  0.00    +0.000 C 
ATOM     10  C   UNL     1      60.573  69.159  54.284  0.00  0.00    +0.000 C 
ATOM     11  C   UNL     1      61.265  68.711  54.332  0.00  0.00    +0.000 C 
ATOM     12  C   UNL     1      61.237  67.895  54.218  0.00  0.00    +0.000 C 
ATOM     13  C   UNL     1      61.928  67.448  54.266  0.00  0.00    +0.000 C 
ATOM     14  C   UNL     1      61.901  66.631  54.152  0.00  0.00    +0.000 C 
ATOM     15  C   UNL     1      62.593  66.185  54.200  0.00  0.00    +0.000 C 
ATOM     16  C   UNL     1      62.565  65.368  54.086  0.00  0.00    +0.000 C 
ATOM     17  O   UNL     1      63.257  64.921  54.134  0.00  0.00    +0.000 OA
ATOM     18  C   UNL     1      63.230  64.104  54.020  0.00  0.00    +0.000 A 
ATOM     19  N   UNL     1      63.921  63.658  54.068  0.00  0.00    +0.000 NA
ATOM     20  C   UNL     1      63.894  62.841  53.954  0.00  0.00    +0.000 A 
ATOM     21  C   UNL     1      63.174  62.471  53.792  0.00  0.00    +0.000 A 
ATOM     22  C   UNL     1      63.147  61.655  53.678  0.00  0.00    +0.000 A 
ATOM     23  C   UNL     1      63.838  61.207  53.726  0.00  0.00    +0.000 A 
ATOM     24  C   UNL     1      63.811  60.391  53.612  0.00  0.00    +0.000 C 
ATOM     25  C   UNL     1      64.558  61.577  53.888  0.00  0.00    +0.000 A 
ATOM     26  C   UNL     1      64.585  62.394  54.002  0.00  0.00    +0.000 A 
ATOM     27  C   UNL     1      62.483  62.919  53.744  0.00  0.00    +0.000 A 
ATOM     28  O   UNL     1      61.762  62.549  53.582  0.00  0.00    +0.000 OA
ATOM     29  O   UNL     1      62.510  63.735  53.858  0.00  0.00    +0.000 OA
ENDROOT
TORSDOF 0
ENDMDL
MODEL 2
REMARK VINA RESULT:    -9.892     19.447     20.170
REMARK INTER + INTRA:          -9.892
REMARK INTER:                  -9.892
REMARK INTRA:                   0.000
REMARK UNBOUND:                 0.000
ROOT
REMARK  Name = cetilistat
REMARK                            x       y       z     vdW  Elec       q    Type
REMARK                         _______ _______ _______ _____ _____    ______ ____
ATOM      1  C   UNL     1      81.002  79.335  49.976  0.00  0.00    +0.000 C 
ATOM      2  C   UNL     1      80.755  78.699  50.438  0.00  0.00    +0.000 C 
ATOM      3  C   UNL     1      81.099  77.956  50.337  0.00  0.00    +0.000 C 
ATOM      4  C   UNL     1      80.851  77.319  50.798  0.00  0.00    +0.000 C 
ATOM      5  C   UNL     1      81.195  76.576  50.697  0.00  0.00    +0.000 C 
ATOM      6  C   UNL     1      80.948  75.940  51.159  0.00  0.00    +0.000 C 
ATOM      7  C   UNL     1      81.292  75.197  51.057  0.00  0.00    +0.000 C 
ATOM      8  C   UNL     1      81.044  74.560  51.519  0.00  0.00    +0.000 C 
ATOM      9  C   UNL     1      81.388  73.818  51.417  0.00  0.00    +0.000 C 
ATOM     10  C   UNL     1      81.141  73.181  51.879  0.00  0.00    +0.000 C 
ATOM     11  C   UNL     1      81.485  72.438  51.777  0.00  0.00    +0.000 C 
ATOM     12  C   UNL     1      81.237  71.801  52.239  0.00  0.00    +0.000 C 
ATOM     13  C   UNL     1      81.581  71.059  52.137  0.00  0.00    +0.000 C 
ATOM     14  C   UNL     1      81.334  70.422  52.599  0.00  0.00    +0.000 C 
ATOM     15  C   UNL     1      81.678  69.680  52.498  0.00  0.00    +0.000 C 
ATOM     16  C   UNL     1      81.430  69.042  52.960  0.00  0.00    +0.000 C 
ATOM     17  O   UNL     1      81.774  68.300  52.858  0.00  0.00    +0.000 OA
ATOM     18  C   UNL     1      81.527  67.663  53.320  0.00  0.00    +0.000 A 
ATOM     19  N   UNL     1      81.871  66.921  53.218  0.00  0.00    +0.000 NA
ATOM     20  C   UNL     1      81.623  66.283  53.680  0.00  0.00    +0.000 A 
ATOM     21  C   UNL     1      81.031  66.389  54.244  0.00  0.00    +0.000 A 
ATOM     22  C   UNL     1      80.783  65.753  54.706  0.00  0.00    +0.000 A 
ATOM     23  C   UNL     1      81.127  65.010  54.605  0.00  0.00    +0.000 A 
ATOM     24  C   UNL     1      80.880  64.374  55.067  0.00  0.00    +0.000 C 
ATOM     25  C   UNL     1      81.720  64.904  54.040  0.00  0.00    +0.000 A 
ATOM     26  C   UNL     1      81.967  65.541  53.578  0.00  0.00    +0.000 A 
ATOM     27  C   UNL     1      80.687  67.132  54.346  0.00  0.00    +0.000 A 
ATOM     28  O   UNL     1      80.093  67.239  54.911  0.00  0.00    +0.000 OA
ATOM     29  O   UNL     1      80.934  67.769  53.884  0.00  0.00    +0.000 OA
ENDROOT
TORSDOF 0
ENDMDL
MODEL 3
REMARK VINA RESULT:    -9.869     20.273     22.298
REMARK INTER + INTRA:          -9.869
REMARK INTER:                  -9.869
REMARK INTRA:                   0.000
REMARK UNBOUND:                 0.000
ROOT
REMARK  Name = cetilistat
REMARK                            x       y       z     vdW  Elec       q    Type
REMARK                         _______ _______ _______ _____ _____    ______ ____
ATOM      1  C   UNL     1      81.095  65.649  58.458  0.00  0.00    +0.000 C 
ATOM      2  C   UNL     1      81.112  66.466  58.349  0.00  0.00    +0.000 C 
ATOM      3  C   UNL     1      81.081  66.783  57.588  0.00  0.00    +0.000 C 
ATOM      4  C   UNL     1      81.098  67.600  57.480  0.00  0.00    +0.000 C 
ATOM      5  C   UNL     1      81.066  67.917  56.718  0.00  0.00    +0.000 C 
ATOM      6  C   UNL     1      81.083  68.734  56.610  0.00  0.00    +0.000 C 
ATOM      7  C   UNL     1      81.052  69.050  55.849  0.00  0.00    +0.000 C 
ATOM      8  C   UNL     1      81.069  69.867  55.740  0.00  0.00    +0.000 C 
ATOM      9  C   UNL     1      81.037  70.183  54.979  0.00  0.00    +0.000 C 
ATOM     10  C   UNL     1      81.054  71.001  54.870  0.00  0.00    +0.000 C 
ATOM     11  C   UNL     1      81.022  71.318  54.109  0.00  0.00    +0.000 C 
ATOM     12  C   UNL     1      81.040  72.135  54.001  0.00  0.00    +0.000 C 
ATOM     13  C   UNL     1      81.008  72.451  53.240  0.00  0.00    +0.000 C 
ATOM     14  C   UNL     1      81.025  73.269  53.131  0.00  0.00    +0.000 C 
ATOM     15  C   UNL     1      80.993  73.585  52.370  0.00  0.00    +0.000 C 
ATOM     16  C   UNL     1      81.010  74.402  52.261  0.00  0.00    +0.000 C 
ATOM     17  O   UNL     1      80.979  74.718  51.501  0.00  0.00    +0.000 OA
ATOM     18  C   UNL     1      80.996  75.536  51.392  0.00  0.00    +0.000 A 
ATOM     19  N   UNL     1      80.964  75.852  50.631  0.00  0.00    +0.000 NA
ATOM     20  C   UNL     1      80.981  76.670  50.522  0.00  0.00    +0.000 A 
ATOM     21  C   UNL     1      81.030  77.172  51.175  0.00  0.00    +0.000 A 
ATOM     22  C   UNL     1      81.047  77.989  51.067  0.00  0.00    +0.000 A 
ATOM     23  C   UNL     1      81.016  78.305  50.305  0.00  0.00    +0.000 A 
ATOM     24  C   UNL     1      81.033  79.122  50.197  0.00  0.00    +0.000 C 
ATOM     25  C   UNL     1      80.967  77.804  49.652  0.00  0.00    +0.000 A 
ATOM     26  C   UNL     1      80.950  76.986  49.761  0.00  0.00    +0.000 A 
ATOM     27  C   UNL     1      81.062  76.855  51.936  0.00  0.00    +0.000 A 
ATOM     28  O   UNL     1      81.111  77.357  52.590  0.00  0.00    +0.000 OA
ATOM     29  O   UNL     1      81.045  76.038  52.045  0.00  0.00    +0.000 OA
ENDROOT
TORSDOF 0
ENDMDL
MODEL 4
REMARK VINA RESULT:    -9.555      3.393     10.058
REMARK INTER + INTRA:          -9.555
REMARK INTER:                  -9.555
REMARK INTRA:                   0.000
REMARK UNBOUND:                 0.000
ROOT
REMARK  Name = cetilistat
REMARK                            x       y       z     vdW  Elec       q    Type
REMARK                         _______ _______ _______ _____ _____    ______ ____
ATOM      1  C   UNL     1      64.242  61.045  53.759  0.00  0.00    +0.000 C 
ATOM      2  C   UNL     1      63.928  61.708  54.135  0.00  0.00    +0.000 C 
ATOM      3  C   UNL     1      63.653  62.345  53.688  0.00  0.00    +0.000 C 
ATOM      4  C   UNL     1      63.339  63.008  54.063  0.00  0.00    +0.000 C 
ATOM      5  C   UNL     1      63.064  63.645  53.616  0.00  0.00    +0.000 C 
ATOM      6  C   UNL     1      62.750  64.308  53.992  0.00  0.00    +0.000 C 
ATOM      7  C   UNL     1      62.475  64.945  53.545  0.00  0.00    +0.000 C 
ATOM      8  C   UNL     1      62.161  65.608  53.920  0.00  0.00    +0.000 C 
ATOM      9  C   UNL     1      61.887  66.244  53.473  0.00  0.00    +0.000 C 
ATOM     10  C   UNL     1      61.572  66.908  53.849  0.00  0.00    +0.000 C 
ATOM     11  C   UNL     1      61.297  67.545  53.402  0.00  0.00    +0.000 C 
ATOM     12  C   UNL     1      60.983  68.208  53.777  0.00  0.00    +0.000 C 
ATOM     13  C   UNL     1      60.709  68.844  53.330  0.00  0.00    +0.000 C 
ATOM     14  C   UNL     1      60.395  69.509  53.706  0.00  0.00    +0.000 C 
ATOM     15  C   UNL     1      60.120  70.144  53.259  0.00  0.00    +0.000 C 
ATOM     16  C   UNL     1      59.806  70.809  53.634  0.00  0.00    +0.000 C 
ATOM     17  O   UNL     1      59.531  71.444  53.187  0.00  0.00    +0.000 OA
ATOM     18  C   UNL     1      59.217  72.109  53.563  0.00  0.00    +0.000 A 
ATOM     19  N   UNL     1      58.942  72.744  53.115  0.00  0.00    +0.000 NA
ATOM     20  C   UNL     1      58.628  73.409  53.491  0.00  0.00    +0.000 A 
ATOM     21  C   UNL     1      58.589  73.436  54.315  0.00  0.00    +0.000 A 
ATOM     22  C   UNL     1      58.275  74.100  54.690  0.00  0.00    +0.000 A 
ATOM     23  C   UNL     1      58.000  74.736  54.243  0.00  0.00    +0.000 A 
ATOM     24  C   UNL     1      57.686  75.400  54.619  0.00  0.00    +0.000 C 
ATOM     25  C   UNL     1      58.039  74.709  53.419  0.00  0.00    +0.000 A 
ATOM     26  C   UNL     1      58.353  74.044  53.044  0.00  0.00    +0.000 A 
ATOM     27  C   UNL     1      58.864  72.800  54.762  0.00  0.00    +0.000 A 
ATOM     28  O   UNL     1      58.825  72.827  55.586  0.00  0.00    +0.000 OA
ATOM     29  O   UNL     1      59.178  72.136  54.386  0.00  0.00    +0.000 OA
ENDROOT
TORSDOF 0
ENDMDL
MODEL 5
REMARK VINA RESULT:    -9.446      1.325      2.321
REMARK INTER + INTRA:          -9.446
REMARK INTER:                  -9.446
REMARK INTRA:                   0.000
REMARK UNBOUND:                 0.000
ROOT
REMARK  Name = cetilistat
REMARK                            x       y       z     vdW  Elec       q    Type
REMARK                         _______ _______ _______ _____ _____    ______ ____
ATOM      1  C   UNL     1      58.873  73.321  53.212  0.00  0.00    +0.000 C 
ATOM      2  C   UNL     1      58.956  72.567  52.889  0.00  0.00    +0.000 C 
ATOM      3  C   UNL     1      59.373  71.985  53.300  0.00  0.00    +0.000 C 
ATOM      4  C   UNL     1      59.456  71.231  52.978  0.00  0.00    +0.000 C 
ATOM      5  C   UNL     1      59.873  70.649  53.388  0.00  0.00    +0.000 C 
ATOM      6  C   UNL     1      59.956  69.895  53.066  0.00  0.00    +0.000 C 
ATOM      7  C   UNL     1      60.373  69.313  53.476  0.00  0.00    +0.000 C 
ATOM      8  C   UNL     1      60.455  68.559  53.154  0.00  0.00    +0.000 C 
ATOM      9  C   UNL     1      60.872  67.979  53.564  0.00  0.00    +0.000 C 
ATOM     10  C   UNL     1      60.955  67.223  53.242  0.00  0.00    +0.000 C 
ATOM     11  C   UNL     1      61.373  66.642  53.652  0.00  0.00    +0.000 C 
ATOM     12  C   UNL     1      61.455  65.888  53.330  0.00  0.00    +0.000 C 
ATOM     13  C   UNL     1      61.872  65.307  53.740  0.00  0.00    +0.000 C 
ATOM     14  C   UNL     1      61.955  64.552  53.418  0.00  0.00    +0.000 C 
ATOM     15  C   UNL     1      62.372  63.971  53.828  0.00  0.00    +0.000 C 
ATOM     16  C   UNL     1      62.455  63.216  53.506  0.00  0.00    +0.000 C 
ATOM     17  O   UNL     1      62.872  62.635  53.916  0.00  0.00    +0.000 OA
ATOM     18  C   UNL     1      62.955  61.880  53.594  0.00  0.00    +0.000 A 
ATOM     19  N   UNL     1      63.372  61.299  54.004  0.00  0.00    +0.000 NA
ATOM     20  C   UNL     1      63.455  60.544  53.682  0.00  0.00    +0.000 A 
ATOM     21  C   UNL     1      63.120  60.371  52.948  0.00  0.00    +0.000 A 
ATOM     22  C   UNL     1      63.202  59.616  52.626  0.00  0.00    +0.000 A 
ATOM     23  C   UNL     1      63.620  59.035  53.037  0.00  0.00    +0.000 A 
ATOM     24  C   UNL     1      63.702  58.281  52.714  0.00  0.00    +0.000 C 
ATOM     25  C   UNL     1      63.955  59.209  53.770  0.00  0.00    +0.000 A 
ATOM     26  C   UNL     1      63.872  59.964  54.093  0.00  0.00    +0.000 A 
ATOM     27  C   UNL     1      62.702  60.952  52.538  0.00  0.00    +0.000 A 
ATOM     28  O   UNL     1      62.367  60.778  51.803  0.00  0.00    +0.000 OA
ATOM     29  O   UNL     1      62.620  61.706  52.860  0.00  0.00    +0.000 OA
ENDROOT
TORSDOF 0
ENDMDL
MODEL 6
REMARK VINA RESULT:    -9.255     19.339     20.264
REMARK INTER + INTRA:          -9.255
REMARK INTER:                  -9.255
REMARK INTRA:                   0.000
REMARK UNBOUND:                 0.000
ROOT
REMARK  Name = cetilistat
REMARK                            x       y       z     vdW  Elec       q    Type
REMARK                         _______ _______ _______ _____ _____    ______ ____
ATOM      1  C   UNL     1      81.390  79.637  49.683  0.00  0.00    +0.000 C 
ATOM      2  C   UNL     1      81.111  79.151  50.287  0.00  0.00    +0.000 C 
ATOM      3  C   UNL     1      81.378  78.373  50.349  0.00  0.00    +0.000 C 
ATOM      4  C   UNL     1      81.099  77.887  50.954  0.00  0.00    +0.000 C 
ATOM      5  C   UNL     1      81.366  77.109  51.015  0.00  0.00    +0.000 C 
ATOM      6  C   UNL     1      81.088  76.623  51.620  0.00  0.00    +0.000 C 
ATOM      7  C   UNL     1      81.355  75.845  51.681  0.00  0.00    +0.000 C 
ATOM      8  C   UNL     1      81.076  75.359  52.286  0.00  0.00    +0.000 C 
ATOM      9  C   UNL     1      81.343  74.582  52.347  0.00  0.00    +0.000 C 
ATOM     10  C   UNL     1      81.064  74.095  52.952  0.00  0.00    +0.000 C 
ATOM     11  C   UNL     1      81.331  73.317  53.014  0.00  0.00    +0.000 C 
ATOM     12  C   UNL     1      81.053  72.831  53.618  0.00  0.00    +0.000 C 
ATOM     13  C   UNL     1      81.320  72.053  53.679  0.00  0.00    +0.000 C 
ATOM     14  C   UNL     1      81.041  71.567  54.285  0.00  0.00    +0.000 C 
ATOM     15  C   UNL     1      81.308  70.789  54.345  0.00  0.00    +0.000 C 
ATOM     16  C   UNL     1      81.029  70.302  54.951  0.00  0.00    +0.000 C 
ATOM     17  O   UNL     1      81.297  69.525  55.012  0.00  0.00    +0.000 OA
ATOM     18  C   UNL     1      81.018  69.038  55.617  0.00  0.00    +0.000 A 
ATOM     19  N   UNL     1      81.285  68.261  55.678  0.00  0.00    +0.000 NA
ATOM     20  C   UNL     1      81.006  67.774  56.283  0.00  0.00    +0.000 A 
ATOM     21  C   UNL     1      80.460  68.066  56.828  0.00  0.00    +0.000 A 
ATOM     22  C   UNL     1      80.181  67.580  57.433  0.00  0.00    +0.000 A 
ATOM     23  C   UNL     1      80.448  66.802  57.494  0.00  0.00    +0.000 A 
ATOM     24  C   UNL     1      80.169  66.316  58.099  0.00  0.00    +0.000 C 
ATOM     25  C   UNL     1      80.995  66.510  56.949  0.00  0.00    +0.000 A 
ATOM     26  C   UNL     1      81.273  66.997  56.344  0.00  0.00    +0.000 A 
ATOM     27  C   UNL     1      80.193  68.844  56.766  0.00  0.00    +0.000 A 
ATOM     28  O   UNL     1      79.645  69.137  57.312  0.00  0.00    +0.000 OA
ATOM     29  O   UNL     1      80.471  69.330  56.162  0.00  0.00    +0.000 OA
ENDROOT
TORSDOF 0
ENDMDL
MODEL 7
REMARK VINA RESULT:    -9.183      2.553      9.669
REMARK INTER + INTRA:          -9.183
REMARK INTER:                  -9.183
REMARK INTRA:                   0.000
REMARK UNBOUND:                 0.000
ROOT
REMARK  Name = cetilistat
REMARK                            x       y       z     vdW  Elec       q    Type
REMARK                         _______ _______ _______ _____ _____    ______ ____
ATOM      1  C   UNL     1      64.295  58.319  53.579  0.00  0.00    +0.000 C 
ATOM      2  C   UNL     1      63.883  58.960  53.267  0.00  0.00    +0.000 C 
ATOM      3  C   UNL     1      63.845  59.671  53.685  0.00  0.00    +0.000 C 
ATOM      4  C   UNL     1      63.432  60.312  53.373  0.00  0.00    +0.000 C 
ATOM      5  C   UNL     1      63.395  61.023  53.792  0.00  0.00    +0.000 C 
ATOM      6  C   UNL     1      62.982  61.664  53.479  0.00  0.00    +0.000 C 
ATOM      7  C   UNL     1      62.944  62.375  53.898  0.00  0.00    +0.000 C 
ATOM      8  C   UNL     1      62.532  63.016  53.585  0.00  0.00    +0.000 C 
ATOM      9  C   UNL     1      62.494  63.726  54.004  0.00  0.00    +0.000 C 
ATOM     10  C   UNL     1      62.082  64.368  53.691  0.00  0.00    +0.000 C 
ATOM     11  C   UNL     1      62.044  65.079  54.110  0.00  0.00    +0.000 C 
ATOM     12  C   UNL     1      61.631  65.721  53.797  0.00  0.00    +0.000 C 
ATOM     13  C   UNL     1      61.594  66.430  54.216  0.00  0.00    +0.000 C 
ATOM     14  C   UNL     1      61.181  67.073  53.904  0.00  0.00    +0.000 C 
ATOM     15  C   UNL     1      61.144  67.782  54.322  0.00  0.00    +0.000 C 
ATOM     16  C   UNL     1      60.731  68.425  54.010  0.00  0.00    +0.000 C 
ATOM     17  O   UNL     1      60.693  69.134  54.428  0.00  0.00    +0.000 OA
ATOM     18  C   UNL     1      60.280  69.777  54.116  0.00  0.00    +0.000 A 
ATOM     19  N   UNL     1      60.243  70.486  54.534  0.00  0.00    +0.000 NA
ATOM     20  C   UNL     1      59.830  71.129  54.222  0.00  0.00    +0.000 A 
ATOM     21  C   UNL     1      59.455  71.061  53.490  0.00  0.00    +0.000 A 
ATOM     22  C   UNL     1      59.042  71.703  53.178  0.00  0.00    +0.000 A 
ATOM     23  C   UNL     1      59.005  72.413  53.596  0.00  0.00    +0.000 A 
ATOM     24  C   UNL     1      58.592  73.055  53.284  0.00  0.00    +0.000 C 
ATOM     25  C   UNL     1      59.380  72.481  54.328  0.00  0.00    +0.000 A 
ATOM     26  C   UNL     1      59.793  71.838  54.640  0.00  0.00    +0.000 A 
ATOM     27  C   UNL     1      59.493  70.351  53.072  0.00  0.00    +0.000 A 
ATOM     28  O   UNL     1      59.117  70.283  52.339  0.00  0.00    +0.000 OA
ATOM     29  O   UNL     1      59.905  69.709  53.384  0.00  0.00    +0.000 OA
ENDROOT
TORSDOF 0
ENDMDL
MODEL 8
REMARK VINA RESULT:    -8.902     20.145     22.240
REMARK INTER + INTRA:          -8.902
REMARK INTER:                  -8.902
REMARK INTRA:                   0.000
REMARK UNBOUND:                 0.000
ROOT
REMARK  Name = cetilistat
REMARK                            x       y       z     vdW  Elec       q    Type
REMARK                         _______ _______ _______ _____ _____    ______ ____
ATOM      1  C   UNL     1      81.347  62.594  54.883  0.00  0.00    +0.000 C 
ATOM      2  C   UNL     1      81.364  63.398  55.063  0.00  0.00    +0.000 C 
ATOM      3  C   UNL     1      81.326  63.958  54.459  0.00  0.00    +0.000 C 
ATOM      4  C   UNL     1      81.343  64.762  54.639  0.00  0.00    +0.000 C 
ATOM      5  C   UNL     1      81.305  65.323  54.034  0.00  0.00    +0.000 C 
ATOM      6  C   UNL     1      81.321  66.127  54.215  0.00  0.00    +0.000 C 
ATOM      7  C   UNL     1      81.284  66.687  53.610  0.00  0.00    +0.000 C 
ATOM      8  C   UNL     1      81.300  67.491  53.791  0.00  0.00    +0.000 C 
ATOM      9  C   UNL     1      81.263  68.051  53.187  0.00  0.00    +0.000 C 
ATOM     10  C   UNL     1      81.279  68.856  53.367  0.00  0.00    +0.000 C 
ATOM     11  C   UNL     1      81.242  69.416  52.762  0.00  0.00    +0.000 C 
ATOM     12  C   UNL     1      81.258  70.220  52.943  0.00  0.00    +0.000 C 
ATOM     13  C   UNL     1      81.221  70.780  52.338  0.00  0.00    +0.000 C 
ATOM     14  C   UNL     1      81.237  71.585  52.519  0.00  0.00    +0.000 C 
ATOM     15  C   UNL     1      81.200  72.144  51.914  0.00  0.00    +0.000 C 
ATOM     16  C   UNL     1      81.216  72.949  52.095  0.00  0.00    +0.000 C 
ATOM     17  O   UNL     1      81.179  73.508  51.490  0.00  0.00    +0.000 OA
ATOM     18  C   UNL     1      81.195  74.314  51.671  0.00  0.00    +0.000 A 
ATOM     19  N   UNL     1      81.158  74.873  51.066  0.00  0.00    +0.000 NA
ATOM     20  C   UNL     1      81.174  75.678  51.247  0.00  0.00    +0.000 A 
ATOM     21  C   UNL     1      81.227  75.923  52.033  0.00  0.00    +0.000 A 
ATOM     22  C   UNL     1      81.244  76.727  52.213  0.00  0.00    +0.000 A 
ATOM     23  C   UNL     1      81.206  77.288  51.608  0.00  0.00    +0.000 A 
ATOM     24  C   UNL     1      81.222  78.092  51.789  0.00  0.00    +0.000 C 
ATOM     25  C   UNL     1      81.153  77.042  50.823  0.00  0.00    +0.000 A 
ATOM     26  C   UNL     1      81.137  76.237  50.642  0.00  0.00    +0.000 A 
ATOM     27  C   UNL     1      81.265  75.363  52.637  0.00  0.00    +0.000 A 
ATOM     28  O   UNL     1      81.318  75.608  53.424  0.00  0.00    +0.000 OA
ATOM     29  O   UNL     1      81.248  74.559  52.457  0.00  0.00    +0.000 OA
ENDROOT
TORSDOF 0
ENDMDL
MODEL 9
REMARK VINA RESULT:    -8.856      2.945      9.800
REMARK INTER + INTRA:          -8.856
REMARK INTER:                  -8.856
REMARK INTRA:                   0.000
REMARK UNBOUND:                 0.000
ROOT
REMARK  Name = cetilistat
REMARK                            x       y       z     vdW  Elec       q    Type
REMARK                         _______ _______ _______ _____ _____    ______ ____
ATOM      1  C   UNL     1      63.818  57.129  49.296  0.00  0.00    +0.000 C 
ATOM      2  C   UNL     1      63.443  57.861  49.250  0.00  0.00    +0.000 C 
ATOM      3  C   UNL     1      63.533  58.411  49.859  0.00  0.00    +0.000 C 
ATOM      4  C   UNL     1      63.158  59.143  49.813  0.00  0.00    +0.000 C 
ATOM      5  C   UNL     1      63.248  59.693  50.422  0.00  0.00    +0.000 C 
ATOM      6  C   UNL     1      62.873  60.425  50.376  0.00  0.00    +0.000 C 
ATOM      7  C   UNL     1      62.963  60.975  50.985  0.00  0.00    +0.000 C 
ATOM      8  C   UNL     1      62.588  61.708  50.939  0.00  0.00    +0.000 C 
ATOM      9  C   UNL     1      62.678  62.256  51.547  0.00  0.00    +0.000 C 
ATOM     10  C   UNL     1      62.302  62.990  51.501  0.00  0.00    +0.000 C 
ATOM     11  C   UNL     1      62.392  63.539  52.111  0.00  0.00    +0.000 C 
ATOM     12  C   UNL     1      62.017  64.272  52.064  0.00  0.00    +0.000 C 
ATOM     13  C   UNL     1      62.108  64.820  52.673  0.00  0.00    +0.000 C 
ATOM     14  C   UNL     1      61.732  65.554  52.627  0.00  0.00    +0.000 C 
ATOM     15  C   UNL     1      61.822  66.103  53.236  0.00  0.00    +0.000 C 
ATOM     16  C   UNL     1      61.447  66.836  53.190  0.00  0.00    +0.000 C 
ATOM     17  O   UNL     1      61.537  67.385  53.799  0.00  0.00    +0.000 OA
ATOM     18  C   UNL     1      61.162  68.118  53.753  0.00  0.00    +0.000 A 
ATOM     19  N   UNL     1      61.252  68.667  54.362  0.00  0.00    +0.000 NA
ATOM     20  C   UNL     1      60.877  69.400  54.316  0.00  0.00    +0.000 A 
ATOM     21  C   UNL     1      60.411  69.585  53.661  0.00  0.00    +0.000 A 
ATOM     22  C   UNL     1      60.036  70.317  53.614  0.00  0.00    +0.000 A 
ATOM     23  C   UNL     1      60.126  70.867  54.224  0.00  0.00    +0.000 A 
ATOM     24  C   UNL     1      59.751  71.599  54.177  0.00  0.00    +0.000 C 
ATOM     25  C   UNL     1      60.592  70.683  54.879  0.00  0.00    +0.000 A 
ATOM     26  C   UNL     1      60.967  69.949  54.925  0.00  0.00    +0.000 A 
ATOM     27  C   UNL     1      60.321  69.035  53.052  0.00  0.00    +0.000 A 
ATOM     28  O   UNL     1      59.855  69.220  52.395  0.00  0.00    +0.000 OA
ATOM     29  O   UNL     1      60.696  68.303  53.098  0.00  0.00    +0.000 OA
ENDROOT
TORSDOF 0
ENDMDL
