MODEL 1
REMARK VINA RESULT:   -16.708      0.000      0.000
REMARK INTER + INTRA:         -16.708
REMARK INTER:                 -16.708
REMARK INTRA:                   0.000
REMARK UNBOUND:                 0.000
ROOT
REMARK  Name = cetrorelix
REMARK                            x       y       z     vdW  Elec       q    Type
REMARK                         _______ _______ _______ _____ _____    ______ ____
ATOM      1  C   UNL     1      62.350  62.552  48.415  0.00  0.00    +0.000 C 
ATOM      2  C   UNL     1      62.333  62.508  49.239  0.00  0.00    +0.000 C 
ATOM      3  C   UNL     1      62.541  61.806  49.619  0.00  0.00    +0.000 C 
ATOM      4  C   UNL     1      62.108  63.166  49.682  0.00  0.00    +0.000 C 
ATOM      5  C   UNL     1      62.091  63.122  50.506  0.00  0.00    +0.000 C 
ATOM      6  N   UNL     1      61.865  63.780  50.949  0.00  0.00    +0.000 NA
ATOM      7  C   UNL     1      61.657  64.483  50.569  0.00  0.00    +0.000 C 
ATOM      8  O   UNL     1      61.674  64.526  49.746  0.00  0.00    +0.000 OA
ATOM      9  C   UNL     1      61.431  65.141  51.012  0.00  0.00    +0.000 C 
ATOM     10  C   UNL     1      61.414  65.097  51.836  0.00  0.00    +0.000 C 
ATOM     11  C   UNL     1      61.623  64.396  52.216  0.00  0.00    +0.000 C 
ATOM     12  C   UNL     1      61.605  64.352  53.040  0.00  0.00    +0.000 C 
ATOM     13  N   UNL     1      61.814  63.650  53.420  0.00  0.00    +0.000 NA
ATOM     14  C   UNL     1      61.797  63.606  54.244  0.00  0.00    +0.000 C 
ATOM     15  N   UNL     1      61.571  64.264  54.688  0.00  0.00    +0.000 NA
ATOM     16  O   UNL     1      62.005  62.905  54.625  0.00  0.00    +0.000 OA
ATOM     17  N   UNL     1      61.223  65.843  50.632  0.00  0.00    +0.000 NA
ATOM     18  C   UNL     1      60.997  66.501  51.076  0.00  0.00    +0.000 C 
ATOM     19  O   UNL     1      60.980  66.457  51.899  0.00  0.00    +0.000 OA
ATOM     20  C   UNL     1      60.789  67.203  50.695  0.00  0.00    +0.000 C 
ATOM     21  C   UNL     1      60.806  67.246  49.871  0.00  0.00    +0.000 C 
ATOM     22  C   UNL     1      61.032  66.588  49.427  0.00  0.00    +0.000 A 
ATOM     23  C   UNL     1      61.240  65.887  49.809  0.00  0.00    +0.000 A 
ATOM     24  C   UNL     1      61.466  65.228  49.365  0.00  0.00    +0.000 A 
ATOM     25  C   UNL     1      61.483  65.271  48.542  0.00  0.00    +0.000 A 
ATOM     26  O   UNL     1      61.708  64.613  48.098  0.00  0.00    +0.000 OA
ATOM     27  C   UNL     1      61.274  65.973  48.161  0.00  0.00    +0.000 A 
ATOM     28  C   UNL     1      61.049  66.632  48.604  0.00  0.00    +0.000 A 
ATOM     29  N   UNL     1      60.564  67.861  51.139  0.00  0.00    +0.000 NA
ATOM     30  C   UNL     1      60.355  68.562  50.757  0.00  0.00    +0.000 C 
ATOM     31  O   UNL     1      60.372  68.606  49.934  0.00  0.00    +0.000 OA
ATOM     32  CA  UNL     1      60.130  69.221  51.201  0.00  0.00    +0.000 C 
ATOM     33  C   UNL     1      60.113  69.178  52.025  0.00  0.00    +0.000 C 
ATOM     34  O   UNL     1      60.321  68.476  52.405  0.00  0.00    +0.000 OA
ATOM     35  N   UNL     1      59.921  69.923  50.821  0.00  0.00    +0.000 NA
ATOM     36  C   UNL     1      59.696  70.581  51.264  0.00  0.00    +0.000 C 
ATOM     37  O   UNL     1      59.679  70.537  52.087  0.00  0.00    +0.000 OA
ATOM     38  CA  UNL     1      59.488  71.283  50.884  0.00  0.00    +0.000 C 
ATOM     39  C   UNL     1      59.505  71.327  50.060  0.00  0.00    +0.000 C 
ATOM     40  C   UNL     1      59.730  70.669  49.617  0.00  0.00    +0.000 A 
ATOM     41  C   UNL     1      59.747  70.711  48.793  0.00  0.00    +0.000 A 
ATOM     42  N   UNL     1      59.973  70.053  48.350  0.00  0.00    +0.000 NA
ATOM     43  C   UNL     1      60.181  69.352  48.730  0.00  0.00    +0.000 A 
ATOM     44  C   UNL     1      60.164  69.308  49.554  0.00  0.00    +0.000 A 
ATOM     45  C   UNL     1      59.939  69.966  49.997  0.00  0.00    +0.000 A 
ATOM     46  N   UNL     1      59.262  71.941  51.327  0.00  0.00    +0.000 NA
ATOM     47  C   UNL     1      59.054  72.643  50.947  0.00  0.00    +0.000 C 
ATOM     48  O   UNL     1      59.071  72.686  50.123  0.00  0.00    +0.000 OA
ATOM     49  CA  UNL     1      58.828  73.302  51.390  0.00  0.00    +0.000 C 
ATOM     50  C   UNL     1      58.811  73.258  52.214  0.00  0.00    +0.000 C 
ATOM     51  C   UNL     1      59.020  72.556  52.594  0.00  0.00    +0.000 A 
ATOM     52  C   UNL     1      59.003  72.512  53.418  0.00  0.00    +0.000 A 
ATOM     53  C   UNL     1      59.211  71.811  53.798  0.00  0.00    +0.000 A 
ATOM     54  C   UNL     1      59.437  71.152  53.355  0.00  0.00    +0.000 A 
ATOM     55 CL   UNL     1      59.645  70.450  53.736  0.00  0.00    +0.000 Cl
ATOM     56  C   UNL     1      59.454  71.195  52.531  0.00  0.00    +0.000 A 
ATOM     57  C   UNL     1      59.245  71.897  52.151  0.00  0.00    +0.000 A 
ATOM     58  N   UNL     1      58.620  74.003  51.010  0.00  0.00    +0.000 NA
ATOM     59  C   UNL     1      58.395  74.661  51.453  0.00  0.00    +0.000 C 
ATOM     60  O   UNL     1      58.378  74.618  52.277  0.00  0.00    +0.000 OA
ATOM     61  CA  UNL     1      58.186  75.363  51.073  0.00  0.00    +0.000 C 
ATOM     62  C   UNL     1      58.203  75.407  50.250  0.00  0.00    +0.000 C 
ATOM     63  C   UNL     1      57.995  76.109  49.868  0.00  0.00    +0.000 A 
ATOM     64  C   UNL     1      58.012  76.152  49.045  0.00  0.00    +0.000 A 
ATOM     65  C   UNL     1      57.804  76.854  48.665  0.00  0.00    +0.000 A 
ATOM     66  C   UNL     1      57.578  77.512  49.108  0.00  0.00    +0.000 A 
ATOM     67  C   UNL     1      57.370  78.214  48.728  0.00  0.00    +0.000 A 
ATOM     68  C   UNL     1      57.145  78.872  49.171  0.00  0.00    +0.000 A 
ATOM     69  C   UNL     1      57.128  78.828  49.995  0.00  0.00    +0.000 A 
ATOM     70  C   UNL     1      57.336  78.126  50.375  0.00  0.00    +0.000 A 
ATOM     71  C   UNL     1      57.561  77.468  49.932  0.00  0.00    +0.000 A 
ATOM     72  C   UNL     1      57.770  76.767  50.312  0.00  0.00    +0.000 A 
ATOM     73  N   UNL     1      57.961  76.021  51.516  0.00  0.00    +0.000 NA
ATOM     74  C   UNL     1      57.944  75.977  52.340  0.00  0.00    +0.000 C 
ATOM     75  C   UNL     1      57.719  76.635  52.783  0.00  0.00    +0.000 C 
ATOM     76  O   UNL     1      58.152  75.276  52.720  0.00  0.00    +0.000 OA
ATOM     77  C   UNL     1      62.299  62.421  50.886  0.00  0.00    +0.000 C 
ATOM     78  O   UNL     1      62.282  62.377  51.710  0.00  0.00    +0.000 OA
ATOM     79  N   UNL     1      62.524  61.763  50.443  0.00  0.00    +0.000 NA
ATOM     80  C   UNL     1      62.733  61.061  50.823  0.00  0.00    +0.000 C 
ATOM     81  C   UNL     1      62.716  61.017  51.647  0.00  0.00    +0.000 C 
ATOM     82  C   UNL     1      62.924  60.315  52.028  0.00  0.00    +0.000 C 
ATOM     83  C   UNL     1      62.907  60.272  52.851  0.00  0.00    +0.000 C 
ATOM     84  N   UNL     1      63.115  59.570  53.231  0.00  0.00    +0.000 NA
ATOM     85  C   UNL     1      63.098  59.526  54.055  0.00  0.00    +0.000 C 
ATOM     86  N   UNL     1      63.307  58.824  54.435  0.00  0.00    +0.000 NA
ATOM     87  N   UNL     1      62.873  60.184  54.498  0.00  0.00    +0.000 NA
ATOM     88  C   UNL     1      62.958  60.403  50.380  0.00  0.00    +0.000 C 
ATOM     89  O   UNL     1      63.166  59.701  50.760  0.00  0.00    +0.000 OA
ATOM     90  N   UNL     1      62.975  60.446  49.556  0.00  0.00    +0.000 N 
ATOM     91  C   UNL     1      62.783  61.107  49.101  0.00  0.00    +0.000 C 
ATOM     92  C   UNL     1      62.876  60.906  48.307  0.00  0.00    +0.000 C 
ATOM     93  C   UNL     1      63.127  60.121  48.271  0.00  0.00    +0.000 C 
ATOM     94  C   UNL     1      63.188  59.836  49.043  0.00  0.00    +0.000 C 
ATOM     95  C   UNL     1      63.421  59.076  49.263  0.00  0.00    +0.000 C 
ATOM     96  O   UNL     1      63.618  58.522  48.684  0.00  0.00    +0.000 OA
ATOM     97  N   UNL     1      63.456  58.870  50.061  0.00  0.00    +0.000 NA
ATOM     98  C   UNL     1      63.689  58.110  50.281  0.00  0.00    +0.000 C 
ATOM     99  C   UNL     1      63.887  57.555  49.703  0.00  0.00    +0.000 C 
ATOM    100  C   UNL     1      63.724  57.904  51.079  0.00  0.00    +0.000 C 
ATOM    101  N   UNL     1      63.957  57.144  51.299  0.00  0.00    +0.000 NA
ATOM    102  O   UNL     1      63.527  58.458  51.657  0.00  0.00    +0.000 OA
ENDROOT
TORSDOF 0
ENDMDL
MODEL 2
REMARK VINA RESULT:   -16.160      1.771      3.924
REMARK INTER + INTRA:         -16.160
REMARK INTER:                 -16.160
REMARK INTRA:                   0.000
REMARK UNBOUND:                 0.000
ROOT
REMARK  Name = cetrorelix
REMARK                            x       y       z     vdW  Elec       q    Type
REMARK                         _______ _______ _______ _____ _____    ______ ____
ATOM      1  C   UNL     1      62.854  62.639  54.447  0.00  0.00    +0.000 C 
ATOM      2  C   UNL     1      62.656  62.652  53.646  0.00  0.00    +0.000 C 
ATOM      3  C   UNL     1      62.787  61.986  53.177  0.00  0.00    +0.000 C 
ATOM      4  C   UNL     1      62.327  63.332  53.314  0.00  0.00    +0.000 C 
ATOM      5  C   UNL     1      62.129  63.345  52.513  0.00  0.00    +0.000 C 
ATOM      6  N   UNL     1      61.800  64.024  52.181  0.00  0.00    +0.000 NA
ATOM      7  C   UNL     1      61.668  64.692  52.649  0.00  0.00    +0.000 C 
ATOM      8  O   UNL     1      61.866  64.677  53.450  0.00  0.00    +0.000 OA
ATOM      9  C   UNL     1      61.339  65.371  52.318  0.00  0.00    +0.000 C 
ATOM     10  C   UNL     1      61.141  65.384  51.516  0.00  0.00    +0.000 C 
ATOM     11  C   UNL     1      61.273  64.718  51.048  0.00  0.00    +0.000 C 
ATOM     12  C   UNL     1      61.075  64.732  50.246  0.00  0.00    +0.000 C 
ATOM     13  N   UNL     1      61.206  64.066  49.778  0.00  0.00    +0.000 NA
ATOM     14  C   UNL     1      61.009  64.079  48.978  0.00  0.00    +0.000 C 
ATOM     15  N   UNL     1      60.679  64.759  48.645  0.00  0.00    +0.000 NA
ATOM     16  O   UNL     1      61.140  63.413  48.508  0.00  0.00    +0.000 OA
ATOM     17  N   UNL     1      61.208  66.037  52.786  0.00  0.00    +0.000 NA
ATOM     18  C   UNL     1      60.878  66.717  52.453  0.00  0.00    +0.000 C 
ATOM     19  O   UNL     1      60.681  66.730  51.653  0.00  0.00    +0.000 OA
ATOM     20  C   UNL     1      60.747  67.382  52.923  0.00  0.00    +0.000 C 
ATOM     21  C   UNL     1      60.945  67.369  53.723  0.00  0.00    +0.000 C 
ATOM     22  C   UNL     1      61.274  66.690  54.056  0.00  0.00    +0.000 A 
ATOM     23  C   UNL     1      61.405  66.024  53.586  0.00  0.00    +0.000 A 
ATOM     24  C   UNL     1      61.735  65.343  53.919  0.00  0.00    +0.000 A 
ATOM     25  C   UNL     1      61.932  65.330  54.719  0.00  0.00    +0.000 A 
ATOM     26  O   UNL     1      62.262  64.650  55.052  0.00  0.00    +0.000 OA
ATOM     27  C   UNL     1      61.801  65.996  55.188  0.00  0.00    +0.000 A 
ATOM     28  C   UNL     1      61.472  66.676  54.856  0.00  0.00    +0.000 A 
ATOM     29  N   UNL     1      60.418  68.062  52.590  0.00  0.00    +0.000 NA
ATOM     30  C   UNL     1      60.287  68.728  53.059  0.00  0.00    +0.000 C 
ATOM     31  O   UNL     1      60.484  68.715  53.859  0.00  0.00    +0.000 OA
ATOM     32  CA  UNL     1      59.957  69.408  52.726  0.00  0.00    +0.000 C 
ATOM     33  C   UNL     1      59.760  69.422  51.926  0.00  0.00    +0.000 C 
ATOM     34  O   UNL     1      59.891  68.756  51.458  0.00  0.00    +0.000 OA
ATOM     35  N   UNL     1      59.826  70.075  53.195  0.00  0.00    +0.000 NA
ATOM     36  C   UNL     1      59.497  70.754  52.863  0.00  0.00    +0.000 C 
ATOM     37  O   UNL     1      59.299  70.767  52.063  0.00  0.00    +0.000 OA
ATOM     38  CA  UNL     1      59.365  71.420  53.331  0.00  0.00    +0.000 C 
ATOM     39  C   UNL     1      59.563  71.407  54.133  0.00  0.00    +0.000 C 
ATOM     40  C   UNL     1      59.892  70.727  54.465  0.00  0.00    +0.000 A 
ATOM     41  C   UNL     1      60.090  70.713  55.266  0.00  0.00    +0.000 A 
ATOM     42  N   UNL     1      60.419  70.033  55.598  0.00  0.00    +0.000 NA
ATOM     43  C   UNL     1      60.551  69.367  55.129  0.00  0.00    +0.000 A 
ATOM     44  C   UNL     1      60.353  69.381  54.328  0.00  0.00    +0.000 A 
ATOM     45  C   UNL     1      60.024  70.060  53.996  0.00  0.00    +0.000 A 
ATOM     46  N   UNL     1      59.036  72.099  52.999  0.00  0.00    +0.000 NA
ATOM     47  C   UNL     1      58.905  72.766  53.468  0.00  0.00    +0.000 C 
ATOM     48  O   UNL     1      59.103  72.752  54.269  0.00  0.00    +0.000 OA
ATOM     49  CA  UNL     1      58.575  73.446  53.136  0.00  0.00    +0.000 C 
ATOM     50  C   UNL     1      58.378  73.459  52.335  0.00  0.00    +0.000 C 
ATOM     51  C   UNL     1      58.509  72.793  51.867  0.00  0.00    +0.000 A 
ATOM     52  C   UNL     1      58.311  72.807  51.065  0.00  0.00    +0.000 A 
ATOM     53  C   UNL     1      58.443  72.141  50.597  0.00  0.00    +0.000 A 
ATOM     54  C   UNL     1      58.772  71.460  50.929  0.00  0.00    +0.000 A 
ATOM     55 CL   UNL     1      58.903  70.794  50.460  0.00  0.00    +0.000 Cl
ATOM     56  C   UNL     1      58.970  71.447  51.730  0.00  0.00    +0.000 A 
ATOM     57  C   UNL     1      58.838  72.113  52.198  0.00  0.00    +0.000 A 
ATOM     58  N   UNL     1      58.444  74.112  53.605  0.00  0.00    +0.000 NA
ATOM     59  C   UNL     1      58.115  74.791  53.273  0.00  0.00    +0.000 C 
ATOM     60  O   UNL     1      57.917  74.805  52.471  0.00  0.00    +0.000 OA
ATOM     61  CA  UNL     1      57.983  75.457  53.741  0.00  0.00    +0.000 C 
ATOM     62  C   UNL     1      58.181  75.444  54.542  0.00  0.00    +0.000 C 
ATOM     63  C   UNL     1      58.050  76.110  55.011  0.00  0.00    +0.000 A 
ATOM     64  C   UNL     1      58.247  76.097  55.811  0.00  0.00    +0.000 A 
ATOM     65  C   UNL     1      58.116  76.763  56.280  0.00  0.00    +0.000 A 
ATOM     66  C   UNL     1      57.787  77.442  55.948  0.00  0.00    +0.000 A 
ATOM     67  C   UNL     1      57.656  78.108  56.416  0.00  0.00    +0.000 A 
ATOM     68  C   UNL     1      57.327  78.788  56.084  0.00  0.00    +0.000 A 
ATOM     69  C   UNL     1      57.129  78.801  55.283  0.00  0.00    +0.000 A 
ATOM     70  C   UNL     1      57.260  78.135  54.815  0.00  0.00    +0.000 A 
ATOM     71  C   UNL     1      57.589  77.456  55.147  0.00  0.00    +0.000 A 
ATOM     72  C   UNL     1      57.721  76.790  54.678  0.00  0.00    +0.000 A 
ATOM     73  N   UNL     1      57.654  76.137  53.409  0.00  0.00    +0.000 NA
ATOM     74  C   UNL     1      57.457  76.150  52.608  0.00  0.00    +0.000 C 
ATOM     75  C   UNL     1      57.128  76.830  52.276  0.00  0.00    +0.000 C 
ATOM     76  O   UNL     1      57.588  75.484  52.140  0.00  0.00    +0.000 OA
ATOM     77  C   UNL     1      62.260  62.679  52.044  0.00  0.00    +0.000 C 
ATOM     78  O   UNL     1      62.062  62.692  51.243  0.00  0.00    +0.000 OA
ATOM     79  N   UNL     1      62.589  62.000  52.376  0.00  0.00    +0.000 NA
ATOM     80  C   UNL     1      62.721  61.334  51.908  0.00  0.00    +0.000 C 
ATOM     81  C   UNL     1      62.523  61.347  51.106  0.00  0.00    +0.000 C 
ATOM     82  C   UNL     1      62.654  60.681  50.638  0.00  0.00    +0.000 C 
ATOM     83  C   UNL     1      62.457  60.694  49.838  0.00  0.00    +0.000 C 
ATOM     84  N   UNL     1      62.588  60.028  49.369  0.00  0.00    +0.000 NA
ATOM     85  C   UNL     1      62.390  60.042  48.568  0.00  0.00    +0.000 C 
ATOM     86  N   UNL     1      62.522  59.375  48.099  0.00  0.00    +0.000 NA
ATOM     87  N   UNL     1      62.061  60.721  48.236  0.00  0.00    +0.000 NA
ATOM     88  C   UNL     1      63.050  60.654  52.240  0.00  0.00    +0.000 C 
ATOM     89  O   UNL     1      63.181  59.988  51.771  0.00  0.00    +0.000 OA
ATOM     90  N   UNL     1      63.248  60.641  53.041  0.00  0.00    +0.000 N 
ATOM     91  C   UNL     1      63.149  61.260  53.576  0.00  0.00    +0.000 C 
ATOM     92  C   UNL     1      63.419  61.008  54.313  0.00  0.00    +0.000 C 
ATOM     93  C   UNL     1      63.685  60.231  54.233  0.00  0.00    +0.000 C 
ATOM     94  C   UNL     1      63.579  60.004  53.447  0.00  0.00    +0.000 C 
ATOM     95  C   UNL     1      63.771  59.269  53.125  0.00  0.00    +0.000 C 
ATOM     96  O   UNL     1      64.101  58.682  53.603  0.00  0.00    +0.000 OA
ATOM     97  N   UNL     1      63.633  59.120  52.326  0.00  0.00    +0.000 NA
ATOM     98  C   UNL     1      63.824  58.386  52.003  0.00  0.00    +0.000 C 
ATOM     99  C   UNL     1      64.154  57.799  52.480  0.00  0.00    +0.000 C 
ATOM    100  C   UNL     1      63.686  58.237  51.203  0.00  0.00    +0.000 C 
ATOM    101  N   UNL     1      63.878  57.503  50.881  0.00  0.00    +0.000 NA
ATOM    102  O   UNL     1      63.356  58.824  50.726  0.00  0.00    +0.000 OA
ENDROOT
TORSDOF 0
ENDMDL
MODEL 3
REMARK VINA RESULT:   -14.795      2.006      2.299
REMARK INTER + INTRA:         -14.795
REMARK INTER:                 -14.795
REMARK INTRA:                   0.000
REMARK UNBOUND:                 0.000
ROOT
REMARK  Name = cetrorelix
REMARK                            x       y       z     vdW  Elec       q    Type
REMARK                         _______ _______ _______ _____ _____    ______ ____
ATOM      1  C   UNL     1      63.990  63.182  48.811  0.00  0.00    +0.000 C 
ATOM      2  C   UNL     1      63.247  62.997  49.120  0.00  0.00    +0.000 C 
ATOM      3  C   UNL     1      63.044  62.211  49.261  0.00  0.00    +0.000 C 
ATOM      4  C   UNL     1      62.709  63.599  49.286  0.00  0.00    +0.000 C 
ATOM      5  C   UNL     1      61.965  63.414  49.594  0.00  0.00    +0.000 C 
ATOM      6  N   UNL     1      61.427  64.016  49.760  0.00  0.00    +0.000 NA
ATOM      7  C   UNL     1      61.630  64.804  49.618  0.00  0.00    +0.000 C 
ATOM      8  O   UNL     1      62.372  64.988  49.310  0.00  0.00    +0.000 OA
ATOM      9  C   UNL     1      61.092  65.406  49.784  0.00  0.00    +0.000 C 
ATOM     10  C   UNL     1      60.348  65.221  50.093  0.00  0.00    +0.000 C 
ATOM     11  C   UNL     1      60.145  64.434  50.234  0.00  0.00    +0.000 C 
ATOM     12  C   UNL     1      59.402  64.249  50.543  0.00  0.00    +0.000 C 
ATOM     13  N   UNL     1      59.198  63.463  50.685  0.00  0.00    +0.000 NA
ATOM     14  C   UNL     1      58.456  63.278  50.993  0.00  0.00    +0.000 C 
ATOM     15  N   UNL     1      57.917  63.880  51.159  0.00  0.00    +0.000 NA
ATOM     16  O   UNL     1      58.252  62.491  51.135  0.00  0.00    +0.000 OA
ATOM     17  N   UNL     1      61.295  66.192  49.642  0.00  0.00    +0.000 NA
ATOM     18  C   UNL     1      60.755  66.794  49.809  0.00  0.00    +0.000 C 
ATOM     19  O   UNL     1      60.013  66.609  50.117  0.00  0.00    +0.000 OA
ATOM     20  C   UNL     1      60.960  67.581  49.667  0.00  0.00    +0.000 C 
ATOM     21  C   UNL     1      61.702  67.766  49.359  0.00  0.00    +0.000 C 
ATOM     22  C   UNL     1      62.242  67.164  49.192  0.00  0.00    +0.000 A 
ATOM     23  C   UNL     1      62.037  66.377  49.334  0.00  0.00    +0.000 A 
ATOM     24  C   UNL     1      62.577  65.774  49.168  0.00  0.00    +0.000 A 
ATOM     25  C   UNL     1      63.319  65.959  48.860  0.00  0.00    +0.000 A 
ATOM     26  O   UNL     1      63.859  65.357  48.694  0.00  0.00    +0.000 OA
ATOM     27  C   UNL     1      63.523  66.746  48.718  0.00  0.00    +0.000 A 
ATOM     28  C   UNL     1      62.984  67.349  48.884  0.00  0.00    +0.000 A 
ATOM     29  N   UNL     1      60.420  68.183  49.833  0.00  0.00    +0.000 NA
ATOM     30  C   UNL     1      60.625  68.969  49.691  0.00  0.00    +0.000 C 
ATOM     31  O   UNL     1      61.367  69.154  49.383  0.00  0.00    +0.000 OA
ATOM     32  CA  UNL     1      60.085  69.572  49.857  0.00  0.00    +0.000 C 
ATOM     33  C   UNL     1      59.343  69.388  50.165  0.00  0.00    +0.000 C 
ATOM     34  O   UNL     1      59.139  68.601  50.307  0.00  0.00    +0.000 OA
ATOM     35  N   UNL     1      60.289  70.359  49.715  0.00  0.00    +0.000 NA
ATOM     36  C   UNL     1      59.750  70.961  49.881  0.00  0.00    +0.000 C 
ATOM     37  O   UNL     1      59.008  70.776  50.189  0.00  0.00    +0.000 OA
ATOM     38  CA  UNL     1      59.953  71.748  49.739  0.00  0.00    +0.000 C 
ATOM     39  C   UNL     1      60.696  71.932  49.431  0.00  0.00    +0.000 C 
ATOM     40  C   UNL     1      61.235  71.330  49.265  0.00  0.00    +0.000 A 
ATOM     41  C   UNL     1      61.978  71.514  48.957  0.00  0.00    +0.000 A 
ATOM     42  N   UNL     1      62.517  70.912  48.791  0.00  0.00    +0.000 NA
ATOM     43  C   UNL     1      62.313  70.126  48.933  0.00  0.00    +0.000 A 
ATOM     44  C   UNL     1      61.570  69.941  49.241  0.00  0.00    +0.000 A 
ATOM     45  C   UNL     1      61.032  70.543  49.407  0.00  0.00    +0.000 A 
ATOM     46  N   UNL     1      59.415  72.349  49.906  0.00  0.00    +0.000 NA
ATOM     47  C   UNL     1      59.618  73.136  49.764  0.00  0.00    +0.000 C 
ATOM     48  O   UNL     1      60.361  73.321  49.455  0.00  0.00    +0.000 OA
ATOM     49  CA  UNL     1      59.080  73.739  49.930  0.00  0.00    +0.000 C 
ATOM     50  C   UNL     1      58.336  73.554  50.238  0.00  0.00    +0.000 C 
ATOM     51  C   UNL     1      58.133  72.767  50.380  0.00  0.00    +0.000 A 
ATOM     52  C   UNL     1      57.390  72.583  50.688  0.00  0.00    +0.000 A 
ATOM     53  C   UNL     1      57.186  71.796  50.830  0.00  0.00    +0.000 A 
ATOM     54  C   UNL     1      57.726  71.193  50.664  0.00  0.00    +0.000 A 
ATOM     55 CL   UNL     1      57.522  70.406  50.806  0.00  0.00    +0.000 Cl
ATOM     56  C   UNL     1      58.468  71.378  50.356  0.00  0.00    +0.000 A 
ATOM     57  C   UNL     1      58.672  72.165  50.214  0.00  0.00    +0.000 A 
ATOM     58  N   UNL     1      59.283  74.526  49.788  0.00  0.00    +0.000 NA
ATOM     59  C   UNL     1      58.744  75.128  49.954  0.00  0.00    +0.000 C 
ATOM     60  O   UNL     1      58.001  74.943  50.262  0.00  0.00    +0.000 OA
ATOM     61  CA  UNL     1      58.948  75.914  49.812  0.00  0.00    +0.000 C 
ATOM     62  C   UNL     1      59.690  76.099  49.504  0.00  0.00    +0.000 C 
ATOM     63  C   UNL     1      59.894  76.886  49.362  0.00  0.00    +0.000 A 
ATOM     64  C   UNL     1      60.637  77.070  49.054  0.00  0.00    +0.000 A 
ATOM     65  C   UNL     1      60.840  77.857  48.912  0.00  0.00    +0.000 A 
ATOM     66  C   UNL     1      60.301  78.459  49.078  0.00  0.00    +0.000 A 
ATOM     67  C   UNL     1      60.505  79.246  48.936  0.00  0.00    +0.000 A 
ATOM     68  C   UNL     1      59.966  79.848  49.102  0.00  0.00    +0.000 A 
ATOM     69  C   UNL     1      59.223  79.663  49.411  0.00  0.00    +0.000 A 
ATOM     70  C   UNL     1      59.020  78.876  49.552  0.00  0.00    +0.000 A 
ATOM     71  C   UNL     1      59.558  78.274  49.386  0.00  0.00    +0.000 A 
ATOM     72  C   UNL     1      59.355  77.488  49.528  0.00  0.00    +0.000 A 
ATOM     73  N   UNL     1      58.409  76.516  49.978  0.00  0.00    +0.000 NA
ATOM     74  C   UNL     1      57.666  76.331  50.286  0.00  0.00    +0.000 C 
ATOM     75  C   UNL     1      57.128  76.933  50.453  0.00  0.00    +0.000 C 
ATOM     76  O   UNL     1      57.463  75.545  50.428  0.00  0.00    +0.000 OA
ATOM     77  C   UNL     1      61.762  62.628  49.736  0.00  0.00    +0.000 C 
ATOM     78  O   UNL     1      61.019  62.443  50.044  0.00  0.00    +0.000 OA
ATOM     79  N   UNL     1      62.301  62.026  49.570  0.00  0.00    +0.000 NA
ATOM     80  C   UNL     1      62.097  61.239  49.712  0.00  0.00    +0.000 C 
ATOM     81  C   UNL     1      61.354  61.054  50.020  0.00  0.00    +0.000 C 
ATOM     82  C   UNL     1      61.150  60.267  50.162  0.00  0.00    +0.000 C 
ATOM     83  C   UNL     1      60.408  60.083  50.470  0.00  0.00    +0.000 C 
ATOM     84  N   UNL     1      60.205  59.296  50.612  0.00  0.00    +0.000 NA
ATOM     85  C   UNL     1      59.462  59.111  50.920  0.00  0.00    +0.000 C 
ATOM     86  N   UNL     1      59.258  58.325  51.062  0.00  0.00    +0.000 NA
ATOM     87  N   UNL     1      58.923  59.713  51.086  0.00  0.00    +0.000 NA
ATOM     88  C   UNL     1      62.636  60.637  49.546  0.00  0.00    +0.000 C 
ATOM     89  O   UNL     1      62.432  59.850  49.687  0.00  0.00    +0.000 OA
ATOM     90  N   UNL     1      63.379  60.822  49.237  0.00  0.00    +0.000 N 
ATOM     91  C   UNL     1      63.659  61.578  49.067  0.00  0.00    +0.000 C 
ATOM     92  C   UNL     1      64.425  61.506  48.770  0.00  0.00    +0.000 C 
ATOM     93  C   UNL     1      64.618  60.705  48.756  0.00  0.00    +0.000 C 
ATOM     94  C   UNL     1      63.972  60.281  49.045  0.00  0.00    +0.000 C 
ATOM     95  C   UNL     1      63.927  59.461  49.127  0.00  0.00    +0.000 C 
ATOM     96  O   UNL     1      64.567  58.989  48.910  0.00  0.00    +0.000 OA
ATOM     97  N   UNL     1      63.241  59.114  49.425  0.00  0.00    +0.000 NA
ATOM     98  C   UNL     1      63.194  58.294  49.507  0.00  0.00    +0.000 C 
ATOM     99  C   UNL     1      63.835  57.822  49.291  0.00  0.00    +0.000 C 
ATOM    100  C   UNL     1      62.508  57.947  49.806  0.00  0.00    +0.000 C 
ATOM    101  N   UNL     1      62.463  57.128  49.888  0.00  0.00    +0.000 NA
ATOM    102  O   UNL     1      61.868  58.420  50.022  0.00  0.00    +0.000 OA
ENDROOT
TORSDOF 0
ENDMDL
