MODEL 1
REMARK VINA RESULT:    -9.876      0.000      0.000
REMARK INTER + INTRA:          -9.876
REMARK INTER:                  -9.876
REMARK INTRA:                   0.000
REMARK UNBOUND:                 0.000
ROOT
REMARK  Name = chlorambucil
REMARK                            x       y       z     vdW  Elec       q    Type
REMARK                         _______ _______ _______ _____ _____    ______ ____
ATOM      1  O   UNL     1      61.265  60.891  63.101  0.00  0.00    +0.000 OA
ATOM      2  C   UNL     1      61.437  61.284  63.804  0.00  0.00    +0.000 C 
ATOM      3  O   UNL     1      62.174  61.642  63.907  0.00  0.00    +0.000 OA
ATOM      4  C   UNL     1      60.874  61.320  64.406  0.00  0.00    +0.000 C 
ATOM      5  C   UNL     1      61.046  61.714  65.110  0.00  0.00    +0.000 C 
ATOM      6  C   UNL     1      60.483  61.749  65.711  0.00  0.00    +0.000 C 
ATOM      7  C   UNL     1      60.655  62.144  66.416  0.00  0.00    +0.000 A 
ATOM      8  C   UNL     1      60.091  62.179  67.017  0.00  0.00    +0.000 A 
ATOM      9  C   UNL     1      60.263  62.573  67.721  0.00  0.00    +0.000 A 
ATOM     10  C   UNL     1      61.000  62.931  67.824  0.00  0.00    +0.000 A 
ATOM     11  C   UNL     1      61.564  62.895  67.223  0.00  0.00    +0.000 A 
ATOM     12  C   UNL     1      61.391  62.501  66.518  0.00  0.00    +0.000 A 
ATOM     13  N   UNL     1      61.172  63.324  68.528  0.00  0.00    +0.000 N 
ATOM     14  C   UNL     1      60.608  63.360  69.129  0.00  0.00    +0.000 C 
ATOM     15  C   UNL     1      60.781  63.753  69.834  0.00  0.00    +0.000 C 
ATOM     16 CL   UNL     1      60.216  63.789  70.435  0.00  0.00    +0.000 Cl
ATOM     17  C   UNL     1      61.908  63.682  68.631  0.00  0.00    +0.000 C 
ATOM     18  C   UNL     1      62.081  64.076  69.335  0.00  0.00    +0.000 C 
ATOM     19 CL   UNL     1      62.816  64.433  69.438  0.00  0.00    +0.000 Cl
ENDROOT
TORSDOF 0
ENDMDL
MODEL 2
REMARK VINA RESULT:    -9.566      4.930      6.019
REMARK INTER + INTRA:          -9.566
REMARK INTER:                  -9.566
REMARK INTRA:                   0.000
REMARK UNBOUND:                 0.000
ROOT
REMARK  Name = chlorambucil
REMARK                            x       y       z     vdW  Elec       q    Type
REMARK                         _______ _______ _______ _____ _____    ______ ____
ATOM      1  O   UNL     1      66.345  67.875  70.027  0.00  0.00    +0.000 OA
ATOM      2  C   UNL     1      65.780  67.360  70.336  0.00  0.00    +0.000 C 
ATOM      3  O   UNL     1      65.620  67.361  71.146  0.00  0.00    +0.000 OA
ATOM      4  C   UNL     1      65.374  66.844  69.837  0.00  0.00    +0.000 C 
ATOM      5  C   UNL     1      64.809  66.329  70.146  0.00  0.00    +0.000 C 
ATOM      6  C   UNL     1      64.404  65.813  69.647  0.00  0.00    +0.000 C 
ATOM      7  C   UNL     1      63.838  65.298  69.957  0.00  0.00    +0.000 A 
ATOM      8  C   UNL     1      63.433  64.782  69.456  0.00  0.00    +0.000 A 
ATOM      9  C   UNL     1      62.868  64.267  69.766  0.00  0.00    +0.000 A 
ATOM     10  C   UNL     1      62.708  64.267  70.576  0.00  0.00    +0.000 A 
ATOM     11  C   UNL     1      63.114  64.783  71.075  0.00  0.00    +0.000 A 
ATOM     12  C   UNL     1      63.679  65.298  70.765  0.00  0.00    +0.000 A 
ATOM     13  N   UNL     1      62.144  63.752  70.885  0.00  0.00    +0.000 N 
ATOM     14  C   UNL     1      61.738  63.236  70.385  0.00  0.00    +0.000 C 
ATOM     15  C   UNL     1      61.172  62.721  70.694  0.00  0.00    +0.000 C 
ATOM     16 CL   UNL     1      60.767  62.205  70.194  0.00  0.00    +0.000 Cl
ATOM     17  C   UNL     1      61.984  63.753  71.694  0.00  0.00    +0.000 C 
ATOM     18  C   UNL     1      61.419  63.237  72.004  0.00  0.00    +0.000 C 
ATOM     19 CL   UNL     1      61.259  63.238  72.812  0.00  0.00    +0.000 Cl
ENDROOT
TORSDOF 0
ENDMDL
MODEL 3
REMARK VINA RESULT:    -9.540      3.249      4.772
REMARK INTER + INTRA:          -9.540
REMARK INTER:                  -9.540
REMARK INTRA:                   0.000
REMARK UNBOUND:                 0.000
ROOT
REMARK  Name = chlorambucil
REMARK                            x       y       z     vdW  Elec       q    Type
REMARK                         _______ _______ _______ _____ _____    ______ ____
ATOM      1  O   UNL     1      61.118  64.546  71.168  0.00  0.00    +0.000 OA
ATOM      2  C   UNL     1      61.293  64.316  70.397  0.00  0.00    +0.000 C 
ATOM      3  O   UNL     1      61.952  64.630  70.011  0.00  0.00    +0.000 OA
ATOM      4  C   UNL     1      60.810  63.772  70.008  0.00  0.00    +0.000 C 
ATOM      5  C   UNL     1      60.985  63.542  69.236  0.00  0.00    +0.000 C 
ATOM      6  C   UNL     1      60.501  62.998  68.848  0.00  0.00    +0.000 C 
ATOM      7  C   UNL     1      60.676  62.768  68.075  0.00  0.00    +0.000 A 
ATOM      8  C   UNL     1      60.192  62.223  67.687  0.00  0.00    +0.000 A 
ATOM      9  C   UNL     1      60.367  61.993  66.915  0.00  0.00    +0.000 A 
ATOM     10  C   UNL     1      61.026  62.307  66.529  0.00  0.00    +0.000 A 
ATOM     11  C   UNL     1      61.509  62.852  66.918  0.00  0.00    +0.000 A 
ATOM     12  C   UNL     1      61.334  63.082  67.690  0.00  0.00    +0.000 A 
ATOM     13  N   UNL     1      61.201  62.078  65.758  0.00  0.00    +0.000 N 
ATOM     14  C   UNL     1      60.716  61.533  65.369  0.00  0.00    +0.000 C 
ATOM     15  C   UNL     1      60.891  61.303  64.597  0.00  0.00    +0.000 C 
ATOM     16 CL   UNL     1      60.407  60.758  64.209  0.00  0.00    +0.000 Cl
ATOM     17  C   UNL     1      61.859  62.391  65.372  0.00  0.00    +0.000 C 
ATOM     18  C   UNL     1      62.034  62.161  64.599  0.00  0.00    +0.000 C 
ATOM     19 CL   UNL     1      62.692  62.475  64.215  0.00  0.00    +0.000 Cl
ENDROOT
TORSDOF 0
ENDMDL
MODEL 4
REMARK VINA RESULT:    -9.477      1.293      1.693
REMARK INTER + INTRA:          -9.477
REMARK INTER:                  -9.477
REMARK INTRA:                   0.000
REMARK UNBOUND:                 0.000
ROOT
REMARK  Name = chlorambucil
REMARK                            x       y       z     vdW  Elec       q    Type
REMARK                         _______ _______ _______ _____ _____    ______ ____
ATOM      1  O   UNL     1      62.118  61.627  64.378  0.00  0.00    +0.000 OA
ATOM      2  C   UNL     1      61.903  62.090  65.024  0.00  0.00    +0.000 C 
ATOM      3  O   UNL     1      61.894  62.913  64.957  0.00  0.00    +0.000 OA
ATOM      4  C   UNL     1      61.698  61.733  65.739  0.00  0.00    +0.000 C 
ATOM      5  C   UNL     1      61.484  62.197  66.386  0.00  0.00    +0.000 C 
ATOM      6  C   UNL     1      61.279  61.839  67.100  0.00  0.00    +0.000 C 
ATOM      7  C   UNL     1      61.064  62.304  67.748  0.00  0.00    +0.000 A 
ATOM      8  C   UNL     1      60.859  61.945  68.462  0.00  0.00    +0.000 A 
ATOM      9  C   UNL     1      60.644  62.410  69.110  0.00  0.00    +0.000 A 
ATOM     10  C   UNL     1      60.635  63.232  69.043  0.00  0.00    +0.000 A 
ATOM     11  C   UNL     1      60.840  63.590  68.328  0.00  0.00    +0.000 A 
ATOM     12  C   UNL     1      61.054  63.126  67.681  0.00  0.00    +0.000 A 
ATOM     13  N   UNL     1      60.420  63.696  69.689  0.00  0.00    +0.000 N 
ATOM     14  C   UNL     1      60.215  63.338  70.404  0.00  0.00    +0.000 C 
ATOM     15  C   UNL     1      60.000  63.802  71.052  0.00  0.00    +0.000 C 
ATOM     16 CL   UNL     1      59.795  63.443  71.766  0.00  0.00    +0.000 Cl
ATOM     17  C   UNL     1      60.410  64.518  69.623  0.00  0.00    +0.000 C 
ATOM     18  C   UNL     1      60.196  64.982  70.270  0.00  0.00    +0.000 C 
ATOM     19 CL   UNL     1      60.186  65.804  70.203  0.00  0.00    +0.000 Cl
ENDROOT
TORSDOF 0
ENDMDL
MODEL 5
REMARK VINA RESULT:    -9.195      4.683      5.972
REMARK INTER + INTRA:          -9.195
REMARK INTER:                  -9.195
REMARK INTRA:                   0.000
REMARK UNBOUND:                 0.000
ROOT
REMARK  Name = chlorambucil
REMARK                            x       y       z     vdW  Elec       q    Type
REMARK                         _______ _______ _______ _____ _____    ______ ____
ATOM      1  O   UNL     1      60.730  62.356  70.478  0.00  0.00    +0.000 OA
ATOM      2  C   UNL     1      61.370  62.835  70.680  0.00  0.00    +0.000 C 
ATOM      3  O   UNL     1      61.737  62.745  71.414  0.00  0.00    +0.000 OA
ATOM      4  C   UNL     1      61.644  63.403  70.149  0.00  0.00    +0.000 C 
ATOM      5  C   UNL     1      62.285  63.882  70.351  0.00  0.00    +0.000 C 
ATOM      6  C   UNL     1      62.559  64.450  69.820  0.00  0.00    +0.000 C 
ATOM      7  C   UNL     1      63.200  64.929  70.022  0.00  0.00    +0.000 A 
ATOM      8  C   UNL     1      63.474  65.498  69.490  0.00  0.00    +0.000 A 
ATOM      9  C   UNL     1      64.114  65.976  69.692  0.00  0.00    +0.000 A 
ATOM     10  C   UNL     1      64.481  65.887  70.426  0.00  0.00    +0.000 A 
ATOM     11  C   UNL     1      64.207  65.319  70.957  0.00  0.00    +0.000 A 
ATOM     12  C   UNL     1      63.566  64.840  70.755  0.00  0.00    +0.000 A 
ATOM     13  N   UNL     1      65.121  66.366  70.628  0.00  0.00    +0.000 N 
ATOM     14  C   UNL     1      65.396  66.934  70.096  0.00  0.00    +0.000 C 
ATOM     15  C   UNL     1      66.036  67.413  70.299  0.00  0.00    +0.000 C 
ATOM     16 CL   UNL     1      66.310  67.982  69.766  0.00  0.00    +0.000 Cl
ATOM     17  C   UNL     1      65.488  66.277  71.362  0.00  0.00    +0.000 C 
ATOM     18  C   UNL     1      66.129  66.756  71.564  0.00  0.00    +0.000 C 
ATOM     19 CL   UNL     1      66.495  66.666  72.297  0.00  0.00    +0.000 Cl
ENDROOT
TORSDOF 0
ENDMDL
MODEL 6
REMARK VINA RESULT:    -9.154      3.444      5.270
REMARK INTER + INTRA:          -9.154
REMARK INTER:                  -9.154
REMARK INTRA:                   0.000
REMARK UNBOUND:                 0.000
ROOT
REMARK  Name = chlorambucil
REMARK                            x       y       z     vdW  Elec       q    Type
REMARK                         _______ _______ _______ _____ _____    ______ ____
ATOM      1  O   UNL     1      60.195  64.456  72.719  0.00  0.00    +0.000 OA
ATOM      2  C   UNL     1      60.100  64.159  71.957  0.00  0.00    +0.000 C 
ATOM      3  O   UNL     1      59.379  63.826  71.730  0.00  0.00    +0.000 OA
ATOM      4  C   UNL     1      60.724  64.194  71.419  0.00  0.00    +0.000 C 
ATOM      5  C   UNL     1      60.629  63.897  70.655  0.00  0.00    +0.000 C 
ATOM      6  C   UNL     1      61.253  63.933  70.118  0.00  0.00    +0.000 C 
ATOM      7  C   UNL     1      61.158  63.635  69.354  0.00  0.00    +0.000 A 
ATOM      8  C   UNL     1      61.783  63.670  68.817  0.00  0.00    +0.000 A 
ATOM      9  C   UNL     1      61.688  63.373  68.053  0.00  0.00    +0.000 A 
ATOM     10  C   UNL     1      60.967  63.040  67.826  0.00  0.00    +0.000 A 
ATOM     11  C   UNL     1      60.343  63.005  68.364  0.00  0.00    +0.000 A 
ATOM     12  C   UNL     1      60.438  63.302  69.128  0.00  0.00    +0.000 A 
ATOM     13  N   UNL     1      60.872  62.743  67.064  0.00  0.00    +0.000 N 
ATOM     14  C   UNL     1      61.497  62.778  66.526  0.00  0.00    +0.000 C 
ATOM     15  C   UNL     1      61.402  62.481  65.762  0.00  0.00    +0.000 C 
ATOM     16 CL   UNL     1      62.027  62.517  65.225  0.00  0.00    +0.000 Cl
ATOM     17  C   UNL     1      60.152  62.410  66.837  0.00  0.00    +0.000 C 
ATOM     18  C   UNL     1      60.057  62.113  66.073  0.00  0.00    +0.000 C 
ATOM     19 CL   UNL     1      59.337  61.781  65.848  0.00  0.00    +0.000 Cl
ENDROOT
TORSDOF 0
ENDMDL
MODEL 7
REMARK VINA RESULT:    -8.868      4.486      5.521
REMARK INTER + INTRA:          -8.868
REMARK INTER:                  -8.868
REMARK INTRA:                   0.000
REMARK UNBOUND:                 0.000
ROOT
REMARK  Name = chlorambucil
REMARK                            x       y       z     vdW  Elec       q    Type
REMARK                         _______ _______ _______ _____ _____    ______ ____
ATOM      1  O   UNL     1      60.050  61.266  70.741  0.00  0.00    +0.000 OA
ATOM      2  C   UNL     1      60.611  61.857  70.613  0.00  0.00    +0.000 C 
ATOM      3  O   UNL     1      61.038  61.875  69.907  0.00  0.00    +0.000 OA
ATOM      4  C   UNL     1      60.745  62.431  71.190  0.00  0.00    +0.000 C 
ATOM      5  C   UNL     1      61.306  63.022  71.062  0.00  0.00    +0.000 C 
ATOM      6  C   UNL     1      61.440  63.595  71.639  0.00  0.00    +0.000 C 
ATOM      7  C   UNL     1      62.002  64.187  71.511  0.00  0.00    +0.000 A 
ATOM      8  C   UNL     1      62.135  64.760  72.089  0.00  0.00    +0.000 A 
ATOM      9  C   UNL     1      62.696  65.351  71.961  0.00  0.00    +0.000 A 
ATOM     10  C   UNL     1      63.124  65.369  71.255  0.00  0.00    +0.000 A 
ATOM     11  C   UNL     1      62.989  64.795  70.677  0.00  0.00    +0.000 A 
ATOM     12  C   UNL     1      62.428  64.204  70.806  0.00  0.00    +0.000 A 
ATOM     13  N   UNL     1      63.684  65.960  71.127  0.00  0.00    +0.000 N 
ATOM     14  C   UNL     1      63.818  66.534  71.705  0.00  0.00    +0.000 C 
ATOM     15  C   UNL     1      64.379  67.125  71.577  0.00  0.00    +0.000 C 
ATOM     16 CL   UNL     1      64.513  67.698  72.155  0.00  0.00    +0.000 Cl
ATOM     17  C   UNL     1      64.111  65.978  70.421  0.00  0.00    +0.000 C 
ATOM     18  C   UNL     1      64.672  66.569  70.293  0.00  0.00    +0.000 C 
ATOM     19 CL   UNL     1      65.098  66.587  69.588  0.00  0.00    +0.000 Cl
ENDROOT
TORSDOF 0
ENDMDL
MODEL 8
REMARK VINA RESULT:    -8.683      5.800      6.643
REMARK INTER + INTRA:          -8.683
REMARK INTER:                  -8.683
REMARK INTRA:                   0.000
REMARK UNBOUND:                 0.000
ROOT
REMARK  Name = chlorambucil
REMARK                            x       y       z     vdW  Elec       q    Type
REMARK                         _______ _______ _______ _____ _____    ______ ____
ATOM      1  O   UNL     1      66.627  67.103  71.087  0.00  0.00    +0.000 OA
ATOM      2  C   UNL     1      65.855  66.935  71.323  0.00  0.00    +0.000 C 
ATOM      3  O   UNL     1      65.451  67.461  71.815  0.00  0.00    +0.000 OA
ATOM      4  C   UNL     1      65.487  66.243  71.068  0.00  0.00    +0.000 C 
ATOM      5  C   UNL     1      64.714  66.075  71.305  0.00  0.00    +0.000 C 
ATOM      6  C   UNL     1      64.346  65.383  71.050  0.00  0.00    +0.000 C 
ATOM      7  C   UNL     1      63.573  65.215  71.287  0.00  0.00    +0.000 A 
ATOM      8  C   UNL     1      63.205  64.522  71.031  0.00  0.00    +0.000 A 
ATOM      9  C   UNL     1      62.433  64.354  71.267  0.00  0.00    +0.000 A 
ATOM     10  C   UNL     1      62.028  64.880  71.760  0.00  0.00    +0.000 A 
ATOM     11  C   UNL     1      62.397  65.572  72.014  0.00  0.00    +0.000 A 
ATOM     12  C   UNL     1      63.169  65.740  71.778  0.00  0.00    +0.000 A 
ATOM     13  N   UNL     1      61.257  64.712  71.996  0.00  0.00    +0.000 N 
ATOM     14  C   UNL     1      60.888  64.019  71.740  0.00  0.00    +0.000 C 
ATOM     15  C   UNL     1      60.116  63.851  71.977  0.00  0.00    +0.000 C 
ATOM     16 CL   UNL     1      59.748  63.158  71.721  0.00  0.00    +0.000 Cl
ATOM     17  C   UNL     1      60.852  65.237  72.487  0.00  0.00    +0.000 C 
ATOM     18  C   UNL     1      60.080  65.069  72.724  0.00  0.00    +0.000 C 
ATOM     19 CL   UNL     1      59.676  65.593  73.215  0.00  0.00    +0.000 Cl
ENDROOT
TORSDOF 0
ENDMDL
MODEL 9
REMARK VINA RESULT:    -8.583      4.225      5.911
REMARK INTER + INTRA:          -8.583
REMARK INTER:                  -8.583
REMARK INTRA:                   0.000
REMARK UNBOUND:                 0.000
ROOT
REMARK  Name = chlorambucil
REMARK                            x       y       z     vdW  Elec       q    Type
REMARK                         _______ _______ _______ _____ _____    ______ ____
ATOM      1  O   UNL     1      64.367  67.586  72.080  0.00  0.00    +0.000 OA
ATOM      2  C   UNL     1      63.902  66.920  71.940  0.00  0.00    +0.000 C 
ATOM      3  O   UNL     1      63.572  66.506  72.573  0.00  0.00    +0.000 OA
ATOM      4  C   UNL     1      63.766  66.667  71.166  0.00  0.00    +0.000 C 
ATOM      5  C   UNL     1      63.301  66.000  71.026  0.00  0.00    +0.000 C 
ATOM      6  C   UNL     1      63.166  65.748  70.253  0.00  0.00    +0.000 C 
ATOM      7  C   UNL     1      62.700  65.080  70.112  0.00  0.00    +0.000 A 
ATOM      8  C   UNL     1      62.564  64.828  69.338  0.00  0.00    +0.000 A 
ATOM      9  C   UNL     1      62.099  64.162  69.198  0.00  0.00    +0.000 A 
ATOM     10  C   UNL     1      61.769  63.747  69.831  0.00  0.00    +0.000 A 
ATOM     11  C   UNL     1      61.905  64.000  70.604  0.00  0.00    +0.000 A 
ATOM     12  C   UNL     1      62.370  64.667  70.745  0.00  0.00    +0.000 A 
ATOM     13  N   UNL     1      61.304  63.081  69.691  0.00  0.00    +0.000 N 
ATOM     14  C   UNL     1      61.168  62.828  68.917  0.00  0.00    +0.000 C 
ATOM     15  C   UNL     1      60.703  62.162  68.776  0.00  0.00    +0.000 C 
ATOM     16 CL   UNL     1      60.568  61.909  68.002  0.00  0.00    +0.000 Cl
ATOM     17  C   UNL     1      60.975  62.667  70.323  0.00  0.00    +0.000 C 
ATOM     18  C   UNL     1      60.509  62.001  70.183  0.00  0.00    +0.000 C 
ATOM     19 CL   UNL     1      60.180  61.587  70.815  0.00  0.00    +0.000 Cl
ENDROOT
TORSDOF 0
ENDMDL
