MODEL 1
REMARK VINA RESULT:   -12.344      0.000      0.000
REMARK INTER + INTRA:         -12.344
REMARK INTER:                 -12.344
REMARK INTRA:                   0.000
REMARK UNBOUND:                 0.000
ROOT
REMARK  Name = chlorotrianisene
REMARK                            x       y       z     vdW  Elec       q    Type
REMARK                         _______ _______ _______ _____ _____    ______ ____
ATOM      1  C   UNL     1      59.477  65.952  73.222  0.00  0.00    +0.000 C 
ATOM      2  O   UNL     1      59.837  65.227  73.060  0.00  0.00    +0.000 OA
ATOM      3  C   UNL     1      59.901  64.963  72.282  0.00  0.00    +0.000 A 
ATOM      4  C   UNL     1      60.261  64.239  72.121  0.00  0.00    +0.000 A 
ATOM      5  C   UNL     1      60.325  63.974  71.341  0.00  0.00    +0.000 A 
ATOM      6  C   UNL     1      60.030  64.435  70.724  0.00  0.00    +0.000 A 
ATOM      7  C   UNL     1      59.670  65.159  70.885  0.00  0.00    +0.000 A 
ATOM      8  C   UNL     1      59.606  65.423  71.665  0.00  0.00    +0.000 A 
ATOM      9  C   UNL     1      60.094  64.170  69.945  0.00  0.00    +0.000 C 
ATOM     10 CL   UNL     1      59.799  64.630  69.327  0.00  0.00    +0.000 Cl
ATOM     11  C   UNL     1      60.454  63.446  69.783  0.00  0.00    +0.000 C 
ATOM     12  C   UNL     1      60.518  63.182  69.005  0.00  0.00    +0.000 A 
ATOM     13  C   UNL     1      60.878  62.457  68.843  0.00  0.00    +0.000 A 
ATOM     14  C   UNL     1      60.943  62.192  68.064  0.00  0.00    +0.000 A 
ATOM     15  C   UNL     1      60.647  62.654  67.447  0.00  0.00    +0.000 A 
ATOM     16  O   UNL     1      60.712  62.389  66.667  0.00  0.00    +0.000 OA
ATOM     17  C   UNL     1      61.071  61.664  66.507  0.00  0.00    +0.000 C 
ATOM     18  C   UNL     1      60.288  63.378  67.608  0.00  0.00    +0.000 A 
ATOM     19  C   UNL     1      60.223  63.642  68.387  0.00  0.00    +0.000 A 
ATOM     20  C   UNL     1      60.749  62.985  70.401  0.00  0.00    +0.000 A 
ATOM     21  C   UNL     1      60.685  63.249  71.180  0.00  0.00    +0.000 A 
ATOM     22  C   UNL     1      60.981  62.788  71.797  0.00  0.00    +0.000 A 
ATOM     23  C   UNL     1      61.340  62.064  71.636  0.00  0.00    +0.000 A 
ATOM     24  O   UNL     1      61.635  61.604  72.253  0.00  0.00    +0.000 OA
ATOM     25  C   UNL     1      61.995  60.879  72.092  0.00  0.00    +0.000 C 
ATOM     26  C   UNL     1      61.405  61.800  70.857  0.00  0.00    +0.000 A 
ATOM     27  C   UNL     1      61.109  62.260  70.239  0.00  0.00    +0.000 A 
ENDROOT
TORSDOF 0
ENDMDL
MODEL 2
REMARK VINA RESULT:   -12.319      0.536      3.982
REMARK INTER + INTRA:         -12.319
REMARK INTER:                 -12.319
REMARK INTRA:                   0.000
REMARK UNBOUND:                 0.000
ROOT
REMARK  Name = chlorotrianisene
REMARK                            x       y       z     vdW  Elec       q    Type
REMARK                         _______ _______ _______ _____ _____    ______ ____
ATOM      1  C   UNL     1      61.024  62.003  66.487  0.00  0.00    +0.000 C 
ATOM      2  O   UNL     1      61.118  61.879  67.297  0.00  0.00    +0.000 OA
ATOM      3  C   UNL     1      60.869  62.453  67.835  0.00  0.00    +0.000 A 
ATOM      4  C   UNL     1      60.964  62.327  68.645  0.00  0.00    +0.000 A 
ATOM      5  C   UNL     1      60.715  62.902  69.183  0.00  0.00    +0.000 A 
ATOM      6  C   UNL     1      60.372  63.600  68.911  0.00  0.00    +0.000 A 
ATOM      7  C   UNL     1      60.278  63.726  68.102  0.00  0.00    +0.000 A 
ATOM      8  C   UNL     1      60.527  63.151  67.563  0.00  0.00    +0.000 A 
ATOM      9  C   UNL     1      60.124  64.174  69.449  0.00  0.00    +0.000 C 
ATOM     10 CL   UNL     1      59.781  64.874  69.178  0.00  0.00    +0.000 Cl
ATOM     11  C   UNL     1      60.218  64.050  70.259  0.00  0.00    +0.000 C 
ATOM     12  C   UNL     1      59.969  64.623  70.796  0.00  0.00    +0.000 A 
ATOM     13  C   UNL     1      60.064  64.498  71.607  0.00  0.00    +0.000 A 
ATOM     14  C   UNL     1      59.815  65.072  72.145  0.00  0.00    +0.000 A 
ATOM     15  C   UNL     1      59.472  65.771  71.872  0.00  0.00    +0.000 A 
ATOM     16  O   UNL     1      59.224  66.346  72.411  0.00  0.00    +0.000 OA
ATOM     17  C   UNL     1      59.318  66.220  73.221  0.00  0.00    +0.000 C 
ATOM     18  C   UNL     1      59.378  65.896  71.063  0.00  0.00    +0.000 A 
ATOM     19  C   UNL     1      59.627  65.322  70.525  0.00  0.00    +0.000 A 
ATOM     20  C   UNL     1      60.561  63.350  70.531  0.00  0.00    +0.000 A 
ATOM     21  C   UNL     1      60.810  62.776  69.993  0.00  0.00    +0.000 A 
ATOM     22  C   UNL     1      61.153  62.077  70.266  0.00  0.00    +0.000 A 
ATOM     23  C   UNL     1      61.247  61.951  71.075  0.00  0.00    +0.000 A 
ATOM     24  O   UNL     1      61.590  61.252  71.347  0.00  0.00    +0.000 OA
ATOM     25  C   UNL     1      61.684  61.126  72.157  0.00  0.00    +0.000 C 
ATOM     26  C   UNL     1      60.998  62.525  71.613  0.00  0.00    +0.000 A 
ATOM     27  C   UNL     1      60.655  63.224  71.342  0.00  0.00    +0.000 A 
ENDROOT
TORSDOF 0
ENDMDL
MODEL 3
REMARK VINA RESULT:   -12.084      2.290      4.017
REMARK INTER + INTRA:         -12.084
REMARK INTER:                 -12.084
REMARK INTRA:                   0.000
REMARK UNBOUND:                 0.000
ROOT
REMARK  Name = chlorotrianisene
REMARK                            x       y       z     vdW  Elec       q    Type
REMARK                         _______ _______ _______ _____ _____    ______ ____
ATOM      1  C   UNL     1      63.132  68.753  73.222  0.00  0.00    +0.000 C 
ATOM      2  O   UNL     1      62.390  68.393  73.221  0.00  0.00    +0.000 OA
ATOM      3  C   UNL     1      62.307  67.621  72.943  0.00  0.00    +0.000 A 
ATOM      4  C   UNL     1      61.565  67.261  72.941  0.00  0.00    +0.000 A 
ATOM      5  C   UNL     1      61.481  66.488  72.663  0.00  0.00    +0.000 A 
ATOM      6  C   UNL     1      62.140  66.076  72.386  0.00  0.00    +0.000 A 
ATOM      7  C   UNL     1      62.882  66.436  72.387  0.00  0.00    +0.000 A 
ATOM      8  C   UNL     1      62.965  67.209  72.666  0.00  0.00    +0.000 A 
ATOM      9  C   UNL     1      62.056  65.304  72.107  0.00  0.00    +0.000 C 
ATOM     10 CL   UNL     1      62.715  64.892  71.830  0.00  0.00    +0.000 Cl
ATOM     11  C   UNL     1      61.315  64.944  72.106  0.00  0.00    +0.000 C 
ATOM     12  C   UNL     1      61.231  64.172  71.828  0.00  0.00    +0.000 A 
ATOM     13  C   UNL     1      60.488  63.812  71.827  0.00  0.00    +0.000 A 
ATOM     14  C   UNL     1      60.405  63.040  71.548  0.00  0.00    +0.000 A 
ATOM     15  C   UNL     1      61.064  62.628  71.271  0.00  0.00    +0.000 A 
ATOM     16  O   UNL     1      60.981  61.855  70.992  0.00  0.00    +0.000 OA
ATOM     17  C   UNL     1      60.238  61.496  70.991  0.00  0.00    +0.000 C 
ATOM     18  C   UNL     1      61.806  62.988  71.272  0.00  0.00    +0.000 A 
ATOM     19  C   UNL     1      61.890  63.760  71.550  0.00  0.00    +0.000 A 
ATOM     20  C   UNL     1      60.655  65.356  72.383  0.00  0.00    +0.000 A 
ATOM     21  C   UNL     1      60.739  66.128  72.662  0.00  0.00    +0.000 A 
ATOM     22  C   UNL     1      60.079  66.540  72.939  0.00  0.00    +0.000 A 
ATOM     23  C   UNL     1      59.338  66.180  72.938  0.00  0.00    +0.000 A 
ATOM     24  O   UNL     1      58.679  66.592  73.215  0.00  0.00    +0.000 OA
ATOM     25  C   UNL     1      57.936  66.232  73.214  0.00  0.00    +0.000 C 
ATOM     26  C   UNL     1      59.254  65.408  72.659  0.00  0.00    +0.000 A 
ATOM     27  C   UNL     1      59.912  64.996  72.382  0.00  0.00    +0.000 A 
ENDROOT
TORSDOF 0
ENDMDL
MODEL 4
REMARK VINA RESULT:   -12.077      3.026      4.302
REMARK INTER + INTRA:         -12.077
REMARK INTER:                 -12.077
REMARK INTRA:                   0.000
REMARK UNBOUND:                 0.000
ROOT
REMARK  Name = chlorotrianisene
REMARK                            x       y       z     vdW  Elec       q    Type
REMARK                         _______ _______ _______ _____ _____    ______ ____
ATOM      1  C   UNL     1      57.197  65.990  73.222  0.00  0.00    +0.000 C 
ATOM      2  O   UNL     1      57.831  65.478  73.089  0.00  0.00    +0.000 OA
ATOM      3  C   UNL     1      58.588  65.782  72.967  0.00  0.00    +0.000 A 
ATOM      4  C   UNL     1      59.221  65.270  72.834  0.00  0.00    +0.000 A 
ATOM      5  C   UNL     1      59.979  65.574  72.712  0.00  0.00    +0.000 A 
ATOM      6  C   UNL     1      60.103  66.389  72.723  0.00  0.00    +0.000 A 
ATOM      7  C   UNL     1      59.470  66.901  72.856  0.00  0.00    +0.000 A 
ATOM      8  C   UNL     1      58.712  66.597  72.978  0.00  0.00    +0.000 A 
ATOM      9  C   UNL     1      60.860  66.693  72.601  0.00  0.00    +0.000 C 
ATOM     10 CL   UNL     1      60.985  67.508  72.613  0.00  0.00    +0.000 Cl
ATOM     11  C   UNL     1      61.494  66.181  72.468  0.00  0.00    +0.000 C 
ATOM     12  C   UNL     1      62.250  66.485  72.346  0.00  0.00    +0.000 A 
ATOM     13  C   UNL     1      62.884  65.972  72.213  0.00  0.00    +0.000 A 
ATOM     14  C   UNL     1      63.641  66.276  72.091  0.00  0.00    +0.000 A 
ATOM     15  C   UNL     1      63.765  67.092  72.103  0.00  0.00    +0.000 A 
ATOM     16  O   UNL     1      64.523  67.396  71.981  0.00  0.00    +0.000 OA
ATOM     17  C   UNL     1      65.156  66.883  71.847  0.00  0.00    +0.000 C 
ATOM     18  C   UNL     1      63.132  67.603  72.236  0.00  0.00    +0.000 A 
ATOM     19  C   UNL     1      62.375  67.300  72.358  0.00  0.00    +0.000 A 
ATOM     20  C   UNL     1      61.369  65.365  72.457  0.00  0.00    +0.000 A 
ATOM     21  C   UNL     1      60.612  65.062  72.578  0.00  0.00    +0.000 A 
ATOM     22  C   UNL     1      60.488  64.246  72.567  0.00  0.00    +0.000 A 
ATOM     23  C   UNL     1      61.120  63.734  72.434  0.00  0.00    +0.000 A 
ATOM     24  O   UNL     1      60.996  62.919  72.422  0.00  0.00    +0.000 OA
ATOM     25  C   UNL     1      61.629  62.407  72.289  0.00  0.00    +0.000 C 
ATOM     26  C   UNL     1      61.878  64.038  72.312  0.00  0.00    +0.000 A 
ATOM     27  C   UNL     1      62.003  64.853  72.323  0.00  0.00    +0.000 A 
ENDROOT
TORSDOF 0
ENDMDL
MODEL 5
REMARK VINA RESULT:   -12.068      3.979      5.013
REMARK INTER + INTRA:         -12.068
REMARK INTER:                 -12.068
REMARK INTRA:                   0.000
REMARK UNBOUND:                 0.000
ROOT
REMARK  Name = chlorotrianisene
REMARK                            x       y       z     vdW  Elec       q    Type
REMARK                         _______ _______ _______ _____ _____    ______ ____
ATOM      1  C   UNL     1      66.555  67.701  69.896  0.00  0.00    +0.000 C 
ATOM      2  O   UNL     1      65.881  67.734  70.371  0.00  0.00    +0.000 OA
ATOM      3  C   UNL     1      65.362  67.093  70.395  0.00  0.00    +0.000 A 
ATOM      4  C   UNL     1      64.689  67.127  70.870  0.00  0.00    +0.000 A 
ATOM      5  C   UNL     1      64.168  66.485  70.894  0.00  0.00    +0.000 A 
ATOM      6  C   UNL     1      64.322  65.813  70.443  0.00  0.00    +0.000 A 
ATOM      7  C   UNL     1      64.995  65.779  69.969  0.00  0.00    +0.000 A 
ATOM      8  C   UNL     1      65.516  66.420  69.944  0.00  0.00    +0.000 A 
ATOM      9  C   UNL     1      63.803  65.172  70.468  0.00  0.00    +0.000 C 
ATOM     10 CL   UNL     1      63.956  64.499  70.017  0.00  0.00    +0.000 Cl
ATOM     11  C   UNL     1      63.129  65.205  70.943  0.00  0.00    +0.000 C 
ATOM     12  C   UNL     1      62.610  64.565  70.967  0.00  0.00    +0.000 A 
ATOM     13  C   UNL     1      61.936  64.598  71.442  0.00  0.00    +0.000 A 
ATOM     14  C   UNL     1      61.416  63.958  71.466  0.00  0.00    +0.000 A 
ATOM     15  C   UNL     1      61.571  63.284  71.015  0.00  0.00    +0.000 A 
ATOM     16  O   UNL     1      61.051  62.643  71.039  0.00  0.00    +0.000 OA
ATOM     17  C   UNL     1      60.377  62.677  71.515  0.00  0.00    +0.000 C 
ATOM     18  C   UNL     1      62.244  63.251  70.540  0.00  0.00    +0.000 A 
ATOM     19  C   UNL     1      62.764  63.892  70.516  0.00  0.00    +0.000 A 
ATOM     20  C   UNL     1      62.975  65.879  71.394  0.00  0.00    +0.000 A 
ATOM     21  C   UNL     1      63.495  66.519  71.370  0.00  0.00    +0.000 A 
ATOM     22  C   UNL     1      63.340  67.193  71.821  0.00  0.00    +0.000 A 
ATOM     23  C   UNL     1      62.667  67.226  72.296  0.00  0.00    +0.000 A 
ATOM     24  O   UNL     1      62.513  67.899  72.746  0.00  0.00    +0.000 OA
ATOM     25  C   UNL     1      61.839  67.933  73.222  0.00  0.00    +0.000 C 
ATOM     26  C   UNL     1      62.147  66.586  72.320  0.00  0.00    +0.000 A 
ATOM     27  C   UNL     1      62.301  65.912  71.869  0.00  0.00    +0.000 A 
ENDROOT
TORSDOF 0
ENDMDL
MODEL 6
REMARK VINA RESULT:   -11.807      2.153      4.213
REMARK INTER + INTRA:         -11.807
REMARK INTER:                 -11.807
REMARK INTRA:                   0.000
REMARK UNBOUND:                 0.000
ROOT
REMARK  Name = chlorotrianisene
REMARK                            x       y       z     vdW  Elec       q    Type
REMARK                         _______ _______ _______ _____ _____    ______ ____
ATOM      1  C   UNL     1      64.799  65.239  70.511  0.00  0.00    +0.000 C 
ATOM      2  O   UNL     1      64.169  64.707  70.529  0.00  0.00    +0.000 OA
ATOM      3  C   UNL     1      63.448  64.932  70.861  0.00  0.00    +0.000 A 
ATOM      4  C   UNL     1      62.819  64.400  70.878  0.00  0.00    +0.000 A 
ATOM      5  C   UNL     1      62.097  64.625  71.211  0.00  0.00    +0.000 A 
ATOM      6  C   UNL     1      62.006  65.381  71.526  0.00  0.00    +0.000 A 
ATOM      7  C   UNL     1      62.636  65.913  71.508  0.00  0.00    +0.000 A 
ATOM      8  C   UNL     1      63.357  65.688  71.175  0.00  0.00    +0.000 A 
ATOM      9  C   UNL     1      61.285  65.606  71.858  0.00  0.00    +0.000 C 
ATOM     10 CL   UNL     1      61.194  66.363  72.173  0.00  0.00    +0.000 Cl
ATOM     11  C   UNL     1      60.655  65.074  71.876  0.00  0.00    +0.000 C 
ATOM     12  C   UNL     1      59.935  65.298  72.208  0.00  0.00    +0.000 A 
ATOM     13  C   UNL     1      59.305  64.766  72.225  0.00  0.00    +0.000 A 
ATOM     14  C   UNL     1      58.584  64.990  72.558  0.00  0.00    +0.000 A 
ATOM     15  C   UNL     1      58.493  65.748  72.872  0.00  0.00    +0.000 A 
ATOM     16  O   UNL     1      57.772  65.973  73.205  0.00  0.00    +0.000 OA
ATOM     17  C   UNL     1      57.142  65.440  73.222  0.00  0.00    +0.000 C 
ATOM     18  C   UNL     1      59.123  66.280  72.855  0.00  0.00    +0.000 A 
ATOM     19  C   UNL     1      59.844  66.055  72.523  0.00  0.00    +0.000 A 
ATOM     20  C   UNL     1      60.746  64.316  71.561  0.00  0.00    +0.000 A 
ATOM     21  C   UNL     1      61.467  64.092  71.228  0.00  0.00    +0.000 A 
ATOM     22  C   UNL     1      61.558  63.334  70.914  0.00  0.00    +0.000 A 
ATOM     23  C   UNL     1      60.928  62.802  70.931  0.00  0.00    +0.000 A 
ATOM     24  O   UNL     1      61.019  62.045  70.617  0.00  0.00    +0.000 OA
ATOM     25  C   UNL     1      60.389  61.512  70.634  0.00  0.00    +0.000 C 
ATOM     26  C   UNL     1      60.207  63.027  71.263  0.00  0.00    +0.000 A 
ATOM     27  C   UNL     1      60.116  63.783  71.578  0.00  0.00    +0.000 A 
ENDROOT
TORSDOF 0
ENDMDL
MODEL 7
REMARK VINA RESULT:   -11.441      3.125      4.561
REMARK INTER + INTRA:         -11.441
REMARK INTER:                 -11.441
REMARK INTRA:                   0.000
REMARK UNBOUND:                 0.000
ROOT
REMARK  Name = chlorotrianisene
REMARK                            x       y       z     vdW  Elec       q    Type
REMARK                         _______ _______ _______ _____ _____    ______ ____
ATOM      1  C   UNL     1      60.153  62.534  68.089  0.00  0.00    +0.000 C 
ATOM      2  O   UNL     1      60.198  62.910  68.822  0.00  0.00    +0.000 OA
ATOM      3  C   UNL     1      60.882  63.319  69.035  0.00  0.00    +0.000 A 
ATOM      4  C   UNL     1      60.926  63.694  69.768  0.00  0.00    +0.000 A 
ATOM      5  C   UNL     1      61.611  64.103  69.982  0.00  0.00    +0.000 A 
ATOM      6  C   UNL     1      62.250  64.137  69.462  0.00  0.00    +0.000 A 
ATOM      7  C   UNL     1      62.205  63.762  68.729  0.00  0.00    +0.000 A 
ATOM      8  C   UNL     1      61.521  63.352  68.516  0.00  0.00    +0.000 A 
ATOM      9  C   UNL     1      62.933  64.546  69.675  0.00  0.00    +0.000 C 
ATOM     10 CL   UNL     1      63.573  64.580  69.156  0.00  0.00    +0.000 Cl
ATOM     11  C   UNL     1      62.978  64.922  70.408  0.00  0.00    +0.000 C 
ATOM     12  C   UNL     1      63.661  65.330  70.621  0.00  0.00    +0.000 A 
ATOM     13  C   UNL     1      63.706  65.706  71.355  0.00  0.00    +0.000 A 
ATOM     14  C   UNL     1      64.390  66.115  71.569  0.00  0.00    +0.000 A 
ATOM     15  C   UNL     1      65.029  66.148  71.048  0.00  0.00    +0.000 A 
ATOM     16  O   UNL     1      65.714  66.558  71.262  0.00  0.00    +0.000 OA
ATOM     17  C   UNL     1      65.758  66.933  71.995  0.00  0.00    +0.000 C 
ATOM     18  C   UNL     1      64.985  65.773  70.315  0.00  0.00    +0.000 A 
ATOM     19  C   UNL     1      64.301  65.364  70.102  0.00  0.00    +0.000 A 
ATOM     20  C   UNL     1      62.338  64.888  70.929  0.00  0.00    +0.000 A 
ATOM     21  C   UNL     1      61.654  64.479  70.715  0.00  0.00    +0.000 A 
ATOM     22  C   UNL     1      61.015  64.445  71.236  0.00  0.00    +0.000 A 
ATOM     23  C   UNL     1      61.059  64.820  71.969  0.00  0.00    +0.000 A 
ATOM     24  O   UNL     1      60.420  64.787  72.489  0.00  0.00    +0.000 OA
ATOM     25  C   UNL     1      60.464  65.162  73.222  0.00  0.00    +0.000 C 
ATOM     26  C   UNL     1      61.743  65.229  72.182  0.00  0.00    +0.000 A 
ATOM     27  C   UNL     1      62.383  65.263  71.663  0.00  0.00    +0.000 A 
ENDROOT
TORSDOF 0
ENDMDL
MODEL 8
REMARK VINA RESULT:    -9.535      3.147      4.018
REMARK INTER + INTRA:          -9.535
REMARK INTER:                  -9.535
REMARK INTRA:                   0.000
REMARK UNBOUND:                 0.000
ROOT
REMARK  Name = chlorotrianisene
REMARK                            x       y       z     vdW  Elec       q    Type
REMARK                         _______ _______ _______ _____ _____    ______ ____
ATOM      1  C   UNL     1      63.124  69.033  73.223  0.00  0.00    +0.000 C 
ATOM      2  O   UNL     1      63.377  68.474  72.671  0.00  0.00    +0.000 OA
ATOM      3  C   UNL     1      62.965  67.765  72.583  0.00  0.00    +0.000 A 
ATOM      4  C   UNL     1      63.219  67.207  72.032  0.00  0.00    +0.000 A 
ATOM      5  C   UNL     1      62.806  66.497  71.944  0.00  0.00    +0.000 A 
ATOM      6  C   UNL     1      62.141  66.347  72.406  0.00  0.00    +0.000 A 
ATOM      7  C   UNL     1      61.887  66.905  72.957  0.00  0.00    +0.000 A 
ATOM      8  C   UNL     1      62.300  67.615  73.046  0.00  0.00    +0.000 A 
ATOM      9  C   UNL     1      61.728  65.637  72.318  0.00  0.00    +0.000 C 
ATOM     10 CL   UNL     1      61.062  65.487  72.781  0.00  0.00    +0.000 Cl
ATOM     11  C   UNL     1      61.982  65.078  71.767  0.00  0.00    +0.000 C 
ATOM     12  C   UNL     1      61.570  64.370  71.679  0.00  0.00    +0.000 A 
ATOM     13  C   UNL     1      61.824  63.811  71.127  0.00  0.00    +0.000 A 
ATOM     14  C   UNL     1      61.412  63.102  71.039  0.00  0.00    +0.000 A 
ATOM     15  C   UNL     1      60.745  62.952  71.502  0.00  0.00    +0.000 A 
ATOM     16  O   UNL     1      60.333  62.242  71.414  0.00  0.00    +0.000 OA
ATOM     17  C   UNL     1      60.587  61.683  70.862  0.00  0.00    +0.000 C 
ATOM     18  C   UNL     1      60.492  63.510  72.053  0.00  0.00    +0.000 A 
ATOM     19  C   UNL     1      60.904  64.219  72.141  0.00  0.00    +0.000 A 
ATOM     20  C   UNL     1      62.648  65.229  71.304  0.00  0.00    +0.000 A 
ATOM     21  C   UNL     1      63.061  65.938  71.392  0.00  0.00    +0.000 A 
ATOM     22  C   UNL     1      63.727  66.088  70.929  0.00  0.00    +0.000 A 
ATOM     23  C   UNL     1      63.981  65.530  70.378  0.00  0.00    +0.000 A 
ATOM     24  O   UNL     1      64.646  65.680  69.915  0.00  0.00    +0.000 OA
ATOM     25  C   UNL     1      64.901  65.121  69.364  0.00  0.00    +0.000 C 
ATOM     26  C   UNL     1      63.568  64.820  70.290  0.00  0.00    +0.000 A 
ATOM     27  C   UNL     1      62.902  64.670  70.752  0.00  0.00    +0.000 A 
ENDROOT
TORSDOF 0
ENDMDL
