MODEL 1
REMARK VINA RESULT:    -9.720      0.000      0.000
REMARK INTER + INTRA:          -9.720
REMARK INTER:                  -9.720
REMARK INTRA:                   0.000
REMARK UNBOUND:                 0.000
ROOT
REMARK  Name = chlorfenethazine
REMARK                            x       y       z     vdW  Elec       q    Type
REMARK                         _______ _______ _______ _____ _____    ______ ____
ATOM      1  C   UNL     1      59.603  65.771  69.140  0.00  0.00    +0.000 C 
ATOM      2  N   UNL     1      59.899  65.485  69.855  0.00  0.00    +0.000 NA
ATOM      3  C   UNL     1      59.975  65.993  70.500  0.00  0.00    +0.000 C 
ATOM      4  C   UNL     1      60.120  64.693  69.924  0.00  0.00    +0.000 C 
ATOM      5  C   UNL     1      60.416  64.409  70.639  0.00  0.00    +0.000 C 
ATOM      6  N   UNL     1      60.637  63.616  70.708  0.00  0.00    +0.000 N 
ATOM      7  C   UNL     1      60.933  63.332  71.424  0.00  0.00    +0.000 A 
ATOM      8  C   UNL     1      61.009  63.839  72.070  0.00  0.00    +0.000 A 
ATOM      9  C   UNL     1      61.305  63.555  72.785  0.00  0.00    +0.000 A 
ATOM     10  C   UNL     1      61.526  62.763  72.855  0.00  0.00    +0.000 A 
ATOM     11  C   UNL     1      61.450  62.255  72.208  0.00  0.00    +0.000 A 
ATOM     12  C   UNL     1      61.154  62.540  71.493  0.00  0.00    +0.000 A 
ATOM     13  S   UNL     1      61.078  62.032  70.846  0.00  0.00    +0.000 S 
ATOM     14  C   UNL     1      60.781  62.318  70.131  0.00  0.00    +0.000 A 
ATOM     15  C   UNL     1      60.561  63.110  70.062  0.00  0.00    +0.000 A 
ATOM     16  C   UNL     1      60.265  63.394  69.347  0.00  0.00    +0.000 A 
ATOM     17  C   UNL     1      60.189  62.887  68.701  0.00  0.00    +0.000 A 
ATOM     18 CL   UNL     1      59.892  63.171  67.985  0.00  0.00    +0.000 Cl
ATOM     19  C   UNL     1      60.409  62.095  68.770  0.00  0.00    +0.000 A 
ATOM     20  C   UNL     1      60.706  61.810  69.486  0.00  0.00    +0.000 A 
ENDROOT
TORSDOF 0
ENDMDL
MODEL 2
REMARK VINA RESULT:    -9.549      1.866      3.200
REMARK INTER + INTRA:          -9.549
REMARK INTER:                  -9.549
REMARK INTRA:                   0.000
REMARK UNBOUND:                 0.000
ROOT
REMARK  Name = chlorfenethazine
REMARK                            x       y       z     vdW  Elec       q    Type
REMARK                         _______ _______ _______ _____ _____    ______ ____
ATOM      1  C   UNL     1      63.095  65.073  71.239  0.00  0.00    +0.000 C 
ATOM      2  N   UNL     1      62.816  64.828  70.502  0.00  0.00    +0.000 NA
ATOM      3  C   UNL     1      63.047  65.231  69.821  0.00  0.00    +0.000 C 
ATOM      4  C   UNL     1      62.308  64.181  70.447  0.00  0.00    +0.000 C 
ATOM      5  C   UNL     1      62.030  63.937  69.711  0.00  0.00    +0.000 C 
ATOM      6  N   UNL     1      61.521  63.288  69.655  0.00  0.00    +0.000 N 
ATOM      7  C   UNL     1      61.243  63.044  68.918  0.00  0.00    +0.000 A 
ATOM      8  C   UNL     1      61.473  63.447  68.236  0.00  0.00    +0.000 A 
ATOM      9  C   UNL     1      61.195  63.202  67.498  0.00  0.00    +0.000 A 
ATOM     10  C   UNL     1      60.687  62.555  67.443  0.00  0.00    +0.000 A 
ATOM     11  C   UNL     1      60.456  62.152  68.126  0.00  0.00    +0.000 A 
ATOM     12  C   UNL     1      60.735  62.397  68.863  0.00  0.00    +0.000 A 
ATOM     13  S   UNL     1      60.504  61.993  69.545  0.00  0.00    +0.000 S 
ATOM     14  C   UNL     1      60.783  62.239  70.282  0.00  0.00    +0.000 A 
ATOM     15  C   UNL     1      61.291  62.886  70.337  0.00  0.00    +0.000 A 
ATOM     16  C   UNL     1      61.569  63.130  71.074  0.00  0.00    +0.000 A 
ATOM     17  C   UNL     1      61.339  62.728  71.757  0.00  0.00    +0.000 A 
ATOM     18 CL   UNL     1      61.617  62.972  72.494  0.00  0.00    +0.000 Cl
ATOM     19  C   UNL     1      60.831  62.080  71.702  0.00  0.00    +0.000 A 
ATOM     20  C   UNL     1      60.552  61.835  70.964  0.00  0.00    +0.000 A 
ENDROOT
TORSDOF 0
ENDMDL
MODEL 3
REMARK VINA RESULT:    -9.332      1.080      2.421
REMARK INTER + INTRA:          -9.332
REMARK INTER:                  -9.332
REMARK INTRA:                   0.000
REMARK UNBOUND:                 0.000
ROOT
REMARK  Name = chlorfenethazine
REMARK                            x       y       z     vdW  Elec       q    Type
REMARK                         _______ _______ _______ _____ _____    ______ ____
ATOM      1  C   UNL     1      60.117  63.043  67.943  0.00  0.00    +0.000 C 
ATOM      2  N   UNL     1      60.416  62.755  68.655  0.00  0.00    +0.000 NA
ATOM      3  C   UNL     1      60.719  61.989  68.694  0.00  0.00    +0.000 C 
ATOM      4  C   UNL     1      60.412  63.233  69.328  0.00  0.00    +0.000 C 
ATOM      5  C   UNL     1      60.711  62.944  70.040  0.00  0.00    +0.000 C 
ATOM      6  N   UNL     1      60.707  63.422  70.714  0.00  0.00    +0.000 N 
ATOM      7  C   UNL     1      61.006  63.133  71.426  0.00  0.00    +0.000 A 
ATOM      8  C   UNL     1      61.309  62.367  71.466  0.00  0.00    +0.000 A 
ATOM      9  C   UNL     1      61.609  62.078  72.178  0.00  0.00    +0.000 A 
ATOM     10  C   UNL     1      61.605  62.555  72.851  0.00  0.00    +0.000 A 
ATOM     11  C   UNL     1      61.301  63.322  72.812  0.00  0.00    +0.000 A 
ATOM     12  C   UNL     1      61.002  63.610  72.099  0.00  0.00    +0.000 A 
ATOM     13  S   UNL     1      60.699  64.377  72.059  0.00  0.00    +0.000 S 
ATOM     14  C   UNL     1      60.400  64.665  71.346  0.00  0.00    +0.000 A 
ATOM     15  C   UNL     1      60.404  64.188  70.674  0.00  0.00    +0.000 A 
ATOM     16  C   UNL     1      60.105  64.476  69.962  0.00  0.00    +0.000 A 
ATOM     17  C   UNL     1      59.801  65.243  69.921  0.00  0.00    +0.000 A 
ATOM     18 CL   UNL     1      59.502  65.532  69.209  0.00  0.00    +0.000 Cl
ATOM     19  C   UNL     1      59.797  65.720  70.594  0.00  0.00    +0.000 A 
ATOM     20  C   UNL     1      60.097  65.431  71.307  0.00  0.00    +0.000 A 
ENDROOT
TORSDOF 0
ENDMDL
MODEL 4
REMARK VINA RESULT:    -9.272      1.390      3.190
REMARK INTER + INTRA:          -9.272
REMARK INTER:                  -9.272
REMARK INTRA:                   0.000
REMARK UNBOUND:                 0.000
ROOT
REMARK  Name = chlorfenethazine
REMARK                            x       y       z     vdW  Elec       q    Type
REMARK                         _______ _______ _______ _____ _____    ______ ____
ATOM      1  C   UNL     1      60.828  62.013  67.997  0.00  0.00    +0.000 C 
ATOM      2  N   UNL     1      60.630  62.809  68.086  0.00  0.00    +0.000 NA
ATOM      3  C   UNL     1      60.577  63.296  67.423  0.00  0.00    +0.000 C 
ATOM      4  C   UNL     1      60.485  63.116  68.838  0.00  0.00    +0.000 C 
ATOM      5  C   UNL     1      60.287  63.912  68.927  0.00  0.00    +0.000 C 
ATOM      6  N   UNL     1      60.141  64.219  69.679  0.00  0.00    +0.000 N 
ATOM      7  C   UNL     1      59.944  65.016  69.767  0.00  0.00    +0.000 A 
ATOM      8  C   UNL     1      59.891  65.504  69.105  0.00  0.00    +0.000 A 
ATOM      9  C   UNL     1      59.693  66.300  69.193  0.00  0.00    +0.000 A 
ATOM     10  C   UNL     1      59.548  66.608  69.945  0.00  0.00    +0.000 A 
ATOM     11  C   UNL     1      59.601  66.119  70.608  0.00  0.00    +0.000 A 
ATOM     12  C   UNL     1      59.798  65.323  70.519  0.00  0.00    +0.000 A 
ATOM     13  S   UNL     1      59.851  64.835  71.182  0.00  0.00    +0.000 S 
ATOM     14  C   UNL     1      60.049  64.039  71.093  0.00  0.00    +0.000 A 
ATOM     15  C   UNL     1      60.194  63.731  70.341  0.00  0.00    +0.000 A 
ATOM     16  C   UNL     1      60.392  62.936  70.253  0.00  0.00    +0.000 A 
ATOM     17  C   UNL     1      60.445  62.447  70.915  0.00  0.00    +0.000 A 
ATOM     18 CL   UNL     1      60.642  61.651  70.827  0.00  0.00    +0.000 Cl
ATOM     19  C   UNL     1      60.299  62.754  71.667  0.00  0.00    +0.000 A 
ATOM     20  C   UNL     1      60.101  63.551  71.756  0.00  0.00    +0.000 A 
ENDROOT
TORSDOF 0
ENDMDL
MODEL 5
REMARK VINA RESULT:    -9.222      2.140      3.092
REMARK INTER + INTRA:          -9.222
REMARK INTER:                  -9.222
REMARK INTRA:                   0.000
REMARK UNBOUND:                 0.000
ROOT
REMARK  Name = chlorfenethazine
REMARK                            x       y       z     vdW  Elec       q    Type
REMARK                         _______ _______ _______ _____ _____    ______ ____
ATOM      1  C   UNL     1      60.535  62.446  68.496  0.00  0.00    +0.000 C 
ATOM      2  N   UNL     1      61.110  63.026  68.612  0.00  0.00    +0.000 NA
ATOM      3  C   UNL     1      61.497  63.358  67.964  0.00  0.00    +0.000 C 
ATOM      4  C   UNL     1      61.296  63.274  69.377  0.00  0.00    +0.000 C 
ATOM      5  C   UNL     1      61.871  63.854  69.493  0.00  0.00    +0.000 C 
ATOM      6  N   UNL     1      62.058  64.103  70.258  0.00  0.00    +0.000 N 
ATOM      7  C   UNL     1      62.633  64.684  70.373  0.00  0.00    +0.000 A 
ATOM      8  C   UNL     1      63.020  65.016  69.726  0.00  0.00    +0.000 A 
ATOM      9  C   UNL     1      63.595  65.596  69.842  0.00  0.00    +0.000 A 
ATOM     10  C   UNL     1      63.782  65.845  70.606  0.00  0.00    +0.000 A 
ATOM     11  C   UNL     1      63.394  65.512  71.255  0.00  0.00    +0.000 A 
ATOM     12  C   UNL     1      62.820  64.932  71.138  0.00  0.00    +0.000 A 
ATOM     13  S   UNL     1      62.432  64.599  71.786  0.00  0.00    +0.000 S 
ATOM     14  C   UNL     1      61.857  64.019  71.669  0.00  0.00    +0.000 A 
ATOM     15  C   UNL     1      61.670  63.771  70.905  0.00  0.00    +0.000 A 
ATOM     16  C   UNL     1      61.096  63.191  70.789  0.00  0.00    +0.000 A 
ATOM     17  C   UNL     1      60.708  62.858  71.437  0.00  0.00    +0.000 A 
ATOM     18 CL   UNL     1      60.133  62.277  71.321  0.00  0.00    +0.000 Cl
ATOM     19  C   UNL     1      60.895  63.106  72.201  0.00  0.00    +0.000 A 
ATOM     20  C   UNL     1      61.470  63.687  72.318  0.00  0.00    +0.000 A 
ENDROOT
TORSDOF 0
ENDMDL
MODEL 6
REMARK VINA RESULT:    -9.165      3.224      4.230
REMARK INTER + INTRA:          -9.165
REMARK INTER:                  -9.165
REMARK INTRA:                   0.000
REMARK UNBOUND:                 0.000
ROOT
REMARK  Name = chlorfenethazine
REMARK                            x       y       z     vdW  Elec       q    Type
REMARK                         _______ _______ _______ _____ _____    ______ ____
ATOM      1  C   UNL     1      64.903  65.910  70.163  0.00  0.00    +0.000 C 
ATOM      2  N   UNL     1      64.370  65.303  70.331  0.00  0.00    +0.000 NA
ATOM      3  C   UNL     1      64.415  64.591  69.919  0.00  0.00    +0.000 C 
ATOM      4  C   UNL     1      63.793  65.409  70.912  0.00  0.00    +0.000 C 
ATOM      5  C   UNL     1      63.261  64.803  71.079  0.00  0.00    +0.000 C 
ATOM      6  N   UNL     1      62.684  64.909  71.660  0.00  0.00    +0.000 N 
ATOM      7  C   UNL     1      62.151  64.301  71.827  0.00  0.00    +0.000 A 
ATOM      8  C   UNL     1      62.195  63.588  71.415  0.00  0.00    +0.000 A 
ATOM      9  C   UNL     1      61.662  62.981  71.583  0.00  0.00    +0.000 A 
ATOM     10  C   UNL     1      61.085  63.087  72.163  0.00  0.00    +0.000 A 
ATOM     11  C   UNL     1      61.041  63.801  72.576  0.00  0.00    +0.000 A 
ATOM     12  C   UNL     1      61.574  64.407  72.407  0.00  0.00    +0.000 A 
ATOM     13  S   UNL     1      61.530  65.121  72.820  0.00  0.00    +0.000 S 
ATOM     14  C   UNL     1      62.063  65.728  72.652  0.00  0.00    +0.000 A 
ATOM     15  C   UNL     1      62.640  65.622  72.072  0.00  0.00    +0.000 A 
ATOM     16  C   UNL     1      63.172  66.228  71.904  0.00  0.00    +0.000 A 
ATOM     17  C   UNL     1      63.128  66.942  72.316  0.00  0.00    +0.000 A 
ATOM     18 CL   UNL     1      63.661  67.550  72.149  0.00  0.00    +0.000 Cl
ATOM     19  C   UNL     1      62.551  67.048  72.897  0.00  0.00    +0.000 A 
ATOM     20  C   UNL     1      62.018  66.440  73.065  0.00  0.00    +0.000 A 
ENDROOT
TORSDOF 0
ENDMDL
MODEL 7
REMARK VINA RESULT:    -8.816      1.571      2.718
REMARK INTER + INTRA:          -8.816
REMARK INTER:                  -8.816
REMARK INTRA:                   0.000
REMARK UNBOUND:                 0.000
ROOT
REMARK  Name = chlorfenethazine
REMARK                            x       y       z     vdW  Elec       q    Type
REMARK                         _______ _______ _______ _____ _____    ______ ____
ATOM      1  C   UNL     1      59.865  66.042  69.475  0.00  0.00    +0.000 C 
ATOM      2  N   UNL     1      60.002  65.234  69.576  0.00  0.00    +0.000 NA
ATOM      3  C   UNL     1      59.782  64.703  68.984  0.00  0.00    +0.000 C 
ATOM      4  C   UNL     1      60.359  64.959  70.267  0.00  0.00    +0.000 C 
ATOM      5  C   UNL     1      60.495  64.152  70.366  0.00  0.00    +0.000 C 
ATOM      6  N   UNL     1      60.852  63.876  71.058  0.00  0.00    +0.000 N 
ATOM      7  C   UNL     1      60.989  63.068  71.157  0.00  0.00    +0.000 A 
ATOM      8  C   UNL     1      60.770  62.537  70.566  0.00  0.00    +0.000 A 
ATOM      9  C   UNL     1      60.906  61.729  70.666  0.00  0.00    +0.000 A 
ATOM     10  C   UNL     1      61.263  61.453  71.357  0.00  0.00    +0.000 A 
ATOM     11  C   UNL     1      61.483  61.985  71.948  0.00  0.00    +0.000 A 
ATOM     12  C   UNL     1      61.346  62.792  71.848  0.00  0.00    +0.000 A 
ATOM     13  S   UNL     1      61.566  63.325  72.440  0.00  0.00    +0.000 S 
ATOM     14  C   UNL     1      61.428  64.132  72.340  0.00  0.00    +0.000 A 
ATOM     15  C   UNL     1      61.072  64.407  71.649  0.00  0.00    +0.000 A 
ATOM     16  C   UNL     1      60.935  65.214  71.549  0.00  0.00    +0.000 A 
ATOM     17  C   UNL     1      61.155  65.747  72.140  0.00  0.00    +0.000 A 
ATOM     18 CL   UNL     1      61.018  66.554  72.041  0.00  0.00    +0.000 Cl
ATOM     19  C   UNL     1      61.511  65.471  72.831  0.00  0.00    +0.000 A 
ATOM     20  C   UNL     1      61.648  64.663  72.931  0.00  0.00    +0.000 A 
ENDROOT
TORSDOF 0
ENDMDL
MODEL 8
REMARK VINA RESULT:    -8.737      2.102      2.911
REMARK INTER + INTRA:          -8.737
REMARK INTER:                  -8.737
REMARK INTRA:                   0.000
REMARK UNBOUND:                 0.000
ROOT
REMARK  Name = chlorfenethazine
REMARK                            x       y       z     vdW  Elec       q    Type
REMARK                         _______ _______ _______ _____ _____    ______ ____
ATOM      1  C   UNL     1      61.650  63.393  67.933  0.00  0.00    +0.000 C 
ATOM      2  N   UNL     1      61.189  63.487  68.610  0.00  0.00    +0.000 NA
ATOM      3  C   UNL     1      60.399  63.250  68.605  0.00  0.00    +0.000 C 
ATOM      4  C   UNL     1      61.516  63.818  69.291  0.00  0.00    +0.000 C 
ATOM      5  C   UNL     1      61.054  63.911  69.967  0.00  0.00    +0.000 C 
ATOM      6  N   UNL     1      61.382  64.242  70.649  0.00  0.00    +0.000 N 
ATOM      7  C   UNL     1      60.919  64.335  71.325  0.00  0.00    +0.000 A 
ATOM      8  C   UNL     1      60.130  64.098  71.321  0.00  0.00    +0.000 A 
ATOM      9  C   UNL     1      59.667  64.192  71.998  0.00  0.00    +0.000 A 
ATOM     10  C   UNL     1      59.995  64.522  72.679  0.00  0.00    +0.000 A 
ATOM     11  C   UNL     1      60.785  64.760  72.684  0.00  0.00    +0.000 A 
ATOM     12  C   UNL     1      61.247  64.666  72.006  0.00  0.00    +0.000 A 
ATOM     13  S   UNL     1      62.038  64.903  72.011  0.00  0.00    +0.000 S 
ATOM     14  C   UNL     1      62.500  64.809  71.334  0.00  0.00    +0.000 A 
ATOM     15  C   UNL     1      62.172  64.479  70.653  0.00  0.00    +0.000 A 
ATOM     16  C   UNL     1      62.634  64.385  69.977  0.00  0.00    +0.000 A 
ATOM     17  C   UNL     1      63.425  64.622  69.980  0.00  0.00    +0.000 A 
ATOM     18 CL   UNL     1      63.888  64.529  69.304  0.00  0.00    +0.000 Cl
ATOM     19  C   UNL     1      63.752  64.953  70.661  0.00  0.00    +0.000 A 
ATOM     20  C   UNL     1      63.290  65.047  71.339  0.00  0.00    +0.000 A 
ENDROOT
TORSDOF 0
ENDMDL
MODEL 9
REMARK VINA RESULT:    -8.693      3.660      4.528
REMARK INTER + INTRA:          -8.693
REMARK INTER:                  -8.693
REMARK INTRA:                   0.000
REMARK UNBOUND:                 0.000
ROOT
REMARK  Name = chlorfenethazine
REMARK                            x       y       z     vdW  Elec       q    Type
REMARK                         _______ _______ _______ _____ _____    ______ ____
ATOM      1  C   UNL     1      61.803  63.955  69.948  0.00  0.00    +0.000 C 
ATOM      2  N   UNL     1      61.664  64.602  70.441  0.00  0.00    +0.000 NA
ATOM      3  C   UNL     1      60.894  64.782  70.676  0.00  0.00    +0.000 C 
ATOM      4  C   UNL     1      62.295  65.067  70.700  0.00  0.00    +0.000 C 
ATOM      5  C   UNL     1      62.155  65.713  71.192  0.00  0.00    +0.000 C 
ATOM      6  N   UNL     1      62.786  66.179  71.451  0.00  0.00    +0.000 N 
ATOM      7  C   UNL     1      62.645  66.826  71.944  0.00  0.00    +0.000 A 
ATOM      8  C   UNL     1      61.876  67.007  72.179  0.00  0.00    +0.000 A 
ATOM      9  C   UNL     1      61.736  67.654  72.672  0.00  0.00    +0.000 A 
ATOM     10  C   UNL     1      62.366  68.119  72.930  0.00  0.00    +0.000 A 
ATOM     11  C   UNL     1      63.137  67.938  72.695  0.00  0.00    +0.000 A 
ATOM     12  C   UNL     1      63.276  67.292  72.202  0.00  0.00    +0.000 A 
ATOM     13  S   UNL     1      64.046  67.111  71.967  0.00  0.00    +0.000 S 
ATOM     14  C   UNL     1      64.185  66.464  71.474  0.00  0.00    +0.000 A 
ATOM     15  C   UNL     1      63.555  65.998  71.216  0.00  0.00    +0.000 A 
ATOM     16  C   UNL     1      63.695  65.352  70.723  0.00  0.00    +0.000 A 
ATOM     17  C   UNL     1      64.465  65.171  70.488  0.00  0.00    +0.000 A 
ATOM     18 CL   UNL     1      64.605  64.524  69.995  0.00  0.00    +0.000 Cl
ATOM     19  C   UNL     1      65.095  65.636  70.747  0.00  0.00    +0.000 A 
ATOM     20  C   UNL     1      64.955  66.284  71.240  0.00  0.00    +0.000 A 
ENDROOT
TORSDOF 0
ENDMDL
