MODEL 1
REMARK VINA RESULT:   -10.804      0.000      0.000
REMARK INTER + INTRA:         -10.804
REMARK INTER:                 -10.804
REMARK INTRA:                   0.000
REMARK UNBOUND:                 0.000
ROOT
REMARK  Name = chlorcyclizine
REMARK                            x       y       z     vdW  Elec       q    Type
REMARK                         _______ _______ _______ _____ _____    ______ ____
ATOM      1  C   UNL     1      59.475  66.832  70.198  0.00  0.00    +0.000 C 
ATOM      2  N   UNL     1      59.737  66.050  70.232  0.00  0.00    +0.000 NA
ATOM      3  C   UNL     1      59.704  65.574  69.559  0.00  0.00    +0.000 C 
ATOM      4  C   UNL     1      59.966  64.793  69.593  0.00  0.00    +0.000 C 
ATOM      5  N   UNL     1      60.260  64.486  70.301  0.00  0.00    +0.000 NA
ATOM      6  C   UNL     1      60.292  64.962  70.974  0.00  0.00    +0.000 C 
ATOM      7  C   UNL     1      60.030  65.744  70.940  0.00  0.00    +0.000 C 
ATOM      8  C   UNL     1      60.521  63.705  70.335  0.00  0.00    +0.000 C 
ATOM      9  C   UNL     1      60.488  63.229  69.662  0.00  0.00    +0.000 A 
ATOM     10  C   UNL     1      60.195  63.536  68.954  0.00  0.00    +0.000 A 
ATOM     11  C   UNL     1      60.162  63.060  68.281  0.00  0.00    +0.000 A 
ATOM     12  C   UNL     1      60.424  62.278  68.315  0.00  0.00    +0.000 A 
ATOM     13  C   UNL     1      60.717  61.972  69.023  0.00  0.00    +0.000 A 
ATOM     14  C   UNL     1      60.750  62.448  69.696  0.00  0.00    +0.000 A 
ATOM     15  C   UNL     1      60.815  63.399  71.042  0.00  0.00    +0.000 A 
ATOM     16  C   UNL     1      61.076  62.617  71.077  0.00  0.00    +0.000 A 
ATOM     17  C   UNL     1      61.370  62.312  71.784  0.00  0.00    +0.000 A 
ATOM     18  C   UNL     1      61.403  62.787  72.458  0.00  0.00    +0.000 A 
ATOM     19 CL   UNL     1      61.696  62.481  73.166  0.00  0.00    +0.000 Cl
ATOM     20  C   UNL     1      61.141  63.569  72.423  0.00  0.00    +0.000 A 
ATOM     21  C   UNL     1      60.847  63.875  71.715  0.00  0.00    +0.000 A 
ENDROOT
TORSDOF 0
ENDMDL
MODEL 2
REMARK VINA RESULT:   -10.684      1.292      2.738
REMARK INTER + INTRA:         -10.684
REMARK INTER:                 -10.684
REMARK INTRA:                   0.000
REMARK UNBOUND:                 0.000
ROOT
REMARK  Name = chlorcyclizine
REMARK                            x       y       z     vdW  Elec       q    Type
REMARK                         _______ _______ _______ _____ _____    ______ ____
ATOM      1  C   UNL     1      59.503  66.659  71.047  0.00  0.00    +0.000 C 
ATOM      2  N   UNL     1      59.787  65.885  70.991  0.00  0.00    +0.000 NA
ATOM      3  C   UNL     1      60.118  65.519  71.652  0.00  0.00    +0.000 C 
ATOM      4  C   UNL     1      60.402  64.746  71.595  0.00  0.00    +0.000 C 
ATOM      5  N   UNL     1      60.354  64.340  70.878  0.00  0.00    +0.000 NA
ATOM      6  C   UNL     1      60.023  64.708  70.218  0.00  0.00    +0.000 C 
ATOM      7  C   UNL     1      59.739  65.480  70.274  0.00  0.00    +0.000 C 
ATOM      8  C   UNL     1      60.638  63.568  70.821  0.00  0.00    +0.000 C 
ATOM      9  C   UNL     1      60.969  63.201  71.482  0.00  0.00    +0.000 A 
ATOM     10  C   UNL     1      61.016  63.607  72.199  0.00  0.00    +0.000 A 
ATOM     11  C   UNL     1      61.348  63.239  72.860  0.00  0.00    +0.000 A 
ATOM     12  C   UNL     1      61.632  62.467  72.803  0.00  0.00    +0.000 A 
ATOM     13  C   UNL     1      61.584  62.062  72.086  0.00  0.00    +0.000 A 
ATOM     14  C   UNL     1      61.253  62.428  71.426  0.00  0.00    +0.000 A 
ATOM     15  C   UNL     1      60.591  63.163  70.105  0.00  0.00    +0.000 A 
ATOM     16  C   UNL     1      60.874  62.390  70.048  0.00  0.00    +0.000 A 
ATOM     17  C   UNL     1      60.827  61.985  69.332  0.00  0.00    +0.000 A 
ATOM     18  C   UNL     1      60.496  62.352  68.671  0.00  0.00    +0.000 A 
ATOM     19 CL   UNL     1      60.448  61.947  67.954  0.00  0.00    +0.000 Cl
ATOM     20  C   UNL     1      60.212  63.124  68.727  0.00  0.00    +0.000 A 
ATOM     21  C   UNL     1      60.259  63.530  69.445  0.00  0.00    +0.000 A 
ENDROOT
TORSDOF 0
ENDMDL
MODEL 3
REMARK VINA RESULT:   -10.368      2.155      3.246
REMARK INTER + INTRA:         -10.368
REMARK INTER:                 -10.368
REMARK INTRA:                   0.000
REMARK UNBOUND:                 0.000
ROOT
REMARK  Name = chlorcyclizine
REMARK                            x       y       z     vdW  Elec       q    Type
REMARK                         _______ _______ _______ _____ _____    ______ ____
ATOM      1  C   UNL     1      62.968  65.997  69.848  0.00  0.00    +0.000 C 
ATOM      2  N   UNL     1      62.548  65.286  69.812  0.00  0.00    +0.000 NA
ATOM      3  C   UNL     1      62.512  64.795  70.474  0.00  0.00    +0.000 C 
ATOM      4  C   UNL     1      62.093  64.085  70.438  0.00  0.00    +0.000 C 
ATOM      5  N   UNL     1      61.711  63.866  69.740  0.00  0.00    +0.000 NA
ATOM      6  C   UNL     1      61.748  64.358  69.079  0.00  0.00    +0.000 C 
ATOM      7  C   UNL     1      62.167  65.068  69.115  0.00  0.00    +0.000 C 
ATOM      8  C   UNL     1      61.293  63.157  69.704  0.00  0.00    +0.000 C 
ATOM      9  C   UNL     1      61.256  62.666  70.366  0.00  0.00    +0.000 A 
ATOM     10  C   UNL     1      61.638  62.885  71.064  0.00  0.00    +0.000 A 
ATOM     11  C   UNL     1      61.601  62.393  71.726  0.00  0.00    +0.000 A 
ATOM     12  C   UNL     1      61.182  61.683  71.690  0.00  0.00    +0.000 A 
ATOM     13  C   UNL     1      60.801  61.465  70.991  0.00  0.00    +0.000 A 
ATOM     14  C   UNL     1      60.837  61.956  70.330  0.00  0.00    +0.000 A 
ATOM     15  C   UNL     1      60.911  62.938  69.007  0.00  0.00    +0.000 A 
ATOM     16  C   UNL     1      60.492  62.228  68.970  0.00  0.00    +0.000 A 
ATOM     17  C   UNL     1      60.111  62.010  68.273  0.00  0.00    +0.000 A 
ATOM     18  C   UNL     1      60.147  62.501  67.611  0.00  0.00    +0.000 A 
ATOM     19 CL   UNL     1      59.766  62.282  66.912  0.00  0.00    +0.000 Cl
ATOM     20  C   UNL     1      60.566  63.211  67.647  0.00  0.00    +0.000 A 
ATOM     21  C   UNL     1      60.948  63.430  68.345  0.00  0.00    +0.000 A 
ENDROOT
TORSDOF 0
ENDMDL
MODEL 4
REMARK VINA RESULT:   -10.239      2.238      3.391
REMARK INTER + INTRA:         -10.239
REMARK INTER:                 -10.239
REMARK INTRA:                   0.000
REMARK UNBOUND:                 0.000
ROOT
REMARK  Name = chlorcyclizine
REMARK                            x       y       z     vdW  Elec       q    Type
REMARK                         _______ _______ _______ _____ _____    ______ ____
ATOM      1  C   UNL     1      60.603  62.784  67.483  0.00  0.00    +0.000 C 
ATOM      2  N   UNL     1      60.951  63.036  68.188  0.00  0.00    +0.000 NA
ATOM      3  C   UNL     1      60.611  62.833  68.912  0.00  0.00    +0.000 C 
ATOM      4  C   UNL     1      60.959  63.085  69.616  0.00  0.00    +0.000 C 
ATOM      5  N   UNL     1      61.648  63.540  69.597  0.00  0.00    +0.000 NA
ATOM      6  C   UNL     1      61.987  63.743  68.873  0.00  0.00    +0.000 C 
ATOM      7  C   UNL     1      61.639  63.491  68.169  0.00  0.00    +0.000 C 
ATOM      8  C   UNL     1      61.995  63.792  70.300  0.00  0.00    +0.000 C 
ATOM      9  C   UNL     1      61.655  63.589  71.025  0.00  0.00    +0.000 A 
ATOM     10  C   UNL     1      60.967  63.135  71.044  0.00  0.00    +0.000 A 
ATOM     11  C   UNL     1      60.627  62.932  71.768  0.00  0.00    +0.000 A 
ATOM     12  C   UNL     1      60.976  63.184  72.473  0.00  0.00    +0.000 A 
ATOM     13  C   UNL     1      61.664  63.639  72.452  0.00  0.00    +0.000 A 
ATOM     14  C   UNL     1      62.003  63.842  71.729  0.00  0.00    +0.000 A 
ATOM     15  C   UNL     1      62.683  64.247  70.281  0.00  0.00    +0.000 A 
ATOM     16  C   UNL     1      63.031  64.499  70.985  0.00  0.00    +0.000 A 
ATOM     17  C   UNL     1      63.719  64.954  70.965  0.00  0.00    +0.000 A 
ATOM     18  C   UNL     1      64.059  65.157  70.242  0.00  0.00    +0.000 A 
ATOM     19 CL   UNL     1      64.747  65.612  70.221  0.00  0.00    +0.000 Cl
ATOM     20  C   UNL     1      63.711  64.905  69.537  0.00  0.00    +0.000 A 
ATOM     21  C   UNL     1      63.022  64.449  69.557  0.00  0.00    +0.000 A 
ENDROOT
TORSDOF 0
ENDMDL
MODEL 5
REMARK VINA RESULT:   -10.228      3.117      3.628
REMARK INTER + INTRA:         -10.228
REMARK INTER:                 -10.228
REMARK INTRA:                   0.000
REMARK UNBOUND:                 0.000
ROOT
REMARK  Name = chlorcyclizine
REMARK                            x       y       z     vdW  Elec       q    Type
REMARK                         _______ _______ _______ _____ _____    ______ ____
ATOM      1  C   UNL     1      62.726  68.357  73.194  0.00  0.00    +0.000 C 
ATOM      2  N   UNL     1      62.782  67.636  72.796  0.00  0.00    +0.000 NA
ATOM      3  C   UNL     1      63.336  67.540  72.192  0.00  0.00    +0.000 C 
ATOM      4  C   UNL     1      63.392  66.819  71.795  0.00  0.00    +0.000 C 
ATOM      5  N   UNL     1      62.893  66.194  72.001  0.00  0.00    +0.000 NA
ATOM      6  C   UNL     1      62.339  66.291  72.604  0.00  0.00    +0.000 C 
ATOM      7  C   UNL     1      62.283  67.012  73.002  0.00  0.00    +0.000 C 
ATOM      8  C   UNL     1      62.949  65.475  71.603  0.00  0.00    +0.000 C 
ATOM      9  C   UNL     1      63.503  65.378  70.999  0.00  0.00    +0.000 A 
ATOM     10  C   UNL     1      64.001  66.003  70.794  0.00  0.00    +0.000 A 
ATOM     11  C   UNL     1      64.555  65.906  70.190  0.00  0.00    +0.000 A 
ATOM     12  C   UNL     1      64.611  65.185  69.792  0.00  0.00    +0.000 A 
ATOM     13  C   UNL     1      64.112  64.561  69.998  0.00  0.00    +0.000 A 
ATOM     14  C   UNL     1      63.559  64.657  70.602  0.00  0.00    +0.000 A 
ATOM     15  C   UNL     1      62.451  64.850  71.809  0.00  0.00    +0.000 A 
ATOM     16  C   UNL     1      62.506  64.129  71.411  0.00  0.00    +0.000 A 
ATOM     17  C   UNL     1      62.008  63.505  71.617  0.00  0.00    +0.000 A 
ATOM     18  C   UNL     1      61.454  63.601  72.221  0.00  0.00    +0.000 A 
ATOM     19 CL   UNL     1      60.955  62.977  72.427  0.00  0.00    +0.000 Cl
ATOM     20  C   UNL     1      61.398  64.322  72.619  0.00  0.00    +0.000 A 
ATOM     21  C   UNL     1      61.897  64.947  72.413  0.00  0.00    +0.000 A 
ENDROOT
TORSDOF 0
ENDMDL
MODEL 6
REMARK VINA RESULT:   -10.164      1.407      3.060
REMARK INTER + INTRA:         -10.164
REMARK INTER:                 -10.164
REMARK INTRA:                   0.000
REMARK UNBOUND:                 0.000
ROOT
REMARK  Name = chlorcyclizine
REMARK                            x       y       z     vdW  Elec       q    Type
REMARK                         _______ _______ _______ _____ _____    ______ ____
ATOM      1  C   UNL     1      60.497  63.049  67.747  0.00  0.00    +0.000 C 
ATOM      2  N   UNL     1      60.501  63.218  68.556  0.00  0.00    +0.000 NA
ATOM      3  C   UNL     1      60.892  62.715  69.080  0.00  0.00    +0.000 C 
ATOM      4  C   UNL     1      60.896  62.884  69.888  0.00  0.00    +0.000 C 
ATOM      5  N   UNL     1      60.508  63.555  70.171  0.00  0.00    +0.000 NA
ATOM      6  C   UNL     1      60.117  64.057  69.646  0.00  0.00    +0.000 C 
ATOM      7  C   UNL     1      60.113  63.889  68.838  0.00  0.00    +0.000 C 
ATOM      8  C   UNL     1      60.511  63.724  70.978  0.00  0.00    +0.000 C 
ATOM      9  C   UNL     1      60.903  63.221  71.503  0.00  0.00    +0.000 A 
ATOM     10  C   UNL     1      61.290  62.550  71.219  0.00  0.00    +0.000 A 
ATOM     11  C   UNL     1      61.681  62.047  71.744  0.00  0.00    +0.000 A 
ATOM     12  C   UNL     1      61.685  62.216  72.552  0.00  0.00    +0.000 A 
ATOM     13  C   UNL     1      61.297  62.887  72.834  0.00  0.00    +0.000 A 
ATOM     14  C   UNL     1      60.906  63.390  72.310  0.00  0.00    +0.000 A 
ATOM     15  C   UNL     1      60.124  64.395  71.261  0.00  0.00    +0.000 A 
ATOM     16  C   UNL     1      60.128  64.563  72.069  0.00  0.00    +0.000 A 
ATOM     17  C   UNL     1      59.741  65.234  72.351  0.00  0.00    +0.000 A 
ATOM     18  C   UNL     1      59.349  65.737  71.827  0.00  0.00    +0.000 A 
ATOM     19 CL   UNL     1      58.961  66.409  72.109  0.00  0.00    +0.000 Cl
ATOM     20  C   UNL     1      59.346  65.568  71.019  0.00  0.00    +0.000 A 
ATOM     21  C   UNL     1      59.733  64.897  70.736  0.00  0.00    +0.000 A 
ENDROOT
TORSDOF 0
ENDMDL
MODEL 7
REMARK VINA RESULT:   -10.152      2.650      3.808
REMARK INTER + INTRA:         -10.152
REMARK INTER:                 -10.152
REMARK INTRA:                   0.000
REMARK UNBOUND:                 0.000
ROOT
REMARK  Name = chlorcyclizine
REMARK                            x       y       z     vdW  Elec       q    Type
REMARK                         _______ _______ _______ _____ _____    ______ ____
ATOM      1  C   UNL     1      57.899  66.868  73.222  0.00  0.00    +0.000 C 
ATOM      2  N   UNL     1      58.666  66.587  73.101  0.00  0.00    +0.000 NA
ATOM      3  C   UNL     1      59.300  67.114  73.078  0.00  0.00    +0.000 C 
ATOM      4  C   UNL     1      60.066  66.833  72.957  0.00  0.00    +0.000 C 
ATOM      5  N   UNL     1      60.198  66.024  72.859  0.00  0.00    +0.000 NA
ATOM      6  C   UNL     1      59.563  65.497  72.883  0.00  0.00    +0.000 C 
ATOM      7  C   UNL     1      58.797  65.779  73.004  0.00  0.00    +0.000 C 
ATOM      8  C   UNL     1      60.963  65.742  72.739  0.00  0.00    +0.000 C 
ATOM      9  C   UNL     1      61.598  66.270  72.715  0.00  0.00    +0.000 A 
ATOM     10  C   UNL     1      61.465  67.078  72.812  0.00  0.00    +0.000 A 
ATOM     11  C   UNL     1      62.100  67.605  72.788  0.00  0.00    +0.000 A 
ATOM     12  C   UNL     1      62.866  67.324  72.667  0.00  0.00    +0.000 A 
ATOM     13  C   UNL     1      62.997  66.515  72.570  0.00  0.00    +0.000 A 
ATOM     14  C   UNL     1      62.364  65.988  72.594  0.00  0.00    +0.000 A 
ATOM     15  C   UNL     1      61.095  64.934  72.641  0.00  0.00    +0.000 A 
ATOM     16  C   UNL     1      61.861  64.653  72.520  0.00  0.00    +0.000 A 
ATOM     17  C   UNL     1      61.993  63.845  72.423  0.00  0.00    +0.000 A 
ATOM     18  C   UNL     1      61.359  63.317  72.446  0.00  0.00    +0.000 A 
ATOM     19 CL   UNL     1      61.490  62.508  72.349  0.00  0.00    +0.000 Cl
ATOM     20  C   UNL     1      60.593  63.598  72.567  0.00  0.00    +0.000 A 
ATOM     21  C   UNL     1      60.461  64.408  72.665  0.00  0.00    +0.000 A 
ENDROOT
TORSDOF 0
ENDMDL
MODEL 8
REMARK VINA RESULT:   -10.118      2.641      3.743
REMARK INTER + INTRA:         -10.118
REMARK INTER:                 -10.118
REMARK INTRA:                   0.000
REMARK UNBOUND:                 0.000
ROOT
REMARK  Name = chlorcyclizine
REMARK                            x       y       z     vdW  Elec       q    Type
REMARK                         _______ _______ _______ _____ _____    ______ ____
ATOM      1  C   UNL     1      62.878  68.051  72.838  0.00  0.00    +0.000 C 
ATOM      2  N   UNL     1      62.321  67.442  72.813  0.00  0.00    +0.000 NA
ATOM      3  C   UNL     1      61.517  67.615  72.883  0.00  0.00    +0.000 C 
ATOM      4  C   UNL     1      60.961  67.007  72.857  0.00  0.00    +0.000 C 
ATOM      5  N   UNL     1      61.208  66.225  72.761  0.00  0.00    +0.000 NA
ATOM      6  C   UNL     1      62.011  66.053  72.691  0.00  0.00    +0.000 C 
ATOM      7  C   UNL     1      62.568  66.661  72.716  0.00  0.00    +0.000 C 
ATOM      8  C   UNL     1      60.652  65.617  72.735  0.00  0.00    +0.000 C 
ATOM      9  C   UNL     1      59.848  65.790  72.806  0.00  0.00    +0.000 A 
ATOM     10  C   UNL     1      59.601  66.571  72.902  0.00  0.00    +0.000 A 
ATOM     11  C   UNL     1      58.797  66.744  72.972  0.00  0.00    +0.000 A 
ATOM     12  C   UNL     1      58.240  66.135  72.946  0.00  0.00    +0.000 A 
ATOM     13  C   UNL     1      58.488  65.354  72.850  0.00  0.00    +0.000 A 
ATOM     14  C   UNL     1      59.291  65.181  72.780  0.00  0.00    +0.000 A 
ATOM     15  C   UNL     1      60.899  64.836  72.639  0.00  0.00    +0.000 A 
ATOM     16  C   UNL     1      60.342  64.227  72.613  0.00  0.00    +0.000 A 
ATOM     17  C   UNL     1      60.589  63.447  72.517  0.00  0.00    +0.000 A 
ATOM     18  C   UNL     1      61.393  63.273  72.447  0.00  0.00    +0.000 A 
ATOM     19 CL   UNL     1      61.641  62.492  72.351  0.00  0.00    +0.000 Cl
ATOM     20  C   UNL     1      61.949  63.882  72.473  0.00  0.00    +0.000 A 
ATOM     21  C   UNL     1      61.702  64.664  72.569  0.00  0.00    +0.000 A 
ENDROOT
TORSDOF 0
ENDMDL
MODEL 9
REMARK VINA RESULT:   -10.047      3.958      5.244
REMARK INTER + INTRA:         -10.047
REMARK INTER:                 -10.047
REMARK INTRA:                   0.000
REMARK UNBOUND:                 0.000
ROOT
REMARK  Name = chlorcyclizine
REMARK                            x       y       z     vdW  Elec       q    Type
REMARK                         _______ _______ _______ _____ _____    ______ ____
ATOM      1  C   UNL     1      62.161  63.476  70.601  0.00  0.00    +0.000 C 
ATOM      2  N   UNL     1      62.472  64.192  70.871  0.00  0.00    +0.000 NA
ATOM      3  C   UNL     1      62.023  64.677  71.364  0.00  0.00    +0.000 C 
ATOM      4  C   UNL     1      62.334  65.392  71.634  0.00  0.00    +0.000 C 
ATOM      5  N   UNL     1      63.094  65.622  71.409  0.00  0.00    +0.000 NA
ATOM      6  C   UNL     1      63.543  65.137  70.916  0.00  0.00    +0.000 C 
ATOM      7  C   UNL     1      63.232  64.422  70.646  0.00  0.00    +0.000 C 
ATOM      8  C   UNL     1      63.405  66.337  71.678  0.00  0.00    +0.000 C 
ATOM      9  C   UNL     1      62.956  66.822  72.172  0.00  0.00    +0.000 A 
ATOM     10  C   UNL     1      62.196  66.592  72.396  0.00  0.00    +0.000 A 
ATOM     11  C   UNL     1      61.747  67.078  72.890  0.00  0.00    +0.000 A 
ATOM     12  C   UNL     1      62.058  67.793  73.159  0.00  0.00    +0.000 A 
ATOM     13  C   UNL     1      62.818  68.022  72.934  0.00  0.00    +0.000 A 
ATOM     14  C   UNL     1      63.267  67.538  72.441  0.00  0.00    +0.000 A 
ATOM     15  C   UNL     1      64.165  66.567  71.454  0.00  0.00    +0.000 A 
ATOM     16  C   UNL     1      64.476  67.282  71.723  0.00  0.00    +0.000 A 
ATOM     17  C   UNL     1      65.235  67.512  71.499  0.00  0.00    +0.000 A 
ATOM     18  C   UNL     1      65.685  67.027  71.005  0.00  0.00    +0.000 A 
ATOM     19 CL   UNL     1      66.445  67.256  70.781  0.00  0.00    +0.000 Cl
ATOM     20  C   UNL     1      65.374  66.312  70.736  0.00  0.00    +0.000 A 
ATOM     21  C   UNL     1      64.613  66.081  70.961  0.00  0.00    +0.000 A 
ENDROOT
TORSDOF 0
ENDMDL
