MODEL 1
REMARK VINA RESULT:   -10.517      0.000      0.000
REMARK INTER + INTRA:         -10.517
REMARK INTER:                 -10.517
REMARK INTRA:                   0.000
REMARK UNBOUND:                 0.000
ROOT
REMARK  Name = chlormidazole
REMARK                            x       y       z     vdW  Elec       q    Type
REMARK                         _______ _______ _______ _____ _____    ______ ____
ATOM      1  C   UNL     1      61.789  63.497  67.957  0.00  0.00    +0.000 C 
ATOM      2  C   UNL     1      61.170  63.134  67.549  0.00  0.00    +0.000 A 
ATOM      3  N   UNL     1      60.390  63.072  67.806  0.00  0.00    +0.000 NA
ATOM      4  C   UNL     1      59.961  62.670  67.228  0.00  0.00    +0.000 A 
ATOM      5  C   UNL     1      60.478  62.483  66.612  0.00  0.00    +0.000 A 
ATOM      6  C   UNL     1      60.199  62.075  65.951  0.00  0.00    +0.000 A 
ATOM      7  C   UNL     1      59.406  61.855  65.905  0.00  0.00    +0.000 A 
ATOM      8  C   UNL     1      58.890  62.042  66.521  0.00  0.00    +0.000 A 
ATOM      9  C   UNL     1      59.167  62.449  67.183  0.00  0.00    +0.000 A 
ATOM     10  N   UNL     1      61.225  62.770  66.810  0.00  0.00    +0.000 N 
ATOM     11  C   UNL     1      61.906  62.704  66.351  0.00  0.00    +0.000 C 
ATOM     12  C   UNL     1      61.876  62.323  65.620  0.00  0.00    +0.000 A 
ATOM     13  C   UNL     1      62.558  62.257  65.160  0.00  0.00    +0.000 A 
ATOM     14  C   UNL     1      62.528  61.876  64.430  0.00  0.00    +0.000 A 
ATOM     15  C   UNL     1      61.816  61.560  64.159  0.00  0.00    +0.000 A 
ATOM     16 CL   UNL     1      61.786  61.178  63.427  0.00  0.00    +0.000 Cl
ATOM     17  C   UNL     1      61.134  61.625  64.618  0.00  0.00    +0.000 A 
ATOM     18  C   UNL     1      61.164  62.007  65.348  0.00  0.00    +0.000 A 
ENDROOT
TORSDOF 0
ENDMDL
MODEL 2
REMARK VINA RESULT:    -9.535      3.763      5.424
REMARK INTER + INTRA:          -9.535
REMARK INTER:                  -9.535
REMARK INTRA:                   0.000
REMARK UNBOUND:                 0.000
ROOT
REMARK  Name = chlormidazole
REMARK                            x       y       z     vdW  Elec       q    Type
REMARK                         _______ _______ _______ _____ _____    ______ ____
ATOM      1  C   UNL     1      59.957  65.449  69.512  0.00  0.00    +0.000 C 
ATOM      2  C   UNL     1      60.120  64.642  69.452  0.00  0.00    +0.000 A 
ATOM      3  N   UNL     1      60.029  64.178  68.776  0.00  0.00    +0.000 NA
ATOM      4  C   UNL     1      60.255  63.408  68.964  0.00  0.00    +0.000 A 
ATOM      5  C   UNL     1      60.485  63.395  69.756  0.00  0.00    +0.000 A 
ATOM      6  C   UNL     1      60.741  62.690  70.100  0.00  0.00    +0.000 A 
ATOM      7  C   UNL     1      60.766  61.998  69.652  0.00  0.00    +0.000 A 
ATOM      8  C   UNL     1      60.536  62.011  68.860  0.00  0.00    +0.000 A 
ATOM      9  C   UNL     1      60.280  62.715  68.515  0.00  0.00    +0.000 A 
ATOM     10  N   UNL     1      60.402  64.158  70.058  0.00  0.00    +0.000 N 
ATOM     11  C   UNL     1      60.570  64.395  70.829  0.00  0.00    +0.000 C 
ATOM     12  C   UNL     1      60.850  63.846  71.378  0.00  0.00    +0.000 A 
ATOM     13  C   UNL     1      61.019  64.083  72.150  0.00  0.00    +0.000 A 
ATOM     14  C   UNL     1      61.299  63.534  72.698  0.00  0.00    +0.000 A 
ATOM     15  C   UNL     1      61.410  62.748  72.474  0.00  0.00    +0.000 A 
ATOM     16 CL   UNL     1      61.690  62.199  73.024  0.00  0.00    +0.000 Cl
ATOM     17  C   UNL     1      61.241  62.511  71.703  0.00  0.00    +0.000 A 
ATOM     18  C   UNL     1      60.961  63.060  71.155  0.00  0.00    +0.000 A 
ENDROOT
TORSDOF 0
ENDMDL
MODEL 3
REMARK VINA RESULT:    -9.404      2.407      3.569
REMARK INTER + INTRA:          -9.404
REMARK INTER:                  -9.404
REMARK INTRA:                   0.000
REMARK UNBOUND:                 0.000
ROOT
REMARK  Name = chlormidazole
REMARK                            x       y       z     vdW  Elec       q    Type
REMARK                         _______ _______ _______ _____ _____    ______ ____
ATOM      1  C   UNL     1      62.698  64.366  69.984  0.00  0.00    +0.000 C 
ATOM      2  C   UNL     1      62.173  63.745  70.124  0.00  0.00    +0.000 A 
ATOM      3  N   UNL     1      62.057  63.361  70.844  0.00  0.00    +0.000 NA
ATOM      4  C   UNL     1      61.484  62.779  70.734  0.00  0.00    +0.000 A 
ATOM      5  C   UNL     1      61.246  62.802  69.944  0.00  0.00    +0.000 A 
ATOM      6  C   UNL     1      60.671  62.276  69.671  0.00  0.00    +0.000 A 
ATOM      7  C   UNL     1      60.336  61.727  70.187  0.00  0.00    +0.000 A 
ATOM      8  C   UNL     1      60.574  61.704  70.976  0.00  0.00    +0.000 A 
ATOM      9  C   UNL     1      61.148  62.229  71.250  0.00  0.00    +0.000 A 
ATOM     10  N   UNL     1      61.671  63.399  69.567  0.00  0.00    +0.000 N 
ATOM     11  C   UNL     1      61.607  63.613  68.773  0.00  0.00    +0.000 C 
ATOM     12  C   UNL     1      61.078  63.216  68.281  0.00  0.00    +0.000 A 
ATOM     13  C   UNL     1      61.014  63.430  67.486  0.00  0.00    +0.000 A 
ATOM     14  C   UNL     1      60.485  63.032  66.993  0.00  0.00    +0.000 A 
ATOM     15  C   UNL     1      60.021  62.420  67.295  0.00  0.00    +0.000 A 
ATOM     16 CL   UNL     1      59.492  62.022  66.801  0.00  0.00    +0.000 Cl
ATOM     17  C   UNL     1      60.085  62.206  68.088  0.00  0.00    +0.000 A 
ATOM     18  C   UNL     1      60.614  62.603  68.581  0.00  0.00    +0.000 A 
ENDROOT
TORSDOF 0
ENDMDL
MODEL 4
REMARK VINA RESULT:    -9.221      5.729      7.289
REMARK INTER + INTRA:          -9.221
REMARK INTER:                  -9.221
REMARK INTRA:                   0.000
REMARK UNBOUND:                 0.000
ROOT
REMARK  Name = chlormidazole
REMARK                            x       y       z     vdW  Elec       q    Type
REMARK                         _______ _______ _______ _____ _____    ______ ____
ATOM      1  C   UNL     1      62.485  66.131  72.744  0.00  0.00    +0.000 C 
ATOM      2  C   UNL     1      62.810  65.773  72.076  0.00  0.00    +0.000 A 
ATOM      3  N   UNL     1      62.539  65.081  71.717  0.00  0.00    +0.000 NA
ATOM      4  C   UNL     1      63.024  64.924  71.069  0.00  0.00    +0.000 A 
ATOM      5  C   UNL     1      63.595  65.519  71.027  0.00  0.00    +0.000 A 
ATOM      6  C   UNL     1      64.162  65.505  70.427  0.00  0.00    +0.000 A 
ATOM      7  C   UNL     1      64.158  64.898  69.870  0.00  0.00    +0.000 A 
ATOM      8  C   UNL     1      63.587  64.303  69.911  0.00  0.00    +0.000 A 
ATOM      9  C   UNL     1      63.020  64.316  70.510  0.00  0.00    +0.000 A 
ATOM     10  N   UNL     1      63.463  66.043  71.650  0.00  0.00    +0.000 N 
ATOM     11  C   UNL     1      63.905  66.719  71.817  0.00  0.00    +0.000 C 
ATOM     12  C   UNL     1      64.546  66.920  71.339  0.00  0.00    +0.000 A 
ATOM     13  C   UNL     1      64.989  67.597  71.506  0.00  0.00    +0.000 A 
ATOM     14  C   UNL     1      65.630  67.799  71.028  0.00  0.00    +0.000 A 
ATOM     15  C   UNL     1      65.829  67.324  70.383  0.00  0.00    +0.000 A 
ATOM     16 CL   UNL     1      66.471  67.526  69.905  0.00  0.00    +0.000 Cl
ATOM     17  C   UNL     1      65.387  66.648  70.216  0.00  0.00    +0.000 A 
ATOM     18  C   UNL     1      64.746  66.447  70.694  0.00  0.00    +0.000 A 
ENDROOT
TORSDOF 0
ENDMDL
MODEL 5
REMARK VINA RESULT:    -8.945      5.578      6.502
REMARK INTER + INTRA:          -8.945
REMARK INTER:                  -8.945
REMARK INTRA:                   0.000
REMARK UNBOUND:                 0.000
ROOT
REMARK  Name = chlormidazole
REMARK                            x       y       z     vdW  Elec       q    Type
REMARK                         _______ _______ _______ _____ _____    ______ ____
ATOM      1  C   UNL     1      62.214  65.860  72.881  0.00  0.00    +0.000 C 
ATOM      2  C   UNL     1      61.429  65.651  72.735  0.00  0.00    +0.000 A 
ATOM      3  N   UNL     1      60.766  66.116  72.890  0.00  0.00    +0.000 NA
ATOM      4  C   UNL     1      60.098  65.693  72.659  0.00  0.00    +0.000 A 
ATOM      5  C   UNL     1      60.347  64.965  72.361  0.00  0.00    +0.000 A 
ATOM      6  C   UNL     1      59.792  64.421  72.085  0.00  0.00    +0.000 A 
ATOM      7  C   UNL     1      58.988  64.603  72.108  0.00  0.00    +0.000 A 
ATOM      8  C   UNL     1      58.739  65.330  72.406  0.00  0.00    +0.000 A 
ATOM      9  C   UNL     1      59.293  65.876  72.682  0.00  0.00    +0.000 A 
ATOM     10  N   UNL     1      61.170  64.939  72.407  0.00  0.00    +0.000 N 
ATOM     11  C   UNL     1      61.650  64.312  72.169  0.00  0.00    +0.000 C 
ATOM     12  C   UNL     1      61.310  63.632  71.849  0.00  0.00    +0.000 A 
ATOM     13  C   UNL     1      61.790  63.004  71.610  0.00  0.00    +0.000 A 
ATOM     14  C   UNL     1      61.450  62.324  71.291  0.00  0.00    +0.000 A 
ATOM     15  C   UNL     1      60.631  62.271  71.210  0.00  0.00    +0.000 A 
ATOM     16 CL   UNL     1      60.291  61.589  70.890  0.00  0.00    +0.000 Cl
ATOM     17  C   UNL     1      60.151  62.897  71.449  0.00  0.00    +0.000 A 
ATOM     18  C   UNL     1      60.491  63.578  71.768  0.00  0.00    +0.000 A 
ENDROOT
TORSDOF 0
ENDMDL
MODEL 6
REMARK VINA RESULT:    -8.868      4.154      5.442
REMARK INTER + INTRA:          -8.868
REMARK INTER:                  -8.868
REMARK INTRA:                   0.000
REMARK UNBOUND:                 0.000
ROOT
REMARK  Name = chlormidazole
REMARK                            x       y       z     vdW  Elec       q    Type
REMARK                         _______ _______ _______ _____ _____    ______ ____
ATOM      1  C   UNL     1      60.025  65.976  69.085  0.00  0.00    +0.000 C 
ATOM      2  C   UNL     1      59.872  65.680  69.839  0.00  0.00    +0.000 A 
ATOM      3  N   UNL     1      59.581  66.110  70.479  0.00  0.00    +0.000 NA
ATOM      4  C   UNL     1      59.513  65.598  71.122  0.00  0.00    +0.000 A 
ATOM      5  C   UNL     1      59.762  64.850  70.879  0.00  0.00    +0.000 A 
ATOM      6  C   UNL     1      59.754  64.220  71.411  0.00  0.00    +0.000 A 
ATOM      7  C   UNL     1      59.497  64.337  72.186  0.00  0.00    +0.000 A 
ATOM      8  C   UNL     1      59.248  65.085  72.429  0.00  0.00    +0.000 A 
ATOM      9  C   UNL     1      59.256  65.716  71.897  0.00  0.00    +0.000 A 
ATOM     10  N   UNL     1      59.984  64.900  70.086  0.00  0.00    +0.000 N 
ATOM     11  C   UNL     1      60.268  64.280  69.622  0.00  0.00    +0.000 C 
ATOM     12  C   UNL     1      60.351  63.527  69.947  0.00  0.00    +0.000 A 
ATOM     13  C   UNL     1      60.635  62.906  69.482  0.00  0.00    +0.000 A 
ATOM     14  C   UNL     1      60.718  62.152  69.807  0.00  0.00    +0.000 A 
ATOM     15  C   UNL     1      60.517  62.019  70.596  0.00  0.00    +0.000 A 
ATOM     16 CL   UNL     1      60.600  61.264  70.920  0.00  0.00    +0.000 Cl
ATOM     17  C   UNL     1      60.233  62.638  71.060  0.00  0.00    +0.000 A 
ATOM     18  C   UNL     1      60.150  63.392  70.735  0.00  0.00    +0.000 A 
ENDROOT
TORSDOF 0
ENDMDL
MODEL 7
REMARK VINA RESULT:    -8.861      3.279      4.925
REMARK INTER + INTRA:          -8.861
REMARK INTER:                  -8.861
REMARK INTRA:                   0.000
REMARK UNBOUND:                 0.000
ROOT
REMARK  Name = chlormidazole
REMARK                            x       y       z     vdW  Elec       q    Type
REMARK                         _______ _______ _______ _____ _____    ______ ____
ATOM      1  C   UNL     1      60.770  62.695  67.846  0.00  0.00    +0.000 C 
ATOM      2  C   UNL     1      60.808  62.574  68.662  0.00  0.00    +0.000 A 
ATOM      3  N   UNL     1      60.394  62.002  69.087  0.00  0.00    +0.000 NA
ATOM      4  C   UNL     1      60.597  62.079  69.882  0.00  0.00    +0.000 A 
ATOM      5  C   UNL     1      61.138  62.698  69.949  0.00  0.00    +0.000 A 
ATOM      6  C   UNL     1      61.441  62.903  70.689  0.00  0.00    +0.000 A 
ATOM      7  C   UNL     1      61.204  62.489  71.361  0.00  0.00    +0.000 A 
ATOM      8  C   UNL     1      60.664  61.869  71.295  0.00  0.00    +0.000 A 
ATOM      9  C   UNL     1      60.360  61.664  70.556  0.00  0.00    +0.000 A 
ATOM     10  N   UNL     1      61.268  63.005  69.195  0.00  0.00    +0.000 N 
ATOM     11  C   UNL     1      61.770  63.631  69.006  0.00  0.00    +0.000 C 
ATOM     12  C   UNL     1      62.198  64.010  69.601  0.00  0.00    +0.000 A 
ATOM     13  C   UNL     1      62.700  64.637  69.412  0.00  0.00    +0.000 A 
ATOM     14  C   UNL     1      63.127  65.017  70.006  0.00  0.00    +0.000 A 
ATOM     15  C   UNL     1      63.052  64.770  70.790  0.00  0.00    +0.000 A 
ATOM     16 CL   UNL     1      63.480  65.150  71.385  0.00  0.00    +0.000 Cl
ATOM     17  C   UNL     1      62.550  64.144  70.979  0.00  0.00    +0.000 A 
ATOM     18  C   UNL     1      62.123  63.764  70.384  0.00  0.00    +0.000 A 
ENDROOT
TORSDOF 0
ENDMDL
MODEL 8
REMARK VINA RESULT:    -8.804      3.493      5.067
REMARK INTER + INTRA:          -8.804
REMARK INTER:                  -8.804
REMARK INTRA:                   0.000
REMARK UNBOUND:                 0.000
ROOT
REMARK  Name = chlormidazole
REMARK                            x       y       z     vdW  Elec       q    Type
REMARK                         _______ _______ _______ _____ _____    ______ ____
ATOM      1  C   UNL     1      61.566  62.759  72.911  0.00  0.00    +0.000 C 
ATOM      2  C   UNL     1      61.688  63.261  72.269  0.00  0.00    +0.000 A 
ATOM      3  N   UNL     1      62.051  64.001  72.294  0.00  0.00    +0.000 NA
ATOM      4  C   UNL     1      62.056  64.309  71.529  0.00  0.00    +0.000 A 
ATOM      5  C   UNL     1      61.696  63.759  71.030  0.00  0.00    +0.000 A 
ATOM      6  C   UNL     1      61.622  63.919  70.224  0.00  0.00    +0.000 A 
ATOM      7  C   UNL     1      61.907  64.629  69.917  0.00  0.00    +0.000 A 
ATOM      8  C   UNL     1      62.267  65.179  70.415  0.00  0.00    +0.000 A 
ATOM      9  C   UNL     1      62.342  65.020  71.221  0.00  0.00    +0.000 A 
ATOM     10  N   UNL     1      61.468  63.111  71.487  0.00  0.00    +0.000 N 
ATOM     11  C   UNL     1      61.089  62.433  71.212  0.00  0.00    +0.000 C 
ATOM     12  C   UNL     1      60.903  62.360  70.412  0.00  0.00    +0.000 A 
ATOM     13  C   UNL     1      60.523  61.682  70.136  0.00  0.00    +0.000 A 
ATOM     14  C   UNL     1      60.337  61.609  69.336  0.00  0.00    +0.000 A 
ATOM     15  C   UNL     1      60.532  62.215  68.811  0.00  0.00    +0.000 A 
ATOM     16 CL   UNL     1      60.346  62.142  68.010  0.00  0.00    +0.000 Cl
ATOM     17  C   UNL     1      60.912  62.893  69.086  0.00  0.00    +0.000 A 
ATOM     18  C   UNL     1      61.097  62.966  69.886  0.00  0.00    +0.000 A 
ENDROOT
TORSDOF 0
ENDMDL
MODEL 9
REMARK VINA RESULT:    -8.605      5.683      6.916
REMARK INTER + INTRA:          -8.605
REMARK INTER:                  -8.605
REMARK INTRA:                   0.000
REMARK UNBOUND:                 0.000
ROOT
REMARK  Name = chlormidazole
REMARK                            x       y       z     vdW  Elec       q    Type
REMARK                         _______ _______ _______ _____ _____    ______ ____
ATOM      1  C   UNL     1      64.351  65.073  69.518  0.00  0.00    +0.000 C 
ATOM      2  C   UNL     1      64.032  65.417  70.196  0.00  0.00    +0.000 A 
ATOM      3  N   UNL     1      64.219  66.162  70.497  0.00  0.00    +0.000 NA
ATOM      4  C   UNL     1      63.773  66.281  71.179  0.00  0.00    +0.000 A 
ATOM      5  C   UNL     1      63.309  65.610  71.301  0.00  0.00    +0.000 A 
ATOM      6  C   UNL     1      62.801  65.572  71.951  0.00  0.00    +0.000 A 
ATOM      7  C   UNL     1      62.756  66.205  72.477  0.00  0.00    +0.000 A 
ATOM      8  C   UNL     1      63.220  66.877  72.355  0.00  0.00    +0.000 A 
ATOM      9  C   UNL     1      63.728  66.915  71.706  0.00  0.00    +0.000 A 
ATOM     10  N   UNL     1      63.469  65.075  70.694  0.00  0.00    +0.000 N 
ATOM     11  C   UNL     1      63.127  64.331  70.601  0.00  0.00    +0.000 C 
ATOM     12  C   UNL     1      62.569  64.062  71.145  0.00  0.00    +0.000 A 
ATOM     13  C   UNL     1      62.226  63.317  71.052  0.00  0.00    +0.000 A 
ATOM     14  C   UNL     1      61.668  63.049  71.597  0.00  0.00    +0.000 A 
ATOM     15  C   UNL     1      61.453  63.525  72.235  0.00  0.00    +0.000 A 
ATOM     16 CL   UNL     1      60.894  63.255  72.780  0.00  0.00    +0.000 Cl
ATOM     17  C   UNL     1      61.795  64.269  72.329  0.00  0.00    +0.000 A 
ATOM     18  C   UNL     1      62.353  64.538  71.784  0.00  0.00    +0.000 A 
ENDROOT
TORSDOF 0
ENDMDL
