MODEL 1
REMARK VINA RESULT:    -3.332      0.000      0.000
REMARK INTER + INTRA:          -3.332
REMARK INTER:                  -3.332
REMARK INTRA:                   0.000
REMARK UNBOUND:                 0.000
ROOT
REMARK  Name = chloroform
REMARK                            x       y       z     vdW  Elec       q    Type
REMARK                         _______ _______ _______ _____ _____    ______ ____
ATOM      1 CL   UNL     1      67.027  78.128  59.787  0.00  0.00    +0.000 Cl
ATOM      2  C   UNL     1      66.268  77.806  59.745  0.00  0.00    +0.000 C 
ATOM      3 CL   UNL     1      66.093  77.107  60.148  0.00  0.00    +0.000 Cl
ATOM      4 CL   UNL     1      65.684  78.183  59.301  0.00  0.00    +0.000 Cl
ENDROOT
TORSDOF 0
ENDMDL
MODEL 2
REMARK VINA RESULT:    -3.045     17.005     17.266
REMARK INTER + INTRA:          -3.045
REMARK INTER:                  -3.045
REMARK INTRA:                   0.000
REMARK UNBOUND:                 0.000
ROOT
REMARK  Name = chloroform
REMARK                            x       y       z     vdW  Elec       q    Type
REMARK                         _______ _______ _______ _____ _____    ______ ____
ATOM      1 CL   UNL     1      62.401  61.662  63.675  0.00  0.00    +0.000 Cl
ATOM      2  C   UNL     1      62.086  61.750  64.433  0.00  0.00    +0.000 C 
ATOM      3 CL   UNL     1      61.363  61.399  64.622  0.00  0.00    +0.000 Cl
ATOM      4 CL   UNL     1      62.492  62.188  65.001  0.00  0.00    +0.000 Cl
ENDROOT
TORSDOF 0
ENDMDL
MODEL 3
REMARK VINA RESULT:    -2.829     14.193     14.762
REMARK INTER + INTRA:          -2.829
REMARK INTER:                  -2.829
REMARK INTRA:                   0.000
REMARK UNBOUND:                 0.000
ROOT
REMARK  Name = chloroform
REMARK                            x       y       z     vdW  Elec       q    Type
REMARK                         _______ _______ _______ _____ _____    ______ ____
ATOM      1 CL   UNL     1      65.439  66.878  69.826  0.00  0.00    +0.000 Cl
ATOM      2  C   UNL     1      65.970  67.408  70.170  0.00  0.00    +0.000 C 
ATOM      3 CL   UNL     1      66.140  67.358  70.976  0.00  0.00    +0.000 Cl
ATOM      4 CL   UNL     1      66.331  67.988  69.707  0.00  0.00    +0.000 Cl
ENDROOT
TORSDOF 0
ENDMDL
MODEL 4
REMARK VINA RESULT:    -2.721     14.940     15.161
REMARK INTER + INTRA:          -2.721
REMARK INTER:                  -2.721
REMARK INTRA:                   0.000
REMARK UNBOUND:                 0.000
ROOT
REMARK  Name = chloroform
REMARK                            x       y       z     vdW  Elec       q    Type
REMARK                         _______ _______ _______ _____ _____    ______ ____
ATOM      1 CL   UNL     1      77.778  67.354  56.378  0.00  0.00    +0.000 Cl
ATOM      2  C   UNL     1      77.011  67.646  56.460  0.00  0.00    +0.000 C 
ATOM      3 CL   UNL     1      76.364  67.150  56.330  0.00  0.00    +0.000 Cl
ATOM      4 CL   UNL     1      76.890  68.434  56.673  0.00  0.00    +0.000 Cl
ENDROOT
TORSDOF 0
ENDMDL
MODEL 5
REMARK VINA RESULT:    -2.680     13.353     13.474
REMARK INTER + INTRA:          -2.680
REMARK INTER:                  -2.680
REMARK INTRA:                   0.000
REMARK UNBOUND:                 0.000
ROOT
REMARK  Name = chloroform
REMARK                            x       y       z     vdW  Elec       q    Type
REMARK                         _______ _______ _______ _____ _____    ______ ____
ATOM      1 CL   UNL     1      71.458  67.629  52.927  0.00  0.00    +0.000 Cl
ATOM      2  C   UNL     1      72.250  67.852  52.989  0.00  0.00    +0.000 C 
ATOM      3 CL   UNL     1      72.748  67.462  53.520  0.00  0.00    +0.000 Cl
ATOM      4 CL   UNL     1      72.545  68.464  52.521  0.00  0.00    +0.000 Cl
ENDROOT
TORSDOF 0
ENDMDL
MODEL 6
REMARK VINA RESULT:    -2.653     11.696     11.905
REMARK INTER + INTRA:          -2.653
REMARK INTER:                  -2.653
REMARK INTRA:                   0.000
REMARK UNBOUND:                 0.000
ROOT
REMARK  Name = chloroform
REMARK                            x       y       z     vdW  Elec       q    Type
REMARK                         _______ _______ _______ _____ _____    ______ ____
ATOM      1 CL   UNL     1      71.780  78.859  49.205  0.00  0.00    +0.000 Cl
ATOM      2  C   UNL     1      71.060  78.580  48.912  0.00  0.00    +0.000 C 
ATOM      3 CL   UNL     1      70.956  78.483  48.099  0.00  0.00    +0.000 Cl
ATOM      4 CL   UNL     1      70.445  78.400  49.431  0.00  0.00    +0.000 Cl
ENDROOT
TORSDOF 0
ENDMDL
MODEL 7
REMARK VINA RESULT:    -2.612     19.896     20.276
REMARK INTER + INTRA:          -2.612
REMARK INTER:                  -2.612
REMARK INTRA:                   0.000
REMARK UNBOUND:                 0.000
ROOT
REMARK  Name = chloroform
REMARK                            x       y       z     vdW  Elec       q    Type
REMARK                         _______ _______ _______ _____ _____    ______ ____
ATOM      1 CL   UNL     1      61.225  62.593  71.822  0.00  0.00    +0.000 Cl
ATOM      2  C   UNL     1      61.466  62.895  72.552  0.00  0.00    +0.000 C 
ATOM      3 CL   UNL     1      61.397  63.703  72.708  0.00  0.00    +0.000 Cl
ATOM      4 CL   UNL     1      61.776  62.389  73.125  0.00  0.00    +0.000 Cl
ENDROOT
TORSDOF 0
ENDMDL
MODEL 8
REMARK VINA RESULT:    -2.482     13.954     14.234
REMARK INTER + INTRA:          -2.482
REMARK INTER:                  -2.482
REMARK INTRA:                   0.000
REMARK UNBOUND:                 0.000
ROOT
REMARK  Name = chloroform
REMARK                            x       y       z     vdW  Elec       q    Type
REMARK                         _______ _______ _______ _____ _____    ______ ____
ATOM      1 CL   UNL     1      74.880  66.650  57.409  0.00  0.00    +0.000 Cl
ATOM      2  C   UNL     1      75.450  67.211  57.614  0.00  0.00    +0.000 C 
ATOM      3 CL   UNL     1      76.156  67.257  57.187  0.00  0.00    +0.000 Cl
ATOM      4 CL   UNL     1      75.315  67.726  58.244  0.00  0.00    +0.000 Cl
ENDROOT
TORSDOF 0
ENDMDL
MODEL 9
REMARK VINA RESULT:    -2.199     10.885     11.281
REMARK INTER + INTRA:          -2.199
REMARK INTER:                  -2.199
REMARK INTRA:                   0.000
REMARK UNBOUND:                 0.000
ROOT
REMARK  Name = chloroform
REMARK                            x       y       z     vdW  Elec       q    Type
REMARK                         _______ _______ _______ _____ _____    ______ ____
ATOM      1 CL   UNL     1      63.665  76.069  48.583  0.00  0.00    +0.000 Cl
ATOM      2  C   UNL     1      63.562  76.836  48.871  0.00  0.00    +0.000 C 
ATOM      3 CL   UNL     1      63.524  76.969  49.685  0.00  0.00    +0.000 Cl
ATOM      4 CL   UNL     1      63.497  77.469  48.345  0.00  0.00    +0.000 Cl
ENDROOT
TORSDOF 0
ENDMDL
