MODEL 1
REMARK VINA RESULT:   -14.436      0.000      0.000
REMARK INTER + INTRA:         -14.436
REMARK INTER:                 -14.436
REMARK INTRA:                   0.000
REMARK UNBOUND:                 0.000
ROOT
REMARK  Name = chlormadinone
REMARK                            x       y       z     vdW  Elec       q    Type
REMARK                         _______ _______ _______ _____ _____    ______ ____
ATOM      1  C   UNL     1      62.306  64.233  68.990  0.00  0.00    +0.000 C 
ATOM      2  C   UNL     1      61.627  63.780  68.871  0.00  0.00    +0.000 C 
ATOM      3  O   UNL     1      61.054  63.734  69.462  0.00  0.00    +0.000 OA
ATOM      4  O   UNL     1      61.522  63.372  68.162  0.00  0.00    +0.000 OA
ATOM      5  C   UNL     1      60.843  62.919  68.044  0.00  0.00    +0.000 C 
ATOM      6  C   UNL     1      60.123  62.518  68.083  0.00  0.00    +0.000 C 
ATOM      7  C   UNL     1      60.018  62.110  67.373  0.00  0.00    +0.000 C 
ATOM      8  C   UNL     1      60.673  62.259  66.895  0.00  0.00    +0.000 C 
ATOM      9  C   UNL     1      60.871  62.004  66.136  0.00  0.00    +0.000 C 
ATOM     10  C   UNL     1      60.362  61.505  65.721  0.00  0.00    +0.000 C 
ATOM     11  C   UNL     1      60.560  61.250  64.962  0.00  0.00    +0.000 C 
ATOM     12 CL   UNL     1      60.050  60.751  64.549  0.00  0.00    +0.000 Cl
ATOM     13  C   UNL     1      61.268  61.495  64.618  0.00  0.00    +0.000 C 
ATOM     14  C   UNL     1      61.466  61.240  63.858  0.00  0.00    +0.000 C 
ATOM     15  C   UNL     1      62.174  61.485  63.513  0.00  0.00    +0.000 C 
ATOM     16  O   UNL     1      62.373  61.230  62.754  0.00  0.00    +0.000 OA
ATOM     17  C   UNL     1      62.685  61.984  63.927  0.00  0.00    +0.000 C 
ATOM     18  C   UNL     1      62.486  62.239  64.686  0.00  0.00    +0.000 C 
ATOM     19  C   UNL     1      61.778  61.994  65.031  0.00  0.00    +0.000 C 
ATOM     20  C   UNL     1      62.288  62.494  65.445  0.00  0.00    +0.000 C 
ATOM     21  C   UNL     1      61.580  62.249  65.790  0.00  0.00    +0.000 C 
ATOM     22  C   UNL     1      62.090  62.748  66.204  0.00  0.00    +0.000 C 
ATOM     23  C   UNL     1      61.892  63.003  66.963  0.00  0.00    +0.000 C 
ATOM     24  C   UNL     1      61.183  62.758  67.309  0.00  0.00    +0.000 C 
ATOM     25  C   UNL     1      61.636  63.256  67.787  0.00  0.00    +0.000 C 
ATOM     26  C   UNL     1      60.645  63.173  68.803  0.00  0.00    +0.000 C 
ATOM     27  C   UNL     1      59.937  62.929  69.148  0.00  0.00    +0.000 C 
ATOM     28  O   UNL     1      60.750  63.581  69.512  0.00  0.00    +0.000 OA
ENDROOT
TORSDOF 0
ENDMDL
MODEL 2
REMARK VINA RESULT:   -13.762      5.042      6.149
REMARK INTER + INTRA:         -13.762
REMARK INTER:                 -13.762
REMARK INTRA:                   0.000
REMARK UNBOUND:                 0.000
ROOT
REMARK  Name = chlormadinone
REMARK                            x       y       z     vdW  Elec       q    Type
REMARK                         _______ _______ _______ _____ _____    ______ ____
ATOM      1  C   UNL     1      60.460  67.106  73.221  0.00  0.00    +0.000 C 
ATOM      2  C   UNL     1      60.176  66.824  72.500  0.00  0.00    +0.000 C 
ATOM      3  O   UNL     1      59.754  67.324  71.999  0.00  0.00    +0.000 OA
ATOM      4  O   UNL     1      60.314  66.040  72.280  0.00  0.00    +0.000 OA
ATOM      5  C   UNL     1      60.031  65.759  71.559  0.00  0.00    +0.000 C 
ATOM      6  C   UNL     1      59.686  65.636  70.819  0.00  0.00    +0.000 C 
ATOM      7  C   UNL     1      59.824  64.853  70.600  0.00  0.00    +0.000 C 
ATOM      8  C   UNL     1      60.255  64.491  71.203  0.00  0.00    +0.000 C 
ATOM      9  C   UNL     1      60.547  63.725  71.289  0.00  0.00    +0.000 C 
ATOM     10  C   UNL     1      60.420  63.165  70.697  0.00  0.00    +0.000 C 
ATOM     11  C   UNL     1      60.712  62.399  70.783  0.00  0.00    +0.000 C 
ATOM     12 CL   UNL     1      60.585  61.839  70.190  0.00  0.00    +0.000 Cl
ATOM     13  C   UNL     1      61.132  62.192  71.462  0.00  0.00    +0.000 C 
ATOM     14  C   UNL     1      61.425  61.425  71.548  0.00  0.00    +0.000 C 
ATOM     15  C   UNL     1      61.844  61.218  72.228  0.00  0.00    +0.000 C 
ATOM     16  O   UNL     1      62.137  60.452  72.314  0.00  0.00    +0.000 OA
ATOM     17  C   UNL     1      61.972  61.777  72.821  0.00  0.00    +0.000 C 
ATOM     18  C   UNL     1      61.680  62.544  72.734  0.00  0.00    +0.000 C 
ATOM     19  C   UNL     1      61.260  62.751  72.055  0.00  0.00    +0.000 C 
ATOM     20  C   UNL     1      61.387  63.311  72.648  0.00  0.00    +0.000 C 
ATOM     21  C   UNL     1      60.967  63.518  71.969  0.00  0.00    +0.000 C 
ATOM     22  C   UNL     1      61.095  64.077  72.562  0.00  0.00    +0.000 C 
ATOM     23  C   UNL     1      60.803  64.843  72.475  0.00  0.00    +0.000 C 
ATOM     24  C   UNL     1      60.382  65.051  71.796  0.00  0.00    +0.000 C 
ATOM     25  C   UNL     1      60.466  65.666  72.340  0.00  0.00    +0.000 C 
ATOM     26  C   UNL     1      59.738  66.525  71.473  0.00  0.00    +0.000 C 
ATOM     27  C   UNL     1      59.318  66.732  70.793  0.00  0.00    +0.000 C 
ATOM     28  O   UNL     1      59.600  67.308  71.692  0.00  0.00    +0.000 OA
ENDROOT
TORSDOF 0
ENDMDL
MODEL 3
REMARK VINA RESULT:   -13.580      5.144      6.671
REMARK INTER + INTRA:         -13.580
REMARK INTER:                 -13.580
REMARK INTRA:                   0.000
REMARK UNBOUND:                 0.000
ROOT
REMARK  Name = chlormadinone
REMARK                            x       y       z     vdW  Elec       q    Type
REMARK                         _______ _______ _______ _____ _____    ______ ____
ATOM      1  C   UNL     1      61.566  62.501  70.711  0.00  0.00    +0.000 C 
ATOM      2  C   UNL     1      61.475  63.064  71.307  0.00  0.00    +0.000 C 
ATOM      3  O   UNL     1      60.893  62.964  71.883  0.00  0.00    +0.000 OA
ATOM      4  O   UNL     1      61.966  63.727  71.327  0.00  0.00    +0.000 OA
ATOM      5  C   UNL     1      61.874  64.289  71.922  0.00  0.00    +0.000 C 
ATOM      6  C   UNL     1      61.656  64.749  72.572  0.00  0.00    +0.000 C 
ATOM      7  C   UNL     1      62.147  65.412  72.592  0.00  0.00    +0.000 C 
ATOM      8  C   UNL     1      62.668  65.362  71.955  0.00  0.00    +0.000 C 
ATOM      9  C   UNL     1      63.275  65.859  71.698  0.00  0.00    +0.000 C 
ATOM     10  C   UNL     1      63.444  66.553  72.111  0.00  0.00    +0.000 C 
ATOM     11  C   UNL     1      64.050  67.049  71.854  0.00  0.00    +0.000 C 
ATOM     12 CL   UNL     1      64.219  67.742  72.268  0.00  0.00    +0.000 Cl
ATOM     13  C   UNL     1      64.488  66.851  71.183  0.00  0.00    +0.000 C 
ATOM     14  C   UNL     1      65.095  67.349  70.926  0.00  0.00    +0.000 C 
ATOM     15  C   UNL     1      65.532  67.152  70.256  0.00  0.00    +0.000 C 
ATOM     16  O   UNL     1      66.139  67.648  69.999  0.00  0.00    +0.000 OA
ATOM     17  C   UNL     1      65.364  66.458  69.842  0.00  0.00    +0.000 C 
ATOM     18  C   UNL     1      64.757  65.962  70.099  0.00  0.00    +0.000 C 
ATOM     19  C   UNL     1      64.319  66.158  70.770  0.00  0.00    +0.000 C 
ATOM     20  C   UNL     1      64.151  65.465  70.356  0.00  0.00    +0.000 C 
ATOM     21  C   UNL     1      63.713  65.662  71.027  0.00  0.00    +0.000 C 
ATOM     22  C   UNL     1      63.544  64.968  70.613  0.00  0.00    +0.000 C 
ATOM     23  C   UNL     1      62.938  64.472  70.870  0.00  0.00    +0.000 C 
ATOM     24  C   UNL     1      62.500  64.669  71.541  0.00  0.00    +0.000 C 
ATOM     25  C   UNL     1      62.269  63.960  71.185  0.00  0.00    +0.000 C 
ATOM     26  C   UNL     1      61.268  63.793  72.180  0.00  0.00    +0.000 C 
ATOM     27  C   UNL     1      60.830  63.990  72.851  0.00  0.00    +0.000 C 
ATOM     28  O   UNL     1      60.777  63.130  72.160  0.00  0.00    +0.000 OA
ENDROOT
TORSDOF 0
ENDMDL
MODEL 4
REMARK VINA RESULT:   -13.354      3.155      4.925
REMARK INTER + INTRA:         -13.354
REMARK INTER:                 -13.354
REMARK INTRA:                   0.000
REMARK UNBOUND:                 0.000
ROOT
REMARK  Name = chlormadinone
REMARK                            x       y       z     vdW  Elec       q    Type
REMARK                         _______ _______ _______ _____ _____    ______ ____
ATOM      1  C   UNL     1      59.379  67.522  71.029  0.00  0.00    +0.000 C 
ATOM      2  C   UNL     1      59.400  66.881  71.549  0.00  0.00    +0.000 C 
ATOM      3  O   UNL     1      59.237  66.994  72.349  0.00  0.00    +0.000 OA
ATOM      4  O   UNL     1      59.584  66.128  71.266  0.00  0.00    +0.000 OA
ATOM      5  C   UNL     1      59.606  65.488  71.785  0.00  0.00    +0.000 C 
ATOM      6  C   UNL     1      59.585  64.964  72.423  0.00  0.00    +0.000 C 
ATOM      7  C   UNL     1      59.769  64.211  72.140  0.00  0.00    +0.000 C 
ATOM      8  C   UNL     1      59.904  64.269  71.329  0.00  0.00    +0.000 C 
ATOM      9  C   UNL     1      60.106  63.706  70.761  0.00  0.00    +0.000 C 
ATOM     10  C   UNL     1      60.207  62.916  70.980  0.00  0.00    +0.000 C 
ATOM     11  C   UNL     1      60.409  62.353  70.413  0.00  0.00    +0.000 C 
ATOM     12 CL   UNL     1      60.510  61.564  70.633  0.00  0.00    +0.000 Cl
ATOM     13  C   UNL     1      60.509  62.579  69.626  0.00  0.00    +0.000 C 
ATOM     14  C   UNL     1      60.711  62.014  69.058  0.00  0.00    +0.000 C 
ATOM     15  C   UNL     1      60.812  62.240  68.271  0.00  0.00    +0.000 C 
ATOM     16  O   UNL     1      61.013  61.676  67.704  0.00  0.00    +0.000 OA
ATOM     17  C   UNL     1      60.711  63.029  68.051  0.00  0.00    +0.000 C 
ATOM     18  C   UNL     1      60.509  63.592  68.619  0.00  0.00    +0.000 C 
ATOM     19  C   UNL     1      60.408  63.367  69.406  0.00  0.00    +0.000 C 
ATOM     20  C   UNL     1      60.307  64.156  69.186  0.00  0.00    +0.000 C 
ATOM     21  C   UNL     1      60.206  63.931  69.974  0.00  0.00    +0.000 C 
ATOM     22  C   UNL     1      60.105  64.720  69.754  0.00  0.00    +0.000 C 
ATOM     23  C   UNL     1      59.904  65.283  70.322  0.00  0.00    +0.000 C 
ATOM     24  C   UNL     1      59.803  65.058  71.109  0.00  0.00    +0.000 C 
ATOM     25  C   UNL     1      59.684  65.863  70.972  0.00  0.00    +0.000 C 
ATOM     26  C   UNL     1      59.404  66.051  72.353  0.00  0.00    +0.000 C 
ATOM     27  C   UNL     1      59.303  65.826  73.140  0.00  0.00    +0.000 C 
ATOM     28  O   UNL     1      59.219  66.805  72.635  0.00  0.00    +0.000 OA
ENDROOT
TORSDOF 0
ENDMDL
MODEL 5
REMARK VINA RESULT:   -13.290      5.037      6.977
REMARK INTER + INTRA:         -13.290
REMARK INTER:                 -13.290
REMARK INTRA:                   0.000
REMARK UNBOUND:                 0.000
ROOT
REMARK  Name = chlormadinone
REMARK                            x       y       z     vdW  Elec       q    Type
REMARK                         _______ _______ _______ _____ _____    ______ ____
ATOM      1  C   UNL     1      66.726  66.641  72.463  0.00  0.00    +0.000 C 
ATOM      2  C   UNL     1      66.488  66.845  71.700  0.00  0.00    +0.000 C 
ATOM      3  O   UNL     1      66.985  67.292  71.218  0.00  0.00    +0.000 OA
ATOM      4  O   UNL     1      65.751  66.601  71.420  0.00  0.00    +0.000 OA
ATOM      5  C   UNL     1      65.513  66.804  70.657  0.00  0.00    +0.000 C 
ATOM      6  C   UNL     1      65.427  67.086  69.886  0.00  0.00    +0.000 C 
ATOM      7  C   UNL     1      64.690  66.842  69.606  0.00  0.00    +0.000 C 
ATOM      8  C   UNL     1      64.321  66.409  70.203  0.00  0.00    +0.000 C 
ATOM      9  C   UNL     1      63.588  66.033  70.239  0.00  0.00    +0.000 C 
ATOM     10  C   UNL     1      63.079  66.056  69.589  0.00  0.00    +0.000 C 
ATOM     11  C   UNL     1      62.346  65.680  69.626  0.00  0.00    +0.000 C 
ATOM     12 CL   UNL     1      61.838  65.704  68.976  0.00  0.00    +0.000 Cl
ATOM     13  C   UNL     1      62.121  65.281  70.312  0.00  0.00    +0.000 C 
ATOM     14  C   UNL     1      61.386  64.905  70.347  0.00  0.00    +0.000 C 
ATOM     15  C   UNL     1      61.162  64.506  71.033  0.00  0.00    +0.000 C 
ATOM     16  O   UNL     1      60.428  64.130  71.070  0.00  0.00    +0.000 OA
ATOM     17  C   UNL     1      61.670  64.483  71.683  0.00  0.00    +0.000 C 
ATOM     18  C   UNL     1      62.403  64.859  71.647  0.00  0.00    +0.000 C 
ATOM     19  C   UNL     1      62.629  65.258  70.961  0.00  0.00    +0.000 C 
ATOM     20  C   UNL     1      63.137  65.234  71.611  0.00  0.00    +0.000 C 
ATOM     21  C   UNL     1      63.362  65.634  70.925  0.00  0.00    +0.000 C 
ATOM     22  C   UNL     1      63.870  65.610  71.575  0.00  0.00    +0.000 C 
ATOM     23  C   UNL     1      64.603  65.986  71.538  0.00  0.00    +0.000 C 
ATOM     24  C   UNL     1      64.829  66.386  70.852  0.00  0.00    +0.000 C 
ATOM     25  C   UNL     1      65.392  66.409  71.455  0.00  0.00    +0.000 C 
ATOM     26  C   UNL     1      66.246  67.180  70.621  0.00  0.00    +0.000 C 
ATOM     27  C   UNL     1      66.472  67.579  69.935  0.00  0.00    +0.000 C 
ATOM     28  O   UNL     1      66.983  67.424  70.901  0.00  0.00    +0.000 OA
ENDROOT
TORSDOF 0
ENDMDL
MODEL 6
REMARK VINA RESULT:   -13.126      4.881      6.409
REMARK INTER + INTRA:         -13.126
REMARK INTER:                 -13.126
REMARK INTRA:                   0.000
REMARK UNBOUND:                 0.000
ROOT
REMARK  Name = chlormadinone
REMARK                            x       y       z     vdW  Elec       q    Type
REMARK                         _______ _______ _______ _____ _____    ______ ____
ATOM      1  C   UNL     1      65.243  66.317  69.885  0.00  0.00    +0.000 C 
ATOM      2  C   UNL     1      64.815  66.526  70.559  0.00  0.00    +0.000 C 
ATOM      3  O   UNL     1      65.019  67.201  70.984  0.00  0.00    +0.000 OA
ATOM      4  O   UNL     1      64.182  66.057  70.806  0.00  0.00    +0.000 OA
ATOM      5  C   UNL     1      63.754  66.266  71.479  0.00  0.00    +0.000 C 
ATOM      6  C   UNL     1      63.434  66.606  72.159  0.00  0.00    +0.000 C 
ATOM      7  C   UNL     1      62.801  66.138  72.406  0.00  0.00    +0.000 C 
ATOM      8  C   UNL     1      62.729  65.509  71.879  0.00  0.00    +0.000 C 
ATOM      9  C   UNL     1      62.204  64.873  71.846  0.00  0.00    +0.000 C 
ATOM     10  C   UNL     1      61.615  64.794  72.419  0.00  0.00    +0.000 C 
ATOM     11  C   UNL     1      61.090  64.159  72.387  0.00  0.00    +0.000 C 
ATOM     12 CL   UNL     1      60.502  64.081  72.960  0.00  0.00    +0.000 Cl
ATOM     13  C   UNL     1      61.153  63.603  71.781  0.00  0.00    +0.000 C 
ATOM     14  C   UNL     1      60.627  62.967  71.749  0.00  0.00    +0.000 C 
ATOM     15  C   UNL     1      60.690  62.411  71.143  0.00  0.00    +0.000 C 
ATOM     16  O   UNL     1      60.165  61.776  71.110  0.00  0.00    +0.000 OA
ATOM     17  C   UNL     1      61.278  62.490  70.570  0.00  0.00    +0.000 C 
ATOM     18  C   UNL     1      61.803  63.125  70.602  0.00  0.00    +0.000 C 
ATOM     19  C   UNL     1      61.741  63.682  71.208  0.00  0.00    +0.000 C 
ATOM     20  C   UNL     1      62.329  63.760  70.634  0.00  0.00    +0.000 C 
ATOM     21  C   UNL     1      62.267  64.317  71.240  0.00  0.00    +0.000 C 
ATOM     22  C   UNL     1      62.855  64.395  70.667  0.00  0.00    +0.000 C 
ATOM     23  C   UNL     1      63.380  65.030  70.700  0.00  0.00    +0.000 C 
ATOM     24  C   UNL     1      63.317  65.587  71.306  0.00  0.00    +0.000 C 
ATOM     25  C   UNL     1      63.930  65.737  70.774  0.00  0.00    +0.000 C 
ATOM     26  C   UNL     1      64.279  66.901  71.511  0.00  0.00    +0.000 C 
ATOM     27  C   UNL     1      64.216  67.458  72.117  0.00  0.00    +0.000 C 
ATOM     28  O   UNL     1      64.912  67.369  71.264  0.00  0.00    +0.000 OA
ENDROOT
TORSDOF 0
ENDMDL
MODEL 7
REMARK VINA RESULT:   -13.119      1.932      4.630
REMARK INTER + INTRA:         -13.119
REMARK INTER:                 -13.119
REMARK INTRA:                   0.000
REMARK UNBOUND:                 0.000
ROOT
REMARK  Name = chlormadinone
REMARK                            x       y       z     vdW  Elec       q    Type
REMARK                         _______ _______ _______ _____ _____    ______ ____
ATOM      1  C   UNL     1      62.003  62.427  65.323  0.00  0.00    +0.000 C 
ATOM      2  C   UNL     1      61.301  62.351  65.750  0.00  0.00    +0.000 C 
ATOM      3  O   UNL     1      60.639  62.011  65.396  0.00  0.00    +0.000 OA
ATOM      4  O   UNL     1      61.262  62.616  66.530  0.00  0.00    +0.000 OA
ATOM      5  C   UNL     1      60.560  62.539  66.956  0.00  0.00    +0.000 C 
ATOM      6  C   UNL     1      59.799  62.392  67.238  0.00  0.00    +0.000 C 
ATOM      7  C   UNL     1      59.760  62.657  68.019  0.00  0.00    +0.000 C 
ATOM      8  C   UNL     1      60.497  62.967  68.220  0.00  0.00    +0.000 C 
ATOM      9  C   UNL     1      60.782  63.306  68.915  0.00  0.00    +0.000 C 
ATOM     10  C   UNL     1      60.287  63.379  69.572  0.00  0.00    +0.000 C 
ATOM     11  C   UNL     1      60.572  63.718  70.268  0.00  0.00    +0.000 C 
ATOM     12 CL   UNL     1      60.077  63.791  70.924  0.00  0.00    +0.000 Cl
ATOM     13  C   UNL     1      61.352  63.985  70.307  0.00  0.00    +0.000 C 
ATOM     14  C   UNL     1      61.636  64.325  71.004  0.00  0.00    +0.000 C 
ATOM     15  C   UNL     1      62.416  64.591  71.043  0.00  0.00    +0.000 C 
ATOM     16  O   UNL     1      62.701  64.930  71.739  0.00  0.00    +0.000 OA
ATOM     17  C   UNL     1      62.911  64.519  70.387  0.00  0.00    +0.000 C 
ATOM     18  C   UNL     1      62.626  64.179  69.691  0.00  0.00    +0.000 C 
ATOM     19  C   UNL     1      61.847  63.912  69.651  0.00  0.00    +0.000 C 
ATOM     20  C   UNL     1      62.342  63.840  68.995  0.00  0.00    +0.000 C 
ATOM     21  C   UNL     1      61.562  63.573  68.955  0.00  0.00    +0.000 C 
ATOM     22  C   UNL     1      62.057  63.501  68.299  0.00  0.00    +0.000 C 
ATOM     23  C   UNL     1      61.772  63.162  67.603  0.00  0.00    +0.000 C 
ATOM     24  C   UNL     1      60.992  62.895  67.564  0.00  0.00    +0.000 C 
ATOM     25  C   UNL     1      61.420  62.786  66.866  0.00  0.00    +0.000 C 
ATOM     26  C   UNL     1      60.275  62.200  66.260  0.00  0.00    +0.000 C 
ATOM     27  C   UNL     1      59.495  61.933  66.221  0.00  0.00    +0.000 C 
ATOM     28  O   UNL     1      60.314  61.936  65.480  0.00  0.00    +0.000 OA
ENDROOT
TORSDOF 0
ENDMDL
MODEL 8
REMARK VINA RESULT:   -13.049      1.494      2.743
REMARK INTER + INTRA:         -13.049
REMARK INTER:                 -13.049
REMARK INTRA:                   0.000
REMARK UNBOUND:                 0.000
ROOT
REMARK  Name = chlormadinone
REMARK                            x       y       z     vdW  Elec       q    Type
REMARK                         _______ _______ _______ _____ _____    ______ ____
ATOM      1  C   UNL     1      59.986  63.795  71.406  0.00  0.00    +0.000 C 
ATOM      2  C   UNL     1      60.692  63.926  70.998  0.00  0.00    +0.000 C 
ATOM      3  O   UNL     1      61.322  64.299  71.376  0.00  0.00    +0.000 OA
ATOM      4  O   UNL     1      60.765  63.685  70.213  0.00  0.00    +0.000 OA
ATOM      5  C   UNL     1      61.469  63.816  69.806  0.00  0.00    +0.000 C 
ATOM      6  C   UNL     1      62.226  64.019  69.546  0.00  0.00    +0.000 C 
ATOM      7  C   UNL     1      62.300  63.777  68.760  0.00  0.00    +0.000 C 
ATOM      8  C   UNL     1      61.589  63.425  68.534  0.00  0.00    +0.000 C 
ATOM      9  C   UNL     1      61.342  63.086  67.824  0.00  0.00    +0.000 C 
ATOM     10  C   UNL     1      61.854  63.062  67.178  0.00  0.00    +0.000 C 
ATOM     11  C   UNL     1      61.607  62.722  66.468  0.00  0.00    +0.000 C 
ATOM     12 CL   UNL     1      62.121  62.698  65.822  0.00  0.00    +0.000 Cl
ATOM     13  C   UNL     1      60.848  62.408  66.404  0.00  0.00    +0.000 C 
ATOM     14  C   UNL     1      60.601  62.068  65.692  0.00  0.00    +0.000 C 
ATOM     15  C   UNL     1      59.842  61.754  65.628  0.00  0.00    +0.000 C 
ATOM     16  O   UNL     1      59.595  61.414  64.918  0.00  0.00    +0.000 OA
ATOM     17  C   UNL     1      59.329  61.778  66.274  0.00  0.00    +0.000 C 
ATOM     18  C   UNL     1      59.575  62.117  66.984  0.00  0.00    +0.000 C 
ATOM     19  C   UNL     1      60.335  62.432  67.049  0.00  0.00    +0.000 C 
ATOM     20  C   UNL     1      59.822  62.456  67.695  0.00  0.00    +0.000 C 
ATOM     21  C   UNL     1      60.582  62.771  67.759  0.00  0.00    +0.000 C 
ATOM     22  C   UNL     1      60.069  62.795  68.405  0.00  0.00    +0.000 C 
ATOM     23  C   UNL     1      60.316  63.134  69.115  0.00  0.00    +0.000 C 
ATOM     24  C   UNL     1      61.076  63.450  69.180  0.00  0.00    +0.000 C 
ATOM     25  C   UNL     1      60.626  63.513  69.869  0.00  0.00    +0.000 C 
ATOM     26  C   UNL     1      61.716  64.156  70.516  0.00  0.00    +0.000 C 
ATOM     27  C   UNL     1      62.477  64.471  70.580  0.00  0.00    +0.000 C 
ATOM     28  O   UNL     1      61.643  64.397  71.301  0.00  0.00    +0.000 OA
ENDROOT
TORSDOF 0
ENDMDL
MODEL 9
REMARK VINA RESULT:   -12.882      3.296      5.843
REMARK INTER + INTRA:         -12.882
REMARK INTER:                 -12.882
REMARK INTRA:                   0.000
REMARK UNBOUND:                 0.000
ROOT
REMARK  Name = chlormadinone
REMARK                            x       y       z     vdW  Elec       q    Type
REMARK                         _______ _______ _______ _____ _____    ______ ____
ATOM      1  C   UNL     1      60.164  61.651  70.949  0.00  0.00    +0.000 C 
ATOM      2  C   UNL     1      60.440  61.989  70.249  0.00  0.00    +0.000 C 
ATOM      3  O   UNL     1      60.248  61.650  69.523  0.00  0.00    +0.000 OA
ATOM      4  O   UNL     1      60.909  62.668  70.276  0.00  0.00    +0.000 OA
ATOM      5  C   UNL     1      61.185  63.006  69.577  0.00  0.00    +0.000 C 
ATOM      6  C   UNL     1      61.377  63.216  68.802  0.00  0.00    +0.000 C 
ATOM      7  C   UNL     1      61.846  63.894  68.830  0.00  0.00    +0.000 C 
ATOM      8  C   UNL     1      61.945  64.104  69.621  0.00  0.00    +0.000 C 
ATOM      9  C   UNL     1      62.353  64.723  69.981  0.00  0.00    +0.000 C 
ATOM     10  C   UNL     1      62.762  65.272  69.520  0.00  0.00    +0.000 C 
ATOM     11  C   UNL     1      63.170  65.891  69.880  0.00  0.00    +0.000 C 
ATOM     12 CL   UNL     1      63.578  66.440  69.418  0.00  0.00    +0.000 Cl
ATOM     13  C   UNL     1      63.171  65.962  70.702  0.00  0.00    +0.000 C 
ATOM     14  C   UNL     1      63.580  66.582  71.062  0.00  0.00    +0.000 C 
ATOM     15  C   UNL     1      63.581  66.653  71.883  0.00  0.00    +0.000 C 
ATOM     16  O   UNL     1      63.989  67.272  72.243  0.00  0.00    +0.000 OA
ATOM     17  C   UNL     1      63.173  66.104  72.345  0.00  0.00    +0.000 C 
ATOM     18  C   UNL     1      62.764  65.485  71.985  0.00  0.00    +0.000 C 
ATOM     19  C   UNL     1      62.763  65.413  71.164  0.00  0.00    +0.000 C 
ATOM     20  C   UNL     1      62.355  64.865  71.626  0.00  0.00    +0.000 C 
ATOM     21  C   UNL     1      62.354  64.794  70.803  0.00  0.00    +0.000 C 
ATOM     22  C   UNL     1      61.946  64.246  71.266  0.00  0.00    +0.000 C 
ATOM     23  C   UNL     1      61.538  63.626  70.905  0.00  0.00    +0.000 C 
ATOM     24  C   UNL     1      61.537  63.555  70.083  0.00  0.00    +0.000 C 
ATOM     25  C   UNL     1      61.106  62.968  70.472  0.00  0.00    +0.000 C 
ATOM     26  C   UNL     1      60.777  62.386  69.217  0.00  0.00    +0.000 C 
ATOM     27  C   UNL     1      60.776  62.315  68.395  0.00  0.00    +0.000 C 
ATOM     28  O   UNL     1      60.308  61.708  69.189  0.00  0.00    +0.000 OA
ENDROOT
TORSDOF 0
ENDMDL
