MODEL 1
REMARK VINA RESULT:   -10.433      0.000      0.000
REMARK INTER + INTRA:         -10.433
REMARK INTER:                 -10.433
REMARK INTRA:                   0.000
REMARK UNBOUND:                 0.000
ROOT
REMARK  Name = chlorisondamine
REMARK                            x       y       z     vdW  Elec       q    Type
REMARK                         _______ _______ _______ _____ _____    ______ ____
ATOM      1  C   UNL     1      61.506  64.043  69.261  0.00  0.00    +0.000 C 
ATOM      2  N   UNL     1      61.157  63.583  68.672  0.00  0.00    +0.000 N 
ATOM      3  C   UNL     1      61.837  63.655  68.212  0.00  0.00    +0.000 C 
ATOM      4  C   UNL     1      60.476  63.512  69.133  0.00  0.00    +0.000 C 
ATOM      5  C   UNL     1      60.807  63.124  68.083  0.00  0.00    +0.000 C 
ATOM      6  C   UNL     1      61.222  62.956  67.391  0.00  0.00    +0.000 C 
ATOM      7  N   UNL     1      60.872  62.496  66.801  0.00  0.00    +0.000 N 
ATOM      8  C   UNL     1      60.231  62.473  67.321  0.00  0.00    +0.000 C 
ATOM      9  C   UNL     1      61.586  62.615  66.405  0.00  0.00    +0.000 C 
ATOM     10  C   UNL     1      61.543  62.224  65.680  0.00  0.00    +0.000 A 
ATOM     11  C   UNL     1      60.803  61.863  65.628  0.00  0.00    +0.000 A 
ATOM     12  C   UNL     1      60.388  62.031  66.321  0.00  0.00    +0.000 C 
ATOM     13  C   UNL     1      60.603  61.429  64.956  0.00  0.00    +0.000 A 
ATOM     14 CL   UNL     1      59.863  61.067  64.904  0.00  0.00    +0.000 Cl
ATOM     15  C   UNL     1      61.142  61.355  64.337  0.00  0.00    +0.000 A 
ATOM     16 CL   UNL     1      60.942  60.920  63.665  0.00  0.00    +0.000 Cl
ATOM     17  C   UNL     1      61.882  61.716  64.389  0.00  0.00    +0.000 A 
ATOM     18 CL   UNL     1      62.422  61.642  63.769  0.00  0.00    +0.000 Cl
ATOM     19  C   UNL     1      62.083  62.151  65.060  0.00  0.00    +0.000 A 
ATOM     20 CL   UNL     1      62.823  62.512  65.112  0.00  0.00    +0.000 Cl
ENDROOT
TORSDOF 0
ENDMDL
MODEL 2
REMARK VINA RESULT:    -9.267      2.805      4.614
REMARK INTER + INTRA:          -9.267
REMARK INTER:                  -9.267
REMARK INTRA:                   0.000
REMARK UNBOUND:                 0.000
ROOT
REMARK  Name = chlorisondamine
REMARK                            x       y       z     vdW  Elec       q    Type
REMARK                         _______ _______ _______ _____ _____    ______ ____
ATOM      1  C   UNL     1      61.832  61.476  65.373  0.00  0.00    +0.000 C 
ATOM      2  N   UNL     1      61.650  62.022  65.964  0.00  0.00    +0.000 N 
ATOM      3  C   UNL     1      61.492  61.403  66.487  0.00  0.00    +0.000 C 
ATOM      4  C   UNL     1      61.808  62.640  65.442  0.00  0.00    +0.000 C 
ATOM      5  C   UNL     1      61.469  62.568  66.555  0.00  0.00    +0.000 C 
ATOM      6  C   UNL     1      61.242  62.305  67.303  0.00  0.00    +0.000 C 
ATOM      7  N   UNL     1      61.060  62.851  67.895  0.00  0.00    +0.000 N 
ATOM      8  C   UNL     1      61.236  63.409  67.313  0.00  0.00    +0.000 C 
ATOM      9  C   UNL     1      60.922  62.180  68.353  0.00  0.00    +0.000 C 
ATOM     10  C   UNL     1      60.692  62.427  69.105  0.00  0.00    +0.000 A 
ATOM     11  C   UNL     1      60.688  63.252  69.112  0.00  0.00    +0.000 A 
ATOM     12  C   UNL     1      60.915  63.515  68.365  0.00  0.00    +0.000 C 
ATOM     13  C   UNL     1      60.478  63.657  69.800  0.00  0.00    +0.000 A 
ATOM     14 CL   UNL     1      60.474  64.482  69.807  0.00  0.00    +0.000 Cl
ATOM     15  C   UNL     1      60.271  63.238  70.479  0.00  0.00    +0.000 A 
ATOM     16 CL   UNL     1      60.061  63.644  71.166  0.00  0.00    +0.000 Cl
ATOM     17  C   UNL     1      60.275  62.413  70.472  0.00  0.00    +0.000 A 
ATOM     18 CL   UNL     1      60.069  61.994  71.152  0.00  0.00    +0.000 Cl
ATOM     19  C   UNL     1      60.485  62.007  69.786  0.00  0.00    +0.000 A 
ATOM     20 CL   UNL     1      60.489  61.182  69.779  0.00  0.00    +0.000 Cl
ENDROOT
TORSDOF 0
ENDMDL
MODEL 3
REMARK VINA RESULT:    -9.233      4.607      5.773
REMARK INTER + INTRA:          -9.233
REMARK INTER:                  -9.233
REMARK INTRA:                   0.000
REMARK UNBOUND:                 0.000
ROOT
REMARK  Name = chlorisondamine
REMARK                            x       y       z     vdW  Elec       q    Type
REMARK                         _______ _______ _______ _____ _____    ______ ____
ATOM      1  C   UNL     1      59.470  67.347  70.244  0.00  0.00    +0.000 C 
ATOM      2  N   UNL     1      59.649  66.553  70.111  0.00  0.00    +0.000 N 
ATOM      3  C   UNL     1      59.912  66.482  70.889  0.00  0.00    +0.000 C 
ATOM      4  C   UNL     1      59.386  66.624  69.332  0.00  0.00    +0.000 C 
ATOM      5  C   UNL     1      59.828  65.759  69.977  0.00  0.00    +0.000 C 
ATOM      6  C   UNL     1      60.145  65.300  70.585  0.00  0.00    +0.000 C 
ATOM      7  N   UNL     1      60.325  64.505  70.453  0.00  0.00    +0.000 N 
ATOM      8  C   UNL     1      60.045  64.660  69.691  0.00  0.00    +0.000 C 
ATOM      9  C   UNL     1      60.568  64.517  71.241  0.00  0.00    +0.000 C 
ATOM     10  C   UNL     1      60.838  63.763  71.435  0.00  0.00    +0.000 A 
ATOM     11  C   UNL     1      60.763  63.285  70.768  0.00  0.00    +0.000 A 
ATOM     12  C   UNL     1      60.446  63.743  70.160  0.00  0.00    +0.000 C 
ATOM     13  C   UNL     1      60.993  62.493  70.800  0.00  0.00    +0.000 A 
ATOM     14 CL   UNL     1      60.918  62.014  70.132  0.00  0.00    +0.000 Cl
ATOM     15  C   UNL     1      61.298  62.180  71.499  0.00  0.00    +0.000 A 
ATOM     16 CL   UNL     1      61.528  61.389  71.531  0.00  0.00    +0.000 Cl
ATOM     17  C   UNL     1      61.374  62.659  72.167  0.00  0.00    +0.000 A 
ATOM     18 CL   UNL     1      61.679  62.346  72.866  0.00  0.00    +0.000 Cl
ATOM     19  C   UNL     1      61.144  63.450  72.136  0.00  0.00    +0.000 A 
ATOM     20 CL   UNL     1      61.219  63.929  72.803  0.00  0.00    +0.000 Cl
ENDROOT
TORSDOF 0
ENDMDL
MODEL 4
REMARK VINA RESULT:    -8.943      5.386      6.789
REMARK INTER + INTRA:          -8.943
REMARK INTER:                  -8.943
REMARK INTRA:                   0.000
REMARK UNBOUND:                 0.000
ROOT
REMARK  Name = chlorisondamine
REMARK                            x       y       z     vdW  Elec       q    Type
REMARK                         _______ _______ _______ _____ _____    ______ ____
ATOM      1  C   UNL     1      61.212  63.263  72.152  0.00  0.00    +0.000 C 
ATOM      2  N   UNL     1      61.762  63.570  71.619  0.00  0.00    +0.000 N 
ATOM      3  C   UNL     1      61.968  64.151  72.166  0.00  0.00    +0.000 C 
ATOM      4  C   UNL     1      61.555  62.988  71.071  0.00  0.00    +0.000 C 
ATOM      5  C   UNL     1      62.312  63.876  71.086  0.00  0.00    +0.000 C 
ATOM      6  C   UNL     1      62.765  64.533  71.293  0.00  0.00    +0.000 C 
ATOM      7  N   UNL     1      63.316  64.840  70.760  0.00  0.00    +0.000 N 
ATOM      8  C   UNL     1      63.052  64.229  70.271  0.00  0.00    +0.000 C 
ATOM      9  C   UNL     1      63.464  65.386  71.360  0.00  0.00    +0.000 C 
ATOM     10  C   UNL     1      64.050  65.903  71.096  0.00  0.00    +0.000 A 
ATOM     11  C   UNL     1      64.264  65.676  70.332  0.00  0.00    +0.000 A 
ATOM     12  C   UNL     1      63.811  65.019  70.125  0.00  0.00    +0.000 C 
ATOM     13  C   UNL     1      64.845  66.097  69.925  0.00  0.00    +0.000 A 
ATOM     14 CL   UNL     1      65.060  65.871  69.162  0.00  0.00    +0.000 Cl
ATOM     15  C   UNL     1      65.211  66.745  70.281  0.00  0.00    +0.000 A 
ATOM     16 CL   UNL     1      65.792  67.165  69.874  0.00  0.00    +0.000 Cl
ATOM     17  C   UNL     1      64.997  66.971  71.045  0.00  0.00    +0.000 A 
ATOM     18 CL   UNL     1      65.363  67.619  71.401  0.00  0.00    +0.000 Cl
ATOM     19  C   UNL     1      64.416  66.551  71.453  0.00  0.00    +0.000 A 
ATOM     20 CL   UNL     1      64.202  66.778  72.216  0.00  0.00    +0.000 Cl
ENDROOT
TORSDOF 0
ENDMDL
MODEL 5
REMARK VINA RESULT:    -8.848      3.412      4.815
REMARK INTER + INTRA:          -8.848
REMARK INTER:                  -8.848
REMARK INTRA:                   0.000
REMARK UNBOUND:                 0.000
ROOT
REMARK  Name = chlorisondamine
REMARK                            x       y       z     vdW  Elec       q    Type
REMARK                         _______ _______ _______ _____ _____    ______ ____
ATOM      1  C   UNL     1      64.058  66.207  71.305  0.00  0.00    +0.000 C 
ATOM      2  N   UNL     1      63.652  65.742  70.758  0.00  0.00    +0.000 N 
ATOM      3  C   UNL     1      63.316  65.309  71.375  0.00  0.00    +0.000 C 
ATOM      4  C   UNL     1      63.988  66.174  70.140  0.00  0.00    +0.000 C 
ATOM      5  C   UNL     1      63.246  65.276  70.211  0.00  0.00    +0.000 C 
ATOM      6  C   UNL     1      62.753  64.669  70.472  0.00  0.00    +0.000 C 
ATOM      7  N   UNL     1      62.347  64.203  69.925  0.00  0.00    +0.000 N 
ATOM      8  C   UNL     1      62.724  64.682  69.368  0.00  0.00    +0.000 C 
ATOM      9  C   UNL     1      62.055  63.821  70.596  0.00  0.00    +0.000 C 
ATOM     10  C   UNL     1      61.548  63.221  70.347  0.00  0.00    +0.000 A 
ATOM     11  C   UNL     1      61.526  63.230  69.522  0.00  0.00    +0.000 A 
ATOM     12  C   UNL     1      62.020  63.837  69.261  0.00  0.00    +0.000 C 
ATOM     13  C   UNL     1      61.059  62.685  69.116  0.00  0.00    +0.000 A 
ATOM     14 CL   UNL     1      61.037  62.694  68.292  0.00  0.00    +0.000 Cl
ATOM     15  C   UNL     1      60.615  62.130  69.534  0.00  0.00    +0.000 A 
ATOM     16 CL   UNL     1      60.148  61.585  69.128  0.00  0.00    +0.000 Cl
ATOM     17  C   UNL     1      60.637  62.120  70.358  0.00  0.00    +0.000 A 
ATOM     18 CL   UNL     1      60.192  61.566  70.777  0.00  0.00    +0.000 Cl
ATOM     19  C   UNL     1      61.103  62.665  70.766  0.00  0.00    +0.000 A 
ATOM     20 CL   UNL     1      61.125  62.656  71.590  0.00  0.00    +0.000 Cl
ENDROOT
TORSDOF 0
ENDMDL
MODEL 6
REMARK VINA RESULT:    -8.163     24.749     25.617
REMARK INTER + INTRA:          -8.163
REMARK INTER:                  -8.163
REMARK INTRA:                   0.000
REMARK UNBOUND:                 0.000
ROOT
REMARK  Name = chlorisondamine
REMARK                            x       y       z     vdW  Elec       q    Type
REMARK                         _______ _______ _______ _____ _____    ______ ____
ATOM      1  C   UNL     1      69.214  81.240  53.245  0.00  0.00    +0.000 C 
ATOM      2  N   UNL     1      69.827  81.164  52.698  0.00  0.00    +0.000 N 
ATOM      3  C   UNL     1      69.412  80.563  52.316  0.00  0.00    +0.000 C 
ATOM      4  C   UNL     1      70.242  81.766  53.081  0.00  0.00    +0.000 C 
ATOM      5  C   UNL     1      70.440  81.088  52.152  0.00  0.00    +0.000 C 
ATOM      6  C   UNL     1      70.387  80.530  51.548  0.00  0.00    +0.000 C 
ATOM      7  N   UNL     1      71.000  80.453  51.001  0.00  0.00    +0.000 N 
ATOM      8  C   UNL     1      71.349  81.060  51.439  0.00  0.00    +0.000 C 
ATOM      9  C   UNL     1      70.524  79.863  50.677  0.00  0.00    +0.000 C 
ATOM     10  C   UNL     1      70.915  79.549  50.023  0.00  0.00    +0.000 A 
ATOM     11  C   UNL     1      71.634  79.945  49.941  0.00  0.00    +0.000 A 
ATOM     12  C   UNL     1      71.687  80.504  50.545  0.00  0.00    +0.000 C 
ATOM     13  C   UNL     1      72.147  79.745  49.327  0.00  0.00    +0.000 A 
ATOM     14 CL   UNL     1      72.866  80.142  49.245  0.00  0.00    +0.000 Cl
ATOM     15  C   UNL     1      71.942  79.150  48.795  0.00  0.00    +0.000 A 
ATOM     16 CL   UNL     1      72.455  78.951  48.181  0.00  0.00    +0.000 Cl
ATOM     17  C   UNL     1      71.223  78.754  48.876  0.00  0.00    +0.000 A 
ATOM     18 CL   UNL     1      71.017  78.159  48.344  0.00  0.00    +0.000 Cl
ATOM     19  C   UNL     1      70.709  78.953  49.490  0.00  0.00    +0.000 A 
ATOM     20 CL   UNL     1      69.990  78.557  49.571  0.00  0.00    +0.000 Cl
ENDROOT
TORSDOF 0
ENDMDL
MODEL 7
REMARK VINA RESULT:    -8.132      5.758      7.410
REMARK INTER + INTRA:          -8.132
REMARK INTER:                  -8.132
REMARK INTRA:                   0.000
REMARK UNBOUND:                 0.000
ROOT
REMARK  Name = chlorisondamine
REMARK                            x       y       z     vdW  Elec       q    Type
REMARK                         _______ _______ _______ _____ _____    ______ ____
ATOM      1  C   UNL     1      61.234  62.195  70.918  0.00  0.00    +0.000 C 
ATOM      2  N   UNL     1      61.079  62.934  71.250  0.00  0.00    +0.000 N 
ATOM      3  C   UNL     1      61.863  63.157  71.120  0.00  0.00    +0.000 C 
ATOM      4  C   UNL     1      60.296  62.712  71.381  0.00  0.00    +0.000 C 
ATOM      5  C   UNL     1      60.925  63.673  71.583  0.00  0.00    +0.000 C 
ATOM      6  C   UNL     1      61.526  64.234  71.636  0.00  0.00    +0.000 C 
ATOM      7  N   UNL     1      61.373  64.974  71.969  0.00  0.00    +0.000 N 
ATOM      8  C   UNL     1      60.609  64.675  72.065  0.00  0.00    +0.000 C 
ATOM      9  C   UNL     1      62.168  65.118  71.805  0.00  0.00    +0.000 C 
ATOM     10  C   UNL     1      62.345  65.883  72.056  0.00  0.00    +0.000 A 
ATOM     11  C   UNL     1      61.660  66.213  72.376  0.00  0.00    +0.000 A 
ATOM     12  C   UNL     1      61.058  65.651  72.323  0.00  0.00    +0.000 C 
ATOM     13  C   UNL     1      61.672  66.982  72.674  0.00  0.00    +0.000 A 
ATOM     14 CL   UNL     1      60.987  67.311  72.994  0.00  0.00    +0.000 Cl
ATOM     15  C   UNL     1      62.369  67.422  72.653  0.00  0.00    +0.000 A 
ATOM     16 CL   UNL     1      62.381  68.190  72.951  0.00  0.00    +0.000 Cl
ATOM     17  C   UNL     1      63.055  67.093  72.332  0.00  0.00    +0.000 A 
ATOM     18 CL   UNL     1      63.752  67.532  72.311  0.00  0.00    +0.000 Cl
ATOM     19  C   UNL     1      63.043  66.324  72.034  0.00  0.00    +0.000 A 
ATOM     20 CL   UNL     1      63.729  65.995  71.714  0.00  0.00    +0.000 Cl
ENDROOT
TORSDOF 0
ENDMDL
MODEL 8
REMARK VINA RESULT:    -8.097      5.219      6.667
REMARK INTER + INTRA:          -8.097
REMARK INTER:                  -8.097
REMARK INTRA:                   0.000
REMARK UNBOUND:                 0.000
ROOT
REMARK  Name = chlorisondamine
REMARK                            x       y       z     vdW  Elec       q    Type
REMARK                         _______ _______ _______ _____ _____    ______ ____
ATOM      1  C   UNL     1      66.751  67.819  70.136  0.00  0.00    +0.000 C 
ATOM      2  N   UNL     1      66.199  67.298  70.459  0.00  0.00    +0.000 N 
ATOM      3  C   UNL     1      65.690  67.444  69.826  0.00  0.00    +0.000 C 
ATOM      4  C   UNL     1      66.707  67.151  71.092  0.00  0.00    +0.000 C 
ATOM      5  C   UNL     1      65.647  66.776  70.782  0.00  0.00    +0.000 C 
ATOM      6  C   UNL     1      64.931  66.643  70.396  0.00  0.00    +0.000 C 
ATOM      7  N   UNL     1      64.379  66.121  70.719  0.00  0.00    +0.000 N 
ATOM      8  C   UNL     1      64.943  66.031  71.314  0.00  0.00    +0.000 C 
ATOM      9  C   UNL     1      63.930  66.321  70.056  0.00  0.00    +0.000 C 
ATOM     10  C   UNL     1      63.220  65.904  70.094  0.00  0.00    +0.000 A 
ATOM     11  C   UNL     1      63.229  65.447  70.780  0.00  0.00    +0.000 A 
ATOM     12  C   UNL     1      63.944  65.580  71.167  0.00  0.00    +0.000 C 
ATOM     13  C   UNL     1      62.583  64.967  70.964  0.00  0.00    +0.000 A 
ATOM     14 CL   UNL     1      62.591  64.510  71.651  0.00  0.00    +0.000 Cl
ATOM     15  C   UNL     1      61.929  64.945  70.463  0.00  0.00    +0.000 A 
ATOM     16 CL   UNL     1      61.284  64.466  70.647  0.00  0.00    +0.000 Cl
ATOM     17  C   UNL     1      61.920  65.402  69.776  0.00  0.00    +0.000 A 
ATOM     18 CL   UNL     1      61.266  65.381  69.274  0.00  0.00    +0.000 Cl
ATOM     19  C   UNL     1      62.565  65.882  69.591  0.00  0.00    +0.000 A 
ATOM     20 CL   UNL     1      62.556  66.339  68.904  0.00  0.00    +0.000 Cl
ENDROOT
TORSDOF 0
ENDMDL
MODEL 9
REMARK VINA RESULT:    -7.961      5.927      7.067
REMARK INTER + INTRA:          -7.961
REMARK INTER:                  -7.961
REMARK INTRA:                   0.000
REMARK UNBOUND:                 0.000
ROOT
REMARK  Name = chlorisondamine
REMARK                            x       y       z     vdW  Elec       q    Type
REMARK                         _______ _______ _______ _____ _____    ______ ____
ATOM      1  C   UNL     1      59.422  66.118  70.884  0.00  0.00    +0.000 C 
ATOM      2  N   UNL     1      60.162  66.310  71.193  0.00  0.00    +0.000 N 
ATOM      3  C   UNL     1      60.514  66.107  70.475  0.00  0.00    +0.000 C 
ATOM      4  C   UNL     1      59.810  66.512  71.911  0.00  0.00    +0.000 C 
ATOM      5  C   UNL     1      60.903  66.501  71.502  0.00  0.00    +0.000 C 
ATOM      6  C   UNL     1      61.577  66.422  71.034  0.00  0.00    +0.000 C 
ATOM      7  N   UNL     1      62.318  66.614  71.343  0.00  0.00    +0.000 N 
ATOM      8  C   UNL     1      61.890  66.795  72.025  0.00  0.00    +0.000 C 
ATOM      9  C   UNL     1      62.591  66.392  70.596  0.00  0.00    +0.000 C 
ATOM     10  C   UNL     1      63.410  66.485  70.587  0.00  0.00    +0.000 A 
ATOM     11  C   UNL     1      63.644  66.764  71.327  0.00  0.00    +0.000 A 
ATOM     12  C   UNL     1      62.970  66.844  71.794  0.00  0.00    +0.000 C 
ATOM     13  C   UNL     1      64.442  66.909  71.479  0.00  0.00    +0.000 A 
ATOM     14 CL   UNL     1      64.676  67.188  72.219  0.00  0.00    +0.000 Cl
ATOM     15  C   UNL     1      65.006  66.776  70.892  0.00  0.00    +0.000 A 
ATOM     16 CL   UNL     1      65.803  66.922  71.044  0.00  0.00    +0.000 Cl
ATOM     17  C   UNL     1      64.772  66.497  70.152  0.00  0.00    +0.000 A 
ATOM     18 CL   UNL     1      65.334  66.364  69.564  0.00  0.00    +0.000 Cl
ATOM     19  C   UNL     1      63.974  66.352  69.999  0.00  0.00    +0.000 A 
ATOM     20 CL   UNL     1      63.740  66.073  69.258  0.00  0.00    +0.000 Cl
ENDROOT
TORSDOF 0
ENDMDL
