MODEL 1
REMARK VINA RESULT:    -9.394      0.000      0.000
REMARK INTER + INTRA:          -9.394
REMARK INTER:                  -9.394
REMARK INTRA:                   0.000
REMARK UNBOUND:                 0.000
ROOT
REMARK  Name = chlorozotocin
REMARK                            x       y       z     vdW  Elec       q    Type
REMARK                         _______ _______ _______ _____ _____    ______ ____
ATOM      1  O   UNL     1      61.416  60.913  63.214  0.00  0.00    +0.000 OA
ATOM      2  C   UNL     1      60.839  61.002  63.797  0.00  0.00    +0.000 C 
ATOM      3  C   UNL     1      61.013  61.412  64.491  0.00  0.00    +0.000 C 
ATOM      4  O   UNL     1      60.437  61.500  65.073  0.00  0.00    +0.000 OA
ATOM      5  C   UNL     1      60.610  61.910  65.768  0.00  0.00    +0.000 C 
ATOM      6  O   UNL     1      60.034  61.999  66.352  0.00  0.00    +0.000 OA
ATOM      7  C   UNL     1      61.362  62.232  65.879  0.00  0.00    +0.000 C 
ATOM      8  N   UNL     1      61.536  62.643  66.574  0.00  0.00    +0.000 NA
ATOM      9  C   UNL     1      60.959  62.731  67.156  0.00  0.00    +0.000 C 
ATOM     10  O   UNL     1      60.208  62.409  67.045  0.00  0.00    +0.000 OA
ATOM     11  N   UNL     1      61.134  63.141  67.850  0.00  0.00    +0.000 N 
ATOM     12  C   UNL     1      60.556  63.230  68.434  0.00  0.00    +0.000 C 
ATOM     13  C   UNL     1      60.731  63.640  69.127  0.00  0.00    +0.000 C 
ATOM     14 CL   UNL     1      60.153  63.728  69.711  0.00  0.00    +0.000 Cl
ATOM     15  N   UNL     1      61.884  63.463  67.961  0.00  0.00    +0.000 NA
ATOM     16  O   UNL     1      62.059  63.874  68.656  0.00  0.00    +0.000 OA
ATOM     17  C   UNL     1      61.939  62.144  65.296  0.00  0.00    +0.000 C 
ATOM     18  O   UNL     1      62.690  62.466  65.407  0.00  0.00    +0.000 OA
ATOM     19  C   UNL     1      61.765  61.734  64.602  0.00  0.00    +0.000 C 
ATOM     20  O   UNL     1      62.342  61.646  64.020  0.00  0.00    +0.000 OA
ENDROOT
TORSDOF 0
ENDMDL
MODEL 2
REMARK VINA RESULT:    -9.165      1.726      4.289
REMARK INTER + INTRA:          -9.165
REMARK INTER:                  -9.165
REMARK INTRA:                   0.000
REMARK UNBOUND:                 0.000
ROOT
REMARK  Name = chlorozotocin
REMARK                            x       y       z     vdW  Elec       q    Type
REMARK                         _______ _______ _______ _____ _____    ______ ____
ATOM      1  O   UNL     1      60.830  63.722  70.951  0.00  0.00    +0.000 OA
ATOM      2  C   UNL     1      60.440  63.212  70.433  0.00  0.00    +0.000 C 
ATOM      3  C   UNL     1      60.709  63.124  69.659  0.00  0.00    +0.000 C 
ATOM      4  O   UNL     1      60.319  62.614  69.142  0.00  0.00    +0.000 OA
ATOM      5  C   UNL     1      60.588  62.525  68.367  0.00  0.00    +0.000 C 
ATOM      6  O   UNL     1      60.198  62.016  67.849  0.00  0.00    +0.000 OA
ATOM      7  C   UNL     1      61.250  62.946  68.110  0.00  0.00    +0.000 C 
ATOM      8  N   UNL     1      61.520  62.858  67.335  0.00  0.00    +0.000 NA
ATOM      9  C   UNL     1      61.129  62.348  66.818  0.00  0.00    +0.000 C 
ATOM     10  O   UNL     1      60.467  61.927  67.075  0.00  0.00    +0.000 OA
ATOM     11  N   UNL     1      61.399  62.260  66.044  0.00  0.00    +0.000 N 
ATOM     12  C   UNL     1      61.008  61.750  65.526  0.00  0.00    +0.000 C 
ATOM     13  C   UNL     1      61.278  61.661  64.752  0.00  0.00    +0.000 C 
ATOM     14 CL   UNL     1      60.887  61.151  64.234  0.00  0.00    +0.000 Cl
ATOM     15  N   UNL     1      62.060  62.680  65.787  0.00  0.00    +0.000 NA
ATOM     16  O   UNL     1      62.330  62.592  65.012  0.00  0.00    +0.000 OA
ATOM     17  C   UNL     1      61.641  63.456  68.628  0.00  0.00    +0.000 C 
ATOM     18  O   UNL     1      62.302  63.877  68.371  0.00  0.00    +0.000 OA
ATOM     19  C   UNL     1      61.371  63.545  69.402  0.00  0.00    +0.000 C 
ATOM     20  O   UNL     1      61.762  64.054  69.919  0.00  0.00    +0.000 OA
ENDROOT
TORSDOF 0
ENDMDL
MODEL 3
REMARK VINA RESULT:    -8.810      2.161      3.170
REMARK INTER + INTRA:          -8.810
REMARK INTER:                  -8.810
REMARK INTRA:                   0.000
REMARK UNBOUND:                 0.000
ROOT
REMARK  Name = chlorozotocin
REMARK                            x       y       z     vdW  Elec       q    Type
REMARK                         _______ _______ _______ _____ _____    ______ ____
ATOM      1  O   UNL     1      60.121  62.345  65.973  0.00  0.00    +0.000 OA
ATOM      2  C   UNL     1      59.936  61.985  66.692  0.00  0.00    +0.000 C 
ATOM      3  C   UNL     1      60.286  62.252  67.389  0.00  0.00    +0.000 C 
ATOM      4  O   UNL     1      60.101  61.893  68.108  0.00  0.00    +0.000 OA
ATOM      5  C   UNL     1      60.451  62.160  68.806  0.00  0.00    +0.000 C 
ATOM      6  O   UNL     1      60.266  61.800  69.525  0.00  0.00    +0.000 OA
ATOM      7  C   UNL     1      60.986  62.787  68.785  0.00  0.00    +0.000 C 
ATOM      8  N   UNL     1      61.336  63.055  69.483  0.00  0.00    +0.000 NA
ATOM      9  C   UNL     1      61.150  62.695  70.201  0.00  0.00    +0.000 C 
ATOM     10  O   UNL     1      60.616  62.067  70.222  0.00  0.00    +0.000 OA
ATOM     11  N   UNL     1      61.501  62.963  70.898  0.00  0.00    +0.000 N 
ATOM     12  C   UNL     1      61.315  62.602  71.617  0.00  0.00    +0.000 C 
ATOM     13  C   UNL     1      61.665  62.870  72.315  0.00  0.00    +0.000 C 
ATOM     14 CL   UNL     1      61.480  62.509  73.034  0.00  0.00    +0.000 Cl
ATOM     15  N   UNL     1      62.035  63.590  70.877  0.00  0.00    +0.000 NA
ATOM     16  O   UNL     1      62.385  63.858  71.575  0.00  0.00    +0.000 OA
ATOM     17  C   UNL     1      61.171  63.148  68.065  0.00  0.00    +0.000 C 
ATOM     18  O   UNL     1      61.705  63.775  68.044  0.00  0.00    +0.000 OA
ATOM     19  C   UNL     1      60.821  62.880  67.368  0.00  0.00    +0.000 C 
ATOM     20  O   UNL     1      61.006  63.241  66.650  0.00  0.00    +0.000 OA
ENDROOT
TORSDOF 0
ENDMDL
MODEL 4
REMARK VINA RESULT:    -8.795      1.250      2.091
REMARK INTER + INTRA:          -8.795
REMARK INTER:                  -8.795
REMARK INTRA:                   0.000
REMARK UNBOUND:                 0.000
ROOT
REMARK  Name = chlorozotocin
REMARK                            x       y       z     vdW  Elec       q    Type
REMARK                         _______ _______ _______ _____ _____    ______ ____
ATOM      1  O   UNL     1      60.536  61.189  64.573  0.00  0.00    +0.000 OA
ATOM      2  C   UNL     1      61.139  61.543  65.011  0.00  0.00    +0.000 C 
ATOM      3  C   UNL     1      60.960  61.954  65.703  0.00  0.00    +0.000 C 
ATOM      4  O   UNL     1      61.563  62.307  66.140  0.00  0.00    +0.000 OA
ATOM      5  C   UNL     1      61.385  62.718  66.833  0.00  0.00    +0.000 C 
ATOM      6  O   UNL     1      61.988  63.072  67.271  0.00  0.00    +0.000 OA
ATOM      7  C   UNL     1      60.602  62.776  67.088  0.00  0.00    +0.000 C 
ATOM      8  N   UNL     1      60.423  63.187  67.782  0.00  0.00    +0.000 NA
ATOM      9  C   UNL     1      61.027  63.540  68.219  0.00  0.00    +0.000 C 
ATOM     10  O   UNL     1      61.810  63.483  67.963  0.00  0.00    +0.000 OA
ATOM     11  N   UNL     1      60.848  63.951  68.911  0.00  0.00    +0.000 N 
ATOM     12  C   UNL     1      61.452  64.305  69.349  0.00  0.00    +0.000 C 
ATOM     13  C   UNL     1      61.272  64.715  70.041  0.00  0.00    +0.000 C 
ATOM     14 CL   UNL     1      61.877  65.069  70.479  0.00  0.00    +0.000 Cl
ATOM     15  N   UNL     1      60.066  64.008  69.166  0.00  0.00    +0.000 NA
ATOM     16  O   UNL     1      59.887  64.419  69.859  0.00  0.00    +0.000 OA
ATOM     17  C   UNL     1      59.998  62.422  66.651  0.00  0.00    +0.000 C 
ATOM     18  O   UNL     1      59.217  62.479  66.905  0.00  0.00    +0.000 OA
ATOM     19  C   UNL     1      60.178  62.011  65.958  0.00  0.00    +0.000 C 
ATOM     20  O   UNL     1      59.574  61.658  65.521  0.00  0.00    +0.000 OA
ENDROOT
TORSDOF 0
ENDMDL
MODEL 5
REMARK VINA RESULT:    -8.605      2.026      4.906
REMARK INTER + INTRA:          -8.605
REMARK INTER:                  -8.605
REMARK INTRA:                   0.000
REMARK UNBOUND:                 0.000
ROOT
REMARK  Name = chlorozotocin
REMARK                            x       y       z     vdW  Elec       q    Type
REMARK                         _______ _______ _______ _____ _____    ______ ____
ATOM      1  O   UNL     1      62.463  64.505  72.092  0.00  0.00    +0.000 OA
ATOM      2  C   UNL     1      61.779  64.146  71.802  0.00  0.00    +0.000 C 
ATOM      3  C   UNL     1      61.712  63.972  70.999  0.00  0.00    +0.000 C 
ATOM      4  O   UNL     1      61.028  63.613  70.711  0.00  0.00    +0.000 OA
ATOM      5  C   UNL     1      60.960  63.439  69.907  0.00  0.00    +0.000 C 
ATOM      6  O   UNL     1      60.276  63.080  69.618  0.00  0.00    +0.000 OA
ATOM      7  C   UNL     1      61.577  63.625  69.392  0.00  0.00    +0.000 C 
ATOM      8  N   UNL     1      61.510  63.451  68.587  0.00  0.00    +0.000 NA
ATOM      9  C   UNL     1      60.826  63.092  68.300  0.00  0.00    +0.000 C 
ATOM     10  O   UNL     1      60.209  62.906  68.815  0.00  0.00    +0.000 OA
ATOM     11  N   UNL     1      60.759  62.918  67.496  0.00  0.00    +0.000 N 
ATOM     12  C   UNL     1      60.074  62.559  67.207  0.00  0.00    +0.000 C 
ATOM     13  C   UNL     1      60.008  62.385  66.404  0.00  0.00    +0.000 C 
ATOM     14 CL   UNL     1      59.323  62.026  66.115  0.00  0.00    +0.000 Cl
ATOM     15  N   UNL     1      61.376  63.104  66.981  0.00  0.00    +0.000 NA
ATOM     16  O   UNL     1      61.309  62.930  66.177  0.00  0.00    +0.000 OA
ATOM     17  C   UNL     1      62.262  63.984  69.681  0.00  0.00    +0.000 C 
ATOM     18  O   UNL     1      62.879  64.170  69.166  0.00  0.00    +0.000 OA
ATOM     19  C   UNL     1      62.329  64.158  70.484  0.00  0.00    +0.000 C 
ATOM     20  O   UNL     1      63.013  64.517  70.772  0.00  0.00    +0.000 OA
ENDROOT
TORSDOF 0
ENDMDL
MODEL 6
REMARK VINA RESULT:    -8.425      2.282      3.652
REMARK INTER + INTRA:          -8.425
REMARK INTER:                  -8.425
REMARK INTRA:                   0.000
REMARK UNBOUND:                 0.000
ROOT
REMARK  Name = chlorozotocin
REMARK                            x       y       z     vdW  Elec       q    Type
REMARK                         _______ _______ _______ _____ _____    ______ ____
ATOM      1  O   UNL     1      61.558  62.085  66.530  0.00  0.00    +0.000 OA
ATOM      2  C   UNL     1      61.427  62.872  66.738  0.00  0.00    +0.000 C 
ATOM      3  C   UNL     1      61.132  63.059  67.485  0.00  0.00    +0.000 C 
ATOM      4  O   UNL     1      61.001  63.846  67.693  0.00  0.00    +0.000 OA
ATOM      5  C   UNL     1      60.706  64.032  68.440  0.00  0.00    +0.000 C 
ATOM      6  O   UNL     1      60.575  64.820  68.648  0.00  0.00    +0.000 OA
ATOM      7  C   UNL     1      60.542  63.431  68.980  0.00  0.00    +0.000 C 
ATOM      8  N   UNL     1      60.247  63.617  69.729  0.00  0.00    +0.000 NA
ATOM      9  C   UNL     1      60.116  64.405  69.936  0.00  0.00    +0.000 C 
ATOM     10  O   UNL     1      60.280  65.006  69.395  0.00  0.00    +0.000 OA
ATOM     11  N   UNL     1      59.822  64.590  70.683  0.00  0.00    +0.000 N 
ATOM     12  C   UNL     1      59.690  65.378  70.891  0.00  0.00    +0.000 C 
ATOM     13  C   UNL     1      59.396  65.564  71.638  0.00  0.00    +0.000 C 
ATOM     14 CL   UNL     1      59.265  66.352  71.846  0.00  0.00    +0.000 Cl
ATOM     15  N   UNL     1      59.658  63.989  71.223  0.00  0.00    +0.000 NA
ATOM     16  O   UNL     1      59.362  64.175  71.971  0.00  0.00    +0.000 OA
ATOM     17  C   UNL     1      60.673  62.642  68.773  0.00  0.00    +0.000 C 
ATOM     18  O   UNL     1      60.510  62.042  69.312  0.00  0.00    +0.000 OA
ATOM     19  C   UNL     1      60.968  62.457  68.025  0.00  0.00    +0.000 C 
ATOM     20  O   UNL     1      61.099  61.669  67.818  0.00  0.00    +0.000 OA
ENDROOT
TORSDOF 0
ENDMDL
MODEL 7
REMARK VINA RESULT:    -8.207      5.168      6.389
REMARK INTER + INTRA:          -8.207
REMARK INTER:                  -8.207
REMARK INTRA:                   0.000
REMARK UNBOUND:                 0.000
ROOT
REMARK  Name = chlorozotocin
REMARK                            x       y       z     vdW  Elec       q    Type
REMARK                         _______ _______ _______ _____ _____    ______ ____
ATOM      1  O   UNL     1      65.384  67.244  70.168  0.00  0.00    +0.000 OA
ATOM      2  C   UNL     1      65.109  66.548  69.819  0.00  0.00    +0.000 C 
ATOM      3  C   UNL     1      64.541  66.090  70.203  0.00  0.00    +0.000 C 
ATOM      4  O   UNL     1      64.267  65.395  69.854  0.00  0.00    +0.000 OA
ATOM      5  C   UNL     1      63.698  64.937  70.238  0.00  0.00    +0.000 C 
ATOM      6  O   UNL     1      63.423  64.241  69.890  0.00  0.00    +0.000 OA
ATOM      7  C   UNL     1      63.405  65.174  70.972  0.00  0.00    +0.000 C 
ATOM      8  N   UNL     1      62.836  64.715  71.357  0.00  0.00    +0.000 NA
ATOM      9  C   UNL     1      62.562  64.020  71.007  0.00  0.00    +0.000 C 
ATOM     10  O   UNL     1      62.856  63.783  70.274  0.00  0.00    +0.000 OA
ATOM     11  N   UNL     1      61.994  63.563  71.392  0.00  0.00    +0.000 N 
ATOM     12  C   UNL     1      61.719  62.867  71.043  0.00  0.00    +0.000 C 
ATOM     13  C   UNL     1      61.151  62.409  71.428  0.00  0.00    +0.000 C 
ATOM     14 CL   UNL     1      60.876  61.714  71.078  0.00  0.00    +0.000 Cl
ATOM     15  N   UNL     1      61.700  63.800  72.125  0.00  0.00    +0.000 NA
ATOM     16  O   UNL     1      61.132  63.341  72.510  0.00  0.00    +0.000 OA
ATOM     17  C   UNL     1      63.680  65.870  71.322  0.00  0.00    +0.000 C 
ATOM     18  O   UNL     1      63.386  66.106  72.054  0.00  0.00    +0.000 OA
ATOM     19  C   UNL     1      64.248  66.327  70.937  0.00  0.00    +0.000 C 
ATOM     20  O   UNL     1      64.522  67.022  71.286  0.00  0.00    +0.000 OA
ENDROOT
TORSDOF 0
ENDMDL
MODEL 8
REMARK VINA RESULT:    -7.620      6.848      7.763
REMARK INTER + INTRA:          -7.620
REMARK INTER:                  -7.620
REMARK INTRA:                   0.000
REMARK UNBOUND:                 0.000
ROOT
REMARK  Name = chlorozotocin
REMARK                            x       y       z     vdW  Elec       q    Type
REMARK                         _______ _______ _______ _____ _____    ______ ____
ATOM      1  O   UNL     1      65.251  66.657  71.702  0.00  0.00    +0.000 OA
ATOM      2  C   UNL     1      64.686  67.160  72.033  0.00  0.00    +0.000 C 
ATOM      3  C   UNL     1      63.890  66.948  72.025  0.00  0.00    +0.000 C 
ATOM      4  O   UNL     1      63.326  67.451  72.355  0.00  0.00    +0.000 OA
ATOM      5  C   UNL     1      62.528  67.239  72.347  0.00  0.00    +0.000 C 
ATOM      6  O   UNL     1      61.963  67.742  72.678  0.00  0.00    +0.000 OA
ATOM      7  C   UNL     1      62.295  66.524  72.009  0.00  0.00    +0.000 C 
ATOM      8  N   UNL     1      61.497  66.312  72.001  0.00  0.00    +0.000 NA
ATOM      9  C   UNL     1      60.934  66.815  72.331  0.00  0.00    +0.000 C 
ATOM     10  O   UNL     1      61.167  67.530  72.670  0.00  0.00    +0.000 OA
ATOM     11  N   UNL     1      60.137  66.602  72.323  0.00  0.00    +0.000 N 
ATOM     12  C   UNL     1      59.572  67.106  72.654  0.00  0.00    +0.000 C 
ATOM     13  C   UNL     1      58.775  66.893  72.645  0.00  0.00    +0.000 C 
ATOM     14 CL   UNL     1      58.211  67.397  72.976  0.00  0.00    +0.000 Cl
ATOM     15  N   UNL     1      59.904  65.888  71.985  0.00  0.00    +0.000 NA
ATOM     16  O   UNL     1      59.106  65.675  71.977  0.00  0.00    +0.000 OA
ATOM     17  C   UNL     1      62.860  66.020  71.678  0.00  0.00    +0.000 C 
ATOM     18  O   UNL     1      62.627  65.306  71.340  0.00  0.00    +0.000 OA
ATOM     19  C   UNL     1      63.656  66.233  71.686  0.00  0.00    +0.000 C 
ATOM     20  O   UNL     1      64.220  65.730  71.356  0.00  0.00    +0.000 OA
ENDROOT
TORSDOF 0
ENDMDL
MODEL 9
REMARK VINA RESULT:    -7.594      4.772      5.829
REMARK INTER + INTRA:          -7.594
REMARK INTER:                  -7.594
REMARK INTRA:                   0.000
REMARK UNBOUND:                 0.000
ROOT
REMARK  Name = chlorozotocin
REMARK                            x       y       z     vdW  Elec       q    Type
REMARK                         _______ _______ _______ _____ _____    ______ ____
ATOM      1  O   UNL     1      61.745  61.006  71.705  0.00  0.00    +0.000 OA
ATOM      2  C   UNL     1      61.634  61.697  72.143  0.00  0.00    +0.000 C 
ATOM      3  C   UNL     1      61.301  62.362  71.787  0.00  0.00    +0.000 C 
ATOM      4  O   UNL     1      61.190  63.052  72.224  0.00  0.00    +0.000 OA
ATOM      5  C   UNL     1      60.856  63.717  71.868  0.00  0.00    +0.000 C 
ATOM      6  O   UNL     1      60.745  64.408  72.306  0.00  0.00    +0.000 OA
ATOM      7  C   UNL     1      60.634  63.692  71.074  0.00  0.00    +0.000 C 
ATOM      8  N   UNL     1      60.301  64.358  70.717  0.00  0.00    +0.000 NA
ATOM      9  C   UNL     1      60.190  65.048  71.156  0.00  0.00    +0.000 C 
ATOM     10  O   UNL     1      60.412  65.073  71.950  0.00  0.00    +0.000 OA
ATOM     11  N   UNL     1      59.857  65.713  70.799  0.00  0.00    +0.000 N 
ATOM     12  C   UNL     1      59.746  66.404  71.237  0.00  0.00    +0.000 C 
ATOM     13  C   UNL     1      59.413  67.069  70.880  0.00  0.00    +0.000 C 
ATOM     14 CL   UNL     1      59.301  67.760  71.319  0.00  0.00    +0.000 Cl
ATOM     15  N   UNL     1      59.635  65.688  70.006  0.00  0.00    +0.000 NA
ATOM     16  O   UNL     1      59.302  66.354  69.649  0.00  0.00    +0.000 OA
ATOM     17  C   UNL     1      60.746  63.002  70.636  0.00  0.00    +0.000 C 
ATOM     18  O   UNL     1      60.524  62.977  69.843  0.00  0.00    +0.000 OA
ATOM     19  C   UNL     1      61.079  62.337  70.993  0.00  0.00    +0.000 C 
ATOM     20  O   UNL     1      61.190  61.647  70.554  0.00  0.00    +0.000 OA
ENDROOT
TORSDOF 0
ENDMDL
