MODEL 1
REMARK VINA RESULT:   -11.785      0.000      0.000
REMARK INTER + INTRA:         -11.785
REMARK INTER:                 -11.785
REMARK INTRA:                   0.000
REMARK UNBOUND:                 0.000
ROOT
REMARK  Name = chlortalidone
REMARK                            x       y       z     vdW  Elec       q    Type
REMARK                         _______ _______ _______ _____ _____    ______ ____
ATOM      1  N   UNL     1      60.692  60.680  63.220  0.00  0.00    +0.000 NA
ATOM      2  S   UNL     1      61.106  61.127  63.777  0.00  0.00    +0.000 S 
ATOM      3  O   UNL     1      61.768  61.127  63.284  0.00  0.00    +0.000 OA
ATOM      4  O   UNL     1      60.445  61.126  64.270  0.00  0.00    +0.000 OA
ATOM      5  C   UNL     1      61.521  61.573  64.333  0.00  0.00    +0.000 A 
ATOM      6  C   UNL     1      61.155  61.796  65.039  0.00  0.00    +0.000 A 
ATOM      7  C   UNL     1      61.570  62.242  65.595  0.00  0.00    +0.000 A 
ATOM      8  C   UNL     1      62.350  62.465  65.447  0.00  0.00    +0.000 A 
ATOM      9  C   UNL     1      62.715  62.242  64.742  0.00  0.00    +0.000 A 
ATOM     10  C   UNL     1      62.301  61.796  64.185  0.00  0.00    +0.000 A 
ATOM     11 CL   UNL     1      62.666  61.573  63.480  0.00  0.00    +0.000 Cl
ATOM     12  C   UNL     1      61.204  62.465  66.301  0.00  0.00    +0.000 C 
ATOM     13  O   UNL     1      61.928  62.826  66.461  0.00  0.00    +0.000 OA
ATOM     14  N   UNL     1      60.556  62.057  65.993  0.00  0.00    +0.000 NA
ATOM     15  C   UNL     1      59.941  62.104  66.541  0.00  0.00    +0.000 C 
ATOM     16  O   UNL     1      59.191  61.772  66.457  0.00  0.00    +0.000 OA
ATOM     17  C   UNL     1      60.209  62.540  67.187  0.00  0.00    +0.000 A 
ATOM     18  C   UNL     1      59.844  62.763  67.893  0.00  0.00    +0.000 A 
ATOM     19  C   UNL     1      60.258  63.209  68.449  0.00  0.00    +0.000 A 
ATOM     20  C   UNL     1      61.038  63.432  68.301  0.00  0.00    +0.000 A 
ATOM     21  C   UNL     1      61.404  63.209  67.596  0.00  0.00    +0.000 A 
ATOM     22  C   UNL     1      60.989  62.763  67.039  0.00  0.00    +0.000 A 
ENDROOT
TORSDOF 0
ENDMDL
MODEL 2
REMARK VINA RESULT:   -11.741      2.070      4.045
REMARK INTER + INTRA:         -11.741
REMARK INTER:                 -11.741
REMARK INTRA:                   0.000
REMARK UNBOUND:                 0.000
ROOT
REMARK  Name = chlortalidone
REMARK                            x       y       z     vdW  Elec       q    Type
REMARK                         _______ _______ _______ _____ _____    ______ ____
ATOM      1  N   UNL     1      61.932  63.961  68.674  0.00  0.00    +0.000 NA
ATOM      2  S   UNL     1      61.437  63.505  68.198  0.00  0.00    +0.000 S 
ATOM      3  O   UNL     1      60.841  63.558  68.767  0.00  0.00    +0.000 OA
ATOM      4  O   UNL     1      62.032  63.452  67.629  0.00  0.00    +0.000 OA
ATOM      5  C   UNL     1      60.941  63.049  67.722  0.00  0.00    +0.000 A 
ATOM      6  C   UNL     1      61.209  62.775  66.990  0.00  0.00    +0.000 A 
ATOM      7  C   UNL     1      60.712  62.319  66.514  0.00  0.00    +0.000 A 
ATOM      8  C   UNL     1      59.949  62.137  66.769  0.00  0.00    +0.000 A 
ATOM      9  C   UNL     1      59.682  62.410  67.499  0.00  0.00    +0.000 A 
ATOM     10  C   UNL     1      60.177  62.867  67.976  0.00  0.00    +0.000 A 
ATOM     11 CL   UNL     1      59.910  63.140  68.707  0.00  0.00    +0.000 Cl
ATOM     12  C   UNL     1      60.980  62.045  65.783  0.00  0.00    +0.000 C 
ATOM     13  O   UNL     1      60.229  61.708  65.733  0.00  0.00    +0.000 OA
ATOM     14  N   UNL     1      61.675  62.441  65.987  0.00  0.00    +0.000 NA
ATOM     15  C   UNL     1      62.215  62.341  65.371  0.00  0.00    +0.000 C 
ATOM     16  O   UNL     1      62.981  62.644  65.345  0.00  0.00    +0.000 OA
ATOM     17  C   UNL     1      61.854  61.884  64.787  0.00  0.00    +0.000 A 
ATOM     18  C   UNL     1      62.121  61.610  64.056  0.00  0.00    +0.000 A 
ATOM     19  C   UNL     1      61.626  61.154  63.580  0.00  0.00    +0.000 A 
ATOM     20  C   UNL     1      60.863  60.972  63.835  0.00  0.00    +0.000 A 
ATOM     21  C   UNL     1      60.595  61.245  64.565  0.00  0.00    +0.000 A 
ATOM     22  C   UNL     1      61.091  61.701  65.042  0.00  0.00    +0.000 A 
ENDROOT
TORSDOF 0
ENDMDL
MODEL 3
REMARK VINA RESULT:   -10.906      4.435      6.087
REMARK INTER + INTRA:         -10.906
REMARK INTER:                 -10.906
REMARK INTRA:                   0.000
REMARK UNBOUND:                 0.000
ROOT
REMARK  Name = chlortalidone
REMARK                            x       y       z     vdW  Elec       q    Type
REMARK                         _______ _______ _______ _____ _____    ______ ____
ATOM      1  N   UNL     1      61.276  64.813  72.749  0.00  0.00    +0.000 NA
ATOM      2  S   UNL     1      61.252  64.113  72.313  0.00  0.00    +0.000 S 
ATOM      3  O   UNL     1      61.527  63.695  72.970  0.00  0.00    +0.000 OA
ATOM      4  O   UNL     1      60.977  64.531  71.657  0.00  0.00    +0.000 OA
ATOM      5  C   UNL     1      61.228  63.413  71.878  0.00  0.00    +0.000 A 
ATOM      6  C   UNL     1      60.978  63.425  71.091  0.00  0.00    +0.000 A 
ATOM      7  C   UNL     1      60.955  62.724  70.656  0.00  0.00    +0.000 A 
ATOM      8  C   UNL     1      61.181  62.013  71.006  0.00  0.00    +0.000 A 
ATOM      9  C   UNL     1      61.430  62.001  71.792  0.00  0.00    +0.000 A 
ATOM     10  C   UNL     1      61.454  62.701  72.228  0.00  0.00    +0.000 A 
ATOM     11 CL   UNL     1      61.704  62.690  73.014  0.00  0.00    +0.000 Cl
ATOM     12  C   UNL     1      60.705  62.736  69.869  0.00  0.00    +0.000 C 
ATOM     13  O   UNL     1      60.848  61.924  69.903  0.00  0.00    +0.000 OA
ATOM     14  N   UNL     1      60.615  63.545  70.000  0.00  0.00    +0.000 NA
ATOM     15  C   UNL     1      60.340  63.888  69.302  0.00  0.00    +0.000 C 
ATOM     16  O   UNL     1      60.174  64.687  69.187  0.00  0.00    +0.000 OA
ATOM     17  C   UNL     1      60.260  63.290  68.740  0.00  0.00    +0.000 A 
ATOM     18  C   UNL     1      60.010  63.301  67.953  0.00  0.00    +0.000 A 
ATOM     19  C   UNL     1      59.986  62.602  67.518  0.00  0.00    +0.000 A 
ATOM     20  C   UNL     1      60.212  61.890  67.868  0.00  0.00    +0.000 A 
ATOM     21  C   UNL     1      60.462  61.878  68.654  0.00  0.00    +0.000 A 
ATOM     22  C   UNL     1      60.486  62.578  69.090  0.00  0.00    +0.000 A 
ENDROOT
TORSDOF 0
ENDMDL
MODEL 4
REMARK VINA RESULT:   -10.729      3.250      4.697
REMARK INTER + INTRA:         -10.729
REMARK INTER:                 -10.729
REMARK INTRA:                   0.000
REMARK UNBOUND:                 0.000
ROOT
REMARK  Name = chlortalidone
REMARK                            x       y       z     vdW  Elec       q    Type
REMARK                         _______ _______ _______ _____ _____    ______ ____
ATOM      1  N   UNL     1      61.303  63.475  67.059  0.00  0.00    +0.000 NA
ATOM      2  S   UNL     1      61.100  63.095  67.763  0.00  0.00    +0.000 S 
ATOM      3  O   UNL     1      60.722  62.500  67.333  0.00  0.00    +0.000 OA
ATOM      4  O   UNL     1      61.477  63.689  68.193  0.00  0.00    +0.000 OA
ATOM      5  C   UNL     1      60.897  62.714  68.466  0.00  0.00    +0.000 A 
ATOM      6  C   UNL     1      61.122  63.039  69.191  0.00  0.00    +0.000 A 
ATOM      7  C   UNL     1      60.919  62.659  69.894  0.00  0.00    +0.000 A 
ATOM      8  C   UNL     1      60.491  61.954  69.873  0.00  0.00    +0.000 A 
ATOM      9  C   UNL     1      60.266  61.630  69.149  0.00  0.00    +0.000 A 
ATOM     10  C   UNL     1      60.468  62.010  68.445  0.00  0.00    +0.000 A 
ATOM     11 CL   UNL     1      60.243  61.685  67.722  0.00  0.00    +0.000 Cl
ATOM     12  C   UNL     1      61.145  62.984  70.619  0.00  0.00    +0.000 C 
ATOM     13  O   UNL     1      60.758  62.326  70.934  0.00  0.00    +0.000 OA
ATOM     14  N   UNL     1      61.483  63.572  70.151  0.00  0.00    +0.000 NA
ATOM     15  C   UNL     1      61.838  64.124  70.652  0.00  0.00    +0.000 C 
ATOM     16  O   UNL     1      62.241  64.804  70.417  0.00  0.00    +0.000 OA
ATOM     17  C   UNL     1      61.718  63.876  71.429  0.00  0.00    +0.000 A 
ATOM     18  C   UNL     1      61.943  64.200  72.154  0.00  0.00    +0.000 A 
ATOM     19  C   UNL     1      61.740  63.820  72.857  0.00  0.00    +0.000 A 
ATOM     20  C   UNL     1      61.312  63.115  72.836  0.00  0.00    +0.000 A 
ATOM     21  C   UNL     1      61.086  62.790  72.112  0.00  0.00    +0.000 A 
ATOM     22  C   UNL     1      61.289  63.171  71.408  0.00  0.00    +0.000 A 
ENDROOT
TORSDOF 0
ENDMDL
MODEL 5
REMARK VINA RESULT:   -10.612      4.734      6.173
REMARK INTER + INTRA:         -10.612
REMARK INTER:                 -10.612
REMARK INTRA:                   0.000
REMARK UNBOUND:                 0.000
ROOT
REMARK  Name = chlortalidone
REMARK                            x       y       z     vdW  Elec       q    Type
REMARK                         _______ _______ _______ _____ _____    ______ ____
ATOM      1  N   UNL     1      59.724  67.223  68.949  0.00  0.00    +0.000 NA
ATOM      2  S   UNL     1      59.704  66.660  69.551  0.00  0.00    +0.000 S 
ATOM      3  O   UNL     1      59.450  67.238  70.083  0.00  0.00    +0.000 OA
ATOM      4  O   UNL     1      59.957  66.082  69.020  0.00  0.00    +0.000 OA
ATOM      5  C   UNL     1      59.683  66.097  70.154  0.00  0.00    +0.000 A 
ATOM      6  C   UNL     1      59.893  65.315  69.995  0.00  0.00    +0.000 A 
ATOM      7  C   UNL     1      59.872  64.752  70.598  0.00  0.00    +0.000 A 
ATOM      8  C   UNL     1      59.642  64.971  71.360  0.00  0.00    +0.000 A 
ATOM      9  C   UNL     1      59.433  65.753  71.518  0.00  0.00    +0.000 A 
ATOM     10  C   UNL     1      59.453  66.316  70.916  0.00  0.00    +0.000 A 
ATOM     11 CL   UNL     1      59.244  67.098  71.074  0.00  0.00    +0.000 Cl
ATOM     12  C   UNL     1      60.081  63.970  70.439  0.00  0.00    +0.000 C 
ATOM     13  O   UNL     1      59.916  63.854  71.239  0.00  0.00    +0.000 OA
ATOM     14  N   UNL     1      60.203  64.249  69.673  0.00  0.00    +0.000 NA
ATOM     15  C   UNL     1      60.453  63.615  69.207  0.00  0.00    +0.000 C 
ATOM     16  O   UNL     1      60.638  63.647  68.404  0.00  0.00    +0.000 OA
ATOM     17  C   UNL     1      60.486  62.945  69.686  0.00  0.00    +0.000 A 
ATOM     18  C   UNL     1      60.695  62.162  69.528  0.00  0.00    +0.000 A 
ATOM     19  C   UNL     1      60.675  61.600  70.130  0.00  0.00    +0.000 A 
ATOM     20  C   UNL     1      60.445  61.819  70.892  0.00  0.00    +0.000 A 
ATOM     21  C   UNL     1      60.236  62.601  71.051  0.00  0.00    +0.000 A 
ATOM     22  C   UNL     1      60.256  63.164  70.448  0.00  0.00    +0.000 A 
ENDROOT
TORSDOF 0
ENDMDL
MODEL 6
REMARK VINA RESULT:   -10.605      6.127      7.350
REMARK INTER + INTRA:         -10.605
REMARK INTER:                 -10.605
REMARK INTRA:                   0.000
REMARK UNBOUND:                 0.000
ROOT
REMARK  Name = chlortalidone
REMARK                            x       y       z     vdW  Elec       q    Type
REMARK                         _______ _______ _______ _____ _____    ______ ____
ATOM      1  N   UNL     1      61.759  63.367  70.311  0.00  0.00    +0.000 NA
ATOM      2  S   UNL     1      62.077  63.980  70.761  0.00  0.00    +0.000 S 
ATOM      3  O   UNL     1      61.514  63.840  71.349  0.00  0.00    +0.000 OA
ATOM      4  O   UNL     1      62.639  64.121  70.175  0.00  0.00    +0.000 OA
ATOM      5  C   UNL     1      62.394  64.594  71.213  0.00  0.00    +0.000 A 
ATOM      6  C   UNL     1      63.040  65.022  70.930  0.00  0.00    +0.000 A 
ATOM      7  C   UNL     1      63.357  65.636  71.381  0.00  0.00    +0.000 A 
ATOM      8  C   UNL     1      63.028  65.821  72.115  0.00  0.00    +0.000 A 
ATOM      9  C   UNL     1      62.383  65.392  72.397  0.00  0.00    +0.000 A 
ATOM     10  C   UNL     1      62.065  64.779  71.947  0.00  0.00    +0.000 A 
ATOM     11 CL   UNL     1      61.420  64.350  72.229  0.00  0.00    +0.000 Cl
ATOM     12  C   UNL     1      64.003  66.064  71.098  0.00  0.00    +0.000 C 
ATOM     13  O   UNL     1      63.929  66.478  71.808  0.00  0.00    +0.000 OA
ATOM     14  N   UNL     1      63.942  65.561  70.448  0.00  0.00    +0.000 NA
ATOM     15  C   UNL     1      64.535  65.765  69.911  0.00  0.00    +0.000 C 
ATOM     16  O   UNL     1      64.675  65.403  69.184  0.00  0.00    +0.000 OA
ATOM     17  C   UNL     1      64.962  66.394  70.230  0.00  0.00    +0.000 A 
ATOM     18  C   UNL     1      65.608  66.823  69.948  0.00  0.00    +0.000 A 
ATOM     19  C   UNL     1      65.925  67.436  70.399  0.00  0.00    +0.000 A 
ATOM     20  C   UNL     1      65.596  67.621  71.132  0.00  0.00    +0.000 A 
ATOM     21  C   UNL     1      64.951  67.193  71.416  0.00  0.00    +0.000 A 
ATOM     22  C   UNL     1      64.633  66.579  70.964  0.00  0.00    +0.000 A 
ENDROOT
TORSDOF 0
ENDMDL
MODEL 7
REMARK VINA RESULT:   -10.460      6.131      7.024
REMARK INTER + INTRA:         -10.460
REMARK INTER:                 -10.460
REMARK INTRA:                   0.000
REMARK UNBOUND:                 0.000
ROOT
REMARK  Name = chlortalidone
REMARK                            x       y       z     vdW  Elec       q    Type
REMARK                         _______ _______ _______ _____ _____    ______ ____
ATOM      1  N   UNL     1      64.529  67.255  71.721  0.00  0.00    +0.000 NA
ATOM      2  S   UNL     1      64.291  66.558  71.349  0.00  0.00    +0.000 S 
ATOM      3  O   UNL     1      64.844  66.690  70.750  0.00  0.00    +0.000 OA
ATOM      4  O   UNL     1      63.739  66.426  71.946  0.00  0.00    +0.000 OA
ATOM      5  C   UNL     1      64.054  65.861  70.975  0.00  0.00    +0.000 A 
ATOM      6  C   UNL     1      63.457  65.398  71.307  0.00  0.00    +0.000 A 
ATOM      7  C   UNL     1      63.220  64.702  70.934  0.00  0.00    +0.000 A 
ATOM      8  C   UNL     1      63.580  64.468  70.230  0.00  0.00    +0.000 A 
ATOM      9  C   UNL     1      64.177  64.930  69.899  0.00  0.00    +0.000 A 
ATOM     10  C   UNL     1      64.415  65.627  70.271  0.00  0.00    +0.000 A 
ATOM     11 CL   UNL     1      65.011  66.089  69.940  0.00  0.00    +0.000 Cl
ATOM     12  C   UNL     1      62.622  64.239  71.266  0.00  0.00    +0.000 C 
ATOM     13  O   UNL     1      62.756  63.753  70.613  0.00  0.00    +0.000 OA
ATOM     14  N   UNL     1      62.614  64.822  71.850  0.00  0.00    +0.000 NA
ATOM     15  C   UNL     1      62.039  64.618  72.406  0.00  0.00    +0.000 C 
ATOM     16  O   UNL     1      61.846  65.048  73.083  0.00  0.00    +0.000 OA
ATOM     17  C   UNL     1      61.693  63.910  72.166  0.00  0.00    +0.000 A 
ATOM     18  C   UNL     1      61.096  63.447  72.497  0.00  0.00    +0.000 A 
ATOM     19  C   UNL     1      60.859  62.750  72.125  0.00  0.00    +0.000 A 
ATOM     20  C   UNL     1      61.219  62.516  71.420  0.00  0.00    +0.000 A 
ATOM     21  C   UNL     1      61.816  62.978  71.088  0.00  0.00    +0.000 A 
ATOM     22  C   UNL     1      62.053  63.675  71.462  0.00  0.00    +0.000 A 
ENDROOT
TORSDOF 0
ENDMDL
MODEL 8
REMARK VINA RESULT:   -10.189      4.986      6.761
REMARK INTER + INTRA:         -10.189
REMARK INTER:                 -10.189
REMARK INTRA:                   0.000
REMARK UNBOUND:                 0.000
ROOT
REMARK  Name = chlortalidone
REMARK                            x       y       z     vdW  Elec       q    Type
REMARK                         _______ _______ _______ _____ _____    ______ ____
ATOM      1  N   UNL     1      63.127  66.545  71.418  0.00  0.00    +0.000 NA
ATOM      2  S   UNL     1      62.653  65.907  71.642  0.00  0.00    +0.000 S 
ATOM      3  O   UNL     1      62.647  66.185  72.419  0.00  0.00    +0.000 OA
ATOM      4  O   UNL     1      62.660  65.629  70.866  0.00  0.00    +0.000 OA
ATOM      5  C   UNL     1      62.180  65.270  71.867  0.00  0.00    +0.000 A 
ATOM      6  C   UNL     1      61.949  64.710  71.306  0.00  0.00    +0.000 A 
ATOM      7  C   UNL     1      61.476  64.073  71.531  0.00  0.00    +0.000 A 
ATOM      8  C   UNL     1      61.234  63.995  72.316  0.00  0.00    +0.000 A 
ATOM      9  C   UNL     1      61.465  64.554  72.876  0.00  0.00    +0.000 A 
ATOM     10  C   UNL     1      61.938  65.192  72.652  0.00  0.00    +0.000 A 
ATOM     11 CL   UNL     1      62.169  65.751  73.212  0.00  0.00    +0.000 Cl
ATOM     12  C   UNL     1      61.244  63.513  70.970  0.00  0.00    +0.000 C 
ATOM     13  O   UNL     1      60.858  63.161  71.608  0.00  0.00    +0.000 OA
ATOM     14  N   UNL     1      61.679  63.982  70.449  0.00  0.00    +0.000 NA
ATOM     15  C   UNL     1      61.636  63.639  69.700  0.00  0.00    +0.000 C 
ATOM     16  O   UNL     1      61.992  63.926  69.014  0.00  0.00    +0.000 OA
ATOM     17  C   UNL     1      61.175  62.958  69.758  0.00  0.00    +0.000 A 
ATOM     18  C   UNL     1      60.943  62.398  69.198  0.00  0.00    +0.000 A 
ATOM     19  C   UNL     1      60.470  61.761  69.422  0.00  0.00    +0.000 A 
ATOM     20  C   UNL     1      60.228  61.683  70.207  0.00  0.00    +0.000 A 
ATOM     21  C   UNL     1      60.459  62.242  70.768  0.00  0.00    +0.000 A 
ATOM     22  C   UNL     1      60.933  62.880  70.543  0.00  0.00    +0.000 A 
ENDROOT
TORSDOF 0
ENDMDL
MODEL 9
REMARK VINA RESULT:    -9.579      6.255      7.292
REMARK INTER + INTRA:          -9.579
REMARK INTER:                  -9.579
REMARK INTRA:                   0.000
REMARK UNBOUND:                 0.000
ROOT
REMARK  Name = chlortalidone
REMARK                            x       y       z     vdW  Elec       q    Type
REMARK                         _______ _______ _______ _____ _____    ______ ____
ATOM      1  N   UNL     1      59.414  67.553  71.435  0.00  0.00    +0.000 NA
ATOM      2  S   UNL     1      59.960  67.246  70.898  0.00  0.00    +0.000 S 
ATOM      3  O   UNL     1      59.378  67.242  70.311  0.00  0.00    +0.000 OA
ATOM      4  O   UNL     1      60.540  67.251  71.483  0.00  0.00    +0.000 OA
ATOM      5  C   UNL     1      60.504  66.940  70.359  0.00  0.00    +0.000 A 
ATOM      6  C   UNL     1      61.280  66.790  70.598  0.00  0.00    +0.000 A 
ATOM      7  C   UNL     1      61.825  66.484  70.060  0.00  0.00    +0.000 A 
ATOM      8  C   UNL     1      61.595  66.326  69.284  0.00  0.00    +0.000 A 
ATOM      9  C   UNL     1      60.820  66.475  69.046  0.00  0.00    +0.000 A 
ATOM     10  C   UNL     1      60.274  66.782  69.583  0.00  0.00    +0.000 A 
ATOM     11 CL   UNL     1      59.499  66.931  69.345  0.00  0.00    +0.000 Cl
ATOM     12  C   UNL     1      62.601  66.334  70.299  0.00  0.00    +0.000 C 
ATOM     13  O   UNL     1      62.700  66.083  69.519  0.00  0.00    +0.000 OA
ATOM     14  N   UNL     1      62.339  66.616  71.028  0.00  0.00    +0.000 NA
ATOM     15  C   UNL     1      62.974  66.589  71.555  0.00  0.00    +0.000 C 
ATOM     16  O   UNL     1      62.957  66.820  72.346  0.00  0.00    +0.000 OA
ATOM     17  C   UNL     1      63.627  66.290  71.151  0.00  0.00    +0.000 A 
ATOM     18  C   UNL     1      64.403  66.141  71.389  0.00  0.00    +0.000 A 
ATOM     19  C   UNL     1      64.948  65.834  70.852  0.00  0.00    +0.000 A 
ATOM     20  C   UNL     1      64.718  65.677  70.075  0.00  0.00    +0.000 A 
ATOM     21  C   UNL     1      63.942  65.826  69.836  0.00  0.00    +0.000 A 
ATOM     22  C   UNL     1      63.397  66.133  70.375  0.00  0.00    +0.000 A 
ENDROOT
TORSDOF 0
ENDMDL
