MODEL 1
REMARK VINA RESULT:   -12.550      0.000      0.000
REMARK INTER + INTRA:         -12.550
REMARK INTER:                 -12.550
REMARK INTRA:                   0.000
REMARK UNBOUND:                 0.000
ROOT
REMARK  Name = cicaprost
REMARK                            x       y       z     vdW  Elec       q    Type
REMARK                         _______ _______ _______ _____ _____    ______ ____
ATOM      1  C   UNL     1      60.920  60.095  62.083  0.00  0.00    +0.000 C 
ATOM      2  C   UNL     1      60.629  60.234  62.844  0.00  0.00    +0.000 C 
ATOM      3  C   UNL     1      61.031  60.746  63.350  0.00  0.00    +0.000 C 
ATOM      4  C   UNL     1      61.431  61.257  63.859  0.00  0.00    +0.000 C 
ATOM      5  C   UNL     1      61.832  61.769  64.366  0.00  0.00    +0.000 C 
ATOM      6  C   UNL     1      61.543  61.907  65.126  0.00  0.00    +0.000 C 
ATOM      7  C   UNL     1      60.852  61.534  65.378  0.00  0.00    +0.000 C 
ATOM      8  C   UNL     1      61.944  62.420  65.634  0.00  0.00    +0.000 C 
ATOM      9  O   UNL     1      62.635  62.793  65.382  0.00  0.00    +0.000 OA
ATOM     10  C   UNL     1      61.654  62.558  66.393  0.00  0.00    +0.000 C 
ATOM     11  C   UNL     1      61.364  62.696  67.153  0.00  0.00    +0.000 C 
ATOM     12  C   UNL     1      61.074  62.835  67.913  0.00  0.00    +0.000 C 
ATOM     13  C   UNL     1      60.394  62.503  68.240  0.00  0.00    +0.000 C 
ATOM     14  O   UNL     1      59.884  61.974  67.866  0.00  0.00    +0.000 OA
ATOM     15  C   UNL     1      60.313  62.792  69.009  0.00  0.00    +0.000 C 
ATOM     16  C   UNL     1      60.943  63.303  69.156  0.00  0.00    +0.000 C 
ATOM     17  C   UNL     1      61.283  63.798  69.722  0.00  0.00    +0.000 C 
ATOM     18  C   UNL     1      61.963  64.130  69.395  0.00  0.00    +0.000 C 
ATOM     19  C   UNL     1      62.045  63.841  68.626  0.00  0.00    +0.000 C 
ATOM     20  C   UNL     1      61.414  63.330  68.479  0.00  0.00    +0.000 C 
ATOM     21  C   UNL     1      62.474  64.659  69.769  0.00  0.00    +0.000 C 
ATOM     22  C   UNL     1      62.321  64.901  70.544  0.00  0.00    +0.000 C 
ATOM     23  O   UNL     1      62.831  65.430  70.918  0.00  0.00    +0.000 OA
ATOM     24  C   UNL     1      62.679  65.672  71.693  0.00  0.00    +0.000 C 
ATOM     25  C   UNL     1      63.189  66.200  72.068  0.00  0.00    +0.000 C 
ATOM     26  O   UNL     1      63.036  66.442  72.842  0.00  0.00    +0.000 OA
ATOM     27  O   UNL     1      63.852  66.488  71.669  0.00  0.00    +0.000 OA
ENDROOT
TORSDOF 0
ENDMDL
MODEL 2
REMARK VINA RESULT:   -12.534      2.172      6.861
REMARK INTER + INTRA:         -12.534
REMARK INTER:                 -12.534
REMARK INTRA:                   0.000
REMARK UNBOUND:                 0.000
ROOT
REMARK  Name = cicaprost
REMARK                            x       y       z     vdW  Elec       q    Type
REMARK                         _______ _______ _______ _____ _____    ______ ____
ATOM      1  C   UNL     1      58.545  67.260  73.222  0.00  0.00    +0.000 C 
ATOM      2  C   UNL     1      58.701  66.510  72.912  0.00  0.00    +0.000 C 
ATOM      3  C   UNL     1      59.004  66.436  72.149  0.00  0.00    +0.000 C 
ATOM      4  C   UNL     1      59.307  66.359  71.385  0.00  0.00    +0.000 C 
ATOM      5  C   UNL     1      59.609  66.284  70.622  0.00  0.00    +0.000 C 
ATOM      6  C   UNL     1      59.765  65.536  70.312  0.00  0.00    +0.000 C 
ATOM      7  C   UNL     1      59.618  64.862  70.765  0.00  0.00    +0.000 C 
ATOM      8  C   UNL     1      60.068  65.460  69.548  0.00  0.00    +0.000 C 
ATOM      9  O   UNL     1      60.215  66.133  69.094  0.00  0.00    +0.000 OA
ATOM     10  C   UNL     1      60.224  64.712  69.238  0.00  0.00    +0.000 C 
ATOM     11  C   UNL     1      60.380  63.963  68.928  0.00  0.00    +0.000 C 
ATOM     12  C   UNL     1      60.536  63.215  68.619  0.00  0.00    +0.000 C 
ATOM     13  C   UNL     1      60.417  62.496  69.005  0.00  0.00    +0.000 C 
ATOM     14  O   UNL     1      60.123  62.398  69.769  0.00  0.00    +0.000 OA
ATOM     15  C   UNL     1      60.646  61.890  68.493  0.00  0.00    +0.000 C 
ATOM     16  C   UNL     1      60.905  62.235  67.790  0.00  0.00    +0.000 C 
ATOM     17  C   UNL     1      61.207  62.075  67.039  0.00  0.00    +0.000 C 
ATOM     18  C   UNL     1      61.325  62.793  66.653  0.00  0.00    +0.000 C 
ATOM     19  C   UNL     1      61.097  63.399  67.165  0.00  0.00    +0.000 C 
ATOM     20  C   UNL     1      60.837  63.054  67.868  0.00  0.00    +0.000 C 
ATOM     21  C   UNL     1      61.620  62.891  65.888  0.00  0.00    +0.000 C 
ATOM     22  C   UNL     1      61.827  62.230  65.439  0.00  0.00    +0.000 C 
ATOM     23  O   UNL     1      62.122  62.327  64.675  0.00  0.00    +0.000 OA
ATOM     24  C   UNL     1      62.328  61.666  64.225  0.00  0.00    +0.000 C 
ATOM     25  C   UNL     1      62.623  61.764  63.461  0.00  0.00    +0.000 C 
ATOM     26  O   UNL     1      62.830  61.103  63.012  0.00  0.00    +0.000 OA
ATOM     27  O   UNL     1      62.712  62.521  63.146  0.00  0.00    +0.000 OA
ENDROOT
TORSDOF 0
ENDMDL
MODEL 3
REMARK VINA RESULT:   -11.905      1.377      6.953
REMARK INTER + INTRA:         -11.905
REMARK INTER:                 -11.905
REMARK INTRA:                   0.000
REMARK UNBOUND:                 0.000
ROOT
REMARK  Name = cicaprost
REMARK                            x       y       z     vdW  Elec       q    Type
REMARK                         _______ _______ _______ _____ _____    ______ ____
ATOM      1  C   UNL     1      62.919  66.505  73.188  0.00  0.00    +0.000 C 
ATOM      2  C   UNL     1      62.363  66.068  72.761  0.00  0.00    +0.000 C 
ATOM      3  C   UNL     1      62.557  65.770  72.017  0.00  0.00    +0.000 C 
ATOM      4  C   UNL     1      62.750  65.470  71.273  0.00  0.00    +0.000 C 
ATOM      5  C   UNL     1      62.944  65.172  70.529  0.00  0.00    +0.000 C 
ATOM      6  C   UNL     1      62.389  64.736  70.103  0.00  0.00    +0.000 C 
ATOM      7  C   UNL     1      61.640  64.598  70.420  0.00  0.00    +0.000 C 
ATOM      8  C   UNL     1      62.583  64.436  69.358  0.00  0.00    +0.000 C 
ATOM      9  O   UNL     1      63.332  64.573  69.040  0.00  0.00    +0.000 OA
ATOM     10  C   UNL     1      62.027  64.000  68.932  0.00  0.00    +0.000 C 
ATOM     11  C   UNL     1      61.472  63.564  68.505  0.00  0.00    +0.000 C 
ATOM     12  C   UNL     1      60.917  63.128  68.078  0.00  0.00    +0.000 C 
ATOM     13  C   UNL     1      60.150  62.948  68.323  0.00  0.00    +0.000 C 
ATOM     14  O   UNL     1      59.804  63.171  69.037  0.00  0.00    +0.000 OA
ATOM     15  C   UNL     1      59.790  62.504  67.727  0.00  0.00    +0.000 C 
ATOM     16  C   UNL     1      60.334  62.410  67.115  0.00  0.00    +0.000 C 
ATOM     17  C   UNL     1      60.449  62.079  66.368  0.00  0.00    +0.000 C 
ATOM     18  C   UNL     1      61.215  62.259  66.123  0.00  0.00    +0.000 C 
ATOM     19  C   UNL     1      61.575  62.703  66.719  0.00  0.00    +0.000 C 
ATOM     20  C   UNL     1      61.031  62.797  67.331  0.00  0.00    +0.000 C 
ATOM     21  C   UNL     1      61.562  62.036  65.409  0.00  0.00    +0.000 C 
ATOM     22  C   UNL     1      61.131  61.590  64.864  0.00  0.00    +0.000 C 
ATOM     23  O   UNL     1      61.478  61.366  64.149  0.00  0.00    +0.000 OA
ATOM     24  C   UNL     1      61.047  60.920  63.604  0.00  0.00    +0.000 C 
ATOM     25  C   UNL     1      61.394  60.697  62.890  0.00  0.00    +0.000 C 
ATOM     26  O   UNL     1      60.963  60.251  62.344  0.00  0.00    +0.000 OA
ATOM     27  O   UNL     1      62.170  60.919  62.720  0.00  0.00    +0.000 OA
ENDROOT
TORSDOF 0
ENDMDL
MODEL 4
REMARK VINA RESULT:   -10.155     14.007     14.685
REMARK INTER + INTRA:         -10.155
REMARK INTER:                 -10.155
REMARK INTRA:                   0.000
REMARK UNBOUND:                 0.000
ROOT
REMARK  Name = cicaprost
REMARK                            x       y       z     vdW  Elec       q    Type
REMARK                         _______ _______ _______ _____ _____    ______ ____
ATOM      1  C   UNL     1      63.994  61.167  53.911  0.00  0.00    +0.000 C 
ATOM      2  C   UNL     1      64.173  61.960  54.061  0.00  0.00    +0.000 C 
ATOM      3  C   UNL     1      63.582  62.533  54.005  0.00  0.00    +0.000 C 
ATOM      4  C   UNL     1      62.993  63.107  53.950  0.00  0.00    +0.000 C 
ATOM      5  C   UNL     1      62.403  63.681  53.894  0.00  0.00    +0.000 C 
ATOM      6  C   UNL     1      62.582  64.472  54.044  0.00  0.00    +0.000 C 
ATOM      7  C   UNL     1      63.350  64.690  54.250  0.00  0.00    +0.000 C 
ATOM      8  C   UNL     1      61.991  65.046  53.988  0.00  0.00    +0.000 C 
ATOM      9  O   UNL     1      61.222  64.829  53.783  0.00  0.00    +0.000 OA
ATOM     10  C   UNL     1      62.170  65.837  54.139  0.00  0.00    +0.000 C 
ATOM     11  C   UNL     1      62.349  66.629  54.289  0.00  0.00    +0.000 C 
ATOM     12  C   UNL     1      62.528  67.420  54.439  0.00  0.00    +0.000 C 
ATOM     13  C   UNL     1      63.267  67.718  54.649  0.00  0.00    +0.000 C 
ATOM     14  O   UNL     1      63.958  67.279  54.747  0.00  0.00    +0.000 OA
ATOM     15  C   UNL     1      63.194  68.535  54.746  0.00  0.00    +0.000 C 
ATOM     16  C   UNL     1      62.410  68.741  54.595  0.00  0.00    +0.000 C 
ATOM     17  C   UNL     1      61.880  69.372  54.561  0.00  0.00    +0.000 C 
ATOM     18  C   UNL     1      61.141  69.074  54.350  0.00  0.00    +0.000 C 
ATOM     19  C   UNL     1      61.213  68.257  54.254  0.00  0.00    +0.000 C 
ATOM     20  C   UNL     1      61.997  68.051  54.405  0.00  0.00    +0.000 C 
ATOM     21  C   UNL     1      60.450  69.513  54.253  0.00  0.00    +0.000 C 
ATOM     22  C   UNL     1      60.462  70.331  54.368  0.00  0.00    +0.000 C 
ATOM     23  O   UNL     1      59.771  70.771  54.271  0.00  0.00    +0.000 OA
ATOM     24  C   UNL     1      59.782  71.588  54.387  0.00  0.00    +0.000 C 
ATOM     25  C   UNL     1      59.091  72.028  54.289  0.00  0.00    +0.000 C 
ATOM     26  O   UNL     1      59.103  72.845  54.405  0.00  0.00    +0.000 OA
ATOM     27  O   UNL     1      58.389  71.651  54.076  0.00  0.00    +0.000 OA
ENDROOT
TORSDOF 0
ENDMDL
MODEL 5
REMARK VINA RESULT:    -9.992      6.190      7.556
REMARK INTER + INTRA:          -9.992
REMARK INTER:                  -9.992
REMARK INTRA:                   0.000
REMARK UNBOUND:                 0.000
ROOT
REMARK  Name = cicaprost
REMARK                            x       y       z     vdW  Elec       q    Type
REMARK                         _______ _______ _______ _____ _____    ______ ____
ATOM      1  C   UNL     1      68.962  67.959  69.456  0.00  0.00    +0.000 C 
ATOM      2  C   UNL     1      68.378  68.164  70.002  0.00  0.00    +0.000 C 
ATOM      3  C   UNL     1      67.648  67.781  69.987  0.00  0.00    +0.000 C 
ATOM      4  C   UNL     1      66.917  67.399  69.974  0.00  0.00    +0.000 C 
ATOM      5  C   UNL     1      66.187  67.016  69.960  0.00  0.00    +0.000 C 
ATOM      6  C   UNL     1      65.603  67.221  70.505  0.00  0.00    +0.000 C 
ATOM      7  C   UNL     1      65.749  67.809  71.065  0.00  0.00    +0.000 C 
ATOM      8  C   UNL     1      64.872  66.838  70.491  0.00  0.00    +0.000 C 
ATOM      9  O   UNL     1      64.724  66.250  69.932  0.00  0.00    +0.000 OA
ATOM     10  C   UNL     1      64.288  67.043  71.037  0.00  0.00    +0.000 C 
ATOM     11  C   UNL     1      63.705  67.248  71.583  0.00  0.00    +0.000 C 
ATOM     12  C   UNL     1      63.121  67.454  72.129  0.00  0.00    +0.000 C 
ATOM     13  C   UNL     1      63.188  68.027  72.717  0.00  0.00    +0.000 C 
ATOM     14  O   UNL     1      63.850  68.497  72.864  0.00  0.00    +0.000 OA
ATOM     15  C   UNL     1      62.476  68.049  73.134  0.00  0.00    +0.000 C 
ATOM     16  C   UNL     1      61.969  67.489  72.803  0.00  0.00    +0.000 C 
ATOM     17  C   UNL     1      61.216  67.156  72.855  0.00  0.00    +0.000 C 
ATOM     18  C   UNL     1      61.149  66.582  72.267  0.00  0.00    +0.000 C 
ATOM     19  C   UNL     1      61.861  66.560  71.850  0.00  0.00    +0.000 C 
ATOM     20  C   UNL     1      62.368  67.120  72.181  0.00  0.00    +0.000 C 
ATOM     21  C   UNL     1      60.487  66.112  72.120  0.00  0.00    +0.000 C 
ATOM     22  C   UNL     1      59.811  66.197  72.585  0.00  0.00    +0.000 C 
ATOM     23  O   UNL     1      59.149  65.727  72.438  0.00  0.00    +0.000 OA
ATOM     24  C   UNL     1      58.472  65.811  72.904  0.00  0.00    +0.000 C 
ATOM     25  C   UNL     1      57.810  65.341  72.757  0.00  0.00    +0.000 C 
ATOM     26  O   UNL     1      57.133  65.426  73.222  0.00  0.00    +0.000 OA
ATOM     27  O   UNL     1      57.824  64.788  72.145  0.00  0.00    +0.000 OA
ENDROOT
TORSDOF 0
ENDMDL
MODEL 6
REMARK VINA RESULT:    -9.978     13.955     14.403
REMARK INTER + INTRA:          -9.978
REMARK INTER:                  -9.978
REMARK INTRA:                   0.000
REMARK UNBOUND:                 0.000
ROOT
REMARK  Name = cicaprost
REMARK                            x       y       z     vdW  Elec       q    Type
REMARK                         _______ _______ _______ _____ _____    ______ ____
ATOM      1  C   UNL     1      64.138  58.527  53.389  0.00  0.00    +0.000 C 
ATOM      2  C   UNL     1      63.615  59.123  53.157  0.00  0.00    +0.000 C 
ATOM      3  C   UNL     1      63.706  59.888  53.452  0.00  0.00    +0.000 C 
ATOM      4  C   UNL     1      63.795  60.653  53.746  0.00  0.00    +0.000 C 
ATOM      5  C   UNL     1      63.885  61.418  54.041  0.00  0.00    +0.000 C 
ATOM      6  C   UNL     1      63.363  62.013  53.810  0.00  0.00    +0.000 C 
ATOM      7  C   UNL     1      62.750  61.843  53.284  0.00  0.00    +0.000 C 
ATOM      8  C   UNL     1      63.453  62.779  54.105  0.00  0.00    +0.000 C 
ATOM      9  O   UNL     1      64.066  62.949  54.631  0.00  0.00    +0.000 OA
ATOM     10  C   UNL     1      62.931  63.374  53.873  0.00  0.00    +0.000 C 
ATOM     11  C   UNL     1      62.408  63.969  53.642  0.00  0.00    +0.000 C 
ATOM     12  C   UNL     1      61.886  64.564  53.411  0.00  0.00    +0.000 C 
ATOM     13  C   UNL     1      61.251  64.477  52.892  0.00  0.00    +0.000 C 
ATOM     14  O   UNL     1      61.026  63.780  52.513  0.00  0.00    +0.000 OA
ATOM     15  C   UNL     1      60.879  65.211  52.818  0.00  0.00    +0.000 C 
ATOM     16  C   UNL     1      61.285  65.751  53.292  0.00  0.00    +0.000 C 
ATOM     17  C   UNL     1      61.306  66.537  53.540  0.00  0.00    +0.000 C 
ATOM     18  C   UNL     1      61.941  66.624  54.059  0.00  0.00    +0.000 C 
ATOM     19  C   UNL     1      62.313  65.891  54.132  0.00  0.00    +0.000 C 
ATOM     20  C   UNL     1      61.907  65.351  53.659  0.00  0.00    +0.000 C 
ATOM     21  C   UNL     1      62.166  67.321  54.438  0.00  0.00    +0.000 C 
ATOM     22  C   UNL     1      61.739  68.016  54.310  0.00  0.00    +0.000 C 
ATOM     23  O   UNL     1      61.964  68.713  54.689  0.00  0.00    +0.000 OA
ATOM     24  C   UNL     1      61.537  69.408  54.562  0.00  0.00    +0.000 C 
ATOM     25  C   UNL     1      61.761  70.105  54.941  0.00  0.00    +0.000 C 
ATOM     26  O   UNL     1      61.334  70.800  54.813  0.00  0.00    +0.000 OA
ATOM     27  O   UNL     1      62.412  70.108  55.448  0.00  0.00    +0.000 OA
ENDROOT
TORSDOF 0
ENDMDL
MODEL 7
REMARK VINA RESULT:    -9.728     13.607     15.388
REMARK INTER + INTRA:          -9.728
REMARK INTER:                  -9.728
REMARK INTRA:                   0.000
REMARK UNBOUND:                 0.000
ROOT
REMARK  Name = cicaprost
REMARK                            x       y       z     vdW  Elec       q    Type
REMARK                         _______ _______ _______ _____ _____    ______ ____
ATOM      1  C   UNL     1      61.348  70.631  54.846  0.00  0.00    +0.000 C 
ATOM      2  C   UNL     1      61.393  70.016  54.296  0.00  0.00    +0.000 C 
ATOM      3  C   UNL     1      61.594  69.256  54.544  0.00  0.00    +0.000 C 
ATOM      4  C   UNL     1      61.795  68.494  54.790  0.00  0.00    +0.000 C 
ATOM      5  C   UNL     1      61.996  67.734  55.038  0.00  0.00    +0.000 C 
ATOM      6  C   UNL     1      62.041  67.120  54.489  0.00  0.00    +0.000 C 
ATOM      7  C   UNL     1      61.885  67.267  53.692  0.00  0.00    +0.000 C 
ATOM      8  C   UNL     1      62.241  66.359  54.736  0.00  0.00    +0.000 C 
ATOM      9  O   UNL     1      62.397  66.211  55.533  0.00  0.00    +0.000 OA
ATOM     10  C   UNL     1      62.286  65.745  54.187  0.00  0.00    +0.000 C 
ATOM     11  C   UNL     1      62.331  65.131  53.637  0.00  0.00    +0.000 C 
ATOM     12  C   UNL     1      62.376  64.518  53.088  0.00  0.00    +0.000 C 
ATOM     13  C   UNL     1      62.236  64.581  52.278  0.00  0.00    +0.000 C 
ATOM     14  O   UNL     1      62.027  65.269  51.874  0.00  0.00    +0.000 OA
ATOM     15  C   UNL     1      62.343  63.835  51.941  0.00  0.00    +0.000 C 
ATOM     16  C   UNL     1      62.548  63.310  52.544  0.00  0.00    +0.000 C 
ATOM     17  C   UNL     1      62.741  62.525  52.709  0.00  0.00    +0.000 C 
ATOM     18  C   UNL     1      62.881  62.462  53.519  0.00  0.00    +0.000 C 
ATOM     19  C   UNL     1      62.775  63.208  53.856  0.00  0.00    +0.000 C 
ATOM     20  C   UNL     1      62.569  63.733  53.253  0.00  0.00    +0.000 C 
ATOM     21  C   UNL     1      63.091  61.774  53.923  0.00  0.00    +0.000 C 
ATOM     22  C   UNL     1      63.178  61.064  53.511  0.00  0.00    +0.000 C 
ATOM     23  O   UNL     1      63.388  60.376  53.915  0.00  0.00    +0.000 OA
ATOM     24  C   UNL     1      63.474  59.666  53.502  0.00  0.00    +0.000 C 
ATOM     25  C   UNL     1      63.684  58.978  53.906  0.00  0.00    +0.000 C 
ATOM     26  O   UNL     1      63.771  58.268  53.494  0.00  0.00    +0.000 OA
ATOM     27  O   UNL     1      63.807  58.999  54.722  0.00  0.00    +0.000 OA
ENDROOT
TORSDOF 0
ENDMDL
MODEL 8
REMARK VINA RESULT:    -9.588     14.066     15.756
REMARK INTER + INTRA:          -9.588
REMARK INTER:                  -9.588
REMARK INTRA:                   0.000
REMARK UNBOUND:                 0.000
ROOT
REMARK  Name = cicaprost
REMARK                            x       y       z     vdW  Elec       q    Type
REMARK                         _______ _______ _______ _____ _____    ______ ____
ATOM      1  C   UNL     1      62.041  69.303  55.365  0.00  0.00    +0.000 C 
ATOM      2  C   UNL     1      62.581  68.690  55.244  0.00  0.00    +0.000 C 
ATOM      3  C   UNL     1      62.318  67.957  54.975  0.00  0.00    +0.000 C 
ATOM      4  C   UNL     1      62.057  67.222  54.705  0.00  0.00    +0.000 C 
ATOM      5  C   UNL     1      61.794  66.488  54.435  0.00  0.00    +0.000 C 
ATOM      6  C   UNL     1      62.334  65.876  54.315  0.00  0.00    +0.000 C 
ATOM      7  C   UNL     1      63.136  65.998  54.464  0.00  0.00    +0.000 C 
ATOM      8  C   UNL     1      62.072  65.142  54.045  0.00  0.00    +0.000 C 
ATOM      9  O   UNL     1      61.269  65.019  53.896  0.00  0.00    +0.000 OA
ATOM     10  C   UNL     1      62.611  64.530  53.925  0.00  0.00    +0.000 C 
ATOM     11  C   UNL     1      63.151  63.917  53.805  0.00  0.00    +0.000 C 
ATOM     12  C   UNL     1      63.691  63.305  53.685  0.00  0.00    +0.000 C 
ATOM     13  C   UNL     1      64.505  63.345  53.810  0.00  0.00    +0.000 C 
ATOM     14  O   UNL     1      64.923  64.004  54.077  0.00  0.00    +0.000 OA
ATOM     15  C   UNL     1      64.829  62.610  53.620  0.00  0.00    +0.000 C 
ATOM     16  C   UNL     1      64.214  62.116  53.378  0.00  0.00    +0.000 C 
ATOM     17  C   UNL     1      64.034  61.356  53.112  0.00  0.00    +0.000 C 
ATOM     18  C   UNL     1      63.220  61.316  52.987  0.00  0.00    +0.000 C 
ATOM     19  C   UNL     1      62.896  62.051  53.176  0.00  0.00    +0.000 C 
ATOM     20  C   UNL     1      63.510  62.546  53.418  0.00  0.00    +0.000 C 
ATOM     21  C   UNL     1      62.802  60.657  52.720  0.00  0.00    +0.000 C 
ATOM     22  C   UNL     1      63.202  59.955  52.552  0.00  0.00    +0.000 C 
ATOM     23  O   UNL     1      62.784  59.296  52.285  0.00  0.00    +0.000 OA
ATOM     24  C   UNL     1      63.185  58.594  52.116  0.00  0.00    +0.000 C 
ATOM     25  C   UNL     1      62.767  57.935  51.849  0.00  0.00    +0.000 C 
ATOM     26  O   UNL     1      63.167  57.233  51.681  0.00  0.00    +0.000 OA
ATOM     27  O   UNL     1      61.949  57.977  51.750  0.00  0.00    +0.000 OA
ENDROOT
TORSDOF 0
ENDMDL
