MODEL 1
REMARK VINA RESULT:   -18.221      0.000      0.000
REMARK INTER + INTRA:         -18.221
REMARK INTER:                 -18.221
REMARK INTRA:                   0.000
REMARK UNBOUND:                 0.000
ROOT
REMARK  Name = ciclesonide
REMARK                            x       y       z     vdW  Elec       q    Type
REMARK                         _______ _______ _______ _____ _____    ______ ____
ATOM      1  C   UNL     1      64.667  65.213  70.376  0.00  0.00    +0.000 C 
ATOM      2  C   UNL     1      64.208  64.824  69.812  0.00  0.00    +0.000 C 
ATOM      3  C   UNL     1      64.524  64.653  69.070  0.00  0.00    +0.000 C 
ATOM      4  C   UNL     1      63.433  64.607  69.991  0.00  0.00    +0.000 C 
ATOM      5  O   UNL     1      63.117  64.779  70.734  0.00  0.00    +0.000 OA
ATOM      6  O   UNL     1      62.973  64.218  69.427  0.00  0.00    +0.000 OA
ATOM      7  C   UNL     1      62.198  64.001  69.606  0.00  0.00    +0.000 C 
ATOM      8  C   UNL     1      61.709  63.643  69.150  0.00  0.00    +0.000 C 
ATOM      9  O   UNL     1      62.054  63.440  68.299  0.00  0.00    +0.000 OA
ATOM     10  C   UNL     1      60.962  63.395  69.220  0.00  0.00    +0.000 C 
ATOM     11  O   UNL     1      61.281  63.770  69.882  0.00  0.00    +0.000 OA
ATOM     12  C   UNL     1      60.702  63.784  70.470  0.00  0.00    +0.000 C 
ATOM     13  O   UNL     1      60.026  63.418  70.171  0.00  0.00    +0.000 OA
ATOM     14  C   UNL     1      60.186  63.177  69.399  0.00  0.00    +0.000 C 
ATOM     15  C   UNL     1      59.868  62.803  68.737  0.00  0.00    +0.000 C 
ATOM     16  C   UNL     1      60.446  62.788  68.149  0.00  0.00    +0.000 C 
ATOM     17  C   UNL     1      60.444  62.489  67.380  0.00  0.00    +0.000 C 
ATOM     18  C   UNL     1      59.769  62.123  67.081  0.00  0.00    +0.000 C 
ATOM     19  C   UNL     1      59.767  61.824  66.312  0.00  0.00    +0.000 C 
ATOM     20  C   UNL     1      60.442  61.891  65.842  0.00  0.00    +0.000 C 
ATOM     21  C   UNL     1      60.440  61.592  65.074  0.00  0.00    +0.000 C 
ATOM     22  C   UNL     1      61.114  61.658  64.603  0.00  0.00    +0.000 C 
ATOM     23  O   UNL     1      61.114  61.359  63.834  0.00  0.00    +0.000 OA
ATOM     24  C   UNL     1      61.791  62.024  64.902  0.00  0.00    +0.000 C 
ATOM     25  C   UNL     1      61.793  62.323  65.671  0.00  0.00    +0.000 C 
ATOM     26  C   UNL     1      61.118  62.256  66.141  0.00  0.00    +0.000 C 
ATOM     27  C   UNL     1      61.794  62.623  66.440  0.00  0.00    +0.000 C 
ATOM     28  C   UNL     1      61.119  62.556  66.910  0.00  0.00    +0.000 C 
ATOM     29  C   UNL     1      61.796  62.922  67.208  0.00  0.00    +0.000 C 
ATOM     30  O   UNL     1      62.470  62.988  66.739  0.00  0.00    +0.000 OA
ATOM     31  C   UNL     1      61.797  63.221  67.977  0.00  0.00    +0.000 C 
ATOM     32  C   UNL     1      61.123  63.154  68.448  0.00  0.00    +0.000 C 
ATOM     33  C   UNL     1      61.755  63.532  68.820  0.00  0.00    +0.000 C 
ATOM     34  C   UNL     1      60.785  64.107  71.224  0.00  0.00    +0.000 C 
ATOM     35  C   UNL     1      61.498  64.457  71.447  0.00  0.00    +0.000 C 
ATOM     36  C   UNL     1      61.581  64.781  72.202  0.00  0.00    +0.000 C 
ATOM     37  C   UNL     1      60.951  64.755  72.733  0.00  0.00    +0.000 C 
ATOM     38  C   UNL     1      60.238  64.405  72.511  0.00  0.00    +0.000 C 
ATOM     39  C   UNL     1      60.155  64.081  71.757  0.00  0.00    +0.000 C 
ENDROOT
TORSDOF 0
ENDMDL
MODEL 2
REMARK VINA RESULT:   -17.159      3.507      5.921
REMARK INTER + INTRA:         -17.159
REMARK INTER:                 -17.159
REMARK INTRA:                   0.000
REMARK UNBOUND:                 0.000
ROOT
REMARK  Name = ciclesonide
REMARK                            x       y       z     vdW  Elec       q    Type
REMARK                         _______ _______ _______ _____ _____    ______ ____
ATOM      1  C   UNL     1      60.126  62.213  71.081  0.00  0.00    +0.000 C 
ATOM      2  C   UNL     1      60.704  62.798  71.147  0.00  0.00    +0.000 C 
ATOM      3  C   UNL     1      61.470  62.654  70.877  0.00  0.00    +0.000 C 
ATOM      4  C   UNL     1      60.515  63.528  71.483  0.00  0.00    +0.000 C 
ATOM      5  O   UNL     1      59.749  63.671  71.753  0.00  0.00    +0.000 OA
ATOM      6  O   UNL     1      61.092  64.113  71.550  0.00  0.00    +0.000 OA
ATOM      7  C   UNL     1      60.904  64.842  71.886  0.00  0.00    +0.000 C 
ATOM      8  C   UNL     1      61.369  65.432  71.985  0.00  0.00    +0.000 C 
ATOM      9  O   UNL     1      62.247  65.284  71.682  0.00  0.00    +0.000 OA
ATOM     10  C   UNL     1      61.292  66.157  72.288  0.00  0.00    +0.000 C 
ATOM     11  O   UNL     1      60.613  65.689  72.296  0.00  0.00    +0.000 OA
ATOM     12  C   UNL     1      60.004  66.130  72.637  0.00  0.00    +0.000 C 
ATOM     13  O   UNL     1      60.307  66.869  72.840  0.00  0.00    +0.000 OA
ATOM     14  C   UNL     1      61.103  66.887  72.625  0.00  0.00    +0.000 C 
ATOM     15  C   UNL     1      61.782  67.354  72.617  0.00  0.00    +0.000 C 
ATOM     16  C   UNL     1      62.391  66.915  72.276  0.00  0.00    +0.000 C 
ATOM     17  C   UNL     1      63.182  67.092  72.124  0.00  0.00    +0.000 C 
ATOM     18  C   UNL     1      63.486  67.832  72.326  0.00  0.00    +0.000 C 
ATOM     19  C   UNL     1      64.277  68.009  72.174  0.00  0.00    +0.000 C 
ATOM     20  C   UNL     1      64.765  67.447  71.820  0.00  0.00    +0.000 C 
ATOM     21  C   UNL     1      65.556  67.624  71.668  0.00  0.00    +0.000 C 
ATOM     22  C   UNL     1      66.044  67.062  71.313  0.00  0.00    +0.000 C 
ATOM     23  O   UNL     1      66.836  67.239  71.160  0.00  0.00    +0.000 OA
ATOM     24  C   UNL     1      65.742  66.322  71.110  0.00  0.00    +0.000 C 
ATOM     25  C   UNL     1      64.950  66.144  71.262  0.00  0.00    +0.000 C 
ATOM     26  C   UNL     1      64.462  66.707  71.617  0.00  0.00    +0.000 C 
ATOM     27  C   UNL     1      64.159  65.967  71.414  0.00  0.00    +0.000 C 
ATOM     28  C   UNL     1      63.671  66.530  71.769  0.00  0.00    +0.000 C 
ATOM     29  C   UNL     1      63.368  65.789  71.566  0.00  0.00    +0.000 C 
ATOM     30  O   UNL     1      63.855  65.227  71.211  0.00  0.00    +0.000 OA
ATOM     31  C   UNL     1      62.577  65.613  71.718  0.00  0.00    +0.000 C 
ATOM     32  C   UNL     1      62.088  66.174  72.073  0.00  0.00    +0.000 C 
ATOM     33  C   UNL     1      61.709  65.461  71.901  0.00  0.00    +0.000 C 
ATOM     34  C   UNL     1      59.228  65.874  72.755  0.00  0.00    +0.000 C 
ATOM     35  C   UNL     1      59.004  65.115  72.523  0.00  0.00    +0.000 C 
ATOM     36  C   UNL     1      58.228  64.860  72.640  0.00  0.00    +0.000 C 
ATOM     37  C   UNL     1      57.677  65.364  72.990  0.00  0.00    +0.000 C 
ATOM     38  C   UNL     1      57.901  66.123  73.222  0.00  0.00    +0.000 C 
ATOM     39  C   UNL     1      58.677  66.378  73.105  0.00  0.00    +0.000 C 
ENDROOT
TORSDOF 0
ENDMDL
MODEL 3
REMARK VINA RESULT:   -16.052      3.372      6.556
REMARK INTER + INTRA:         -16.052
REMARK INTER:                 -16.052
REMARK INTRA:                   0.000
REMARK UNBOUND:                 0.000
ROOT
REMARK  Name = ciclesonide
REMARK                            x       y       z     vdW  Elec       q    Type
REMARK                         _______ _______ _______ _____ _____    ______ ____
ATOM      1  C   UNL     1      57.515  64.565  72.739  0.00  0.00    +0.000 C 
ATOM      2  C   UNL     1      58.217  64.998  72.728  0.00  0.00    +0.000 C 
ATOM      3  C   UNL     1      58.233  65.765  73.032  0.00  0.00    +0.000 C 
ATOM      4  C   UNL     1      58.903  64.665  72.413  0.00  0.00    +0.000 C 
ATOM      5  O   UNL     1      58.886  63.898  72.109  0.00  0.00    +0.000 OA
ATOM      6  O   UNL     1      59.604  65.098  72.401  0.00  0.00    +0.000 OA
ATOM      7  C   UNL     1      60.290  64.765  72.086  0.00  0.00    +0.000 C 
ATOM      8  C   UNL     1      60.972  65.090  72.036  0.00  0.00    +0.000 C 
ATOM      9  O   UNL     1      61.008  65.965  72.378  0.00  0.00    +0.000 OA
ATOM     10  C   UNL     1      61.678  64.864  71.759  0.00  0.00    +0.000 C 
ATOM     11  O   UNL     1      61.071  64.309  71.696  0.00  0.00    +0.000 OA
ATOM     12  C   UNL     1      61.382  63.632  71.341  0.00  0.00    +0.000 C 
ATOM     13  O   UNL     1      62.180  63.769  71.185  0.00  0.00    +0.000 OA
ATOM     14  C   UNL     1      62.363  64.531  71.443  0.00  0.00    +0.000 C 
ATOM     15  C   UNL     1      62.969  65.087  71.507  0.00  0.00    +0.000 C 
ATOM     16  C   UNL     1      62.659  65.764  71.861  0.00  0.00    +0.000 C 
ATOM     17  C   UNL     1      63.000  66.487  72.062  0.00  0.00    +0.000 C 
ATOM     18  C   UNL     1      63.798  66.626  71.906  0.00  0.00    +0.000 C 
ATOM     19  C   UNL     1      64.139  67.350  72.107  0.00  0.00    +0.000 C 
ATOM     20  C   UNL     1      63.681  67.936  72.464  0.00  0.00    +0.000 C 
ATOM     21  C   UNL     1      64.022  68.659  72.665  0.00  0.00    +0.000 C 
ATOM     22  C   UNL     1      63.565  69.246  73.021  0.00  0.00    +0.000 C 
ATOM     23  O   UNL     1      63.905  69.970  73.222  0.00  0.00    +0.000 OA
ATOM     24  C   UNL     1      62.766  69.109  73.177  0.00  0.00    +0.000 C 
ATOM     25  C   UNL     1      62.425  68.385  72.977  0.00  0.00    +0.000 C 
ATOM     26  C   UNL     1      62.883  67.798  72.620  0.00  0.00    +0.000 C 
ATOM     27  C   UNL     1      62.084  67.661  72.776  0.00  0.00    +0.000 C 
ATOM     28  C   UNL     1      62.542  67.074  72.419  0.00  0.00    +0.000 C 
ATOM     29  C   UNL     1      61.743  66.937  72.575  0.00  0.00    +0.000 C 
ATOM     30  O   UNL     1      61.286  67.523  72.931  0.00  0.00    +0.000 OA
ATOM     31  C   UNL     1      61.403  66.213  72.374  0.00  0.00    +0.000 C 
ATOM     32  C   UNL     1      61.860  65.627  72.017  0.00  0.00    +0.000 C 
ATOM     33  C   UNL     1      61.073  65.410  72.138  0.00  0.00    +0.000 C 
ATOM     34  C   UNL     1      60.967  62.939  71.172  0.00  0.00    +0.000 C 
ATOM     35  C   UNL     1      60.166  62.881  71.361  0.00  0.00    +0.000 C 
ATOM     36  C   UNL     1      59.751  62.188  71.192  0.00  0.00    +0.000 C 
ATOM     37  C   UNL     1      60.138  61.553  70.835  0.00  0.00    +0.000 C 
ATOM     38  C   UNL     1      60.939  61.610  70.646  0.00  0.00    +0.000 C 
ATOM     39  C   UNL     1      61.353  62.303  70.815  0.00  0.00    +0.000 C 
ENDROOT
TORSDOF 0
ENDMDL
MODEL 4
REMARK VINA RESULT:   -15.893      2.998      5.510
REMARK INTER + INTRA:         -15.893
REMARK INTER:                 -15.893
REMARK INTRA:                   0.000
REMARK UNBOUND:                 0.000
ROOT
REMARK  Name = ciclesonide
REMARK                            x       y       z     vdW  Elec       q    Type
REMARK                         _______ _______ _______ _____ _____    ______ ____
ATOM      1  C   UNL     1      59.111  65.450  73.222  0.00  0.00    +0.000 C 
ATOM      2  C   UNL     1      59.848  65.625  72.895  0.00  0.00    +0.000 C 
ATOM      3  C   UNL     1      60.208  66.350  73.055  0.00  0.00    +0.000 C 
ATOM      4  C   UNL     1      60.223  65.076  72.407  0.00  0.00    +0.000 C 
ATOM      5  O   UNL     1      59.862  64.351  72.248  0.00  0.00    +0.000 OA
ATOM      6  O   UNL     1      60.959  65.251  72.079  0.00  0.00    +0.000 OA
ATOM      7  C   UNL     1      61.335  64.701  71.592  0.00  0.00    +0.000 C 
ATOM      8  C   UNL     1      62.007  64.780  71.251  0.00  0.00    +0.000 C 
ATOM      9  O   UNL     1      62.432  65.601  71.423  0.00  0.00    +0.000 OA
ATOM     10  C   UNL     1      62.447  64.327  70.776  0.00  0.00    +0.000 C 
ATOM     11  O   UNL     1      61.728  64.003  71.019  0.00  0.00    +0.000 OA
ATOM     12  C   UNL     1      61.660  63.253  70.682  0.00  0.00    +0.000 C 
ATOM     13  O   UNL     1      62.336  63.114  70.231  0.00  0.00    +0.000 OA
ATOM     14  C   UNL     1      62.823  63.777  70.288  0.00  0.00    +0.000 C 
ATOM     15  C   UNL     1      63.541  64.102  70.046  0.00  0.00    +0.000 C 
ATOM     16  C   UNL     1      63.610  64.851  70.383  0.00  0.00    +0.000 C 
ATOM     17  C   UNL     1      64.201  65.425  70.337  0.00  0.00    +0.000 C 
ATOM     18  C   UNL     1      64.877  65.286  69.885  0.00  0.00    +0.000 C 
ATOM     19  C   UNL     1      65.468  65.860  69.840  0.00  0.00    +0.000 C 
ATOM     20  C   UNL     1      65.382  66.573  70.246  0.00  0.00    +0.000 C 
ATOM     21  C   UNL     1      65.973  67.147  70.200  0.00  0.00    +0.000 C 
ATOM     22  C   UNL     1      65.889  67.860  70.605  0.00  0.00    +0.000 C 
ATOM     23  O   UNL     1      66.479  68.434  70.560  0.00  0.00    +0.000 OA
ATOM     24  C   UNL     1      65.212  67.999  71.057  0.00  0.00    +0.000 C 
ATOM     25  C   UNL     1      64.621  67.426  71.103  0.00  0.00    +0.000 C 
ATOM     26  C   UNL     1      64.707  66.712  70.697  0.00  0.00    +0.000 C 
ATOM     27  C   UNL     1      64.030  66.852  71.149  0.00  0.00    +0.000 C 
ATOM     28  C   UNL     1      64.116  66.138  70.743  0.00  0.00    +0.000 C 
ATOM     29  C   UNL     1      63.439  66.278  71.195  0.00  0.00    +0.000 C 
ATOM     30  O   UNL     1      63.354  66.990  71.600  0.00  0.00    +0.000 OA
ATOM     31  C   UNL     1      62.849  65.704  71.240  0.00  0.00    +0.000 C 
ATOM     32  C   UNL     1      62.934  64.991  70.834  0.00  0.00    +0.000 C 
ATOM     33  C   UNL     1      62.230  65.051  71.262  0.00  0.00    +0.000 C 
ATOM     34  C   UNL     1      61.026  62.734  70.779  0.00  0.00    +0.000 C 
ATOM     35  C   UNL     1      60.384  62.950  71.250  0.00  0.00    +0.000 C 
ATOM     36  C   UNL     1      59.750  62.430  71.347  0.00  0.00    +0.000 C 
ATOM     37  C   UNL     1      59.759  61.695  70.973  0.00  0.00    +0.000 C 
ATOM     38  C   UNL     1      60.401  61.479  70.502  0.00  0.00    +0.000 C 
ATOM     39  C   UNL     1      61.034  61.998  70.405  0.00  0.00    +0.000 C 
ENDROOT
TORSDOF 0
ENDMDL
MODEL 5
REMARK VINA RESULT:   -15.864      1.617      5.100
REMARK INTER + INTRA:         -15.864
REMARK INTER:                 -15.864
REMARK INTRA:                   0.000
REMARK UNBOUND:                 0.000
ROOT
REMARK  Name = ciclesonide
REMARK                            x       y       z     vdW  Elec       q    Type
REMARK                         _______ _______ _______ _____ _____    ______ ____
ATOM      1  C   UNL     1      61.224  62.532  66.918  0.00  0.00    +0.000 C 
ATOM      2  C   UNL     1      61.705  63.050  67.343  0.00  0.00    +0.000 C 
ATOM      3  C   UNL     1      62.229  63.547  66.944  0.00  0.00    +0.000 C 
ATOM      4  C   UNL     1      61.662  63.070  68.166  0.00  0.00    +0.000 C 
ATOM      5  O   UNL     1      61.138  62.573  68.564  0.00  0.00    +0.000 OA
ATOM      6  O   UNL     1      62.143  63.588  68.591  0.00  0.00    +0.000 OA
ATOM      7  C   UNL     1      62.100  63.609  69.415  0.00  0.00    +0.000 C 
ATOM      8  C   UNL     1      62.503  64.051  69.881  0.00  0.00    +0.000 C 
ATOM      9  O   UNL     1      63.105  64.624  69.442  0.00  0.00    +0.000 OA
ATOM     10  C   UNL     1      62.538  64.147  70.664  0.00  0.00    +0.000 C 
ATOM     11  O   UNL     1      62.000  63.583  70.394  0.00  0.00    +0.000 OA
ATOM     12  C   UNL     1      61.624  63.256  71.052  0.00  0.00    +0.000 C 
ATOM     13  O   UNL     1      61.930  63.617  71.727  0.00  0.00    +0.000 OA
ATOM     14  C   UNL     1      62.495  64.168  71.488  0.00  0.00    +0.000 C 
ATOM     15  C   UNL     1      63.034  64.732  71.757  0.00  0.00    +0.000 C 
ATOM     16  C   UNL     1      63.410  65.059  71.100  0.00  0.00    +0.000 C 
ATOM     17  C   UNL     1      63.991  65.640  71.030  0.00  0.00    +0.000 C 
ATOM     18  C   UNL     1      64.298  66.002  71.705  0.00  0.00    +0.000 C 
ATOM     19  C   UNL     1      64.880  66.583  71.634  0.00  0.00    +0.000 C 
ATOM     20  C   UNL     1      65.155  66.802  70.888  0.00  0.00    +0.000 C 
ATOM     21  C   UNL     1      65.736  67.383  70.818  0.00  0.00    +0.000 C 
ATOM     22  C   UNL     1      66.012  67.603  70.072  0.00  0.00    +0.000 C 
ATOM     23  O   UNL     1      66.593  68.184  70.001  0.00  0.00    +0.000 OA
ATOM     24  C   UNL     1      65.706  67.242  69.396  0.00  0.00    +0.000 C 
ATOM     25  C   UNL     1      65.124  66.661  69.467  0.00  0.00    +0.000 C 
ATOM     26  C   UNL     1      64.848  66.441  70.213  0.00  0.00    +0.000 C 
ATOM     27  C   UNL     1      64.542  66.080  69.537  0.00  0.00    +0.000 C 
ATOM     28  C   UNL     1      64.267  65.860  70.284  0.00  0.00    +0.000 C 
ATOM     29  C   UNL     1      63.961  65.499  69.607  0.00  0.00    +0.000 C 
ATOM     30  O   UNL     1      64.235  65.719  68.862  0.00  0.00    +0.000 OA
ATOM     31  C   UNL     1      63.379  64.919  69.679  0.00  0.00    +0.000 C 
ATOM     32  C   UNL     1      63.104  64.698  70.424  0.00  0.00    +0.000 C 
ATOM     33  C   UNL     1      62.747  64.291  69.802  0.00  0.00    +0.000 C 
ATOM     34  C   UNL     1      61.044  62.670  71.036  0.00  0.00    +0.000 C 
ATOM     35  C   UNL     1      60.790  62.358  70.315  0.00  0.00    +0.000 C 
ATOM     36  C   UNL     1      60.210  61.772  70.300  0.00  0.00    +0.000 C 
ATOM     37  C   UNL     1      59.883  61.497  71.005  0.00  0.00    +0.000 C 
ATOM     38  C   UNL     1      60.136  61.808  71.726  0.00  0.00    +0.000 C 
ATOM     39  C   UNL     1      60.716  62.394  71.742  0.00  0.00    +0.000 C 
ENDROOT
TORSDOF 0
ENDMDL
MODEL 6
REMARK VINA RESULT:   -15.806      1.751      5.513
REMARK INTER + INTRA:         -15.806
REMARK INTER:                 -15.806
REMARK INTRA:                   0.000
REMARK UNBOUND:                 0.000
ROOT
REMARK  Name = ciclesonide
REMARK                            x       y       z     vdW  Elec       q    Type
REMARK                         _______ _______ _______ _____ _____    ______ ____
ATOM      1  C   UNL     1      60.993  61.697  72.456  0.00  0.00    +0.000 C 
ATOM      2  C   UNL     1      61.528  62.289  72.250  0.00  0.00    +0.000 C 
ATOM      3  C   UNL     1      62.025  62.614  72.823  0.00  0.00    +0.000 C 
ATOM      4  C   UNL     1      61.567  62.557  71.471  0.00  0.00    +0.000 C 
ATOM      5  O   UNL     1      61.069  62.232  70.898  0.00  0.00    +0.000 OA
ATOM      6  O   UNL     1      62.102  63.149  71.264  0.00  0.00    +0.000 OA
ATOM      7  C   UNL     1      62.140  63.417  70.485  0.00  0.00    +0.000 C 
ATOM      8  C   UNL     1      62.600  63.954  70.210  0.00  0.00    +0.000 C 
ATOM      9  O   UNL     1      63.173  64.334  70.851  0.00  0.00    +0.000 OA
ATOM     10  C   UNL     1      62.715  64.277  69.498  0.00  0.00    +0.000 C 
ATOM     11  O   UNL     1      62.136  63.691  69.539  0.00  0.00    +0.000 OA
ATOM     12  C   UNL     1      61.817  63.596  68.784  0.00  0.00    +0.000 C 
ATOM     13  O   UNL     1      62.198  64.124  68.278  0.00  0.00    +0.000 OA
ATOM     14  C   UNL     1      62.753  64.545  68.719  0.00  0.00    +0.000 C 
ATOM     15  C   UNL     1      63.332  65.131  68.680  0.00  0.00    +0.000 C 
ATOM     16  C   UNL     1      63.651  65.226  69.434  0.00  0.00    +0.000 C 
ATOM     17  C   UNL     1      64.240  65.725  69.725  0.00  0.00    +0.000 C 
ATOM     18  C   UNL     1      64.622  66.253  69.220  0.00  0.00    +0.000 C 
ATOM     19  C   UNL     1      65.211  66.752  69.511  0.00  0.00    +0.000 C 
ATOM     20  C   UNL     1      65.418  66.722  70.309  0.00  0.00    +0.000 C 
ATOM     21  C   UNL     1      66.007  67.221  70.601  0.00  0.00    +0.000 C 
ATOM     22  C   UNL     1      66.214  67.193  71.398  0.00  0.00    +0.000 C 
ATOM     23  O   UNL     1      66.803  67.691  71.691  0.00  0.00    +0.000 OA
ATOM     24  C   UNL     1      65.833  66.665  71.905  0.00  0.00    +0.000 C 
ATOM     25  C   UNL     1      65.244  66.166  71.614  0.00  0.00    +0.000 C 
ATOM     26  C   UNL     1      65.036  66.195  70.815  0.00  0.00    +0.000 C 
ATOM     27  C   UNL     1      64.655  65.667  71.322  0.00  0.00    +0.000 C 
ATOM     28  C   UNL     1      64.448  65.696  70.524  0.00  0.00    +0.000 C 
ATOM     29  C   UNL     1      64.066  65.168  71.031  0.00  0.00    +0.000 C 
ATOM     30  O   UNL     1      64.273  65.139  71.828  0.00  0.00    +0.000 OA
ATOM     31  C   UNL     1      63.477  64.670  70.738  0.00  0.00    +0.000 C 
ATOM     32  C   UNL     1      63.270  64.698  69.941  0.00  0.00    +0.000 C 
ATOM     33  C   UNL     1      62.842  64.145  70.378  0.00  0.00    +0.000 C 
ATOM     34  C   UNL     1      61.220  63.067  68.572  0.00  0.00    +0.000 C 
ATOM     35  C   UNL     1      60.889  62.570  69.141  0.00  0.00    +0.000 C 
ATOM     36  C   UNL     1      60.293  62.040  68.930  0.00  0.00    +0.000 C 
ATOM     37  C   UNL     1      60.028  62.007  68.149  0.00  0.00    +0.000 C 
ATOM     38  C   UNL     1      60.359  62.504  67.580  0.00  0.00    +0.000 C 
ATOM     39  C   UNL     1      60.955  63.033  67.791  0.00  0.00    +0.000 C 
ENDROOT
TORSDOF 0
ENDMDL
MODEL 7
REMARK VINA RESULT:   -15.762      3.110      5.105
REMARK INTER + INTRA:         -15.762
REMARK INTER:                 -15.762
REMARK INTRA:                   0.000
REMARK UNBOUND:                 0.000
ROOT
REMARK  Name = ciclesonide
REMARK                            x       y       z     vdW  Elec       q    Type
REMARK                         _______ _______ _______ _____ _____    ______ ____
ATOM      1  C   UNL     1      63.159  69.051  73.190  0.00  0.00    +0.000 C 
ATOM      2  C   UNL     1      62.895  68.316  72.925  0.00  0.00    +0.000 C 
ATOM      3  C   UNL     1      62.195  67.997  73.223  0.00  0.00    +0.000 C 
ATOM      4  C   UNL     1      63.331  67.901  72.361  0.00  0.00    +0.000 C 
ATOM      5  O   UNL     1      64.031  68.221  72.064  0.00  0.00    +0.000 OA
ATOM      6  O   UNL     1      63.067  67.166  72.095  0.00  0.00    +0.000 OA
ATOM      7  C   UNL     1      63.504  66.751  71.531  0.00  0.00    +0.000 C 
ATOM      8  C   UNL     1      63.336  66.074  71.234  0.00  0.00    +0.000 C 
ATOM      9  O   UNL     1      62.540  65.696  71.563  0.00  0.00    +0.000 OA
ATOM     10  C   UNL     1      63.677  65.600  70.701  0.00  0.00    +0.000 C 
ATOM     11  O   UNL     1      64.071  66.308  70.859  0.00  0.00    +0.000 OA
ATOM     12  C   UNL     1      64.750  66.329  70.392  0.00  0.00    +0.000 C 
ATOM     13  O   UNL     1      64.777  65.636  69.947  0.00  0.00    +0.000 OA
ATOM     14  C   UNL     1      64.113  65.185  70.138  0.00  0.00    +0.000 C 
ATOM     15  C   UNL     1      63.719  64.477  69.981  0.00  0.00    +0.000 C 
ATOM     16  C   UNL     1      63.039  64.455  70.447  0.00  0.00    +0.000 C 
ATOM     17  C   UNL     1      62.440  63.893  70.524  0.00  0.00    +0.000 C 
ATOM     18  C   UNL     1      62.466  63.199  70.079  0.00  0.00    +0.000 C 
ATOM     19  C   UNL     1      61.867  62.636  70.156  0.00  0.00    +0.000 C 
ATOM     20  C   UNL     1      61.242  62.769  70.679  0.00  0.00    +0.000 C 
ATOM     21  C   UNL     1      60.644  62.206  70.755  0.00  0.00    +0.000 C 
ATOM     22  C   UNL     1      60.019  62.337  71.277  0.00  0.00    +0.000 C 
ATOM     23  O   UNL     1      59.420  61.776  71.355  0.00  0.00    +0.000 OA
ATOM     24  C   UNL     1      59.992  63.031  71.723  0.00  0.00    +0.000 C 
ATOM     25  C   UNL     1      60.591  63.594  71.646  0.00  0.00    +0.000 C 
ATOM     26  C   UNL     1      61.216  63.462  71.124  0.00  0.00    +0.000 C 
ATOM     27  C   UNL     1      61.190  64.156  71.569  0.00  0.00    +0.000 C 
ATOM     28  C   UNL     1      61.815  64.024  71.047  0.00  0.00    +0.000 C 
ATOM     29  C   UNL     1      61.789  64.719  71.492  0.00  0.00    +0.000 C 
ATOM     30  O   UNL     1      61.165  64.850  72.014  0.00  0.00    +0.000 OA
ATOM     31  C   UNL     1      62.388  65.280  71.415  0.00  0.00    +0.000 C 
ATOM     32  C   UNL     1      63.013  65.149  70.893  0.00  0.00    +0.000 C 
ATOM     33  C   UNL     1      63.061  65.866  71.300  0.00  0.00    +0.000 C 
ATOM     34  C   UNL     1      65.307  66.938  70.373  0.00  0.00    +0.000 C 
ATOM     35  C   UNL     1      65.207  67.603  70.852  0.00  0.00    +0.000 C 
ATOM     36  C   UNL     1      65.764  68.212  70.834  0.00  0.00    +0.000 C 
ATOM     37  C   UNL     1      66.419  68.156  70.337  0.00  0.00    +0.000 C 
ATOM     38  C   UNL     1      66.519  67.492  69.858  0.00  0.00    +0.000 C 
ATOM     39  C   UNL     1      65.963  66.883  69.876  0.00  0.00    +0.000 C 
ENDROOT
TORSDOF 0
ENDMDL
MODEL 8
REMARK VINA RESULT:   -15.700      1.730      2.094
REMARK INTER + INTRA:         -15.700
REMARK INTER:                 -15.700
REMARK INTRA:                   0.000
REMARK UNBOUND:                 0.000
ROOT
REMARK  Name = ciclesonide
REMARK                            x       y       z     vdW  Elec       q    Type
REMARK                         _______ _______ _______ _____ _____    ______ ____
ATOM      1  C   UNL     1      61.985  61.609  73.066  0.00  0.00    +0.000 C 
ATOM      2  C   UNL     1      61.848  61.672  72.255  0.00  0.00    +0.000 C 
ATOM      3  C   UNL     1      62.140  61.094  71.742  0.00  0.00    +0.000 C 
ATOM      4  C   UNL     1      61.421  62.311  71.957  0.00  0.00    +0.000 C 
ATOM      5  O   UNL     1      61.130  62.888  72.470  0.00  0.00    +0.000 OA
ATOM      6  O   UNL     1      61.285  62.374  71.146  0.00  0.00    +0.000 OA
ATOM      7  C   UNL     1      60.857  63.013  70.848  0.00  0.00    +0.000 C 
ATOM      8  C   UNL     1      60.687  63.148  70.121  0.00  0.00    +0.000 C 
ATOM      9  O   UNL     1      61.011  62.499  69.523  0.00  0.00    +0.000 OA
ATOM     10  C   UNL     1      60.293  63.716  69.738  0.00  0.00    +0.000 C 
ATOM     11  O   UNL     1      60.340  63.800  70.557  0.00  0.00    +0.000 OA
ATOM     12  C   UNL     1      59.942  64.492  70.765  0.00  0.00    +0.000 C 
ATOM     13  O   UNL     1      59.649  64.835  70.075  0.00  0.00    +0.000 OA
ATOM     14  C   UNL     1      59.865  64.355  69.440  0.00  0.00    +0.000 C 
ATOM     15  C   UNL     1      59.818  64.270  68.621  0.00  0.00    +0.000 C 
ATOM     16  C   UNL     1      60.216  63.579  68.413  0.00  0.00    +0.000 C 
ATOM     17  C   UNL     1      60.349  63.217  67.683  0.00  0.00    +0.000 C 
ATOM     18  C   UNL     1      60.056  63.559  66.992  0.00  0.00    +0.000 C 
ATOM     19  C   UNL     1      60.189  63.197  66.263  0.00  0.00    +0.000 C 
ATOM     20  C   UNL     1      60.616  62.493  66.225  0.00  0.00    +0.000 C 
ATOM     21  C   UNL     1      60.749  62.131  65.496  0.00  0.00    +0.000 C 
ATOM     22  C   UNL     1      61.176  61.426  65.456  0.00  0.00    +0.000 C 
ATOM     23  O   UNL     1      61.310  61.063  64.728  0.00  0.00    +0.000 OA
ATOM     24  C   UNL     1      61.470  61.082  66.147  0.00  0.00    +0.000 C 
ATOM     25  C   UNL     1      61.336  61.444  66.876  0.00  0.00    +0.000 C 
ATOM     26  C   UNL     1      60.909  62.150  66.915  0.00  0.00    +0.000 C 
ATOM     27  C   UNL     1      61.203  61.806  67.606  0.00  0.00    +0.000 C 
ATOM     28  C   UNL     1      60.776  62.512  67.644  0.00  0.00    +0.000 C 
ATOM     29  C   UNL     1      61.070  62.168  68.335  0.00  0.00    +0.000 C 
ATOM     30  O   UNL     1      61.496  61.464  68.296  0.00  0.00    +0.000 OA
ATOM     31  C   UNL     1      60.936  62.531  69.064  0.00  0.00    +0.000 C 
ATOM     32  C   UNL     1      60.510  63.236  69.103  0.00  0.00    +0.000 C 
ATOM     33  C   UNL     1      60.768  62.959  69.837  0.00  0.00    +0.000 C 
ATOM     34  C   UNL     1      59.853  64.789  71.530  0.00  0.00    +0.000 C 
ATOM     35  C   UNL     1      60.178  64.384  72.171  0.00  0.00    +0.000 C 
ATOM     36  C   UNL     1      60.089  64.680  72.935  0.00  0.00    +0.000 C 
ATOM     37  C   UNL     1      59.675  65.382  73.059  0.00  0.00    +0.000 C 
ATOM     38  C   UNL     1      59.349  65.788  72.419  0.00  0.00    +0.000 C 
ATOM     39  C   UNL     1      59.438  65.491  71.654  0.00  0.00    +0.000 C 
ENDROOT
TORSDOF 0
ENDMDL
