MODEL 1
REMARK VINA RESULT:    -8.368      0.000      0.000
REMARK INTER + INTRA:          -8.368
REMARK INTER:                  -8.368
REMARK INTRA:                   0.000
REMARK UNBOUND:                 0.000
ROOT
REMARK  Name = cimetidine
REMARK                            x       y       z     vdW  Elec       q    Type
REMARK                         _______ _______ _______ _____ _____    ______ ____
ATOM      1  C   UNL     1      62.747  64.522  69.553  0.00  0.00    +0.000 C 
ATOM      2  N   UNL     1      62.379  64.048  68.985  0.00  0.00    +0.000 NA
ATOM      3  C   UNL     1      61.669  63.668  69.163  0.00  0.00    +0.000 C 
ATOM      4  N   UNL     1      61.301  63.195  68.596  0.00  0.00    +0.000 NA
ATOM      5  C   UNL     1      61.643  63.103  67.851  0.00  0.00    +0.000 C 
ATOM      6  C   UNL     1      61.275  62.630  67.284  0.00  0.00    +0.000 C 
ATOM      7  S   UNL     1      61.617  62.538  66.538  0.00  0.00    +0.000 S 
ATOM      8  C   UNL     1      61.250  62.066  65.971  0.00  0.00    +0.000 C 
ATOM      9  C   UNL     1      61.591  61.973  65.226  0.00  0.00    +0.000 A 
ATOM     10  C   UNL     1      61.289  61.521  64.607  0.00  0.00    +0.000 A 
ATOM     11  C   UNL     1      60.592  61.080  64.623  0.00  0.00    +0.000 C 
ATOM     12  N   UNL     1      61.807  61.586  63.968  0.00  0.00    +0.000 NA
ATOM     13  C   UNL     1      62.429  62.078  64.192  0.00  0.00    +0.000 A 
ATOM     14  N   UNL     1      62.296  62.318  64.970  0.00  0.00    +0.000 NA
ATOM     15  N   UNL     1      61.327  63.760  69.909  0.00  0.00    +0.000 NA
ATOM     16  C   UNL     1      61.695  64.232  70.476  0.00  0.00    +0.000 C 
ATOM     17  N   UNL     1      62.063  64.706  71.043  0.00  0.00    +0.000 NA
ENDROOT
TORSDOF 0
ENDMDL
MODEL 2
REMARK VINA RESULT:    -8.171      1.615      5.158
REMARK INTER + INTRA:          -8.171
REMARK INTER:                  -8.171
REMARK INTRA:                   0.000
REMARK UNBOUND:                 0.000
ROOT
REMARK  Name = cimetidine
REMARK                            x       y       z     vdW  Elec       q    Type
REMARK                         _______ _______ _______ _____ _____    ______ ____
ATOM      1  C   UNL     1      62.032  61.185  65.415  0.00  0.00    +0.000 C 
ATOM      2  N   UNL     1      61.799  61.659  66.050  0.00  0.00    +0.000 NA
ATOM      3  C   UNL     1      61.729  62.475  65.952  0.00  0.00    +0.000 C 
ATOM      4  N   UNL     1      61.495  62.948  66.585  0.00  0.00    +0.000 NA
ATOM      5  C   UNL     1      61.332  62.605  67.318  0.00  0.00    +0.000 C 
ATOM      6  C   UNL     1      61.099  63.078  67.952  0.00  0.00    +0.000 C 
ATOM      7  S   UNL     1      60.935  62.736  68.685  0.00  0.00    +0.000 S 
ATOM      8  C   UNL     1      60.702  63.208  69.319  0.00  0.00    +0.000 C 
ATOM      9  C   UNL     1      60.539  62.866  70.052  0.00  0.00    +0.000 A 
ATOM     10  C   UNL     1      60.301  63.266  70.732  0.00  0.00    +0.000 A 
ATOM     11  C   UNL     1      60.185  64.080  70.800  0.00  0.00    +0.000 C 
ATOM     12  N   UNL     1      60.200  62.710  71.333  0.00  0.00    +0.000 NA
ATOM     13  C   UNL     1      60.376  61.966  71.024  0.00  0.00    +0.000 A 
ATOM     14  N   UNL     1      60.585  62.062  70.232  0.00  0.00    +0.000 NA
ATOM     15  N   UNL     1      61.892  62.817  65.219  0.00  0.00    +0.000 NA
ATOM     16  C   UNL     1      62.125  62.344  64.585  0.00  0.00    +0.000 C 
ATOM     17  N   UNL     1      62.359  61.871  63.950  0.00  0.00    +0.000 NA
ENDROOT
TORSDOF 0
ENDMDL
MODEL 3
REMARK VINA RESULT:    -7.664      3.482      6.267
REMARK INTER + INTRA:          -7.664
REMARK INTER:                  -7.664
REMARK INTRA:                   0.000
REMARK UNBOUND:                 0.000
ROOT
REMARK  Name = cimetidine
REMARK                            x       y       z     vdW  Elec       q    Type
REMARK                         _______ _______ _______ _____ _____    ______ ____
ATOM      1  C   UNL     1      61.676  63.100  70.638  0.00  0.00    +0.000 C 
ATOM      2  N   UNL     1      62.219  63.686  70.431  0.00  0.00    +0.000 NA
ATOM      3  C   UNL     1      62.223  63.993  69.666  0.00  0.00    +0.000 C 
ATOM      4  N   UNL     1      62.765  64.579  69.460  0.00  0.00    +0.000 NA
ATOM      5  C   UNL     1      63.304  64.859  70.019  0.00  0.00    +0.000 C 
ATOM      6  C   UNL     1      63.846  65.444  69.813  0.00  0.00    +0.000 C 
ATOM      7  S   UNL     1      64.385  65.724  70.372  0.00  0.00    +0.000 S 
ATOM      8  C   UNL     1      64.927  66.310  70.166  0.00  0.00    +0.000 C 
ATOM      9  C   UNL     1      65.466  66.589  70.725  0.00  0.00    +0.000 A 
ATOM     10  C   UNL     1      66.038  67.170  70.600  0.00  0.00    +0.000 A 
ATOM     11  C   UNL     1      66.172  67.575  69.894  0.00  0.00    +0.000 C 
ATOM     12  N   UNL     1      66.452  67.276  71.305  0.00  0.00    +0.000 NA
ATOM     13  C   UNL     1      66.137  66.761  71.866  0.00  0.00    +0.000 A 
ATOM     14  N   UNL     1      65.527  66.336  71.508  0.00  0.00    +0.000 NA
ATOM     15  N   UNL     1      61.684  63.714  69.107  0.00  0.00    +0.000 NA
ATOM     16  C   UNL     1      61.142  63.128  69.313  0.00  0.00    +0.000 C 
ATOM     17  N   UNL     1      60.599  62.541  69.519  0.00  0.00    +0.000 NA
ENDROOT
TORSDOF 0
ENDMDL
MODEL 4
REMARK VINA RESULT:    -7.404      3.016      4.427
REMARK INTER + INTRA:          -7.404
REMARK INTER:                  -7.404
REMARK INTRA:                   0.000
REMARK UNBOUND:                 0.000
ROOT
REMARK  Name = cimetidine
REMARK                            x       y       z     vdW  Elec       q    Type
REMARK                         _______ _______ _______ _____ _____    ______ ____
ATOM      1  C   UNL     1      64.977  66.494  69.774  0.00  0.00    +0.000 C 
ATOM      2  N   UNL     1      64.440  65.909  70.003  0.00  0.00    +0.000 NA
ATOM      3  C   UNL     1      64.401  65.671  70.792  0.00  0.00    +0.000 C 
ATOM      4  N   UNL     1      63.865  65.087  71.020  0.00  0.00    +0.000 NA
ATOM      5  C   UNL     1      63.368  64.742  70.460  0.00  0.00    +0.000 C 
ATOM      6  C   UNL     1      62.832  64.158  70.687  0.00  0.00    +0.000 C 
ATOM      7  S   UNL     1      62.334  63.812  70.127  0.00  0.00    +0.000 S 
ATOM      8  C   UNL     1      61.798  63.229  70.355  0.00  0.00    +0.000 C 
ATOM      9  C   UNL     1      61.301  62.883  69.795  0.00  0.00    +0.000 A 
ATOM     10  C   UNL     1      60.741  62.296  69.940  0.00  0.00    +0.000 A 
ATOM     11  C   UNL     1      60.578  61.951  70.672  0.00  0.00    +0.000 C 
ATOM     12  N   UNL     1      60.370  62.114  69.226  0.00  0.00    +0.000 NA
ATOM     13  C   UNL     1      60.702  62.589  68.639  0.00  0.00    +0.000 A 
ATOM     14  N   UNL     1      61.278  63.064  68.990  0.00  0.00    +0.000 NA
ATOM     15  N   UNL     1      64.899  66.017  71.352  0.00  0.00    +0.000 NA
ATOM     16  C   UNL     1      65.435  66.600  71.124  0.00  0.00    +0.000 C 
ATOM     17  N   UNL     1      65.971  67.185  70.895  0.00  0.00    +0.000 NA
ENDROOT
TORSDOF 0
ENDMDL
MODEL 5
REMARK VINA RESULT:    -6.896      2.226      3.481
REMARK INTER + INTRA:          -6.896
REMARK INTER:                  -6.896
REMARK INTRA:                   0.000
REMARK UNBOUND:                 0.000
ROOT
REMARK  Name = cimetidine
REMARK                            x       y       z     vdW  Elec       q    Type
REMARK                         _______ _______ _______ _____ _____    ______ ____
ATOM      1  C   UNL     1      62.778  66.863  71.624  0.00  0.00    +0.000 C 
ATOM      2  N   UNL     1      62.418  66.180  71.333  0.00  0.00    +0.000 NA
ATOM      3  C   UNL     1      61.964  65.707  71.835  0.00  0.00    +0.000 C 
ATOM      4  N   UNL     1      61.604  65.025  71.544  0.00  0.00    +0.000 NA
ATOM      5  C   UNL     1      61.696  64.815  70.752  0.00  0.00    +0.000 C 
ATOM      6  C   UNL     1      61.336  64.132  70.461  0.00  0.00    +0.000 C 
ATOM      7  S   UNL     1      61.429  63.922  69.668  0.00  0.00    +0.000 S 
ATOM      8  C   UNL     1      61.069  63.240  69.377  0.00  0.00    +0.000 C 
ATOM      9  C   UNL     1      61.162  63.029  68.585  0.00  0.00    +0.000 A 
ATOM     10  C   UNL     1      60.837  62.367  68.218  0.00  0.00    +0.000 A 
ATOM     11  C   UNL     1      60.361  61.797  68.578  0.00  0.00    +0.000 C 
ATOM     12  N   UNL     1      61.070  62.373  67.427  0.00  0.00    +0.000 NA
ATOM     13  C   UNL     1      61.540  63.040  67.305  0.00  0.00    +0.000 A 
ATOM     14  N   UNL     1      61.597  63.446  68.021  0.00  0.00    +0.000 NA
ATOM     15  N   UNL     1      61.871  65.918  72.627  0.00  0.00    +0.000 NA
ATOM     16  C   UNL     1      62.231  66.600  72.918  0.00  0.00    +0.000 C 
ATOM     17  N   UNL     1      62.592  67.283  73.209  0.00  0.00    +0.000 NA
ENDROOT
TORSDOF 0
ENDMDL
MODEL 6
REMARK VINA RESULT:    -6.614      6.790      7.504
REMARK INTER + INTRA:          -6.614
REMARK INTER:                  -6.614
REMARK INTRA:                   0.000
REMARK UNBOUND:                 0.000
ROOT
REMARK  Name = cimetidine
REMARK                            x       y       z     vdW  Elec       q    Type
REMARK                         _______ _______ _______ _____ _____    ______ ____
ATOM      1  C   UNL     1      66.106  67.719  70.218  0.00  0.00    +0.000 C 
ATOM      2  N   UNL     1      65.447  67.548  70.686  0.00  0.00    +0.000 NA
ATOM      3  C   UNL     1      65.546  67.198  71.426  0.00  0.00    +0.000 C 
ATOM      4  N   UNL     1      64.888  67.028  71.893  0.00  0.00    +0.000 NA
ATOM      5  C   UNL     1      64.130  67.208  71.620  0.00  0.00    +0.000 C 
ATOM      6  C   UNL     1      63.472  67.038  72.087  0.00  0.00    +0.000 C 
ATOM      7  S   UNL     1      62.714  67.218  71.814  0.00  0.00    +0.000 S 
ATOM      8  C   UNL     1      62.056  67.048  72.281  0.00  0.00    +0.000 C 
ATOM      9  C   UNL     1      61.299  67.227  72.008  0.00  0.00    +0.000 A 
ATOM     10  C   UNL     1      60.593  67.090  72.410  0.00  0.00    +0.000 A 
ATOM     11  C   UNL     1      60.519  66.749  73.158  0.00  0.00    +0.000 C 
ATOM     12  N   UNL     1      59.972  67.354  71.935  0.00  0.00    +0.000 NA
ATOM     13  C   UNL     1      60.295  67.654  71.239  0.00  0.00    +0.000 A 
ATOM     14  N   UNL     1      61.115  67.576  71.283  0.00  0.00    +0.000 NA
ATOM     15  N   UNL     1      66.304  67.018  71.699  0.00  0.00    +0.000 NA
ATOM     16  C   UNL     1      66.962  67.188  71.233  0.00  0.00    +0.000 C 
ATOM     17  N   UNL     1      67.621  67.359  70.765  0.00  0.00    +0.000 NA
ENDROOT
TORSDOF 0
ENDMDL
MODEL 7
REMARK VINA RESULT:    -6.398     23.986     25.206
REMARK INTER + INTRA:          -6.398
REMARK INTER:                  -6.398
REMARK INTRA:                   0.000
REMARK UNBOUND:                 0.000
ROOT
REMARK  Name = cimetidine
REMARK                            x       y       z     vdW  Elec       q    Type
REMARK                         _______ _______ _______ _____ _____    ______ ____
ATOM      1  C   UNL     1      69.516  81.523  53.532  0.00  0.00    +0.000 C 
ATOM      2  N   UNL     1      69.593  81.106  52.824  0.00  0.00    +0.000 NA
ATOM      3  C   UNL     1      68.930  80.762  52.473  0.00  0.00    +0.000 C 
ATOM      4  N   UNL     1      69.007  80.346  51.766  0.00  0.00    +0.000 NA
ATOM      5  C   UNL     1      69.747  80.273  51.408  0.00  0.00    +0.000 C 
ATOM      6  C   UNL     1      69.824  79.857  50.700  0.00  0.00    +0.000 C 
ATOM      7  S   UNL     1      70.564  79.784  50.342  0.00  0.00    +0.000 S 
ATOM      8  C   UNL     1      70.641  79.368  49.634  0.00  0.00    +0.000 C 
ATOM      9  C   UNL     1      71.381  79.295  49.276  0.00  0.00    +0.000 A 
ATOM     10  C   UNL     1      71.542  78.898  48.572  0.00  0.00    +0.000 A 
ATOM     11  C   UNL     1      70.991  78.503  48.101  0.00  0.00    +0.000 C 
ATOM     12  N   UNL     1      72.350  78.964  48.421  0.00  0.00    +0.000 NA
ATOM     13  C   UNL     1      72.688  79.403  49.032  0.00  0.00    +0.000 A 
ATOM     14  N   UNL     1      72.090  79.608  49.561  0.00  0.00    +0.000 NA
ATOM     15  N   UNL     1      68.190  80.835  52.832  0.00  0.00    +0.000 NA
ATOM     16  C   UNL     1      68.113  81.251  53.539  0.00  0.00    +0.000 C 
ATOM     17  N   UNL     1      68.036  81.668  54.248  0.00  0.00    +0.000 NA
ENDROOT
TORSDOF 0
ENDMDL
MODEL 8
REMARK VINA RESULT:    -6.287     13.217     14.268
REMARK INTER + INTRA:          -6.287
REMARK INTER:                  -6.287
REMARK INTRA:                   0.000
REMARK UNBOUND:                 0.000
ROOT
REMARK  Name = cimetidine
REMARK                            x       y       z     vdW  Elec       q    Type
REMARK                         _______ _______ _______ _____ _____    ______ ____
ATOM      1  C   UNL     1      62.755  63.902  52.804  0.00  0.00    +0.000 C 
ATOM      2  N   UNL     1      62.637  64.566  53.280  0.00  0.00    +0.000 NA
ATOM      3  C   UNL     1      62.355  64.478  54.050  0.00  0.00    +0.000 C 
ATOM      4  N   UNL     1      62.237  65.142  54.524  0.00  0.00    +0.000 NA
ATOM      5  C   UNL     1      62.401  65.895  54.229  0.00  0.00    +0.000 C 
ATOM      6  C   UNL     1      62.283  66.559  54.704  0.00  0.00    +0.000 C 
ATOM      7  S   UNL     1      62.448  67.312  54.409  0.00  0.00    +0.000 S 
ATOM      8  C   UNL     1      62.330  67.976  54.883  0.00  0.00    +0.000 C 
ATOM      9  C   UNL     1      62.494  68.729  54.588  0.00  0.00    +0.000 A 
ATOM     10  C   UNL     1      62.404  69.440  54.996  0.00  0.00    +0.000 A 
ATOM     11  C   UNL     1      62.133  69.524  55.771  0.00  0.00    +0.000 C 
ATOM     12  N   UNL     1      62.631  70.053  54.493  0.00  0.00    +0.000 NA
ATOM     13  C   UNL     1      62.862  69.721  53.775  0.00  0.00    +0.000 A 
ATOM     14  N   UNL     1      62.778  68.902  53.833  0.00  0.00    +0.000 NA
ATOM     15  N   UNL     1      62.191  63.725  54.345  0.00  0.00    +0.000 NA
ATOM     16  C   UNL     1      62.308  63.061  53.870  0.00  0.00    +0.000 C 
ATOM     17  N   UNL     1      62.427  62.396  53.395  0.00  0.00    +0.000 NA
ENDROOT
TORSDOF 0
ENDMDL
MODEL 9
REMARK VINA RESULT:    -6.271     13.406     13.579
REMARK INTER + INTRA:          -6.271
REMARK INTER:                  -6.271
REMARK INTRA:                   0.000
REMARK UNBOUND:                 0.000
ROOT
REMARK  Name = cimetidine
REMARK                            x       y       z     vdW  Elec       q    Type
REMARK                         _______ _______ _______ _____ _____    ______ ____
ATOM      1  C   UNL     1      63.081  67.627  54.842  0.00  0.00    +0.000 C 
ATOM      2  N   UNL     1      62.926  66.853  54.600  0.00  0.00    +0.000 NA
ATOM      3  C   UNL     1      62.196  66.662  54.267  0.00  0.00    +0.000 C 
ATOM      4  N   UNL     1      62.043  65.889  54.025  0.00  0.00    +0.000 NA
ATOM      5  C   UNL     1      62.619  65.306  54.117  0.00  0.00    +0.000 C 
ATOM      6  C   UNL     1      62.465  64.532  53.875  0.00  0.00    +0.000 C 
ATOM      7  S   UNL     1      63.041  63.949  53.967  0.00  0.00    +0.000 S 
ATOM      8  C   UNL     1      62.888  63.176  53.726  0.00  0.00    +0.000 C 
ATOM      9  C   UNL     1      63.464  62.592  53.817  0.00  0.00    +0.000 A 
ATOM     10  C   UNL     1      63.390  61.799  53.603  0.00  0.00    +0.000 A 
ATOM     11  C   UNL     1      62.727  61.450  53.259  0.00  0.00    +0.000 C 
ATOM     12  N   UNL     1      64.096  61.417  53.792  0.00  0.00    +0.000 NA
ATOM     13  C   UNL     1      64.606  61.973  54.124  0.00  0.00    +0.000 A 
ATOM     14  N   UNL     1      64.216  62.700  54.140  0.00  0.00    +0.000 NA
ATOM     15  N   UNL     1      61.620  67.246  54.175  0.00  0.00    +0.000 NA
ATOM     16  C   UNL     1      61.774  68.019  54.417  0.00  0.00    +0.000 C 
ATOM     17  N   UNL     1      61.928  68.794  54.658  0.00  0.00    +0.000 NA
ENDROOT
TORSDOF 0
ENDMDL
