MODEL 1
REMARK VINA RESULT:    -8.782      0.000      0.000
REMARK INTER + INTRA:          -8.782
REMARK INTER:                  -8.782
REMARK INTRA:                   0.000
REMARK UNBOUND:                 0.000
ROOT
REMARK  Name = cinametic acid
REMARK                            x       y       z     vdW  Elec       q    Type
REMARK                         _______ _______ _______ _____ _____    ______ ____
ATOM      1  C   UNL     1      61.983  63.139  67.074  0.00  0.00    +0.000 C 
ATOM      2  O   UNL     1      61.207  63.073  67.349  0.00  0.00    +0.000 OA
ATOM      3  C   UNL     1      60.642  62.676  66.899  0.00  0.00    +0.000 A 
ATOM      4  C   UNL     1      59.868  62.609  67.174  0.00  0.00    +0.000 A 
ATOM      5  O   UNL     1      59.659  62.941  67.900  0.00  0.00    +0.000 OA
ATOM      6  C   UNL     1      60.224  63.337  68.350  0.00  0.00    +0.000 C 
ATOM      7  C   UNL     1      60.014  63.669  69.077  0.00  0.00    +0.000 C 
ATOM      8  O   UNL     1      60.580  64.066  69.527  0.00  0.00    +0.000 OA
ATOM      9  C   UNL     1      59.302  62.212  66.723  0.00  0.00    +0.000 A 
ATOM     10  C   UNL     1      59.512  61.881  65.998  0.00  0.00    +0.000 A 
ATOM     11  C   UNL     1      60.286  61.947  65.722  0.00  0.00    +0.000 A 
ATOM     12  C   UNL     1      60.497  61.616  64.996  0.00  0.00    +0.000 C 
ATOM     13  C   UNL     1      61.271  61.682  64.720  0.00  0.00    +0.000 C 
ATOM     14  C   UNL     1      61.480  61.351  63.995  0.00  0.00    +0.000 C 
ATOM     15  O   UNL     1      60.914  60.953  63.544  0.00  0.00    +0.000 OA
ATOM     16  O   UNL     1      62.255  61.417  63.719  0.00  0.00    +0.000 OA
ATOM     17  C   UNL     1      60.852  62.344  66.172  0.00  0.00    +0.000 A 
ENDROOT
TORSDOF 0
ENDMDL
MODEL 2
REMARK VINA RESULT:    -8.490      2.244      5.166
REMARK INTER + INTRA:          -8.490
REMARK INTER:                  -8.490
REMARK INTRA:                   0.000
REMARK UNBOUND:                 0.000
ROOT
REMARK  Name = cinametic acid
REMARK                            x       y       z     vdW  Elec       q    Type
REMARK                         _______ _______ _______ _____ _____    ______ ____
ATOM      1  C   UNL     1      61.930  64.086  68.968  0.00  0.00    +0.000 C 
ATOM      2  O   UNL     1      61.505  63.440  68.679  0.00  0.00    +0.000 OA
ATOM      3  C   UNL     1      61.171  62.898  69.202  0.00  0.00    +0.000 A 
ATOM      4  C   UNL     1      60.746  62.252  68.914  0.00  0.00    +0.000 A 
ATOM      5  O   UNL     1      60.656  62.150  68.101  0.00  0.00    +0.000 OA
ATOM      6  C   UNL     1      60.990  62.691  67.577  0.00  0.00    +0.000 C 
ATOM      7  C   UNL     1      60.899  62.588  66.763  0.00  0.00    +0.000 C 
ATOM      8  O   UNL     1      61.233  63.130  66.238  0.00  0.00    +0.000 OA
ATOM      9  C   UNL     1      60.412  61.710  69.438  0.00  0.00    +0.000 A 
ATOM     10  C   UNL     1      60.503  61.813  70.251  0.00  0.00    +0.000 A 
ATOM     11  C   UNL     1      60.928  62.459  70.541  0.00  0.00    +0.000 A 
ATOM     12  C   UNL     1      61.019  62.563  71.355  0.00  0.00    +0.000 C 
ATOM     13  C   UNL     1      61.443  63.208  71.644  0.00  0.00    +0.000 C 
ATOM     14  C   UNL     1      61.533  63.311  72.456  0.00  0.00    +0.000 C 
ATOM     15  O   UNL     1      61.199  62.768  72.982  0.00  0.00    +0.000 OA
ATOM     16  O   UNL     1      61.958  63.957  72.746  0.00  0.00    +0.000 OA
ATOM     17  C   UNL     1      61.262  63.001  70.017  0.00  0.00    +0.000 A 
ENDROOT
TORSDOF 0
ENDMDL
MODEL 3
REMARK VINA RESULT:    -8.371      0.905      3.943
REMARK INTER + INTRA:          -8.371
REMARK INTER:                  -8.371
REMARK INTRA:                   0.000
REMARK UNBOUND:                 0.000
ROOT
REMARK  Name = cinametic acid
REMARK                            x       y       z     vdW  Elec       q    Type
REMARK                         _______ _______ _______ _____ _____    ______ ____
ATOM      1  C   UNL     1      62.267  62.252  65.972  0.00  0.00    +0.000 C 
ATOM      2  O   UNL     1      61.572  61.991  65.610  0.00  0.00    +0.000 OA
ATOM      3  C   UNL     1      60.852  62.056  66.006  0.00  0.00    +0.000 A 
ATOM      4  C   UNL     1      60.157  61.796  65.645  0.00  0.00    +0.000 A 
ATOM      5  O   UNL     1      60.184  61.471  64.888  0.00  0.00    +0.000 OA
ATOM      6  C   UNL     1      60.904  61.406  64.492  0.00  0.00    +0.000 C 
ATOM      7  C   UNL     1      60.930  61.081  63.734  0.00  0.00    +0.000 C 
ATOM      8  O   UNL     1      61.651  61.016  63.337  0.00  0.00    +0.000 OA
ATOM      9  C   UNL     1      59.437  61.862  66.042  0.00  0.00    +0.000 A 
ATOM     10  C   UNL     1      59.411  62.187  66.799  0.00  0.00    +0.000 A 
ATOM     11  C   UNL     1      60.105  62.447  67.161  0.00  0.00    +0.000 A 
ATOM     12  C   UNL     1      60.080  62.772  67.919  0.00  0.00    +0.000 C 
ATOM     13  C   UNL     1      60.773  63.032  68.280  0.00  0.00    +0.000 C 
ATOM     14  C   UNL     1      60.747  63.357  69.037  0.00  0.00    +0.000 C 
ATOM     15  O   UNL     1      60.026  63.423  69.434  0.00  0.00    +0.000 OA
ATOM     16  O   UNL     1      61.442  63.618  69.399  0.00  0.00    +0.000 OA
ATOM     17  C   UNL     1      60.826  62.382  66.765  0.00  0.00    +0.000 A 
ENDROOT
TORSDOF 0
ENDMDL
MODEL 4
REMARK VINA RESULT:    -8.158      1.933      3.106
REMARK INTER + INTRA:          -8.158
REMARK INTER:                  -8.158
REMARK INTRA:                   0.000
REMARK UNBOUND:                 0.000
ROOT
REMARK  Name = cinametic acid
REMARK                            x       y       z     vdW  Elec       q    Type
REMARK                         _______ _______ _______ _____ _____    ______ ____
ATOM      1  C   UNL     1      62.151  64.274  69.489  0.00  0.00    +0.000 C 
ATOM      2  O   UNL     1      61.775  63.776  70.030  0.00  0.00    +0.000 OA
ATOM      3  C   UNL     1      61.318  63.145  69.762  0.00  0.00    +0.000 A 
ATOM      4  C   UNL     1      60.943  62.647  70.302  0.00  0.00    +0.000 A 
ATOM      5  O   UNL     1      61.025  62.782  71.111  0.00  0.00    +0.000 OA
ATOM      6  C   UNL     1      61.482  63.413  71.380  0.00  0.00    +0.000 C 
ATOM      7  C   UNL     1      61.564  63.548  72.190  0.00  0.00    +0.000 C 
ATOM      8  O   UNL     1      62.021  64.180  72.459  0.00  0.00    +0.000 OA
ATOM      9  C   UNL     1      60.486  62.015  70.033  0.00  0.00    +0.000 A 
ATOM     10  C   UNL     1      60.404  61.881  69.224  0.00  0.00    +0.000 A 
ATOM     11  C   UNL     1      60.779  62.378  68.682  0.00  0.00    +0.000 A 
ATOM     12  C   UNL     1      60.697  62.244  67.872  0.00  0.00    +0.000 C 
ATOM     13  C   UNL     1      61.072  62.741  67.331  0.00  0.00    +0.000 C 
ATOM     14  C   UNL     1      60.991  62.607  66.522  0.00  0.00    +0.000 C 
ATOM     15  O   UNL     1      60.533  61.974  66.253  0.00  0.00    +0.000 OA
ATOM     16  O   UNL     1      61.366  63.104  65.981  0.00  0.00    +0.000 OA
ATOM     17  C   UNL     1      61.236  63.010  68.951  0.00  0.00    +0.000 A 
ENDROOT
TORSDOF 0
ENDMDL
MODEL 5
REMARK VINA RESULT:    -7.986      3.989      5.716
REMARK INTER + INTRA:          -7.986
REMARK INTER:                  -7.986
REMARK INTRA:                   0.000
REMARK UNBOUND:                 0.000
ROOT
REMARK  Name = cinametic acid
REMARK                            x       y       z     vdW  Elec       q    Type
REMARK                         _______ _______ _______ _____ _____    ______ ____
ATOM      1  C   UNL     1      62.088  65.107  70.375  0.00  0.00    +0.000 C 
ATOM      2  O   UNL     1      62.059  65.125  71.200  0.00  0.00    +0.000 OA
ATOM      3  C   UNL     1      61.728  64.495  71.615  0.00  0.00    +0.000 A 
ATOM      4  C   UNL     1      61.700  64.513  72.439  0.00  0.00    +0.000 A 
ATOM      5  O   UNL     1      62.003  65.162  72.847  0.00  0.00    +0.000 OA
ATOM      6  C   UNL     1      62.335  65.792  72.432  0.00  0.00    +0.000 C 
ATOM      7  C   UNL     1      62.639  66.442  72.841  0.00  0.00    +0.000 C 
ATOM      8  O   UNL     1      62.971  67.072  72.425  0.00  0.00    +0.000 OA
ATOM      9  C   UNL     1      61.368  63.882  72.854  0.00  0.00    +0.000 A 
ATOM     10  C   UNL     1      61.064  63.234  72.446  0.00  0.00    +0.000 A 
ATOM     11  C   UNL     1      61.092  63.215  71.621  0.00  0.00    +0.000 A 
ATOM     12  C   UNL     1      60.788  62.566  71.212  0.00  0.00    +0.000 C 
ATOM     13  C   UNL     1      60.816  62.547  70.388  0.00  0.00    +0.000 C 
ATOM     14  C   UNL     1      60.513  61.899  69.980  0.00  0.00    +0.000 C 
ATOM     15  O   UNL     1      60.181  61.267  70.396  0.00  0.00    +0.000 OA
ATOM     16  O   UNL     1      60.541  61.880  69.155  0.00  0.00    +0.000 OA
ATOM     17  C   UNL     1      61.424  63.845  71.206  0.00  0.00    +0.000 A 
ENDROOT
TORSDOF 0
ENDMDL
MODEL 6
REMARK VINA RESULT:    -7.955      5.339      6.804
REMARK INTER + INTRA:          -7.955
REMARK INTER:                  -7.955
REMARK INTRA:                   0.000
REMARK UNBOUND:                 0.000
ROOT
REMARK  Name = cinametic acid
REMARK                            x       y       z     vdW  Elec       q    Type
REMARK                         _______ _______ _______ _____ _____    ______ ____
ATOM      1  C   UNL     1      62.907  65.894  72.049  0.00  0.00    +0.000 C 
ATOM      2  O   UNL     1      62.855  65.227  71.565  0.00  0.00    +0.000 OA
ATOM      3  C   UNL     1      63.384  65.128  70.942  0.00  0.00    +0.000 A 
ATOM      4  C   UNL     1      63.332  64.462  70.458  0.00  0.00    +0.000 A 
ATOM      5  O   UNL     1      62.749  63.895  70.599  0.00  0.00    +0.000 OA
ATOM      6  C   UNL     1      62.220  63.994  71.223  0.00  0.00    +0.000 C 
ATOM      7  C   UNL     1      61.637  63.427  71.364  0.00  0.00    +0.000 C 
ATOM      8  O   UNL     1      61.107  63.526  71.988  0.00  0.00    +0.000 OA
ATOM      9  C   UNL     1      63.862  64.362  69.833  0.00  0.00    +0.000 A 
ATOM     10  C   UNL     1      64.444  64.929  69.693  0.00  0.00    +0.000 A 
ATOM     11  C   UNL     1      64.497  65.596  70.176  0.00  0.00    +0.000 A 
ATOM     12  C   UNL     1      65.079  66.163  70.036  0.00  0.00    +0.000 C 
ATOM     13  C   UNL     1      65.132  66.829  70.519  0.00  0.00    +0.000 C 
ATOM     14  C   UNL     1      65.714  67.396  70.378  0.00  0.00    +0.000 C 
ATOM     15  O   UNL     1      66.244  67.296  69.753  0.00  0.00    +0.000 OA
ATOM     16  O   UNL     1      65.767  68.063  70.862  0.00  0.00    +0.000 OA
ATOM     17  C   UNL     1      63.967  65.695  70.801  0.00  0.00    +0.000 A 
ENDROOT
TORSDOF 0
ENDMDL
MODEL 7
REMARK VINA RESULT:    -7.782      5.645      7.018
REMARK INTER + INTRA:          -7.782
REMARK INTER:                  -7.782
REMARK INTRA:                   0.000
REMARK UNBOUND:                 0.000
ROOT
REMARK  Name = cinametic acid
REMARK                            x       y       z     vdW  Elec       q    Type
REMARK                         _______ _______ _______ _____ _____    ______ ____
ATOM      1  C   UNL     1      63.978  66.768  71.900  0.00  0.00    +0.000 C 
ATOM      2  O   UNL     1      64.354  66.570  71.192  0.00  0.00    +0.000 OA
ATOM      3  C   UNL     1      64.143  65.880  70.793  0.00  0.00    +0.000 A 
ATOM      4  C   UNL     1      64.519  65.681  70.086  0.00  0.00    +0.000 A 
ATOM      5  O   UNL     1      65.106  66.173  69.779  0.00  0.00    +0.000 OA
ATOM      6  C   UNL     1      65.316  66.863  70.179  0.00  0.00    +0.000 C 
ATOM      7  C   UNL     1      65.903  67.355  69.871  0.00  0.00    +0.000 C 
ATOM      8  O   UNL     1      66.114  68.045  70.271  0.00  0.00    +0.000 OA
ATOM      9  C   UNL     1      64.308  64.991  69.686  0.00  0.00    +0.000 A 
ATOM     10  C   UNL     1      63.722  64.500  69.994  0.00  0.00    +0.000 A 
ATOM     11  C   UNL     1      63.345  64.698  70.701  0.00  0.00    +0.000 A 
ATOM     12  C   UNL     1      62.758  64.206  71.009  0.00  0.00    +0.000 C 
ATOM     13  C   UNL     1      62.382  64.405  71.715  0.00  0.00    +0.000 C 
ATOM     14  C   UNL     1      61.796  63.913  72.022  0.00  0.00    +0.000 C 
ATOM     15  O   UNL     1      61.585  63.222  71.622  0.00  0.00    +0.000 OA
ATOM     16  O   UNL     1      61.419  64.111  72.729  0.00  0.00    +0.000 OA
ATOM     17  C   UNL     1      63.556  65.388  71.100  0.00  0.00    +0.000 A 
ENDROOT
TORSDOF 0
ENDMDL
MODEL 8
REMARK VINA RESULT:    -7.770      2.580      4.541
REMARK INTER + INTRA:          -7.770
REMARK INTER:                  -7.770
REMARK INTRA:                   0.000
REMARK UNBOUND:                 0.000
ROOT
REMARK  Name = cinametic acid
REMARK                            x       y       z     vdW  Elec       q    Type
REMARK                         _______ _______ _______ _____ _____    ______ ____
ATOM      1  C   UNL     1      59.761  65.155  70.324  0.00  0.00    +0.000 C 
ATOM      2  O   UNL     1      59.903  64.757  71.033  0.00  0.00    +0.000 OA
ATOM      3  C   UNL     1      60.150  63.970  71.022  0.00  0.00    +0.000 A 
ATOM      4  C   UNL     1      60.292  63.572  71.730  0.00  0.00    +0.000 A 
ATOM      5  O   UNL     1      60.186  63.961  72.449  0.00  0.00    +0.000 OA
ATOM      6  C   UNL     1      59.940  64.747  72.461  0.00  0.00    +0.000 C 
ATOM      7  C   UNL     1      59.834  65.136  73.181  0.00  0.00    +0.000 C 
ATOM      8  O   UNL     1      59.587  65.923  73.193  0.00  0.00    +0.000 OA
ATOM      9  C   UNL     1      60.539  62.785  71.718  0.00  0.00    +0.000 A 
ATOM     10  C   UNL     1      60.644  62.396  70.998  0.00  0.00    +0.000 A 
ATOM     11  C   UNL     1      60.502  62.794  70.289  0.00  0.00    +0.000 A 
ATOM     12  C   UNL     1      60.607  62.406  69.569  0.00  0.00    +0.000 C 
ATOM     13  C   UNL     1      60.466  62.804  68.861  0.00  0.00    +0.000 C 
ATOM     14  C   UNL     1      60.571  62.416  68.141  0.00  0.00    +0.000 C 
ATOM     15  O   UNL     1      60.818  61.628  68.130  0.00  0.00    +0.000 OA
ATOM     16  O   UNL     1      60.429  62.813  67.432  0.00  0.00    +0.000 OA
ATOM     17  C   UNL     1      60.255  63.581  70.301  0.00  0.00    +0.000 A 
ENDROOT
TORSDOF 0
ENDMDL
MODEL 9
REMARK VINA RESULT:    -7.535      4.224      6.658
REMARK INTER + INTRA:          -7.535
REMARK INTER:                  -7.535
REMARK INTRA:                   0.000
REMARK UNBOUND:                 0.000
ROOT
REMARK  Name = cinametic acid
REMARK                            x       y       z     vdW  Elec       q    Type
REMARK                         _______ _______ _______ _____ _____    ______ ____
ATOM      1  C   UNL     1      62.282  63.975  70.036  0.00  0.00    +0.000 C 
ATOM      2  O   UNL     1      61.708  63.576  70.474  0.00  0.00    +0.000 OA
ATOM      3  C   UNL     1      61.498  63.848  71.223  0.00  0.00    +0.000 A 
ATOM      4  C   UNL     1      60.925  63.449  71.662  0.00  0.00    +0.000 A 
ATOM      5  O   UNL     1      60.561  62.778  71.349  0.00  0.00    +0.000 OA
ATOM      6  C   UNL     1      60.770  62.506  70.600  0.00  0.00    +0.000 C 
ATOM      7  C   UNL     1      60.406  61.834  70.288  0.00  0.00    +0.000 C 
ATOM      8  O   UNL     1      60.616  61.562  69.538  0.00  0.00    +0.000 OA
ATOM      9  C   UNL     1      60.715  63.721  72.412  0.00  0.00    +0.000 A 
ATOM     10  C   UNL     1      61.079  64.392  72.723  0.00  0.00    +0.000 A 
ATOM     11  C   UNL     1      61.653  64.792  72.286  0.00  0.00    +0.000 A 
ATOM     12  C   UNL     1      62.018  65.463  72.597  0.00  0.00    +0.000 C 
ATOM     13  C   UNL     1      62.591  65.862  72.160  0.00  0.00    +0.000 C 
ATOM     14  C   UNL     1      62.956  66.533  72.471  0.00  0.00    +0.000 C 
ATOM     15  O   UNL     1      62.746  66.805  73.222  0.00  0.00    +0.000 OA
ATOM     16  O   UNL     1      63.530  66.932  72.034  0.00  0.00    +0.000 OA
ATOM     17  C   UNL     1      61.863  64.519  71.536  0.00  0.00    +0.000 A 
ENDROOT
TORSDOF 0
ENDMDL
