MODEL 1
REMARK VINA RESULT:   -15.278      0.000      0.000
REMARK INTER + INTRA:         -15.278
REMARK INTER:                 -15.278
REMARK INTRA:                   0.000
REMARK UNBOUND:                 0.000
ROOT
REMARK  Name = cinnoxicam
REMARK                            x       y       z     vdW  Elec       q    Type
REMARK                         _______ _______ _______ _____ _____    ______ ____
ATOM      1  C   UNL     1      61.007  64.572  72.472  0.00  0.00    +0.000 C 
ATOM      2  N   UNL     1      61.663  64.902  72.094  0.00  0.00    +0.000 N 
ATOM      3  C   UNL     1      61.883  64.637  71.344  0.00  0.00    +0.000 C 
ATOM      4  C   UNL     1      61.448  64.042  70.973  0.00  0.00    +0.000 C 
ATOM      5  O   UNL     1      60.793  63.711  71.350  0.00  0.00    +0.000 OA
ATOM      6  N   UNL     1      61.668  63.777  70.223  0.00  0.00    +0.000 NA
ATOM      7  C   UNL     1      61.234  63.181  69.851  0.00  0.00    +0.000 A 
ATOM      8  C   UNL     1      61.454  62.916  69.103  0.00  0.00    +0.000 A 
ATOM      9  C   UNL     1      61.020  62.322  68.731  0.00  0.00    +0.000 A 
ATOM     10  C   UNL     1      60.365  61.992  69.109  0.00  0.00    +0.000 A 
ATOM     11  C   UNL     1      60.145  62.257  69.858  0.00  0.00    +0.000 A 
ATOM     12  N   UNL     1      60.579  62.852  70.230  0.00  0.00    +0.000 NA
ATOM     13  C   UNL     1      62.538  64.966  70.966  0.00  0.00    +0.000 C 
ATOM     14  O   UNL     1      62.758  64.701  70.216  0.00  0.00    +0.000 OA
ATOM     15  C   UNL     1      63.413  65.030  69.838  0.00  0.00    +0.000 C 
ATOM     16  O   UNL     1      63.633  64.766  69.089  0.00  0.00    +0.000 OA
ATOM     17  C   UNL     1      63.847  65.626  70.210  0.00  0.00    +0.000 C 
ATOM     18  C   UNL     1      64.502  65.955  69.831  0.00  0.00    +0.000 C 
ATOM     19  C   UNL     1      64.937  66.550  70.203  0.00  0.00    +0.000 A 
ATOM     20  C   UNL     1      65.592  66.880  69.824  0.00  0.00    +0.000 A 
ATOM     21  C   UNL     1      66.027  67.475  70.196  0.00  0.00    +0.000 A 
ATOM     22  C   UNL     1      65.806  67.740  70.946  0.00  0.00    +0.000 A 
ATOM     23  C   UNL     1      65.151  67.410  71.323  0.00  0.00    +0.000 A 
ATOM     24  C   UNL     1      64.717  66.816  70.952  0.00  0.00    +0.000 A 
ATOM     25  C   UNL     1      62.972  65.561  71.337  0.00  0.00    +0.000 A 
ATOM     26  C   UNL     1      63.627  65.891  70.959  0.00  0.00    +0.000 A 
ATOM     27  C   UNL     1      64.062  66.485  71.330  0.00  0.00    +0.000 A 
ATOM     28  C   UNL     1      63.841  66.751  72.080  0.00  0.00    +0.000 A 
ATOM     29  C   UNL     1      63.187  66.421  72.458  0.00  0.00    +0.000 A 
ATOM     30  C   UNL     1      62.751  65.826  72.087  0.00  0.00    +0.000 A 
ATOM     31  S   UNL     1      62.097  65.497  72.465  0.00  0.00    +0.000 S 
ATOM     32  O   UNL     1      62.198  65.981  73.124  0.00  0.00    +0.000 OA
ATOM     33  O   UNL     1      61.607  65.480  73.128  0.00  0.00    +0.000 OA
ENDROOT
TORSDOF 0
ENDMDL
MODEL 2
REMARK VINA RESULT:   -15.113      1.436      4.545
REMARK INTER + INTRA:         -15.113
REMARK INTER:                 -15.113
REMARK INTRA:                   0.000
REMARK UNBOUND:                 0.000
ROOT
REMARK  Name = cinnoxicam
REMARK                            x       y       z     vdW  Elec       q    Type
REMARK                         _______ _______ _______ _____ _____    ______ ____
ATOM      1  C   UNL     1      62.206  67.159  72.886  0.00  0.00    +0.000 C 
ATOM      2  N   UNL     1      62.065  66.428  72.529  0.00  0.00    +0.000 N 
ATOM      3  C   UNL     1      62.615  66.116  71.997  0.00  0.00    +0.000 C 
ATOM      4  C   UNL     1      63.304  66.536  71.823  0.00  0.00    +0.000 C 
ATOM      5  O   UNL     1      63.444  67.267  72.180  0.00  0.00    +0.000 OA
ATOM      6  N   UNL     1      63.852  66.225  71.291  0.00  0.00    +0.000 NA
ATOM      7  C   UNL     1      64.542  66.644  71.116  0.00  0.00    +0.000 A 
ATOM      8  C   UNL     1      65.090  66.333  70.585  0.00  0.00    +0.000 A 
ATOM      9  C   UNL     1      65.779  66.751  70.410  0.00  0.00    +0.000 A 
ATOM     10  C   UNL     1      65.918  67.481  70.767  0.00  0.00    +0.000 A 
ATOM     11  C   UNL     1      65.370  67.792  71.298  0.00  0.00    +0.000 A 
ATOM     12  N   UNL     1      64.681  67.374  71.473  0.00  0.00    +0.000 NA
ATOM     13  C   UNL     1      62.474  65.387  71.640  0.00  0.00    +0.000 C 
ATOM     14  O   UNL     1      63.023  65.075  71.109  0.00  0.00    +0.000 OA
ATOM     15  C   UNL     1      62.883  64.345  70.751  0.00  0.00    +0.000 C 
ATOM     16  O   UNL     1      63.431  64.034  70.220  0.00  0.00    +0.000 OA
ATOM     17  C   UNL     1      62.194  63.926  70.926  0.00  0.00    +0.000 C 
ATOM     18  C   UNL     1      62.054  63.195  70.569  0.00  0.00    +0.000 C 
ATOM     19  C   UNL     1      61.364  62.776  70.744  0.00  0.00    +0.000 A 
ATOM     20  C   UNL     1      61.225  62.046  70.387  0.00  0.00    +0.000 A 
ATOM     21  C   UNL     1      60.535  61.627  70.562  0.00  0.00    +0.000 A 
ATOM     22  C   UNL     1      59.987  61.938  71.093  0.00  0.00    +0.000 A 
ATOM     23  C   UNL     1      60.128  62.669  71.450  0.00  0.00    +0.000 A 
ATOM     24  C   UNL     1      60.816  63.088  71.276  0.00  0.00    +0.000 A 
ATOM     25  C   UNL     1      61.786  64.968  71.815  0.00  0.00    +0.000 A 
ATOM     26  C   UNL     1      61.645  64.237  71.458  0.00  0.00    +0.000 A 
ATOM     27  C   UNL     1      60.957  63.818  71.632  0.00  0.00    +0.000 A 
ATOM     28  C   UNL     1      60.408  64.130  72.165  0.00  0.00    +0.000 A 
ATOM     29  C   UNL     1      60.548  64.860  72.521  0.00  0.00    +0.000 A 
ATOM     30  C   UNL     1      61.237  65.280  72.347  0.00  0.00    +0.000 A 
ATOM     31  S   UNL     1      61.377  66.009  72.704  0.00  0.00    +0.000 S 
ATOM     32  O   UNL     1      60.668  65.973  73.123  0.00  0.00    +0.000 OA
ATOM     33  O   UNL     1      61.118  66.595  73.222  0.00  0.00    +0.000 OA
ENDROOT
TORSDOF 0
ENDMDL
MODEL 3
REMARK VINA RESULT:   -14.495      2.468      4.891
REMARK INTER + INTRA:         -14.495
REMARK INTER:                 -14.495
REMARK INTRA:                   0.000
REMARK UNBOUND:                 0.000
ROOT
REMARK  Name = cinnoxicam
REMARK                            x       y       z     vdW  Elec       q    Type
REMARK                         _______ _______ _______ _____ _____    ______ ____
ATOM      1  C   UNL     1      61.665  63.347  72.825  0.00  0.00    +0.000 C 
ATOM      2  N   UNL     1      61.422  63.335  72.036  0.00  0.00    +0.000 N 
ATOM      3  C   UNL     1      61.313  64.044  71.628  0.00  0.00    +0.000 C 
ATOM      4  C   UNL     1      61.447  64.764  72.008  0.00  0.00    +0.000 C 
ATOM      5  O   UNL     1      61.690  64.776  72.797  0.00  0.00    +0.000 OA
ATOM      6  N   UNL     1      61.337  65.473  71.600  0.00  0.00    +0.000 NA
ATOM      7  C   UNL     1      61.471  66.193  71.980  0.00  0.00    +0.000 A 
ATOM      8  C   UNL     1      61.362  66.901  71.573  0.00  0.00    +0.000 A 
ATOM      9  C   UNL     1      61.496  67.621  71.952  0.00  0.00    +0.000 A 
ATOM     10  C   UNL     1      61.739  67.632  72.740  0.00  0.00    +0.000 A 
ATOM     11  C   UNL     1      61.848  66.924  73.148  0.00  0.00    +0.000 A 
ATOM     12  N   UNL     1      61.715  66.204  72.768  0.00  0.00    +0.000 NA
ATOM     13  C   UNL     1      61.070  64.033  70.840  0.00  0.00    +0.000 C 
ATOM     14  O   UNL     1      60.960  64.741  70.432  0.00  0.00    +0.000 OA
ATOM     15  C   UNL     1      60.717  64.730  69.644  0.00  0.00    +0.000 C 
ATOM     16  O   UNL     1      60.608  65.438  69.236  0.00  0.00    +0.000 OA
ATOM     17  C   UNL     1      60.583  64.010  69.264  0.00  0.00    +0.000 C 
ATOM     18  C   UNL     1      60.340  63.999  68.475  0.00  0.00    +0.000 C 
ATOM     19  C   UNL     1      60.206  63.278  68.095  0.00  0.00    +0.000 A 
ATOM     20  C   UNL     1      59.963  63.268  67.307  0.00  0.00    +0.000 A 
ATOM     21  C   UNL     1      59.829  62.547  66.927  0.00  0.00    +0.000 A 
ATOM     22  C   UNL     1      59.938  61.838  67.335  0.00  0.00    +0.000 A 
ATOM     23  C   UNL     1      60.181  61.851  68.124  0.00  0.00    +0.000 A 
ATOM     24  C   UNL     1      60.315  62.570  68.504  0.00  0.00    +0.000 A 
ATOM     25  C   UNL     1      60.936  63.313  70.460  0.00  0.00    +0.000 A 
ATOM     26  C   UNL     1      60.692  63.301  69.672  0.00  0.00    +0.000 A 
ATOM     27  C   UNL     1      60.559  62.582  69.292  0.00  0.00    +0.000 A 
ATOM     28  C   UNL     1      60.668  61.873  69.701  0.00  0.00    +0.000 A 
ATOM     29  C   UNL     1      60.911  61.884  70.488  0.00  0.00    +0.000 A 
ATOM     30  C   UNL     1      61.045  62.604  70.869  0.00  0.00    +0.000 A 
ATOM     31  S   UNL     1      61.288  62.616  71.657  0.00  0.00    +0.000 S 
ATOM     32  O   UNL     1      61.283  61.792  71.700  0.00  0.00    +0.000 OA
ATOM     33  O   UNL     1      61.487  62.188  72.333  0.00  0.00    +0.000 OA
ENDROOT
TORSDOF 0
ENDMDL
MODEL 4
REMARK VINA RESULT:   -14.169      1.881      2.977
REMARK INTER + INTRA:         -14.169
REMARK INTER:                 -14.169
REMARK INTRA:                   0.000
REMARK UNBOUND:                 0.000
ROOT
REMARK  Name = cinnoxicam
REMARK                            x       y       z     vdW  Elec       q    Type
REMARK                         _______ _______ _______ _____ _____    ______ ____
ATOM      1  C   UNL     1      60.167  61.637  70.073  0.00  0.00    +0.000 C 
ATOM      2  N   UNL     1      60.588  62.319  70.269  0.00  0.00    +0.000 N 
ATOM      3  C   UNL     1      60.990  62.739  69.683  0.00  0.00    +0.000 C 
ATOM      4  C   UNL     1      60.971  62.475  68.901  0.00  0.00    +0.000 C 
ATOM      5  O   UNL     1      60.549  61.793  68.704  0.00  0.00    +0.000 OA
ATOM      6  N   UNL     1      61.372  62.894  68.315  0.00  0.00    +0.000 NA
ATOM      7  C   UNL     1      61.353  62.631  67.532  0.00  0.00    +0.000 A 
ATOM      8  C   UNL     1      61.754  63.050  66.947  0.00  0.00    +0.000 A 
ATOM      9  C   UNL     1      61.735  62.788  66.165  0.00  0.00    +0.000 A 
ATOM     10  C   UNL     1      61.314  62.106  65.970  0.00  0.00    +0.000 A 
ATOM     11  C   UNL     1      60.913  61.687  66.555  0.00  0.00    +0.000 A 
ATOM     12  N   UNL     1      60.932  61.950  67.337  0.00  0.00    +0.000 NA
ATOM     13  C   UNL     1      61.411  63.420  69.878  0.00  0.00    +0.000 C 
ATOM     14  O   UNL     1      61.813  63.839  69.292  0.00  0.00    +0.000 OA
ATOM     15  C   UNL     1      62.234  64.521  69.487  0.00  0.00    +0.000 C 
ATOM     16  O   UNL     1      62.635  64.939  68.902  0.00  0.00    +0.000 OA
ATOM     17  C   UNL     1      62.253  64.784  70.270  0.00  0.00    +0.000 C 
ATOM     18  C   UNL     1      62.675  65.465  70.465  0.00  0.00    +0.000 C 
ATOM     19  C   UNL     1      62.694  65.728  71.247  0.00  0.00    +0.000 A 
ATOM     20  C   UNL     1      63.115  66.410  71.442  0.00  0.00    +0.000 A 
ATOM     21  C   UNL     1      63.134  66.673  72.225  0.00  0.00    +0.000 A 
ATOM     22  C   UNL     1      62.733  66.254  72.811  0.00  0.00    +0.000 A 
ATOM     23  C   UNL     1      62.312  65.572  72.614  0.00  0.00    +0.000 A 
ATOM     24  C   UNL     1      62.292  65.309  71.833  0.00  0.00    +0.000 A 
ATOM     25  C   UNL     1      61.431  63.683  70.659  0.00  0.00    +0.000 A 
ATOM     26  C   UNL     1      61.852  64.365  70.856  0.00  0.00    +0.000 A 
ATOM     27  C   UNL     1      61.871  64.627  71.637  0.00  0.00    +0.000 A 
ATOM     28  C   UNL     1      61.469  64.208  72.224  0.00  0.00    +0.000 A 
ATOM     29  C   UNL     1      61.048  63.526  72.028  0.00  0.00    +0.000 A 
ATOM     30  C   UNL     1      61.028  63.263  71.246  0.00  0.00    +0.000 A 
ATOM     31  S   UNL     1      60.607  62.582  71.051  0.00  0.00    +0.000 S 
ATOM     32  O   UNL     1      60.372  62.468  71.832  0.00  0.00    +0.000 OA
ATOM     33  O   UNL     1      60.134  61.956  71.303  0.00  0.00    +0.000 OA
ENDROOT
TORSDOF 0
ENDMDL
MODEL 5
REMARK VINA RESULT:   -13.953      1.872      3.331
REMARK INTER + INTRA:         -13.953
REMARK INTER:                 -13.953
REMARK INTRA:                   0.000
REMARK UNBOUND:                 0.000
ROOT
REMARK  Name = cinnoxicam
REMARK                            x       y       z     vdW  Elec       q    Type
REMARK                         _______ _______ _______ _____ _____    ______ ____
ATOM      1  C   UNL     1      59.753  63.245  71.718  0.00  0.00    +0.000 C 
ATOM      2  N   UNL     1      60.399  63.735  71.564  0.00  0.00    +0.000 N 
ATOM      3  C   UNL     1      60.355  64.542  71.738  0.00  0.00    +0.000 C 
ATOM      4  C   UNL     1      59.666  64.856  72.066  0.00  0.00    +0.000 C 
ATOM      5  O   UNL     1      59.020  64.366  72.220  0.00  0.00    +0.000 OA
ATOM      6  N   UNL     1      59.623  65.661  72.240  0.00  0.00    +0.000 NA
ATOM      7  C   UNL     1      58.934  65.977  72.568  0.00  0.00    +0.000 A 
ATOM      8  C   UNL     1      58.891  66.781  72.742  0.00  0.00    +0.000 A 
ATOM      9  C   UNL     1      58.203  67.096  73.069  0.00  0.00    +0.000 A 
ATOM     10  C   UNL     1      57.558  66.606  73.222  0.00  0.00    +0.000 A 
ATOM     11  C   UNL     1      57.601  65.801  73.049  0.00  0.00    +0.000 A 
ATOM     12  N   UNL     1      58.289  65.486  72.721  0.00  0.00    +0.000 NA
ATOM     13  C   UNL     1      61.000  65.031  71.585  0.00  0.00    +0.000 C 
ATOM     14  O   UNL     1      60.957  65.837  71.759  0.00  0.00    +0.000 OA
ATOM     15  C   UNL     1      61.602  66.328  71.606  0.00  0.00    +0.000 C 
ATOM     16  O   UNL     1      61.559  67.132  71.779  0.00  0.00    +0.000 OA
ATOM     17  C   UNL     1      62.291  66.012  71.278  0.00  0.00    +0.000 C 
ATOM     18  C   UNL     1      62.936  66.503  71.124  0.00  0.00    +0.000 C 
ATOM     19  C   UNL     1      63.625  66.188  70.797  0.00  0.00    +0.000 A 
ATOM     20  C   UNL     1      64.270  66.678  70.643  0.00  0.00    +0.000 A 
ATOM     21  C   UNL     1      64.959  66.363  70.315  0.00  0.00    +0.000 A 
ATOM     22  C   UNL     1      65.003  65.558  70.141  0.00  0.00    +0.000 A 
ATOM     23  C   UNL     1      64.357  65.068  70.295  0.00  0.00    +0.000 A 
ATOM     24  C   UNL     1      63.669  65.382  70.623  0.00  0.00    +0.000 A 
ATOM     25  C   UNL     1      61.688  64.717  71.258  0.00  0.00    +0.000 A 
ATOM     26  C   UNL     1      62.334  65.207  71.104  0.00  0.00    +0.000 A 
ATOM     27  C   UNL     1      63.023  64.892  70.776  0.00  0.00    +0.000 A 
ATOM     28  C   UNL     1      63.066  64.086  70.602  0.00  0.00    +0.000 A 
ATOM     29  C   UNL     1      62.421  63.596  70.756  0.00  0.00    +0.000 A 
ATOM     30  C   UNL     1      61.732  63.911  71.083  0.00  0.00    +0.000 A 
ATOM     31  S   UNL     1      61.087  63.421  71.237  0.00  0.00    +0.000 S 
ATOM     32  O   UNL     1      61.486  62.758  70.953  0.00  0.00    +0.000 OA
ATOM     33  O   UNL     1      60.764  62.663  71.214  0.00  0.00    +0.000 OA
ENDROOT
TORSDOF 0
ENDMDL
MODEL 6
REMARK VINA RESULT:   -13.911      3.385      5.032
REMARK INTER + INTRA:         -13.911
REMARK INTER:                 -13.911
REMARK INTRA:                   0.000
REMARK UNBOUND:                 0.000
ROOT
REMARK  Name = cinnoxicam
REMARK                            x       y       z     vdW  Elec       q    Type
REMARK                         _______ _______ _______ _____ _____    ______ ____
ATOM      1  C   UNL     1      59.735  64.711  68.693  0.00  0.00    +0.000 C 
ATOM      2  N   UNL     1      60.057  64.268  69.310  0.00  0.00    +0.000 N 
ATOM      3  C   UNL     1      60.130  64.602  70.063  0.00  0.00    +0.000 C 
ATOM      4  C   UNL     1      59.880  65.377  70.195  0.00  0.00    +0.000 C 
ATOM      5  O   UNL     1      59.558  65.820  69.578  0.00  0.00    +0.000 OA
ATOM      6  N   UNL     1      59.953  65.710  70.947  0.00  0.00    +0.000 NA
ATOM      7  C   UNL     1      59.703  66.486  71.080  0.00  0.00    +0.000 A 
ATOM      8  C   UNL     1      59.775  66.819  71.830  0.00  0.00    +0.000 A 
ATOM      9  C   UNL     1      59.526  67.594  71.964  0.00  0.00    +0.000 A 
ATOM     10  C   UNL     1      59.204  68.035  71.346  0.00  0.00    +0.000 A 
ATOM     11  C   UNL     1      59.132  67.702  70.596  0.00  0.00    +0.000 A 
ATOM     12  N   UNL     1      59.381  66.927  70.462  0.00  0.00    +0.000 NA
ATOM     13  C   UNL     1      60.451  64.160  70.680  0.00  0.00    +0.000 C 
ATOM     14  O   UNL     1      60.524  64.494  71.431  0.00  0.00    +0.000 OA
ATOM     15  C   UNL     1      60.846  64.052  72.049  0.00  0.00    +0.000 C 
ATOM     16  O   UNL     1      60.918  64.385  72.800  0.00  0.00    +0.000 OA
ATOM     17  C   UNL     1      61.095  63.277  71.916  0.00  0.00    +0.000 C 
ATOM     18  C   UNL     1      61.417  62.835  72.534  0.00  0.00    +0.000 C 
ATOM     19  C   UNL     1      61.667  62.060  72.400  0.00  0.00    +0.000 A 
ATOM     20  C   UNL     1      61.988  61.618  73.018  0.00  0.00    +0.000 A 
ATOM     21  C   UNL     1      62.238  60.843  72.885  0.00  0.00    +0.000 A 
ATOM     22  C   UNL     1      62.165  60.510  72.133  0.00  0.00    +0.000 A 
ATOM     23  C   UNL     1      61.843  60.952  71.516  0.00  0.00    +0.000 A 
ATOM     24  C   UNL     1      61.594  61.727  71.649  0.00  0.00    +0.000 A 
ATOM     25  C   UNL     1      60.701  63.386  70.547  0.00  0.00    +0.000 A 
ATOM     26  C   UNL     1      61.023  62.943  71.164  0.00  0.00    +0.000 A 
ATOM     27  C   UNL     1      61.272  62.169  71.031  0.00  0.00    +0.000 A 
ATOM     28  C   UNL     1      61.199  61.835  70.279  0.00  0.00    +0.000 A 
ATOM     29  C   UNL     1      60.878  62.277  69.662  0.00  0.00    +0.000 A 
ATOM     30  C   UNL     1      60.628  63.052  69.795  0.00  0.00    +0.000 A 
ATOM     31  S   UNL     1      60.306  63.494  69.177  0.00  0.00    +0.000 S 
ATOM     32  O   UNL     1      60.397  62.870  68.646  0.00  0.00    +0.000 OA
ATOM     33  O   UNL     1      60.088  63.530  68.383  0.00  0.00    +0.000 OA
ENDROOT
TORSDOF 0
ENDMDL
MODEL 7
REMARK VINA RESULT:   -13.712      1.683      4.615
REMARK INTER + INTRA:         -13.712
REMARK INTER:                 -13.712
REMARK INTRA:                   0.000
REMARK UNBOUND:                 0.000
ROOT
REMARK  Name = cinnoxicam
REMARK                            x       y       z     vdW  Elec       q    Type
REMARK                         _______ _______ _______ _____ _____    ______ ____
ATOM      1  C   UNL     1      61.094  67.016  71.523  0.00  0.00    +0.000 C 
ATOM      2  N   UNL     1      61.134  66.405  70.969  0.00  0.00    +0.000 N 
ATOM      3  C   UNL     1      61.868  66.102  70.741  0.00  0.00    +0.000 C 
ATOM      4  C   UNL     1      62.560  66.411  71.068  0.00  0.00    +0.000 C 
ATOM      5  O   UNL     1      62.521  67.021  71.622  0.00  0.00    +0.000 OA
ATOM      6  N   UNL     1      63.293  66.108  70.840  0.00  0.00    +0.000 NA
ATOM      7  C   UNL     1      63.986  66.416  71.166  0.00  0.00    +0.000 A 
ATOM      8  C   UNL     1      64.719  66.114  70.939  0.00  0.00    +0.000 A 
ATOM      9  C   UNL     1      65.411  66.421  71.264  0.00  0.00    +0.000 A 
ATOM     10  C   UNL     1      65.370  67.031  71.818  0.00  0.00    +0.000 A 
ATOM     11  C   UNL     1      64.638  67.333  72.045  0.00  0.00    +0.000 A 
ATOM     12  N   UNL     1      63.945  67.026  71.720  0.00  0.00    +0.000 NA
ATOM     13  C   UNL     1      61.908  65.492  70.188  0.00  0.00    +0.000 C 
ATOM     14  O   UNL     1      62.641  65.190  69.960  0.00  0.00    +0.000 OA
ATOM     15  C   UNL     1      62.682  64.580  69.407  0.00  0.00    +0.000 C 
ATOM     16  O   UNL     1      63.414  64.277  69.180  0.00  0.00    +0.000 OA
ATOM     17  C   UNL     1      61.989  64.272  69.081  0.00  0.00    +0.000 C 
ATOM     18  C   UNL     1      62.030  63.662  68.527  0.00  0.00    +0.000 C 
ATOM     19  C   UNL     1      61.337  63.354  68.201  0.00  0.00    +0.000 A 
ATOM     20  C   UNL     1      61.378  62.743  67.648  0.00  0.00    +0.000 A 
ATOM     21  C   UNL     1      60.684  62.436  67.322  0.00  0.00    +0.000 A 
ATOM     22  C   UNL     1      59.951  62.738  67.549  0.00  0.00    +0.000 A 
ATOM     23  C   UNL     1      59.912  63.349  68.103  0.00  0.00    +0.000 A 
ATOM     24  C   UNL     1      60.604  63.656  68.429  0.00  0.00    +0.000 A 
ATOM     25  C   UNL     1      61.216  65.185  69.862  0.00  0.00    +0.000 A 
ATOM     26  C   UNL     1      61.256  64.574  69.308  0.00  0.00    +0.000 A 
ATOM     27  C   UNL     1      60.564  64.267  68.983  0.00  0.00    +0.000 A 
ATOM     28  C   UNL     1      59.830  64.570  69.211  0.00  0.00    +0.000 A 
ATOM     29  C   UNL     1      59.790  65.179  69.764  0.00  0.00    +0.000 A 
ATOM     30  C   UNL     1      60.482  65.488  70.090  0.00  0.00    +0.000 A 
ATOM     31  S   UNL     1      60.442  66.098  70.643  0.00  0.00    +0.000 S 
ATOM     32  O   UNL     1      59.619  66.116  70.606  0.00  0.00    +0.000 OA
ATOM     33  O   UNL     1      59.972  66.613  71.083  0.00  0.00    +0.000 OA
ENDROOT
TORSDOF 0
ENDMDL
MODEL 8
REMARK VINA RESULT:   -12.767      2.290      3.014
REMARK INTER + INTRA:         -12.767
REMARK INTER:                 -12.767
REMARK INTRA:                   0.000
REMARK UNBOUND:                 0.000
ROOT
REMARK  Name = cinnoxicam
REMARK                            x       y       z     vdW  Elec       q    Type
REMARK                         _______ _______ _______ _____ _____    ______ ____
ATOM      1  C   UNL     1      59.214  65.934  68.554  0.00  0.00    +0.000 C 
ATOM      2  N   UNL     1      59.743  66.069  69.172  0.00  0.00    +0.000 N 
ATOM      3  C   UNL     1      60.214  65.452  69.455  0.00  0.00    +0.000 C 
ATOM      4  C   UNL     1      60.154  64.701  69.119  0.00  0.00    +0.000 C 
ATOM      5  O   UNL     1      59.625  64.565  68.500  0.00  0.00    +0.000 OA
ATOM      6  N   UNL     1      60.623  64.084  69.401  0.00  0.00    +0.000 NA
ATOM      7  C   UNL     1      60.564  63.332  69.065  0.00  0.00    +0.000 A 
ATOM      8  C   UNL     1      61.033  62.716  69.348  0.00  0.00    +0.000 A 
ATOM      9  C   UNL     1      60.974  61.965  69.012  0.00  0.00    +0.000 A 
ATOM     10  C   UNL     1      60.445  61.831  68.394  0.00  0.00    +0.000 A 
ATOM     11  C   UNL     1      59.976  62.447  68.112  0.00  0.00    +0.000 A 
ATOM     12  N   UNL     1      60.035  63.198  68.447  0.00  0.00    +0.000 NA
ATOM     13  C   UNL     1      60.742  65.586  70.073  0.00  0.00    +0.000 C 
ATOM     14  O   UNL     1      61.212  64.970  70.356  0.00  0.00    +0.000 OA
ATOM     15  C   UNL     1      61.741  65.104  70.974  0.00  0.00    +0.000 C 
ATOM     16  O   UNL     1      62.210  64.488  71.256  0.00  0.00    +0.000 OA
ATOM     17  C   UNL     1      61.801  65.855  71.310  0.00  0.00    +0.000 C 
ATOM     18  C   UNL     1      62.330  65.989  71.929  0.00  0.00    +0.000 C 
ATOM     19  C   UNL     1      62.389  66.741  72.265  0.00  0.00    +0.000 A 
ATOM     20  C   UNL     1      62.918  66.875  72.883  0.00  0.00    +0.000 A 
ATOM     21  C   UNL     1      62.978  67.627  73.219  0.00  0.00    +0.000 A 
ATOM     22  C   UNL     1      62.508  68.244  72.936  0.00  0.00    +0.000 A 
ATOM     23  C   UNL     1      61.979  68.108  72.318  0.00  0.00    +0.000 A 
ATOM     24  C   UNL     1      61.920  67.358  71.982  0.00  0.00    +0.000 A 
ATOM     25  C   UNL     1      60.802  66.337  70.409  0.00  0.00    +0.000 A 
ATOM     26  C   UNL     1      61.331  66.472  71.028  0.00  0.00    +0.000 A 
ATOM     27  C   UNL     1      61.390  67.223  71.363  0.00  0.00    +0.000 A 
ATOM     28  C   UNL     1      60.920  67.840  71.080  0.00  0.00    +0.000 A 
ATOM     29  C   UNL     1      60.392  67.705  70.462  0.00  0.00    +0.000 A 
ATOM     30  C   UNL     1      60.332  66.954  70.126  0.00  0.00    +0.000 A 
ATOM     31  S   UNL     1      59.803  66.820  69.508  0.00  0.00    +0.000 S 
ATOM     32  O   UNL     1      59.548  67.603  69.517  0.00  0.00    +0.000 OA
ATOM     33  O   UNL     1      59.229  67.124  69.000  0.00  0.00    +0.000 OA
ENDROOT
TORSDOF 0
ENDMDL
MODEL 9
REMARK VINA RESULT:   -12.646     24.276     26.227
REMARK INTER + INTRA:         -12.646
REMARK INTER:                 -12.646
REMARK INTRA:                   0.000
REMARK UNBOUND:                 0.000
ROOT
REMARK  Name = cinnoxicam
REMARK                            x       y       z     vdW  Elec       q    Type
REMARK                         _______ _______ _______ _____ _____    ______ ____
ATOM      1  C   UNL     1      71.766  82.163  53.117  0.00  0.00    +0.000 C 
ATOM      2  N   UNL     1      71.591  81.653  52.493  0.00  0.00    +0.000 N 
ATOM      3  C   UNL     1      70.838  81.319  52.430  0.00  0.00    +0.000 C 
ATOM      4  C   UNL     1      70.261  81.497  52.993  0.00  0.00    +0.000 C 
ATOM      5  O   UNL     1      70.436  82.007  53.618  0.00  0.00    +0.000 OA
ATOM      6  N   UNL     1      69.509  81.164  52.931  0.00  0.00    +0.000 NA
ATOM      7  C   UNL     1      68.931  81.341  53.494  0.00  0.00    +0.000 A 
ATOM      8  C   UNL     1      68.180  81.009  53.432  0.00  0.00    +0.000 A 
ATOM      9  C   UNL     1      67.603  81.185  53.994  0.00  0.00    +0.000 A 
ATOM     10  C   UNL     1      67.778  81.695  54.618  0.00  0.00    +0.000 A 
ATOM     11  C   UNL     1      68.530  82.028  54.680  0.00  0.00    +0.000 A 
ATOM     12  N   UNL     1      69.107  81.851  54.118  0.00  0.00    +0.000 NA
ATOM     13  C   UNL     1      70.663  80.810  51.807  0.00  0.00    +0.000 C 
ATOM     14  O   UNL     1      69.911  80.477  51.744  0.00  0.00    +0.000 OA
ATOM     15  C   UNL     1      69.735  79.967  51.120  0.00  0.00    +0.000 C 
ATOM     16  O   UNL     1      68.984  79.635  51.058  0.00  0.00    +0.000 OA
ATOM     17  C   UNL     1      70.313  79.790  50.558  0.00  0.00    +0.000 C 
ATOM     18  C   UNL     1      70.137  79.280  49.934  0.00  0.00    +0.000 C 
ATOM     19  C   UNL     1      70.715  79.103  49.371  0.00  0.00    +0.000 A 
ATOM     20  C   UNL     1      70.539  78.593  48.747  0.00  0.00    +0.000 A 
ATOM     21  C   UNL     1      71.116  78.416  48.184  0.00  0.00    +0.000 A 
ATOM     22  C   UNL     1      71.869  78.749  48.246  0.00  0.00    +0.000 A 
ATOM     23  C   UNL     1      72.043  79.259  48.871  0.00  0.00    +0.000 A 
ATOM     24  C   UNL     1      71.467  79.436  49.433  0.00  0.00    +0.000 A 
ATOM     25  C   UNL     1      71.240  80.633  51.244  0.00  0.00    +0.000 A 
ATOM     26  C   UNL     1      71.065  80.123  50.620  0.00  0.00    +0.000 A 
ATOM     27  C   UNL     1      71.641  79.946  50.058  0.00  0.00    +0.000 A 
ATOM     28  C   UNL     1      72.395  80.279  50.120  0.00  0.00    +0.000 A 
ATOM     29  C   UNL     1      72.570  80.789  50.744  0.00  0.00    +0.000 A 
ATOM     30  C   UNL     1      71.993  80.966  51.307  0.00  0.00    +0.000 A 
ATOM     31  S   UNL     1      72.168  81.476  51.931  0.00  0.00    +0.000 S 
ATOM     32  O   UNL     1      72.940  81.583  51.664  0.00  0.00    +0.000 OA
ATOM     33  O   UNL     1      72.723  81.955  52.307  0.00  0.00    +0.000 OA
ENDROOT
TORSDOF 0
ENDMDL
