MODEL 1
REMARK VINA RESULT:   -10.070      0.000      0.000
REMARK INTER + INTRA:         -10.070
REMARK INTER:                 -10.070
REMARK INTRA:                   0.000
REMARK UNBOUND:                 0.000
ROOT
REMARK  Name = ciprofibrate
REMARK                            x       y       z     vdW  Elec       q    Type
REMARK                         _______ _______ _______ _____ _____    ______ ____
ATOM      1  C   UNL     1      61.629  63.281  67.909  0.00  0.00    +0.000 C 
ATOM      2  C   UNL     1      61.005  63.286  68.449  0.00  0.00    +0.000 C 
ATOM      3  C   UNL     1      60.381  63.290  68.989  0.00  0.00    +0.000 C 
ATOM      4  O   UNL     1      60.542  62.857  67.918  0.00  0.00    +0.000 OA
ATOM      5  C   UNL     1      60.851  62.639  67.185  0.00  0.00    +0.000 A 
ATOM      6  C   UNL     1      61.622  62.849  66.983  0.00  0.00    +0.000 A 
ATOM      7  C   UNL     1      61.931  62.631  66.249  0.00  0.00    +0.000 A 
ATOM      8  C   UNL     1      61.468  62.202  65.718  0.00  0.00    +0.000 A 
ATOM      9  C   UNL     1      60.695  61.992  65.920  0.00  0.00    +0.000 A 
ATOM     10  C   UNL     1      60.388  62.210  66.653  0.00  0.00    +0.000 A 
ATOM     11  C   UNL     1      61.776  61.984  64.984  0.00  0.00    +0.000 C 
ATOM     12  C   UNL     1      62.399  61.979  64.444  0.00  0.00    +0.000 C 
ATOM     13  C   UNL     1      61.686  61.611  64.255  0.00  0.00    +0.000 C 
ATOM     14 CL   UNL     1      61.665  61.257  63.509  0.00  0.00    +0.000 Cl
ATOM     15 CL   UNL     1      60.949  61.262  64.129  0.00  0.00    +0.000 Cl
ATOM     16  C   UNL     1      61.468  63.714  68.981  0.00  0.00    +0.000 C 
ATOM     17  O   UNL     1      61.160  63.933  69.714  0.00  0.00    +0.000 OA
ATOM     18  O   UNL     1      62.241  63.925  68.779  0.00  0.00    +0.000 OA
ENDROOT
TORSDOF 0
ENDMDL
MODEL 2
REMARK VINA RESULT:    -9.663      2.587      4.088
REMARK INTER + INTRA:          -9.663
REMARK INTER:                  -9.663
REMARK INTRA:                   0.000
REMARK UNBOUND:                 0.000
ROOT
REMARK  Name = ciprofibrate
REMARK                            x       y       z     vdW  Elec       q    Type
REMARK                         _______ _______ _______ _____ _____    ______ ____
ATOM      1  C   UNL     1      61.898  62.115  65.165  0.00  0.00    +0.000 C 
ATOM      2  C   UNL     1      61.438  61.665  64.648  0.00  0.00    +0.000 C 
ATOM      3  C   UNL     1      60.978  61.216  64.131  0.00  0.00    +0.000 C 
ATOM      4  O   UNL     1      60.833  61.642  65.208  0.00  0.00    +0.000 OA
ATOM      5  C   UNL     1      60.929  62.019  65.936  0.00  0.00    +0.000 A 
ATOM      6  C   UNL     1      61.630  62.420  66.103  0.00  0.00    +0.000 A 
ATOM      7  C   UNL     1      61.726  62.797  66.831  0.00  0.00    +0.000 A 
ATOM      8  C   UNL     1      61.121  62.773  67.391  0.00  0.00    +0.000 A 
ATOM      9  C   UNL     1      60.419  62.372  67.223  0.00  0.00    +0.000 A 
ATOM     10  C   UNL     1      60.324  61.995  66.496  0.00  0.00    +0.000 A 
ATOM     11  C   UNL     1      61.216  63.150  68.118  0.00  0.00    +0.000 C 
ATOM     12  C   UNL     1      61.676  63.599  68.635  0.00  0.00    +0.000 C 
ATOM     13  C   UNL     1      60.922  63.353  68.861  0.00  0.00    +0.000 C 
ATOM     14 CL   UNL     1      60.690  63.592  69.617  0.00  0.00    +0.000 Cl
ATOM     15 CL   UNL     1      60.162  63.076  69.024  0.00  0.00    +0.000 Cl
ATOM     16  C   UNL     1      62.044  61.689  64.088  0.00  0.00    +0.000 C 
ATOM     17  O   UNL     1      61.949  61.313  63.361  0.00  0.00    +0.000 OA
ATOM     18  O   UNL     1      62.746  62.091  64.256  0.00  0.00    +0.000 OA
ENDROOT
TORSDOF 0
ENDMDL
MODEL 3
REMARK VINA RESULT:    -9.286      4.794      6.302
REMARK INTER + INTRA:          -9.286
REMARK INTER:                  -9.286
REMARK INTRA:                   0.000
REMARK UNBOUND:                 0.000
ROOT
REMARK  Name = ciprofibrate
REMARK                            x       y       z     vdW  Elec       q    Type
REMARK                         _______ _______ _______ _____ _____    ______ ____
ATOM      1  C   UNL     1      63.077  64.472  70.704  0.00  0.00    +0.000 C 
ATOM      2  C   UNL     1      62.643  64.184  70.065  0.00  0.00    +0.000 C 
ATOM      3  C   UNL     1      62.209  63.896  69.425  0.00  0.00    +0.000 C 
ATOM      4  O   UNL     1      63.073  64.669  69.555  0.00  0.00    +0.000 OA
ATOM      5  C   UNL     1      63.664  65.161  69.854  0.00  0.00    +0.000 A 
ATOM      6  C   UNL     1      63.825  65.168  70.663  0.00  0.00    +0.000 A 
ATOM      7  C   UNL     1      64.415  65.660  70.963  0.00  0.00    +0.000 A 
ATOM      8  C   UNL     1      64.845  66.145  70.453  0.00  0.00    +0.000 A 
ATOM      9  C   UNL     1      64.684  66.139  69.643  0.00  0.00    +0.000 A 
ATOM     10  C   UNL     1      64.093  65.647  69.344  0.00  0.00    +0.000 A 
ATOM     11  C   UNL     1      65.436  66.638  70.751  0.00  0.00    +0.000 C 
ATOM     12  C   UNL     1      65.870  66.925  71.391  0.00  0.00    +0.000 C 
ATOM     13  C   UNL     1      66.025  67.201  70.629  0.00  0.00    +0.000 C 
ATOM     14 CL   UNL     1      66.627  67.765  70.579  0.00  0.00    +0.000 Cl
ATOM     15 CL   UNL     1      66.128  67.434  69.844  0.00  0.00    +0.000 Cl
ATOM     16  C   UNL     1      62.213  63.698  70.575  0.00  0.00    +0.000 C 
ATOM     17  O   UNL     1      61.622  63.206  70.276  0.00  0.00    +0.000 OA
ATOM     18  O   UNL     1      62.374  63.705  71.385  0.00  0.00    +0.000 OA
ENDROOT
TORSDOF 0
ENDMDL
MODEL 4
REMARK VINA RESULT:    -8.974      1.479      2.233
REMARK INTER + INTRA:          -8.974
REMARK INTER:                  -8.974
REMARK INTRA:                   0.000
REMARK UNBOUND:                 0.000
ROOT
REMARK  Name = ciprofibrate
REMARK                            x       y       z     vdW  Elec       q    Type
REMARK                         _______ _______ _______ _____ _____    ______ ____
ATOM      1  C   UNL     1      62.155  63.854  69.116  0.00  0.00    +0.000 C 
ATOM      2  C   UNL     1      61.917  64.129  69.856  0.00  0.00    +0.000 C 
ATOM      3  C   UNL     1      61.679  64.404  70.597  0.00  0.00    +0.000 C 
ATOM      4  O   UNL     1      61.142  63.900  69.692  0.00  0.00    +0.000 OA
ATOM      5  C   UNL     1      60.961  63.547  68.968  0.00  0.00    +0.000 A 
ATOM      6  C   UNL     1      61.555  63.424  68.409  0.00  0.00    +0.000 A 
ATOM      7  C   UNL     1      61.374  63.071  67.685  0.00  0.00    +0.000 A 
ATOM      8  C   UNL     1      60.599  62.843  67.520  0.00  0.00    +0.000 A 
ATOM      9  C   UNL     1      60.004  62.966  68.080  0.00  0.00    +0.000 A 
ATOM     10  C   UNL     1      60.186  63.319  68.803  0.00  0.00    +0.000 A 
ATOM     11  C   UNL     1      60.417  62.490  66.797  0.00  0.00    +0.000 C 
ATOM     12  C   UNL     1      60.655  62.215  66.057  0.00  0.00    +0.000 C 
ATOM     13  C   UNL     1      59.865  62.155  66.285  0.00  0.00    +0.000 C 
ATOM     14 CL   UNL     1      59.366  61.810  65.724  0.00  0.00    +0.000 Cl
ATOM     15 CL   UNL     1      59.093  62.125  66.574  0.00  0.00    +0.000 Cl
ATOM     16  C   UNL     1      62.692  64.357  70.021  0.00  0.00    +0.000 C 
ATOM     17  O   UNL     1      62.874  64.710  70.744  0.00  0.00    +0.000 OA
ATOM     18  O   UNL     1      63.287  64.233  69.462  0.00  0.00    +0.000 OA
ENDROOT
TORSDOF 0
ENDMDL
MODEL 5
REMARK VINA RESULT:    -8.811      5.248      5.883
REMARK INTER + INTRA:          -8.811
REMARK INTER:                  -8.811
REMARK INTRA:                   0.000
REMARK UNBOUND:                 0.000
ROOT
REMARK  Name = ciprofibrate
REMARK                            x       y       z     vdW  Elec       q    Type
REMARK                         _______ _______ _______ _____ _____    ______ ____
ATOM      1  C   UNL     1      60.076  65.167  70.267  0.00  0.00    +0.000 C 
ATOM      2  C   UNL     1      59.884  65.929  70.520  0.00  0.00    +0.000 C 
ATOM      3  C   UNL     1      59.693  66.691  70.773  0.00  0.00    +0.000 C 
ATOM      4  O   UNL     1      60.147  65.743  71.280  0.00  0.00    +0.000 OA
ATOM      5  C   UNL     1      60.444  64.990  71.440  0.00  0.00    +0.000 A 
ATOM      6  C   UNL     1      60.479  64.424  70.842  0.00  0.00    +0.000 A 
ATOM      7  C   UNL     1      60.776  63.671  71.002  0.00  0.00    +0.000 A 
ATOM      8  C   UNL     1      61.038  63.485  71.762  0.00  0.00    +0.000 A 
ATOM      9  C   UNL     1      61.004  64.052  72.361  0.00  0.00    +0.000 A 
ATOM     10  C   UNL     1      60.707  64.804  72.200  0.00  0.00    +0.000 A 
ATOM     11  C   UNL     1      61.336  62.733  71.924  0.00  0.00    +0.000 C 
ATOM     12  C   UNL     1      61.527  61.971  71.671  0.00  0.00    +0.000 C 
ATOM     13  C   UNL     1      61.659  62.191  72.455  0.00  0.00    +0.000 C 
ATOM     14 CL   UNL     1      61.984  61.601  72.932  0.00  0.00    +0.000 Cl
ATOM     15 CL   UNL     1      61.764  62.476  73.222  0.00  0.00    +0.000 Cl
ATOM     16  C   UNL     1      59.622  66.115  69.760  0.00  0.00    +0.000 C 
ATOM     17  O   UNL     1      59.324  66.867  69.599  0.00  0.00    +0.000 OA
ATOM     18  O   UNL     1      59.656  65.548  69.161  0.00  0.00    +0.000 OA
ENDROOT
TORSDOF 0
ENDMDL
MODEL 6
REMARK VINA RESULT:    -8.800      5.143      6.300
REMARK INTER + INTRA:          -8.800
REMARK INTER:                  -8.800
REMARK INTRA:                   0.000
REMARK UNBOUND:                 0.000
ROOT
REMARK  Name = ciprofibrate
REMARK                            x       y       z     vdW  Elec       q    Type
REMARK                         _______ _______ _______ _____ _____    ______ ____
ATOM      1  C   UNL     1      64.196  66.204  70.902  0.00  0.00    +0.000 C 
ATOM      2  C   UNL     1      64.596  66.185  70.181  0.00  0.00    +0.000 C 
ATOM      3  C   UNL     1      64.997  66.165  69.460  0.00  0.00    +0.000 C 
ATOM      4  O   UNL     1      64.194  65.494  69.977  0.00  0.00    +0.000 OA
ATOM      5  C   UNL     1      63.647  65.166  70.500  0.00  0.00    +0.000 A 
ATOM      6  C   UNL     1      63.501  65.528  71.226  0.00  0.00    +0.000 A 
ATOM      7  C   UNL     1      62.953  65.200  71.749  0.00  0.00    +0.000 A 
ATOM      8  C   UNL     1      62.551  64.509  71.544  0.00  0.00    +0.000 A 
ATOM      9  C   UNL     1      62.697  64.146  70.817  0.00  0.00    +0.000 A 
ATOM     10  C   UNL     1      63.244  64.475  70.295  0.00  0.00    +0.000 A 
ATOM     11  C   UNL     1      62.003  64.180  72.066  0.00  0.00    +0.000 C 
ATOM     12  C   UNL     1      61.603  64.200  72.787  0.00  0.00    +0.000 C 
ATOM     13  C   UNL     1      61.456  63.592  72.249  0.00  0.00    +0.000 C 
ATOM     14 CL   UNL     1      60.896  63.037  72.496  0.00  0.00    +0.000 Cl
ATOM     15 CL   UNL     1      61.356  63.015  71.668  0.00  0.00    +0.000 Cl
ATOM     16  C   UNL     1      64.998  66.876  70.386  0.00  0.00    +0.000 C 
ATOM     17  O   UNL     1      65.546  67.205  69.864  0.00  0.00    +0.000 OA
ATOM     18  O   UNL     1      64.853  67.238  71.113  0.00  0.00    +0.000 OA
ENDROOT
TORSDOF 0
ENDMDL
MODEL 7
REMARK VINA RESULT:    -8.541      4.300      5.526
REMARK INTER + INTRA:          -8.541
REMARK INTER:                  -8.541
REMARK INTRA:                   0.000
REMARK UNBOUND:                 0.000
ROOT
REMARK  Name = ciprofibrate
REMARK                            x       y       z     vdW  Elec       q    Type
REMARK                         _______ _______ _______ _____ _____    ______ ____
ATOM      1  C   UNL     1      62.354  65.401  71.629  0.00  0.00    +0.000 C 
ATOM      2  C   UNL     1      62.369  65.766  72.368  0.00  0.00    +0.000 C 
ATOM      3  C   UNL     1      62.384  66.131  73.108  0.00  0.00    +0.000 C 
ATOM      4  O   UNL     1      61.907  65.157  72.679  0.00  0.00    +0.000 OA
ATOM      5  C   UNL     1      61.663  64.536  72.193  0.00  0.00    +0.000 A 
ATOM      6  C   UNL     1      61.881  64.524  71.397  0.00  0.00    +0.000 A 
ATOM      7  C   UNL     1      61.637  63.904  70.911  0.00  0.00    +0.000 A 
ATOM      8  C   UNL     1      61.175  63.294  71.222  0.00  0.00    +0.000 A 
ATOM      9  C   UNL     1      60.957  63.306  72.018  0.00  0.00    +0.000 A 
ATOM     10  C   UNL     1      61.202  63.927  72.503  0.00  0.00    +0.000 A 
ATOM     11  C   UNL     1      60.931  62.673  70.737  0.00  0.00    +0.000 C 
ATOM     12  C   UNL     1      60.916  62.308  69.997  0.00  0.00    +0.000 C 
ATOM     13  C   UNL     1      60.524  61.964  70.636  0.00  0.00    +0.000 C 
ATOM     14 CL   UNL     1      60.137  61.255  70.465  0.00  0.00    +0.000 Cl
ATOM     15 CL   UNL     1      60.154  61.674  71.314  0.00  0.00    +0.000 Cl
ATOM     16  C   UNL     1      62.831  66.375  72.058  0.00  0.00    +0.000 C 
ATOM     17  O   UNL     1      63.075  66.996  72.543  0.00  0.00    +0.000 OA
ATOM     18  O   UNL     1      63.049  66.364  71.262  0.00  0.00    +0.000 OA
ENDROOT
TORSDOF 0
ENDMDL
MODEL 8
REMARK VINA RESULT:    -8.402     24.521     25.383
REMARK INTER + INTRA:          -8.402
REMARK INTER:                  -8.402
REMARK INTRA:                   0.000
REMARK UNBOUND:                 0.000
ROOT
REMARK  Name = ciprofibrate
REMARK                            x       y       z     vdW  Elec       q    Type
REMARK                         _______ _______ _______ _____ _____    ______ ____
ATOM      1  C   UNL     1      68.938  79.996  50.989  0.00  0.00    +0.000 C 
ATOM      2  C   UNL     1      68.919  80.465  51.667  0.00  0.00    +0.000 C 
ATOM      3  C   UNL     1      68.900  80.934  52.346  0.00  0.00    +0.000 C 
ATOM      4  O   UNL     1      69.736  80.567  51.619  0.00  0.00    +0.000 OA
ATOM      5  C   UNL     1      70.161  80.212  51.007  0.00  0.00    +0.000 A 
ATOM      6  C   UNL     1      69.769  79.755  50.444  0.00  0.00    +0.000 A 
ATOM      7  C   UNL     1      70.193  79.400  49.832  0.00  0.00    +0.000 A 
ATOM      8  C   UNL     1      71.010  79.502  49.783  0.00  0.00    +0.000 A 
ATOM      9  C   UNL     1      71.403  79.960  50.347  0.00  0.00    +0.000 A 
ATOM     10  C   UNL     1      70.978  80.314  50.959  0.00  0.00    +0.000 A 
ATOM     11  C   UNL     1      71.435  79.148  49.172  0.00  0.00    +0.000 C 
ATOM     12  C   UNL     1      71.454  78.679  48.493  0.00  0.00    +0.000 C 
ATOM     13  C   UNL     1      72.152  79.002  48.791  0.00  0.00    +0.000 C 
ATOM     14 CL   UNL     1      72.832  78.816  48.362  0.00  0.00    +0.000 Cl
ATOM     15 CL   UNL     1      72.811  79.355  49.141  0.00  0.00    +0.000 Cl
ATOM     16  C   UNL     1      68.102  80.363  51.715  0.00  0.00    +0.000 C 
ATOM     17  O   UNL     1      67.677  80.717  52.327  0.00  0.00    +0.000 OA
ATOM     18  O   UNL     1      67.709  79.906  51.151  0.00  0.00    +0.000 OA
ENDROOT
TORSDOF 0
ENDMDL
MODEL 9
REMARK VINA RESULT:    -8.198     24.756     25.819
REMARK INTER + INTRA:          -8.198
REMARK INTER:                  -8.198
REMARK INTRA:                   0.000
REMARK UNBOUND:                 0.000
ROOT
REMARK  Name = ciprofibrate
REMARK                            x       y       z     vdW  Elec       q    Type
REMARK                         _______ _______ _______ _____ _____    ______ ____
ATOM      1  C   UNL     1      71.219  79.198  49.172  0.00  0.00    +0.000 C 
ATOM      2  C   UNL     1      72.028  79.355  49.211  0.00  0.00    +0.000 C 
ATOM      3  C   UNL     1      72.837  79.512  49.249  0.00  0.00    +0.000 C 
ATOM      4  O   UNL     1      71.909  79.801  49.894  0.00  0.00    +0.000 OA
ATOM      5  C   UNL     1      71.149  79.887  50.203  0.00  0.00    +0.000 A 
ATOM      6  C   UNL     1      70.508  79.528  49.828  0.00  0.00    +0.000 A 
ATOM      7  C   UNL     1      69.747  79.615  50.136  0.00  0.00    +0.000 A 
ATOM      8  C   UNL     1      69.628  80.061  50.820  0.00  0.00    +0.000 A 
ATOM      9  C   UNL     1      70.270  80.420  51.196  0.00  0.00    +0.000 A 
ATOM     10  C   UNL     1      71.030  80.333  50.886  0.00  0.00    +0.000 A 
ATOM     11  C   UNL     1      68.869  80.148  51.129  0.00  0.00    +0.000 C 
ATOM     12  C   UNL     1      68.060  79.991  51.091  0.00  0.00    +0.000 C 
ATOM     13  C   UNL     1      68.362  80.455  51.702  0.00  0.00    +0.000 C 
ATOM     14 CL   UNL     1      67.799  80.730  52.240  0.00  0.00    +0.000 Cl
ATOM     15 CL   UNL     1      68.728  80.911  52.284  0.00  0.00    +0.000 Cl
ATOM     16  C   UNL     1      72.147  78.909  48.527  0.00  0.00    +0.000 C 
ATOM     17  O   UNL     1      72.907  78.822  48.218  0.00  0.00    +0.000 OA
ATOM     18  O   UNL     1      71.506  78.549  48.151  0.00  0.00    +0.000 OA
ENDROOT
TORSDOF 0
ENDMDL
