MODEL 1
REMARK VINA RESULT:   -16.152      0.000      0.000
REMARK INTER + INTRA:         -16.152
REMARK INTER:                 -16.152
REMARK INTRA:                   0.000
REMARK UNBOUND:                 0.000
ROOT
REMARK  Name = cisatracurium
REMARK                            x       y       z     vdW  Elec       q    Type
REMARK                         _______ _______ _______ _____ _____    ______ ____
ATOM      1  C   UNL     1      81.629  78.979  55.504  0.00  0.00    +0.000 C 
ATOM      2  O   UNL     1      81.507  79.049  54.690  0.00  0.00    +0.000 OA
ATOM      3  C   UNL     1      81.453  78.374  54.221  0.00  0.00    +0.000 A 
ATOM      4  C   UNL     1      81.331  78.445  53.408  0.00  0.00    +0.000 A 
ATOM      5  O   UNL     1      81.265  79.192  53.064  0.00  0.00    +0.000 OA
ATOM      6  C   UNL     1      81.319  79.868  53.534  0.00  0.00    +0.000 C 
ATOM      7  C   UNL     1      81.277  77.769  52.939  0.00  0.00    +0.000 A 
ATOM      8  C   UNL     1      81.343  77.022  53.281  0.00  0.00    +0.000 A 
ATOM      9  C   UNL     1      81.289  76.346  52.812  0.00  0.00    +0.000 C 
ATOM     10  C   UNL     1      81.167  76.417  51.998  0.00  0.00    +0.000 C 
ATOM     11  C   UNL     1      81.100  77.164  51.655  0.00  0.00    +0.000 A 
ATOM     12  C   UNL     1      81.155  77.841  52.125  0.00  0.00    +0.000 A 
ATOM     13  C   UNL     1      81.088  78.587  51.782  0.00  0.00    +0.000 A 
ATOM     14  O   UNL     1      81.143  79.263  52.252  0.00  0.00    +0.000 OA
ATOM     15  C   UNL     1      81.076  80.011  51.908  0.00  0.00    +0.000 C 
ATOM     16  C   UNL     1      80.967  78.658  50.969  0.00  0.00    +0.000 A 
ATOM     17  O   UNL     1      80.900  79.406  50.626  0.00  0.00    +0.000 OA
ATOM     18  C   UNL     1      80.779  79.477  49.813  0.00  0.00    +0.000 C 
ATOM     19  C   UNL     1      80.912  77.982  50.499  0.00  0.00    +0.000 A 
ATOM     20  C   UNL     1      80.979  77.236  50.842  0.00  0.00    +0.000 A 
ATOM     21  C   UNL     1      80.924  76.560  50.372  0.00  0.00    +0.000 C 
ATOM     22  C   UNL     1      80.991  75.812  50.716  0.00  0.00    +0.000 C 
ATOM     23  N   UNL     1      81.112  75.741  51.529  0.00  0.00    +0.000 N 
ATOM     24  C   UNL     1      81.124  74.917  51.484  0.00  0.00    +0.000 C 
ATOM     25  C   UNL     1      81.219  75.245  52.180  0.00  0.00    +0.000 C 
ATOM     26  C   UNL     1      81.222  74.427  52.079  0.00  0.00    +0.000 C 
ATOM     27  C   UNL     1      81.328  73.930  52.729  0.00  0.00    +0.000 C 
ATOM     28  O   UNL     1      81.432  74.253  53.481  0.00  0.00    +0.000 OA
ATOM     29  O   UNL     1      81.331  73.112  52.628  0.00  0.00    +0.000 OA
ATOM     30  C   UNL     1      81.438  72.616  53.278  0.00  0.00    +0.000 C 
ATOM     31  C   UNL     1      81.440  71.797  53.177  0.00  0.00    +0.000 C 
ATOM     32  C   UNL     1      81.547  71.301  53.828  0.00  0.00    +0.000 C 
ATOM     33  C   UNL     1      81.550  70.483  53.727  0.00  0.00    +0.000 C 
ATOM     34  C   UNL     1      81.656  69.987  54.377  0.00  0.00    +0.000 C 
ATOM     35  O   UNL     1      81.659  69.168  54.276  0.00  0.00    +0.000 OA
ATOM     36  C   UNL     1      81.765  68.672  54.926  0.00  0.00    +0.000 C 
ATOM     37  O   UNL     1      81.869  68.994  55.678  0.00  0.00    +0.000 OA
ATOM     38  C   UNL     1      81.768  67.853  54.825  0.00  0.00    +0.000 C 
ATOM     39  C   UNL     1      81.875  67.358  55.475  0.00  0.00    +0.000 C 
ATOM     40  N   UNL     1      81.877  66.539  55.375  0.00  0.00    +0.000 N 
ATOM     41  C   UNL     1      81.997  66.583  56.189  0.00  0.00    +0.000 C 
ATOM     42  C   UNL     1      81.757  66.779  54.595  0.00  0.00    +0.000 C 
ATOM     43  C   UNL     1      81.681  66.216  53.996  0.00  0.00    +0.000 C 
ATOM     44  C   UNL     1      81.725  65.413  54.178  0.00  0.00    +0.000 A 
ATOM     45  C   UNL     1      81.649  64.850  53.580  0.00  0.00    +0.000 A 
ATOM     46  C   UNL     1      81.693  64.046  53.762  0.00  0.00    +0.000 A 
ATOM     47  O   UNL     1      81.617  63.483  53.163  0.00  0.00    +0.000 OA
ATOM     48  C   UNL     1      81.497  63.723  52.383  0.00  0.00    +0.000 C 
ATOM     49  C   UNL     1      81.813  63.806  54.542  0.00  0.00    +0.000 A 
ATOM     50  O   UNL     1      81.857  63.002  54.723  0.00  0.00    +0.000 OA
ATOM     51  C   UNL     1      81.781  62.439  54.125  0.00  0.00    +0.000 C 
ATOM     52  C   UNL     1      81.889  64.369  55.140  0.00  0.00    +0.000 A 
ATOM     53  C   UNL     1      81.845  65.173  54.957  0.00  0.00    +0.000 A 
ATOM     54  C   UNL     1      81.921  65.735  55.555  0.00  0.00    +0.000 C 
ATOM     55  C   UNL     1      82.042  65.494  56.336  0.00  0.00    +0.000 C 
ATOM     56  C   UNL     1      82.086  64.691  56.518  0.00  0.00    +0.000 A 
ATOM     57  C   UNL     1      82.010  64.128  55.919  0.00  0.00    +0.000 A 
ATOM     58  C   UNL     1      82.054  63.325  56.102  0.00  0.00    +0.000 A 
ATOM     59  O   UNL     1      81.978  62.761  55.503  0.00  0.00    +0.000 OA
ATOM     60  C   UNL     1      82.022  61.958  55.684  0.00  0.00    +0.000 C 
ATOM     61  C   UNL     1      82.174  63.084  56.881  0.00  0.00    +0.000 A 
ATOM     62  O   UNL     1      82.218  62.280  57.063  0.00  0.00    +0.000 OA
ATOM     63  C   UNL     1      82.142  61.717  56.465  0.00  0.00    +0.000 C 
ATOM     64  C   UNL     1      82.250  63.647  57.480  0.00  0.00    +0.000 A 
ATOM     65  C   UNL     1      82.206  64.451  57.297  0.00  0.00    +0.000 A 
ATOM     66  C   UNL     1      81.465  76.950  54.095  0.00  0.00    +0.000 A 
ATOM     67  C   UNL     1      81.519  77.627  54.563  0.00  0.00    +0.000 A 
ENDROOT
TORSDOF 0
ENDMDL
MODEL 2
REMARK VINA RESULT:   -16.017     21.052     24.399
REMARK INTER + INTRA:         -16.017
REMARK INTER:                 -16.017
REMARK INTRA:                   0.000
REMARK UNBOUND:                 0.000
ROOT
REMARK  Name = cisatracurium
REMARK                            x       y       z     vdW  Elec       q    Type
REMARK                         _______ _______ _______ _____ _____    ______ ____
ATOM      1  C   UNL     1      64.124  61.141  54.098  0.00  0.00    +0.000 C 
ATOM      2  O   UNL     1      64.054  61.071  53.278  0.00  0.00    +0.000 OA
ATOM      3  C   UNL     1      63.719  61.682  52.839  0.00  0.00    +0.000 A 
ATOM      4  C   UNL     1      63.648  61.612  52.020  0.00  0.00    +0.000 A 
ATOM      5  O   UNL     1      63.914  60.929  51.640  0.00  0.00    +0.000 OA
ATOM      6  C   UNL     1      64.250  60.317  52.081  0.00  0.00    +0.000 C 
ATOM      7  C   UNL     1      63.313  62.223  51.580  0.00  0.00    +0.000 A 
ATOM      8  C   UNL     1      63.046  62.906  51.959  0.00  0.00    +0.000 A 
ATOM      9  C   UNL     1      62.711  63.517  51.519  0.00  0.00    +0.000 C 
ATOM     10  C   UNL     1      62.641  63.447  50.700  0.00  0.00    +0.000 C 
ATOM     11  C   UNL     1      62.906  62.764  50.321  0.00  0.00    +0.000 A 
ATOM     12  C   UNL     1      63.243  62.152  50.761  0.00  0.00    +0.000 A 
ATOM     13  C   UNL     1      63.509  61.470  50.382  0.00  0.00    +0.000 A 
ATOM     14  O   UNL     1      63.845  60.858  50.822  0.00  0.00    +0.000 OA
ATOM     15  C   UNL     1      64.111  60.175  50.442  0.00  0.00    +0.000 C 
ATOM     16  C   UNL     1      63.439  61.399  49.563  0.00  0.00    +0.000 A 
ATOM     17  O   UNL     1      63.705  60.716  49.184  0.00  0.00    +0.000 OA
ATOM     18  C   UNL     1      63.635  60.645  48.365  0.00  0.00    +0.000 C 
ATOM     19  C   UNL     1      63.103  62.010  49.123  0.00  0.00    +0.000 A 
ATOM     20  C   UNL     1      62.837  62.693  49.502  0.00  0.00    +0.000 A 
ATOM     21  C   UNL     1      62.501  63.304  49.062  0.00  0.00    +0.000 C 
ATOM     22  C   UNL     1      62.235  63.987  49.441  0.00  0.00    +0.000 C 
ATOM     23  N   UNL     1      62.305  64.058  50.261  0.00  0.00    +0.000 N 
ATOM     24  C   UNL     1      61.960  64.808  50.254  0.00  0.00    +0.000 C 
ATOM     25  C   UNL     1      62.180  64.515  50.936  0.00  0.00    +0.000 C 
ATOM     26  C   UNL     1      61.830  65.259  50.873  0.00  0.00    +0.000 C 
ATOM     27  C   UNL     1      61.705  65.716  51.549  0.00  0.00    +0.000 C 
ATOM     28  O   UNL     1      61.930  65.427  52.288  0.00  0.00    +0.000 OA
ATOM     29  O   UNL     1      61.355  66.459  51.485  0.00  0.00    +0.000 OA
ATOM     30  C   UNL     1      61.230  66.916  52.161  0.00  0.00    +0.000 C 
ATOM     31  C   UNL     1      60.881  67.660  52.097  0.00  0.00    +0.000 C 
ATOM     32  C   UNL     1      60.755  68.117  52.773  0.00  0.00    +0.000 C 
ATOM     33  C   UNL     1      60.406  68.861  52.710  0.00  0.00    +0.000 C 
ATOM     34  C   UNL     1      60.281  69.317  53.385  0.00  0.00    +0.000 C 
ATOM     35  O   UNL     1      59.931  70.062  53.322  0.00  0.00    +0.000 OA
ATOM     36  C   UNL     1      59.806  70.519  53.998  0.00  0.00    +0.000 C 
ATOM     37  O   UNL     1      60.031  70.230  54.737  0.00  0.00    +0.000 OA
ATOM     38  C   UNL     1      59.457  71.262  53.934  0.00  0.00    +0.000 C 
ATOM     39  C   UNL     1      59.332  71.718  54.610  0.00  0.00    +0.000 C 
ATOM     40  N   UNL     1      58.982  72.463  54.547  0.00  0.00    +0.000 N 
ATOM     41  C   UNL     1      59.099  72.429  55.362  0.00  0.00    +0.000 C 
ATOM     42  C   UNL     1      58.986  72.239  53.753  0.00  0.00    +0.000 C 
ATOM     43  C   UNL     1      58.680  72.747  53.178  0.00  0.00    +0.000 C 
ATOM     44  C   UNL     1      58.372  73.479  53.398  0.00  0.00    +0.000 A 
ATOM     45  C   UNL     1      58.067  73.987  52.824  0.00  0.00    +0.000 A 
ATOM     46  C   UNL     1      57.758  74.720  53.044  0.00  0.00    +0.000 A 
ATOM     47  O   UNL     1      57.452  75.228  52.469  0.00  0.00    +0.000 OA
ATOM     48  C   UNL     1      57.456  75.003  51.676  0.00  0.00    +0.000 C 
ATOM     49  C   UNL     1      57.754  74.944  53.838  0.00  0.00    +0.000 A 
ATOM     50  O   UNL     1      57.445  75.678  54.057  0.00  0.00    +0.000 OA
ATOM     51  C   UNL     1      57.140  76.185  53.483  0.00  0.00    +0.000 C 
ATOM     52  C   UNL     1      58.059  74.437  54.412  0.00  0.00    +0.000 A 
ATOM     53  C   UNL     1      58.368  73.703  54.192  0.00  0.00    +0.000 A 
ATOM     54  C   UNL     1      58.673  73.196  54.765  0.00  0.00    +0.000 C 
ATOM     55  C   UNL     1      58.669  73.421  55.560  0.00  0.00    +0.000 C 
ATOM     56  C   UNL     1      58.360  74.153  55.779  0.00  0.00    +0.000 A 
ATOM     57  C   UNL     1      58.055  74.661  55.205  0.00  0.00    +0.000 A 
ATOM     58  C   UNL     1      57.746  75.394  55.426  0.00  0.00    +0.000 A 
ATOM     59  O   UNL     1      57.441  75.902  54.851  0.00  0.00    +0.000 OA
ATOM     60  C   UNL     1      57.132  76.635  55.070  0.00  0.00    +0.000 C 
ATOM     61  C   UNL     1      57.742  75.619  56.219  0.00  0.00    +0.000 A 
ATOM     62  O   UNL     1      57.433  76.352  56.438  0.00  0.00    +0.000 OA
ATOM     63  C   UNL     1      57.128  76.860  55.865  0.00  0.00    +0.000 C 
ATOM     64  C   UNL     1      58.047  75.111  56.793  0.00  0.00    +0.000 A 
ATOM     65  C   UNL     1      58.356  74.378  56.573  0.00  0.00    +0.000 A 
ATOM     66  C   UNL     1      63.116  62.977  52.778  0.00  0.00    +0.000 A 
ATOM     67  C   UNL     1      63.452  62.365  53.217  0.00  0.00    +0.000 A 
ENDROOT
TORSDOF 0
ENDMDL
MODEL 3
REMARK VINA RESULT:   -15.461     20.979     24.800
REMARK INTER + INTRA:         -15.461
REMARK INTER:                 -15.461
REMARK INTRA:                   0.000
REMARK UNBOUND:                 0.000
ROOT
REMARK  Name = cisatracurium
REMARK                            x       y       z     vdW  Elec       q    Type
REMARK                         _______ _______ _______ _____ _____    ______ ____
ATOM      1  C   UNL     1      62.869  59.961  48.639  0.00  0.00    +0.000 C 
ATOM      2  O   UNL     1      63.052  59.732  49.410  0.00  0.00    +0.000 OA
ATOM      3  C   UNL     1      62.940  60.258  50.034  0.00  0.00    +0.000 A 
ATOM      4  C   UNL     1      63.123  60.029  50.806  0.00  0.00    +0.000 A 
ATOM      5  O   UNL     1      63.419  59.272  50.952  0.00  0.00    +0.000 OA
ATOM      6  C   UNL     1      63.531  58.745  50.326  0.00  0.00    +0.000 C 
ATOM      7  C   UNL     1      63.011  60.555  51.430  0.00  0.00    +0.000 A 
ATOM      8  C   UNL     1      62.716  61.311  51.286  0.00  0.00    +0.000 A 
ATOM      9  C   UNL     1      62.605  61.837  51.910  0.00  0.00    +0.000 C 
ATOM     10  C   UNL     1      62.788  61.608  52.682  0.00  0.00    +0.000 C 
ATOM     11  C   UNL     1      63.083  60.852  52.827  0.00  0.00    +0.000 A 
ATOM     12  C   UNL     1      63.195  60.324  52.202  0.00  0.00    +0.000 A 
ATOM     13  C   UNL     1      63.490  59.568  52.348  0.00  0.00    +0.000 A 
ATOM     14  O   UNL     1      63.602  59.042  51.722  0.00  0.00    +0.000 OA
ATOM     15  C   UNL     1      63.898  58.285  51.868  0.00  0.00    +0.000 C 
ATOM     16  C   UNL     1      63.674  59.339  53.118  0.00  0.00    +0.000 A 
ATOM     17  O   UNL     1      63.969  58.582  53.264  0.00  0.00    +0.000 OA
ATOM     18  C   UNL     1      64.152  58.352  54.034  0.00  0.00    +0.000 C 
ATOM     19  C   UNL     1      63.562  59.865  53.743  0.00  0.00    +0.000 A 
ATOM     20  C   UNL     1      63.267  60.621  53.598  0.00  0.00    +0.000 A 
ATOM     21  C   UNL     1      63.155  61.148  54.223  0.00  0.00    +0.000 C 
ATOM     22  C   UNL     1      62.859  61.904  54.077  0.00  0.00    +0.000 C 
ATOM     23  N   UNL     1      62.676  62.134  53.306  0.00  0.00    +0.000 N 
ATOM     24  C   UNL     1      62.434  62.883  53.556  0.00  0.00    +0.000 C 
ATOM     25  C   UNL     1      62.396  62.722  52.800  0.00  0.00    +0.000 C 
ATOM     26  C   UNL     1      62.167  63.454  53.103  0.00  0.00    +0.000 C 
ATOM     27  C   UNL     1      61.887  64.042  52.596  0.00  0.00    +0.000 C 
ATOM     28  O   UNL     1      61.835  63.897  51.786  0.00  0.00    +0.000 OA
ATOM     29  O   UNL     1      61.659  64.774  52.899  0.00  0.00    +0.000 OA
ATOM     30  C   UNL     1      61.378  65.362  52.393  0.00  0.00    +0.000 C 
ATOM     31  C   UNL     1      61.150  66.093  52.696  0.00  0.00    +0.000 C 
ATOM     32  C   UNL     1      60.870  66.682  52.190  0.00  0.00    +0.000 C 
ATOM     33  C   UNL     1      60.641  67.413  52.493  0.00  0.00    +0.000 C 
ATOM     34  C   UNL     1      60.361  68.000  51.986  0.00  0.00    +0.000 C 
ATOM     35  O   UNL     1      60.133  68.733  52.290  0.00  0.00    +0.000 OA
ATOM     36  C   UNL     1      59.852  69.321  51.783  0.00  0.00    +0.000 C 
ATOM     37  O   UNL     1      59.801  69.176  50.972  0.00  0.00    +0.000 OA
ATOM     38  C   UNL     1      59.624  70.053  52.086  0.00  0.00    +0.000 C 
ATOM     39  C   UNL     1      59.344  70.640  51.580  0.00  0.00    +0.000 C 
ATOM     40  N   UNL     1      59.115  71.373  51.883  0.00  0.00    +0.000 N 
ATOM     41  C   UNL     1      58.966  71.497  51.081  0.00  0.00    +0.000 C 
ATOM     42  C   UNL     1      59.343  70.994  52.579  0.00  0.00    +0.000 C 
ATOM     43  C   UNL     1      59.291  71.391  53.302  0.00  0.00    +0.000 C 
ATOM     44  C   UNL     1      59.011  72.166  53.326  0.00  0.00    +0.000 A 
ATOM     45  C   UNL     1      58.959  72.562  54.048  0.00  0.00    +0.000 A 
ATOM     46  C   UNL     1      58.679  73.338  54.073  0.00  0.00    +0.000 A 
ATOM     47  O   UNL     1      58.627  73.735  54.795  0.00  0.00    +0.000 OA
ATOM     48  C   UNL     1      58.855  73.356  55.491  0.00  0.00    +0.000 C 
ATOM     49  C   UNL     1      58.451  73.717  53.376  0.00  0.00    +0.000 A 
ATOM     50  O   UNL     1      58.170  74.493  53.402  0.00  0.00    +0.000 OA
ATOM     51  C   UNL     1      58.118  74.889  54.123  0.00  0.00    +0.000 C 
ATOM     52  C   UNL     1      58.503  73.320  52.655  0.00  0.00    +0.000 A 
ATOM     53  C   UNL     1      58.783  72.544  52.630  0.00  0.00    +0.000 A 
ATOM     54  C   UNL     1      58.835  72.148  51.909  0.00  0.00    +0.000 C 
ATOM     55  C   UNL     1      58.607  72.528  51.212  0.00  0.00    +0.000 C 
ATOM     56  C   UNL     1      58.326  73.303  51.237  0.00  0.00    +0.000 A 
ATOM     57  C   UNL     1      58.275  73.699  51.959  0.00  0.00    +0.000 A 
ATOM     58  C   UNL     1      57.994  74.475  51.983  0.00  0.00    +0.000 A 
ATOM     59  O   UNL     1      57.942  74.872  52.706  0.00  0.00    +0.000 OA
ATOM     60  C   UNL     1      57.662  75.647  52.731  0.00  0.00    +0.000 C 
ATOM     61  C   UNL     1      57.766  74.854  51.287  0.00  0.00    +0.000 A 
ATOM     62  O   UNL     1      57.486  75.630  51.313  0.00  0.00    +0.000 OA
ATOM     63  C   UNL     1      57.434  76.026  52.034  0.00  0.00    +0.000 C 
ATOM     64  C   UNL     1      57.818  74.457  50.566  0.00  0.00    +0.000 A 
ATOM     65  C   UNL     1      58.098  73.681  50.541  0.00  0.00    +0.000 A 
ATOM     66  C   UNL     1      62.533  61.541  50.514  0.00  0.00    +0.000 A 
ATOM     67  C   UNL     1      62.645  61.014  49.890  0.00  0.00    +0.000 A 
ENDROOT
TORSDOF 0
ENDMDL
