MODEL 1
REMARK VINA RESULT:    -9.037      0.000      0.000
REMARK INTER + INTRA:          -9.037
REMARK INTER:                  -9.037
REMARK INTRA:                   0.000
REMARK UNBOUND:                 0.000
ROOT
REMARK  Name = cladribine
REMARK                            x       y       z     vdW  Elec       q    Type
REMARK                         _______ _______ _______ _____ _____    ______ ____
ATOM      1  N   UNL     1      60.463  63.394  68.238  0.00  0.00    +0.000 NA
ATOM      2  C   UNL     1      60.318  62.968  67.545  0.00  0.00    +0.000 A 
ATOM      3  C   UNL     1      60.924  62.857  66.995  0.00  0.00    +0.000 A 
ATOM      4  N   UNL     1      61.712  63.102  66.984  0.00  0.00    +0.000 NA
ATOM      5  C   UNL     1      62.055  62.827  66.287  0.00  0.00    +0.000 A 
ATOM      6  N   UNL     1      61.478  62.412  65.865  0.00  0.00    +0.000 N 
ATOM      7  C1* UNL     1      61.583  62.043  65.134  0.00  0.00    +0.000 C 
ATOM      8  C2* UNL     1      62.281  62.025  64.697  0.00  0.00    +0.000 C 
ATOM      9  C3* UNL     1      62.136  61.598  64.005  0.00  0.00    +0.000 C 
ATOM     10  O3* UNL     1      62.685  61.444  63.408  0.00  0.00    +0.000 OA
ATOM     11  C4* UNL     1      61.349  61.354  64.016  0.00  0.00    +0.000 C 
ATOM     12  C5* UNL     1      60.970  60.912  63.431  0.00  0.00    +0.000 C 
ATOM     13  O5* UNL     1      61.386  60.675  62.759  0.00  0.00    +0.000 OA
ATOM     14  O4* UNL     1      61.007  61.629  64.714  0.00  0.00    +0.000 OA
ATOM     15  C   UNL     1      60.779  62.431  66.304  0.00  0.00    +0.000 A 
ATOM     16  N   UNL     1      60.030  62.115  66.162  0.00  0.00    +0.000 NA
ATOM     17  C   UNL     1      59.426  62.226  66.713  0.00  0.00    +0.000 A 
ATOM     18 CL   UNL     1      58.677  61.910  66.571  0.00  0.00    +0.000 Cl
ATOM     19  N   UNL     1      59.570  62.652  67.404  0.00  0.00    +0.000 NA
ENDROOT
TORSDOF 0
ENDMDL
MODEL 2
REMARK VINA RESULT:    -8.875      2.316      4.081
REMARK INTER + INTRA:          -8.875
REMARK INTER:                  -8.875
REMARK INTRA:                   0.000
REMARK UNBOUND:                 0.000
ROOT
REMARK  Name = cladribine
REMARK                            x       y       z     vdW  Elec       q    Type
REMARK                         _______ _______ _______ _____ _____    ______ ____
ATOM      1  N   UNL     1      60.453  60.989  64.256  0.00  0.00    +0.000 NA
ATOM      2  C   UNL     1      60.855  61.464  64.799  0.00  0.00    +0.000 A 
ATOM      3  C   UNL     1      60.463  61.752  65.465  0.00  0.00    +0.000 A 
ATOM      4  N   UNL     1      59.687  61.660  65.732  0.00  0.00    +0.000 NA
ATOM      5  C   UNL     1      59.610  62.078  66.439  0.00  0.00    +0.000 A 
ATOM      6  N   UNL     1      60.337  62.429  66.609  0.00  0.00    +0.000 N 
ATOM      7  C1* UNL     1      60.508  62.899  67.266  0.00  0.00    +0.000 C 
ATOM      8  C2* UNL     1      59.981  63.100  67.866  0.00  0.00    +0.000 C 
ATOM      9  C3* UNL     1      60.383  63.576  68.409  0.00  0.00    +0.000 C 
ATOM     10  O3* UNL     1      60.065  63.901  69.097  0.00  0.00    +0.000 OA
ATOM     11  C4* UNL     1      61.158  63.667  68.142  0.00  0.00    +0.000 C 
ATOM     12  C5* UNL     1      61.751  64.101  68.516  0.00  0.00    +0.000 C 
ATOM     13  O5* UNL     1      61.592  64.493  69.224  0.00  0.00    +0.000 OA
ATOM     14  O4* UNL     1      61.235  63.249  67.435  0.00  0.00    +0.000 OA
ATOM     15  C   UNL     1      60.864  62.227  66.007  0.00  0.00    +0.000 A 
ATOM     16  N   UNL     1      61.659  62.414  65.882  0.00  0.00    +0.000 NA
ATOM     17  C   UNL     1      62.050  62.127  65.216  0.00  0.00    +0.000 A 
ATOM     18 CL   UNL     1      62.844  62.314  65.092  0.00  0.00    +0.000 Cl
ATOM     19  N   UNL     1      61.648  61.651  64.674  0.00  0.00    +0.000 NA
ENDROOT
TORSDOF 0
ENDMDL
MODEL 3
REMARK VINA RESULT:    -8.516      1.915      2.785
REMARK INTER + INTRA:          -8.516
REMARK INTER:                  -8.516
REMARK INTRA:                   0.000
REMARK UNBOUND:                 0.000
ROOT
REMARK  Name = cladribine
REMARK                            x       y       z     vdW  Elec       q    Type
REMARK                         _______ _______ _______ _____ _____    ______ ____
ATOM      1  N   UNL     1      60.648  63.235  70.448  0.00  0.00    +0.000 NA
ATOM      2  C   UNL     1      61.065  63.298  69.738  0.00  0.00    +0.000 A 
ATOM      3  C   UNL     1      60.830  62.858  69.081  0.00  0.00    +0.000 A 
ATOM      4  N   UNL     1      60.215  62.319  68.968  0.00  0.00    +0.000 NA
ATOM      5  C   UNL     1      60.251  62.050  68.189  0.00  0.00    +0.000 A 
ATOM      6  N   UNL     1      60.889  62.422  67.820  0.00  0.00    +0.000 N 
ATOM      7  C1* UNL     1      61.128  62.313  67.038  0.00  0.00    +0.000 C 
ATOM      8  C2* UNL     1      60.770  61.815  66.487  0.00  0.00    +0.000 C 
ATOM      9  C3* UNL     1      61.187  61.878  65.777  0.00  0.00    +0.000 C 
ATOM     10  O3* UNL     1      61.018  61.474  65.079  0.00  0.00    +0.000 OA
ATOM     11  C4* UNL     1      61.801  62.416  65.891  0.00  0.00    +0.000 C 
ATOM     12  C5* UNL     1      62.356  62.644  65.324  0.00  0.00    +0.000 C 
ATOM     13  O5* UNL     1      62.323  62.326  64.563  0.00  0.00    +0.000 OA
ATOM     14  O4* UNL     1      61.765  62.685  66.669  0.00  0.00    +0.000 OA
ATOM     15  C   UNL     1      61.247  62.921  68.372  0.00  0.00    +0.000 A 
ATOM     16  N   UNL     1      61.899  63.425  68.319  0.00  0.00    +0.000 NA
ATOM     17  C   UNL     1      62.133  63.865  68.976  0.00  0.00    +0.000 A 
ATOM     18 CL   UNL     1      62.784  64.369  68.923  0.00  0.00    +0.000 Cl
ATOM     19  N   UNL     1      61.716  63.802  69.686  0.00  0.00    +0.000 NA
ENDROOT
TORSDOF 0
ENDMDL
MODEL 4
REMARK VINA RESULT:    -8.304      3.338      4.663
REMARK INTER + INTRA:          -8.304
REMARK INTER:                  -8.304
REMARK INTRA:                   0.000
REMARK UNBOUND:                 0.000
ROOT
REMARK  Name = cladribine
REMARK                            x       y       z     vdW  Elec       q    Type
REMARK                         _______ _______ _______ _____ _____    ______ ____
ATOM      1  N   UNL     1      61.475  62.830  72.696  0.00  0.00    +0.000 NA
ATOM      2  C   UNL     1      61.599  63.071  71.916  0.00  0.00    +0.000 A 
ATOM      3  C   UNL     1      61.205  62.689  71.299  0.00  0.00    +0.000 A 
ATOM      4  N   UNL     1      60.666  62.064  71.291  0.00  0.00    +0.000 NA
ATOM      5  C   UNL     1      60.457  61.918  70.506  0.00  0.00    +0.000 A 
ATOM      6  N   UNL     1      60.867  62.453  70.029  0.00  0.00    +0.000 N 
ATOM      7  C1* UNL     1      60.822  62.503  69.207  0.00  0.00    +0.000 C 
ATOM      8  C2* UNL     1      60.361  62.027  68.718  0.00  0.00    +0.000 C 
ATOM      9  C3* UNL     1      60.485  62.268  67.937  0.00  0.00    +0.000 C 
ATOM     10  O3* UNL     1      60.132  61.940  67.268  0.00  0.00    +0.000 OA
ATOM     11  C4* UNL     1      61.023  62.892  67.946  0.00  0.00    +0.000 C 
ATOM     12  C5* UNL     1      61.304  63.299  67.286  0.00  0.00    +0.000 C 
ATOM     13  O5* UNL     1      61.044  63.091  66.531  0.00  0.00    +0.000 OA
ATOM     14  O4* UNL     1      61.232  63.038  68.731  0.00  0.00    +0.000 OA
ATOM     15  C   UNL     1      61.329  62.930  70.520  0.00  0.00    +0.000 A 
ATOM     16  N   UNL     1      61.847  63.552  70.357  0.00  0.00    +0.000 NA
ATOM     17  C   UNL     1      62.241  63.932  70.974  0.00  0.00    +0.000 A 
ATOM     18 CL   UNL     1      62.758  64.554  70.811  0.00  0.00    +0.000 Cl
ATOM     19  N   UNL     1      62.117  63.692  71.753  0.00  0.00    +0.000 NA
ENDROOT
TORSDOF 0
ENDMDL
MODEL 5
REMARK VINA RESULT:    -8.269      4.381      6.059
REMARK INTER + INTRA:          -8.269
REMARK INTER:                  -8.269
REMARK INTRA:                   0.000
REMARK UNBOUND:                 0.000
ROOT
REMARK  Name = cladribine
REMARK                            x       y       z     vdW  Elec       q    Type
REMARK                         _______ _______ _______ _____ _____    ______ ____
ATOM      1  N   UNL     1      60.897  62.177  67.833  0.00  0.00    +0.000 NA
ATOM      2  C   UNL     1      60.683  62.410  68.596  0.00  0.00    +0.000 A 
ATOM      3  C   UNL     1      60.506  63.201  68.751  0.00  0.00    +0.000 A 
ATOM      4  N   UNL     1      60.495  63.870  68.268  0.00  0.00    +0.000 NA
ATOM      5  C   UNL     1      60.274  64.516  68.731  0.00  0.00    +0.000 A 
ATOM      6  N   UNL     1      60.148  64.246  69.501  0.00  0.00    +0.000 N 
ATOM      7  C1* UNL     1      59.919  64.708  70.145  0.00  0.00    +0.000 C 
ATOM      8  C2* UNL     1      59.777  65.520  70.132  0.00  0.00    +0.000 C 
ATOM      9  C3* UNL     1      59.562  65.753  70.895  0.00  0.00    +0.000 C 
ATOM     10  O3* UNL     1      59.371  66.520  71.132  0.00  0.00    +0.000 OA
ATOM     11  C4* UNL     1      59.573  65.084  71.377  0.00  0.00    +0.000 C 
ATOM     12  C5* UNL     1      59.395  65.065  72.183  0.00  0.00    +0.000 C 
ATOM     13  O5* UNL     1      59.181  65.759  72.575  0.00  0.00    +0.000 OA
ATOM     14  O4* UNL     1      59.794  64.439  70.914  0.00  0.00    +0.000 OA
ATOM     15  C   UNL     1      60.291  63.434  69.513  0.00  0.00    +0.000 A 
ATOM     16  N   UNL     1      60.254  62.875  70.120  0.00  0.00    +0.000 NA
ATOM     17  C   UNL     1      60.431  62.085  69.964  0.00  0.00    +0.000 A 
ATOM     18 CL   UNL     1      60.394  61.527  70.571  0.00  0.00    +0.000 Cl
ATOM     19  N   UNL     1      60.646  61.852  69.202  0.00  0.00    +0.000 NA
ENDROOT
TORSDOF 0
ENDMDL
MODEL 6
REMARK VINA RESULT:    -8.178      2.989      4.517
REMARK INTER + INTRA:          -8.178
REMARK INTER:                  -8.178
REMARK INTRA:                   0.000
REMARK UNBOUND:                 0.000
ROOT
REMARK  Name = cladribine
REMARK                            x       y       z     vdW  Elec       q    Type
REMARK                         _______ _______ _______ _____ _____    ______ ____
ATOM      1  N   UNL     1      59.561  62.056  66.257  0.00  0.00    +0.000 NA
ATOM      2  C   UNL     1      60.279  62.367  66.523  0.00  0.00    +0.000 A 
ATOM      3  C   UNL     1      60.335  62.685  67.283  0.00  0.00    +0.000 A 
ATOM      4  N   UNL     1      59.781  62.768  67.889  0.00  0.00    +0.000 NA
ATOM      5  C   UNL     1      60.155  63.129  68.529  0.00  0.00    +0.000 A 
ATOM      6  N   UNL     1      60.941  63.269  68.319  0.00  0.00    +0.000 N 
ATOM      7  C1* UNL     1      61.515  63.623  68.795  0.00  0.00    +0.000 C 
ATOM      8  C2* UNL     1      61.404  63.897  69.564  0.00  0.00    +0.000 C 
ATOM      9  C3* UNL     1      62.122  64.207  69.830  0.00  0.00    +0.000 C 
ATOM     10  O3* UNL     1      62.260  64.541  70.571  0.00  0.00    +0.000 OA
ATOM     11  C4* UNL     1      62.674  64.124  69.224  0.00  0.00    +0.000 C 
ATOM     12  C5* UNL     1      63.465  64.361  69.253  0.00  0.00    +0.000 C 
ATOM     13  O5* UNL     1      63.764  64.717  69.934  0.00  0.00    +0.000 OA
ATOM     14  O4* UNL     1      62.300  63.763  68.584  0.00  0.00    +0.000 OA
ATOM     15  C   UNL     1      61.051  62.995  67.548  0.00  0.00    +0.000 A 
ATOM     16  N   UNL     1      61.713  62.987  67.054  0.00  0.00    +0.000 NA
ATOM     17  C   UNL     1      61.656  62.669  66.295  0.00  0.00    +0.000 A 
ATOM     18 CL   UNL     1      62.317  62.662  65.802  0.00  0.00    +0.000 Cl
ATOM     19  N   UNL     1      60.939  62.359  66.030  0.00  0.00    +0.000 NA
ENDROOT
TORSDOF 0
ENDMDL
MODEL 7
REMARK VINA RESULT:    -8.123      4.539      5.971
REMARK INTER + INTRA:          -8.123
REMARK INTER:                  -8.123
REMARK INTRA:                   0.000
REMARK UNBOUND:                 0.000
ROOT
REMARK  Name = cladribine
REMARK                            x       y       z     vdW  Elec       q    Type
REMARK                         _______ _______ _______ _____ _____    ______ ____
ATOM      1  N   UNL     1      59.127  67.122  71.848  0.00  0.00    +0.000 NA
ATOM      2  C   UNL     1      59.327  66.584  71.253  0.00  0.00    +0.000 A 
ATOM      3  C   UNL     1      59.509  65.803  71.448  0.00  0.00    +0.000 A 
ATOM      4  N   UNL     1      59.538  65.406  72.171  0.00  0.00    +0.000 NA
ATOM      5  C   UNL     1      59.756  64.624  72.024  0.00  0.00    +0.000 A 
ATOM      6  N   UNL     1      59.862  64.538  71.210  0.00  0.00    +0.000 N 
ATOM      7  C1* UNL     1      60.081  63.844  70.821  0.00  0.00    +0.000 C 
ATOM      8  C2* UNL     1      60.233  63.116  71.177  0.00  0.00    +0.000 C 
ATOM      9  C3* UNL     1      60.433  62.579  70.582  0.00  0.00    +0.000 C 
ATOM     10  O3* UNL     1      60.628  61.785  70.693  0.00  0.00    +0.000 OA
ATOM     11  C4* UNL     1      60.405  62.976  69.860  0.00  0.00    +0.000 C 
ATOM     12  C5* UNL     1      60.565  62.648  69.120  0.00  0.00    +0.000 C 
ATOM     13  O5* UNL     1      60.778  61.854  69.058  0.00  0.00    +0.000 OA
ATOM     14  O4* UNL     1      60.187  63.758  70.007  0.00  0.00    +0.000 OA
ATOM     15  C   UNL     1      59.709  65.267  70.854  0.00  0.00    +0.000 A 
ATOM     16  N   UNL     1      59.727  65.511  70.066  0.00  0.00    +0.000 NA
ATOM     17  C   UNL     1      59.545  66.292  69.872  0.00  0.00    +0.000 A 
ATOM     18 CL   UNL     1      59.563  66.535  69.084  0.00  0.00    +0.000 Cl
ATOM     19  N   UNL     1      59.345  66.828  70.466  0.00  0.00    +0.000 NA
ENDROOT
TORSDOF 0
ENDMDL
MODEL 8
REMARK VINA RESULT:    -8.097      4.131      5.351
REMARK INTER + INTRA:          -8.097
REMARK INTER:                  -8.097
REMARK INTRA:                   0.000
REMARK UNBOUND:                 0.000
ROOT
REMARK  Name = cladribine
REMARK                            x       y       z     vdW  Elec       q    Type
REMARK                         _______ _______ _______ _____ _____    ______ ____
ATOM      1  N   UNL     1      59.229  67.397  71.068  0.00  0.00    +0.000 NA
ATOM      2  C   UNL     1      59.362  66.582  71.032  0.00  0.00    +0.000 A 
ATOM      3  C   UNL     1      59.622  66.238  70.329  0.00  0.00    +0.000 A 
ATOM      4  N   UNL     1      59.793  66.557  69.587  0.00  0.00    +0.000 NA
ATOM      5  C   UNL     1      60.031  65.941  69.093  0.00  0.00    +0.000 A 
ATOM      6  N   UNL     1      60.008  65.240  69.529  0.00  0.00    +0.000 N 
ATOM      7  C1* UNL     1      60.203  64.488  69.251  0.00  0.00    +0.000 C 
ATOM      8  C2* UNL     1      60.455  64.305  68.488  0.00  0.00    +0.000 C 
ATOM      9  C3* UNL     1      60.588  63.491  68.452  0.00  0.00    +0.000 C 
ATOM     10  O3* UNL     1      60.847  63.071  67.791  0.00  0.00    +0.000 OA
ATOM     11  C4* UNL     1      60.418  63.173  69.193  0.00  0.00    +0.000 C 
ATOM     12  C5* UNL     1      60.475  62.377  69.404  0.00  0.00    +0.000 C 
ATOM     13  O5* UNL     1      60.723  61.820  68.848  0.00  0.00    +0.000 OA
ATOM     14  O4* UNL     1      60.179  63.789  69.687  0.00  0.00    +0.000 OA
ATOM     15  C   UNL     1      59.755  65.424  70.293  0.00  0.00    +0.000 A 
ATOM     16  N   UNL     1      59.628  64.955  70.961  0.00  0.00    +0.000 NA
ATOM     17  C   UNL     1      59.369  65.301  71.664  0.00  0.00    +0.000 A 
ATOM     18 CL   UNL     1      59.242  64.832  72.331  0.00  0.00    +0.000 Cl
ATOM     19  N   UNL     1      59.236  66.115  71.699  0.00  0.00    +0.000 NA
ENDROOT
TORSDOF 0
ENDMDL
MODEL 9
REMARK VINA RESULT:    -7.896      4.581      5.983
REMARK INTER + INTRA:          -7.896
REMARK INTER:                  -7.896
REMARK INTRA:                   0.000
REMARK UNBOUND:                 0.000
ROOT
REMARK  Name = cladribine
REMARK                            x       y       z     vdW  Elec       q    Type
REMARK                         _______ _______ _______ _____ _____    ______ ____
ATOM      1  N   UNL     1      62.756  66.101  72.351  0.00  0.00    +0.000 NA
ATOM      2  C   UNL     1      62.487  65.676  71.696  0.00  0.00    +0.000 A 
ATOM      3  C   UNL     1      62.106  64.952  71.804  0.00  0.00    +0.000 A 
ATOM      4  N   UNL     1      61.918  64.521  72.482  0.00  0.00    +0.000 NA
ATOM      5  C   UNL     1      61.533  63.830  72.248  0.00  0.00    +0.000 A 
ATOM      6  N   UNL     1      61.483  63.833  71.424  0.00  0.00    +0.000 N 
ATOM      7  C1* UNL     1      61.139  63.247  70.956  0.00  0.00    +0.000 C 
ATOM      8  C2* UNL     1      60.785  62.555  71.231  0.00  0.00    +0.000 C 
ATOM      9  C3* UNL     1      60.516  62.129  70.576  0.00  0.00    +0.000 C 
ATOM     10  O3* UNL     1      60.128  61.402  70.598  0.00  0.00    +0.000 OA
ATOM     11  C4* UNL     1      60.704  62.560  69.899  0.00  0.00    +0.000 C 
ATOM     12  C5* UNL     1      60.536  62.338  69.122  0.00  0.00    +0.000 C 
ATOM     13  O5* UNL     1      60.145  61.627  68.971  0.00  0.00    +0.000 OA
ATOM     14  O4* UNL     1      61.089  63.251  70.133  0.00  0.00    +0.000 OA
ATOM     15  C   UNL     1      61.837  64.527  71.150  0.00  0.00    +0.000 A 
ATOM     16  N   UNL     1      61.949  64.826  70.388  0.00  0.00    +0.000 NA
ATOM     17  C   UNL     1      62.330  65.550  70.282  0.00  0.00    +0.000 A 
ATOM     18 CL   UNL     1      62.442  65.848  69.522  0.00  0.00    +0.000 Cl
ATOM     19  N   UNL     1      62.599  65.975  70.937  0.00  0.00    +0.000 NA
ENDROOT
TORSDOF 0
ENDMDL
