MODEL 1
REMARK VINA RESULT:   -15.203      0.000      0.000
REMARK INTER + INTRA:         -15.203
REMARK INTER:                 -15.203
REMARK INTRA:                   0.000
REMARK UNBOUND:                 0.000
ROOT
REMARK  Name = clascoterone
REMARK                            x       y       z     vdW  Elec       q    Type
REMARK                         _______ _______ _______ _____ _____    ______ ____
ATOM      1  C   UNL     1      62.988  64.663  69.747  0.00  0.00    +0.000 C 
ATOM      2  C   UNL     1      62.733  64.253  69.077  0.00  0.00    +0.000 C 
ATOM      3  C   UNL     1      61.950  63.999  69.023  0.00  0.00    +0.000 C 
ATOM      4  O   UNL     1      61.423  64.156  69.637  0.00  0.00    +0.000 OA
ATOM      5  O   UNL     1      61.695  63.589  68.354  0.00  0.00    +0.000 OA
ATOM      6  C   UNL     1      60.913  63.336  68.299  0.00  0.00    +0.000 C 
ATOM      7  C   UNL     1      60.113  63.156  68.400  0.00  0.00    +0.000 C 
ATOM      8  C   UNL     1      59.858  62.746  67.731  0.00  0.00    +0.000 C 
ATOM      9  C   UNL     1      60.499  62.672  67.217  0.00  0.00    +0.000 C 
ATOM     10  C   UNL     1      61.151  63.037  67.568  0.00  0.00    +0.000 C 
ATOM     11  C   UNL     1      61.877  63.050  67.177  0.00  0.00    +0.000 C 
ATOM     12  C   UNL     1      61.952  62.699  66.434  0.00  0.00    +0.000 C 
ATOM     13  C   UNL     1      61.301  62.334  66.083  0.00  0.00    +0.000 C 
ATOM     14  C   UNL     1      60.575  62.321  66.474  0.00  0.00    +0.000 C 
ATOM     15  C   UNL     1      59.923  61.956  66.123  0.00  0.00    +0.000 C 
ATOM     16  C   UNL     1      59.998  61.604  65.380  0.00  0.00    +0.000 C 
ATOM     17  C   UNL     1      60.725  61.618  64.989  0.00  0.00    +0.000 C 
ATOM     18  C   UNL     1      60.800  61.266  64.247  0.00  0.00    +0.000 C 
ATOM     19  C   UNL     1      61.526  61.279  63.855  0.00  0.00    +0.000 C 
ATOM     20  O   UNL     1      61.601  60.927  63.113  0.00  0.00    +0.000 OA
ATOM     21  C   UNL     1      62.177  61.644  64.207  0.00  0.00    +0.000 C 
ATOM     22  C   UNL     1      62.102  61.995  64.950  0.00  0.00    +0.000 C 
ATOM     23  C   UNL     1      61.376  61.983  65.341  0.00  0.00    +0.000 C 
ATOM     24  C   UNL     1      62.027  62.347  65.692  0.00  0.00    +0.000 C 
ATOM     25  C   UNL     1      61.751  63.421  67.986  0.00  0.00    +0.000 C 
ATOM     26  C   UNL     1      60.837  63.688  69.042  0.00  0.00    +0.000 C 
ATOM     27  O   UNL     1      61.093  64.097  69.710  0.00  0.00    +0.000 OA
ATOM     28  C   UNL     1      60.111  63.674  69.433  0.00  0.00    +0.000 C 
ATOM     29  O   UNL     1      60.036  64.026  70.176  0.00  0.00    +0.000 OA
ENDROOT
TORSDOF 0
ENDMDL
MODEL 2
REMARK VINA RESULT:   -13.844      3.215      5.918
REMARK INTER + INTRA:         -13.844
REMARK INTER:                 -13.844
REMARK INTRA:                   0.000
REMARK UNBOUND:                 0.000
ROOT
REMARK  Name = clascoterone
REMARK                            x       y       z     vdW  Elec       q    Type
REMARK                         _______ _______ _______ _____ _____    ______ ____
ATOM      1  C   UNL     1      60.769  62.573  69.185  0.00  0.00    +0.000 C 
ATOM      2  C   UNL     1      61.334  63.142  69.381  0.00  0.00    +0.000 C 
ATOM      3  C   UNL     1      61.362  63.447  70.147  0.00  0.00    +0.000 C 
ATOM      4  O   UNL     1      60.825  63.184  70.715  0.00  0.00    +0.000 OA
ATOM      5  O   UNL     1      61.927  64.015  70.344  0.00  0.00    +0.000 OA
ATOM      6  C   UNL     1      61.956  64.321  71.109  0.00  0.00    +0.000 C 
ATOM      7  C   UNL     1      61.851  64.520  71.903  0.00  0.00    +0.000 C 
ATOM      8  C   UNL     1      62.416  65.088  72.100  0.00  0.00    +0.000 C 
ATOM      9  C   UNL     1      62.869  65.240  71.428  0.00  0.00    +0.000 C 
ATOM     10  C   UNL     1      62.585  64.766  70.816  0.00  0.00    +0.000 C 
ATOM     11  C   UNL     1      62.936  64.800  70.070  0.00  0.00    +0.000 C 
ATOM     12  C   UNL     1      63.571  65.309  69.936  0.00  0.00    +0.000 C 
ATOM     13  C   UNL     1      63.856  65.783  70.548  0.00  0.00    +0.000 C 
ATOM     14  C   UNL     1      63.505  65.749  71.294  0.00  0.00    +0.000 C 
ATOM     15  C   UNL     1      63.790  66.223  71.907  0.00  0.00    +0.000 C 
ATOM     16  C   UNL     1      64.425  66.732  71.773  0.00  0.00    +0.000 C 
ATOM     17  C   UNL     1      64.776  66.767  71.027  0.00  0.00    +0.000 C 
ATOM     18  C   UNL     1      65.411  67.275  70.893  0.00  0.00    +0.000 C 
ATOM     19  C   UNL     1      65.762  67.310  70.148  0.00  0.00    +0.000 C 
ATOM     20  O   UNL     1      66.398  67.819  70.014  0.00  0.00    +0.000 OA
ATOM     21  C   UNL     1      65.477  66.836  69.536  0.00  0.00    +0.000 C 
ATOM     22  C   UNL     1      64.842  66.327  69.669  0.00  0.00    +0.000 C 
ATOM     23  C   UNL     1      64.491  66.292  70.415  0.00  0.00    +0.000 C 
ATOM     24  C   UNL     1      64.207  65.818  69.802  0.00  0.00    +0.000 C 
ATOM     25  C   UNL     1      62.242  64.261  70.260  0.00  0.00    +0.000 C 
ATOM     26  C   UNL     1      61.319  63.812  71.243  0.00  0.00    +0.000 C 
ATOM     27  O   UNL     1      60.755  63.244  71.046  0.00  0.00    +0.000 OA
ATOM     28  C   UNL     1      60.969  63.778  71.989  0.00  0.00    +0.000 C 
ATOM     29  O   UNL     1      60.333  63.268  72.123  0.00  0.00    +0.000 OA
ENDROOT
TORSDOF 0
ENDMDL
MODEL 3
REMARK VINA RESULT:   -13.786      4.232      5.686
REMARK INTER + INTRA:         -13.786
REMARK INTER:                 -13.786
REMARK INTRA:                   0.000
REMARK UNBOUND:                 0.000
ROOT
REMARK  Name = clascoterone
REMARK                            x       y       z     vdW  Elec       q    Type
REMARK                         _______ _______ _______ _____ _____    ______ ____
ATOM      1  C   UNL     1      65.532  66.878  69.963  0.00  0.00    +0.000 C 
ATOM      2  C   UNL     1      64.929  66.350  70.157  0.00  0.00    +0.000 C 
ATOM      3  C   UNL     1      64.457  66.490  70.820  0.00  0.00    +0.000 C 
ATOM      4  O   UNL     1      64.590  67.155  71.288  0.00  0.00    +0.000 OA
ATOM      5  O   UNL     1      63.853  65.962  71.015  0.00  0.00    +0.000 OA
ATOM      6  C   UNL     1      63.382  66.100  71.677  0.00  0.00    +0.000 C 
ATOM      7  C   UNL     1      63.009  66.379  72.358  0.00  0.00    +0.000 C 
ATOM      8  C   UNL     1      62.406  65.852  72.553  0.00  0.00    +0.000 C 
ATOM      9  C   UNL     1      62.405  65.247  71.992  0.00  0.00    +0.000 C 
ATOM     10  C   UNL     1      63.009  65.401  71.451  0.00  0.00    +0.000 C 
ATOM     11  C   UNL     1      63.140  64.883  70.821  0.00  0.00    +0.000 C 
ATOM     12  C   UNL     1      62.668  64.212  70.733  0.00  0.00    +0.000 C 
ATOM     13  C   UNL     1      62.065  64.059  71.274  0.00  0.00    +0.000 C 
ATOM     14  C   UNL     1      61.933  64.576  71.904  0.00  0.00    +0.000 C 
ATOM     15  C   UNL     1      61.329  64.422  72.445  0.00  0.00    +0.000 C 
ATOM     16  C   UNL     1      60.858  63.751  72.357  0.00  0.00    +0.000 C 
ATOM     17  C   UNL     1      60.989  63.234  71.727  0.00  0.00    +0.000 C 
ATOM     18  C   UNL     1      60.518  62.563  71.639  0.00  0.00    +0.000 C 
ATOM     19  C   UNL     1      60.649  62.046  71.010  0.00  0.00    +0.000 C 
ATOM     20  O   UNL     1      60.177  61.375  70.922  0.00  0.00    +0.000 OA
ATOM     21  C   UNL     1      61.253  62.200  70.469  0.00  0.00    +0.000 C 
ATOM     22  C   UNL     1      61.724  62.871  70.558  0.00  0.00    +0.000 C 
ATOM     23  C   UNL     1      61.593  63.388  71.186  0.00  0.00    +0.000 C 
ATOM     24  C   UNL     1      62.197  63.542  70.645  0.00  0.00    +0.000 C 
ATOM     25  C   UNL     1      63.630  65.625  70.956  0.00  0.00    +0.000 C 
ATOM     26  C   UNL     1      63.854  66.772  71.765  0.00  0.00    +0.000 C 
ATOM     27  O   UNL     1      64.458  67.298  71.570  0.00  0.00    +0.000 OA
ATOM     28  C   UNL     1      63.722  67.288  72.394  0.00  0.00    +0.000 C 
ATOM     29  O   UNL     1      64.195  67.960  72.483  0.00  0.00    +0.000 OA
ENDROOT
TORSDOF 0
ENDMDL
MODEL 4
REMARK VINA RESULT:   -13.757      1.317      4.553
REMARK INTER + INTRA:         -13.757
REMARK INTER:                 -13.757
REMARK INTRA:                   0.000
REMARK UNBOUND:                 0.000
ROOT
REMARK  Name = clascoterone
REMARK                            x       y       z     vdW  Elec       q    Type
REMARK                         _______ _______ _______ _____ _____    ______ ____
ATOM      1  C   UNL     1      62.310  62.137  64.651  0.00  0.00    +0.000 C 
ATOM      2  C   UNL     1      62.212  62.404  65.426  0.00  0.00    +0.000 C 
ATOM      3  C   UNL     1      61.476  62.339  65.794  0.00  0.00    +0.000 C 
ATOM      4  O   UNL     1      60.840  62.008  65.388  0.00  0.00    +0.000 OA
ATOM      5  O   UNL     1      61.378  62.606  66.569  0.00  0.00    +0.000 OA
ATOM      6  C   UNL     1      60.644  62.541  66.937  0.00  0.00    +0.000 C 
ATOM      7  C   UNL     1      59.859  62.406  67.156  0.00  0.00    +0.000 C 
ATOM      8  C   UNL     1      59.761  62.673  67.930  0.00  0.00    +0.000 C 
ATOM      9  C   UNL     1      60.484  62.972  68.190  0.00  0.00    +0.000 C 
ATOM     10  C   UNL     1      61.029  62.891  67.577  0.00  0.00    +0.000 C 
ATOM     11  C   UNL     1      61.807  63.146  67.679  0.00  0.00    +0.000 C 
ATOM     12  C   UNL     1      62.040  63.483  68.395  0.00  0.00    +0.000 C 
ATOM     13  C   UNL     1      61.495  63.564  69.009  0.00  0.00    +0.000 C 
ATOM     14  C   UNL     1      60.717  63.309  68.907  0.00  0.00    +0.000 C 
ATOM     15  C   UNL     1      60.172  63.390  69.521  0.00  0.00    +0.000 C 
ATOM     16  C   UNL     1      60.405  63.726  70.237  0.00  0.00    +0.000 C 
ATOM     17  C   UNL     1      61.183  63.982  70.340  0.00  0.00    +0.000 C 
ATOM     18  C   UNL     1      61.415  64.318  71.056  0.00  0.00    +0.000 C 
ATOM     19  C   UNL     1      62.193  64.573  71.159  0.00  0.00    +0.000 C 
ATOM     20  O   UNL     1      62.426  64.910  71.876  0.00  0.00    +0.000 OA
ATOM     21  C   UNL     1      62.738  64.492  70.545  0.00  0.00    +0.000 C 
ATOM     22  C   UNL     1      62.505  64.155  69.829  0.00  0.00    +0.000 C 
ATOM     23  C   UNL     1      61.728  63.900  69.725  0.00  0.00    +0.000 C 
ATOM     24  C   UNL     1      62.273  63.819  69.112  0.00  0.00    +0.000 C 
ATOM     25  C   UNL     1      61.511  62.774  66.916  0.00  0.00    +0.000 C 
ATOM     26  C   UNL     1      60.411  62.205  66.220  0.00  0.00    +0.000 C 
ATOM     27  O   UNL     1      60.509  61.938  65.446  0.00  0.00    +0.000 OA
ATOM     28  C   UNL     1      59.633  61.950  66.118  0.00  0.00    +0.000 C 
ATOM     29  O   UNL     1      59.400  61.613  65.401  0.00  0.00    +0.000 OA
ENDROOT
TORSDOF 0
ENDMDL
MODEL 5
REMARK VINA RESULT:   -13.652      4.214      6.368
REMARK INTER + INTRA:         -13.652
REMARK INTER:                 -13.652
REMARK INTRA:                   0.000
REMARK UNBOUND:                 0.000
ROOT
REMARK  Name = clascoterone
REMARK                            x       y       z     vdW  Elec       q    Type
REMARK                         _______ _______ _______ _____ _____    ______ ____
ATOM      1  C   UNL     1      67.245  66.830  72.629  0.00  0.00    +0.000 C 
ATOM      2  C   UNL     1      66.532  66.530  72.342  0.00  0.00    +0.000 C 
ATOM      3  C   UNL     1      66.275  66.730  71.584  0.00  0.00    +0.000 C 
ATOM      4  O   UNL     1      66.731  67.230  71.113  0.00  0.00    +0.000 OA
ATOM      5  O   UNL     1      65.562  66.429  71.297  0.00  0.00    +0.000 OA
ATOM      6  C   UNL     1      65.305  66.629  70.540  0.00  0.00    +0.000 C 
ATOM      7  C   UNL     1      65.195  66.921  69.776  0.00  0.00    +0.000 C 
ATOM      8  C   UNL     1      64.482  66.620  69.489  0.00  0.00    +0.000 C 
ATOM      9  C   UNL     1      64.153  66.143  70.075  0.00  0.00    +0.000 C 
ATOM     10  C   UNL     1      64.661  66.148  70.724  0.00  0.00    +0.000 C 
ATOM     11  C   UNL     1      64.473  65.714  71.401  0.00  0.00    +0.000 C 
ATOM     12  C   UNL     1      63.775  65.275  71.427  0.00  0.00    +0.000 C 
ATOM     13  C   UNL     1      63.266  65.270  70.778  0.00  0.00    +0.000 C 
ATOM     14  C   UNL     1      63.454  65.703  70.102  0.00  0.00    +0.000 C 
ATOM     15  C   UNL     1      62.945  65.698  69.453  0.00  0.00    +0.000 C 
ATOM     16  C   UNL     1      62.247  65.259  69.480  0.00  0.00    +0.000 C 
ATOM     17  C   UNL     1      62.059  64.825  70.156  0.00  0.00    +0.000 C 
ATOM     18  C   UNL     1      61.361  64.386  70.183  0.00  0.00    +0.000 C 
ATOM     19  C   UNL     1      61.172  63.952  70.858  0.00  0.00    +0.000 C 
ATOM     20  O   UNL     1      60.474  63.513  70.885  0.00  0.00    +0.000 OA
ATOM     21  C   UNL     1      61.682  63.958  71.507  0.00  0.00    +0.000 C 
ATOM     22  C   UNL     1      62.379  64.397  71.480  0.00  0.00    +0.000 C 
ATOM     23  C   UNL     1      62.568  64.831  70.805  0.00  0.00    +0.000 C 
ATOM     24  C   UNL     1      63.077  64.836  71.454  0.00  0.00    +0.000 C 
ATOM     25  C   UNL     1      65.222  66.206  71.328  0.00  0.00    +0.000 C 
ATOM     26  C   UNL     1      66.004  67.068  70.513  0.00  0.00    +0.000 C 
ATOM     27  O   UNL     1      66.716  67.369  70.800  0.00  0.00    +0.000 OA
ATOM     28  C   UNL     1      66.192  67.502  69.837  0.00  0.00    +0.000 C 
ATOM     29  O   UNL     1      66.890  67.941  69.809  0.00  0.00    +0.000 OA
ENDROOT
TORSDOF 0
ENDMDL
MODEL 6
REMARK VINA RESULT:   -13.619      2.122      3.630
REMARK INTER + INTRA:         -13.619
REMARK INTER:                 -13.619
REMARK INTRA:                   0.000
REMARK UNBOUND:                 0.000
ROOT
REMARK  Name = clascoterone
REMARK                            x       y       z     vdW  Elec       q    Type
REMARK                         _______ _______ _______ _____ _____    ______ ____
ATOM      1  C   UNL     1      59.374  67.628  71.161  0.00  0.00    +0.000 C 
ATOM      2  C   UNL     1      59.561  66.935  70.753  0.00  0.00    +0.000 C 
ATOM      3  C   UNL     1      59.603  66.217  71.159  0.00  0.00    +0.000 C 
ATOM      4  O   UNL     1      59.459  66.193  71.970  0.00  0.00    +0.000 OA
ATOM      5  O   UNL     1      59.790  65.525  70.751  0.00  0.00    +0.000 OA
ATOM      6  C   UNL     1      59.833  64.808  71.155  0.00  0.00    +0.000 C 
ATOM      7  C   UNL     1      59.834  64.186  71.698  0.00  0.00    +0.000 C 
ATOM      8  C   UNL     1      60.021  63.493  71.291  0.00  0.00    +0.000 C 
ATOM      9  C   UNL     1      60.135  63.686  70.498  0.00  0.00    +0.000 C 
ATOM     10  C   UNL     1      60.018  64.499  70.414  0.00  0.00    +0.000 C 
ATOM     11  C   UNL     1      60.096  64.853  69.672  0.00  0.00    +0.000 C 
ATOM     12  C   UNL     1      60.291  64.394  69.015  0.00  0.00    +0.000 C 
ATOM     13  C   UNL     1      60.408  63.582  69.098  0.00  0.00    +0.000 C 
ATOM     14  C   UNL     1      60.330  63.228  69.839  0.00  0.00    +0.000 C 
ATOM     15  C   UNL     1      60.446  62.415  69.923  0.00  0.00    +0.000 C 
ATOM     16  C   UNL     1      60.641  61.957  69.265  0.00  0.00    +0.000 C 
ATOM     17  C   UNL     1      60.719  62.311  68.524  0.00  0.00    +0.000 C 
ATOM     18  C   UNL     1      60.914  61.853  67.866  0.00  0.00    +0.000 C 
ATOM     19  C   UNL     1      60.992  62.206  67.125  0.00  0.00    +0.000 C 
ATOM     20  O   UNL     1      61.186  61.748  66.467  0.00  0.00    +0.000 OA
ATOM     21  C   UNL     1      60.875  63.019  67.042  0.00  0.00    +0.000 C 
ATOM     22  C   UNL     1      60.680  63.477  67.700  0.00  0.00    +0.000 C 
ATOM     23  C   UNL     1      60.602  63.124  68.441  0.00  0.00    +0.000 C 
ATOM     24  C   UNL     1      60.485  63.936  68.357  0.00  0.00    +0.000 C 
ATOM     25  C   UNL     1      59.886  65.313  70.415  0.00  0.00    +0.000 C 
ATOM     26  C   UNL     1      59.638  65.266  71.814  0.00  0.00    +0.000 C 
ATOM     27  O   UNL     1      59.451  65.959  72.220  0.00  0.00    +0.000 OA
ATOM     28  C   UNL     1      59.560  64.912  72.554  0.00  0.00    +0.000 C 
ATOM     29  O   UNL     1      59.365  65.370  73.213  0.00  0.00    +0.000 OA
ENDROOT
TORSDOF 0
ENDMDL
MODEL 7
REMARK VINA RESULT:   -13.602      1.577      2.552
REMARK INTER + INTRA:         -13.602
REMARK INTER:                 -13.602
REMARK INTRA:                   0.000
REMARK UNBOUND:                 0.000
ROOT
REMARK  Name = clascoterone
REMARK                            x       y       z     vdW  Elec       q    Type
REMARK                         _______ _______ _______ _____ _____    ______ ____
ATOM      1  C   UNL     1      63.588  65.705  71.357  0.00  0.00    +0.000 C 
ATOM      2  C   UNL     1      63.199  65.242  70.795  0.00  0.00    +0.000 C 
ATOM      3  C   UNL     1      62.645  64.679  71.036  0.00  0.00    +0.000 C 
ATOM      4  O   UNL     1      62.481  64.580  71.838  0.00  0.00    +0.000 OA
ATOM      5  O   UNL     1      62.257  64.216  70.475  0.00  0.00    +0.000 OA
ATOM      6  C   UNL     1      61.704  63.654  70.714  0.00  0.00    +0.000 C 
ATOM      7  C   UNL     1      61.189  63.147  71.114  0.00  0.00    +0.000 C 
ATOM      8  C   UNL     1      60.801  62.684  70.553  0.00  0.00    +0.000 C 
ATOM      9  C   UNL     1      61.074  62.905  69.807  0.00  0.00    +0.000 C 
ATOM     10  C   UNL     1      61.632  63.504  69.907  0.00  0.00    +0.000 C 
ATOM     11  C   UNL     1      62.004  63.837  69.249  0.00  0.00    +0.000 C 
ATOM     12  C   UNL     1      61.818  63.570  68.491  0.00  0.00    +0.000 C 
ATOM     13  C   UNL     1      61.260  62.971  68.391  0.00  0.00    +0.000 C 
ATOM     14  C   UNL     1      60.888  62.638  69.048  0.00  0.00    +0.000 C 
ATOM     15  C   UNL     1      60.330  62.039  68.948  0.00  0.00    +0.000 C 
ATOM     16  C   UNL     1      60.143  61.772  68.190  0.00  0.00    +0.000 C 
ATOM     17  C   UNL     1      60.515  62.104  67.532  0.00  0.00    +0.000 C 
ATOM     18  C   UNL     1      60.328  61.838  66.774  0.00  0.00    +0.000 C 
ATOM     19  C   UNL     1      60.699  62.169  66.117  0.00  0.00    +0.000 C 
ATOM     20  O   UNL     1      60.513  61.902  65.359  0.00  0.00    +0.000 OA
ATOM     21  C   UNL     1      61.258  62.769  66.218  0.00  0.00    +0.000 C 
ATOM     22  C   UNL     1      61.444  63.035  66.976  0.00  0.00    +0.000 C 
ATOM     23  C   UNL     1      61.073  62.704  67.633  0.00  0.00    +0.000 C 
ATOM     24  C   UNL     1      61.631  63.303  67.733  0.00  0.00    +0.000 C 
ATOM     25  C   UNL     1      62.177  64.097  70.092  0.00  0.00    +0.000 C 
ATOM     26  C   UNL     1      61.890  63.921  71.473  0.00  0.00    +0.000 C 
ATOM     27  O   UNL     1      62.279  64.384  72.034  0.00  0.00    +0.000 OA
ATOM     28  C   UNL     1      61.519  63.589  72.130  0.00  0.00    +0.000 C 
ATOM     29  O   UNL     1      61.705  63.856  72.889  0.00  0.00    +0.000 OA
ENDROOT
TORSDOF 0
ENDMDL
MODEL 8
REMARK VINA RESULT:   -13.475      4.642      5.617
REMARK INTER + INTRA:         -13.475
REMARK INTER:                 -13.475
REMARK INTRA:                   0.000
REMARK UNBOUND:                 0.000
ROOT
REMARK  Name = clascoterone
REMARK                            x       y       z     vdW  Elec       q    Type
REMARK                         _______ _______ _______ _____ _____    ______ ____
ATOM      1  C   UNL     1      59.357  66.659  69.048  0.00  0.00    +0.000 C 
ATOM      2  C   UNL     1      59.666  66.024  69.475  0.00  0.00    +0.000 C 
ATOM      3  C   UNL     1      59.797  66.099  70.286  0.00  0.00    +0.000 C 
ATOM      4  O   UNL     1      59.619  66.807  70.669  0.00  0.00    +0.000 OA
ATOM      5  O   UNL     1      60.107  65.464  70.714  0.00  0.00    +0.000 OA
ATOM      6  C   UNL     1      60.238  65.538  71.524  0.00  0.00    +0.000 C 
ATOM      7  C   UNL     1      60.308  65.772  72.313  0.00  0.00    +0.000 C 
ATOM      8  C   UNL     1      60.617  65.138  72.740  0.00  0.00    +0.000 C 
ATOM      9  C   UNL     1      60.738  64.512  72.216  0.00  0.00    +0.000 C 
ATOM     10  C   UNL     1      60.504  64.760  71.465  0.00  0.00    +0.000 C 
ATOM     11  C   UNL     1      60.564  64.244  70.823  0.00  0.00    +0.000 C 
ATOM     12  C   UNL     1      60.857  63.481  70.933  0.00  0.00    +0.000 C 
ATOM     13  C   UNL     1      61.091  63.234  71.684  0.00  0.00    +0.000 C 
ATOM     14  C   UNL     1      61.032  63.748  72.326  0.00  0.00    +0.000 C 
ATOM     15  C   UNL     1      61.267  63.501  73.077  0.00  0.00    +0.000 C 
ATOM     16  C   UNL     1      61.560  62.738  73.187  0.00  0.00    +0.000 C 
ATOM     17  C   UNL     1      61.620  62.222  72.545  0.00  0.00    +0.000 C 
ATOM     18  C   UNL     1      61.913  61.459  72.655  0.00  0.00    +0.000 C 
ATOM     19  C   UNL     1      61.973  60.944  72.014  0.00  0.00    +0.000 C 
ATOM     20  O   UNL     1      62.266  60.181  72.124  0.00  0.00    +0.000 OA
ATOM     21  C   UNL     1      61.738  61.192  71.263  0.00  0.00    +0.000 C 
ATOM     22  C   UNL     1      61.445  61.955  71.153  0.00  0.00    +0.000 C 
ATOM     23  C   UNL     1      61.385  62.471  71.794  0.00  0.00    +0.000 C 
ATOM     24  C   UNL     1      61.151  62.718  71.043  0.00  0.00    +0.000 C 
ATOM     25  C   UNL     1      60.250  65.083  70.749  0.00  0.00    +0.000 C 
ATOM     26  C   UNL     1      59.944  66.302  71.415  0.00  0.00    +0.000 C 
ATOM     27  O   UNL     1      59.635  66.935  70.987  0.00  0.00    +0.000 OA
ATOM     28  C   UNL     1      59.885  66.816  72.056  0.00  0.00    +0.000 C 
ATOM     29  O   UNL     1      59.591  67.580  71.947  0.00  0.00    +0.000 OA
ENDROOT
TORSDOF 0
ENDMDL
MODEL 9
REMARK VINA RESULT:   -12.969      1.721      5.062
REMARK INTER + INTRA:         -12.969
REMARK INTER:                 -12.969
REMARK INTRA:                   0.000
REMARK UNBOUND:                 0.000
ROOT
REMARK  Name = clascoterone
REMARK                            x       y       z     vdW  Elec       q    Type
REMARK                         _______ _______ _______ _____ _____    ______ ____
ATOM      1  C   UNL     1      59.001  61.629  66.087  0.00  0.00    +0.000 C 
ATOM      2  C   UNL     1      59.329  61.889  66.798  0.00  0.00    +0.000 C 
ATOM      3  C   UNL     1      60.049  62.292  66.796  0.00  0.00    +0.000 C 
ATOM      4  O   UNL     1      60.440  62.434  66.084  0.00  0.00    +0.000 OA
ATOM      5  O   UNL     1      60.378  62.553  67.506  0.00  0.00    +0.000 OA
ATOM      6  C   UNL     1      61.097  62.956  67.505  0.00  0.00    +0.000 C 
ATOM      7  C   UNL     1      61.809  63.336  67.333  0.00  0.00    +0.000 C 
ATOM      8  C   UNL     1      62.138  63.596  68.043  0.00  0.00    +0.000 C 
ATOM      9  C   UNL     1      61.629  63.378  68.654  0.00  0.00    +0.000 C 
ATOM     10  C   UNL     1      60.986  62.982  68.322  0.00  0.00    +0.000 C 
ATOM     11  C   UNL     1      60.382  62.696  68.806  0.00  0.00    +0.000 C 
ATOM     12  C   UNL     1      60.421  62.806  69.623  0.00  0.00    +0.000 C 
ATOM     13  C   UNL     1      61.063  63.202  69.955  0.00  0.00    +0.000 C 
ATOM     14  C   UNL     1      61.668  63.488  69.472  0.00  0.00    +0.000 C 
ATOM     15  C   UNL     1      62.311  63.883  69.804  0.00  0.00    +0.000 C 
ATOM     16  C   UNL     1      62.349  63.993  70.621  0.00  0.00    +0.000 C 
ATOM     17  C   UNL     1      61.745  63.707  71.105  0.00  0.00    +0.000 C 
ATOM     18  C   UNL     1      61.784  63.817  71.922  0.00  0.00    +0.000 C 
ATOM     19  C   UNL     1      61.180  63.532  72.406  0.00  0.00    +0.000 C 
ATOM     20  O   UNL     1      61.219  63.642  73.222  0.00  0.00    +0.000 OA
ATOM     21  C   UNL     1      60.538  63.136  72.072  0.00  0.00    +0.000 C 
ATOM     22  C   UNL     1      60.499  63.026  71.256  0.00  0.00    +0.000 C 
ATOM     23  C   UNL     1      61.102  63.312  70.772  0.00  0.00    +0.000 C 
ATOM     24  C   UNL     1      60.459  62.916  70.439  0.00  0.00    +0.000 C 
ATOM     25  C   UNL     1      60.380  62.598  67.912  0.00  0.00    +0.000 C 
ATOM     26  C   UNL     1      61.058  62.846  66.688  0.00  0.00    +0.000 C 
ATOM     27  O   UNL     1      60.730  62.585  65.978  0.00  0.00    +0.000 OA
ATOM     28  C   UNL     1      61.662  63.131  66.205  0.00  0.00    +0.000 C 
ATOM     29  O   UNL     1      61.624  63.021  65.387  0.00  0.00    +0.000 OA
ENDROOT
TORSDOF 0
ENDMDL
