MODEL 1
REMARK VINA RESULT:   -11.418      0.000      0.000
REMARK INTER + INTRA:         -11.418
REMARK INTER:                 -11.418
REMARK INTRA:                   0.000
REMARK UNBOUND:                 0.000
ROOT
REMARK  Name = clemizole
REMARK                            x       y       z     vdW  Elec       q    Type
REMARK                         _______ _______ _______ _____ _____    ______ ____
ATOM      1 CL   UNL     1      61.636  62.384  73.044  0.00  0.00    +0.000 Cl
ATOM      2  C   UNL     1      61.323  62.888  72.469  0.00  0.00    +0.000 A 
ATOM      3  C   UNL     1      61.199  62.612  71.702  0.00  0.00    +0.000 A 
ATOM      4  C   UNL     1      60.886  63.115  71.128  0.00  0.00    +0.000 A 
ATOM      5  C   UNL     1      60.696  63.895  71.322  0.00  0.00    +0.000 A 
ATOM      6  C   UNL     1      60.383  64.398  70.748  0.00  0.00    +0.000 C 
ATOM      7  N   UNL     1      60.260  64.122  69.981  0.00  0.00    +0.000 N 
ATOM      8  C   UNL     1      59.952  64.559  69.352  0.00  0.00    +0.000 A 
ATOM      9  C   UNL     1      59.714  65.349  69.381  0.00  0.00    +0.000 C 
ATOM     10  N   UNL     1      59.775  65.773  70.087  0.00  0.00    +0.000 NA
ATOM     11  C   UNL     1      59.560  66.561  70.199  0.00  0.00    +0.000 C 
ATOM     12  C   UNL     1      59.713  66.758  70.985  0.00  0.00    +0.000 C 
ATOM     13  C   UNL     1      60.023  66.091  71.358  0.00  0.00    +0.000 C 
ATOM     14  C   UNL     1      60.061  65.482  70.803  0.00  0.00    +0.000 C 
ATOM     15  N   UNL     1      59.925  64.068  68.690  0.00  0.00    +0.000 NA
ATOM     16  C   UNL     1      60.215  63.328  68.909  0.00  0.00    +0.000 A 
ATOM     17  C   UNL     1      60.422  63.362  69.707  0.00  0.00    +0.000 A 
ATOM     18  C   UNL     1      60.731  62.694  70.081  0.00  0.00    +0.000 A 
ATOM     19  C   UNL     1      60.834  61.994  69.657  0.00  0.00    +0.000 A 
ATOM     20  C   UNL     1      60.627  61.961  68.860  0.00  0.00    +0.000 A 
ATOM     21  C   UNL     1      60.317  62.628  68.485  0.00  0.00    +0.000 A 
ATOM     22  C   UNL     1      60.820  64.170  72.090  0.00  0.00    +0.000 A 
ATOM     23  C   UNL     1      61.133  63.667  72.664  0.00  0.00    +0.000 A 
ENDROOT
TORSDOF 0
ENDMDL
MODEL 2
REMARK VINA RESULT:   -10.940      1.253      2.663
REMARK INTER + INTRA:         -10.940
REMARK INTER:                 -10.940
REMARK INTRA:                   0.000
REMARK UNBOUND:                 0.000
ROOT
REMARK  Name = clemizole
REMARK                            x       y       z     vdW  Elec       q    Type
REMARK                         _______ _______ _______ _____ _____    ______ ____
ATOM      1 CL   UNL     1      60.528  61.638  68.367  0.00  0.00    +0.000 Cl
ATOM      2  C   UNL     1      60.474  62.299  68.859  0.00  0.00    +0.000 A 
ATOM      3  C   UNL     1      60.715  62.249  69.646  0.00  0.00    +0.000 A 
ATOM      4  C   UNL     1      60.660  62.909  70.137  0.00  0.00    +0.000 A 
ATOM      5  C   UNL     1      60.364  63.620  69.841  0.00  0.00    +0.000 A 
ATOM      6  C   UNL     1      60.309  64.281  70.333  0.00  0.00    +0.000 C 
ATOM      7  N   UNL     1      60.551  64.231  71.119  0.00  0.00    +0.000 N 
ATOM      8  C   UNL     1      60.529  64.842  71.674  0.00  0.00    +0.000 A 
ATOM      9  C   UNL     1      60.262  65.610  71.537  0.00  0.00    +0.000 C 
ATOM     10  N   UNL     1      59.983  65.824  70.790  0.00  0.00    +0.000 NA
ATOM     11  C   UNL     1      59.700  66.568  70.573  0.00  0.00    +0.000 C 
ATOM     12  C   UNL     1      59.481  66.535  69.778  0.00  0.00    +0.000 C 
ATOM     13  C   UNL     1      59.629  65.771  69.505  0.00  0.00    +0.000 C 
ATOM     14  C   UNL     1      59.939  65.332  70.130  0.00  0.00    +0.000 C 
ATOM     15  N   UNL     1      60.821  64.549  72.387  0.00  0.00    +0.000 NA
ATOM     16  C   UNL     1      61.023  63.758  72.274  0.00  0.00    +0.000 A 
ATOM     17  C   UNL     1      60.856  63.561  71.491  0.00  0.00    +0.000 A 
ATOM     18  C   UNL     1      61.005  62.797  71.218  0.00  0.00    +0.000 A 
ATOM     19  C   UNL     1      61.319  62.230  71.727  0.00  0.00    +0.000 A 
ATOM     20  C   UNL     1      61.486  62.427  72.510  0.00  0.00    +0.000 A 
ATOM     21  C   UNL     1      61.339  63.191  72.785  0.00  0.00    +0.000 A 
ATOM     22  C   UNL     1      60.123  63.670  69.054  0.00  0.00    +0.000 A 
ATOM     23  C   UNL     1      60.177  63.010  68.563  0.00  0.00    +0.000 A 
ENDROOT
TORSDOF 0
ENDMDL
MODEL 3
REMARK VINA RESULT:   -10.882      3.231      4.175
REMARK INTER + INTRA:         -10.882
REMARK INTER:                 -10.882
REMARK INTRA:                   0.000
REMARK UNBOUND:                 0.000
ROOT
REMARK  Name = clemizole
REMARK                            x       y       z     vdW  Elec       q    Type
REMARK                         _______ _______ _______ _____ _____    ______ ____
ATOM      1 CL   UNL     1      62.861  68.256  72.992  0.00  0.00    +0.000 Cl
ATOM      2  C   UNL     1      62.792  67.497  72.673  0.00  0.00    +0.000 A 
ATOM      3  C   UNL     1      63.286  67.263  72.056  0.00  0.00    +0.000 A 
ATOM      4  C   UNL     1      63.218  66.505  71.738  0.00  0.00    +0.000 A 
ATOM      5  C   UNL     1      62.655  65.981  72.037  0.00  0.00    +0.000 A 
ATOM      6  C   UNL     1      62.586  65.223  71.719  0.00  0.00    +0.000 C 
ATOM      7  N   UNL     1      63.080  64.989  71.102  0.00  0.00    +0.000 N 
ATOM      8  C   UNL     1      63.076  64.252  70.729  0.00  0.00    +0.000 A 
ATOM      9  C   UNL     1      62.576  63.621  70.910  0.00  0.00    +0.000 C 
ATOM     10  N   UNL     1      62.016  63.697  71.512  0.00  0.00    +0.000 NA
ATOM     11  C   UNL     1      61.482  63.117  71.753  0.00  0.00    +0.000 C 
ATOM     12  C   UNL     1      61.028  63.427  72.368  0.00  0.00    +0.000 C 
ATOM     13  C   UNL     1      61.283  64.200  72.507  0.00  0.00    +0.000 C 
ATOM     14  C   UNL     1      61.893  64.366  71.978  0.00  0.00    +0.000 C 
ATOM     15  N   UNL     1      63.658  64.258  70.146  0.00  0.00    +0.000 NA
ATOM     16  C   UNL     1      64.023  64.998  70.157  0.00  0.00    +0.000 A 
ATOM     17  C   UNL     1      63.665  65.449  70.748  0.00  0.00    +0.000 A 
ATOM     18  C   UNL     1      63.920  66.222  70.886  0.00  0.00    +0.000 A 
ATOM     19  C   UNL     1      64.531  66.543  70.435  0.00  0.00    +0.000 A 
ATOM     20  C   UNL     1      64.888  66.091  69.844  0.00  0.00    +0.000 A 
ATOM     21  C   UNL     1      64.635  65.318  69.705  0.00  0.00    +0.000 A 
ATOM     22  C   UNL     1      62.160  66.216  72.654  0.00  0.00    +0.000 A 
ATOM     23  C   UNL     1      62.229  66.974  72.973  0.00  0.00    +0.000 A 
ENDROOT
TORSDOF 0
ENDMDL
MODEL 4
REMARK VINA RESULT:   -10.822      3.922      5.318
REMARK INTER + INTRA:         -10.822
REMARK INTER:                 -10.822
REMARK INTRA:                   0.000
REMARK UNBOUND:                 0.000
ROOT
REMARK  Name = clemizole
REMARK                            x       y       z     vdW  Elec       q    Type
REMARK                         _______ _______ _______ _____ _____    ______ ____
ATOM      1 CL   UNL     1      66.249  67.616  70.649  0.00  0.00    +0.000 Cl
ATOM      2  C   UNL     1      65.551  67.216  70.836  0.00  0.00    +0.000 A 
ATOM      3  C   UNL     1      65.011  67.552  71.361  0.00  0.00    +0.000 A 
ATOM      4  C   UNL     1      64.315  67.151  71.548  0.00  0.00    +0.000 A 
ATOM      5  C   UNL     1      64.158  66.415  71.209  0.00  0.00    +0.000 A 
ATOM      6  C   UNL     1      63.461  66.015  71.396  0.00  0.00    +0.000 C 
ATOM      7  N   UNL     1      62.921  66.351  71.921  0.00  0.00    +0.000 N 
ATOM      8  C   UNL     1      62.205  66.017  72.159  0.00  0.00    +0.000 A 
ATOM      9  C   UNL     1      61.903  65.290  71.913  0.00  0.00    +0.000 C 
ATOM     10  N   UNL     1      62.330  64.824  71.381  0.00  0.00    +0.000 NA
ATOM     11  C   UNL     1      62.099  64.089  71.087  0.00  0.00    +0.000 C 
ATOM     12  C   UNL     1      62.688  63.824  70.574  0.00  0.00    +0.000 C 
ATOM     13  C   UNL     1      63.282  64.396  70.551  0.00  0.00    +0.000 C 
ATOM     14  C   UNL     1      63.060  65.014  71.049  0.00  0.00    +0.000 C 
ATOM     15  N   UNL     1      61.843  66.539  72.685  0.00  0.00    +0.000 NA
ATOM     16  C   UNL     1      62.335  67.194  72.773  0.00  0.00    +0.000 A 
ATOM     17  C   UNL     1      63.002  67.078  72.300  0.00  0.00    +0.000 A 
ATOM     18  C   UNL     1      63.596  67.650  72.277  0.00  0.00    +0.000 A 
ATOM     19  C   UNL     1      63.524  68.338  72.726  0.00  0.00    +0.000 A 
ATOM     20  C   UNL     1      62.858  68.455  73.199  0.00  0.00    +0.000 A 
ATOM     21  C   UNL     1      62.263  67.883  73.222  0.00  0.00    +0.000 A 
ATOM     22  C   UNL     1      64.699  66.080  70.684  0.00  0.00    +0.000 A 
ATOM     23  C   UNL     1      65.395  66.480  70.497  0.00  0.00    +0.000 A 
ENDROOT
TORSDOF 0
ENDMDL
MODEL 5
REMARK VINA RESULT:   -10.805      1.419      3.477
REMARK INTER + INTRA:         -10.805
REMARK INTER:                 -10.805
REMARK INTRA:                   0.000
REMARK UNBOUND:                 0.000
ROOT
REMARK  Name = clemizole
REMARK                            x       y       z     vdW  Elec       q    Type
REMARK                         _______ _______ _______ _____ _____    ______ ____
ATOM      1 CL   UNL     1      59.622  66.803  70.525  0.00  0.00    +0.000 Cl
ATOM      2  C   UNL     1      59.792  66.015  70.343  0.00  0.00    +0.000 A 
ATOM      3  C   UNL     1      60.075  65.509  70.929  0.00  0.00    +0.000 A 
ATOM      4  C   UNL     1      60.244  64.722  70.747  0.00  0.00    +0.000 A 
ATOM      5  C   UNL     1      60.130  64.442  69.980  0.00  0.00    +0.000 A 
ATOM      6  C   UNL     1      60.300  63.656  69.798  0.00  0.00    +0.000 C 
ATOM      7  N   UNL     1      60.583  63.149  70.384  0.00  0.00    +0.000 N 
ATOM      8  C   UNL     1      60.776  62.353  70.285  0.00  0.00    +0.000 A 
ATOM      9  C   UNL     1      60.719  61.924  69.582  0.00  0.00    +0.000 C 
ATOM     10  N   UNL     1      60.448  62.292  68.894  0.00  0.00    +0.000 NA
ATOM     11  C   UNL     1      60.362  61.936  68.156  0.00  0.00    +0.000 C 
ATOM     12  C   UNL     1      60.077  62.504  67.630  0.00  0.00    +0.000 C 
ATOM     13  C   UNL     1      59.987  63.212  68.045  0.00  0.00    +0.000 C 
ATOM     14  C   UNL     1      60.216  63.080  68.827  0.00  0.00    +0.000 C 
ATOM     15  N   UNL     1      61.035  62.061  71.011  0.00  0.00    +0.000 NA
ATOM     16  C   UNL     1      61.003  62.677  71.559  0.00  0.00    +0.000 A 
ATOM     17  C   UNL     1      60.724  63.349  71.171  0.00  0.00    +0.000 A 
ATOM     18  C   UNL     1      60.634  64.057  71.586  0.00  0.00    +0.000 A 
ATOM     19  C   UNL     1      60.823  64.092  72.388  0.00  0.00    +0.000 A 
ATOM     20  C   UNL     1      61.102  63.419  72.776  0.00  0.00    +0.000 A 
ATOM     21  C   UNL     1      61.193  62.712  72.362  0.00  0.00    +0.000 A 
ATOM     22  C   UNL     1      59.847  64.950  69.394  0.00  0.00    +0.000 A 
ATOM     23  C   UNL     1      59.677  65.736  69.575  0.00  0.00    +0.000 A 
ENDROOT
TORSDOF 0
ENDMDL
MODEL 6
REMARK VINA RESULT:   -10.723      2.475      3.678
REMARK INTER + INTRA:         -10.723
REMARK INTER:                 -10.723
REMARK INTRA:                   0.000
REMARK UNBOUND:                 0.000
ROOT
REMARK  Name = clemizole
REMARK                            x       y       z     vdW  Elec       q    Type
REMARK                         _______ _______ _______ _____ _____    ______ ____
ATOM      1 CL   UNL     1      61.631  62.530  71.784  0.00  0.00    +0.000 Cl
ATOM      2  C   UNL     1      61.246  63.224  72.011  0.00  0.00    +0.000 A 
ATOM      3  C   UNL     1      61.679  63.913  72.143  0.00  0.00    +0.000 A 
ATOM      4  C   UNL     1      61.293  64.606  72.370  0.00  0.00    +0.000 A 
ATOM      5  C   UNL     1      60.474  64.610  72.466  0.00  0.00    +0.000 A 
ATOM      6  C   UNL     1      60.088  65.302  72.694  0.00  0.00    +0.000 C 
ATOM      7  N   UNL     1      60.522  65.991  72.825  0.00  0.00    +0.000 N 
ATOM      8  C   UNL     1      60.214  66.722  73.054  0.00  0.00    +0.000 A 
ATOM      9  C   UNL     1      59.418  66.891  73.190  0.00  0.00    +0.000 C 
ATOM     10  N   UNL     1      58.848  66.300  73.101  0.00  0.00    +0.000 NA
ATOM     11  C   UNL     1      58.037  66.387  73.217  0.00  0.00    +0.000 C 
ATOM     12  C   UNL     1      57.678  65.659  73.067  0.00  0.00    +0.000 C 
ATOM     13  C   UNL     1      58.269  65.123  72.857  0.00  0.00    +0.000 C 
ATOM     14  C   UNL     1      58.992  65.519  72.878  0.00  0.00    +0.000 C 
ATOM     15  N   UNL     1      60.841  67.253  73.121  0.00  0.00    +0.000 NA
ATOM     16  C   UNL     1      61.536  66.851  72.934  0.00  0.00    +0.000 A 
ATOM     17  C   UNL     1      61.339  66.071  72.752  0.00  0.00    +0.000 A 
ATOM     18  C   UNL     1      61.930  65.535  72.542  0.00  0.00    +0.000 A 
ATOM     19  C   UNL     1      62.717  65.778  72.515  0.00  0.00    +0.000 A 
ATOM     20  C   UNL     1      62.915  66.558  72.697  0.00  0.00    +0.000 A 
ATOM     21  C   UNL     1      62.325  67.095  72.907  0.00  0.00    +0.000 A 
ATOM     22  C   UNL     1      60.040  63.920  72.335  0.00  0.00    +0.000 A 
ATOM     23  C   UNL     1      60.426  63.227  72.107  0.00  0.00    +0.000 A 
ENDROOT
TORSDOF 0
ENDMDL
MODEL 7
REMARK VINA RESULT:   -10.709      1.464      3.547
REMARK INTER + INTRA:         -10.709
REMARK INTER:                 -10.709
REMARK INTRA:                   0.000
REMARK UNBOUND:                 0.000
ROOT
REMARK  Name = clemizole
REMARK                            x       y       z     vdW  Elec       q    Type
REMARK                         _______ _______ _______ _____ _____    ______ ____
ATOM      1 CL   UNL     1      60.041  62.281  67.460  0.00  0.00    +0.000 Cl
ATOM      2  C   UNL     1      60.218  62.510  68.233  0.00  0.00    +0.000 A 
ATOM      3  C   UNL     1      60.084  63.287  68.474  0.00  0.00    +0.000 A 
ATOM      4  C   UNL     1      60.261  63.515  69.247  0.00  0.00    +0.000 A 
ATOM      5  C   UNL     1      60.573  62.966  69.778  0.00  0.00    +0.000 A 
ATOM      6  C   UNL     1      60.751  63.194  70.551  0.00  0.00    +0.000 C 
ATOM      7  N   UNL     1      60.616  63.970  70.792  0.00  0.00    +0.000 N 
ATOM      8  C   UNL     1      60.765  64.278  71.544  0.00  0.00    +0.000 A 
ATOM      9  C   UNL     1      61.076  63.861  72.185  0.00  0.00    +0.000 C 
ATOM     10  N   UNL     1      61.266  63.062  72.105  0.00  0.00    +0.000 NA
ATOM     11  C   UNL     1      61.579  62.577  72.694  0.00  0.00    +0.000 C 
ATOM     12  C   UNL     1      61.684  61.823  72.375  0.00  0.00    +0.000 C 
ATOM     13  C   UNL     1      61.435  61.844  71.588  0.00  0.00    +0.000 C 
ATOM     14  C   UNL     1      61.177  62.609  71.421  0.00  0.00    +0.000 C 
ATOM     15  N   UNL     1      60.550  65.074  71.541  0.00  0.00    +0.000 NA
ATOM     16  C   UNL     1      60.267  65.259  70.789  0.00  0.00    +0.000 A 
ATOM     17  C   UNL     1      60.308  64.577  70.326  0.00  0.00    +0.000 A 
ATOM     18  C   UNL     1      60.059  64.597  69.540  0.00  0.00    +0.000 A 
ATOM     19  C   UNL     1      59.770  65.298  69.216  0.00  0.00    +0.000 A 
ATOM     20  C   UNL     1      59.730  65.980  69.679  0.00  0.00    +0.000 A 
ATOM     21  C   UNL     1      59.978  65.961  70.465  0.00  0.00    +0.000 A 
ATOM     22  C   UNL     1      60.708  62.188  69.536  0.00  0.00    +0.000 A 
ATOM     23  C   UNL     1      60.531  61.960  68.763  0.00  0.00    +0.000 A 
ENDROOT
TORSDOF 0
ENDMDL
MODEL 8
REMARK VINA RESULT:   -10.660      2.889      3.637
REMARK INTER + INTRA:         -10.660
REMARK INTER:                 -10.660
REMARK INTRA:                   0.000
REMARK UNBOUND:                 0.000
ROOT
REMARK  Name = clemizole
REMARK                            x       y       z     vdW  Elec       q    Type
REMARK                         _______ _______ _______ _____ _____    ______ ____
ATOM      1 CL   UNL     1      64.626  64.659  69.453  0.00  0.00    +0.000 Cl
ATOM      2  C   UNL     1      64.133  64.947  70.049  0.00  0.00    +0.000 A 
ATOM      3  C   UNL     1      63.562  64.457  70.386  0.00  0.00    +0.000 A 
ATOM      4  C   UNL     1      63.070  64.745  70.981  0.00  0.00    +0.000 A 
ATOM      5  C   UNL     1      63.148  65.524  71.241  0.00  0.00    +0.000 A 
ATOM      6  C   UNL     1      62.656  65.813  71.836  0.00  0.00    +0.000 C 
ATOM      7  N   UNL     1      62.085  65.322  72.173  0.00  0.00    +0.000 N 
ATOM      8  C   UNL     1      61.556  65.533  72.770  0.00  0.00    +0.000 A 
ATOM      9  C   UNL     1      61.505  66.271  73.135  0.00  0.00    +0.000 C 
ATOM     10  N   UNL     1      62.015  66.879  72.909  0.00  0.00    +0.000 NA
ATOM     11  C   UNL     1      62.029  67.642  73.222  0.00  0.00    +0.000 C 
ATOM     12  C   UNL     1      62.622  68.066  72.836  0.00  0.00    +0.000 C 
ATOM     13  C   UNL     1      62.974  67.564  72.283  0.00  0.00    +0.000 C 
ATOM     14  C   UNL     1      62.599  66.831  72.328  0.00  0.00    +0.000 C 
ATOM     15  N   UNL     1      61.086  64.875  72.938  0.00  0.00    +0.000 NA
ATOM     16  C   UNL     1      61.325  64.259  72.444  0.00  0.00    +0.000 A 
ATOM     17  C   UNL     1      61.942  64.536  71.972  0.00  0.00    +0.000 A 
ATOM     18  C   UNL     1      62.294  64.034  71.419  0.00  0.00    +0.000 A 
ATOM     19  C   UNL     1      62.030  63.257  71.339  0.00  0.00    +0.000 A 
ATOM     20  C   UNL     1      61.412  62.981  71.812  0.00  0.00    +0.000 A 
ATOM     21  C   UNL     1      61.060  63.482  72.364  0.00  0.00    +0.000 A 
ATOM     22  C   UNL     1      63.720  66.015  70.904  0.00  0.00    +0.000 A 
ATOM     23  C   UNL     1      64.212  65.727  70.308  0.00  0.00    +0.000 A 
ENDROOT
TORSDOF 0
ENDMDL
MODEL 9
REMARK VINA RESULT:   -10.588      2.405      3.614
REMARK INTER + INTRA:         -10.588
REMARK INTER:                 -10.588
REMARK INTRA:                   0.000
REMARK UNBOUND:                 0.000
ROOT
REMARK  Name = clemizole
REMARK                            x       y       z     vdW  Elec       q    Type
REMARK                         _______ _______ _______ _____ _____    ______ ____
ATOM      1 CL   UNL     1      61.106  62.373  71.796  0.00  0.00    +0.000 Cl
ATOM      2  C   UNL     1      61.162  63.180  71.964  0.00  0.00    +0.000 A 
ATOM      3  C   UNL     1      60.484  63.610  72.151  0.00  0.00    +0.000 A 
ATOM      4  C   UNL     1      60.540  64.416  72.319  0.00  0.00    +0.000 A 
ATOM      5  C   UNL     1      61.274  64.791  72.300  0.00  0.00    +0.000 A 
ATOM      6  C   UNL     1      61.331  65.597  72.468  0.00  0.00    +0.000 C 
ATOM      7  N   UNL     1      60.653  66.027  72.655  0.00  0.00    +0.000 N 
ATOM      8  C   UNL     1      60.623  66.832  72.834  0.00  0.00    +0.000 A 
ATOM      9  C   UNL     1      61.267  67.347  72.858  0.00  0.00    +0.000 C 
ATOM     10  N   UNL     1      62.027  67.068  72.693  0.00  0.00    +0.000 NA
ATOM     11  C   UNL     1      62.719  67.515  72.696  0.00  0.00    +0.000 C 
ATOM     12  C   UNL     1      63.346  67.016  72.501  0.00  0.00    +0.000 C 
ATOM     13  C   UNL     1      63.040  66.259  72.378  0.00  0.00    +0.000 C 
ATOM     14  C   UNL     1      62.224  66.292  72.497  0.00  0.00    +0.000 C 
ATOM     15  N   UNL     1      59.838  67.031  72.985  0.00  0.00    +0.000 NA
ATOM     16  C   UNL     1      59.381  66.350  72.899  0.00  0.00    +0.000 A 
ATOM     17  C   UNL     1      59.885  65.729  72.695  0.00  0.00    +0.000 A 
ATOM     18  C   UNL     1      59.579  64.973  72.572  0.00  0.00    +0.000 A 
ATOM     19  C   UNL     1      58.770  64.837  72.654  0.00  0.00    +0.000 A 
ATOM     20  C   UNL     1      58.266  65.457  72.858  0.00  0.00    +0.000 A 
ATOM     21  C   UNL     1      58.571  66.214  72.981  0.00  0.00    +0.000 A 
ATOM     22  C   UNL     1      61.953  64.360  72.113  0.00  0.00    +0.000 A 
ATOM     23  C   UNL     1      61.897  63.554  71.945  0.00  0.00    +0.000 A 
ENDROOT
TORSDOF 0
ENDMDL
