MODEL 1
REMARK VINA RESULT:    -9.117      0.000      0.000
REMARK INTER + INTRA:          -9.117
REMARK INTER:                  -9.117
REMARK INTRA:                   0.000
REMARK UNBOUND:                 0.000
ROOT
REMARK  Name = clevudine
REMARK                            x       y       z     vdW  Elec       q    Type
REMARK                         _______ _______ _______ _____ _____    ______ ____
ATOM      1  C   UNL     1      61.563  63.574  68.241  0.00  0.00    +0.000 C 
ATOM      2  C   UNL     1      61.053  63.148  67.751  0.00  0.00    +0.000 A 
ATOM      3  C   UNL     1      61.316  62.881  67.016  0.00  0.00    +0.000 A 
ATOM      4  N   UNL     1      60.807  62.456  66.525  0.00  0.00    +0.000 N 
ATOM      5  C   UNL     1      61.070  62.188  65.790  0.00  0.00    +0.000 C 
ATOM      6  O   UNL     1      61.823  62.304  65.473  0.00  0.00    +0.000 OA
ATOM      7  C   UNL     1      61.844  61.945  64.731  0.00  0.00    +0.000 C 
ATOM      8  C   UNL     1      62.492  61.927  64.219  0.00  0.00    +0.000 C 
ATOM      9  O   UNL     1      62.432  61.546  63.490  0.00  0.00    +0.000 OA
ATOM     10  C   UNL     1      61.104  61.608  64.589  0.00  0.00    +0.000 C 
ATOM     11  O   UNL     1      60.883  61.194  63.910  0.00  0.00    +0.000 OA
ATOM     12  C   UNL     1      60.626  61.758  65.243  0.00  0.00    +0.000 C 
ATOM     13  F   UNL     1      59.842  61.521  65.335  0.00  0.00    +0.000 F 
ATOM     14  C   UNL     1      60.035  62.297  66.770  0.00  0.00    +0.000 A 
ATOM     15  O   UNL     1      59.526  61.872  66.279  0.00  0.00    +0.000 OA
ATOM     16  N   UNL     1      59.772  62.565  67.505  0.00  0.00    +0.000 NA
ATOM     17  C   UNL     1      60.282  62.990  67.995  0.00  0.00    +0.000 A 
ATOM     18  O   UNL     1      60.019  63.258  68.730  0.00  0.00    +0.000 OA
ENDROOT
TORSDOF 0
ENDMDL
MODEL 2
REMARK VINA RESULT:    -9.105      1.009      3.473
REMARK INTER + INTRA:          -9.105
REMARK INTER:                  -9.105
REMARK INTRA:                   0.000
REMARK UNBOUND:                 0.000
ROOT
REMARK  Name = clevudine
REMARK                            x       y       z     vdW  Elec       q    Type
REMARK                         _______ _______ _______ _____ _____    ______ ____
ATOM      1  C   UNL     1      62.373  61.984  64.701  0.00  0.00    +0.000 C 
ATOM      2  C   UNL     1      61.679  62.000  65.149  0.00  0.00    +0.000 A 
ATOM      3  C   UNL     1      61.673  62.371  65.885  0.00  0.00    +0.000 A 
ATOM      4  N   UNL     1      60.980  62.387  66.333  0.00  0.00    +0.000 N 
ATOM      5  C   UNL     1      60.973  62.759  67.070  0.00  0.00    +0.000 C 
ATOM      6  O   UNL     1      61.613  63.137  67.428  0.00  0.00    +0.000 OA
ATOM      7  C   UNL     1      61.360  63.429  68.157  0.00  0.00    +0.000 C 
ATOM      8  C   UNL     1      61.822  63.846  68.699  0.00  0.00    +0.000 C 
ATOM      9  O   UNL     1      61.493  64.106  69.409  0.00  0.00    +0.000 OA
ATOM     10  C   UNL     1      60.564  63.233  68.248  0.00  0.00    +0.000 C 
ATOM     11  O   UNL     1      60.091  63.418  68.899  0.00  0.00    +0.000 OA
ATOM     12  C   UNL     1      60.325  62.818  67.577  0.00  0.00    +0.000 C 
ATOM     13  F   UNL     1      59.571  62.517  67.437  0.00  0.00    +0.000 F 
ATOM     14  C   UNL     1      60.294  62.031  66.044  0.00  0.00    +0.000 A 
ATOM     15  O   UNL     1      59.602  62.047  66.492  0.00  0.00    +0.000 OA
ATOM     16  N   UNL     1      60.301  61.659  65.308  0.00  0.00    +0.000 NA
ATOM     17  C   UNL     1      60.994  61.644  64.860  0.00  0.00    +0.000 A 
ATOM     18  O   UNL     1      61.001  61.272  64.124  0.00  0.00    +0.000 OA
ENDROOT
TORSDOF 0
ENDMDL
MODEL 3
REMARK VINA RESULT:    -8.426      1.584      2.187
REMARK INTER + INTRA:          -8.426
REMARK INTER:                  -8.426
REMARK INTRA:                   0.000
REMARK UNBOUND:                 0.000
ROOT
REMARK  Name = clevudine
REMARK                            x       y       z     vdW  Elec       q    Type
REMARK                         _______ _______ _______ _____ _____    ______ ____
ATOM      1  C   UNL     1      60.485  61.616  70.124  0.00  0.00    +0.000 C 
ATOM      2  C   UNL     1      60.573  62.226  69.576  0.00  0.00    +0.000 A 
ATOM      3  C   UNL     1      60.819  62.057  68.807  0.00  0.00    +0.000 A 
ATOM      4  N   UNL     1      60.907  62.666  68.258  0.00  0.00    +0.000 N 
ATOM      5  C   UNL     1      61.153  62.497  67.489  0.00  0.00    +0.000 C 
ATOM      6  O   UNL     1      61.330  61.749  67.190  0.00  0.00    +0.000 OA
ATOM      7  C   UNL     1      61.552  61.836  66.401  0.00  0.00    +0.000 C 
ATOM      8  C   UNL     1      61.775  61.227  65.889  0.00  0.00    +0.000 C 
ATOM      9  O   UNL     1      61.983  61.398  65.110  0.00  0.00    +0.000 OA
ATOM     10  C   UNL     1      61.512  62.638  66.211  0.00  0.00    +0.000 C 
ATOM     11  O   UNL     1      61.687  62.972  65.477  0.00  0.00    +0.000 OA
ATOM     12  C   UNL     1      61.265  63.047  66.883  0.00  0.00    +0.000 C 
ATOM     13  F   UNL     1      61.151  63.861  66.941  0.00  0.00    +0.000 F 
ATOM     14  C   UNL     1      60.749  63.446  68.479  0.00  0.00    +0.000 A 
ATOM     15  O   UNL     1      60.838  64.055  67.930  0.00  0.00    +0.000 OA
ATOM     16  N   UNL     1      60.503  63.615  69.248  0.00  0.00    +0.000 NA
ATOM     17  C   UNL     1      60.415  63.005  69.796  0.00  0.00    +0.000 A 
ATOM     18  O   UNL     1      60.169  63.174  70.565  0.00  0.00    +0.000 OA
ENDROOT
TORSDOF 0
ENDMDL
MODEL 4
REMARK VINA RESULT:    -8.179      1.682      4.157
REMARK INTER + INTRA:          -8.179
REMARK INTER:                  -8.179
REMARK INTRA:                   0.000
REMARK UNBOUND:                 0.000
ROOT
REMARK  Name = clevudine
REMARK                            x       y       z     vdW  Elec       q    Type
REMARK                         _______ _______ _______ _____ _____    ______ ____
ATOM      1  C   UNL     1      58.972  62.066  66.350  0.00  0.00    +0.000 C 
ATOM      2  C   UNL     1      59.736  62.300  66.558  0.00  0.00    +0.000 A 
ATOM      3  C   UNL     1      59.863  62.712  67.262  0.00  0.00    +0.000 A 
ATOM      4  N   UNL     1      60.626  62.946  67.471  0.00  0.00    +0.000 N 
ATOM      5  C   UNL     1      60.753  63.358  68.174  0.00  0.00    +0.000 C 
ATOM      6  O   UNL     1      60.175  63.574  68.721  0.00  0.00    +0.000 OA
ATOM      7  C   UNL     1      60.545  63.976  69.338  0.00  0.00    +0.000 C 
ATOM      8  C   UNL     1      60.173  64.290  70.005  0.00  0.00    +0.000 C 
ATOM      9  O   UNL     1      60.618  64.680  70.581  0.00  0.00    +0.000 OA
ATOM     10  C   UNL     1      61.353  64.008  69.173  0.00  0.00    +0.000 C 
ATOM     11  O   UNL     1      61.931  64.361  69.646  0.00  0.00    +0.000 OA
ATOM     12  C   UNL     1      61.482  63.627  68.454  0.00  0.00    +0.000 C 
ATOM     13  F   UNL     1      62.210  63.530  68.079  0.00  0.00    +0.000 F 
ATOM     14  C   UNL     1      61.262  62.768  66.975  0.00  0.00    +0.000 A 
ATOM     15  O   UNL     1      62.025  63.003  67.185  0.00  0.00    +0.000 OA
ATOM     16  N   UNL     1      61.135  62.356  66.272  0.00  0.00    +0.000 NA
ATOM     17  C   UNL     1      60.371  62.122  66.064  0.00  0.00    +0.000 A 
ATOM     18  O   UNL     1      60.244  61.710  65.361  0.00  0.00    +0.000 OA
ENDROOT
TORSDOF 0
ENDMDL
MODEL 5
REMARK VINA RESULT:    -7.964      2.867      4.136
REMARK INTER + INTRA:          -7.964
REMARK INTER:                  -7.964
REMARK INTRA:                   0.000
REMARK UNBOUND:                 0.000
ROOT
REMARK  Name = clevudine
REMARK                            x       y       z     vdW  Elec       q    Type
REMARK                         _______ _______ _______ _____ _____    ______ ____
ATOM      1  C   UNL     1      62.194  64.531  71.631  0.00  0.00    +0.000 C 
ATOM      2  C   UNL     1      61.732  63.870  71.458  0.00  0.00    +0.000 A 
ATOM      3  C   UNL     1      61.581  63.667  70.672  0.00  0.00    +0.000 A 
ATOM      4  N   UNL     1      61.118  63.007  70.498  0.00  0.00    +0.000 N 
ATOM      5  C   UNL     1      60.968  62.804  69.712  0.00  0.00    +0.000 C 
ATOM      6  O   UNL     1      61.241  63.207  69.047  0.00  0.00    +0.000 OA
ATOM      7  C   UNL     1      60.959  62.815  68.378  0.00  0.00    +0.000 C 
ATOM      8  C   UNL     1      61.100  63.030  67.594  0.00  0.00    +0.000 C 
ATOM      9  O   UNL     1      60.781  62.583  66.979  0.00  0.00    +0.000 OA
ATOM     10  C   UNL     1      60.512  62.169  68.631  0.00  0.00    +0.000 C 
ATOM     11  O   UNL     1      60.127  61.625  68.143  0.00  0.00    +0.000 OA
ATOM     12  C   UNL     1      60.517  62.162  69.455  0.00  0.00    +0.000 C 
ATOM     13  F   UNL     1      60.139  61.611  69.938  0.00  0.00    +0.000 F 
ATOM     14  C   UNL     1      60.807  62.549  71.110  0.00  0.00    +0.000 A 
ATOM     15  O   UNL     1      60.344  61.888  70.935  0.00  0.00    +0.000 OA
ATOM     16  N   UNL     1      60.957  62.752  71.895  0.00  0.00    +0.000 NA
ATOM     17  C   UNL     1      61.420  63.413  72.068  0.00  0.00    +0.000 A 
ATOM     18  O   UNL     1      61.571  63.615  72.854  0.00  0.00    +0.000 OA
ENDROOT
TORSDOF 0
ENDMDL
MODEL 6
REMARK VINA RESULT:    -7.921      2.995      5.401
REMARK INTER + INTRA:          -7.921
REMARK INTER:                  -7.921
REMARK INTRA:                   0.000
REMARK UNBOUND:                 0.000
ROOT
REMARK  Name = clevudine
REMARK                            x       y       z     vdW  Elec       q    Type
REMARK                         _______ _______ _______ _____ _____    ______ ____
ATOM      1  C   UNL     1      61.015  63.421  67.740  0.00  0.00    +0.000 C 
ATOM      2  C   UNL     1      60.824  62.962  68.398  0.00  0.00    +0.000 A 
ATOM      3  C   UNL     1      61.026  63.222  69.155  0.00  0.00    +0.000 A 
ATOM      4  N   UNL     1      60.836  62.764  69.814  0.00  0.00    +0.000 N 
ATOM      5  C   UNL     1      61.038  63.024  70.570  0.00  0.00    +0.000 C 
ATOM      6  O   UNL     1      61.430  63.727  70.753  0.00  0.00    +0.000 OA
ATOM      7  C   UNL     1      61.518  63.764  71.571  0.00  0.00    +0.000 C 
ATOM      8  C   UNL     1      61.879  64.374  71.993  0.00  0.00    +0.000 C 
ATOM      9  O   UNL     1      61.928  64.336  72.816  0.00  0.00    +0.000 OA
ATOM     10  C   UNL     1      61.181  63.084  71.895  0.00  0.00    +0.000 C 
ATOM     11  O   UNL     1      61.147  62.895  72.698  0.00  0.00    +0.000 OA
ATOM     12  C   UNL     1      60.885  62.627  71.277  0.00  0.00    +0.000 C 
ATOM     13  F   UNL     1      60.502  61.900  71.351  0.00  0.00    +0.000 F 
ATOM     14  C   UNL     1      60.443  62.044  69.716  0.00  0.00    +0.000 A 
ATOM     15  O   UNL     1      60.253  61.586  70.375  0.00  0.00    +0.000 OA
ATOM     16  N   UNL     1      60.241  61.784  68.959  0.00  0.00    +0.000 NA
ATOM     17  C   UNL     1      60.432  62.243  68.301  0.00  0.00    +0.000 A 
ATOM     18  O   UNL     1      60.230  61.983  67.545  0.00  0.00    +0.000 OA
ENDROOT
TORSDOF 0
ENDMDL
MODEL 7
REMARK VINA RESULT:    -7.862      4.496      5.548
REMARK INTER + INTRA:          -7.862
REMARK INTER:                  -7.862
REMARK INTRA:                   0.000
REMARK UNBOUND:                 0.000
ROOT
REMARK  Name = clevudine
REMARK                            x       y       z     vdW  Elec       q    Type
REMARK                         _______ _______ _______ _____ _____    ______ ____
ATOM      1  C   UNL     1      61.562  62.766  72.735  0.00  0.00    +0.000 C 
ATOM      2  C   UNL     1      61.310  62.806  71.950  0.00  0.00    +0.000 A 
ATOM      3  C   UNL     1      60.965  63.498  71.663  0.00  0.00    +0.000 A 
ATOM      4  N   UNL     1      60.713  63.540  70.879  0.00  0.00    +0.000 N 
ATOM      5  C   UNL     1      60.367  64.232  70.593  0.00  0.00    +0.000 C 
ATOM      6  O   UNL     1      60.238  64.924  71.023  0.00  0.00    +0.000 OA
ATOM      7  C   UNL     1      59.881  65.473  70.522  0.00  0.00    +0.000 C 
ATOM      8  C   UNL     1      59.655  66.240  70.725  0.00  0.00    +0.000 C 
ATOM      9  O   UNL     1      59.302  66.730  70.163  0.00  0.00    +0.000 OA
ATOM     10  C   UNL     1      59.790  65.121  69.781  0.00  0.00    +0.000 C 
ATOM     11  O   UNL     1      59.456  65.474  69.114  0.00  0.00    +0.000 OA
ATOM     12  C   UNL     1      60.090  64.354  69.825  0.00  0.00    +0.000 C 
ATOM     13  F   UNL     1      60.110  63.805  69.210  0.00  0.00    +0.000 F 
ATOM     14  C   UNL     1      60.806  62.888  70.381  0.00  0.00    +0.000 A 
ATOM     15  O   UNL     1      60.554  62.930  69.597  0.00  0.00    +0.000 OA
ATOM     16  N   UNL     1      61.152  62.196  70.668  0.00  0.00    +0.000 NA
ATOM     17  C   UNL     1      61.404  62.156  71.452  0.00  0.00    +0.000 A 
ATOM     18  O   UNL     1      61.749  61.464  71.739  0.00  0.00    +0.000 OA
ENDROOT
TORSDOF 0
ENDMDL
MODEL 8
REMARK VINA RESULT:    -7.808      5.724      7.130
REMARK INTER + INTRA:          -7.808
REMARK INTER:                  -7.808
REMARK INTRA:                   0.000
REMARK UNBOUND:                 0.000
ROOT
REMARK  Name = clevudine
REMARK                            x       y       z     vdW  Elec       q    Type
REMARK                         _______ _______ _______ _____ _____    ______ ____
ATOM      1  C   UNL     1      66.095  66.863  71.940  0.00  0.00    +0.000 C 
ATOM      2  C   UNL     1      65.632  66.740  71.269  0.00  0.00    +0.000 A 
ATOM      3  C   UNL     1      64.955  66.272  71.316  0.00  0.00    +0.000 A 
ATOM      4  N   UNL     1      64.491  66.148  70.645  0.00  0.00    +0.000 N 
ATOM      5  C   UNL     1      63.813  65.679  70.692  0.00  0.00    +0.000 C 
ATOM      6  O   UNL     1      63.531  65.301  71.368  0.00  0.00    +0.000 OA
ATOM      7  C   UNL     1      62.843  64.895  71.165  0.00  0.00    +0.000 C 
ATOM      8  C   UNL     1      62.379  64.441  71.675  0.00  0.00    +0.000 C 
ATOM      9  O   UNL     1      61.701  64.065  71.392  0.00  0.00    +0.000 OA
ATOM     10  C   UNL     1      62.699  65.023  70.363  0.00  0.00    +0.000 C 
ATOM     11  O   UNL     1      62.066  64.719  69.929  0.00  0.00    +0.000 OA
ATOM     12  C   UNL     1      63.299  65.507  70.070  0.00  0.00    +0.000 C 
ATOM     13  F   UNL     1      63.371  65.773  69.293  0.00  0.00    +0.000 F 
ATOM     14  C   UNL     1      64.705  66.493  69.926  0.00  0.00    +0.000 A 
ATOM     15  O   UNL     1      64.242  66.368  69.255  0.00  0.00    +0.000 OA
ATOM     16  N   UNL     1      65.383  66.961  69.879  0.00  0.00    +0.000 NA
ATOM     17  C   UNL     1      65.846  67.084  70.551  0.00  0.00    +0.000 A 
ATOM     18  O   UNL     1      66.524  67.552  70.504  0.00  0.00    +0.000 OA
ENDROOT
TORSDOF 0
ENDMDL
MODEL 9
REMARK VINA RESULT:    -7.720      2.961      4.348
REMARK INTER + INTRA:          -7.720
REMARK INTER:                  -7.720
REMARK INTRA:                   0.000
REMARK UNBOUND:                 0.000
ROOT
REMARK  Name = clevudine
REMARK                            x       y       z     vdW  Elec       q    Type
REMARK                         _______ _______ _______ _____ _____    ______ ____
ATOM      1  C   UNL     1      59.873  67.140  69.059  0.00  0.00    +0.000 C 
ATOM      2  C   UNL     1      59.844  66.428  69.474  0.00  0.00    +0.000 A 
ATOM      3  C   UNL     1      60.090  65.729  69.110  0.00  0.00    +0.000 A 
ATOM      4  N   UNL     1      60.061  65.016  69.524  0.00  0.00    +0.000 N 
ATOM      5  C   UNL     1      60.306  64.317  69.160  0.00  0.00    +0.000 C 
ATOM      6  O   UNL     1      60.592  64.246  68.390  0.00  0.00    +0.000 OA
ATOM      7  C   UNL     1      60.771  63.452  68.257  0.00  0.00    +0.000 C 
ATOM      8  C   UNL     1      61.073  63.133  67.558  0.00  0.00    +0.000 C 
ATOM      9  O   UNL     1      61.226  62.324  67.505  0.00  0.00    +0.000 OA
ATOM     10  C   UNL     1      60.596  63.033  68.946  0.00  0.00    +0.000 C 
ATOM     11  O   UNL     1      60.692  62.220  69.056  0.00  0.00    +0.000 OA
ATOM     12  C   UNL     1      60.309  63.567  69.504  0.00  0.00    +0.000 C 
ATOM     13  F   UNL     1      60.067  63.384  70.271  0.00  0.00    +0.000 F 
ATOM     14  C   UNL     1      59.787  65.002  70.303  0.00  0.00    +0.000 A 
ATOM     15  O   UNL     1      59.758  64.289  70.716  0.00  0.00    +0.000 OA
ATOM     16  N   UNL     1      59.541  65.701  70.666  0.00  0.00    +0.000 NA
ATOM     17  C   UNL     1      59.570  66.413  70.251  0.00  0.00    +0.000 A 
ATOM     18  O   UNL     1      59.325  67.112  70.615  0.00  0.00    +0.000 OA
ENDROOT
TORSDOF 0
ENDMDL
