MODEL 1
REMARK VINA RESULT:   -12.109      0.000      0.000
REMARK INTER + INTRA:         -12.109
REMARK INTER:                 -12.109
REMARK INTRA:                   0.000
REMARK UNBOUND:                 0.000
ROOT
REMARK  Name = clindamycin
REMARK                            x       y       z     vdW  Elec       q    Type
REMARK                         _______ _______ _______ _____ _____    ______ ____
ATOM      1  C   UNL     1      61.954  61.324  64.067  0.00  0.00    +0.000 C 
ATOM      2  C   UNL     1      61.736  61.809  64.698  0.00  0.00    +0.000 C 
ATOM      3  C   UNL     1      61.608  61.481  65.444  0.00  0.00    +0.000 C 
ATOM      4  C   UNL     1      61.390  61.964  66.075  0.00  0.00    +0.000 C 
ATOM      5  C   UNL     1      61.244  61.717  66.848  0.00  0.00    +0.000 C 
ATOM      6  C   UNL     1      61.044  62.380  67.296  0.00  0.00    +0.000 C 
ATOM      7  N   UNL     1      61.065  63.039  66.798  0.00  0.00    +0.000 NA
ATOM      8  C   UNL     1      60.901  63.817  67.017  0.00  0.00    +0.000 C 
ATOM      9  C   UNL     1      61.279  62.782  66.044  0.00  0.00    +0.000 C 
ATOM     10  C   UNL     1      60.854  62.386  68.099  0.00  0.00    +0.000 C 
ATOM     11  O   UNL     1      60.856  61.680  68.526  0.00  0.00    +0.000 OA
ATOM     12  N   UNL     1      60.664  63.096  68.473  0.00  0.00    +0.000 NA
ATOM     13  C   UNL     1      60.475  63.100  69.276  0.00  0.00    +0.000 C 
ATOM     14  C   UNL     1      60.476  62.395  69.705  0.00  0.00    +0.000 C 
ATOM     15  C   UNL     1      60.667  61.686  69.330  0.00  0.00    +0.000 C 
ATOM     16 CL   UNL     1      60.287  62.400  70.507  0.00  0.00    +0.000 Cl
ATOM     17  C   UNL     1      60.284  63.811  69.651  0.00  0.00    +0.000 C 
ATOM     18  O   UNL     1      60.095  63.815  70.454  0.00  0.00    +0.000 OA
ATOM     19  C   UNL     1      59.905  64.525  70.828  0.00  0.00    +0.000 C 
ATOM     20  S   UNL     1      59.716  64.530  71.631  0.00  0.00    +0.000 S 
ATOM     21  C   UNL     1      59.717  63.825  72.060  0.00  0.00    +0.000 C 
ATOM     22  C   UNL     1      59.903  65.230  70.399  0.00  0.00    +0.000 C 
ATOM     23  O   UNL     1      59.713  65.940  70.774  0.00  0.00    +0.000 OA
ATOM     24  C   UNL     1      60.092  65.225  69.597  0.00  0.00    +0.000 C 
ATOM     25  O   UNL     1      60.091  65.930  69.169  0.00  0.00    +0.000 OA
ATOM     26  C   UNL     1      60.283  64.515  69.222  0.00  0.00    +0.000 C 
ATOM     27  O   UNL     1      60.472  64.511  68.420  0.00  0.00    +0.000 OA
ENDROOT
TORSDOF 0
ENDMDL
MODEL 2
REMARK VINA RESULT:   -11.675      3.726      5.035
REMARK INTER + INTRA:         -11.675
REMARK INTER:                 -11.675
REMARK INTRA:                   0.000
REMARK UNBOUND:                 0.000
ROOT
REMARK  Name = clindamycin
REMARK                            x       y       z     vdW  Elec       q    Type
REMARK                         _______ _______ _______ _____ _____    ______ ____
ATOM      1  C   UNL     1      66.877  68.161  69.946  0.00  0.00    +0.000 C 
ATOM      2  C   UNL     1      66.274  67.608  69.839  0.00  0.00    +0.000 C 
ATOM      3  C   UNL     1      65.781  67.409  70.470  0.00  0.00    +0.000 C 
ATOM      4  C   UNL     1      65.178  66.856  70.363  0.00  0.00    +0.000 C 
ATOM      5  C   UNL     1      64.644  66.603  70.939  0.00  0.00    +0.000 C 
ATOM      6  C   UNL     1      64.140  66.050  70.594  0.00  0.00    +0.000 C 
ATOM      7  N   UNL     1      64.361  65.960  69.804  0.00  0.00    +0.000 NA
ATOM      8  C   UNL     1      64.004  65.460  69.254  0.00  0.00    +0.000 C 
ATOM      9  C   UNL     1      65.003  66.458  69.662  0.00  0.00    +0.000 C 
ATOM     10  C   UNL     1      63.522  65.654  70.972  0.00  0.00    +0.000 C 
ATOM     11  O   UNL     1      63.365  65.802  71.768  0.00  0.00    +0.000 OA
ATOM     12  N   UNL     1      63.061  65.113  70.553  0.00  0.00    +0.000 NA
ATOM     13  C   UNL     1      62.444  64.718  70.931  0.00  0.00    +0.000 C 
ATOM     14  C   UNL     1      62.286  64.865  71.727  0.00  0.00    +0.000 C 
ATOM     15  C   UNL     1      62.746  65.406  72.146  0.00  0.00    +0.000 C 
ATOM     16 CL   UNL     1      61.668  64.470  72.105  0.00  0.00    +0.000 Cl
ATOM     17  C   UNL     1      61.983  64.176  70.512  0.00  0.00    +0.000 C 
ATOM     18  O   UNL     1      61.365  63.781  70.890  0.00  0.00    +0.000 OA
ATOM     19  C   UNL     1      60.904  63.239  70.472  0.00  0.00    +0.000 C 
ATOM     20  S   UNL     1      60.287  62.845  70.849  0.00  0.00    +0.000 S 
ATOM     21  C   UNL     1      60.129  62.991  71.646  0.00  0.00    +0.000 C 
ATOM     22  C   UNL     1      61.063  63.093  69.675  0.00  0.00    +0.000 C 
ATOM     23  O   UNL     1      60.602  62.551  69.257  0.00  0.00    +0.000 OA
ATOM     24  C   UNL     1      61.680  63.488  69.297  0.00  0.00    +0.000 C 
ATOM     25  O   UNL     1      61.838  63.341  68.502  0.00  0.00    +0.000 OA
ATOM     26  C   UNL     1      62.140  64.029  69.716  0.00  0.00    +0.000 C 
ATOM     27  O   UNL     1      62.758  64.424  69.338  0.00  0.00    +0.000 OA
ENDROOT
TORSDOF 0
ENDMDL
MODEL 3
REMARK VINA RESULT:   -11.616      1.627      2.175
REMARK INTER + INTRA:         -11.616
REMARK INTER:                 -11.616
REMARK INTRA:                   0.000
REMARK UNBOUND:                 0.000
ROOT
REMARK  Name = clindamycin
REMARK                            x       y       z     vdW  Elec       q    Type
REMARK                         _______ _______ _______ _____ _____    ______ ____
ATOM      1  C   UNL     1      60.866  61.386  64.574  0.00  0.00    +0.000 C 
ATOM      2  C   UNL     1      60.792  61.558  65.378  0.00  0.00    +0.000 C 
ATOM      3  C   UNL     1      61.279  62.127  65.725  0.00  0.00    +0.000 C 
ATOM      4  C   UNL     1      61.205  62.299  66.527  0.00  0.00    +0.000 C 
ATOM      5  C   UNL     1      61.650  62.851  66.948  0.00  0.00    +0.000 C 
ATOM      6  C   UNL     1      61.393  62.843  67.732  0.00  0.00    +0.000 C 
ATOM      7  N   UNL     1      60.788  62.285  67.796  0.00  0.00    +0.000 NA
ATOM      8  C   UNL     1      60.372  62.096  68.483  0.00  0.00    +0.000 C 
ATOM      9  C   UNL     1      60.672  61.949  67.052  0.00  0.00    +0.000 C 
ATOM     10  C   UNL     1      61.688  63.309  68.345  0.00  0.00    +0.000 C 
ATOM     11  O   UNL     1      62.297  63.846  68.197  0.00  0.00    +0.000 OA
ATOM     12  N   UNL     1      61.374  63.240  69.105  0.00  0.00    +0.000 NA
ATOM     13  C   UNL     1      61.670  63.706  69.717  0.00  0.00    +0.000 C 
ATOM     14  C   UNL     1      62.279  64.243  69.570  0.00  0.00    +0.000 C 
ATOM     15  C   UNL     1      62.593  64.313  68.811  0.00  0.00    +0.000 C 
ATOM     16 CL   UNL     1      62.575  64.710  70.182  0.00  0.00    +0.000 Cl
ATOM     17  C   UNL     1      61.356  63.637  70.478  0.00  0.00    +0.000 C 
ATOM     18  O   UNL     1      61.652  64.104  71.090  0.00  0.00    +0.000 OA
ATOM     19  C   UNL     1      61.338  64.034  71.850  0.00  0.00    +0.000 C 
ATOM     20  S   UNL     1      61.633  64.501  72.462  0.00  0.00    +0.000 S 
ATOM     21  C   UNL     1      62.243  65.038  72.315  0.00  0.00    +0.000 C 
ATOM     22  C   UNL     1      60.729  63.498  71.996  0.00  0.00    +0.000 C 
ATOM     23  O   UNL     1      60.415  63.428  72.756  0.00  0.00    +0.000 OA
ATOM     24  C   UNL     1      60.433  63.031  71.384  0.00  0.00    +0.000 C 
ATOM     25  O   UNL     1      59.824  62.495  71.531  0.00  0.00    +0.000 OA
ATOM     26  C   UNL     1      60.747  63.101  70.624  0.00  0.00    +0.000 C 
ATOM     27  O   UNL     1      60.452  62.634  70.012  0.00  0.00    +0.000 OA
ENDROOT
TORSDOF 0
ENDMDL
MODEL 4
REMARK VINA RESULT:   -11.557      3.797      5.032
REMARK INTER + INTRA:         -11.557
REMARK INTER:                 -11.557
REMARK INTRA:                   0.000
REMARK UNBOUND:                 0.000
ROOT
REMARK  Name = clindamycin
REMARK                            x       y       z     vdW  Elec       q    Type
REMARK                         _______ _______ _______ _____ _____    ______ ____
ATOM      1  C   UNL     1      66.914  68.045  69.833  0.00  0.00    +0.000 C 
ATOM      2  C   UNL     1      66.248  67.702  70.178  0.00  0.00    +0.000 C 
ATOM      3  C   UNL     1      65.876  67.064  69.810  0.00  0.00    +0.000 C 
ATOM      4  C   UNL     1      65.210  66.721  70.154  0.00  0.00    +0.000 C 
ATOM      5  C   UNL     1      64.782  66.084  69.852  0.00  0.00    +0.000 C 
ATOM      6  C   UNL     1      64.162  65.923  70.372  0.00  0.00    +0.000 C 
ATOM      7  N   UNL     1      64.207  66.461  70.996  0.00  0.00    +0.000 NA
ATOM      8  C   UNL     1      63.694  66.500  71.642  0.00  0.00    +0.000 C 
ATOM      9  C   UNL     1      64.854  66.954  70.861  0.00  0.00    +0.000 C 
ATOM     10  C   UNL     1      63.596  65.329  70.284  0.00  0.00    +0.000 C 
ATOM     11  O   UNL     1      63.621  64.831  69.628  0.00  0.00    +0.000 OA
ATOM     12  N   UNL     1      63.006  65.234  70.853  0.00  0.00    +0.000 NA
ATOM     13  C   UNL     1      62.441  64.641  70.765  0.00  0.00    +0.000 C 
ATOM     14  C   UNL     1      62.465  64.141  70.108  0.00  0.00    +0.000 C 
ATOM     15  C   UNL     1      63.055  64.236  69.540  0.00  0.00    +0.000 C 
ATOM     16 CL   UNL     1      61.900  63.547  70.020  0.00  0.00    +0.000 Cl
ATOM     17  C   UNL     1      61.850  64.546  71.334  0.00  0.00    +0.000 C 
ATOM     18  O   UNL     1      61.284  63.951  71.245  0.00  0.00    +0.000 OA
ATOM     19  C   UNL     1      60.694  63.856  71.813  0.00  0.00    +0.000 C 
ATOM     20  S   UNL     1      60.129  63.262  71.725  0.00  0.00    +0.000 S 
ATOM     21  C   UNL     1      60.153  62.763  71.069  0.00  0.00    +0.000 C 
ATOM     22  C   UNL     1      60.670  64.356  72.470  0.00  0.00    +0.000 C 
ATOM     23  O   UNL     1      60.079  64.261  73.038  0.00  0.00    +0.000 OA
ATOM     24  C   UNL     1      61.235  64.949  72.558  0.00  0.00    +0.000 C 
ATOM     25  O   UNL     1      61.210  65.448  73.214  0.00  0.00    +0.000 OA
ATOM     26  C   UNL     1      61.825  65.044  71.990  0.00  0.00    +0.000 C 
ATOM     27  O   UNL     1      62.390  65.638  72.078  0.00  0.00    +0.000 OA
ENDROOT
TORSDOF 0
ENDMDL
MODEL 5
REMARK VINA RESULT:   -11.232      2.369      2.784
REMARK INTER + INTRA:         -11.232
REMARK INTER:                 -11.232
REMARK INTRA:                   0.000
REMARK UNBOUND:                 0.000
ROOT
REMARK  Name = clindamycin
REMARK                            x       y       z     vdW  Elec       q    Type
REMARK                         _______ _______ _______ _____ _____    ______ ____
ATOM      1  C   UNL     1      59.355  61.656  65.732  0.00  0.00    +0.000 C 
ATOM      2  C   UNL     1      59.869  62.046  66.247  0.00  0.00    +0.000 C 
ATOM      3  C   UNL     1      59.574  62.407  66.928  0.00  0.00    +0.000 C 
ATOM      4  C   UNL     1      60.087  62.796  67.442  0.00  0.00    +0.000 C 
ATOM      5  C   UNL     1      59.874  63.180  68.141  0.00  0.00    +0.000 C 
ATOM      6  C   UNL     1      60.558  63.492  68.480  0.00  0.00    +0.000 C 
ATOM      7  N   UNL     1      61.195  63.300  67.991  0.00  0.00    +0.000 NA
ATOM      8  C   UNL     1      61.985  63.503  68.120  0.00  0.00    +0.000 C 
ATOM      9  C   UNL     1      60.904  62.871  67.350  0.00  0.00    +0.000 C 
ATOM     10  C   UNL     1      60.600  63.920  69.184  0.00  0.00    +0.000 C 
ATOM     11  O   UNL     1      59.914  64.070  69.616  0.00  0.00    +0.000 OA
ATOM     12  N   UNL     1      61.328  64.198  69.456  0.00  0.00    +0.000 NA
ATOM     13  C   UNL     1      61.369  64.626  70.159  0.00  0.00    +0.000 C 
ATOM     14  C   UNL     1      60.683  64.776  70.592  0.00  0.00    +0.000 C 
ATOM     15  C   UNL     1      59.955  64.498  70.320  0.00  0.00    +0.000 C 
ATOM     16 CL   UNL     1      60.724  65.204  71.296  0.00  0.00    +0.000 Cl
ATOM     17  C   UNL     1      62.097  64.904  70.431  0.00  0.00    +0.000 C 
ATOM     18  O   UNL     1      62.138  65.333  71.135  0.00  0.00    +0.000 OA
ATOM     19  C   UNL     1      62.866  65.611  71.407  0.00  0.00    +0.000 C 
ATOM     20  S   UNL     1      62.907  66.038  72.111  0.00  0.00    +0.000 S 
ATOM     21  C   UNL     1      62.220  66.189  72.544  0.00  0.00    +0.000 C 
ATOM     22  C   UNL     1      63.552  65.460  70.974  0.00  0.00    +0.000 C 
ATOM     23  O   UNL     1      64.280  65.739  71.246  0.00  0.00    +0.000 OA
ATOM     24  C   UNL     1      63.511  65.033  70.271  0.00  0.00    +0.000 C 
ATOM     25  O   UNL     1      64.197  64.883  69.838  0.00  0.00    +0.000 OA
ATOM     26  C   UNL     1      62.783  64.755  69.999  0.00  0.00    +0.000 C 
ATOM     27  O   UNL     1      62.742  64.327  69.295  0.00  0.00    +0.000 OA
ENDROOT
TORSDOF 0
ENDMDL
MODEL 6
REMARK VINA RESULT:   -11.116      1.394      2.566
REMARK INTER + INTRA:         -11.116
REMARK INTER:                 -11.116
REMARK INTRA:                   0.000
REMARK UNBOUND:                 0.000
ROOT
REMARK  Name = clindamycin
REMARK                            x       y       z     vdW  Elec       q    Type
REMARK                         _______ _______ _______ _____ _____    ______ ____
ATOM      1  C   UNL     1      61.641  61.368  65.954  0.00  0.00    +0.000 C 
ATOM      2  C   UNL     1      61.424  61.688  66.683  0.00  0.00    +0.000 C 
ATOM      3  C   UNL     1      61.197  62.479  66.735  0.00  0.00    +0.000 C 
ATOM      4  C   UNL     1      60.980  62.799  67.463  0.00  0.00    +0.000 C 
ATOM      5  C   UNL     1      60.741  63.577  67.600  0.00  0.00    +0.000 C 
ATOM      6  C   UNL     1      60.577  63.657  68.404  0.00  0.00    +0.000 C 
ATOM      7  N   UNL     1      60.715  62.927  68.766  0.00  0.00    +0.000 NA
ATOM      8  C   UNL     1      60.621  62.757  69.568  0.00  0.00    +0.000 C 
ATOM      9  C   UNL     1      60.964  62.398  68.184  0.00  0.00    +0.000 C 
ATOM     10  C   UNL     1      60.321  64.343  68.782  0.00  0.00    +0.000 C 
ATOM     11  O   UNL     1      60.207  65.034  68.346  0.00  0.00    +0.000 OA
ATOM     12  N   UNL     1      60.179  64.339  69.595  0.00  0.00    +0.000 NA
ATOM     13  C   UNL     1      59.923  65.026  69.972  0.00  0.00    +0.000 C 
ATOM     14  C   UNL     1      59.808  65.718  69.537  0.00  0.00    +0.000 C 
ATOM     15  C   UNL     1      59.950  65.722  68.724  0.00  0.00    +0.000 C 
ATOM     16 CL   UNL     1      59.552  66.405  69.914  0.00  0.00    +0.000 Cl
ATOM     17  C   UNL     1      59.781  65.022  70.785  0.00  0.00    +0.000 C 
ATOM     18  O   UNL     1      59.524  65.710  71.162  0.00  0.00    +0.000 OA
ATOM     19  C   UNL     1      59.382  65.706  71.975  0.00  0.00    +0.000 C 
ATOM     20  S   UNL     1      59.126  66.393  72.352  0.00  0.00    +0.000 S 
ATOM     21  C   UNL     1      59.011  67.085  71.917  0.00  0.00    +0.000 C 
ATOM     22  C   UNL     1      59.497  65.014  72.410  0.00  0.00    +0.000 C 
ATOM     23  O   UNL     1      59.355  65.010  73.222  0.00  0.00    +0.000 OA
ATOM     24  C   UNL     1      59.753  64.327  72.033  0.00  0.00    +0.000 C 
ATOM     25  O   UNL     1      59.867  63.636  72.468  0.00  0.00    +0.000 OA
ATOM     26  C   UNL     1      59.895  64.331  71.220  0.00  0.00    +0.000 C 
ATOM     27  O   UNL     1      60.151  63.644  70.843  0.00  0.00    +0.000 OA
ENDROOT
TORSDOF 0
ENDMDL
MODEL 7
REMARK VINA RESULT:   -11.102      4.297      5.887
REMARK INTER + INTRA:         -11.102
REMARK INTER:                 -11.102
REMARK INTRA:                   0.000
REMARK UNBOUND:                 0.000
ROOT
REMARK  Name = clindamycin
REMARK                            x       y       z     vdW  Elec       q    Type
REMARK                         _______ _______ _______ _____ _____    ______ ____
ATOM      1  C   UNL     1      67.471  66.583  72.559  0.00  0.00    +0.000 C 
ATOM      2  C   UNL     1      66.657  66.686  72.473  0.00  0.00    +0.000 C 
ATOM      3  C   UNL     1      66.286  66.473  71.767  0.00  0.00    +0.000 C 
ATOM      4  C   UNL     1      65.473  66.575  71.682  0.00  0.00    +0.000 C 
ATOM      5  C   UNL     1      65.028  66.388  71.012  0.00  0.00    +0.000 C 
ATOM      6  C   UNL     1      64.241  66.581  71.166  0.00  0.00    +0.000 C 
ATOM      7  N   UNL     1      64.199  66.887  71.931  0.00  0.00    +0.000 NA
ATOM      8  C   UNL     1      63.516  67.150  72.312  0.00  0.00    +0.000 C 
ATOM      9  C   UNL     1      64.960  66.884  72.249  0.00  0.00    +0.000 C 
ATOM     10  C   UNL     1      63.607  66.484  70.647  0.00  0.00    +0.000 C 
ATOM     11  O   UNL     1      63.735  66.169  69.896  0.00  0.00    +0.000 OA
ATOM     12  N   UNL     1      62.847  66.703  70.880  0.00  0.00    +0.000 NA
ATOM     13  C   UNL     1      62.213  66.606  70.361  0.00  0.00    +0.000 C 
ATOM     14  C   UNL     1      62.340  66.291  69.609  0.00  0.00    +0.000 C 
ATOM     15  C   UNL     1      63.101  66.072  69.376  0.00  0.00    +0.000 C 
ATOM     16 CL   UNL     1      61.707  66.194  69.090  0.00  0.00    +0.000 Cl
ATOM     17  C   UNL     1      61.452  66.825  70.594  0.00  0.00    +0.000 C 
ATOM     18  O   UNL     1      60.818  66.728  70.074  0.00  0.00    +0.000 OA
ATOM     19  C   UNL     1      60.057  66.946  70.306  0.00  0.00    +0.000 C 
ATOM     20  S   UNL     1      59.424  66.850  69.787  0.00  0.00    +0.000 S 
ATOM     21  C   UNL     1      59.551  66.535  69.035  0.00  0.00    +0.000 C 
ATOM     22  C   UNL     1      59.931  67.262  71.058  0.00  0.00    +0.000 C 
ATOM     23  O   UNL     1      59.170  67.480  71.291  0.00  0.00    +0.000 OA
ATOM     24  C   UNL     1      60.564  67.358  71.577  0.00  0.00    +0.000 C 
ATOM     25  O   UNL     1      60.437  67.673  72.328  0.00  0.00    +0.000 OA
ATOM     26  C   UNL     1      61.325  67.140  71.345  0.00  0.00    +0.000 C 
ATOM     27  O   UNL     1      61.958  67.236  71.864  0.00  0.00    +0.000 OA
ENDROOT
TORSDOF 0
ENDMDL
MODEL 8
REMARK VINA RESULT:   -10.679      2.756      5.462
REMARK INTER + INTRA:         -10.679
REMARK INTER:                 -10.679
REMARK INTRA:                   0.000
REMARK UNBOUND:                 0.000
ROOT
REMARK  Name = clindamycin
REMARK                            x       y       z     vdW  Elec       q    Type
REMARK                         _______ _______ _______ _____ _____    ______ ____
ATOM      1  C   UNL     1      63.036  68.896  73.222  0.00  0.00    +0.000 C 
ATOM      2  C   UNL     1      62.757  68.154  72.992  0.00  0.00    +0.000 C 
ATOM      3  C   UNL     1      62.693  67.969  72.190  0.00  0.00    +0.000 C 
ATOM      4  C   UNL     1      62.414  67.228  71.960  0.00  0.00    +0.000 C 
ATOM      5  C   UNL     1      62.320  66.965  71.184  0.00  0.00    +0.000 C 
ATOM      6  C   UNL     1      62.029  66.194  71.208  0.00  0.00    +0.000 C 
ATOM      7  N   UNL     1      61.942  65.980  72.000  0.00  0.00    +0.000 NA
ATOM      8  C   UNL     1      61.666  65.254  72.280  0.00  0.00    +0.000 C 
ATOM      9  C   UNL     1      62.180  66.619  72.465  0.00  0.00    +0.000 C 
ATOM     10  C   UNL     1      61.854  65.720  70.556  0.00  0.00    +0.000 C 
ATOM     11  O   UNL     1      61.969  66.011  69.793  0.00  0.00    +0.000 OA
ATOM     12  N   UNL     1      61.564  64.956  70.668  0.00  0.00    +0.000 NA
ATOM     13  C   UNL     1      61.390  64.482  70.016  0.00  0.00    +0.000 C 
ATOM     14  C   UNL     1      61.505  64.772  69.252  0.00  0.00    +0.000 C 
ATOM     15  C   UNL     1      61.794  65.536  69.140  0.00  0.00    +0.000 C 
ATOM     16 CL   UNL     1      61.330  64.299  68.600  0.00  0.00    +0.000 Cl
ATOM     17  C   UNL     1      61.100  63.717  70.127  0.00  0.00    +0.000 C 
ATOM     18  O   UNL     1      60.925  63.243  69.474  0.00  0.00    +0.000 OA
ATOM     19  C   UNL     1      60.636  62.479  69.586  0.00  0.00    +0.000 C 
ATOM     20  S   UNL     1      60.461  62.005  68.934  0.00  0.00    +0.000 S 
ATOM     21  C   UNL     1      60.576  62.295  68.170  0.00  0.00    +0.000 C 
ATOM     22  C   UNL     1      60.521  62.189  70.350  0.00  0.00    +0.000 C 
ATOM     23  O   UNL     1      60.231  61.425  70.461  0.00  0.00    +0.000 OA
ATOM     24  C   UNL     1      60.695  62.663  71.002  0.00  0.00    +0.000 C 
ATOM     25  O   UNL     1      60.580  62.373  71.765  0.00  0.00    +0.000 OA
ATOM     26  C   UNL     1      60.985  63.427  70.890  0.00  0.00    +0.000 C 
ATOM     27  O   UNL     1      61.159  63.900  71.542  0.00  0.00    +0.000 OA
ENDROOT
TORSDOF 0
ENDMDL
MODEL 9
REMARK VINA RESULT:   -10.558      2.272      3.216
REMARK INTER + INTRA:         -10.558
REMARK INTER:                 -10.558
REMARK INTRA:                   0.000
REMARK UNBOUND:                 0.000
ROOT
REMARK  Name = clindamycin
REMARK                            x       y       z     vdW  Elec       q    Type
REMARK                         _______ _______ _______ _____ _____    ______ ____
ATOM      1  C   UNL     1      60.933  61.870  66.519  0.00  0.00    +0.000 C 
ATOM      2  C   UNL     1      60.812  62.350  67.180  0.00  0.00    +0.000 C 
ATOM      3  C   UNL     1      61.408  62.863  67.431  0.00  0.00    +0.000 C 
ATOM      4  C   UNL     1      61.287  63.342  68.090  0.00  0.00    +0.000 C 
ATOM      5  C   UNL     1      61.829  63.880  68.405  0.00  0.00    +0.000 C 
ATOM      6  C   UNL     1      61.481  64.239  69.061  0.00  0.00    +0.000 C 
ATOM      7  N   UNL     1      60.724  63.924  69.152  0.00  0.00    +0.000 NA
ATOM      8  C   UNL     1      60.181  64.127  69.740  0.00  0.00    +0.000 C 
ATOM      9  C   UNL     1      60.604  63.370  68.553  0.00  0.00    +0.000 C 
ATOM     10  C   UNL     1      61.828  64.812  69.542  0.00  0.00    +0.000 C 
ATOM     11  O   UNL     1      62.593  65.075  69.382  0.00  0.00    +0.000 OA
ATOM     12  N   UNL     1      61.410  65.123  70.182  0.00  0.00    +0.000 NA
ATOM     13  C   UNL     1      61.757  65.696  70.662  0.00  0.00    +0.000 C 
ATOM     14  C   UNL     1      62.523  65.960  70.503  0.00  0.00    +0.000 C 
ATOM     15  C   UNL     1      62.941  65.649  69.863  0.00  0.00    +0.000 C 
ATOM     16 CL   UNL     1      62.870  66.533  70.983  0.00  0.00    +0.000 Cl
ATOM     17  C   UNL     1      61.339  66.006  71.303  0.00  0.00    +0.000 C 
ATOM     18  O   UNL     1      61.687  66.580  71.783  0.00  0.00    +0.000 OA
ATOM     19  C   UNL     1      61.269  66.890  72.423  0.00  0.00    +0.000 C 
ATOM     20  S   UNL     1      61.617  67.463  72.903  0.00  0.00    +0.000 S 
ATOM     21  C   UNL     1      62.382  67.727  72.744  0.00  0.00    +0.000 C 
ATOM     22  C   UNL     1      60.504  66.627  72.582  0.00  0.00    +0.000 C 
ATOM     23  O   UNL     1      60.086  66.937  73.222  0.00  0.00    +0.000 OA
ATOM     24  C   UNL     1      60.156  66.053  72.102  0.00  0.00    +0.000 C 
ATOM     25  O   UNL     1      59.391  65.790  72.261  0.00  0.00    +0.000 OA
ATOM     26  C   UNL     1      60.574  65.743  71.462  0.00  0.00    +0.000 C 
ATOM     27  O   UNL     1      60.227  65.170  70.982  0.00  0.00    +0.000 OA
ENDROOT
TORSDOF 0
ENDMDL
