MODEL 1
REMARK VINA RESULT:   -11.491      0.000      0.000
REMARK INTER + INTRA:         -11.491
REMARK INTER:                 -11.491
REMARK INTRA:                   0.000
REMARK UNBOUND:                 0.000
ROOT
REMARK  Name = clobuzarit
REMARK                            x       y       z     vdW  Elec       q    Type
REMARK                         _______ _______ _______ _____ _____    ______ ____
ATOM      1  C   UNL     1      62.017  62.640  65.158  0.00  0.00    +0.000 C 
ATOM      2  C   UNL     1      61.649  61.906  65.076  0.00  0.00    +0.000 C 
ATOM      3  C   UNL     1      61.281  61.172  64.995  0.00  0.00    +0.000 C 
ATOM      4  O   UNL     1      61.437  61.924  65.873  0.00  0.00    +0.000 OA
ATOM      5  C   UNL     1      61.650  62.569  66.342  0.00  0.00    +0.000 C 
ATOM      6  C   UNL     1      61.438  62.587  67.140  0.00  0.00    +0.000 A 
ATOM      7  C   UNL     1      61.650  63.231  67.608  0.00  0.00    +0.000 A 
ATOM      8  C   UNL     1      61.438  63.249  68.405  0.00  0.00    +0.000 A 
ATOM      9  C   UNL     1      61.013  62.623  68.734  0.00  0.00    +0.000 A 
ATOM     10  C   UNL     1      60.800  61.978  68.264  0.00  0.00    +0.000 A 
ATOM     11  C   UNL     1      61.012  61.960  67.467  0.00  0.00    +0.000 A 
ATOM     12  C   UNL     1      60.801  62.641  69.530  0.00  0.00    +0.000 A 
ATOM     13  C   UNL     1      61.014  63.285  70.000  0.00  0.00    +0.000 A 
ATOM     14  C   UNL     1      60.802  63.303  70.797  0.00  0.00    +0.000 A 
ATOM     15  C   UNL     1      60.377  62.677  71.124  0.00  0.00    +0.000 A 
ATOM     16 CL   UNL     1      60.165  62.695  71.922  0.00  0.00    +0.000 Cl
ATOM     17  C   UNL     1      60.164  62.032  70.656  0.00  0.00    +0.000 A 
ATOM     18  C   UNL     1      60.376  62.014  69.858  0.00  0.00    +0.000 A 
ATOM     19  C   UNL     1      61.861  61.888  64.279  0.00  0.00    +0.000 C 
ATOM     20  O   UNL     1      61.648  61.243  63.810  0.00  0.00    +0.000 OA
ATOM     21  O   UNL     1      62.286  62.515  63.952  0.00  0.00    +0.000 OA
ENDROOT
TORSDOF 0
ENDMDL
MODEL 2
REMARK VINA RESULT:   -11.388      2.850      5.230
REMARK INTER + INTRA:         -11.388
REMARK INTER:                 -11.388
REMARK INTRA:                   0.000
REMARK UNBOUND:                 0.000
ROOT
REMARK  Name = clobuzarit
REMARK                            x       y       z     vdW  Elec       q    Type
REMARK                         _______ _______ _______ _____ _____    ______ ____
ATOM      1  C   UNL     1      60.135  63.546  69.880  0.00  0.00    +0.000 C 
ATOM      2  C   UNL     1      60.862  63.928  69.958  0.00  0.00    +0.000 C 
ATOM      3  C   UNL     1      61.589  64.310  70.037  0.00  0.00    +0.000 C 
ATOM      4  O   UNL     1      61.080  63.667  69.207  0.00  0.00    +0.000 OA
ATOM      5  C   UNL     1      60.559  63.205  68.764  0.00  0.00    +0.000 C 
ATOM      6  C   UNL     1      60.778  62.944  68.011  0.00  0.00    +0.000 A 
ATOM      7  C   UNL     1      60.257  62.483  67.568  0.00  0.00    +0.000 A 
ATOM      8  C   UNL     1      60.476  62.221  66.817  0.00  0.00    +0.000 A 
ATOM      9  C   UNL     1      61.214  62.421  66.509  0.00  0.00    +0.000 A 
ATOM     10  C   UNL     1      61.735  62.883  66.953  0.00  0.00    +0.000 A 
ATOM     11  C   UNL     1      61.517  63.144  67.704  0.00  0.00    +0.000 A 
ATOM     12  C   UNL     1      61.432  62.160  65.758  0.00  0.00    +0.000 A 
ATOM     13  C   UNL     1      60.912  61.699  65.314  0.00  0.00    +0.000 A 
ATOM     14  C   UNL     1      61.131  61.437  64.563  0.00  0.00    +0.000 A 
ATOM     15  C   UNL     1      61.869  61.637  64.255  0.00  0.00    +0.000 A 
ATOM     16 CL   UNL     1      62.088  61.376  63.503  0.00  0.00    +0.000 Cl
ATOM     17  C   UNL     1      62.390  62.099  64.698  0.00  0.00    +0.000 A 
ATOM     18  C   UNL     1      62.172  62.360  65.450  0.00  0.00    +0.000 A 
ATOM     19  C   UNL     1      60.643  64.189  70.710  0.00  0.00    +0.000 C 
ATOM     20  O   UNL     1      61.164  64.651  71.153  0.00  0.00    +0.000 OA
ATOM     21  O   UNL     1      59.904  63.989  71.017  0.00  0.00    +0.000 OA
ENDROOT
TORSDOF 0
ENDMDL
MODEL 3
REMARK VINA RESULT:   -10.636      4.318      5.960
REMARK INTER + INTRA:         -10.636
REMARK INTER:                 -10.636
REMARK INTRA:                   0.000
REMARK UNBOUND:                 0.000
ROOT
REMARK  Name = clobuzarit
REMARK                            x       y       z     vdW  Elec       q    Type
REMARK                         _______ _______ _______ _____ _____    ______ ____
ATOM      1  C   UNL     1      61.059  63.443  71.597  0.00  0.00    +0.000 C 
ATOM      2  C   UNL     1      61.128  63.129  70.837  0.00  0.00    +0.000 C 
ATOM      3  C   UNL     1      61.197  62.815  70.077  0.00  0.00    +0.000 C 
ATOM      4  O   UNL     1      61.748  63.650  70.678  0.00  0.00    +0.000 OA
ATOM      5  C   UNL     1      61.997  64.182  71.258  0.00  0.00    +0.000 C 
ATOM      6  C   UNL     1      62.618  64.704  71.099  0.00  0.00    +0.000 A 
ATOM      7  C   UNL     1      62.868  65.235  71.677  0.00  0.00    +0.000 A 
ATOM      8  C   UNL     1      63.487  65.756  71.518  0.00  0.00    +0.000 A 
ATOM      9  C   UNL     1      63.857  65.745  70.781  0.00  0.00    +0.000 A 
ATOM     10  C   UNL     1      63.607  65.213  70.202  0.00  0.00    +0.000 A 
ATOM     11  C   UNL     1      62.987  64.692  70.361  0.00  0.00    +0.000 A 
ATOM     12  C   UNL     1      64.476  66.266  70.622  0.00  0.00    +0.000 A 
ATOM     13  C   UNL     1      64.727  66.798  71.200  0.00  0.00    +0.000 A 
ATOM     14  C   UNL     1      65.346  67.319  71.042  0.00  0.00    +0.000 A 
ATOM     15  C   UNL     1      65.716  67.308  70.305  0.00  0.00    +0.000 A 
ATOM     16 CL   UNL     1      66.336  67.829  70.146  0.00  0.00    +0.000 Cl
ATOM     17  C   UNL     1      65.466  66.776  69.725  0.00  0.00    +0.000 A 
ATOM     18  C   UNL     1      64.846  66.255  69.884  0.00  0.00    +0.000 A 
ATOM     19  C   UNL     1      60.508  62.608  70.996  0.00  0.00    +0.000 C 
ATOM     20  O   UNL     1      60.259  62.076  70.417  0.00  0.00    +0.000 OA
ATOM     21  O   UNL     1      60.139  62.620  71.734  0.00  0.00    +0.000 OA
ENDROOT
TORSDOF 0
ENDMDL
MODEL 4
REMARK VINA RESULT:   -10.559      4.266      5.535
REMARK INTER + INTRA:         -10.559
REMARK INTER:                 -10.559
REMARK INTRA:                   0.000
REMARK UNBOUND:                 0.000
ROOT
REMARK  Name = clobuzarit
REMARK                            x       y       z     vdW  Elec       q    Type
REMARK                         _______ _______ _______ _____ _____    ______ ____
ATOM      1  C   UNL     1      65.045  66.579  69.820  0.00  0.00    +0.000 C 
ATOM      2  C   UNL     1      65.194  66.572  70.631  0.00  0.00    +0.000 C 
ATOM      3  C   UNL     1      65.343  66.564  71.443  0.00  0.00    +0.000 C 
ATOM      4  O   UNL     1      64.620  65.987  70.731  0.00  0.00    +0.000 OA
ATOM      5  C   UNL     1      64.205  65.701  70.078  0.00  0.00    +0.000 C 
ATOM      6  C   UNL     1      63.631  65.116  70.178  0.00  0.00    +0.000 A 
ATOM      7  C   UNL     1      63.216  64.830  69.526  0.00  0.00    +0.000 A 
ATOM      8  C   UNL     1      62.642  64.245  69.626  0.00  0.00    +0.000 A 
ATOM      9  C   UNL     1      62.484  63.946  70.378  0.00  0.00    +0.000 A 
ATOM     10  C   UNL     1      62.901  64.232  71.031  0.00  0.00    +0.000 A 
ATOM     11  C   UNL     1      63.474  64.817  70.931  0.00  0.00    +0.000 A 
ATOM     12  C   UNL     1      61.912  63.362  70.478  0.00  0.00    +0.000 A 
ATOM     13  C   UNL     1      61.496  63.076  69.826  0.00  0.00    +0.000 A 
ATOM     14  C   UNL     1      60.923  62.491  69.926  0.00  0.00    +0.000 A 
ATOM     15  C   UNL     1      60.765  62.192  70.678  0.00  0.00    +0.000 A 
ATOM     16 CL   UNL     1      60.191  61.607  70.778  0.00  0.00    +0.000 Cl
ATOM     17  C   UNL     1      61.181  62.478  71.331  0.00  0.00    +0.000 A 
ATOM     18  C   UNL     1      61.754  63.063  71.231  0.00  0.00    +0.000 A 
ATOM     19  C   UNL     1      65.767  67.156  70.531  0.00  0.00    +0.000 C 
ATOM     20  O   UNL     1      66.182  67.442  71.185  0.00  0.00    +0.000 OA
ATOM     21  O   UNL     1      65.924  67.455  69.778  0.00  0.00    +0.000 OA
ENDROOT
TORSDOF 0
ENDMDL
MODEL 5
REMARK VINA RESULT:   -10.336      3.087      5.426
REMARK INTER + INTRA:         -10.336
REMARK INTER:                 -10.336
REMARK INTRA:                   0.000
REMARK UNBOUND:                 0.000
ROOT
REMARK  Name = clobuzarit
REMARK                            x       y       z     vdW  Elec       q    Type
REMARK                         _______ _______ _______ _____ _____    ______ ____
ATOM      1  C   UNL     1      60.827  63.080  71.752  0.00  0.00    +0.000 C 
ATOM      2  C   UNL     1      61.418  63.651  71.673  0.00  0.00    +0.000 C 
ATOM      3  C   UNL     1      62.008  64.222  71.594  0.00  0.00    +0.000 C 
ATOM      4  O   UNL     1      61.446  63.508  70.861  0.00  0.00    +0.000 OA
ATOM      5  C   UNL     1      60.949  62.942  70.524  0.00  0.00    +0.000 C 
ATOM      6  C   UNL     1      60.977  62.800  69.711  0.00  0.00    +0.000 A 
ATOM      7  C   UNL     1      60.481  62.235  69.374  0.00  0.00    +0.000 A 
ATOM      8  C   UNL     1      60.509  62.093  68.562  0.00  0.00    +0.000 A 
ATOM      9  C   UNL     1      61.034  62.516  68.087  0.00  0.00    +0.000 A 
ATOM     10  C   UNL     1      61.532  63.082  68.424  0.00  0.00    +0.000 A 
ATOM     11  C   UNL     1      61.503  63.224  69.237  0.00  0.00    +0.000 A 
ATOM     12  C   UNL     1      61.063  62.373  67.275  0.00  0.00    +0.000 A 
ATOM     13  C   UNL     1      60.566  61.808  66.938  0.00  0.00    +0.000 A 
ATOM     14  C   UNL     1      60.595  61.666  66.125  0.00  0.00    +0.000 A 
ATOM     15  C   UNL     1      61.120  62.089  65.651  0.00  0.00    +0.000 A 
ATOM     16 CL   UNL     1      61.149  61.946  64.838  0.00  0.00    +0.000 Cl
ATOM     17  C   UNL     1      61.617  62.655  65.988  0.00  0.00    +0.000 A 
ATOM     18  C   UNL     1      61.589  62.797  66.800  0.00  0.00    +0.000 A 
ATOM     19  C   UNL     1      61.389  63.793  72.485  0.00  0.00    +0.000 C 
ATOM     20  O   UNL     1      61.886  64.359  72.822  0.00  0.00    +0.000 OA
ATOM     21  O   UNL     1      60.863  63.369  72.959  0.00  0.00    +0.000 OA
ENDROOT
TORSDOF 0
ENDMDL
MODEL 6
REMARK VINA RESULT:   -10.072      4.757      5.685
REMARK INTER + INTRA:         -10.072
REMARK INTER:                 -10.072
REMARK INTRA:                   0.000
REMARK UNBOUND:                 0.000
ROOT
REMARK  Name = clobuzarit
REMARK                            x       y       z     vdW  Elec       q    Type
REMARK                         _______ _______ _______ _____ _____    ______ ____
ATOM      1  C   UNL     1      59.865  66.731  71.646  0.00  0.00    +0.000 C 
ATOM      2  C   UNL     1      59.720  66.579  70.848  0.00  0.00    +0.000 C 
ATOM      3  C   UNL     1      59.574  66.427  70.050  0.00  0.00    +0.000 C 
ATOM      4  O   UNL     1      60.011  65.812  70.941  0.00  0.00    +0.000 OA
ATOM      5  C   UNL     1      60.282  65.561  71.679  0.00  0.00    +0.000 C 
ATOM      6  C   UNL     1      60.573  64.794  71.772  0.00  0.00    +0.000 A 
ATOM      7  C   UNL     1      60.844  64.543  72.509  0.00  0.00    +0.000 A 
ATOM      8  C   UNL     1      61.135  63.776  72.602  0.00  0.00    +0.000 A 
ATOM      9  C   UNL     1      61.155  63.261  71.958  0.00  0.00    +0.000 A 
ATOM     10  C   UNL     1      60.883  63.513  71.220  0.00  0.00    +0.000 A 
ATOM     11  C   UNL     1      60.592  64.280  71.127  0.00  0.00    +0.000 A 
ATOM     12  C   UNL     1      61.445  62.496  72.051  0.00  0.00    +0.000 A 
ATOM     13  C   UNL     1      61.717  62.243  72.788  0.00  0.00    +0.000 A 
ATOM     14  C   UNL     1      62.007  61.477  72.881  0.00  0.00    +0.000 A 
ATOM     15  C   UNL     1      62.027  60.963  72.237  0.00  0.00    +0.000 A 
ATOM     16 CL   UNL     1      62.318  60.195  72.330  0.00  0.00    +0.000 Cl
ATOM     17  C   UNL     1      61.755  61.214  71.499  0.00  0.00    +0.000 A 
ATOM     18  C   UNL     1      61.465  61.980  71.406  0.00  0.00    +0.000 A 
ATOM     19  C   UNL     1      59.429  67.345  70.755  0.00  0.00    +0.000 C 
ATOM     20  O   UNL     1      59.158  67.596  70.017  0.00  0.00    +0.000 OA
ATOM     21  O   UNL     1      59.410  67.860  71.400  0.00  0.00    +0.000 OA
ENDROOT
TORSDOF 0
ENDMDL
MODEL 7
REMARK VINA RESULT:   -10.019      4.812      6.541
REMARK INTER + INTRA:         -10.019
REMARK INTER:                 -10.019
REMARK INTRA:                   0.000
REMARK UNBOUND:                 0.000
ROOT
REMARK  Name = clobuzarit
REMARK                            x       y       z     vdW  Elec       q    Type
REMARK                         _______ _______ _______ _____ _____    ______ ____
ATOM      1  C   UNL     1      63.574  67.251  72.170  0.00  0.00    +0.000 C 
ATOM      2  C   UNL     1      62.912  67.533  72.574  0.00  0.00    +0.000 C 
ATOM      3  C   UNL     1      62.250  67.814  72.978  0.00  0.00    +0.000 C 
ATOM      4  O   UNL     1      62.514  66.828  72.414  0.00  0.00    +0.000 OA
ATOM      5  C   UNL     1      62.889  66.232  71.983  0.00  0.00    +0.000 C 
ATOM      6  C   UNL     1      62.491  65.526  71.823  0.00  0.00    +0.000 A 
ATOM      7  C   UNL     1      62.865  64.931  71.393  0.00  0.00    +0.000 A 
ATOM      8  C   UNL     1      62.467  64.226  71.232  0.00  0.00    +0.000 A 
ATOM      9  C   UNL     1      61.695  64.117  71.502  0.00  0.00    +0.000 A 
ATOM     10  C   UNL     1      61.320  64.714  71.932  0.00  0.00    +0.000 A 
ATOM     11  C   UNL     1      61.718  65.419  72.093  0.00  0.00    +0.000 A 
ATOM     12  C   UNL     1      61.298  63.413  71.341  0.00  0.00    +0.000 A 
ATOM     13  C   UNL     1      61.671  62.817  70.911  0.00  0.00    +0.000 A 
ATOM     14  C   UNL     1      61.273  62.112  70.751  0.00  0.00    +0.000 A 
ATOM     15  C   UNL     1      60.502  62.004  71.020  0.00  0.00    +0.000 A 
ATOM     16 CL   UNL     1      60.104  61.298  70.860  0.00  0.00    +0.000 Cl
ATOM     17  C   UNL     1      60.127  62.600  71.451  0.00  0.00    +0.000 A 
ATOM     18  C   UNL     1      60.525  63.304  71.611  0.00  0.00    +0.000 A 
ATOM     19  C   UNL     1      63.310  68.237  72.735  0.00  0.00    +0.000 C 
ATOM     20  O   UNL     1      62.935  68.833  73.165  0.00  0.00    +0.000 OA
ATOM     21  O   UNL     1      64.082  68.345  72.465  0.00  0.00    +0.000 OA
ENDROOT
TORSDOF 0
ENDMDL
MODEL 8
REMARK VINA RESULT:    -9.099     24.745     26.151
REMARK INTER + INTRA:          -9.099
REMARK INTER:                  -9.099
REMARK INTRA:                   0.000
REMARK UNBOUND:                 0.000
ROOT
REMARK  Name = clobuzarit
REMARK                            x       y       z     vdW  Elec       q    Type
REMARK                         _______ _______ _______ _____ _____    ______ ____
ATOM      1  C   UNL     1      67.958  80.912  53.202  0.00  0.00    +0.000 C 
ATOM      2  C   UNL     1      68.590  81.304  53.558  0.00  0.00    +0.000 C 
ATOM      3  C   UNL     1      69.223  81.695  53.914  0.00  0.00    +0.000 C 
ATOM      4  O   UNL     1      69.089  81.046  52.954  0.00  0.00    +0.000 OA
ATOM      5  C   UNL     1      68.790  80.579  52.343  0.00  0.00    +0.000 C 
ATOM      6  C   UNL     1      69.290  80.321  51.738  0.00  0.00    +0.000 A 
ATOM      7  C   UNL     1      68.991  79.854  51.128  0.00  0.00    +0.000 A 
ATOM      8  C   UNL     1      69.490  79.597  50.524  0.00  0.00    +0.000 A 
ATOM      9  C   UNL     1      70.288  79.807  50.529  0.00  0.00    +0.000 A 
ATOM     10  C   UNL     1      70.587  80.275  51.140  0.00  0.00    +0.000 A 
ATOM     11  C   UNL     1      70.088  80.532  51.745  0.00  0.00    +0.000 A 
ATOM     12  C   UNL     1      70.786  79.550  49.925  0.00  0.00    +0.000 A 
ATOM     13  C   UNL     1      70.488  79.082  49.315  0.00  0.00    +0.000 A 
ATOM     14  C   UNL     1      70.987  78.825  48.710  0.00  0.00    +0.000 A 
ATOM     15  C   UNL     1      71.784  79.036  48.716  0.00  0.00    +0.000 A 
ATOM     16 CL   UNL     1      72.284  78.778  48.111  0.00  0.00    +0.000 Cl
ATOM     17  C   UNL     1      72.084  79.503  49.326  0.00  0.00    +0.000 A 
ATOM     18  C   UNL     1      71.585  79.761  49.931  0.00  0.00    +0.000 A 
ATOM     19  C   UNL     1      68.091  81.561  54.163  0.00  0.00    +0.000 C 
ATOM     20  O   UNL     1      68.391  82.028  54.773  0.00  0.00    +0.000 OA
ATOM     21  O   UNL     1      67.294  81.350  54.156  0.00  0.00    +0.000 OA
ENDROOT
TORSDOF 0
ENDMDL
MODEL 9
REMARK VINA RESULT:    -8.681     18.910     20.308
REMARK INTER + INTRA:          -8.681
REMARK INTER:                  -8.681
REMARK INTRA:                   0.000
REMARK UNBOUND:                 0.000
ROOT
REMARK  Name = clobuzarit
REMARK                            x       y       z     vdW  Elec       q    Type
REMARK                         _______ _______ _______ _____ _____    ______ ____
ATOM      1  C   UNL     1      66.365  78.804  59.373  0.00  0.00    +0.000 C 
ATOM      2  C   UNL     1      65.881  78.154  59.528  0.00  0.00    +0.000 C 
ATOM      3  C   UNL     1      65.397  77.504  59.684  0.00  0.00    +0.000 C 
ATOM      4  O   UNL     1      65.231  78.568  59.235  0.00  0.00    +0.000 OA
ATOM      5  C   UNL     1      65.325  79.338  58.953  0.00  0.00    +0.000 C 
ATOM      6  C   UNL     1      64.674  79.753  58.660  0.00  0.00    +0.000 A 
ATOM      7  C   UNL     1      64.767  80.522  58.378  0.00  0.00    +0.000 A 
ATOM      8  C   UNL     1      64.117  80.936  58.085  0.00  0.00    +0.000 A 
ATOM      9  C   UNL     1      63.373  80.581  58.073  0.00  0.00    +0.000 A 
ATOM     10  C   UNL     1      63.279  79.810  58.354  0.00  0.00    +0.000 A 
ATOM     11  C   UNL     1      63.930  79.396  58.648  0.00  0.00    +0.000 A 
ATOM     12  C   UNL     1      62.723  80.994  57.780  0.00  0.00    +0.000 A 
ATOM     13  C   UNL     1      62.816  81.764  57.498  0.00  0.00    +0.000 A 
ATOM     14  C   UNL     1      62.165  82.178  57.204  0.00  0.00    +0.000 A 
ATOM     15  C   UNL     1      61.422  81.822  57.193  0.00  0.00    +0.000 A 
ATOM     16 CL   UNL     1      60.771  82.236  56.899  0.00  0.00    +0.000 Cl
ATOM     17  C   UNL     1      61.327  81.052  57.474  0.00  0.00    +0.000 A 
ATOM     18  C   UNL     1      61.978  80.638  57.768  0.00  0.00    +0.000 A 
ATOM     19  C   UNL     1      66.532  77.740  59.822  0.00  0.00    +0.000 C 
ATOM     20  O   UNL     1      66.437  76.970  60.103  0.00  0.00    +0.000 OA
ATOM     21  O   UNL     1      67.276  78.097  59.834  0.00  0.00    +0.000 OA
ENDROOT
TORSDOF 0
ENDMDL
