MODEL 1
REMARK VINA RESULT:   -16.704      0.000      0.000
REMARK INTER + INTRA:         -16.704
REMARK INTER:                 -16.704
REMARK INTRA:                   0.000
REMARK UNBOUND:                 0.000
ROOT
REMARK  Name = clocortolone pivalate
REMARK                            x       y       z     vdW  Elec       q    Type
REMARK                         _______ _______ _______ _____ _____    ______ ____
ATOM      1  C   UNL     1      60.079  63.502  69.536  0.00  0.00    +0.000 C 
ATOM      2  C   UNL     1      60.411  63.275  68.815  0.00  0.00    +0.000 C 
ATOM      3  C   UNL     1      60.031  62.851  68.218  0.00  0.00    +0.000 C 
ATOM      4  C   UNL     1      60.566  62.747  67.600  0.00  0.00    +0.000 C 
ATOM      5  C   UNL     1      60.498  62.371  66.869  0.00  0.00    +0.000 C 
ATOM      6  C   UNL     1      59.788  62.010  66.654  0.00  0.00    +0.000 C 
ATOM      7  C   UNL     1      59.720  61.634  65.923  0.00  0.00    +0.000 C 
ATOM      8  F   UNL     1      59.009  61.274  65.709  0.00  0.00    +0.000 F 
ATOM      9  C   UNL     1      60.363  61.618  65.407  0.00  0.00    +0.000 C 
ATOM     10  C   UNL     1      60.294  61.241  64.675  0.00  0.00    +0.000 C 
ATOM     11  C   UNL     1      60.937  61.226  64.159  0.00  0.00    +0.000 C 
ATOM     12  O   UNL     1      60.870  60.849  63.428  0.00  0.00    +0.000 OA
ATOM     13  C   UNL     1      61.648  61.586  64.373  0.00  0.00    +0.000 C 
ATOM     14  C   UNL     1      61.716  61.962  65.103  0.00  0.00    +0.000 C 
ATOM     15  C   UNL     1      61.074  61.978  65.621  0.00  0.00    +0.000 C 
ATOM     16  C   UNL     1      61.785  62.338  65.834  0.00  0.00    +0.000 C 
ATOM     17  C   UNL     1      61.141  62.354  66.351  0.00  0.00    +0.000 C 
ATOM     18 CL   UNL     1      61.926  62.591  66.254  0.00  0.00    +0.000 Cl
ATOM     19  C   UNL     1      61.852  62.714  66.565  0.00  0.00    +0.000 C 
ATOM     20  O   UNL     1      62.494  62.698  66.048  0.00  0.00    +0.000 OA
ATOM     21  C   UNL     1      61.920  63.091  67.296  0.00  0.00    +0.000 C 
ATOM     22  C   UNL     1      61.277  63.107  67.813  0.00  0.00    +0.000 C 
ATOM     23  C   UNL     1      61.950  63.489  68.102  0.00  0.00    +0.000 C 
ATOM     24  C   UNL     1      61.182  63.434  68.565  0.00  0.00    +0.000 C 
ATOM     25  C   UNL     1      61.755  63.846  68.991  0.00  0.00    +0.000 C 
ATOM     26  O   UNL     1      62.505  63.962  68.668  0.00  0.00    +0.000 OA
ATOM     27  C   UNL     1      61.578  64.143  69.740  0.00  0.00    +0.000 C 
ATOM     28  O   UNL     1      62.151  64.555  70.167  0.00  0.00    +0.000 OA
ATOM     29  C   UNL     1      61.975  64.852  70.916  0.00  0.00    +0.000 C 
ATOM     30  O   UNL     1      61.224  64.736  71.239  0.00  0.00    +0.000 OA
ATOM     31  C   UNL     1      62.548  65.264  71.342  0.00  0.00    +0.000 C 
ATOM     32  C   UNL     1      63.121  65.677  71.769  0.00  0.00    +0.000 C 
ATOM     33  C   UNL     1      62.012  65.368  71.962  0.00  0.00    +0.000 C 
ATOM     34  C   UNL     1      63.083  65.160  70.723  0.00  0.00    +0.000 C 
ENDROOT
TORSDOF 0
ENDMDL
MODEL 2
REMARK VINA RESULT:   -16.694      1.609      5.536
REMARK INTER + INTRA:         -16.694
REMARK INTER:                 -16.694
REMARK INTRA:                   0.000
REMARK UNBOUND:                 0.000
ROOT
REMARK  Name = clocortolone pivalate
REMARK                            x       y       z     vdW  Elec       q    Type
REMARK                         _______ _______ _______ _____ _____    ______ ____
ATOM      1  C   UNL     1      59.970  61.626  67.687  0.00  0.00    +0.000 C 
ATOM      2  C   UNL     1      60.382  62.141  68.181  0.00  0.00    +0.000 C 
ATOM      3  C   UNL     1      60.211  62.294  68.974  0.00  0.00    +0.000 C 
ATOM      4  C   UNL     1      60.761  62.841  69.253  0.00  0.00    +0.000 C 
ATOM      5  C   UNL     1      60.863  63.195  69.991  0.00  0.00    +0.000 C 
ATOM      6  C   UNL     1      60.352  63.009  70.612  0.00  0.00    +0.000 C 
ATOM      7  C   UNL     1      60.454  63.363  71.350  0.00  0.00    +0.000 C 
ATOM      8  F   UNL     1      59.942  63.177  71.970  0.00  0.00    +0.000 F 
ATOM      9  C   UNL     1      61.067  63.902  71.467  0.00  0.00    +0.000 C 
ATOM     10  C   UNL     1      61.168  64.255  72.207  0.00  0.00    +0.000 C 
ATOM     11  C   UNL     1      61.781  64.794  72.325  0.00  0.00    +0.000 C 
ATOM     12  O   UNL     1      61.883  65.148  73.063  0.00  0.00    +0.000 OA
ATOM     13  C   UNL     1      62.293  64.980  71.705  0.00  0.00    +0.000 C 
ATOM     14  C   UNL     1      62.191  64.627  70.966  0.00  0.00    +0.000 C 
ATOM     15  C   UNL     1      61.578  64.088  70.848  0.00  0.00    +0.000 C 
ATOM     16  C   UNL     1      62.090  64.273  70.228  0.00  0.00    +0.000 C 
ATOM     17  C   UNL     1      61.477  63.734  70.109  0.00  0.00    +0.000 C 
ATOM     18 CL   UNL     1      62.112  64.114  69.744  0.00  0.00    +0.000 Cl
ATOM     19  C   UNL     1      61.988  63.920  69.489  0.00  0.00    +0.000 C 
ATOM     20  O   UNL     1      62.601  64.459  69.608  0.00  0.00    +0.000 OA
ATOM     21  C   UNL     1      61.886  63.566  68.751  0.00  0.00    +0.000 C 
ATOM     22  C   UNL     1      61.273  63.027  68.633  0.00  0.00    +0.000 C 
ATOM     23  C   UNL     1      61.739  63.158  67.964  0.00  0.00    +0.000 C 
ATOM     24  C   UNL     1      61.039  62.594  67.970  0.00  0.00    +0.000 C 
ATOM     25  C   UNL     1      61.398  62.612  67.228  0.00  0.00    +0.000 C 
ATOM     26  O   UNL     1      62.054  63.095  67.098  0.00  0.00    +0.000 OA
ATOM     27  C   UNL     1      61.100  62.146  66.615  0.00  0.00    +0.000 C 
ATOM     28  O   UNL     1      61.459  62.163  65.872  0.00  0.00    +0.000 OA
ATOM     29  C   UNL     1      61.162  61.698  65.259  0.00  0.00    +0.000 C 
ATOM     30  O   UNL     1      60.505  61.215  65.389  0.00  0.00    +0.000 OA
ATOM     31  C   UNL     1      61.521  61.716  64.517  0.00  0.00    +0.000 C 
ATOM     32  C   UNL     1      61.879  61.732  63.774  0.00  0.00    +0.000 C 
ATOM     33  C   UNL     1      60.969  61.167  64.238  0.00  0.00    +0.000 C 
ATOM     34  C   UNL     1      62.071  62.263  64.796  0.00  0.00    +0.000 C 
ENDROOT
TORSDOF 0
ENDMDL
MODEL 3
REMARK VINA RESULT:   -16.404      1.395      2.008
REMARK INTER + INTRA:         -16.404
REMARK INTER:                 -16.404
REMARK INTRA:                   0.000
REMARK UNBOUND:                 0.000
ROOT
REMARK  Name = clocortolone pivalate
REMARK                            x       y       z     vdW  Elec       q    Type
REMARK                         _______ _______ _______ _____ _____    ______ ____
ATOM      1  C   UNL     1      62.160  64.245  69.171  0.00  0.00    +0.000 C 
ATOM      2  C   UNL     1      61.763  63.801  68.600  0.00  0.00    +0.000 C 
ATOM      3  C   UNL     1      62.073  63.553  67.876  0.00  0.00    +0.000 C 
ATOM      4  C   UNL     1      61.488  63.127  67.482  0.00  0.00    +0.000 C 
ATOM      5  C   UNL     1      61.479  62.750  66.748  0.00  0.00    +0.000 C 
ATOM      6  C   UNL     1      62.151  62.765  66.268  0.00  0.00    +0.000 C 
ATOM      7  C   UNL     1      62.142  62.389  65.534  0.00  0.00    +0.000 C 
ATOM      8  F   UNL     1      62.814  62.405  65.055  0.00  0.00    +0.000 F 
ATOM      9  C   UNL     1      61.462  61.997  65.280  0.00  0.00    +0.000 C 
ATOM     10  C   UNL     1      61.454  61.621  64.545  0.00  0.00    +0.000 C 
ATOM     11  C   UNL     1      60.775  61.229  64.291  0.00  0.00    +0.000 C 
ATOM     12  O   UNL     1      60.766  60.852  63.557  0.00  0.00    +0.000 OA
ATOM     13  C   UNL     1      60.103  61.213  64.770  0.00  0.00    +0.000 C 
ATOM     14  C   UNL     1      60.112  61.590  65.504  0.00  0.00    +0.000 C 
ATOM     15  C   UNL     1      60.791  61.982  65.759  0.00  0.00    +0.000 C 
ATOM     16  C   UNL     1      60.119  61.966  66.238  0.00  0.00    +0.000 C 
ATOM     17  C   UNL     1      60.799  62.358  66.493  0.00  0.00    +0.000 C 
ATOM     18 CL   UNL     1      60.024  62.163  66.698  0.00  0.00    +0.000 Cl
ATOM     19  C   UNL     1      60.128  62.342  66.972  0.00  0.00    +0.000 C 
ATOM     20  O   UNL     1      59.449  61.950  66.717  0.00  0.00    +0.000 OA
ATOM     21  C   UNL     1      60.136  62.719  67.706  0.00  0.00    +0.000 C 
ATOM     22  C   UNL     1      60.816  63.111  67.961  0.00  0.00    +0.000 C 
ATOM     23  C   UNL     1      60.190  63.142  68.497  0.00  0.00    +0.000 C 
ATOM     24  C   UNL     1      60.986  63.528  68.652  0.00  0.00    +0.000 C 
ATOM     25  C   UNL     1      60.470  63.650  69.284  0.00  0.00    +0.000 C 
ATOM     26  O   UNL     1      59.706  63.342  69.258  0.00  0.00    +0.000 OA
ATOM     27  C   UNL     1      60.719  64.081  69.942  0.00  0.00    +0.000 C 
ATOM     28  O   UNL     1      60.204  64.204  70.575  0.00  0.00    +0.000 OA
ATOM     29  C   UNL     1      60.452  64.634  71.233  0.00  0.00    +0.000 C 
ATOM     30  O   UNL     1      61.218  64.943  71.259  0.00  0.00    +0.000 OA
ATOM     31  C   UNL     1      59.937  64.756  71.865  0.00  0.00    +0.000 C 
ATOM     32  C   UNL     1      59.421  64.879  72.497  0.00  0.00    +0.000 C 
ATOM     33  C   UNL     1      60.523  65.183  72.260  0.00  0.00    +0.000 C 
ATOM     34  C   UNL     1      59.352  64.330  71.470  0.00  0.00    +0.000 C 
ENDROOT
TORSDOF 0
ENDMDL
MODEL 4
REMARK VINA RESULT:   -16.326      2.433      5.785
REMARK INTER + INTRA:         -16.326
REMARK INTER:                 -16.326
REMARK INTRA:                   0.000
REMARK UNBOUND:                 0.000
ROOT
REMARK  Name = clocortolone pivalate
REMARK                            x       y       z     vdW  Elec       q    Type
REMARK                         _______ _______ _______ _____ _____    ______ ____
ATOM      1  C   UNL     1      60.846  61.949  69.061  0.00  0.00    +0.000 C 
ATOM      2  C   UNL     1      60.626  62.713  69.283  0.00  0.00    +0.000 C 
ATOM      3  C   UNL     1      60.357  62.943  70.028  0.00  0.00    +0.000 C 
ATOM      4  C   UNL     1      60.202  63.752  70.005  0.00  0.00    +0.000 C 
ATOM      5  C   UNL     1      59.925  64.278  70.576  0.00  0.00    +0.000 C 
ATOM      6  C   UNL     1      59.751  64.008  71.336  0.00  0.00    +0.000 C 
ATOM      7  C   UNL     1      59.474  64.534  71.908  0.00  0.00    +0.000 C 
ATOM      8  F   UNL     1      59.300  64.263  72.668  0.00  0.00    +0.000 F 
ATOM      9  C   UNL     1      59.371  65.330  71.720  0.00  0.00    +0.000 C 
ATOM     10  C   UNL     1      59.094  65.857  72.293  0.00  0.00    +0.000 C 
ATOM     11  C   UNL     1      58.991  66.653  72.105  0.00  0.00    +0.000 C 
ATOM     12  O   UNL     1      58.714  67.179  72.677  0.00  0.00    +0.000 OA
ATOM     13  C   UNL     1      59.165  66.924  71.345  0.00  0.00    +0.000 C 
ATOM     14  C   UNL     1      59.442  66.398  70.774  0.00  0.00    +0.000 C 
ATOM     15  C   UNL     1      59.545  65.601  70.960  0.00  0.00    +0.000 C 
ATOM     16  C   UNL     1      59.719  65.873  70.201  0.00  0.00    +0.000 C 
ATOM     17  C   UNL     1      59.822  65.075  70.389  0.00  0.00    +0.000 C 
ATOM     18 CL   UNL     1      59.891  65.634  69.785  0.00  0.00    +0.000 Cl
ATOM     19  C   UNL     1      59.996  65.346  69.629  0.00  0.00    +0.000 C 
ATOM     20  O   UNL     1      59.893  66.143  69.442  0.00  0.00    +0.000 OA
ATOM     21  C   UNL     1      60.273  64.820  69.057  0.00  0.00    +0.000 C 
ATOM     22  C   UNL     1      60.376  64.023  69.245  0.00  0.00    +0.000 C 
ATOM     23  C   UNL     1      60.572  64.213  68.466  0.00  0.00    +0.000 C 
ATOM     24  C   UNL     1      60.638  63.381  68.798  0.00  0.00    +0.000 C 
ATOM     25  C   UNL     1      60.871  63.402  68.008  0.00  0.00    +0.000 C 
ATOM     26  O   UNL     1      60.854  64.115  67.592  0.00  0.00    +0.000 OA
ATOM     27  C   UNL     1      61.122  62.712  67.633  0.00  0.00    +0.000 C 
ATOM     28  O   UNL     1      61.355  62.733  66.842  0.00  0.00    +0.000 OA
ATOM     29  C   UNL     1      61.606  62.043  66.466  0.00  0.00    +0.000 C 
ATOM     30  O   UNL     1      61.623  61.330  66.883  0.00  0.00    +0.000 OA
ATOM     31  C   UNL     1      61.839  62.064  65.675  0.00  0.00    +0.000 C 
ATOM     32  C   UNL     1      62.072  62.085  64.884  0.00  0.00    +0.000 C 
ATOM     33  C   UNL     1      61.994  61.253  65.699  0.00  0.00    +0.000 C 
ATOM     34  C   UNL     1      61.684  62.874  65.652  0.00  0.00    +0.000 C 
ENDROOT
TORSDOF 0
ENDMDL
MODEL 5
REMARK VINA RESULT:   -15.298      2.393      6.024
REMARK INTER + INTRA:         -15.298
REMARK INTER:                 -15.298
REMARK INTRA:                   0.000
REMARK UNBOUND:                 0.000
ROOT
REMARK  Name = clocortolone pivalate
REMARK                            x       y       z     vdW  Elec       q    Type
REMARK                         _______ _______ _______ _____ _____    ______ ____
ATOM      1  C   UNL     1      60.231  64.519  69.525  0.00  0.00    +0.000 C 
ATOM      2  C   UNL     1      61.029  64.674  69.668  0.00  0.00    +0.000 C 
ATOM      3  C   UNL     1      61.330  65.149  70.271  0.00  0.00    +0.000 C 
ATOM      4  C   UNL     1      62.152  65.150  70.209  0.00  0.00    +0.000 C 
ATOM      5  C   UNL     1      62.739  65.521  70.653  0.00  0.00    +0.000 C 
ATOM      6  C   UNL     1      62.532  65.997  71.295  0.00  0.00    +0.000 C 
ATOM      7  C   UNL     1      63.120  66.369  71.740  0.00  0.00    +0.000 C 
ATOM      8  F   UNL     1      62.912  66.844  72.381  0.00  0.00    +0.000 F 
ATOM      9  C   UNL     1      63.913  66.264  71.542  0.00  0.00    +0.000 C 
ATOM     10  C   UNL     1      64.501  66.637  71.988  0.00  0.00    +0.000 C 
ATOM     11  C   UNL     1      65.295  66.533  71.790  0.00  0.00    +0.000 C 
ATOM     12  O   UNL     1      65.882  66.904  72.235  0.00  0.00    +0.000 OA
ATOM     13  C   UNL     1      65.502  66.057  71.149  0.00  0.00    +0.000 C 
ATOM     14  C   UNL     1      64.915  65.686  70.704  0.00  0.00    +0.000 C 
ATOM     15  C   UNL     1      64.121  65.789  70.901  0.00  0.00    +0.000 C 
ATOM     16  C   UNL     1      64.329  65.313  70.259  0.00  0.00    +0.000 C 
ATOM     17  C   UNL     1      63.534  65.417  70.456  0.00  0.00    +0.000 C 
ATOM     18 CL   UNL     1      64.048  65.046  69.929  0.00  0.00    +0.000 Cl
ATOM     19  C   UNL     1      63.741  64.942  69.815  0.00  0.00    +0.000 C 
ATOM     20  O   UNL     1      64.536  64.839  69.619  0.00  0.00    +0.000 OA
ATOM     21  C   UNL     1      63.154  64.570  69.370  0.00  0.00    +0.000 C 
ATOM     22  C   UNL     1      62.360  64.674  69.567  0.00  0.00    +0.000 C 
ATOM     23  C   UNL     1      62.483  64.185  68.914  0.00  0.00    +0.000 C 
ATOM     24  C   UNL     1      61.665  64.379  69.232  0.00  0.00    +0.000 C 
ATOM     25  C   UNL     1      61.616  63.880  68.578  0.00  0.00    +0.000 C 
ATOM     26  O   UNL     1      62.304  63.630  68.198  0.00  0.00    +0.000 OA
ATOM     27  C   UNL     1      60.879  63.630  68.305  0.00  0.00    +0.000 C 
ATOM     28  O   UNL     1      60.829  63.130  67.651  0.00  0.00    +0.000 OA
ATOM     29  C   UNL     1      60.092  62.879  67.377  0.00  0.00    +0.000 C 
ATOM     30  O   UNL     1      59.404  63.129  67.759  0.00  0.00    +0.000 OA
ATOM     31  C   UNL     1      60.043  62.379  66.723  0.00  0.00    +0.000 C 
ATOM     32  C   UNL     1      59.993  61.879  66.069  0.00  0.00    +0.000 C 
ATOM     33  C   UNL     1      59.220  62.379  66.786  0.00  0.00    +0.000 C 
ATOM     34  C   UNL     1      60.865  62.380  66.661  0.00  0.00    +0.000 C 
ENDROOT
TORSDOF 0
ENDMDL
MODEL 6
REMARK VINA RESULT:   -14.586      5.044      6.726
REMARK INTER + INTRA:         -14.586
REMARK INTER:                 -14.586
REMARK INTRA:                   0.000
REMARK UNBOUND:                 0.000
ROOT
REMARK  Name = clocortolone pivalate
REMARK                            x       y       z     vdW  Elec       q    Type
REMARK                         _______ _______ _______ _____ _____    ______ ____
ATOM      1  C   UNL     1      60.893  64.492  71.069  0.00  0.00    +0.000 C 
ATOM      2  C   UNL     1      61.519  65.004  71.236  0.00  0.00    +0.000 C 
ATOM      3  C   UNL     1      62.288  64.941  70.945  0.00  0.00    +0.000 C 
ATOM      4  C   UNL     1      62.729  65.566  71.253  0.00  0.00    +0.000 C 
ATOM      5  C   UNL     1      63.518  65.785  71.157  0.00  0.00    +0.000 C 
ATOM      6  C   UNL     1      64.016  65.336  70.675  0.00  0.00    +0.000 C 
ATOM      7  C   UNL     1      64.805  65.554  70.579  0.00  0.00    +0.000 C 
ATOM      8  F   UNL     1      65.302  65.105  70.098  0.00  0.00    +0.000 F 
ATOM      9  C   UNL     1      65.098  66.222  70.965  0.00  0.00    +0.000 C 
ATOM     10  C   UNL     1      65.888  66.440  70.869  0.00  0.00    +0.000 C 
ATOM     11  C   UNL     1      66.181  67.108  71.255  0.00  0.00    +0.000 C 
ATOM     12  O   UNL     1      66.970  67.327  71.159  0.00  0.00    +0.000 OA
ATOM     13  C   UNL     1      65.684  67.557  71.737  0.00  0.00    +0.000 C 
ATOM     14  C   UNL     1      64.895  67.339  71.832  0.00  0.00    +0.000 C 
ATOM     15  C   UNL     1      64.601  66.672  71.447  0.00  0.00    +0.000 C 
ATOM     16  C   UNL     1      64.105  67.121  71.929  0.00  0.00    +0.000 C 
ATOM     17  C   UNL     1      63.812  66.453  71.543  0.00  0.00    +0.000 C 
ATOM     18 CL   UNL     1      63.612  67.072  72.051  0.00  0.00    +0.000 Cl
ATOM     19  C   UNL     1      63.315  66.902  72.025  0.00  0.00    +0.000 C 
ATOM     20  O   UNL     1      63.608  67.570  72.410  0.00  0.00    +0.000 OA
ATOM     21  C   UNL     1      62.526  66.684  72.120  0.00  0.00    +0.000 C 
ATOM     22  C   UNL     1      62.232  66.016  71.734  0.00  0.00    +0.000 C 
ATOM     23  C   UNL     1      61.673  66.410  72.196  0.00  0.00    +0.000 C 
ATOM     24  C   UNL     1      61.484  65.668  71.724  0.00  0.00    +0.000 C 
ATOM     25  C   UNL     1      60.819  65.938  72.131  0.00  0.00    +0.000 C 
ATOM     26  O   UNL     1      60.868  66.614  72.600  0.00  0.00    +0.000 OA
ATOM     27  C   UNL     1      60.104  65.530  72.067  0.00  0.00    +0.000 C 
ATOM     28  O   UNL     1      59.438  65.799  72.473  0.00  0.00    +0.000 OA
ATOM     29  C   UNL     1      58.723  65.393  72.410  0.00  0.00    +0.000 C 
ATOM     30  O   UNL     1      58.674  64.716  71.940  0.00  0.00    +0.000 OA
ATOM     31  C   UNL     1      58.058  65.662  72.816  0.00  0.00    +0.000 C 
ATOM     32  C   UNL     1      57.392  65.931  73.222  0.00  0.00    +0.000 C 
ATOM     33  C   UNL     1      57.617  65.036  72.508  0.00  0.00    +0.000 C 
ATOM     34  C   UNL     1      58.499  66.287  73.124  0.00  0.00    +0.000 C 
ENDROOT
TORSDOF 0
ENDMDL
MODEL 7
REMARK VINA RESULT:   -13.750      3.344      4.687
REMARK INTER + INTRA:         -13.750
REMARK INTER:                 -13.750
REMARK INTRA:                   0.000
REMARK UNBOUND:                 0.000
ROOT
REMARK  Name = clocortolone pivalate
REMARK                            x       y       z     vdW  Elec       q    Type
REMARK                         _______ _______ _______ _____ _____    ______ ____
ATOM      1  C   UNL     1      63.653  65.973  68.872  0.00  0.00    +0.000 C 
ATOM      2  C   UNL     1      63.309  65.386  69.338  0.00  0.00    +0.000 C 
ATOM      3  C   UNL     1      62.663  64.916  69.130  0.00  0.00    +0.000 C 
ATOM      4  C   UNL     1      62.506  64.406  69.758  0.00  0.00    +0.000 C 
ATOM      5  C   UNL     1      61.935  63.821  69.865  0.00  0.00    +0.000 C 
ATOM      6  C   UNL     1      61.385  63.666  69.268  0.00  0.00    +0.000 C 
ATOM      7  C   UNL     1      60.814  63.081  69.375  0.00  0.00    +0.000 C 
ATOM      8  F   UNL     1      60.265  62.928  68.778  0.00  0.00    +0.000 F 
ATOM      9  C   UNL     1      60.791  62.651  70.077  0.00  0.00    +0.000 C 
ATOM     10  C   UNL     1      60.219  62.065  70.183  0.00  0.00    +0.000 C 
ATOM     11  C   UNL     1      60.196  61.634  70.886  0.00  0.00    +0.000 C 
ATOM     12  O   UNL     1      59.625  61.049  70.992  0.00  0.00    +0.000 OA
ATOM     13  C   UNL     1      60.745  61.787  71.483  0.00  0.00    +0.000 C 
ATOM     14  C   UNL     1      61.316  62.372  71.376  0.00  0.00    +0.000 C 
ATOM     15  C   UNL     1      61.340  62.804  70.674  0.00  0.00    +0.000 C 
ATOM     16  C   UNL     1      61.889  62.957  71.271  0.00  0.00    +0.000 C 
ATOM     17  C   UNL     1      61.912  63.389  70.568  0.00  0.00    +0.000 C 
ATOM     18 CL   UNL     1      62.273  63.290  71.303  0.00  0.00    +0.000 Cl
ATOM     19  C   UNL     1      62.460  63.542  71.165  0.00  0.00    +0.000 C 
ATOM     20  O   UNL     1      62.437  63.111  71.867  0.00  0.00    +0.000 OA
ATOM     21  C   UNL     1      63.032  64.127  71.058  0.00  0.00    +0.000 C 
ATOM     22  C   UNL     1      63.055  64.559  70.355  0.00  0.00    +0.000 C 
ATOM     23  C   UNL     1      63.637  64.773  70.900  0.00  0.00    +0.000 C 
ATOM     24  C   UNL     1      63.552  65.165  70.096  0.00  0.00    +0.000 C 
ATOM     25  C   UNL     1      64.179  65.492  70.519  0.00  0.00    +0.000 C 
ATOM     26  O   UNL     1      64.357  65.214  71.275  0.00  0.00    +0.000 OA
ATOM     27  C   UNL     1      64.629  66.098  70.186  0.00  0.00    +0.000 C 
ATOM     28  O   UNL     1      65.257  66.426  70.608  0.00  0.00    +0.000 OA
ATOM     29  C   UNL     1      65.708  67.032  70.276  0.00  0.00    +0.000 C 
ATOM     30  O   UNL     1      65.530  67.311  69.520  0.00  0.00    +0.000 OA
ATOM     31  C   UNL     1      66.335  67.359  70.699  0.00  0.00    +0.000 C 
ATOM     32  C   UNL     1      66.964  67.687  71.122  0.00  0.00    +0.000 C 
ATOM     33  C   UNL     1      66.493  67.871  70.070  0.00  0.00    +0.000 C 
ATOM     34  C   UNL     1      66.178  66.849  71.327  0.00  0.00    +0.000 C 
ENDROOT
TORSDOF 0
ENDMDL
