MODEL 1
REMARK VINA RESULT:    -6.280      0.000      0.000
REMARK INTER + INTRA:          -6.280
REMARK INTER:                  -6.280
REMARK INTRA:                   0.000
REMARK UNBOUND:                 0.000
ROOT
REMARK  Name = clodronic acid
REMARK                            x       y       z     vdW  Elec       q    Type
REMARK                         _______ _______ _______ _____ _____    ______ ____
ATOM      1  O   UNL     1      61.018  62.175  66.451  0.00  0.00    +0.000 OA
ATOM      2  P   UNL     1      61.378  62.052  65.719  0.00  0.00    +0.000 P 
ATOM      3  O   UNL     1      62.012  62.527  65.951  0.00  0.00    +0.000 OA
ATOM      4  O   UNL     1      60.745  61.577  65.488  0.00  0.00    +0.000 OA
ATOM      5  C   UNL     1      61.738  61.928  64.987  0.00  0.00    +0.000 C 
ATOM      6 CL   UNL     1      62.372  62.403  65.219  0.00  0.00    +0.000 Cl
ATOM      7 CL   UNL     1      61.105  61.453  64.756  0.00  0.00    +0.000 Cl
ATOM      8  P   UNL     1      62.098  61.804  64.255  0.00  0.00    +0.000 P 
ATOM      9  O   UNL     1      62.458  61.681  63.523  0.00  0.00    +0.000 OA
ATOM     10  O   UNL     1      62.732  62.279  64.487  0.00  0.00    +0.000 OA
ATOM     11  O   UNL     1      61.465  61.329  64.024  0.00  0.00    +0.000 OA
ENDROOT
TORSDOF 0
ENDMDL
MODEL 2
REMARK VINA RESULT:    -6.277      0.116      2.224
REMARK INTER + INTRA:          -6.277
REMARK INTER:                  -6.277
REMARK INTRA:                   0.000
REMARK UNBOUND:                 0.000
ROOT
REMARK  Name = clodronic acid
REMARK                            x       y       z     vdW  Elec       q    Type
REMARK                         _______ _______ _______ _____ _____    ______ ____
ATOM      1  O   UNL     1      62.383  61.680  63.483  0.00  0.00    +0.000 OA
ATOM      2  P   UNL     1      62.091  61.813  64.243  0.00  0.00    +0.000 P 
ATOM      3  O   UNL     1      61.437  61.339  64.074  0.00  0.00    +0.000 OA
ATOM      4  O   UNL     1      62.745  62.286  64.413  0.00  0.00    +0.000 OA
ATOM      5  C   UNL     1      61.798  61.945  65.003  0.00  0.00    +0.000 C 
ATOM      6 CL   UNL     1      61.144  61.472  64.834  0.00  0.00    +0.000 Cl
ATOM      7 CL   UNL     1      62.453  62.418  65.173  0.00  0.00    +0.000 Cl
ATOM      8  P   UNL     1      61.506  62.078  65.763  0.00  0.00    +0.000 P 
ATOM      9  O   UNL     1      61.213  62.211  66.523  0.00  0.00    +0.000 OA
ATOM     10  O   UNL     1      60.852  61.605  65.594  0.00  0.00    +0.000 OA
ATOM     11  O   UNL     1      62.160  62.551  65.932  0.00  0.00    +0.000 OA
ENDROOT
TORSDOF 0
ENDMDL
MODEL 3
REMARK VINA RESULT:    -5.358     16.769     17.277
REMARK INTER + INTRA:          -5.358
REMARK INTER:                  -5.358
REMARK INTRA:                   0.000
REMARK UNBOUND:                 0.000
ROOT
REMARK  Name = clodronic acid
REMARK                            x       y       z     vdW  Elec       q    Type
REMARK                         _______ _______ _______ _____ _____    ______ ____
ATOM      1  O   UNL     1      66.109  76.328  60.489  0.00  0.00    +0.000 OA
ATOM      2  P   UNL     1      66.056  77.045  60.085  0.00  0.00    +0.000 P 
ATOM      3  O   UNL     1      66.879  77.105  60.082  0.00  0.00    +0.000 OA
ATOM      4  O   UNL     1      65.233  76.986  60.088  0.00  0.00    +0.000 OA
ATOM      5  C   UNL     1      66.003  77.763  59.681  0.00  0.00    +0.000 C 
ATOM      6 CL   UNL     1      66.826  77.822  59.679  0.00  0.00    +0.000 Cl
ATOM      7 CL   UNL     1      65.180  77.704  59.684  0.00  0.00    +0.000 Cl
ATOM      8  P   UNL     1      65.950  78.480  59.277  0.00  0.00    +0.000 P 
ATOM      9  O   UNL     1      65.897  79.198  58.873  0.00  0.00    +0.000 OA
ATOM     10  O   UNL     1      66.773  78.540  59.275  0.00  0.00    +0.000 OA
ATOM     11  O   UNL     1      65.127  78.421  59.280  0.00  0.00    +0.000 OA
ENDROOT
TORSDOF 0
ENDMDL
MODEL 4
REMARK VINA RESULT:    -5.265      7.735      8.599
REMARK INTER + INTRA:          -5.265
REMARK INTER:                  -5.265
REMARK INTRA:                   0.000
REMARK UNBOUND:                 0.000
ROOT
REMARK  Name = clodronic acid
REMARK                            x       y       z     vdW  Elec       q    Type
REMARK                         _______ _______ _______ _____ _____    ______ ____
ATOM      1  O   UNL     1      66.401  67.932  69.794  0.00  0.00    +0.000 OA
ATOM      2  P   UNL     1      65.949  67.381  70.208  0.00  0.00    +0.000 P 
ATOM      3  O   UNL     1      65.556  67.179  69.511  0.00  0.00    +0.000 OA
ATOM      4  O   UNL     1      66.341  67.582  70.905  0.00  0.00    +0.000 OA
ATOM      5  C   UNL     1      65.496  66.829  70.623  0.00  0.00    +0.000 C 
ATOM      6 CL   UNL     1      65.103  66.628  69.926  0.00  0.00    +0.000 Cl
ATOM      7 CL   UNL     1      65.889  67.031  71.320  0.00  0.00    +0.000 Cl
ATOM      8  P   UNL     1      65.044  66.278  71.037  0.00  0.00    +0.000 P 
ATOM      9  O   UNL     1      64.591  65.726  71.452  0.00  0.00    +0.000 OA
ATOM     10  O   UNL     1      64.651  66.076  70.340  0.00  0.00    +0.000 OA
ATOM     11  O   UNL     1      65.436  66.479  71.734  0.00  0.00    +0.000 OA
ENDROOT
TORSDOF 0
ENDMDL
MODEL 5
REMARK VINA RESULT:    -5.245      1.843      2.635
REMARK INTER + INTRA:          -5.245
REMARK INTER:                  -5.245
REMARK INTRA:                   0.000
REMARK UNBOUND:                 0.000
ROOT
REMARK  Name = clodronic acid
REMARK                            x       y       z     vdW  Elec       q    Type
REMARK                         _______ _______ _______ _____ _____    ______ ____
ATOM      1  O   UNL     1      60.156  62.555  68.552  0.00  0.00    +0.000 OA
ATOM      2  P   UNL     1      60.516  62.567  67.810  0.00  0.00    +0.000 P 
ATOM      3  O   UNL     1      59.793  62.386  67.456  0.00  0.00    +0.000 OA
ATOM      4  O   UNL     1      61.239  62.747  68.163  0.00  0.00    +0.000 OA
ATOM      5  C   UNL     1      60.876  62.579  67.068  0.00  0.00    +0.000 C 
ATOM      6 CL   UNL     1      60.153  62.398  66.714  0.00  0.00    +0.000 Cl
ATOM      7 CL   UNL     1      61.599  62.759  67.421  0.00  0.00    +0.000 Cl
ATOM      8  P   UNL     1      61.236  62.591  66.325  0.00  0.00    +0.000 P 
ATOM      9  O   UNL     1      61.596  62.603  65.583  0.00  0.00    +0.000 OA
ATOM     10  O   UNL     1      60.513  62.410  65.972  0.00  0.00    +0.000 OA
ATOM     11  O   UNL     1      61.959  62.771  66.679  0.00  0.00    +0.000 OA
ENDROOT
TORSDOF 0
ENDMDL
MODEL 6
REMARK VINA RESULT:    -5.242     24.270     25.009
REMARK INTER + INTRA:          -5.242
REMARK INTER:                  -5.242
REMARK INTRA:                   0.000
REMARK UNBOUND:                 0.000
ROOT
REMARK  Name = clodronic acid
REMARK                            x       y       z     vdW  Elec       q    Type
REMARK                         _______ _______ _______ _____ _____    ______ ____
ATOM      1  O   UNL     1      71.967  78.718  48.170  0.00  0.00    +0.000 OA
ATOM      2  P   UNL     1      71.402  78.892  48.746  0.00  0.00    +0.000 P 
ATOM      3  O   UNL     1      71.699  79.659  48.805  0.00  0.00    +0.000 OA
ATOM      4  O   UNL     1      71.105  78.125  48.686  0.00  0.00    +0.000 OA
ATOM      5  C   UNL     1      70.838  79.066  49.321  0.00  0.00    +0.000 C 
ATOM      6 CL   UNL     1      71.135  79.833  49.381  0.00  0.00    +0.000 Cl
ATOM      7 CL   UNL     1      70.541  78.299  49.262  0.00  0.00    +0.000 Cl
ATOM      8  P   UNL     1      70.273  79.240  49.897  0.00  0.00    +0.000 P 
ATOM      9  O   UNL     1      69.708  79.414  50.472  0.00  0.00    +0.000 OA
ATOM     10  O   UNL     1      70.570  80.007  49.956  0.00  0.00    +0.000 OA
ATOM     11  O   UNL     1      69.976  78.473  49.837  0.00  0.00    +0.000 OA
ENDROOT
TORSDOF 0
ENDMDL
MODEL 7
REMARK VINA RESULT:    -5.232      2.785      4.045
REMARK INTER + INTRA:          -5.232
REMARK INTER:                  -5.232
REMARK INTRA:                   0.000
REMARK UNBOUND:                 0.000
ROOT
REMARK  Name = clodronic acid
REMARK                            x       y       z     vdW  Elec       q    Type
REMARK                         _______ _______ _______ _____ _____    ______ ____
ATOM      1  O   UNL     1      61.339  63.042  66.701  0.00  0.00    +0.000 OA
ATOM      2  P   UNL     1      61.103  62.814  67.458  0.00  0.00    +0.000 P 
ATOM      3  O   UNL     1      60.612  62.237  67.132  0.00  0.00    +0.000 OA
ATOM      4  O   UNL     1      61.594  63.391  67.785  0.00  0.00    +0.000 OA
ATOM      5  C   UNL     1      60.868  62.586  68.216  0.00  0.00    +0.000 C 
ATOM      6 CL   UNL     1      60.377  62.009  67.889  0.00  0.00    +0.000 Cl
ATOM      7 CL   UNL     1      61.359  63.163  68.542  0.00  0.00    +0.000 Cl
ATOM      8  P   UNL     1      60.633  62.358  68.973  0.00  0.00    +0.000 P 
ATOM      9  O   UNL     1      60.398  62.130  69.730  0.00  0.00    +0.000 OA
ATOM     10  O   UNL     1      60.142  61.781  68.646  0.00  0.00    +0.000 OA
ATOM     11  O   UNL     1      61.124  62.935  69.299  0.00  0.00    +0.000 OA
ENDROOT
TORSDOF 0
ENDMDL
MODEL 8
REMARK VINA RESULT:    -5.039     24.330     24.939
REMARK INTER + INTRA:          -5.039
REMARK INTER:                  -5.039
REMARK INTRA:                   0.000
REMARK UNBOUND:                 0.000
ROOT
REMARK  Name = clodronic acid
REMARK                            x       y       z     vdW  Elec       q    Type
REMARK                         _______ _______ _______ _____ _____    ______ ____
ATOM      1  O   UNL     1      70.172  80.323  50.648  0.00  0.00    +0.000 OA
ATOM      2  P   UNL     1      70.433  79.791  50.074  0.00  0.00    +0.000 P 
ATOM      3  O   UNL     1      69.916  79.219  50.369  0.00  0.00    +0.000 OA
ATOM      4  O   UNL     1      70.951  80.362  49.780  0.00  0.00    +0.000 OA
ATOM      5  C   UNL     1      70.695  79.258  49.501  0.00  0.00    +0.000 C 
ATOM      6 CL   UNL     1      70.177  78.687  49.795  0.00  0.00    +0.000 Cl
ATOM      7 CL   UNL     1      71.212  79.829  49.207  0.00  0.00    +0.000 Cl
ATOM      8  P   UNL     1      70.956  78.726  48.928  0.00  0.00    +0.000 P 
ATOM      9  O   UNL     1      71.218  78.193  48.354  0.00  0.00    +0.000 OA
ATOM     10  O   UNL     1      70.439  78.155  49.222  0.00  0.00    +0.000 OA
ATOM     11  O   UNL     1      71.474  79.297  48.633  0.00  0.00    +0.000 OA
ENDROOT
TORSDOF 0
ENDMDL
MODEL 9
REMARK VINA RESULT:    -4.839      6.893      7.441
REMARK INTER + INTRA:          -4.839
REMARK INTER:                  -4.839
REMARK INTRA:                   0.000
REMARK UNBOUND:                 0.000
ROOT
REMARK  Name = clodronic acid
REMARK                            x       y       z     vdW  Elec       q    Type
REMARK                         _______ _______ _______ _____ _____    ______ ____
ATOM      1  O   UNL     1      59.973  64.741  72.246  0.00  0.00    +0.000 OA
ATOM      2  P   UNL     1      60.398  64.036  72.202  0.00  0.00    +0.000 P 
ATOM      3  O   UNL     1      60.871  64.281  72.832  0.00  0.00    +0.000 OA
ATOM      4  O   UNL     1      59.926  63.791  71.571  0.00  0.00    +0.000 OA
ATOM      5  C   UNL     1      60.824  63.331  72.157  0.00  0.00    +0.000 C 
ATOM      6 CL   UNL     1      61.297  63.576  72.787  0.00  0.00    +0.000 Cl
ATOM      7 CL   UNL     1      60.352  63.085  71.527  0.00  0.00    +0.000 Cl
ATOM      8  P   UNL     1      61.250  62.625  72.112  0.00  0.00    +0.000 P 
ATOM      9  O   UNL     1      61.675  61.920  72.068  0.00  0.00    +0.000 OA
ATOM     10  O   UNL     1      61.722  62.871  72.743  0.00  0.00    +0.000 OA
ATOM     11  O   UNL     1      60.777  62.380  71.482  0.00  0.00    +0.000 OA
ENDROOT
TORSDOF 0
ENDMDL
