MODEL 1
REMARK VINA RESULT:    -8.341      0.000      0.000
REMARK INTER + INTRA:          -8.341
REMARK INTER:                  -8.341
REMARK INTRA:                   0.000
REMARK UNBOUND:                 0.000
ROOT
REMARK  Name = clofenamide
REMARK                            x       y       z     vdW  Elec       q    Type
REMARK                         _______ _______ _______ _____ _____    ______ ____
ATOM      1  N   UNL     1      61.379  62.961  67.341  0.00  0.00    +0.000 NA
ATOM      2  S   UNL     1      61.251  62.558  66.632  0.00  0.00    +0.000 S 
ATOM      3  O   UNL     1      61.991  62.803  66.359  0.00  0.00    +0.000 OA
ATOM      4  O   UNL     1      60.511  62.314  66.905  0.00  0.00    +0.000 OA
ATOM      5  C   UNL     1      61.122  62.156  65.924  0.00  0.00    +0.000 A 
ATOM      6  C   UNL     1      60.418  61.743  65.806  0.00  0.00    +0.000 A 
ATOM      7  C   UNL     1      60.290  61.341  65.097  0.00  0.00    +0.000 A 
ATOM      8  C   UNL     1      60.865  61.351  64.507  0.00  0.00    +0.000 A 
ATOM      9 CL   UNL     1      60.736  60.948  63.798  0.00  0.00    +0.000 Cl
ATOM     10  C   UNL     1      61.570  61.764  64.624  0.00  0.00    +0.000 A 
ATOM     11  C   UNL     1      61.699  62.166  65.333  0.00  0.00    +0.000 A 
ATOM     12  S   UNL     1      62.147  61.774  64.034  0.00  0.00    +0.000 S 
ATOM     13  N   UNL     1      62.722  61.784  63.443  0.00  0.00    +0.000 NA
ATOM     14  O   UNL     1      62.627  62.245  64.511  0.00  0.00    +0.000 OA
ATOM     15  O   UNL     1      61.665  61.303  63.557  0.00  0.00    +0.000 OA
ENDROOT
TORSDOF 0
ENDMDL
MODEL 2
REMARK VINA RESULT:    -8.267      0.873      2.680
REMARK INTER + INTRA:          -8.267
REMARK INTER:                  -8.267
REMARK INTRA:                   0.000
REMARK UNBOUND:                 0.000
ROOT
REMARK  Name = clofenamide
REMARK                            x       y       z     vdW  Elec       q    Type
REMARK                         _______ _______ _______ _____ _____    ______ ____
ATOM      1  N   UNL     1      62.611  61.684  63.706  0.00  0.00    +0.000 NA
ATOM      2  S   UNL     1      62.026  61.761  64.284  0.00  0.00    +0.000 S 
ATOM      3  O   UNL     1      62.542  62.210  64.747  0.00  0.00    +0.000 OA
ATOM      4  O   UNL     1      61.510  61.312  63.821  0.00  0.00    +0.000 OA
ATOM      5  C   UNL     1      61.442  61.837  64.860  0.00  0.00    +0.000 A 
ATOM      6  C   UNL     1      60.704  61.488  64.749  0.00  0.00    +0.000 A 
ATOM      7  C   UNL     1      60.119  61.564  65.326  0.00  0.00    +0.000 A 
ATOM      8  C   UNL     1      60.274  61.991  66.015  0.00  0.00    +0.000 A 
ATOM      9 CL   UNL     1      59.688  62.067  66.593  0.00  0.00    +0.000 Cl
ATOM     10  C   UNL     1      61.012  62.341  66.127  0.00  0.00    +0.000 A 
ATOM     11  C   UNL     1      61.597  62.264  65.550  0.00  0.00    +0.000 A 
ATOM     12  S   UNL     1      61.167  62.768  66.816  0.00  0.00    +0.000 S 
ATOM     13  N   UNL     1      61.321  63.194  67.505  0.00  0.00    +0.000 NA
ATOM     14  O   UNL     1      61.930  62.925  66.548  0.00  0.00    +0.000 OA
ATOM     15  O   UNL     1      60.403  62.610  67.085  0.00  0.00    +0.000 OA
ENDROOT
TORSDOF 0
ENDMDL
MODEL 3
REMARK VINA RESULT:    -7.182      4.677      5.790
REMARK INTER + INTRA:          -7.182
REMARK INTER:                  -7.182
REMARK INTRA:                   0.000
REMARK UNBOUND:                 0.000
ROOT
REMARK  Name = clofenamide
REMARK                            x       y       z     vdW  Elec       q    Type
REMARK                         _______ _______ _______ _____ _____    ______ ____
ATOM      1  N   UNL     1      60.363  62.203  68.163  0.00  0.00    +0.000 NA
ATOM      2  S   UNL     1      60.575  62.296  68.956  0.00  0.00    +0.000 S 
ATOM      3  O   UNL     1      61.018  62.964  68.759  0.00  0.00    +0.000 OA
ATOM      4  O   UNL     1      60.132  61.628  69.152  0.00  0.00    +0.000 OA
ATOM      5  C   UNL     1      60.786  62.388  69.747  0.00  0.00    +0.000 A 
ATOM      6  C   UNL     1      60.508  61.857  70.313  0.00  0.00    +0.000 A 
ATOM      7  C   UNL     1      60.720  61.949  71.105  0.00  0.00    +0.000 A 
ATOM      8  C   UNL     1      61.209  62.573  71.331  0.00  0.00    +0.000 A 
ATOM      9 CL   UNL     1      61.421  62.666  72.124  0.00  0.00    +0.000 Cl
ATOM     10  C   UNL     1      61.487  63.106  70.765  0.00  0.00    +0.000 A 
ATOM     11  C   UNL     1      61.276  63.013  69.973  0.00  0.00    +0.000 A 
ATOM     12  S   UNL     1      61.977  63.730  70.991  0.00  0.00    +0.000 S 
ATOM     13  N   UNL     1      62.466  64.355  71.217  0.00  0.00    +0.000 NA
ATOM     14  O   UNL     1      62.015  63.984  70.207  0.00  0.00    +0.000 OA
ATOM     15  O   UNL     1      61.939  63.476  71.775  0.00  0.00    +0.000 OA
ENDROOT
TORSDOF 0
ENDMDL
MODEL 4
REMARK VINA RESULT:    -7.144      5.868      6.662
REMARK INTER + INTRA:          -7.144
REMARK INTER:                  -7.144
REMARK INTRA:                   0.000
REMARK UNBOUND:                 0.000
ROOT
REMARK  Name = clofenamide
REMARK                            x       y       z     vdW  Elec       q    Type
REMARK                         _______ _______ _______ _____ _____    ______ ____
ATOM      1  N   UNL     1      59.630  65.183  72.190  0.00  0.00    +0.000 NA
ATOM      2  S   UNL     1      60.033  64.470  72.083  0.00  0.00    +0.000 S 
ATOM      3  O   UNL     1      59.670  64.376  71.346  0.00  0.00    +0.000 OA
ATOM      4  O   UNL     1      60.395  64.564  72.818  0.00  0.00    +0.000 OA
ATOM      5  C   UNL     1      60.434  63.758  71.976  0.00  0.00    +0.000 A 
ATOM      6  C   UNL     1      60.949  63.483  72.559  0.00  0.00    +0.000 A 
ATOM      7  C   UNL     1      61.351  62.771  72.452  0.00  0.00    +0.000 A 
ATOM      8  C   UNL     1      61.238  62.333  71.762  0.00  0.00    +0.000 A 
ATOM      9 CL   UNL     1      61.640  61.620  71.655  0.00  0.00    +0.000 Cl
ATOM     10  C   UNL     1      60.723  62.608  71.178  0.00  0.00    +0.000 A 
ATOM     11  C   UNL     1      60.321  63.320  71.285  0.00  0.00    +0.000 A 
ATOM     12  S   UNL     1      60.610  62.171  70.487  0.00  0.00    +0.000 S 
ATOM     13  N   UNL     1      60.498  61.733  69.798  0.00  0.00    +0.000 NA
ATOM     14  O   UNL     1      60.081  62.740  70.213  0.00  0.00    +0.000 OA
ATOM     15  O   UNL     1      61.140  61.600  70.763  0.00  0.00    +0.000 OA
ENDROOT
TORSDOF 0
ENDMDL
MODEL 5
REMARK VINA RESULT:    -7.082      2.796      4.147
REMARK INTER + INTRA:          -7.082
REMARK INTER:                  -7.082
REMARK INTRA:                   0.000
REMARK UNBOUND:                 0.000
ROOT
REMARK  Name = clofenamide
REMARK                            x       y       z     vdW  Elec       q    Type
REMARK                         _______ _______ _______ _____ _____    ______ ____
ATOM      1  N   UNL     1      61.387  62.639  65.892  0.00  0.00    +0.000 NA
ATOM      2  S   UNL     1      61.216  62.611  66.700  0.00  0.00    +0.000 S 
ATOM      3  O   UNL     1      61.752  63.224  66.835  0.00  0.00    +0.000 OA
ATOM      4  O   UNL     1      60.680  61.998  66.564  0.00  0.00    +0.000 OA
ATOM      5  C   UNL     1      61.045  62.582  67.505  0.00  0.00    +0.000 A 
ATOM      6  C   UNL     1      60.495  62.038  67.792  0.00  0.00    +0.000 A 
ATOM      7  C   UNL     1      60.324  62.010  68.598  0.00  0.00    +0.000 A 
ATOM      8  C   UNL     1      60.702  62.526  69.118  0.00  0.00    +0.000 A 
ATOM      9 CL   UNL     1      60.531  62.497  69.926  0.00  0.00    +0.000 Cl
ATOM     10  C   UNL     1      61.252  63.071  68.833  0.00  0.00    +0.000 A 
ATOM     11  C   UNL     1      61.423  63.099  68.026  0.00  0.00    +0.000 A 
ATOM     12  S   UNL     1      61.631  63.587  69.353  0.00  0.00    +0.000 S 
ATOM     13  N   UNL     1      62.009  64.103  69.874  0.00  0.00    +0.000 NA
ATOM     14  O   UNL     1      62.047  63.918  68.722  0.00  0.00    +0.000 OA
ATOM     15  O   UNL     1      61.214  63.256  69.984  0.00  0.00    +0.000 OA
ENDROOT
TORSDOF 0
ENDMDL
MODEL 6
REMARK VINA RESULT:    -7.029      4.364      5.306
REMARK INTER + INTRA:          -7.029
REMARK INTER:                  -7.029
REMARK INTRA:                   0.000
REMARK UNBOUND:                 0.000
ROOT
REMARK  Name = clofenamide
REMARK                            x       y       z     vdW  Elec       q    Type
REMARK                         _______ _______ _______ _____ _____    ______ ____
ATOM      1  N   UNL     1      61.643  63.721  72.483  0.00  0.00    +0.000 NA
ATOM      2  S   UNL     1      61.386  63.308  71.815  0.00  0.00    +0.000 S 
ATOM      3  O   UNL     1      61.624  63.936  71.335  0.00  0.00    +0.000 OA
ATOM      4  O   UNL     1      61.148  62.680  72.295  0.00  0.00    +0.000 OA
ATOM      5  C   UNL     1      61.130  62.895  71.149  0.00  0.00    +0.000 A 
ATOM      6  C   UNL     1      60.796  62.145  71.231  0.00  0.00    +0.000 A 
ATOM      7  C   UNL     1      60.540  61.732  70.564  0.00  0.00    +0.000 A 
ATOM      8  C   UNL     1      60.618  62.069  69.816  0.00  0.00    +0.000 A 
ATOM      9 CL   UNL     1      60.362  61.655  69.149  0.00  0.00    +0.000 Cl
ATOM     10  C   UNL     1      60.952  62.819  69.733  0.00  0.00    +0.000 A 
ATOM     11  C   UNL     1      61.208  63.232  70.400  0.00  0.00    +0.000 A 
ATOM     12  S   UNL     1      61.030  63.157  68.984  0.00  0.00    +0.000 S 
ATOM     13  N   UNL     1      61.108  63.493  68.235  0.00  0.00    +0.000 NA
ATOM     14  O   UNL     1      61.371  63.827  69.321  0.00  0.00    +0.000 OA
ATOM     15  O   UNL     1      60.689  62.484  68.646  0.00  0.00    +0.000 OA
ENDROOT
TORSDOF 0
ENDMDL
MODEL 7
REMARK VINA RESULT:    -6.969      6.925      7.864
REMARK INTER + INTRA:          -6.969
REMARK INTER:                  -6.969
REMARK INTRA:                   0.000
REMARK UNBOUND:                 0.000
ROOT
REMARK  Name = clofenamide
REMARK                            x       y       z     vdW  Elec       q    Type
REMARK                         _______ _______ _______ _____ _____    ______ ____
ATOM      1  N   UNL     1      66.316  67.721  69.926  0.00  0.00    +0.000 NA
ATOM      2  S   UNL     1      65.720  67.267  70.274  0.00  0.00    +0.000 S 
ATOM      3  O   UNL     1      65.758  66.734  69.644  0.00  0.00    +0.000 OA
ATOM      4  O   UNL     1      65.682  67.800  70.903  0.00  0.00    +0.000 OA
ATOM      5  C   UNL     1      65.126  66.815  70.621  0.00  0.00    +0.000 A 
ATOM      6  C   UNL     1      64.795  67.049  71.340  0.00  0.00    +0.000 A 
ATOM      7  C   UNL     1      64.200  66.596  71.687  0.00  0.00    +0.000 A 
ATOM      8  C   UNL     1      63.936  65.908  71.317  0.00  0.00    +0.000 A 
ATOM      9 CL   UNL     1      63.340  65.454  71.665  0.00  0.00    +0.000 Cl
ATOM     10  C   UNL     1      64.266  65.673  70.598  0.00  0.00    +0.000 A 
ATOM     11  C   UNL     1      64.861  66.126  70.250  0.00  0.00    +0.000 A 
ATOM     12  S   UNL     1      64.002  64.985  70.227  0.00  0.00    +0.000 S 
ATOM     13  N   UNL     1      63.737  64.297  69.857  0.00  0.00    +0.000 NA
ATOM     14  O   UNL     1      64.536  65.111  69.612  0.00  0.00    +0.000 OA
ATOM     15  O   UNL     1      63.467  64.859  70.843  0.00  0.00    +0.000 OA
ENDROOT
TORSDOF 0
ENDMDL
MODEL 8
REMARK VINA RESULT:    -6.913      7.481      8.490
REMARK INTER + INTRA:          -6.913
REMARK INTER:                  -6.913
REMARK INTRA:                   0.000
REMARK UNBOUND:                 0.000
ROOT
REMARK  Name = clofenamide
REMARK                            x       y       z     vdW  Elec       q    Type
REMARK                         _______ _______ _______ _____ _____    ______ ____
ATOM      1  N   UNL     1      62.807  65.560  71.300  0.00  0.00    +0.000 NA
ATOM      2  S   UNL     1      63.515  65.905  71.052  0.00  0.00    +0.000 S 
ATOM      3  O   UNL     1      63.807  65.860  71.824  0.00  0.00    +0.000 OA
ATOM      4  O   UNL     1      63.224  65.951  70.282  0.00  0.00    +0.000 OA
ATOM      5  C   UNL     1      64.222  66.250  70.805  0.00  0.00    +0.000 A 
ATOM      6  C   UNL     1      64.324  66.462  70.014  0.00  0.00    +0.000 A 
ATOM      7  C   UNL     1      65.031  66.807  69.767  0.00  0.00    +0.000 A 
ATOM      8  C   UNL     1      65.637  66.939  70.310  0.00  0.00    +0.000 A 
ATOM      9 CL   UNL     1      66.345  67.285  70.063  0.00  0.00    +0.000 Cl
ATOM     10  C   UNL     1      65.536  66.728  71.102  0.00  0.00    +0.000 A 
ATOM     11  C   UNL     1      64.829  66.383  71.349  0.00  0.00    +0.000 A 
ATOM     12  S   UNL     1      66.142  66.861  71.646  0.00  0.00    +0.000 S 
ATOM     13  N   UNL     1      66.749  66.994  72.189  0.00  0.00    +0.000 NA
ATOM     14  O   UNL     1      65.675  66.540  72.245  0.00  0.00    +0.000 OA
ATOM     15  O   UNL     1      66.609  67.182  71.046  0.00  0.00    +0.000 OA
ENDROOT
TORSDOF 0
ENDMDL
MODEL 9
REMARK VINA RESULT:    -6.851     25.117     25.886
REMARK INTER + INTRA:          -6.851
REMARK INTER:                  -6.851
REMARK INTRA:                   0.000
REMARK UNBOUND:                 0.000
ROOT
REMARK  Name = clofenamide
REMARK                            x       y       z     vdW  Elec       q    Type
REMARK                         _______ _______ _______ _____ _____    ______ ____
ATOM      1  N   UNL     1      73.222  80.865  48.474  0.00  0.00    +0.000 NA
ATOM      2  S   UNL     1      72.625  80.329  48.671  0.00  0.00    +0.000 S 
ATOM      3  O   UNL     1      72.324  80.865  49.222  0.00  0.00    +0.000 OA
ATOM      4  O   UNL     1      72.926  79.793  48.120  0.00  0.00    +0.000 OA
ATOM      5  C   UNL     1      72.031  79.793  48.867  0.00  0.00    +0.000 A 
ATOM      6  C   UNL     1      71.993  79.061  48.489  0.00  0.00    +0.000 A 
ATOM      7  C   UNL     1      71.398  78.525  48.685  0.00  0.00    +0.000 A 
ATOM      8  C   UNL     1      70.840  78.721  49.260  0.00  0.00    +0.000 A 
ATOM      9 CL   UNL     1      70.244  78.184  49.457  0.00  0.00    +0.000 Cl
ATOM     10  C   UNL     1      70.876  79.453  49.639  0.00  0.00    +0.000 A 
ATOM     11  C   UNL     1      71.472  79.989  49.442  0.00  0.00    +0.000 A 
ATOM     12  S   UNL     1      70.318  79.649  50.214  0.00  0.00    +0.000 S 
ATOM     13  N   UNL     1      69.760  79.845  50.789  0.00  0.00    +0.000 NA
ATOM     14  O   UNL     1      70.684  80.381  50.319  0.00  0.00    +0.000 OA
ATOM     15  O   UNL     1      69.953  78.917  50.109  0.00  0.00    +0.000 OA
ENDROOT
TORSDOF 0
ENDMDL
