MODEL 1
REMARK VINA RESULT:    -9.102      0.000      0.000
REMARK INTER + INTRA:          -9.102
REMARK INTER:                  -9.102
REMARK INTRA:                   0.000
REMARK UNBOUND:                 0.000
ROOT
REMARK  Name = clofarabine
REMARK                            x       y       z     vdW  Elec       q    Type
REMARK                         _______ _______ _______ _____ _____    ______ ____
ATOM      1  N   UNL     1      60.049  61.078  64.659  0.00  0.00    +0.000 NA
ATOM      2  C   UNL     1      60.595  61.468  65.141  0.00  0.00    +0.000 A 
ATOM      3  C   UNL     1      60.342  61.840  65.833  0.00  0.00    +0.000 A 
ATOM      4  N   UNL     1      59.596  61.915  66.179  0.00  0.00    +0.000 NA
ATOM      5  C   UNL     1      59.680  62.350  66.875  0.00  0.00    +0.000 A 
ATOM      6  N   UNL     1      60.478  62.545  66.958  0.00  0.00    +0.000 N 
ATOM      7  C   UNL     1      60.809  62.979  67.578  0.00  0.00    +0.000 C 
ATOM      8  O   UNL     1      60.401  63.294  68.220  0.00  0.00    +0.000 OA
ATOM      9  C   UNL     1      60.946  63.684  68.703  0.00  0.00    +0.000 C 
ATOM     10  C   UNL     1      60.775  64.078  69.406  0.00  0.00    +0.000 C 
ATOM     11  O   UNL     1      60.000  64.107  69.686  0.00  0.00    +0.000 OA
ATOM     12  C   UNL     1      61.690  63.609  68.356  0.00  0.00    +0.000 C 
ATOM     13  O   UNL     1      62.396  63.916  68.653  0.00  0.00    +0.000 OA
ATOM     14  C   UNL     1      61.606  63.173  67.661  0.00  0.00    +0.000 C 
ATOM     15  F   UNL     1      62.213  62.968  67.140  0.00  0.00    +0.000 F 
ATOM     16  C   UNL     1      60.887  62.229  66.314  0.00  0.00    +0.000 A 
ATOM     17  N   UNL     1      61.685  62.247  66.104  0.00  0.00    +0.000 NA
ATOM     18  C   UNL     1      61.937  61.875  65.413  0.00  0.00    +0.000 A 
ATOM     19 CL   UNL     1      62.735  61.892  65.203  0.00  0.00    +0.000 Cl
ATOM     20  N   UNL     1      61.392  61.485  64.931  0.00  0.00    +0.000 NA
ENDROOT
TORSDOF 0
ENDMDL
MODEL 2
REMARK VINA RESULT:    -9.077      2.552      4.102
REMARK INTER + INTRA:          -9.077
REMARK INTER:                  -9.077
REMARK INTRA:                   0.000
REMARK UNBOUND:                 0.000
ROOT
REMARK  Name = clofarabine
REMARK                            x       y       z     vdW  Elec       q    Type
REMARK                         _______ _______ _______ _____ _____    ______ ____
ATOM      1  N   UNL     1      60.774  63.413  68.212  0.00  0.00    +0.000 NA
ATOM      2  C   UNL     1      60.538  62.976  67.552  0.00  0.00    +0.000 A 
ATOM      3  C   UNL     1      61.071  62.837  66.938  0.00  0.00    +0.000 A 
ATOM      4  N   UNL     1      61.859  63.058  66.829  0.00  0.00    +0.000 NA
ATOM      5  C   UNL     1      62.110  62.759  66.102  0.00  0.00    +0.000 A 
ATOM      6  N   UNL     1      61.477  62.352  65.762  0.00  0.00    +0.000 N 
ATOM      7  C   UNL     1      61.485  61.965  65.033  0.00  0.00    +0.000 C 
ATOM      8  O   UNL     1      62.126  61.917  64.518  0.00  0.00    +0.000 OA
ATOM      9  C   UNL     1      61.890  61.480  63.858  0.00  0.00    +0.000 C 
ATOM     10  C   UNL     1      62.360  61.297  63.205  0.00  0.00    +0.000 C 
ATOM     11  O   UNL     1      63.142  61.558  63.172  0.00  0.00    +0.000 OA
ATOM     12  C   UNL     1      61.104  61.259  63.967  0.00  0.00    +0.000 C 
ATOM     13  O   UNL     1      60.647  60.816  63.441  0.00  0.00    +0.000 OA
ATOM     14  C   UNL     1      60.853  61.559  64.693  0.00  0.00    +0.000 C 
ATOM     15  F   UNL     1      60.102  61.468  65.022  0.00  0.00    +0.000 F 
ATOM     16  C   UNL     1      60.836  62.401  66.279  0.00  0.00    +0.000 A 
ATOM     17  N   UNL     1      60.066  62.103  66.233  0.00  0.00    +0.000 NA
ATOM     18  C   UNL     1      59.534  62.243  66.848  0.00  0.00    +0.000 A 
ATOM     19 CL   UNL     1      58.766  61.946  66.803  0.00  0.00    +0.000 Cl
ATOM     20  N   UNL     1      59.770  62.680  67.507  0.00  0.00    +0.000 NA
ENDROOT
TORSDOF 0
ENDMDL
MODEL 3
REMARK VINA RESULT:    -8.905      2.137      3.550
REMARK INTER + INTRA:          -8.905
REMARK INTER:                  -8.905
REMARK INTRA:                   0.000
REMARK UNBOUND:                 0.000
ROOT
REMARK  Name = clofarabine
REMARK                            x       y       z     vdW  Elec       q    Type
REMARK                         _______ _______ _______ _____ _____    ______ ____
ATOM      1  N   UNL     1      60.428  62.764  70.147  0.00  0.00    +0.000 NA
ATOM      2  C   UNL     1      60.845  62.933  69.454  0.00  0.00    +0.000 A 
ATOM      3  C   UNL     1      60.682  62.512  68.763  0.00  0.00    +0.000 A 
ATOM      4  N   UNL     1      60.146  61.907  68.598  0.00  0.00    +0.000 NA
ATOM      5  C   UNL     1      60.231  61.700  67.804  0.00  0.00    +0.000 A 
ATOM      6  N   UNL     1      60.820  62.178  67.478  0.00  0.00    +0.000 N 
ATOM      7  C   UNL     1      61.084  62.158  66.696  0.00  0.00    +0.000 C 
ATOM      8  O   UNL     1      60.805  61.657  66.104  0.00  0.00    +0.000 OA
ATOM      9  C   UNL     1      61.222  61.825  65.411  0.00  0.00    +0.000 C 
ATOM     10  C   UNL     1      61.120  61.453  64.682  0.00  0.00    +0.000 C 
ATOM     11  O   UNL     1      60.561  60.853  64.599  0.00  0.00    +0.000 OA
ATOM     12  C   UNL     1      61.757  62.430  65.577  0.00  0.00    +0.000 C 
ATOM     13  O   UNL     1      62.285  62.770  65.041  0.00  0.00    +0.000 OA
ATOM     14  C   UNL     1      61.672  62.636  66.371  0.00  0.00    +0.000 C 
ATOM     15  F   UNL     1      62.100  63.218  66.769  0.00  0.00    +0.000 F 
ATOM     16  C   UNL     1      61.098  62.680  68.071  0.00  0.00    +0.000 A 
ATOM     17  N   UNL     1      61.677  63.269  68.070  0.00  0.00    +0.000 NA
ATOM     18  C   UNL     1      61.839  63.688  68.761  0.00  0.00    +0.000 A 
ATOM     19 CL   UNL     1      62.418  64.276  68.760  0.00  0.00    +0.000 Cl
ATOM     20  N   UNL     1      61.423  63.520  69.453  0.00  0.00    +0.000 NA
ENDROOT
TORSDOF 0
ENDMDL
MODEL 4
REMARK VINA RESULT:    -8.726      3.096      4.200
REMARK INTER + INTRA:          -8.726
REMARK INTER:                  -8.726
REMARK INTRA:                   0.000
REMARK UNBOUND:                 0.000
ROOT
REMARK  Name = clofarabine
REMARK                            x       y       z     vdW  Elec       q    Type
REMARK                         _______ _______ _______ _____ _____    ______ ____
ATOM      1  N   UNL     1      60.879  62.355  68.169  0.00  0.00    +0.000 NA
ATOM      2  C   UNL     1      60.676  62.555  68.944  0.00  0.00    +0.000 A 
ATOM      3  C   UNL     1      60.451  63.329  69.124  0.00  0.00    +0.000 A 
ATOM      4  N   UNL     1      60.378  64.006  68.658  0.00  0.00    +0.000 NA
ATOM      5  C   UNL     1      60.130  64.625  69.143  0.00  0.00    +0.000 A 
ATOM      6  N   UNL     1      60.049  64.330  69.910  0.00  0.00    +0.000 N 
ATOM      7  C   UNL     1      59.811  64.761  70.573  0.00  0.00    +0.000 C 
ATOM      8  O   UNL     1      59.614  65.561  70.584  0.00  0.00    +0.000 OA
ATOM      9  C   UNL     1      59.410  65.762  71.359  0.00  0.00    +0.000 C 
ATOM     10  C   UNL     1      59.175  66.509  71.620  0.00  0.00    +0.000 C 
ATOM     11  O   UNL     1      59.128  67.136  71.088  0.00  0.00    +0.000 OA
ATOM     12  C   UNL     1      59.482  65.086  71.824  0.00  0.00    +0.000 C 
ATOM     13  O   UNL     1      59.333  65.036  72.634  0.00  0.00    +0.000 OA
ATOM     14  C   UNL     1      59.730  64.467  71.339  0.00  0.00    +0.000 C 
ATOM     15  F   UNL     1      59.873  63.690  71.577  0.00  0.00    +0.000 F 
ATOM     16  C   UNL     1      60.247  63.529  69.898  0.00  0.00    +0.000 A 
ATOM     17  N   UNL     1      60.269  62.956  70.492  0.00  0.00    +0.000 NA
ATOM     18  C   UNL     1      60.493  62.184  70.311  0.00  0.00    +0.000 A 
ATOM     19 CL   UNL     1      60.515  61.612  70.905  0.00  0.00    +0.000 Cl
ATOM     20  N   UNL     1      60.697  61.983  69.537  0.00  0.00    +0.000 NA
ENDROOT
TORSDOF 0
ENDMDL
MODEL 5
REMARK VINA RESULT:    -8.652      2.917      4.560
REMARK INTER + INTRA:          -8.652
REMARK INTER:                  -8.652
REMARK INTRA:                   0.000
REMARK UNBOUND:                 0.000
ROOT
REMARK  Name = clofarabine
REMARK                            x       y       z     vdW  Elec       q    Type
REMARK                         _______ _______ _______ _____ _____    ______ ____
ATOM      1  N   UNL     1      62.387  64.390  71.696  0.00  0.00    +0.000 NA
ATOM      2  C   UNL     1      61.851  63.958  71.240  0.00  0.00    +0.000 A 
ATOM      3  C   UNL     1      61.962  63.894  70.425  0.00  0.00    +0.000 A 
ATOM      4  N   UNL     1      62.542  64.193  69.920  0.00  0.00    +0.000 NA
ATOM      5  C   UNL     1      62.366  63.947  69.153  0.00  0.00    +0.000 A 
ATOM      6  N   UNL     1      61.676  63.495  69.183  0.00  0.00    +0.000 N 
ATOM      7  C   UNL     1      61.301  63.138  68.540  0.00  0.00    +0.000 C 
ATOM      8  O   UNL     1      61.551  63.171  67.755  0.00  0.00    +0.000 OA
ATOM      9  C   UNL     1      61.015  62.739  67.299  0.00  0.00    +0.000 C 
ATOM     10  C   UNL     1      61.054  62.627  66.483  0.00  0.00    +0.000 C 
ATOM     11  O   UNL     1      61.670  62.962  66.049  0.00  0.00    +0.000 OA
ATOM     12  C   UNL     1      60.436  62.440  67.803  0.00  0.00    +0.000 C 
ATOM     13  O   UNL     1      59.792  61.975  67.579  0.00  0.00    +0.000 OA
ATOM     14  C   UNL     1      60.612  62.686  68.570  0.00  0.00    +0.000 C 
ATOM     15  F   UNL     1      60.176  62.511  69.248  0.00  0.00    +0.000 F 
ATOM     16  C   UNL     1      61.426  63.462  69.969  0.00  0.00    +0.000 A 
ATOM     17  N   UNL     1      60.780  63.094  70.329  0.00  0.00    +0.000 NA
ATOM     18  C   UNL     1      60.671  63.159  71.144  0.00  0.00    +0.000 A 
ATOM     19 CL   UNL     1      60.025  62.792  71.502  0.00  0.00    +0.000 Cl
ATOM     20  N   UNL     1      61.206  63.591  71.599  0.00  0.00    +0.000 NA
ENDROOT
TORSDOF 0
ENDMDL
MODEL 6
REMARK VINA RESULT:    -8.577      3.705      5.088
REMARK INTER + INTRA:          -8.577
REMARK INTER:                  -8.577
REMARK INTRA:                   0.000
REMARK UNBOUND:                 0.000
ROOT
REMARK  Name = clofarabine
REMARK                            x       y       z     vdW  Elec       q    Type
REMARK                         _______ _______ _______ _____ _____    ______ ____
ATOM      1  N   UNL     1      59.187  67.065  71.545  0.00  0.00    +0.000 NA
ATOM      2  C   UNL     1      59.408  66.717  70.829  0.00  0.00    +0.000 A 
ATOM      3  C   UNL     1      59.552  65.906  70.793  0.00  0.00    +0.000 A 
ATOM      4  N   UNL     1      59.520  65.312  71.366  0.00  0.00    +0.000 NA
ATOM      5  C   UNL     1      59.722  64.598  71.006  0.00  0.00    +0.000 A 
ATOM      6  N   UNL     1      59.878  64.750  70.210  0.00  0.00    +0.000 N 
ATOM      7  C   UNL     1      60.100  64.191  69.644  0.00  0.00    +0.000 C 
ATOM      8  O   UNL     1      60.205  63.385  69.776  0.00  0.00    +0.000 OA
ATOM      9  C   UNL     1      60.426  63.036  69.060  0.00  0.00    +0.000 C 
ATOM     10  C   UNL     1      60.587  62.236  68.940  0.00  0.00    +0.000 C 
ATOM     11  O   UNL     1      60.533  61.705  69.569  0.00  0.00    +0.000 OA
ATOM     12  C   UNL     1      60.457  63.629  68.488  0.00  0.00    +0.000 C 
ATOM     13  O   UNL     1      60.655  63.526  67.694  0.00  0.00    +0.000 OA
ATOM     14  C   UNL     1      60.255  64.343  68.848  0.00  0.00    +0.000 C 
ATOM     15  F   UNL     1      60.216  65.079  68.478  0.00  0.00    +0.000 F 
ATOM     16  C   UNL     1      59.772  65.558  70.078  0.00  0.00    +0.000 A 
ATOM     17  N   UNL     1      59.849  66.022  69.400  0.00  0.00    +0.000 NA
ATOM     18  C   UNL     1      59.705  66.833  69.437  0.00  0.00    +0.000 A 
ATOM     19 CL   UNL     1      59.782  67.296  68.759  0.00  0.00    +0.000 Cl
ATOM     20  N   UNL     1      59.484  67.181  70.152  0.00  0.00    +0.000 NA
ENDROOT
TORSDOF 0
ENDMDL
MODEL 7
REMARK VINA RESULT:    -8.532      2.874      3.964
REMARK INTER + INTRA:          -8.532
REMARK INTER:                  -8.532
REMARK INTRA:                   0.000
REMARK UNBOUND:                 0.000
ROOT
REMARK  Name = clofarabine
REMARK                            x       y       z     vdW  Elec       q    Type
REMARK                         _______ _______ _______ _____ _____    ______ ____
ATOM      1  N   UNL     1      60.749  62.196  67.873  0.00  0.00    +0.000 NA
ATOM      2  C   UNL     1      60.812  62.369  68.679  0.00  0.00    +0.000 A 
ATOM      3  C   UNL     1      61.251  63.022  68.927  0.00  0.00    +0.000 A 
ATOM      4  N   UNL     1      61.681  63.590  68.509  0.00  0.00    +0.000 NA
ATOM      5  C   UNL     1      62.008  64.114  69.055  0.00  0.00    +0.000 A 
ATOM      6  N   UNL     1      61.782  63.870  69.811  0.00  0.00    +0.000 N 
ATOM      7  C   UNL     1      61.986  64.237  70.521  0.00  0.00    +0.000 C 
ATOM      8  O   UNL     1      62.454  64.911  70.600  0.00  0.00    +0.000 OA
ATOM      9  C   UNL     1      62.516  65.085  71.405  0.00  0.00    +0.000 C 
ATOM     10  C   UNL     1      62.934  65.716  71.734  0.00  0.00    +0.000 C 
ATOM     11  O   UNL     1      63.340  66.242  71.245  0.00  0.00    +0.000 OA
ATOM     12  C   UNL     1      62.087  64.518  71.821  0.00  0.00    +0.000 C 
ATOM     13  O   UNL     1      62.000  64.481  72.641  0.00  0.00    +0.000 OA
ATOM     14  C   UNL     1      61.759  63.993  71.276  0.00  0.00    +0.000 C 
ATOM     15  F   UNL     1      61.288  63.340  71.453  0.00  0.00    +0.000 F 
ATOM     16  C   UNL     1      61.314  63.195  69.731  0.00  0.00    +0.000 A 
ATOM     17  N   UNL     1      60.936  62.716  70.287  0.00  0.00    +0.000 NA
ATOM     18  C   UNL     1      60.497  62.064  70.038  0.00  0.00    +0.000 A 
ATOM     19 CL   UNL     1      60.120  61.585  70.594  0.00  0.00    +0.000 Cl
ATOM     20  N   UNL     1      60.434  61.890  69.234  0.00  0.00    +0.000 NA
ENDROOT
TORSDOF 0
ENDMDL
MODEL 8
REMARK VINA RESULT:    -8.421      3.021      4.149
REMARK INTER + INTRA:          -8.421
REMARK INTER:                  -8.421
REMARK INTRA:                   0.000
REMARK UNBOUND:                 0.000
ROOT
REMARK  Name = clofarabine
REMARK                            x       y       z     vdW  Elec       q    Type
REMARK                         _______ _______ _______ _____ _____    ______ ____
ATOM      1  N   UNL     1      60.725  61.813  70.322  0.00  0.00    +0.000 NA
ATOM      2  C   UNL     1      60.540  62.494  69.893  0.00  0.00    +0.000 A 
ATOM      3  C   UNL     1      60.387  63.202  70.289  0.00  0.00    +0.000 A 
ATOM      4  N   UNL     1      60.378  63.396  71.091  0.00  0.00    +0.000 NA
ATOM      5  C   UNL     1      60.188  64.196  71.158  0.00  0.00    +0.000 A 
ATOM      6  N   UNL     1      60.078  64.496  70.397  0.00  0.00    +0.000 N 
ATOM      7  C   UNL     1      59.881  65.275  70.206  0.00  0.00    +0.000 C 
ATOM      8  O   UNL     1      59.758  65.888  70.743  0.00  0.00    +0.000 OA
ATOM      9  C   UNL     1      59.572  66.569  70.313  0.00  0.00    +0.000 C 
ATOM     10  C   UNL     1      59.408  67.312  70.632  0.00  0.00    +0.000 C 
ATOM     11  O   UNL     1      59.419  67.423  71.448  0.00  0.00    +0.000 OA
ATOM     12  C   UNL     1      59.581  66.374  69.513  0.00  0.00    +0.000 C 
ATOM     13  O   UNL     1      59.426  66.890  68.887  0.00  0.00    +0.000 OA
ATOM     14  C   UNL     1      59.772  65.574  69.446  0.00  0.00    +0.000 C 
ATOM     15  F   UNL     1      59.841  65.150  68.742  0.00  0.00    +0.000 F 
ATOM     16  C   UNL     1      60.202  63.882  69.860  0.00  0.00    +0.000 A 
ATOM     17  N   UNL     1      60.169  63.854  69.035  0.00  0.00    +0.000 NA
ATOM     18  C   UNL     1      60.322  63.146  68.641  0.00  0.00    +0.000 A 
ATOM     19 CL   UNL     1      60.289  63.118  67.817  0.00  0.00    +0.000 Cl
ATOM     20  N   UNL     1      60.507  62.466  69.070  0.00  0.00    +0.000 NA
ENDROOT
TORSDOF 0
ENDMDL
MODEL 9
REMARK VINA RESULT:    -8.274      4.778      6.023
REMARK INTER + INTRA:          -8.274
REMARK INTER:                  -8.274
REMARK INTRA:                   0.000
REMARK UNBOUND:                 0.000
ROOT
REMARK  Name = clofarabine
REMARK                            x       y       z     vdW  Elec       q    Type
REMARK                         _______ _______ _______ _____ _____    ______ ____
ATOM      1  N   UNL     1      61.912  63.326  69.932  0.00  0.00    +0.000 NA
ATOM      2  C   UNL     1      62.243  63.884  70.443  0.00  0.00    +0.000 A 
ATOM      3  C   UNL     1      62.873  64.353  70.189  0.00  0.00    +0.000 A 
ATOM      4  N   UNL     1      63.280  64.391  69.473  0.00  0.00    +0.000 NA
ATOM      5  C   UNL     1      63.862  64.971  69.540  0.00  0.00    +0.000 A 
ATOM      6  N   UNL     1      63.815  65.293  70.299  0.00  0.00    +0.000 N 
ATOM      7  C   UNL     1      64.296  65.891  70.604  0.00  0.00    +0.000 C 
ATOM      8  O   UNL     1      64.906  66.272  70.203  0.00  0.00    +0.000 OA
ATOM      9  C   UNL     1      65.238  66.830  70.714  0.00  0.00    +0.000 C 
ATOM     10  C   UNL     1      65.865  67.335  70.538  0.00  0.00    +0.000 C 
ATOM     11  O   UNL     1      66.220  67.311  69.795  0.00  0.00    +0.000 OA
ATOM     12  C   UNL     1      64.831  66.791  71.430  0.00  0.00    +0.000 C 
ATOM     13  O   UNL     1      64.980  67.253  72.098  0.00  0.00    +0.000 OA
ATOM     14  C   UNL     1      64.248  66.211  71.362  0.00  0.00    +0.000 C 
ATOM     15  F   UNL     1      63.713  65.990  71.950  0.00  0.00    +0.000 F 
ATOM     16  C   UNL     1      63.204  64.910  70.700  0.00  0.00    +0.000 A 
ATOM     17  N   UNL     1      62.905  64.998  71.465  0.00  0.00    +0.000 NA
ATOM     18  C   UNL     1      62.276  64.528  71.718  0.00  0.00    +0.000 A 
ATOM     19 CL   UNL     1      61.978  64.616  72.482  0.00  0.00    +0.000 Cl
ATOM     20  N   UNL     1      61.945  63.971  71.207  0.00  0.00    +0.000 NA
ENDROOT
TORSDOF 0
ENDMDL
