MODEL 1
REMARK VINA RESULT:   -11.243      0.000      0.000
REMARK INTER + INTRA:         -11.243
REMARK INTER:                 -11.243
REMARK INTRA:                   0.000
REMARK UNBOUND:                 0.000
ROOT
REMARK  Name = clomipramine
REMARK                            x       y       z     vdW  Elec       q    Type
REMARK                         _______ _______ _______ _____ _____    ______ ____
ATOM      1  C   UNL     1      63.538  66.463  70.699  0.00  0.00    +0.000 C 
ATOM      2  N   UNL     1      63.106  65.797  70.924  0.00  0.00    +0.000 NA
ATOM      3  C   UNL     1      63.026  65.607  71.722  0.00  0.00    +0.000 C 
ATOM      4  C   UNL     1      62.754  65.320  70.348  0.00  0.00    +0.000 C 
ATOM      5  C   UNL     1      62.322  64.654  70.573  0.00  0.00    +0.000 C 
ATOM      6  C   UNL     1      61.970  64.178  69.998  0.00  0.00    +0.000 C 
ATOM      7  N   UNL     1      61.538  63.512  70.223  0.00  0.00    +0.000 N 
ATOM      8  C   UNL     1      61.210  63.074  69.605  0.00  0.00    +0.000 A 
ATOM      9  C   UNL     1      61.389  63.406  68.872  0.00  0.00    +0.000 A 
ATOM     10  C   UNL     1      61.112  63.052  68.179  0.00  0.00    +0.000 A 
ATOM     11 CL   UNL     1      61.291  63.385  67.446  0.00  0.00    +0.000 Cl
ATOM     12  C   UNL     1      60.656  62.366  68.222  0.00  0.00    +0.000 A 
ATOM     13  C   UNL     1      60.477  62.034  68.955  0.00  0.00    +0.000 A 
ATOM     14  C   UNL     1      60.754  62.388  69.647  0.00  0.00    +0.000 A 
ATOM     15  C   UNL     1      60.514  61.970  70.317  0.00  0.00    +0.000 C 
ATOM     16  C   UNL     1      60.671  62.135  71.109  0.00  0.00    +0.000 C 
ATOM     17  C   UNL     1      61.106  62.759  71.429  0.00  0.00    +0.000 A 
ATOM     18  C   UNL     1      61.493  63.372  71.034  0.00  0.00    +0.000 A 
ATOM     19  C   UNL     1      61.901  63.946  71.462  0.00  0.00    +0.000 A 
ATOM     20  C   UNL     1      61.924  63.908  72.287  0.00  0.00    +0.000 A 
ATOM     21  C   UNL     1      61.537  63.295  72.682  0.00  0.00    +0.000 A 
ATOM     22  C   UNL     1      61.128  62.720  72.253  0.00  0.00    +0.000 A 
ENDROOT
TORSDOF 0
ENDMDL
MODEL 2
REMARK VINA RESULT:   -11.168      1.721      1.833
REMARK INTER + INTRA:         -11.168
REMARK INTER:                 -11.168
REMARK INTRA:                   0.000
REMARK UNBOUND:                 0.000
ROOT
REMARK  Name = clomipramine
REMARK                            x       y       z     vdW  Elec       q    Type
REMARK                         _______ _______ _______ _____ _____    ______ ____
ATOM      1  C   UNL     1      59.670  67.234  69.938  0.00  0.00    +0.000 C 
ATOM      2  N   UNL     1      59.819  66.494  70.268  0.00  0.00    +0.000 NA
ATOM      3  C   UNL     1      59.895  66.414  71.086  0.00  0.00    +0.000 C 
ATOM      4  C   UNL     1      59.892  65.832  69.780  0.00  0.00    +0.000 C 
ATOM      5  C   UNL     1      60.042  65.091  70.111  0.00  0.00    +0.000 C 
ATOM      6  C   UNL     1      60.115  64.429  69.622  0.00  0.00    +0.000 C 
ATOM      7  N   UNL     1      60.264  63.688  69.953  0.00  0.00    +0.000 N 
ATOM      8  C   UNL     1      60.328  63.064  69.417  0.00  0.00    +0.000 A 
ATOM      9  C   UNL     1      60.225  63.322  68.640  0.00  0.00    +0.000 A 
ATOM     10  C   UNL     1      60.267  62.783  68.017  0.00  0.00    +0.000 A 
ATOM     11 CL   UNL     1      60.165  63.041  67.240  0.00  0.00    +0.000 Cl
ATOM     12  C   UNL     1      60.413  61.986  68.171  0.00  0.00    +0.000 A 
ATOM     13  C   UNL     1      60.515  61.727  68.948  0.00  0.00    +0.000 A 
ATOM     14  C   UNL     1      60.473  62.267  69.571  0.00  0.00    +0.000 A 
ATOM     15  C   UNL     1      60.590  61.897  70.299  0.00  0.00    +0.000 C 
ATOM     16  C   UNL     1      60.592  62.232  71.052  0.00  0.00    +0.000 C 
ATOM     17  C   UNL     1      60.476  63.021  71.265  0.00  0.00    +0.000 A 
ATOM     18  C   UNL     1      60.330  63.669  70.774  0.00  0.00    +0.000 A 
ATOM     19  C   UNL     1      60.230  64.419  71.102  0.00  0.00    +0.000 A 
ATOM     20  C   UNL     1      60.276  64.522  71.920  0.00  0.00    +0.000 A 
ATOM     21  C   UNL     1      60.421  63.874  72.409  0.00  0.00    +0.000 A 
ATOM     22  C   UNL     1      60.522  63.123  72.082  0.00  0.00    +0.000 A 
ENDROOT
TORSDOF 0
ENDMDL
MODEL 3
REMARK VINA RESULT:   -11.099      1.233      3.285
REMARK INTER + INTRA:         -11.099
REMARK INTER:                 -11.099
REMARK INTRA:                   0.000
REMARK UNBOUND:                 0.000
ROOT
REMARK  Name = clomipramine
REMARK                            x       y       z     vdW  Elec       q    Type
REMARK                         _______ _______ _______ _____ _____    ______ ____
ATOM      1  C   UNL     1      61.263  63.113  66.819  0.00  0.00    +0.000 C 
ATOM      2  N   UNL     1      61.158  62.938  67.618  0.00  0.00    +0.000 NA
ATOM      3  C   UNL     1      60.729  62.270  67.842  0.00  0.00    +0.000 C 
ATOM      4  C   UNL     1      61.483  63.432  68.194  0.00  0.00    +0.000 C 
ATOM      5  C   UNL     1      61.379  63.257  68.993  0.00  0.00    +0.000 C 
ATOM      6  C   UNL     1      61.704  63.751  69.570  0.00  0.00    +0.000 C 
ATOM      7  N   UNL     1      61.599  63.576  70.369  0.00  0.00    +0.000 N 
ATOM      8  C   UNL     1      61.946  64.105  70.899  0.00  0.00    +0.000 A 
ATOM      9  C   UNL     1      62.336  64.715  70.504  0.00  0.00    +0.000 A 
ATOM     10  C   UNL     1      62.722  65.305  70.933  0.00  0.00    +0.000 A 
ATOM     11 CL   UNL     1      63.112  65.915  70.538  0.00  0.00    +0.000 Cl
ATOM     12  C   UNL     1      62.717  65.283  71.758  0.00  0.00    +0.000 A 
ATOM     13  C   UNL     1      62.327  64.674  72.153  0.00  0.00    +0.000 A 
ATOM     14  C   UNL     1      61.942  64.084  71.723  0.00  0.00    +0.000 A 
ATOM     15  C   UNL     1      61.588  63.530  72.221  0.00  0.00    +0.000 C 
ATOM     16  C   UNL     1      61.153  62.859  72.019  0.00  0.00    +0.000 C 
ATOM     17  C   UNL     1      60.963  62.577  71.267  0.00  0.00    +0.000 A 
ATOM     18  C   UNL     1      61.162  62.897  70.532  0.00  0.00    +0.000 A 
ATOM     19  C   UNL     1      60.914  62.524  69.840  0.00  0.00    +0.000 A 
ATOM     20  C   UNL     1      60.466  61.831  69.881  0.00  0.00    +0.000 A 
ATOM     21  C   UNL     1      60.268  61.512  70.616  0.00  0.00    +0.000 A 
ATOM     22  C   UNL     1      60.516  61.885  71.309  0.00  0.00    +0.000 A 
ENDROOT
TORSDOF 0
ENDMDL
MODEL 4
REMARK VINA RESULT:   -10.928      1.995      3.577
REMARK INTER + INTRA:         -10.928
REMARK INTER:                 -10.928
REMARK INTRA:                   0.000
REMARK UNBOUND:                 0.000
ROOT
REMARK  Name = clomipramine
REMARK                            x       y       z     vdW  Elec       q    Type
REMARK                         _______ _______ _______ _____ _____    ______ ____
ATOM      1  C   UNL     1      60.424  62.066  67.342  0.00  0.00    +0.000 C 
ATOM      2  N   UNL     1      60.380  62.541  68.015  0.00  0.00    +0.000 NA
ATOM      3  C   UNL     1      60.048  63.295  67.967  0.00  0.00    +0.000 C 
ATOM      4  C   UNL     1      60.670  62.262  68.736  0.00  0.00    +0.000 C 
ATOM      5  C   UNL     1      60.626  62.737  69.409  0.00  0.00    +0.000 C 
ATOM      6  C   UNL     1      60.915  62.459  70.130  0.00  0.00    +0.000 C 
ATOM      7  N   UNL     1      60.872  62.934  70.803  0.00  0.00    +0.000 N 
ATOM      8  C   UNL     1      61.176  62.603  71.495  0.00  0.00    +0.000 A 
ATOM      9  C   UNL     1      61.469  61.843  71.362  0.00  0.00    +0.000 A 
ATOM     10  C   UNL     1      61.799  61.413  71.985  0.00  0.00    +0.000 A 
ATOM     11 CL   UNL     1      62.092  60.654  71.851  0.00  0.00    +0.000 Cl
ATOM     12  C   UNL     1      61.836  61.744  72.739  0.00  0.00    +0.000 A 
ATOM     13  C   UNL     1      61.544  62.504  72.872  0.00  0.00    +0.000 A 
ATOM     14  C   UNL     1      61.214  62.933  72.250  0.00  0.00    +0.000 A 
ATOM     15  C   UNL     1      60.956  63.676  72.499  0.00  0.00    +0.000 C 
ATOM     16  C   UNL     1      60.597  64.272  72.056  0.00  0.00    +0.000 C 
ATOM     17  C   UNL     1      60.407  64.273  71.253  0.00  0.00    +0.000 A 
ATOM     18  C   UNL     1      60.530  63.676  70.695  0.00  0.00    +0.000 A 
ATOM     19  C   UNL     1      60.296  63.790  69.912  0.00  0.00    +0.000 A 
ATOM     20  C   UNL     1      59.940  64.500  69.686  0.00  0.00    +0.000 A 
ATOM     21  C   UNL     1      59.818  65.095  70.244  0.00  0.00    +0.000 A 
ATOM     22  C   UNL     1      60.052  64.982  71.028  0.00  0.00    +0.000 A 
ENDROOT
TORSDOF 0
ENDMDL
MODEL 5
REMARK VINA RESULT:   -10.298      1.520      3.674
REMARK INTER + INTRA:         -10.298
REMARK INTER:                 -10.298
REMARK INTRA:                   0.000
REMARK UNBOUND:                 0.000
ROOT
REMARK  Name = clomipramine
REMARK                            x       y       z     vdW  Elec       q    Type
REMARK                         _______ _______ _______ _____ _____    ______ ____
ATOM      1  C   UNL     1      60.525  61.707  70.346  0.00  0.00    +0.000 C 
ATOM      2  N   UNL     1      60.693  62.386  70.782  0.00  0.00    +0.000 NA
ATOM      3  C   UNL     1      60.165  62.648  71.360  0.00  0.00    +0.000 C 
ATOM      4  C   UNL     1      61.391  62.805  70.641  0.00  0.00    +0.000 C 
ATOM      5  C   UNL     1      61.560  63.484  71.077  0.00  0.00    +0.000 C 
ATOM      6  C   UNL     1      62.257  63.902  70.935  0.00  0.00    +0.000 C 
ATOM      7  N   UNL     1      62.426  64.581  71.372  0.00  0.00    +0.000 N 
ATOM      8  C   UNL     1      63.137  64.958  71.187  0.00  0.00    +0.000 A 
ATOM      9  C   UNL     1      63.540  64.561  70.586  0.00  0.00    +0.000 A 
ATOM     10  C   UNL     1      64.266  64.848  70.318  0.00  0.00    +0.000 A 
ATOM     11 CL   UNL     1      64.669  64.451  69.717  0.00  0.00    +0.000 Cl
ATOM     12  C   UNL     1      64.588  65.530  70.651  0.00  0.00    +0.000 A 
ATOM     13  C   UNL     1      64.185  65.927  71.252  0.00  0.00    +0.000 A 
ATOM     14  C   UNL     1      63.459  65.640  71.519  0.00  0.00    +0.000 A 
ATOM     15  C   UNL     1      63.150  66.115  72.119  0.00  0.00    +0.000 C 
ATOM     16  C   UNL     1      62.444  66.025  72.534  0.00  0.00    +0.000 C 
ATOM     17  C   UNL     1      61.870  65.437  72.452  0.00  0.00    +0.000 A 
ATOM     18  C   UNL     1      61.862  64.795  71.934  0.00  0.00    +0.000 A 
ATOM     19  C   UNL     1      61.229  64.266  71.942  0.00  0.00    +0.000 A 
ATOM     20  C   UNL     1      60.602  64.380  72.467  0.00  0.00    +0.000 A 
ATOM     21  C   UNL     1      60.610  65.023  72.985  0.00  0.00    +0.000 A 
ATOM     22  C   UNL     1      61.244  65.552  72.977  0.00  0.00    +0.000 A 
ENDROOT
TORSDOF 0
ENDMDL
MODEL 6
REMARK VINA RESULT:   -10.108      2.124      3.235
REMARK INTER + INTRA:         -10.108
REMARK INTER:                 -10.108
REMARK INTRA:                   0.000
REMARK UNBOUND:                 0.000
ROOT
REMARK  Name = clomipramine
REMARK                            x       y       z     vdW  Elec       q    Type
REMARK                         _______ _______ _______ _____ _____    ______ ____
ATOM      1  C   UNL     1      65.302  66.262  70.897  0.00  0.00    +0.000 C 
ATOM      2  N   UNL     1      64.571  66.348  71.269  0.00  0.00    +0.000 NA
ATOM      3  C   UNL     1      64.352  67.077  71.588  0.00  0.00    +0.000 C 
ATOM      4  C   UNL     1      64.057  65.704  71.322  0.00  0.00    +0.000 C 
ATOM      5  C   UNL     1      63.326  65.790  71.694  0.00  0.00    +0.000 C 
ATOM      6  C   UNL     1      62.812  65.146  71.747  0.00  0.00    +0.000 C 
ATOM      7  N   UNL     1      62.081  65.231  72.119  0.00  0.00    +0.000 N 
ATOM      8  C   UNL     1      61.610  64.554  72.141  0.00  0.00    +0.000 A 
ATOM      9  C   UNL     1      61.982  63.916  71.776  0.00  0.00    +0.000 A 
ATOM     10  C   UNL     1      61.604  63.183  71.738  0.00  0.00    +0.000 A 
ATOM     11 CL   UNL     1      61.977  62.544  71.373  0.00  0.00    +0.000 Cl
ATOM     12  C   UNL     1      60.853  63.090  72.067  0.00  0.00    +0.000 A 
ATOM     13  C   UNL     1      60.480  63.729  72.432  0.00  0.00    +0.000 A 
ATOM     14  C   UNL     1      60.859  64.461  72.470  0.00  0.00    +0.000 A 
ATOM     15  C   UNL     1      60.393  65.022  72.856  0.00  0.00    +0.000 C 
ATOM     16  C   UNL     1      60.564  65.814  73.010  0.00  0.00    +0.000 C 
ATOM     17  C   UNL     1      61.242  66.242  72.815  0.00  0.00    +0.000 A 
ATOM     18  C   UNL     1      61.917  65.982  72.418  0.00  0.00    +0.000 A 
ATOM     19  C   UNL     1      62.540  66.505  72.278  0.00  0.00    +0.000 A 
ATOM     20  C   UNL     1      62.487  67.288  72.534  0.00  0.00    +0.000 A 
ATOM     21  C   UNL     1      61.812  67.547  72.931  0.00  0.00    +0.000 A 
ATOM     22  C   UNL     1      61.189  67.024  73.071  0.00  0.00    +0.000 A 
ENDROOT
TORSDOF 0
ENDMDL
MODEL 7
REMARK VINA RESULT:   -10.087      2.015      3.625
REMARK INTER + INTRA:         -10.087
REMARK INTER:                 -10.087
REMARK INTRA:                   0.000
REMARK UNBOUND:                 0.000
ROOT
REMARK  Name = clomipramine
REMARK                            x       y       z     vdW  Elec       q    Type
REMARK                         _______ _______ _______ _____ _____    ______ ____
ATOM      1  C   UNL     1      62.785  68.543  73.218  0.00  0.00    +0.000 C 
ATOM      2  N   UNL     1      63.112  68.014  72.676  0.00  0.00    +0.000 NA
ATOM      3  C   UNL     1      63.785  68.225  72.248  0.00  0.00    +0.000 C 
ATOM      4  C   UNL     1      62.765  67.274  72.562  0.00  0.00    +0.000 C 
ATOM      5  C   UNL     1      63.093  66.745  72.020  0.00  0.00    +0.000 C 
ATOM      6  C   UNL     1      62.746  66.004  71.905  0.00  0.00    +0.000 C 
ATOM      7  N   UNL     1      63.073  65.476  71.363  0.00  0.00    +0.000 N 
ATOM      8  C   UNL     1      62.685  64.751  71.291  0.00  0.00    +0.000 A 
ATOM      9  C   UNL     1      62.031  64.709  71.793  0.00  0.00    +0.000 A 
ATOM     10  C   UNL     1      61.564  64.028  71.806  0.00  0.00    +0.000 A 
ATOM     11 CL   UNL     1      60.910  63.986  72.307  0.00  0.00    +0.000 Cl
ATOM     12  C   UNL     1      61.753  63.390  71.318  0.00  0.00    +0.000 A 
ATOM     13  C   UNL     1      62.406  63.432  70.817  0.00  0.00    +0.000 A 
ATOM     14  C   UNL     1      62.872  64.113  70.804  0.00  0.00    +0.000 A 
ATOM     15  C   UNL     1      63.495  64.042  70.267  0.00  0.00    +0.000 C 
ATOM     16  C   UNL     1      64.083  64.590  70.086  0.00  0.00    +0.000 C 
ATOM     17  C   UNL     1      64.195  65.347  70.397  0.00  0.00    +0.000 A 
ATOM     18  C   UNL     1      63.745  65.741  70.966  0.00  0.00    +0.000 A 
ATOM     19  C   UNL     1      63.954  66.503  71.202  0.00  0.00    +0.000 A 
ATOM     20  C   UNL     1      64.613  66.872  70.869  0.00  0.00    +0.000 A 
ATOM     21  C   UNL     1      65.063  66.478  70.300  0.00  0.00    +0.000 A 
ATOM     22  C   UNL     1      64.854  65.715  70.064  0.00  0.00    +0.000 A 
ENDROOT
TORSDOF 0
ENDMDL
MODEL 8
REMARK VINA RESULT:   -10.000      2.722      4.480
REMARK INTER + INTRA:         -10.000
REMARK INTER:                 -10.000
REMARK INTRA:                   0.000
REMARK UNBOUND:                 0.000
ROOT
REMARK  Name = clomipramine
REMARK                            x       y       z     vdW  Elec       q    Type
REMARK                         _______ _______ _______ _____ _____    ______ ____
ATOM      1  C   UNL     1      59.771  64.467  72.193  0.00  0.00    +0.000 C 
ATOM      2  N   UNL     1      60.337  65.060  72.290  0.00  0.00    +0.000 NA
ATOM      3  C   UNL     1      60.163  65.727  72.742  0.00  0.00    +0.000 C 
ATOM      4  C   UNL     1      61.078  64.984  71.934  0.00  0.00    +0.000 C 
ATOM      5  C   UNL     1      61.644  65.576  72.031  0.00  0.00    +0.000 C 
ATOM      6  C   UNL     1      62.385  65.500  71.675  0.00  0.00    +0.000 C 
ATOM      7  N   UNL     1      62.951  66.092  71.772  0.00  0.00    +0.000 N 
ATOM      8  C   UNL     1      63.673  65.962  71.393  0.00  0.00    +0.000 A 
ATOM      9  C   UNL     1      63.674  65.245  70.986  0.00  0.00    +0.000 A 
ATOM     10  C   UNL     1      64.346  65.008  70.569  0.00  0.00    +0.000 A 
ATOM     11 CL   UNL     1      64.348  64.291  70.162  0.00  0.00    +0.000 Cl
ATOM     12  C   UNL     1      65.015  65.490  70.559  0.00  0.00    +0.000 A 
ATOM     13  C   UNL     1      65.014  66.208  70.966  0.00  0.00    +0.000 A 
ATOM     14  C   UNL     1      64.342  66.443  71.383  0.00  0.00    +0.000 A 
ATOM     15  C   UNL     1      64.455  67.174  71.749  0.00  0.00    +0.000 C 
ATOM     16  C   UNL     1      63.928  67.603  72.215  0.00  0.00    +0.000 C 
ATOM     17  C   UNL     1      63.155  67.409  72.431  0.00  0.00    +0.000 A 
ATOM     18  C   UNL     1      62.721  66.735  72.233  0.00  0.00    +0.000 A 
ATOM     19  C   UNL     1      61.949  66.647  72.509  0.00  0.00    +0.000 A 
ATOM     20  C   UNL     1      61.610  67.232  72.984  0.00  0.00    +0.000 A 
ATOM     21  C   UNL     1      62.045  67.905  73.181  0.00  0.00    +0.000 A 
ATOM     22  C   UNL     1      62.818  67.993  72.905  0.00  0.00    +0.000 A 
ENDROOT
TORSDOF 0
ENDMDL
MODEL 9
REMARK VINA RESULT:    -9.837      2.165      4.768
REMARK INTER + INTRA:          -9.837
REMARK INTER:                  -9.837
REMARK INTRA:                   0.000
REMARK UNBOUND:                 0.000
ROOT
REMARK  Name = clomipramine
REMARK                            x       y       z     vdW  Elec       q    Type
REMARK                         _______ _______ _______ _____ _____    ______ ____
ATOM      1  C   UNL     1      60.576  63.804  69.721  0.00  0.00    +0.000 C 
ATOM      2  N   UNL     1      61.312  64.151  69.859  0.00  0.00    +0.000 NA
ATOM      3  C   UNL     1      61.980  63.873  69.462  0.00  0.00    +0.000 C 
ATOM      4  C   UNL     1      61.379  64.776  70.394  0.00  0.00    +0.000 C 
ATOM      5  C   UNL     1      62.115  65.123  70.532  0.00  0.00    +0.000 C 
ATOM      6  C   UNL     1      62.182  65.748  71.067  0.00  0.00    +0.000 C 
ATOM      7  N   UNL     1      62.918  66.095  71.205  0.00  0.00    +0.000 N 
ATOM      8  C   UNL     1      62.924  66.715  71.749  0.00  0.00    +0.000 A 
ATOM      9  C   UNL     1      62.170  66.860  72.049  0.00  0.00    +0.000 A 
ATOM     10  C   UNL     1      62.055  67.461  72.604  0.00  0.00    +0.000 A 
ATOM     11 CL   UNL     1      61.300  67.606  72.904  0.00  0.00    +0.000 Cl
ATOM     12  C   UNL     1      62.695  67.915  72.858  0.00  0.00    +0.000 A 
ATOM     13  C   UNL     1      63.449  67.769  72.558  0.00  0.00    +0.000 A 
ATOM     14  C   UNL     1      63.564  67.169  72.004  0.00  0.00    +0.000 A 
ATOM     15  C   UNL     1      64.355  67.115  71.777  0.00  0.00    +0.000 C 
ATOM     16  C   UNL     1      64.702  66.595  71.240  0.00  0.00    +0.000 C 
ATOM     17  C   UNL     1      64.344  65.998  70.796  0.00  0.00    +0.000 A 
ATOM     18  C   UNL     1      63.549  65.776  70.781  0.00  0.00    +0.000 A 
ATOM     19  C   UNL     1      63.303  65.158  70.293  0.00  0.00    +0.000 A 
ATOM     20  C   UNL     1      63.851  64.762  69.819  0.00  0.00    +0.000 A 
ATOM     21  C   UNL     1      64.646  64.985  69.835  0.00  0.00    +0.000 A 
ATOM     22  C   UNL     1      64.892  65.603  70.323  0.00  0.00    +0.000 A 
ENDROOT
TORSDOF 0
ENDMDL
