MODEL 1
REMARK VINA RESULT:    -9.492      0.000      0.000
REMARK INTER + INTRA:          -9.492
REMARK INTER:                  -9.492
REMARK INTRA:                   0.000
REMARK UNBOUND:                 0.000
ROOT
REMARK  Name = cloranolol
REMARK                            x       y       z     vdW  Elec       q    Type
REMARK                         _______ _______ _______ _____ _____    ______ ____
ATOM      1  C   UNL     1      62.155  61.542  65.002  0.00  0.00    +0.000 C 
ATOM      2  C   UNL     1      61.920  62.083  65.578  0.00  0.00    +0.000 C 
ATOM      3  C   UNL     1      61.854  61.471  66.126  0.00  0.00    +0.000 C 
ATOM      4  C   UNL     1      61.985  62.696  65.029  0.00  0.00    +0.000 C 
ATOM      5  N   UNL     1      61.684  62.624  66.154  0.00  0.00    +0.000 NA
ATOM      6  C   UNL     1      61.509  62.364  66.917  0.00  0.00    +0.000 C 
ATOM      7  C   UNL     1      61.274  62.906  67.493  0.00  0.00    +0.000 C 
ATOM      8  O   UNL     1      61.213  63.708  67.307  0.00  0.00    +0.000 OA
ATOM      9  C   UNL     1      61.099  62.647  68.257  0.00  0.00    +0.000 C 
ATOM     10  O   UNL     1      60.863  63.189  68.833  0.00  0.00    +0.000 OA
ATOM     11  C   UNL     1      60.688  62.929  69.596  0.00  0.00    +0.000 A 
ATOM     12  C   UNL     1      60.453  63.470  70.172  0.00  0.00    +0.000 A 
ATOM     13 CL   UNL     1      60.392  64.271  69.984  0.00  0.00    +0.000 Cl
ATOM     14  C   UNL     1      60.278  63.210  70.935  0.00  0.00    +0.000 A 
ATOM     15  C   UNL     1      60.339  62.410  71.122  0.00  0.00    +0.000 A 
ATOM     16  C   UNL     1      60.574  61.868  70.546  0.00  0.00    +0.000 A 
ATOM     17 CL   UNL     1      60.635  61.066  70.733  0.00  0.00    +0.000 Cl
ATOM     18  C   UNL     1      60.749  62.127  69.783  0.00  0.00    +0.000 A 
ENDROOT
TORSDOF 0
ENDMDL
MODEL 2
REMARK VINA RESULT:    -9.330      2.354      4.392
REMARK INTER + INTRA:          -9.330
REMARK INTER:                  -9.330
REMARK INTRA:                   0.000
REMARK UNBOUND:                 0.000
ROOT
REMARK  Name = cloranolol
REMARK                            x       y       z     vdW  Elec       q    Type
REMARK                         _______ _______ _______ _____ _____    ______ ____
ATOM      1  C   UNL     1      62.745  64.784  70.220  0.00  0.00    +0.000 C 
ATOM      2  C   UNL     1      62.143  64.443  69.772  0.00  0.00    +0.000 C 
ATOM      3  C   UNL     1      62.697  64.208  69.208  0.00  0.00    +0.000 C 
ATOM      4  C   UNL     1      61.589  64.677  70.337  0.00  0.00    +0.000 C 
ATOM      5  N   UNL     1      61.542  64.101  69.323  0.00  0.00    +0.000 NA
ATOM      6  C   UNL     1      61.720  63.726  68.610  0.00  0.00    +0.000 C 
ATOM      7  C   UNL     1      61.118  63.385  68.162  0.00  0.00    +0.000 C 
ATOM      8  O   UNL     1      60.336  63.417  68.426  0.00  0.00    +0.000 OA
ATOM      9  C   UNL     1      61.296  63.011  67.449  0.00  0.00    +0.000 C 
ATOM     10  O   UNL     1      60.694  62.669  67.000  0.00  0.00    +0.000 OA
ATOM     11  C   UNL     1      60.872  62.295  66.287  0.00  0.00    +0.000 A 
ATOM     12  C   UNL     1      60.270  61.953  65.838  0.00  0.00    +0.000 A 
ATOM     13 CL   UNL     1      59.490  61.986  66.103  0.00  0.00    +0.000 Cl
ATOM     14  C   UNL     1      60.449  61.579  65.125  0.00  0.00    +0.000 A 
ATOM     15  C   UNL     1      61.229  61.546  64.861  0.00  0.00    +0.000 A 
ATOM     16  C   UNL     1      61.832  61.888  65.309  0.00  0.00    +0.000 A 
ATOM     17 CL   UNL     1      62.613  61.856  65.045  0.00  0.00    +0.000 Cl
ATOM     18  C   UNL     1      61.653  62.262  66.022  0.00  0.00    +0.000 A 
ENDROOT
TORSDOF 0
ENDMDL
MODEL 3
REMARK VINA RESULT:    -8.797      1.494      1.882
REMARK INTER + INTRA:          -8.797
REMARK INTER:                  -8.797
REMARK INTRA:                   0.000
REMARK UNBOUND:                 0.000
ROOT
REMARK  Name = cloranolol
REMARK                            x       y       z     vdW  Elec       q    Type
REMARK                         _______ _______ _______ _____ _____    ______ ____
ATOM      1  C   UNL     1      59.372  62.008  66.104  0.00  0.00    +0.000 C 
ATOM      2  C   UNL     1      59.974  62.269  66.603  0.00  0.00    +0.000 C 
ATOM      3  C   UNL     1      59.450  62.262  67.239  0.00  0.00    +0.000 C 
ATOM      4  C   UNL     1      60.499  62.277  65.965  0.00  0.00    +0.000 C 
ATOM      5  N   UNL     1      60.576  62.531  67.102  0.00  0.00    +0.000 NA
ATOM      6  C   UNL     1      60.423  62.655  67.903  0.00  0.00    +0.000 C 
ATOM      7  C   UNL     1      61.026  62.916  68.402  0.00  0.00    +0.000 C 
ATOM      8  O   UNL     1      61.782  63.054  68.101  0.00  0.00    +0.000 OA
ATOM      9  C   UNL     1      60.873  63.040  69.204  0.00  0.00    +0.000 C 
ATOM     10  O   UNL     1      61.475  63.302  69.703  0.00  0.00    +0.000 OA
ATOM     11  C   UNL     1      61.323  63.426  70.504  0.00  0.00    +0.000 A 
ATOM     12  C   UNL     1      61.925  63.687  71.003  0.00  0.00    +0.000 A 
ATOM     13 CL   UNL     1      62.680  63.824  70.701  0.00  0.00    +0.000 Cl
ATOM     14  C   UNL     1      61.772  63.811  71.804  0.00  0.00    +0.000 A 
ATOM     15  C   UNL     1      61.017  63.674  72.106  0.00  0.00    +0.000 A 
ATOM     16  C   UNL     1      60.414  63.413  71.607  0.00  0.00    +0.000 A 
ATOM     17 CL   UNL     1      59.658  63.275  71.908  0.00  0.00    +0.000 Cl
ATOM     18  C   UNL     1      60.567  63.289  70.806  0.00  0.00    +0.000 A 
ENDROOT
TORSDOF 0
ENDMDL
MODEL 4
REMARK VINA RESULT:    -8.716      3.010      4.193
REMARK INTER + INTRA:          -8.716
REMARK INTER:                  -8.716
REMARK INTRA:                   0.000
REMARK UNBOUND:                 0.000
ROOT
REMARK  Name = cloranolol
REMARK                            x       y       z     vdW  Elec       q    Type
REMARK                         _______ _______ _______ _____ _____    ______ ____
ATOM      1  C   UNL     1      64.925  66.219  70.039  0.00  0.00    +0.000 C 
ATOM      2  C   UNL     1      64.340  65.663  70.206  0.00  0.00    +0.000 C 
ATOM      3  C   UNL     1      64.168  65.602  69.402  0.00  0.00    +0.000 C 
ATOM      4  C   UNL     1      64.512  65.724  71.012  0.00  0.00    +0.000 C 
ATOM      5  N   UNL     1      63.755  65.106  70.373  0.00  0.00    +0.000 NA
ATOM      6  C   UNL     1      63.313  64.775  69.760  0.00  0.00    +0.000 C 
ATOM      7  C   UNL     1      62.728  64.218  69.928  0.00  0.00    +0.000 C 
ATOM      8  O   UNL     1      62.584  63.992  70.709  0.00  0.00    +0.000 OA
ATOM      9  C   UNL     1      62.286  63.886  69.315  0.00  0.00    +0.000 C 
ATOM     10  O   UNL     1      61.701  63.329  69.482  0.00  0.00    +0.000 OA
ATOM     11  C   UNL     1      61.260  62.998  68.870  0.00  0.00    +0.000 A 
ATOM     12  C   UNL     1      60.675  62.441  69.037  0.00  0.00    +0.000 A 
ATOM     13 CL   UNL     1      60.531  62.216  69.817  0.00  0.00    +0.000 Cl
ATOM     14  C   UNL     1      60.233  62.110  68.424  0.00  0.00    +0.000 A 
ATOM     15  C   UNL     1      60.377  62.335  67.644  0.00  0.00    +0.000 A 
ATOM     16  C   UNL     1      60.962  62.892  67.476  0.00  0.00    +0.000 A 
ATOM     17 CL   UNL     1      61.106  63.118  66.695  0.00  0.00    +0.000 Cl
ATOM     18  C   UNL     1      61.403  63.223  68.089  0.00  0.00    +0.000 A 
ENDROOT
TORSDOF 0
ENDMDL
MODEL 5
REMARK VINA RESULT:    -8.699      3.698      4.625
REMARK INTER + INTRA:          -8.699
REMARK INTER:                  -8.699
REMARK INTRA:                   0.000
REMARK UNBOUND:                 0.000
ROOT
REMARK  Name = cloranolol
REMARK                            x       y       z     vdW  Elec       q    Type
REMARK                         _______ _______ _______ _____ _____    ______ ____
ATOM      1  C   UNL     1      65.690  66.899  71.015  0.00  0.00    +0.000 C 
ATOM      2  C   UNL     1      65.127  66.437  70.630  0.00  0.00    +0.000 C 
ATOM      3  C   UNL     1      64.892  66.120  71.354  0.00  0.00    +0.000 C 
ATOM      4  C   UNL     1      65.361  66.754  69.905  0.00  0.00    +0.000 C 
ATOM      5  N   UNL     1      64.562  65.974  70.246  0.00  0.00    +0.000 NA
ATOM      6  C   UNL     1      64.077  65.468  70.682  0.00  0.00    +0.000 C 
ATOM      7  C   UNL     1      63.513  65.006  70.296  0.00  0.00    +0.000 C 
ATOM      8  O   UNL     1      63.433  65.048  69.476  0.00  0.00    +0.000 OA
ATOM      9  C   UNL     1      63.027  64.500  70.732  0.00  0.00    +0.000 C 
ATOM     10  O   UNL     1      62.462  64.037  70.347  0.00  0.00    +0.000 OA
ATOM     11  C   UNL     1      61.978  63.532  70.782  0.00  0.00    +0.000 A 
ATOM     12  C   UNL     1      61.413  63.069  70.398  0.00  0.00    +0.000 A 
ATOM     13 CL   UNL     1      61.335  63.112  69.578  0.00  0.00    +0.000 Cl
ATOM     14  C   UNL     1      60.928  62.563  70.833  0.00  0.00    +0.000 A 
ATOM     15  C   UNL     1      61.008  62.521  71.653  0.00  0.00    +0.000 A 
ATOM     16  C   UNL     1      61.572  62.983  72.038  0.00  0.00    +0.000 A 
ATOM     17 CL   UNL     1      61.652  62.941  72.858  0.00  0.00    +0.000 Cl
ATOM     18  C   UNL     1      62.057  63.489  71.602  0.00  0.00    +0.000 A 
ENDROOT
TORSDOF 0
ENDMDL
MODEL 6
REMARK VINA RESULT:    -8.174      3.408      4.150
REMARK INTER + INTRA:          -8.174
REMARK INTER:                  -8.174
REMARK INTRA:                   0.000
REMARK UNBOUND:                 0.000
ROOT
REMARK  Name = cloranolol
REMARK                            x       y       z     vdW  Elec       q    Type
REMARK                         _______ _______ _______ _____ _____    ______ ____
ATOM      1  C   UNL     1      59.676  67.284  68.862  0.00  0.00    +0.000 C 
ATOM      2  C   UNL     1      60.017  66.859  69.481  0.00  0.00    +0.000 C 
ATOM      3  C   UNL     1      59.846  66.154  69.090  0.00  0.00    +0.000 C 
ATOM      4  C   UNL     1      60.188  67.566  69.873  0.00  0.00    +0.000 C 
ATOM      5  N   UNL     1      60.358  66.433  70.100  0.00  0.00    +0.000 NA
ATOM      6  C   UNL     1      60.380  65.609  70.070  0.00  0.00    +0.000 C 
ATOM      7  C   UNL     1      60.721  65.184  70.690  0.00  0.00    +0.000 C 
ATOM      8  O   UNL     1      61.040  65.582  71.339  0.00  0.00    +0.000 OA
ATOM      9  C   UNL     1      60.744  64.359  70.661  0.00  0.00    +0.000 C 
ATOM     10  O   UNL     1      61.085  63.933  71.280  0.00  0.00    +0.000 OA
ATOM     11  C   UNL     1      61.107  63.110  71.251  0.00  0.00    +0.000 A 
ATOM     12  C   UNL     1      61.448  62.684  71.870  0.00  0.00    +0.000 A 
ATOM     13 CL   UNL     1      61.766  63.083  72.518  0.00  0.00    +0.000 Cl
ATOM     14  C   UNL     1      61.470  61.860  71.840  0.00  0.00    +0.000 A 
ATOM     15  C   UNL     1      61.152  61.462  71.192  0.00  0.00    +0.000 A 
ATOM     16  C   UNL     1      60.811  61.887  70.573  0.00  0.00    +0.000 A 
ATOM     17 CL   UNL     1      60.492  61.489  69.924  0.00  0.00    +0.000 Cl
ATOM     18  C   UNL     1      60.789  62.711  70.602  0.00  0.00    +0.000 A 
ENDROOT
TORSDOF 0
ENDMDL
MODEL 7
REMARK VINA RESULT:    -7.693      4.096      4.791
REMARK INTER + INTRA:          -7.693
REMARK INTER:                  -7.693
REMARK INTRA:                   0.000
REMARK UNBOUND:                 0.000
ROOT
REMARK  Name = cloranolol
REMARK                            x       y       z     vdW  Elec       q    Type
REMARK                         _______ _______ _______ _____ _____    ______ ____
ATOM      1  C   UNL     1      64.993  65.922  69.940  0.00  0.00    +0.000 C 
ATOM      2  C   UNL     1      64.330  65.472  70.133  0.00  0.00    +0.000 C 
ATOM      3  C   UNL     1      64.034  66.099  70.578  0.00  0.00    +0.000 C 
ATOM      4  C   UNL     1      64.626  64.844  69.686  0.00  0.00    +0.000 C 
ATOM      5  N   UNL     1      63.665  65.023  70.326  0.00  0.00    +0.000 NA
ATOM      6  C   UNL     1      63.077  65.341  70.808  0.00  0.00    +0.000 C 
ATOM      7  C   UNL     1      62.413  64.891  71.000  0.00  0.00    +0.000 C 
ATOM      8  O   UNL     1      62.336  64.122  70.710  0.00  0.00    +0.000 OA
ATOM      9  C   UNL     1      61.824  65.210  71.483  0.00  0.00    +0.000 C 
ATOM     10  O   UNL     1      61.160  64.759  71.675  0.00  0.00    +0.000 OA
ATOM     11  C   UNL     1      60.572  65.078  72.157  0.00  0.00    +0.000 A 
ATOM     12  C   UNL     1      59.908  64.628  72.350  0.00  0.00    +0.000 A 
ATOM     13 CL   UNL     1      59.832  63.860  72.060  0.00  0.00    +0.000 Cl
ATOM     14  C   UNL     1      59.319  64.947  72.833  0.00  0.00    +0.000 A 
ATOM     15  C   UNL     1      59.395  65.715  73.122  0.00  0.00    +0.000 A 
ATOM     16  C   UNL     1      60.059  66.166  72.930  0.00  0.00    +0.000 A 
ATOM     17 CL   UNL     1      60.135  66.934  73.220  0.00  0.00    +0.000 Cl
ATOM     18  C   UNL     1      60.648  65.847  72.448  0.00  0.00    +0.000 A 
ENDROOT
TORSDOF 0
ENDMDL
MODEL 8
REMARK VINA RESULT:    -7.464     25.433     26.922
REMARK INTER + INTRA:          -7.464
REMARK INTER:                  -7.464
REMARK INTRA:                   0.000
REMARK UNBOUND:                 0.000
ROOT
REMARK  Name = cloranolol
REMARK                            x       y       z     vdW  Elec       q    Type
REMARK                         _______ _______ _______ _____ _____    ______ ____
ATOM      1  C   UNL     1      68.966  81.451  53.396  0.00  0.00    +0.000 C 
ATOM      2  C   UNL     1      68.996  80.972  52.726  0.00  0.00    +0.000 C 
ATOM      3  C   UNL     1      69.790  81.168  52.622  0.00  0.00    +0.000 C 
ATOM      4  C   UNL     1      68.200  80.777  52.829  0.00  0.00    +0.000 C 
ATOM      5  N   UNL     1      69.027  80.494  52.054  0.00  0.00    +0.000 NA
ATOM      6  C   UNL     1      69.730  80.424  51.629  0.00  0.00    +0.000 C 
ATOM      7  C   UNL     1      69.760  79.945  50.958  0.00  0.00    +0.000 C 
ATOM      8  O   UNL     1      69.087  79.536  50.711  0.00  0.00    +0.000 OA
ATOM      9  C   UNL     1      70.463  79.875  50.533  0.00  0.00    +0.000 C 
ATOM     10  O   UNL     1      70.494  79.396  49.861  0.00  0.00    +0.000 OA
ATOM     11  C   UNL     1      71.197  79.326  49.436  0.00  0.00    +0.000 A 
ATOM     12  C   UNL     1      71.228  78.847  48.765  0.00  0.00    +0.000 A 
ATOM     13 CL   UNL     1      70.554  78.439  48.520  0.00  0.00    +0.000 Cl
ATOM     14  C   UNL     1      71.931  78.777  48.340  0.00  0.00    +0.000 A 
ATOM     15  C   UNL     1      72.604  79.185  48.586  0.00  0.00    +0.000 A 
ATOM     16  C   UNL     1      72.574  79.664  49.257  0.00  0.00    +0.000 A 
ATOM     17 CL   UNL     1      73.247  80.073  49.504  0.00  0.00    +0.000 Cl
ATOM     18  C   UNL     1      71.870  79.734  49.682  0.00  0.00    +0.000 A 
ENDROOT
TORSDOF 0
ENDMDL
MODEL 9
REMARK VINA RESULT:    -7.441     18.711     20.233
REMARK INTER + INTRA:          -7.441
REMARK INTER:                  -7.441
REMARK INTRA:                   0.000
REMARK UNBOUND:                 0.000
ROOT
REMARK  Name = cloranolol
REMARK                            x       y       z     vdW  Elec       q    Type
REMARK                         _______ _______ _______ _____ _____    ______ ____
ATOM      1  C   UNL     1      66.457  77.320  59.937  0.00  0.00    +0.000 C 
ATOM      2  C   UNL     1      66.244  78.002  59.526  0.00  0.00    +0.000 C 
ATOM      3  C   UNL     1      65.452  77.863  59.705  0.00  0.00    +0.000 C 
ATOM      4  C   UNL     1      67.038  78.142  59.347  0.00  0.00    +0.000 C 
ATOM      5  N   UNL     1      66.031  78.685  59.115  0.00  0.00    +0.000 NA
ATOM      6  C   UNL     1      65.238  78.906  59.065  0.00  0.00    +0.000 C 
ATOM      7  C   UNL     1      65.026  79.590  58.654  0.00  0.00    +0.000 C 
ATOM      8  O   UNL     1      65.607  80.052  58.293  0.00  0.00    +0.000 OA
ATOM      9  C   UNL     1      64.233  79.811  58.603  0.00  0.00    +0.000 C 
ATOM     10  O   UNL     1      64.020  80.494  58.192  0.00  0.00    +0.000 OA
ATOM     11  C   UNL     1      63.228  80.715  58.141  0.00  0.00    +0.000 A 
ATOM     12  C   UNL     1      63.015  81.398  57.730  0.00  0.00    +0.000 A 
ATOM     13 CL   UNL     1      63.596  81.859  57.370  0.00  0.00    +0.000 Cl
ATOM     14  C   UNL     1      62.222  81.619  57.680  0.00  0.00    +0.000 A 
ATOM     15  C   UNL     1      61.642  81.157  58.040  0.00  0.00    +0.000 A 
ATOM     16  C   UNL     1      61.854  80.474  58.451  0.00  0.00    +0.000 A 
ATOM     17 CL   UNL     1      61.273  80.011  58.812  0.00  0.00    +0.000 Cl
ATOM     18  C   UNL     1      62.647  80.253  58.502  0.00  0.00    +0.000 A 
ENDROOT
TORSDOF 0
ENDMDL
