MODEL 1
REMARK VINA RESULT:   -10.486      0.000      0.000
REMARK INTER + INTRA:         -10.486
REMARK INTER:                 -10.486
REMARK INTRA:                   0.000
REMARK UNBOUND:                 0.000
ROOT
REMARK  Name = cloridarol
REMARK                            x       y       z     vdW  Elec       q    Type
REMARK                         _______ _______ _______ _____ _____    ______ ____
ATOM      1  O   UNL     1      59.697  61.405  65.542  0.00  0.00    +0.000 OA
ATOM      2  C   UNL     1      60.416  61.782  65.687  0.00  0.00    +0.000 C 
ATOM      3  C   UNL     1      60.534  62.187  66.396  0.00  0.00    +0.000 A 
ATOM      4  C   UNL     1      59.987  62.263  67.008  0.00  0.00    +0.000 A 
ATOM      5  C   UNL     1      60.335  62.710  67.607  0.00  0.00    +0.000 A 
ATOM      6  C   UNL     1      61.097  62.911  67.365  0.00  0.00    +0.000 A 
ATOM      7  O   UNL     1      61.221  62.588  66.617  0.00  0.00    +0.000 OA
ATOM      8  C   UNL     1      61.580  63.363  67.859  0.00  0.00    +0.000 A 
ATOM      9  C   UNL     1      61.302  63.613  68.593  0.00  0.00    +0.000 A 
ATOM     10  C   UNL     1      60.539  63.412  68.835  0.00  0.00    +0.000 A 
ATOM     11  C   UNL     1      60.055  62.961  68.343  0.00  0.00    +0.000 A 
ATOM     12  C   UNL     1      61.018  61.753  65.123  0.00  0.00    +0.000 A 
ATOM     13  C   UNL     1      60.900  61.348  64.414  0.00  0.00    +0.000 A 
ATOM     14  C   UNL     1      61.501  61.319  63.851  0.00  0.00    +0.000 A 
ATOM     15  C   UNL     1      62.221  61.696  63.995  0.00  0.00    +0.000 A 
ATOM     16 CL   UNL     1      62.823  61.668  63.432  0.00  0.00    +0.000 Cl
ATOM     17  C   UNL     1      62.339  62.101  64.704  0.00  0.00    +0.000 A 
ATOM     18  C   UNL     1      61.737  62.130  65.268  0.00  0.00    +0.000 A 
ENDROOT
TORSDOF 0
ENDMDL
MODEL 2
REMARK VINA RESULT:   -10.333      1.589      3.715
REMARK INTER + INTRA:         -10.333
REMARK INTER:                 -10.333
REMARK INTRA:                   0.000
REMARK UNBOUND:                 0.000
ROOT
REMARK  Name = cloridarol
REMARK                            x       y       z     vdW  Elec       q    Type
REMARK                         _______ _______ _______ _____ _____    ______ ____
ATOM      1  O   UNL     1      59.360  62.103  66.856  0.00  0.00    +0.000 OA
ATOM      2  C   UNL     1      60.147  62.346  66.813  0.00  0.00    +0.000 C 
ATOM      3  C   UNL     1      60.602  62.159  66.150  0.00  0.00    +0.000 A 
ATOM      4  C   UNL     1      60.347  61.734  65.491  0.00  0.00    +0.000 A 
ATOM      5  C   UNL     1      60.979  61.676  64.965  0.00  0.00    +0.000 A 
ATOM      6  C   UNL     1      61.625  62.066  65.299  0.00  0.00    +0.000 A 
ATOM      7  O   UNL     1      61.392  62.364  66.031  0.00  0.00    +0.000 OA
ATOM      8  C   UNL     1      62.342  62.098  64.891  0.00  0.00    +0.000 A 
ATOM      9  C   UNL     1      62.413  61.741  64.151  0.00  0.00    +0.000 A 
ATOM     10  C   UNL     1      61.767  61.352  63.818  0.00  0.00    +0.000 A 
ATOM     11  C   UNL     1      61.050  61.319  64.224  0.00  0.00    +0.000 A 
ATOM     12  C   UNL     1      60.479  62.778  67.433  0.00  0.00    +0.000 A 
ATOM     13  C   UNL     1      60.024  62.965  68.096  0.00  0.00    +0.000 A 
ATOM     14  C   UNL     1      60.357  63.396  68.715  0.00  0.00    +0.000 A 
ATOM     15  C   UNL     1      61.144  63.640  68.673  0.00  0.00    +0.000 A 
ATOM     16 CL   UNL     1      61.476  64.071  69.293  0.00  0.00    +0.000 Cl
ATOM     17  C   UNL     1      61.599  63.453  68.011  0.00  0.00    +0.000 A 
ATOM     18  C   UNL     1      61.266  63.021  67.390  0.00  0.00    +0.000 A 
ENDROOT
TORSDOF 0
ENDMDL
MODEL 3
REMARK VINA RESULT:    -9.666      2.712      4.043
REMARK INTER + INTRA:          -9.666
REMARK INTER:                  -9.666
REMARK INTRA:                   0.000
REMARK UNBOUND:                 0.000
ROOT
REMARK  Name = cloridarol
REMARK                            x       y       z     vdW  Elec       q    Type
REMARK                         _______ _______ _______ _____ _____    ______ ____
ATOM      1  O   UNL     1      60.121  61.428  69.953  0.00  0.00    +0.000 OA
ATOM      2  C   UNL     1      60.574  62.107  69.835  0.00  0.00    +0.000 C 
ATOM      3  C   UNL     1      60.853  62.536  70.482  0.00  0.00    +0.000 A 
ATOM      4  C   UNL     1      60.723  62.355  71.276  0.00  0.00    +0.000 A 
ATOM      5  C   UNL     1      61.100  62.928  71.733  0.00  0.00    +0.000 A 
ATOM      6  C   UNL     1      61.463  63.464  71.221  0.00  0.00    +0.000 A 
ATOM      7  O   UNL     1      61.310  63.222  70.448  0.00  0.00    +0.000 OA
ATOM      8  C   UNL     1      61.885  64.104  71.527  0.00  0.00    +0.000 A 
ATOM      9  C   UNL     1      61.945  64.207  72.342  0.00  0.00    +0.000 A 
ATOM     10  C   UNL     1      61.583  63.671  72.854  0.00  0.00    +0.000 A 
ATOM     11  C   UNL     1      61.160  63.031  72.550  0.00  0.00    +0.000 A 
ATOM     12  C   UNL     1      60.749  62.357  69.067  0.00  0.00    +0.000 A 
ATOM     13  C   UNL     1      60.470  61.928  68.420  0.00  0.00    +0.000 A 
ATOM     14  C   UNL     1      60.645  62.178  67.654  0.00  0.00    +0.000 A 
ATOM     15  C   UNL     1      61.098  62.857  67.534  0.00  0.00    +0.000 A 
ATOM     16 CL   UNL     1      61.273  63.107  66.768  0.00  0.00    +0.000 Cl
ATOM     17  C   UNL     1      61.377  63.286  68.181  0.00  0.00    +0.000 A 
ATOM     18  C   UNL     1      61.202  63.036  68.949  0.00  0.00    +0.000 A 
ENDROOT
TORSDOF 0
ENDMDL
MODEL 4
REMARK VINA RESULT:    -9.499      3.306      5.398
REMARK INTER + INTRA:          -9.499
REMARK INTER:                  -9.499
REMARK INTRA:                   0.000
REMARK UNBOUND:                 0.000
ROOT
REMARK  Name = cloridarol
REMARK                            x       y       z     vdW  Elec       q    Type
REMARK                         _______ _______ _______ _____ _____    ______ ____
ATOM      1  O   UNL     1      60.277  61.609  70.954  0.00  0.00    +0.000 OA
ATOM      2  C   UNL     1      60.693  62.268  70.681  0.00  0.00    +0.000 C 
ATOM      3  C   UNL     1      60.791  62.387  69.871  0.00  0.00    +0.000 A 
ATOM      4  C   UNL     1      60.507  61.899  69.270  0.00  0.00    +0.000 A 
ATOM      5  C   UNL     1      60.732  62.226  68.548  0.00  0.00    +0.000 A 
ATOM      6  C   UNL     1      61.155  62.917  68.701  0.00  0.00    +0.000 A 
ATOM      7  O   UNL     1      61.192  63.018  69.519  0.00  0.00    +0.000 OA
ATOM      8  C   UNL     1      61.452  63.366  68.076  0.00  0.00    +0.000 A 
ATOM      9  C   UNL     1      61.326  63.124  67.298  0.00  0.00    +0.000 A 
ATOM     10  C   UNL     1      60.903  62.433  67.144  0.00  0.00    +0.000 A 
ATOM     11  C   UNL     1      60.606  61.983  67.769  0.00  0.00    +0.000 A 
ATOM     12  C   UNL     1      61.010  62.807  71.220  0.00  0.00    +0.000 A 
ATOM     13  C   UNL     1      60.911  62.688  72.030  0.00  0.00    +0.000 A 
ATOM     14  C   UNL     1      61.228  63.226  72.568  0.00  0.00    +0.000 A 
ATOM     15  C   UNL     1      61.644  63.885  72.296  0.00  0.00    +0.000 A 
ATOM     16 CL   UNL     1      61.961  64.424  72.833  0.00  0.00    +0.000 Cl
ATOM     17  C   UNL     1      61.743  64.005  71.486  0.00  0.00    +0.000 A 
ATOM     18  C   UNL     1      61.425  63.466  70.947  0.00  0.00    +0.000 A 
ENDROOT
TORSDOF 0
ENDMDL
MODEL 5
REMARK VINA RESULT:    -9.401      5.367      6.265
REMARK INTER + INTRA:          -9.401
REMARK INTER:                  -9.401
REMARK INTRA:                   0.000
REMARK UNBOUND:                 0.000
ROOT
REMARK  Name = cloridarol
REMARK                            x       y       z     vdW  Elec       q    Type
REMARK                         _______ _______ _______ _____ _____    ______ ____
ATOM      1  O   UNL     1      63.502  64.259  69.302  0.00  0.00    +0.000 OA
ATOM      2  C   UNL     1      63.473  64.616  70.045  0.00  0.00    +0.000 C 
ATOM      3  C   UNL     1      62.949  64.336  70.618  0.00  0.00    +0.000 A 
ATOM      4  C   UNL     1      62.424  63.706  70.528  0.00  0.00    +0.000 A 
ATOM      5  C   UNL     1      62.010  63.617  71.236  0.00  0.00    +0.000 A 
ATOM      6  C   UNL     1      62.278  64.192  71.763  0.00  0.00    +0.000 A 
ATOM      7  O   UNL     1      62.859  64.637  71.381  0.00  0.00    +0.000 OA
ATOM      8  C   UNL     1      61.959  64.237  72.522  0.00  0.00    +0.000 A 
ATOM      9  C   UNL     1      61.372  63.707  72.755  0.00  0.00    +0.000 A 
ATOM     10  C   UNL     1      61.103  63.131  72.228  0.00  0.00    +0.000 A 
ATOM     11  C   UNL     1      61.422  63.086  71.468  0.00  0.00    +0.000 A 
ATOM     12  C   UNL     1      63.967  65.255  70.215  0.00  0.00    +0.000 A 
ATOM     13  C   UNL     1      64.491  65.535  69.642  0.00  0.00    +0.000 A 
ATOM     14  C   UNL     1      64.984  66.173  69.812  0.00  0.00    +0.000 A 
ATOM     15  C   UNL     1      64.955  66.532  70.555  0.00  0.00    +0.000 A 
ATOM     16 CL   UNL     1      65.449  67.170  70.725  0.00  0.00    +0.000 Cl
ATOM     17  C   UNL     1      64.432  66.252  71.128  0.00  0.00    +0.000 A 
ATOM     18  C   UNL     1      63.937  65.613  70.958  0.00  0.00    +0.000 A 
ENDROOT
TORSDOF 0
ENDMDL
MODEL 6
REMARK VINA RESULT:    -9.399      5.393      6.776
REMARK INTER + INTRA:          -9.399
REMARK INTER:                  -9.399
REMARK INTRA:                   0.000
REMARK UNBOUND:                 0.000
ROOT
REMARK  Name = cloridarol
REMARK                            x       y       z     vdW  Elec       q    Type
REMARK                         _______ _______ _______ _____ _____    ______ ____
ATOM      1  O   UNL     1      63.290  64.268  69.412  0.00  0.00    +0.000 OA
ATOM      2  C   UNL     1      63.309  64.640  70.148  0.00  0.00    +0.000 C 
ATOM      3  C   UNL     1      63.833  65.262  70.283  0.00  0.00    +0.000 A 
ATOM      4  C   UNL     1      64.369  65.572  69.738  0.00  0.00    +0.000 A 
ATOM      5  C   UNL     1      64.780  66.184  70.105  0.00  0.00    +0.000 A 
ATOM      6  C   UNL     1      64.499  66.254  70.877  0.00  0.00    +0.000 A 
ATOM      7  O   UNL     1      63.913  65.684  70.988  0.00  0.00    +0.000 OA
ATOM      8  C   UNL     1      64.812  66.828  71.380  0.00  0.00    +0.000 A 
ATOM      9  C   UNL     1      65.407  67.332  71.112  0.00  0.00    +0.000 A 
ATOM     10  C   UNL     1      65.689  67.262  70.339  0.00  0.00    +0.000 A 
ATOM     11  C   UNL     1      65.376  66.689  69.836  0.00  0.00    +0.000 A 
ATOM     12  C   UNL     1      62.802  64.389  70.749  0.00  0.00    +0.000 A 
ATOM     13  C   UNL     1      62.277  63.766  70.614  0.00  0.00    +0.000 A 
ATOM     14  C   UNL     1      61.771  63.516  71.215  0.00  0.00    +0.000 A 
ATOM     15  C   UNL     1      61.789  63.887  71.952  0.00  0.00    +0.000 A 
ATOM     16 CL   UNL     1      61.283  63.637  72.552  0.00  0.00    +0.000 Cl
ATOM     17  C   UNL     1      62.313  64.510  72.087  0.00  0.00    +0.000 A 
ATOM     18  C   UNL     1      62.820  64.761  71.485  0.00  0.00    +0.000 A 
ENDROOT
TORSDOF 0
ENDMDL
MODEL 7
REMARK VINA RESULT:    -9.106      5.372      6.489
REMARK INTER + INTRA:          -9.106
REMARK INTER:                  -9.106
REMARK INTRA:                   0.000
REMARK UNBOUND:                 0.000
ROOT
REMARK  Name = cloridarol
REMARK                            x       y       z     vdW  Elec       q    Type
REMARK                         _______ _______ _______ _____ _____    ______ ____
ATOM      1  O   UNL     1      62.082  65.017  72.673  0.00  0.00    +0.000 OA
ATOM      2  C   UNL     1      62.262  64.596  71.986  0.00  0.00    +0.000 C 
ATOM      3  C   UNL     1      62.834  64.881  71.465  0.00  0.00    +0.000 A 
ATOM      4  C   UNL     1      63.271  65.574  71.556  0.00  0.00    +0.000 A 
ATOM      5  C   UNL     1      63.777  65.643  70.908  0.00  0.00    +0.000 A 
ATOM      6  C   UNL     1      63.653  64.992  70.417  0.00  0.00    +0.000 A 
ATOM      7  O   UNL     1      63.071  64.521  70.761  0.00  0.00    +0.000 OA
ATOM      8  C   UNL     1      64.087  64.914  69.720  0.00  0.00    +0.000 A 
ATOM      9  C   UNL     1      64.645  65.485  69.514  0.00  0.00    +0.000 A 
ATOM     10  C   UNL     1      64.769  66.136  70.005  0.00  0.00    +0.000 A 
ATOM     11  C   UNL     1      64.335  66.216  70.703  0.00  0.00    +0.000 A 
ATOM     12  C   UNL     1      61.868  63.889  71.821  0.00  0.00    +0.000 A 
ATOM     13  C   UNL     1      61.295  63.605  72.343  0.00  0.00    +0.000 A 
ATOM     14  C   UNL     1      60.902  62.899  72.178  0.00  0.00    +0.000 A 
ATOM     15  C   UNL     1      61.080  62.477  71.491  0.00  0.00    +0.000 A 
ATOM     16 CL   UNL     1      60.687  61.772  71.327  0.00  0.00    +0.000 Cl
ATOM     17  C   UNL     1      61.653  62.762  70.970  0.00  0.00    +0.000 A 
ATOM     18  C   UNL     1      62.047  63.468  71.135  0.00  0.00    +0.000 A 
ENDROOT
TORSDOF 0
ENDMDL
MODEL 8
REMARK VINA RESULT:    -9.065      5.461      6.625
REMARK INTER + INTRA:          -9.065
REMARK INTER:                  -9.065
REMARK INTRA:                   0.000
REMARK UNBOUND:                 0.000
ROOT
REMARK  Name = cloridarol
REMARK                            x       y       z     vdW  Elec       q    Type
REMARK                         _______ _______ _______ _____ _____    ______ ____
ATOM      1  O   UNL     1      62.008  63.816  72.781  0.00  0.00    +0.000 OA
ATOM      2  C   UNL     1      61.270  63.782  72.414  0.00  0.00    +0.000 C 
ATOM      3  C   UNL     1      60.732  64.400  72.511  0.00  0.00    +0.000 A 
ATOM      4  C   UNL     1      60.853  65.084  72.955  0.00  0.00    +0.000 A 
ATOM      5  C   UNL     1      60.174  65.548  72.899  0.00  0.00    +0.000 A 
ATOM      6  C   UNL     1      59.633  65.151  72.419  0.00  0.00    +0.000 A 
ATOM      7  O   UNL     1      59.977  64.441  72.179  0.00  0.00    +0.000 OA
ATOM      8  C   UNL     1      58.896  65.488  72.263  0.00  0.00    +0.000 A 
ATOM      9  C   UNL     1      58.700  66.221  72.586  0.00  0.00    +0.000 A 
ATOM     10  C   UNL     1      59.242  66.618  73.066  0.00  0.00    +0.000 A 
ATOM     11  C   UNL     1      59.978  66.282  73.222  0.00  0.00    +0.000 A 
ATOM     12  C   UNL     1      61.070  63.129  71.950  0.00  0.00    +0.000 A 
ATOM     13  C   UNL     1      61.609  62.511  71.853  0.00  0.00    +0.000 A 
ATOM     14  C   UNL     1      61.409  61.859  71.390  0.00  0.00    +0.000 A 
ATOM     15  C   UNL     1      60.671  61.824  71.023  0.00  0.00    +0.000 A 
ATOM     16 CL   UNL     1      60.471  61.172  70.560  0.00  0.00    +0.000 Cl
ATOM     17  C   UNL     1      60.133  62.441  71.119  0.00  0.00    +0.000 A 
ATOM     18  C   UNL     1      60.332  63.094  71.583  0.00  0.00    +0.000 A 
ENDROOT
TORSDOF 0
ENDMDL
MODEL 9
REMARK VINA RESULT:    -8.849      4.870      6.448
REMARK INTER + INTRA:          -8.849
REMARK INTER:                  -8.849
REMARK INTRA:                   0.000
REMARK UNBOUND:                 0.000
ROOT
REMARK  Name = cloridarol
REMARK                            x       y       z     vdW  Elec       q    Type
REMARK                         _______ _______ _______ _____ _____    ______ ____
ATOM      1  O   UNL     1      61.334  65.015  72.858  0.00  0.00    +0.000 OA
ATOM      2  C   UNL     1      61.717  64.745  72.179  0.00  0.00    +0.000 C 
ATOM      3  C   UNL     1      61.437  64.076  71.786  0.00  0.00    +0.000 A 
ATOM      4  C   UNL     1      60.784  63.621  72.005  0.00  0.00    +0.000 A 
ATOM      5  C   UNL     1      60.705  63.009  71.459  0.00  0.00    +0.000 A 
ATOM      6  C   UNL     1      61.309  63.084  70.902  0.00  0.00    +0.000 A 
ATOM      7  O   UNL     1      61.761  63.743  71.104  0.00  0.00    +0.000 OA
ATOM      8  C   UNL     1      61.368  62.541  70.283  0.00  0.00    +0.000 A 
ATOM      9  C   UNL     1      60.825  61.925  70.221  0.00  0.00    +0.000 A 
ATOM     10  C   UNL     1      60.221  61.850  70.778  0.00  0.00    +0.000 A 
ATOM     11  C   UNL     1      60.161  62.391  71.398  0.00  0.00    +0.000 A 
ATOM     12  C   UNL     1      62.380  65.145  71.893  0.00  0.00    +0.000 A 
ATOM     13  C   UNL     1      62.659  65.814  72.287  0.00  0.00    +0.000 A 
ATOM     14  C   UNL     1      63.321  66.213  72.001  0.00  0.00    +0.000 A 
ATOM     15  C   UNL     1      63.705  65.944  71.322  0.00  0.00    +0.000 A 
ATOM     16 CL   UNL     1      64.367  66.344  71.036  0.00  0.00    +0.000 Cl
ATOM     17  C   UNL     1      63.426  65.275  70.928  0.00  0.00    +0.000 A 
ATOM     18  C   UNL     1      62.762  64.875  71.214  0.00  0.00    +0.000 A 
ENDROOT
TORSDOF 0
ENDMDL
