MODEL 1
REMARK VINA RESULT:   -12.929      0.000      0.000
REMARK INTER + INTRA:         -12.929
REMARK INTER:                 -12.929
REMARK INTRA:                   0.000
REMARK UNBOUND:                 0.000
ROOT
REMARK  Name = clostebol
REMARK                            x       y       z     vdW  Elec       q    Type
REMARK                         _______ _______ _______ _____ _____    ______ ____
ATOM      1  C   UNL     1      61.317  63.295  67.876  0.00  0.00    +0.000 C 
ATOM      2  C   UNL     1      60.878  62.835  67.350  0.00  0.00    +0.000 C 
ATOM      3  C   UNL     1      61.634  63.025  67.079  0.00  0.00    +0.000 C 
ATOM      4  C   UNL     1      61.888  62.758  66.342  0.00  0.00    +0.000 C 
ATOM      5  C   UNL     1      61.386  62.300  65.874  0.00  0.00    +0.000 C 
ATOM      6  C   UNL     1      60.630  62.109  66.145  0.00  0.00    +0.000 C 
ATOM      7  C   UNL     1      60.128  61.650  65.677  0.00  0.00    +0.000 C 
ATOM      8  C   UNL     1      60.382  61.383  64.939  0.00  0.00    +0.000 C 
ATOM      9  C   UNL     1      61.138  61.574  64.669  0.00  0.00    +0.000 C 
ATOM     10  C   UNL     1      61.391  61.305  63.930  0.00  0.00    +0.000 C 
ATOM     11 CL   UNL     1      60.890  60.848  63.463  0.00  0.00    +0.000 Cl
ATOM     12  C   UNL     1      62.147  61.496  63.661  0.00  0.00    +0.000 C 
ATOM     13  O   UNL     1      62.401  61.229  62.923  0.00  0.00    +0.000 OA
ATOM     14  C   UNL     1      62.649  61.955  64.128  0.00  0.00    +0.000 C 
ATOM     15  C   UNL     1      62.395  62.222  64.866  0.00  0.00    +0.000 C 
ATOM     16  C   UNL     1      61.640  62.032  65.137  0.00  0.00    +0.000 C 
ATOM     17  C   UNL     1      62.142  62.490  65.604  0.00  0.00    +0.000 C 
ATOM     18  C   UNL     1      60.376  62.376  66.882  0.00  0.00    +0.000 C 
ATOM     19  C   UNL     1      59.667  62.277  67.291  0.00  0.00    +0.000 C 
ATOM     20  C   UNL     1      59.730  62.674  68.012  0.00  0.00    +0.000 C 
ATOM     21  C   UNL     1      60.479  63.019  68.049  0.00  0.00    +0.000 C 
ATOM     22  O   UNL     1      60.776  63.469  68.673  0.00  0.00    +0.000 OA
ENDROOT
TORSDOF 0
ENDMDL
MODEL 2
REMARK VINA RESULT:   -12.887      1.102      3.626
REMARK INTER + INTRA:         -12.887
REMARK INTER:                 -12.887
REMARK INTRA:                   0.000
REMARK UNBOUND:                 0.000
ROOT
REMARK  Name = clostebol
REMARK                            x       y       z     vdW  Elec       q    Type
REMARK                         _______ _______ _______ _____ _____    ______ ____
ATOM      1  C   UNL     1      62.600  61.795  63.906  0.00  0.00    +0.000 C 
ATOM      2  C   UNL     1      61.851  61.656  64.224  0.00  0.00    +0.000 C 
ATOM      3  C   UNL     1      62.336  62.126  64.699  0.00  0.00    +0.000 C 
ATOM      4  C   UNL     1      62.057  62.410  65.421  0.00  0.00    +0.000 C 
ATOM      5  C   UNL     1      61.292  62.225  65.668  0.00  0.00    +0.000 C 
ATOM      6  C   UNL     1      60.806  61.756  65.194  0.00  0.00    +0.000 C 
ATOM      7  C   UNL     1      60.041  61.571  65.442  0.00  0.00    +0.000 C 
ATOM      8  C   UNL     1      59.762  61.856  66.164  0.00  0.00    +0.000 C 
ATOM      9  C   UNL     1      60.247  62.325  66.638  0.00  0.00    +0.000 C 
ATOM     10  C   UNL     1      59.967  62.609  67.361  0.00  0.00    +0.000 C 
ATOM     11 CL   UNL     1      59.202  62.425  67.608  0.00  0.00    +0.000 Cl
ATOM     12  C   UNL     1      60.452  63.078  67.834  0.00  0.00    +0.000 C 
ATOM     13  O   UNL     1      60.173  63.363  68.556  0.00  0.00    +0.000 OA
ATOM     14  C   UNL     1      61.217  63.263  67.587  0.00  0.00    +0.000 C 
ATOM     15  C   UNL     1      61.497  62.979  66.865  0.00  0.00    +0.000 C 
ATOM     16  C   UNL     1      61.012  62.510  66.390  0.00  0.00    +0.000 C 
ATOM     17  C   UNL     1      61.777  62.695  66.143  0.00  0.00    +0.000 C 
ATOM     18  C   UNL     1      61.086  61.471  64.472  0.00  0.00    +0.000 C 
ATOM     19  C   UNL     1      60.737  61.001  63.892  0.00  0.00    +0.000 C 
ATOM     20  C   UNL     1      61.286  60.894  63.285  0.00  0.00    +0.000 C 
ATOM     21  C   UNL     1      61.975  61.300  63.490  0.00  0.00    +0.000 C 
ATOM     22  O   UNL     1      62.666  61.341  63.042  0.00  0.00    +0.000 OA
ENDROOT
TORSDOF 0
ENDMDL
MODEL 3
REMARK VINA RESULT:   -11.936      3.263      4.925
REMARK INTER + INTRA:         -11.936
REMARK INTER:                 -11.936
REMARK INTRA:                   0.000
REMARK UNBOUND:                 0.000
ROOT
REMARK  Name = clostebol
REMARK                            x       y       z     vdW  Elec       q    Type
REMARK                         _______ _______ _______ _____ _____    ______ ____
ATOM      1  C   UNL     1      61.636  61.881  72.313  0.00  0.00    +0.000 C 
ATOM      2  C   UNL     1      61.376  62.553  71.909  0.00  0.00    +0.000 C 
ATOM      3  C   UNL     1      61.356  61.861  71.459  0.00  0.00    +0.000 C 
ATOM      4  C   UNL     1      61.092  61.884  70.678  0.00  0.00    +0.000 C 
ATOM      5  C   UNL     1      60.848  62.599  70.347  0.00  0.00    +0.000 C 
ATOM      6  C   UNL     1      60.868  63.291  70.796  0.00  0.00    +0.000 C 
ATOM      7  C   UNL     1      60.624  64.006  70.464  0.00  0.00    +0.000 C 
ATOM      8  C   UNL     1      60.360  64.029  69.683  0.00  0.00    +0.000 C 
ATOM      9  C   UNL     1      60.340  63.337  69.234  0.00  0.00    +0.000 C 
ATOM     10  C   UNL     1      60.076  63.361  68.452  0.00  0.00    +0.000 C 
ATOM     11 CL   UNL     1      59.832  64.075  68.121  0.00  0.00    +0.000 Cl
ATOM     12  C   UNL     1      60.056  62.670  68.003  0.00  0.00    +0.000 C 
ATOM     13  O   UNL     1      59.793  62.693  67.222  0.00  0.00    +0.000 OA
ATOM     14  C   UNL     1      60.300  61.955  68.334  0.00  0.00    +0.000 C 
ATOM     15  C   UNL     1      60.564  61.931  69.116  0.00  0.00    +0.000 C 
ATOM     16  C   UNL     1      60.584  62.622  69.565  0.00  0.00    +0.000 C 
ATOM     17  C   UNL     1      60.828  61.907  69.897  0.00  0.00    +0.000 C 
ATOM     18  C   UNL     1      61.132  63.268  71.578  0.00  0.00    +0.000 C 
ATOM     19  C   UNL     1      61.212  63.855  72.151  0.00  0.00    +0.000 C 
ATOM     20  C   UNL     1      61.506  63.503  72.837  0.00  0.00    +0.000 C 
ATOM     21  C   UNL     1      61.607  62.698  72.688  0.00  0.00    +0.000 C 
ATOM     22  O   UNL     1      61.890  62.137  73.222  0.00  0.00    +0.000 OA
ENDROOT
TORSDOF 0
ENDMDL
MODEL 4
REMARK VINA RESULT:   -11.711      5.655      7.249
REMARK INTER + INTRA:         -11.711
REMARK INTER:                 -11.711
REMARK INTRA:                   0.000
REMARK UNBOUND:                 0.000
ROOT
REMARK  Name = clostebol
REMARK                            x       y       z     vdW  Elec       q    Type
REMARK                         _______ _______ _______ _____ _____    ______ ____
ATOM      1  C   UNL     1      61.815  61.942  71.943  0.00  0.00    +0.000 C 
ATOM      2  C   UNL     1      61.163  62.374  71.681  0.00  0.00    +0.000 C 
ATOM      3  C   UNL     1      61.625  62.769  72.239  0.00  0.00    +0.000 C 
ATOM      4  C   UNL     1      61.416  63.528  72.485  0.00  0.00    +0.000 C 
ATOM      5  C   UNL     1      60.745  63.892  72.173  0.00  0.00    +0.000 C 
ATOM      6  C   UNL     1      60.283  63.498  71.614  0.00  0.00    +0.000 C 
ATOM      7  C   UNL     1      59.612  63.863  71.302  0.00  0.00    +0.000 C 
ATOM      8  C   UNL     1      59.403  64.622  71.548  0.00  0.00    +0.000 C 
ATOM      9  C   UNL     1      59.865  65.016  72.106  0.00  0.00    +0.000 C 
ATOM     10  C   UNL     1      59.656  65.776  72.352  0.00  0.00    +0.000 C 
ATOM     11 CL   UNL     1      58.986  66.141  72.040  0.00  0.00    +0.000 Cl
ATOM     12  C   UNL     1      60.118  66.170  72.910  0.00  0.00    +0.000 C 
ATOM     13  O   UNL     1      59.909  66.929  73.156  0.00  0.00    +0.000 OA
ATOM     14  C   UNL     1      60.789  65.806  73.222  0.00  0.00    +0.000 C 
ATOM     15  C   UNL     1      60.997  65.046  72.977  0.00  0.00    +0.000 C 
ATOM     16  C   UNL     1      60.536  64.652  72.419  0.00  0.00    +0.000 C 
ATOM     17  C   UNL     1      61.207  64.287  72.731  0.00  0.00    +0.000 C 
ATOM     18  C   UNL     1      60.492  62.739  71.368  0.00  0.00    +0.000 C 
ATOM     19  C   UNL     1      60.146  62.218  70.830  0.00  0.00    +0.000 C 
ATOM     20  C   UNL     1      60.603  61.531  70.810  0.00  0.00    +0.000 C 
ATOM     21  C   UNL     1      61.232  61.627  71.336  0.00  0.00    +0.000 C 
ATOM     22  O   UNL     1      61.824  61.075  71.490  0.00  0.00    +0.000 OA
ENDROOT
TORSDOF 0
ENDMDL
MODEL 5
REMARK VINA RESULT:   -11.544      5.742      6.752
REMARK INTER + INTRA:         -11.544
REMARK INTER:                 -11.544
REMARK INTRA:                   0.000
REMARK UNBOUND:                 0.000
ROOT
REMARK  Name = clostebol
REMARK                            x       y       z     vdW  Elec       q    Type
REMARK                         _______ _______ _______ _____ _____    ______ ____
ATOM      1  C   UNL     1      60.248  65.873  73.222  0.00  0.00    +0.000 C 
ATOM      2  C   UNL     1      60.000  65.363  72.623  0.00  0.00    +0.000 C 
ATOM      3  C   UNL     1      60.621  65.068  73.079  0.00  0.00    +0.000 C 
ATOM      4  C   UNL     1      60.936  64.324  72.915  0.00  0.00    +0.000 C 
ATOM      5  C   UNL     1      60.630  63.874  72.295  0.00  0.00    +0.000 C 
ATOM      6  C   UNL     1      60.009  64.169  71.839  0.00  0.00    +0.000 C 
ATOM      7  C   UNL     1      59.703  63.718  71.218  0.00  0.00    +0.000 C 
ATOM      8  C   UNL     1      60.018  62.974  71.054  0.00  0.00    +0.000 C 
ATOM      9  C   UNL     1      60.639  62.680  71.511  0.00  0.00    +0.000 C 
ATOM     10  C   UNL     1      60.954  61.935  71.346  0.00  0.00    +0.000 C 
ATOM     11 CL   UNL     1      60.649  61.485  70.726  0.00  0.00    +0.000 Cl
ATOM     12  C   UNL     1      61.575  61.641  71.802  0.00  0.00    +0.000 C 
ATOM     13  O   UNL     1      61.890  60.896  71.638  0.00  0.00    +0.000 OA
ATOM     14  C   UNL     1      61.881  62.090  72.423  0.00  0.00    +0.000 C 
ATOM     15  C   UNL     1      61.566  62.835  72.586  0.00  0.00    +0.000 C 
ATOM     16  C   UNL     1      60.945  63.130  72.131  0.00  0.00    +0.000 C 
ATOM     17  C   UNL     1      61.251  63.579  72.751  0.00  0.00    +0.000 C 
ATOM     18  C   UNL     1      59.694  64.913  72.003  0.00  0.00    +0.000 C 
ATOM     19  C   UNL     1      59.085  65.345  71.651  0.00  0.00    +0.000 C 
ATOM     20  C   UNL     1      59.015  66.062  72.054  0.00  0.00    +0.000 C 
ATOM     21  C   UNL     1      59.580  66.073  72.655  0.00  0.00    +0.000 C 
ATOM     22  O   UNL     1      59.704  66.686  73.192  0.00  0.00    +0.000 OA
ENDROOT
TORSDOF 0
ENDMDL
MODEL 6
REMARK VINA RESULT:   -11.460      5.676      7.490
REMARK INTER + INTRA:         -11.460
REMARK INTER:                 -11.460
REMARK INTRA:                   0.000
REMARK UNBOUND:                 0.000
ROOT
REMARK  Name = clostebol
REMARK                            x       y       z     vdW  Elec       q    Type
REMARK                         _______ _______ _______ _____ _____    ______ ____
ATOM      1  C   UNL     1      66.184  66.824  71.764  0.00  0.00    +0.000 C 
ATOM      2  C   UNL     1      65.735  66.815  71.071  0.00  0.00    +0.000 C 
ATOM      3  C   UNL     1      65.382  66.422  71.705  0.00  0.00    +0.000 C 
ATOM      4  C   UNL     1      64.645  66.064  71.610  0.00  0.00    +0.000 C 
ATOM      5  C   UNL     1      64.260  66.100  70.882  0.00  0.00    +0.000 C 
ATOM      6  C   UNL     1      64.612  66.494  70.247  0.00  0.00    +0.000 C 
ATOM      7  C   UNL     1      64.227  66.529  69.519  0.00  0.00    +0.000 C 
ATOM      8  C   UNL     1      63.489  66.172  69.424  0.00  0.00    +0.000 C 
ATOM      9  C   UNL     1      63.138  65.779  70.058  0.00  0.00    +0.000 C 
ATOM     10  C   UNL     1      62.399  65.422  69.963  0.00  0.00    +0.000 C 
ATOM     11 CL   UNL     1      62.014  65.457  69.235  0.00  0.00    +0.000 Cl
ATOM     12  C   UNL     1      62.047  65.029  70.597  0.00  0.00    +0.000 C 
ATOM     13  O   UNL     1      61.310  64.672  70.502  0.00  0.00    +0.000 OA
ATOM     14  C   UNL     1      62.432  64.993  71.326  0.00  0.00    +0.000 C 
ATOM     15  C   UNL     1      63.170  65.350  71.420  0.00  0.00    +0.000 C 
ATOM     16  C   UNL     1      63.522  65.743  70.787  0.00  0.00    +0.000 C 
ATOM     17  C   UNL     1      63.907  65.707  71.516  0.00  0.00    +0.000 C 
ATOM     18  C   UNL     1      65.350  66.851  70.342  0.00  0.00    +0.000 C 
ATOM     19  C   UNL     1      65.829  67.274  69.821  0.00  0.00    +0.000 C 
ATOM     20  C   UNL     1      66.511  67.499  70.228  0.00  0.00    +0.000 C 
ATOM     21  C   UNL     1      66.453  67.216  71.001  0.00  0.00    +0.000 C 
ATOM     22  O   UNL     1      67.013  67.315  71.597  0.00  0.00    +0.000 OA
ENDROOT
TORSDOF 0
ENDMDL
MODEL 7
REMARK VINA RESULT:   -11.054      4.266      6.432
REMARK INTER + INTRA:         -11.054
REMARK INTER:                 -11.054
REMARK INTRA:                   0.000
REMARK UNBOUND:                 0.000
ROOT
REMARK  Name = clostebol
REMARK                            x       y       z     vdW  Elec       q    Type
REMARK                         _______ _______ _______ _____ _____    ______ ____
ATOM      1  C   UNL     1      60.641  62.649  69.054  0.00  0.00    +0.000 C 
ATOM      2  C   UNL     1      60.462  62.780  69.849  0.00  0.00    +0.000 C 
ATOM      3  C   UNL     1      60.402  63.454  69.376  0.00  0.00    +0.000 C 
ATOM      4  C   UNL     1      60.179  64.174  69.711  0.00  0.00    +0.000 C 
ATOM      5  C   UNL     1      60.016  64.221  70.518  0.00  0.00    +0.000 C 
ATOM      6  C   UNL     1      60.076  63.547  70.991  0.00  0.00    +0.000 C 
ATOM      7  C   UNL     1      59.913  63.595  71.799  0.00  0.00    +0.000 C 
ATOM      8  C   UNL     1      59.691  64.315  72.133  0.00  0.00    +0.000 C 
ATOM      9  C   UNL     1      59.631  64.988  71.660  0.00  0.00    +0.000 C 
ATOM     10  C   UNL     1      59.408  65.709  71.995  0.00  0.00    +0.000 C 
ATOM     11 CL   UNL     1      59.245  65.756  72.802  0.00  0.00    +0.000 Cl
ATOM     12  C   UNL     1      59.348  66.382  71.522  0.00  0.00    +0.000 C 
ATOM     13  O   UNL     1      59.126  67.102  71.856  0.00  0.00    +0.000 OA
ATOM     14  C   UNL     1      59.511  66.335  70.714  0.00  0.00    +0.000 C 
ATOM     15  C   UNL     1      59.734  65.615  70.380  0.00  0.00    +0.000 C 
ATOM     16  C   UNL     1      59.794  64.941  70.852  0.00  0.00    +0.000 C 
ATOM     17  C   UNL     1      59.956  64.895  70.045  0.00  0.00    +0.000 C 
ATOM     18  C   UNL     1      60.299  62.827  70.657  0.00  0.00    +0.000 C 
ATOM     19  C   UNL     1      60.404  62.076  70.982  0.00  0.00    +0.000 C 
ATOM     20  C   UNL     1      60.631  61.565  70.376  0.00  0.00    +0.000 C 
ATOM     21  C   UNL     1      60.667  62.000  69.675  0.00  0.00    +0.000 C 
ATOM     22  O   UNL     1      60.872  61.707  68.932  0.00  0.00    +0.000 OA
ENDROOT
TORSDOF 0
ENDMDL
MODEL 8
REMARK VINA RESULT:   -11.023      5.593      7.058
REMARK INTER + INTRA:         -11.023
REMARK INTER:                 -11.023
REMARK INTRA:                   0.000
REMARK UNBOUND:                 0.000
ROOT
REMARK  Name = clostebol
REMARK                            x       y       z     vdW  Elec       q    Type
REMARK                         _______ _______ _______ _____ _____    ______ ____
ATOM      1  C   UNL     1      62.385  63.632  70.361  0.00  0.00    +0.000 C 
ATOM      2  C   UNL     1      62.554  64.248  70.884  0.00  0.00    +0.000 C 
ATOM      3  C   UNL     1      63.031  64.240  70.210  0.00  0.00    +0.000 C 
ATOM      4  C   UNL     1      63.613  64.815  70.109  0.00  0.00    +0.000 C 
ATOM      5  C   UNL     1      63.718  65.400  70.681  0.00  0.00    +0.000 C 
ATOM      6  C   UNL     1      63.241  65.409  71.355  0.00  0.00    +0.000 C 
ATOM      7  C   UNL     1      63.347  65.994  71.927  0.00  0.00    +0.000 C 
ATOM      8  C   UNL     1      63.929  66.570  71.826  0.00  0.00    +0.000 C 
ATOM      9  C   UNL     1      64.405  66.560  71.153  0.00  0.00    +0.000 C 
ATOM     10  C   UNL     1      64.987  67.137  71.052  0.00  0.00    +0.000 C 
ATOM     11 CL   UNL     1      65.093  67.721  71.624  0.00  0.00    +0.000 Cl
ATOM     12  C   UNL     1      65.463  67.128  70.379  0.00  0.00    +0.000 C 
ATOM     13  O   UNL     1      66.045  67.704  70.278  0.00  0.00    +0.000 OA
ATOM     14  C   UNL     1      65.358  66.543  69.806  0.00  0.00    +0.000 C 
ATOM     15  C   UNL     1      64.776  65.968  69.907  0.00  0.00    +0.000 C 
ATOM     16  C   UNL     1      64.300  65.976  70.580  0.00  0.00    +0.000 C 
ATOM     17  C   UNL     1      64.195  65.391  70.008  0.00  0.00    +0.000 C 
ATOM     18  C   UNL     1      62.659  64.833  71.456  0.00  0.00    +0.000 C 
ATOM     19  C   UNL     1      62.111  64.702  72.058  0.00  0.00    +0.000 C 
ATOM     20  C   UNL     1      61.666  64.036  71.858  0.00  0.00    +0.000 C 
ATOM     21  C   UNL     1      61.940  63.756  71.131  0.00  0.00    +0.000 C 
ATOM     22  O   UNL     1      61.651  63.099  70.725  0.00  0.00    +0.000 OA
ENDROOT
TORSDOF 0
ENDMDL
MODEL 9
REMARK VINA RESULT:   -11.015      3.082      5.332
REMARK INTER + INTRA:         -11.015
REMARK INTER:                 -11.015
REMARK INTRA:                   0.000
REMARK UNBOUND:                 0.000
ROOT
REMARK  Name = clostebol
REMARK                            x       y       z     vdW  Elec       q    Type
REMARK                         _______ _______ _______ _____ _____    ______ ____
ATOM      1  C   UNL     1      61.264  63.350  67.457  0.00  0.00    +0.000 C 
ATOM      2  C   UNL     1      60.982  62.920  68.103  0.00  0.00    +0.000 C 
ATOM      3  C   UNL     1      61.474  63.550  68.308  0.00  0.00    +0.000 C 
ATOM      4  C   UNL     1      61.643  63.701  69.101  0.00  0.00    +0.000 C 
ATOM      5  C   UNL     1      61.319  63.221  69.690  0.00  0.00    +0.000 C 
ATOM      6  C   UNL     1      60.827  62.592  69.485  0.00  0.00    +0.000 C 
ATOM      7  C   UNL     1      60.503  62.113  70.074  0.00  0.00    +0.000 C 
ATOM      8  C   UNL     1      60.672  62.264  70.867  0.00  0.00    +0.000 C 
ATOM      9  C   UNL     1      61.164  62.893  71.071  0.00  0.00    +0.000 C 
ATOM     10  C   UNL     1      61.333  63.043  71.866  0.00  0.00    +0.000 C 
ATOM     11 CL   UNL     1      61.009  62.565  72.454  0.00  0.00    +0.000 Cl
ATOM     12  C   UNL     1      61.825  63.673  72.070  0.00  0.00    +0.000 C 
ATOM     13  O   UNL     1      61.994  63.823  72.863  0.00  0.00    +0.000 OA
ATOM     14  C   UNL     1      62.149  64.152  71.481  0.00  0.00    +0.000 C 
ATOM     15  C   UNL     1      61.980  64.001  70.688  0.00  0.00    +0.000 C 
ATOM     16  C   UNL     1      61.488  63.372  70.483  0.00  0.00    +0.000 C 
ATOM     17  C   UNL     1      61.812  63.851  69.894  0.00  0.00    +0.000 C 
ATOM     18  C   UNL     1      60.658  62.441  68.692  0.00  0.00    +0.000 C 
ATOM     19  C   UNL     1      60.195  61.865  68.325  0.00  0.00    +0.000 C 
ATOM     20  C   UNL     1      60.233  61.988  67.510  0.00  0.00    +0.000 C 
ATOM     21  C   UNL     1      60.719  62.640  67.372  0.00  0.00    +0.000 C 
ATOM     22  O   UNL     1      60.909  62.956  66.635  0.00  0.00    +0.000 OA
ENDROOT
TORSDOF 0
ENDMDL
