MODEL 1
REMARK VINA RESULT:   -12.734      0.000      0.000
REMARK INTER + INTRA:         -12.734
REMARK INTER:                 -12.734
REMARK INTRA:                   0.000
REMARK UNBOUND:                 0.000
ROOT
REMARK  Name = clotrimazole
REMARK                            x       y       z     vdW  Elec       q    Type
REMARK                         _______ _______ _______ _____ _____    ______ ____
ATOM      1 CL   UNL     1      62.437  64.718  71.596  0.00  0.00    +0.000 Cl
ATOM      2  C   UNL     1      61.980  64.040  71.701  0.00  0.00    +0.000 A 
ATOM      3  C   UNL     1      61.595  63.482  71.230  0.00  0.00    +0.000 A 
ATOM      4  C   UNL     1      61.180  62.861  71.583  0.00  0.00    +0.000 A 
ATOM      5  C   UNL     1      61.150  62.800  72.405  0.00  0.00    +0.000 A 
ATOM      6  C   UNL     1      61.535  63.359  72.875  0.00  0.00    +0.000 A 
ATOM      7  C   UNL     1      61.950  63.978  72.523  0.00  0.00    +0.000 A 
ATOM      8  C   UNL     1      61.625  63.544  70.408  0.00  0.00    +0.000 C 
ATOM      9  N   UNL     1      61.655  63.605  69.586  0.00  0.00    +0.000 N 
ATOM     10  C   UNL     1      61.299  63.090  69.048  0.00  0.00    +0.000 A 
ATOM     11  C   UNL     1      61.471  63.359  68.287  0.00  0.00    +0.000 A 
ATOM     12  N   UNL     1      61.932  64.040  68.355  0.00  0.00    +0.000 NA
ATOM     13  C   UNL     1      62.046  64.191  69.157  0.00  0.00    +0.000 A 
ATOM     14  C   UNL     1      62.087  64.224  70.476  0.00  0.00    +0.000 A 
ATOM     15  C   UNL     1      62.291  64.510  71.222  0.00  0.00    +0.000 A 
ATOM     16  C   UNL     1      62.753  65.191  71.290  0.00  0.00    +0.000 A 
ATOM     17  C   UNL     1      63.010  65.585  70.612  0.00  0.00    +0.000 A 
ATOM     18  C   UNL     1      62.805  65.297  69.866  0.00  0.00    +0.000 A 
ATOM     19  C   UNL     1      62.343  64.617  69.798  0.00  0.00    +0.000 A 
ATOM     20  C   UNL     1      61.164  62.863  70.340  0.00  0.00    +0.000 A 
ATOM     21  C   UNL     1      60.959  62.576  69.595  0.00  0.00    +0.000 A 
ATOM     22  C   UNL     1      60.497  61.895  69.527  0.00  0.00    +0.000 A 
ATOM     23  C   UNL     1      60.240  61.502  70.204  0.00  0.00    +0.000 A 
ATOM     24  C   UNL     1      60.445  61.789  70.951  0.00  0.00    +0.000 A 
ATOM     25  C   UNL     1      60.906  62.469  71.019  0.00  0.00    +0.000 A 
ENDROOT
TORSDOF 0
ENDMDL
MODEL 2
REMARK VINA RESULT:   -12.720      1.719      2.822
REMARK INTER + INTRA:         -12.720
REMARK INTER:                 -12.720
REMARK INTRA:                   0.000
REMARK UNBOUND:                 0.000
ROOT
REMARK  Name = clotrimazole
REMARK                            x       y       z     vdW  Elec       q    Type
REMARK                         _______ _______ _______ _____ _____    ______ ____
ATOM      1 CL   UNL     1      60.806  61.891  69.677  0.00  0.00    +0.000 Cl
ATOM      2  C   UNL     1      60.914  62.119  70.463  0.00  0.00    +0.000 A 
ATOM      3  C   UNL     1      60.811  62.795  70.924  0.00  0.00    +0.000 A 
ATOM      4  C   UNL     1      60.998  62.777  71.728  0.00  0.00    +0.000 A 
ATOM      5  C   UNL     1      61.288  62.085  72.069  0.00  0.00    +0.000 A 
ATOM      6  C   UNL     1      61.391  61.409  71.607  0.00  0.00    +0.000 A 
ATOM      7  C   UNL     1      61.204  61.426  70.804  0.00  0.00    +0.000 A 
ATOM      8  C   UNL     1      60.521  63.487  70.582  0.00  0.00    +0.000 C 
ATOM      9  N   UNL     1      60.231  64.180  70.241  0.00  0.00    +0.000 N 
ATOM     10  C   UNL     1      60.100  64.895  70.632  0.00  0.00    +0.000 A 
ATOM     11  C   UNL     1      59.809  65.436  70.081  0.00  0.00    +0.000 A 
ATOM     12  N   UNL     1      59.760  65.056  69.351  0.00  0.00    +0.000 NA
ATOM     13  C   UNL     1      60.021  64.280  69.450  0.00  0.00    +0.000 A 
ATOM     14  C   UNL     1      60.472  63.107  69.852  0.00  0.00    +0.000 A 
ATOM     15  C   UNL     1      60.700  62.317  69.783  0.00  0.00    +0.000 A 
ATOM     16  C   UNL     1      60.651  61.936  69.053  0.00  0.00    +0.000 A 
ATOM     17  C   UNL     1      60.375  62.346  68.391  0.00  0.00    +0.000 A 
ATOM     18  C   UNL     1      60.149  63.136  68.461  0.00  0.00    +0.000 A 
ATOM     19  C   UNL     1      60.197  63.516  69.192  0.00  0.00    +0.000 A 
ATOM     20  C   UNL     1      60.569  63.868  71.313  0.00  0.00    +0.000 A 
ATOM     21  C   UNL     1      60.343  64.658  71.383  0.00  0.00    +0.000 A 
ATOM     22  C   UNL     1      60.391  65.038  72.113  0.00  0.00    +0.000 A 
ATOM     23  C   UNL     1      60.667  64.628  72.774  0.00  0.00    +0.000 A 
ATOM     24  C   UNL     1      60.894  63.838  72.705  0.00  0.00    +0.000 A 
ATOM     25  C   UNL     1      60.845  63.458  71.974  0.00  0.00    +0.000 A 
ENDROOT
TORSDOF 0
ENDMDL
MODEL 3
REMARK VINA RESULT:   -12.488      1.703      2.909
REMARK INTER + INTRA:         -12.488
REMARK INTER:                 -12.488
REMARK INTRA:                   0.000
REMARK UNBOUND:                 0.000
ROOT
REMARK  Name = clotrimazole
REMARK                            x       y       z     vdW  Elec       q    Type
REMARK                         _______ _______ _______ _____ _____    ______ ____
ATOM      1 CL   UNL     1      60.092  64.023  69.368  0.00  0.00    +0.000 Cl
ATOM      2  C   UNL     1      60.392  63.372  69.777  0.00  0.00    +0.000 A 
ATOM      3  C   UNL     1      60.683  63.203  70.530  0.00  0.00    +0.000 A 
ATOM      4  C   UNL     1      60.936  62.438  70.712  0.00  0.00    +0.000 A 
ATOM      5  C   UNL     1      60.899  61.844  70.141  0.00  0.00    +0.000 A 
ATOM      6  C   UNL     1      60.607  62.015  69.388  0.00  0.00    +0.000 A 
ATOM      7  C   UNL     1      60.354  62.778  69.205  0.00  0.00    +0.000 A 
ATOM      8  C   UNL     1      60.720  63.797  71.101  0.00  0.00    +0.000 C 
ATOM      9  N   UNL     1      60.758  64.391  71.672  0.00  0.00    +0.000 N 
ATOM     10  C   UNL     1      61.034  64.304  72.445  0.00  0.00    +0.000 A 
ATOM     11  C   UNL     1      60.973  65.035  72.821  0.00  0.00    +0.000 A 
ATOM     12  N   UNL     1      60.658  65.574  72.281  0.00  0.00    +0.000 NA
ATOM     13  C   UNL     1      60.526  65.176  71.571  0.00  0.00    +0.000 A 
ATOM     14  C   UNL     1      60.406  64.336  70.561  0.00  0.00    +0.000 A 
ATOM     15  C   UNL     1      60.216  64.090  69.796  0.00  0.00    +0.000 A 
ATOM     16  C   UNL     1      59.902  64.629  69.257  0.00  0.00    +0.000 A 
ATOM     17  C   UNL     1      59.777  65.414  69.481  0.00  0.00    +0.000 A 
ATOM     18  C   UNL     1      59.967  65.658  70.246  0.00  0.00    +0.000 A 
ATOM     19  C   UNL     1      60.281  65.119  70.786  0.00  0.00    +0.000 A 
ATOM     20  C   UNL     1      61.034  63.258  71.641  0.00  0.00    +0.000 A 
ATOM     21  C   UNL     1      61.224  63.503  72.405  0.00  0.00    +0.000 A 
ATOM     22  C   UNL     1      61.538  62.964  72.945  0.00  0.00    +0.000 A 
ATOM     23  C   UNL     1      61.663  62.180  72.721  0.00  0.00    +0.000 A 
ATOM     24  C   UNL     1      61.473  61.935  71.956  0.00  0.00    +0.000 A 
ATOM     25  C   UNL     1      61.159  62.473  71.416  0.00  0.00    +0.000 A 
ENDROOT
TORSDOF 0
ENDMDL
MODEL 4
REMARK VINA RESULT:   -12.148      1.805      1.935
REMARK INTER + INTRA:         -12.148
REMARK INTER:                 -12.148
REMARK INTRA:                   0.000
REMARK UNBOUND:                 0.000
ROOT
REMARK  Name = clotrimazole
REMARK                            x       y       z     vdW  Elec       q    Type
REMARK                         _______ _______ _______ _____ _____    ______ ____
ATOM      1 CL   UNL     1      59.870  65.634  70.960  0.00  0.00    +0.000 Cl
ATOM      2  C   UNL     1      60.052  64.920  71.332  0.00  0.00    +0.000 A 
ATOM      3  C   UNL     1      60.214  64.141  71.115  0.00  0.00    +0.000 A 
ATOM      4  C   UNL     1      60.376  63.577  71.696  0.00  0.00    +0.000 A 
ATOM      5  C   UNL     1      60.376  63.793  72.492  0.00  0.00    +0.000 A 
ATOM      6  C   UNL     1      60.214  64.573  72.708  0.00  0.00    +0.000 A 
ATOM      7  C   UNL     1      60.052  65.136  72.128  0.00  0.00    +0.000 A 
ATOM      8  C   UNL     1      60.214  63.925  70.319  0.00  0.00    +0.000 C 
ATOM      9  N   UNL     1      60.213  63.709  69.523  0.00  0.00    +0.000 N 
ATOM     10  C   UNL     1      60.365  62.955  69.225  0.00  0.00    +0.000 A 
ATOM     11  C   UNL     1      60.307  62.989  68.403  0.00  0.00    +0.000 A 
ATOM     12  N   UNL     1      60.120  63.765  68.193  0.00  0.00    +0.000 NA
ATOM     13  C   UNL     1      60.062  64.210  68.885  0.00  0.00    +0.000 A 
ATOM     14  C   UNL     1      60.027  64.701  70.109  0.00  0.00    +0.000 A 
ATOM     15  C   UNL     1      59.934  65.275  70.694  0.00  0.00    +0.000 A 
ATOM     16  C   UNL     1      59.747  66.051  70.484  0.00  0.00    +0.000 A 
ATOM     17  C   UNL     1      59.654  66.252  69.688  0.00  0.00    +0.000 A 
ATOM     18  C   UNL     1      59.747  65.677  69.104  0.00  0.00    +0.000 A 
ATOM     19  C   UNL     1      59.934  64.901  69.315  0.00  0.00    +0.000 A 
ATOM     20  C   UNL     1      60.400  63.150  70.529  0.00  0.00    +0.000 A 
ATOM     21  C   UNL     1      60.494  62.575  69.945  0.00  0.00    +0.000 A 
ATOM     22  C   UNL     1      60.680  61.799  70.155  0.00  0.00    +0.000 A 
ATOM     23  C   UNL     1      60.774  61.598  70.950  0.00  0.00    +0.000 A 
ATOM     24  C   UNL     1      60.680  62.173  71.535  0.00  0.00    +0.000 A 
ATOM     25  C   UNL     1      60.494  62.948  71.324  0.00  0.00    +0.000 A 
ENDROOT
TORSDOF 0
ENDMDL
MODEL 5
REMARK VINA RESULT:   -12.043      2.084      4.190
REMARK INTER + INTRA:         -12.043
REMARK INTER:                 -12.043
REMARK INTRA:                   0.000
REMARK UNBOUND:                 0.000
ROOT
REMARK  Name = clotrimazole
REMARK                            x       y       z     vdW  Elec       q    Type
REMARK                         _______ _______ _______ _____ _____    ______ ____
ATOM      1 CL   UNL     1      62.088  65.747  72.443  0.00  0.00    +0.000 Cl
ATOM      2  C   UNL     1      62.666  66.331  72.371  0.00  0.00    +0.000 A 
ATOM      3  C   UNL     1      63.363  66.454  71.948  0.00  0.00    +0.000 A 
ATOM      4  C   UNL     1      63.790  67.153  72.051  0.00  0.00    +0.000 A 
ATOM      5  C   UNL     1      63.518  67.729  72.576  0.00  0.00    +0.000 A 
ATOM      6  C   UNL     1      62.821  67.605  72.998  0.00  0.00    +0.000 A 
ATOM      7  C   UNL     1      62.395  66.907  72.896  0.00  0.00    +0.000 A 
ATOM      8  C   UNL     1      63.635  65.878  71.423  0.00  0.00    +0.000 C 
ATOM      9  N   UNL     1      63.906  65.303  70.898  0.00  0.00    +0.000 N 
ATOM     10  C   UNL     1      64.591  65.349  70.440  0.00  0.00    +0.000 A 
ATOM     11  C   UNL     1      64.649  64.655  69.998  0.00  0.00    +0.000 A 
ATOM     12  N   UNL     1      64.000  64.180  70.183  0.00  0.00    +0.000 NA
ATOM     13  C   UNL     1      63.541  64.580  70.739  0.00  0.00    +0.000 A 
ATOM     14  C   UNL     1      62.986  65.403  71.608  0.00  0.00    +0.000 A 
ATOM     15  C   UNL     1      62.427  65.665  72.156  0.00  0.00    +0.000 A 
ATOM     16  C   UNL     1      61.778  65.190  72.341  0.00  0.00    +0.000 A 
ATOM     17  C   UNL     1      61.688  64.454  71.978  0.00  0.00    +0.000 A 
ATOM     18  C   UNL     1      62.248  64.193  71.431  0.00  0.00    +0.000 A 
ATOM     19  C   UNL     1      62.897  64.668  71.246  0.00  0.00    +0.000 A 
ATOM     20  C   UNL     1      64.284  66.353  71.238  0.00  0.00    +0.000 A 
ATOM     21  C   UNL     1      64.844  66.092  70.691  0.00  0.00    +0.000 A 
ATOM     22  C   UNL     1      65.492  66.567  70.506  0.00  0.00    +0.000 A 
ATOM     23  C   UNL     1      65.582  67.302  70.868  0.00  0.00    +0.000 A 
ATOM     24  C   UNL     1      65.022  67.564  71.416  0.00  0.00    +0.000 A 
ATOM     25  C   UNL     1      64.373  67.089  71.601  0.00  0.00    +0.000 A 
ENDROOT
TORSDOF 0
ENDMDL
MODEL 6
REMARK VINA RESULT:   -11.922      2.329      3.637
REMARK INTER + INTRA:         -11.922
REMARK INTER:                 -11.922
REMARK INTRA:                   0.000
REMARK UNBOUND:                 0.000
ROOT
REMARK  Name = clotrimazole
REMARK                            x       y       z     vdW  Elec       q    Type
REMARK                         _______ _______ _______ _____ _____    ______ ____
ATOM      1 CL   UNL     1      64.623  67.576  71.703  0.00  0.00    +0.000 Cl
ATOM      2  C   UNL     1      63.927  67.272  72.025  0.00  0.00    +0.000 A 
ATOM      3  C   UNL     1      63.469  66.589  71.959  0.00  0.00    +0.000 A 
ATOM      4  C   UNL     1      62.780  66.511  72.406  0.00  0.00    +0.000 A 
ATOM      5  C   UNL     1      62.550  67.114  72.920  0.00  0.00    +0.000 A 
ATOM      6  C   UNL     1      63.009  67.797  72.985  0.00  0.00    +0.000 A 
ATOM      7  C   UNL     1      63.697  67.876  72.538  0.00  0.00    +0.000 A 
ATOM      8  C   UNL     1      63.699  65.985  71.446  0.00  0.00    +0.000 C 
ATOM      9  N   UNL     1      63.929  65.382  70.933  0.00  0.00    +0.000 N 
ATOM     10  C   UNL     1      63.528  64.671  70.809  0.00  0.00    +0.000 A 
ATOM     11  C   UNL     1      63.951  64.233  70.254  0.00  0.00    +0.000 A 
ATOM     12  N   UNL     1      64.614  64.673  70.033  0.00  0.00    +0.000 NA
ATOM     13  C   UNL     1      64.600  65.382  70.453  0.00  0.00    +0.000 A 
ATOM     14  C   UNL     1      64.362  66.425  71.226  0.00  0.00    +0.000 A 
ATOM     15  C   UNL     1      64.493  67.168  71.560  0.00  0.00    +0.000 A 
ATOM     16  C   UNL     1      65.156  67.607  71.340  0.00  0.00    +0.000 A 
ATOM     17  C   UNL     1      65.687  67.304  70.785  0.00  0.00    +0.000 A 
ATOM     18  C   UNL     1      65.554  66.561  70.451  0.00  0.00    +0.000 A 
ATOM     19  C   UNL     1      64.891  66.122  70.672  0.00  0.00    +0.000 A 
ATOM     20  C   UNL     1      63.036  65.546  71.666  0.00  0.00    +0.000 A 
ATOM     21  C   UNL     1      62.904  64.804  71.332  0.00  0.00    +0.000 A 
ATOM     22  C   UNL     1      62.241  64.364  71.552  0.00  0.00    +0.000 A 
ATOM     23  C   UNL     1      61.711  64.667  72.106  0.00  0.00    +0.000 A 
ATOM     24  C   UNL     1      61.843  65.410  72.441  0.00  0.00    +0.000 A 
ATOM     25  C   UNL     1      62.505  65.849  72.221  0.00  0.00    +0.000 A 
ENDROOT
TORSDOF 0
ENDMDL
MODEL 7
REMARK VINA RESULT:   -11.624      1.636      2.807
REMARK INTER + INTRA:         -11.624
REMARK INTER:                 -11.624
REMARK INTRA:                   0.000
REMARK UNBOUND:                 0.000
ROOT
REMARK  Name = clotrimazole
REMARK                            x       y       z     vdW  Elec       q    Type
REMARK                         _______ _______ _______ _____ _____    ______ ____
ATOM      1 CL   UNL     1      63.243  65.917  71.535  0.00  0.00    +0.000 Cl
ATOM      2  C   UNL     1      63.014  65.183  71.235  0.00  0.00    +0.000 A 
ATOM      3  C   UNL     1      62.384  64.657  71.318  0.00  0.00    +0.000 A 
ATOM      4  C   UNL     1      62.378  63.951  70.891  0.00  0.00    +0.000 A 
ATOM      5  C   UNL     1      63.001  63.772  70.381  0.00  0.00    +0.000 A 
ATOM      6  C   UNL     1      63.630  64.299  70.298  0.00  0.00    +0.000 A 
ATOM      7  C   UNL     1      63.637  65.004  70.725  0.00  0.00    +0.000 A 
ATOM      8  C   UNL     1      61.761  64.836  71.828  0.00  0.00    +0.000 C 
ATOM      9  N   UNL     1      61.138  65.016  72.338  0.00  0.00    +0.000 N 
ATOM     10  C   UNL     1      60.474  64.545  72.478  0.00  0.00    +0.000 A 
ATOM     11  C   UNL     1      59.995  64.935  73.024  0.00  0.00    +0.000 A 
ATOM     12  N   UNL     1      60.362  65.646  73.222  0.00  0.00    +0.000 NA
ATOM     13  C   UNL     1      61.068  65.696  72.799  0.00  0.00    +0.000 A 
ATOM     14  C   UNL     1      62.128  65.548  72.027  0.00  0.00    +0.000 A 
ATOM     15  C   UNL     1      62.851  65.748  71.684  0.00  0.00    +0.000 A 
ATOM     16  C   UNL     1      63.218  66.460  71.883  0.00  0.00    +0.000 A 
ATOM     17  C   UNL     1      62.862  66.971  72.424  0.00  0.00    +0.000 A 
ATOM     18  C   UNL     1      62.139  66.770  72.766  0.00  0.00    +0.000 A 
ATOM     19  C   UNL     1      61.772  66.058  72.568  0.00  0.00    +0.000 A 
ATOM     20  C   UNL     1      61.394  64.125  71.630  0.00  0.00    +0.000 A 
ATOM     21  C   UNL     1      60.670  63.924  71.972  0.00  0.00    +0.000 A 
ATOM     22  C   UNL     1      60.303  63.212  71.773  0.00  0.00    +0.000 A 
ATOM     23  C   UNL     1      60.659  62.702  71.233  0.00  0.00    +0.000 A 
ATOM     24  C   UNL     1      61.383  62.902  70.890  0.00  0.00    +0.000 A 
ATOM     25  C   UNL     1      61.750  63.613  71.088  0.00  0.00    +0.000 A 
ENDROOT
TORSDOF 0
ENDMDL
MODEL 8
REMARK VINA RESULT:   -11.483      2.298      3.830
REMARK INTER + INTRA:         -11.483
REMARK INTER:                 -11.483
REMARK INTRA:                   0.000
REMARK UNBOUND:                 0.000
ROOT
REMARK  Name = clotrimazole
REMARK                            x       y       z     vdW  Elec       q    Type
REMARK                         _______ _______ _______ _____ _____    ______ ____
ATOM      1 CL   UNL     1      61.725  66.285  72.664  0.00  0.00    +0.000 Cl
ATOM      2  C   UNL     1      62.005  65.686  72.170  0.00  0.00    +0.000 A 
ATOM      3  C   UNL     1      62.670  65.535  71.706  0.00  0.00    +0.000 A 
ATOM      4  C   UNL     1      62.725  64.829  71.281  0.00  0.00    +0.000 A 
ATOM      5  C   UNL     1      62.114  64.276  71.320  0.00  0.00    +0.000 A 
ATOM      6  C   UNL     1      61.449  64.428  71.784  0.00  0.00    +0.000 A 
ATOM      7  C   UNL     1      61.394  65.132  72.209  0.00  0.00    +0.000 A 
ATOM      8  C   UNL     1      63.280  66.089  71.668  0.00  0.00    +0.000 C 
ATOM      9  N   UNL     1      63.891  66.642  71.629  0.00  0.00    +0.000 N 
ATOM     10  C   UNL     1      64.586  66.568  71.190  0.00  0.00    +0.000 A 
ATOM     11  C   UNL     1      65.038  67.246  71.312  0.00  0.00    +0.000 A 
ATOM     12  N   UNL     1      64.622  67.741  71.825  0.00  0.00    +0.000 NA
ATOM     13  C   UNL     1      63.914  67.367  72.021  0.00  0.00    +0.000 A 
ATOM     14  C   UNL     1      62.865  66.583  72.181  0.00  0.00    +0.000 A 
ATOM     15  C   UNL     1      62.128  66.350  72.471  0.00  0.00    +0.000 A 
ATOM     16  C   UNL     1      61.713  66.844  72.984  0.00  0.00    +0.000 A 
ATOM     17  C   UNL     1      62.034  67.572  73.208  0.00  0.00    +0.000 A 
ATOM     18  C   UNL     1      62.770  67.803  72.917  0.00  0.00    +0.000 A 
ATOM     19  C   UNL     1      63.185  67.309  72.404  0.00  0.00    +0.000 A 
ATOM     20  C   UNL     1      63.696  65.594  71.154  0.00  0.00    +0.000 A 
ATOM     21  C   UNL     1      64.432  65.826  70.864  0.00  0.00    +0.000 A 
ATOM     22  C   UNL     1      64.848  65.332  70.350  0.00  0.00    +0.000 A 
ATOM     23  C   UNL     1      64.527  64.606  70.127  0.00  0.00    +0.000 A 
ATOM     24  C   UNL     1      63.791  64.373  70.417  0.00  0.00    +0.000 A 
ATOM     25  C   UNL     1      63.375  64.867  70.931  0.00  0.00    +0.000 A 
ENDROOT
TORSDOF 0
ENDMDL
MODEL 9
REMARK VINA RESULT:   -11.231     26.828     28.449
REMARK INTER + INTRA:         -11.231
REMARK INTER:                 -11.231
REMARK INTRA:                   0.000
REMARK UNBOUND:                 0.000
ROOT
REMARK  Name = clotrimazole
REMARK                            x       y       z     vdW  Elec       q    Type
REMARK                         _______ _______ _______ _____ _____    ______ ____
ATOM      1 CL   UNL     1      69.869  79.330  50.348  0.00  0.00    +0.000 Cl
ATOM      2  C   UNL     1      70.451  79.205  49.776  0.00  0.00    +0.000 A 
ATOM      3  C   UNL     1      71.106  79.605  49.472  0.00  0.00    +0.000 A 
ATOM      4  C   UNL     1      71.558  79.260  48.874  0.00  0.00    +0.000 A 
ATOM      5  C   UNL     1      71.355  78.516  48.580  0.00  0.00    +0.000 A 
ATOM      6  C   UNL     1      70.700  78.117  48.885  0.00  0.00    +0.000 A 
ATOM      7  C   UNL     1      70.249  78.462  49.483  0.00  0.00    +0.000 A 
ATOM      8  C   UNL     1      71.309  80.349  49.766  0.00  0.00    +0.000 C 
ATOM      9  N   UNL     1      71.512  81.093  50.060  0.00  0.00    +0.000 N 
ATOM     10  C   UNL     1      72.148  81.555  49.810  0.00  0.00    +0.000 A 
ATOM     11  C   UNL     1      72.143  82.252  50.250  0.00  0.00    +0.000 A 
ATOM     12  N   UNL     1      71.505  82.221  50.772  0.00  0.00    +0.000 NA
ATOM     13  C   UNL     1      71.115  81.504  50.654  0.00  0.00    +0.000 A 
ATOM     14  C   UNL     1      70.670  80.317  50.287  0.00  0.00    +0.000 A 
ATOM     15  C   UNL     1      70.175  79.657  50.293  0.00  0.00    +0.000 A 
ATOM     16  C   UNL     1      69.537  79.625  50.814  0.00  0.00    +0.000 A 
ATOM     17  C   UNL     1      69.393  80.254  51.330  0.00  0.00    +0.000 A 
ATOM     18  C   UNL     1      69.888  80.914  51.323  0.00  0.00    +0.000 A 
ATOM     19  C   UNL     1      70.527  80.945  50.802  0.00  0.00    +0.000 A 
ATOM     20  C   UNL     1      71.947  80.380  49.245  0.00  0.00    +0.000 A 
ATOM     21  C   UNL     1      72.443  81.040  49.238  0.00  0.00    +0.000 A 
ATOM     22  C   UNL     1      73.081  81.072  48.717  0.00  0.00    +0.000 A 
ATOM     23  C   UNL     1      73.225  80.444  48.202  0.00  0.00    +0.000 A 
ATOM     24  C   UNL     1      72.730  79.783  48.208  0.00  0.00    +0.000 A 
ATOM     25  C   UNL     1      72.091  79.752  48.729  0.00  0.00    +0.000 A 
ENDROOT
TORSDOF 0
ENDMDL
