MODEL 1
REMARK VINA RESULT:    -7.393      0.000      0.000
REMARK INTER + INTRA:          -7.393
REMARK INTER:                  -7.393
REMARK INTRA:                   0.000
REMARK UNBOUND:                 0.000
ROOT
REMARK  Name = cloxiquine
REMARK                            x       y       z     vdW  Elec       q    Type
REMARK                         _______ _______ _______ _____ _____    ______ ____
ATOM      1  O   UNL     1      61.979  62.981  66.840  0.00  0.00    +0.000 OA
ATOM      2  C   UNL     1      61.670  62.523  66.227  0.00  0.00    +0.000 A 
ATOM      3  C   UNL     1      60.867  62.333  66.219  0.00  0.00    +0.000 A 
ATOM      4  N   UNL     1      60.373  62.601  66.824  0.00  0.00    +0.000 NA
ATOM      5  C   UNL     1      59.571  62.411  66.816  0.00  0.00    +0.000 A 
ATOM      6  C   UNL     1      59.262  61.952  66.202  0.00  0.00    +0.000 A 
ATOM      7  C   UNL     1      59.755  61.685  65.598  0.00  0.00    +0.000 A 
ATOM      8  C   UNL     1      60.558  61.875  65.606  0.00  0.00    +0.000 A 
ATOM      9  C   UNL     1      61.051  61.608  65.001  0.00  0.00    +0.000 A 
ATOM     10 CL   UNL     1      60.742  61.151  64.389  0.00  0.00    +0.000 Cl
ATOM     11  C   UNL     1      61.853  61.798  65.009  0.00  0.00    +0.000 A 
ATOM     12  C   UNL     1      62.163  62.256  65.623  0.00  0.00    +0.000 A 
ENDROOT
TORSDOF 0
ENDMDL
MODEL 2
REMARK VINA RESULT:    -7.102      0.963      1.933
REMARK INTER + INTRA:          -7.102
REMARK INTER:                  -7.102
REMARK INTRA:                   0.000
REMARK UNBOUND:                 0.000
ROOT
REMARK  Name = cloxiquine
REMARK                            x       y       z     vdW  Elec       q    Type
REMARK                         _______ _______ _______ _____ _____    ______ ____
ATOM      1  O   UNL     1      61.913  63.112  67.254  0.00  0.00    +0.000 OA
ATOM      2  C   UNL     1      61.286  62.753  66.856  0.00  0.00    +0.000 A 
ATOM      3  C   UNL     1      61.418  62.375  66.135  0.00  0.00    +0.000 A 
ATOM      4  N   UNL     1      62.177  62.355  65.812  0.00  0.00    +0.000 NA
ATOM      5  C   UNL     1      62.309  61.977  65.091  0.00  0.00    +0.000 A 
ATOM      6  C   UNL     1      61.681  61.617  64.692  0.00  0.00    +0.000 A 
ATOM      7  C   UNL     1      60.923  61.637  65.015  0.00  0.00    +0.000 A 
ATOM      8  C   UNL     1      60.790  62.015  65.736  0.00  0.00    +0.000 A 
ATOM      9  C   UNL     1      60.032  62.035  66.059  0.00  0.00    +0.000 A 
ATOM     10 CL   UNL     1      59.405  61.676  65.661  0.00  0.00    +0.000 Cl
ATOM     11  C   UNL     1      59.900  62.413  66.780  0.00  0.00    +0.000 A 
ATOM     12  C   UNL     1      60.528  62.773  67.178  0.00  0.00    +0.000 A 
ENDROOT
TORSDOF 0
ENDMDL
MODEL 3
REMARK VINA RESULT:    -6.464      5.406      6.161
REMARK INTER + INTRA:          -6.464
REMARK INTER:                  -6.464
REMARK INTRA:                   0.000
REMARK UNBOUND:                 0.000
ROOT
REMARK  Name = cloxiquine
REMARK                            x       y       z     vdW  Elec       q    Type
REMARK                         _______ _______ _______ _____ _____    ______ ____
ATOM      1  O   UNL     1      59.986  64.409  70.888  0.00  0.00    +0.000 OA
ATOM      2  C   UNL     1      60.413  63.948  71.423  0.00  0.00    +0.000 A 
ATOM      3  C   UNL     1      60.612  63.171  71.230  0.00  0.00    +0.000 A 
ATOM      4  N   UNL     1      60.385  62.855  70.502  0.00  0.00    +0.000 NA
ATOM      5  C   UNL     1      60.584  62.078  70.309  0.00  0.00    +0.000 A 
ATOM      6  C   UNL     1      61.012  61.617  70.845  0.00  0.00    +0.000 A 
ATOM      7  C   UNL     1      61.239  61.933  71.572  0.00  0.00    +0.000 A 
ATOM      8  C   UNL     1      61.040  62.710  71.765  0.00  0.00    +0.000 A 
ATOM      9  C   UNL     1      61.267  63.025  72.492  0.00  0.00    +0.000 A 
ATOM     10 CL   UNL     1      61.693  62.564  73.026  0.00  0.00    +0.000 Cl
ATOM     11  C   UNL     1      61.067  63.802  72.685  0.00  0.00    +0.000 A 
ATOM     12  C   UNL     1      60.640  64.263  72.149  0.00  0.00    +0.000 A 
ENDROOT
TORSDOF 0
ENDMDL
MODEL 4
REMARK VINA RESULT:    -6.343      5.223      5.896
REMARK INTER + INTRA:          -6.343
REMARK INTER:                  -6.343
REMARK INTRA:                   0.000
REMARK UNBOUND:                 0.000
ROOT
REMARK  Name = cloxiquine
REMARK                            x       y       z     vdW  Elec       q    Type
REMARK                         _______ _______ _______ _____ _____    ______ ____
ATOM      1  O   UNL     1      60.126  63.730  70.284  0.00  0.00    +0.000 OA
ATOM      2  C   UNL     1      60.498  63.078  70.627  0.00  0.00    +0.000 A 
ATOM      3  C   UNL     1      60.873  63.155  71.357  0.00  0.00    +0.000 A 
ATOM      4  N   UNL     1      60.877  63.883  71.746  0.00  0.00    +0.000 NA
ATOM      5  C   UNL     1      61.251  63.959  72.476  0.00  0.00    +0.000 A 
ATOM      6  C   UNL     1      61.624  63.306  72.819  0.00  0.00    +0.000 A 
ATOM      7  C   UNL     1      61.621  62.579  72.431  0.00  0.00    +0.000 A 
ATOM      8  C   UNL     1      61.246  62.502  71.700  0.00  0.00    +0.000 A 
ATOM      9  C   UNL     1      61.243  61.775  71.312  0.00  0.00    +0.000 A 
ATOM     10 CL   UNL     1      61.615  61.123  71.655  0.00  0.00    +0.000 Cl
ATOM     11  C   UNL     1      60.868  61.699  70.582  0.00  0.00    +0.000 A 
ATOM     12  C   UNL     1      60.495  62.351  70.239  0.00  0.00    +0.000 A 
ENDROOT
TORSDOF 0
ENDMDL
MODEL 5
REMARK VINA RESULT:    -6.256      3.946      4.565
REMARK INTER + INTRA:          -6.256
REMARK INTER:                  -6.256
REMARK INTRA:                   0.000
REMARK UNBOUND:                 0.000
ROOT
REMARK  Name = cloxiquine
REMARK                            x       y       z     vdW  Elec       q    Type
REMARK                         _______ _______ _______ _____ _____    ______ ____
ATOM      1  O   UNL     1      62.162  63.895  70.621  0.00  0.00    +0.000 OA
ATOM      2  C   UNL     1      61.666  63.236  70.633  0.00  0.00    +0.000 A 
ATOM      3  C   UNL     1      61.322  62.965  69.934  0.00  0.00    +0.000 A 
ATOM      4  N   UNL     1      61.474  63.353  69.222  0.00  0.00    +0.000 NA
ATOM      5  C   UNL     1      61.131  63.083  68.523  0.00  0.00    +0.000 A 
ATOM      6  C   UNL     1      60.634  62.423  68.535  0.00  0.00    +0.000 A 
ATOM      7  C   UNL     1      60.482  62.036  69.247  0.00  0.00    +0.000 A 
ATOM      8  C   UNL     1      60.825  62.306  69.947  0.00  0.00    +0.000 A 
ATOM      9  C   UNL     1      60.673  61.918  70.658  0.00  0.00    +0.000 A 
ATOM     10 CL   UNL     1      60.176  61.259  70.670  0.00  0.00    +0.000 Cl
ATOM     11  C   UNL     1      61.016  62.189  71.357  0.00  0.00    +0.000 A 
ATOM     12  C   UNL     1      61.513  62.848  71.344  0.00  0.00    +0.000 A 
ENDROOT
TORSDOF 0
ENDMDL
MODEL 6
REMARK VINA RESULT:    -6.251      7.057      7.850
REMARK INTER + INTRA:          -6.251
REMARK INTER:                  -6.251
REMARK INTRA:                   0.000
REMARK UNBOUND:                 0.000
ROOT
REMARK  Name = cloxiquine
REMARK                            x       y       z     vdW  Elec       q    Type
REMARK                         _______ _______ _______ _____ _____    ______ ____
ATOM      1  O   UNL     1      63.940  66.440  72.254  0.00  0.00    +0.000 OA
ATOM      2  C   UNL     1      64.459  66.679  71.659  0.00  0.00    +0.000 A 
ATOM      3  C   UNL     1      64.493  66.260  70.950  0.00  0.00    +0.000 A 
ATOM      4  N   UNL     1      64.009  65.602  70.834  0.00  0.00    +0.000 NA
ATOM      5  C   UNL     1      64.043  65.184  70.125  0.00  0.00    +0.000 A 
ATOM      6  C   UNL     1      64.562  65.423  69.529  0.00  0.00    +0.000 A 
ATOM      7  C   UNL     1      65.046  66.080  69.644  0.00  0.00    +0.000 A 
ATOM      8  C   UNL     1      65.013  66.500  70.354  0.00  0.00    +0.000 A 
ATOM      9  C   UNL     1      65.497  67.157  70.468  0.00  0.00    +0.000 A 
ATOM     10 CL   UNL     1      66.015  67.396  69.873  0.00  0.00    +0.000 Cl
ATOM     11  C   UNL     1      65.463  67.575  71.178  0.00  0.00    +0.000 A 
ATOM     12  C   UNL     1      64.943  67.336  71.774  0.00  0.00    +0.000 A 
ENDROOT
TORSDOF 0
ENDMDL
MODEL 7
REMARK VINA RESULT:    -6.195      4.329      4.960
REMARK INTER + INTRA:          -6.195
REMARK INTER:                  -6.195
REMARK INTRA:                   0.000
REMARK UNBOUND:                 0.000
ROOT
REMARK  Name = cloxiquine
REMARK                            x       y       z     vdW  Elec       q    Type
REMARK                         _______ _______ _______ _____ _____    ______ ____
ATOM      1  O   UNL     1      61.637  63.870  69.280  0.00  0.00    +0.000 OA
ATOM      2  C   UNL     1      61.261  63.219  69.618  0.00  0.00    +0.000 A 
ATOM      3  C   UNL     1      61.268  63.118  70.436  0.00  0.00    +0.000 A 
ATOM      4  N   UNL     1      61.651  63.668  70.918  0.00  0.00    +0.000 NA
ATOM      5  C   UNL     1      61.658  63.566  71.736  0.00  0.00    +0.000 A 
ATOM      6  C   UNL     1      61.281  62.914  72.074  0.00  0.00    +0.000 A 
ATOM      7  C   UNL     1      60.898  62.365  71.594  0.00  0.00    +0.000 A 
ATOM      8  C   UNL     1      60.890  62.466  70.775  0.00  0.00    +0.000 A 
ATOM      9  C   UNL     1      60.507  61.916  70.294  0.00  0.00    +0.000 A 
ATOM     10 CL   UNL     1      60.130  61.265  70.633  0.00  0.00    +0.000 Cl
ATOM     11  C   UNL     1      60.500  62.017  69.476  0.00  0.00    +0.000 A 
ATOM     12  C   UNL     1      60.877  62.670  69.138  0.00  0.00    +0.000 A 
ENDROOT
TORSDOF 0
ENDMDL
MODEL 8
REMARK VINA RESULT:    -6.009      7.000      7.850
REMARK INTER + INTRA:          -6.009
REMARK INTER:                  -6.009
REMARK INTRA:                   0.000
REMARK UNBOUND:                 0.000
ROOT
REMARK  Name = cloxiquine
REMARK                            x       y       z     vdW  Elec       q    Type
REMARK                         _______ _______ _______ _____ _____    ______ ____
ATOM      1  O   UNL     1      63.934  66.756  72.353  0.00  0.00    +0.000 OA
ATOM      2  C   UNL     1      64.042  66.474  71.585  0.00  0.00    +0.000 A 
ATOM      3  C   UNL     1      64.664  66.758  71.125  0.00  0.00    +0.000 A 
ATOM      4  N   UNL     1      65.180  67.325  71.432  0.00  0.00    +0.000 NA
ATOM      5  C   UNL     1      65.802  67.609  70.972  0.00  0.00    +0.000 A 
ATOM      6  C   UNL     1      65.910  67.326  70.204  0.00  0.00    +0.000 A 
ATOM      7  C   UNL     1      65.396  66.760  69.897  0.00  0.00    +0.000 A 
ATOM      8  C   UNL     1      64.772  66.475  70.357  0.00  0.00    +0.000 A 
ATOM      9  C   UNL     1      64.258  65.909  70.050  0.00  0.00    +0.000 A 
ATOM     10 CL   UNL     1      64.366  65.626  69.283  0.00  0.00    +0.000 Cl
ATOM     11  C   UNL     1      63.635  65.625  70.510  0.00  0.00    +0.000 A 
ATOM     12  C   UNL     1      63.527  65.907  71.278  0.00  0.00    +0.000 A 
ENDROOT
TORSDOF 0
ENDMDL
MODEL 9
REMARK VINA RESULT:    -5.820      6.040      6.649
REMARK INTER + INTRA:          -5.820
REMARK INTER:                  -5.820
REMARK INTRA:                   0.000
REMARK UNBOUND:                 0.000
ROOT
REMARK  Name = cloxiquine
REMARK                            x       y       z     vdW  Elec       q    Type
REMARK                         _______ _______ _______ _____ _____    ______ ____
ATOM      1  O   UNL     1      62.855  64.178  70.246  0.00  0.00    +0.000 OA
ATOM      2  C   UNL     1      62.407  63.903  70.882  0.00  0.00    +0.000 A 
ATOM      3  C   UNL     1      62.261  64.394  71.527  0.00  0.00    +0.000 A 
ATOM      4  N   UNL     1      62.563  65.162  71.539  0.00  0.00    +0.000 NA
ATOM      5  C   UNL     1      62.418  65.653  72.184  0.00  0.00    +0.000 A 
ATOM      6  C   UNL     1      61.970  65.377  72.821  0.00  0.00    +0.000 A 
ATOM      7  C   UNL     1      61.668  64.610  72.810  0.00  0.00    +0.000 A 
ATOM      8  C   UNL     1      61.813  64.118  72.164  0.00  0.00    +0.000 A 
ATOM      9  C   UNL     1      61.512  63.351  72.153  0.00  0.00    +0.000 A 
ATOM     10 CL   UNL     1      61.064  63.075  72.789  0.00  0.00    +0.000 Cl
ATOM     11  C   UNL     1      61.657  62.859  71.508  0.00  0.00    +0.000 A 
ATOM     12  C   UNL     1      62.105  63.135  70.871  0.00  0.00    +0.000 A 
ENDROOT
TORSDOF 0
ENDMDL
