MODEL 1
REMARK VINA RESULT:   -14.695      0.000      0.000
REMARK INTER + INTRA:         -14.695
REMARK INTER:                 -14.695
REMARK INTRA:                   0.000
REMARK UNBOUND:                 0.000
ROOT
REMARK  Name = cloxotestosterone
REMARK                            x       y       z     vdW  Elec       q    Type
REMARK                         _______ _______ _______ _____ _____    ______ ____
ATOM      1  C   UNL     1      61.667  63.227  67.670  0.00  0.00    +0.000 C 
ATOM      2  C   UNL     1      61.133  62.791  67.215  0.00  0.00    +0.000 C 
ATOM      3  C   UNL     1      61.867  62.904  66.855  0.00  0.00    +0.000 C 
ATOM      4  C   UNL     1      62.012  62.591  66.106  0.00  0.00    +0.000 C 
ATOM      5  C   UNL     1      61.422  62.166  65.716  0.00  0.00    +0.000 C 
ATOM      6  C   UNL     1      60.688  62.053  66.076  0.00  0.00    +0.000 C 
ATOM      7  C   UNL     1      60.098  61.628  65.685  0.00  0.00    +0.000 C 
ATOM      8  C   UNL     1      60.243  61.315  64.936  0.00  0.00    +0.000 C 
ATOM      9  C   UNL     1      60.976  61.428  64.577  0.00  0.00    +0.000 C 
ATOM     10  C   UNL     1      61.120  61.115  63.826  0.00  0.00    +0.000 C 
ATOM     11  C   UNL     1      61.854  61.227  63.467  0.00  0.00    +0.000 C 
ATOM     12  O   UNL     1      61.998  60.915  62.718  0.00  0.00    +0.000 OA
ATOM     13  C   UNL     1      62.444  61.653  63.857  0.00  0.00    +0.000 C 
ATOM     14  C   UNL     1      62.299  61.965  64.607  0.00  0.00    +0.000 C 
ATOM     15  C   UNL     1      61.566  61.853  64.967  0.00  0.00    +0.000 C 
ATOM     16  C   UNL     1      62.156  62.279  65.356  0.00  0.00    +0.000 C 
ATOM     17  C   UNL     1      60.543  62.366  66.825  0.00  0.00    +0.000 C 
ATOM     18  C   UNL     1      59.879  62.345  67.314  0.00  0.00    +0.000 C 
ATOM     19  C   UNL     1      60.058  62.757  68.006  0.00  0.00    +0.000 C 
ATOM     20  C   UNL     1      60.834  63.033  67.945  0.00  0.00    +0.000 C 
ATOM     21  O   UNL     1      61.238  63.473  68.514  0.00  0.00    +0.000 OA
ATOM     22  C   UNL     1      60.864  63.674  69.221  0.00  0.00    +0.000 C 
ATOM     23  O   UNL     1      60.087  63.436  69.360  0.00  0.00    +0.000 OA
ATOM     24  C   UNL     1      61.268  64.115  69.790  0.00  0.00    +0.000 C 
ATOM     25 CL   UNL     1      61.673  64.555  70.359  0.00  0.00    +0.000 Cl
ATOM     26 CL   UNL     1      60.604  64.093  70.279  0.00  0.00    +0.000 Cl
ATOM     27 CL   UNL     1      61.933  64.136  69.301  0.00  0.00    +0.000 Cl
ENDROOT
TORSDOF 0
ENDMDL
MODEL 2
REMARK VINA RESULT:   -13.719      2.382      5.138
REMARK INTER + INTRA:         -13.719
REMARK INTER:                 -13.719
REMARK INTRA:                   0.000
REMARK UNBOUND:                 0.000
ROOT
REMARK  Name = cloxotestosterone
REMARK                            x       y       z     vdW  Elec       q    Type
REMARK                         _______ _______ _______ _____ _____    ______ ____
ATOM      1  C   UNL     1      60.799  61.762  67.036  0.00  0.00    +0.000 C 
ATOM      2  C   UNL     1      61.106  62.378  67.492  0.00  0.00    +0.000 C 
ATOM      3  C   UNL     1      60.655  61.836  67.920  0.00  0.00    +0.000 C 
ATOM      4  C   UNL     1      60.546  61.939  68.731  0.00  0.00    +0.000 C 
ATOM      5  C   UNL     1      60.889  62.584  69.114  0.00  0.00    +0.000 C 
ATOM      6  C   UNL     1      61.340  63.127  68.686  0.00  0.00    +0.000 C 
ATOM      7  C   UNL     1      61.682  63.772  69.070  0.00  0.00    +0.000 C 
ATOM      8  C   UNL     1      61.574  63.875  69.881  0.00  0.00    +0.000 C 
ATOM      9  C   UNL     1      61.122  63.333  70.308  0.00  0.00    +0.000 C 
ATOM     10  C   UNL     1      61.014  63.437  71.120  0.00  0.00    +0.000 C 
ATOM     11  C   UNL     1      60.563  62.894  71.548  0.00  0.00    +0.000 C 
ATOM     12  O   UNL     1      60.454  62.998  72.359  0.00  0.00    +0.000 OA
ATOM     13  C   UNL     1      60.220  62.249  71.165  0.00  0.00    +0.000 C 
ATOM     14  C   UNL     1      60.329  62.146  70.353  0.00  0.00    +0.000 C 
ATOM     15  C   UNL     1      60.780  62.687  69.925  0.00  0.00    +0.000 C 
ATOM     16  C   UNL     1      60.437  62.042  69.542  0.00  0.00    +0.000 C 
ATOM     17  C   UNL     1      61.449  63.023  67.875  0.00  0.00    +0.000 C 
ATOM     18  C   UNL     1      61.862  63.463  67.313  0.00  0.00    +0.000 C 
ATOM     19  C   UNL     1      61.775  63.090  66.582  0.00  0.00    +0.000 C 
ATOM     20  C   UNL     1      61.308  62.419  66.692  0.00  0.00    +0.000 C 
ATOM     21  O   UNL     1      61.082  61.884  66.107  0.00  0.00    +0.000 OA
ATOM     22  C   UNL     1      61.327  61.997  65.328  0.00  0.00    +0.000 C 
ATOM     23  O   UNL     1      61.798  62.646  65.134  0.00  0.00    +0.000 OA
ATOM     24  C   UNL     1      61.101  61.462  64.742  0.00  0.00    +0.000 C 
ATOM     25 CL   UNL     1      60.875  60.926  64.156  0.00  0.00    +0.000 Cl
ATOM     26 CL   UNL     1      61.515  61.902  64.180  0.00  0.00    +0.000 Cl
ATOM     27 CL   UNL     1      60.688  61.021  65.304  0.00  0.00    +0.000 Cl
ENDROOT
TORSDOF 0
ENDMDL
MODEL 3
REMARK VINA RESULT:   -13.710      4.713      6.354
REMARK INTER + INTRA:         -13.710
REMARK INTER:                 -13.710
REMARK INTRA:                   0.000
REMARK UNBOUND:                 0.000
ROOT
REMARK  Name = cloxotestosterone
REMARK                            x       y       z     vdW  Elec       q    Type
REMARK                         _______ _______ _______ _____ _____    ______ ____
ATOM      1  C   UNL     1      62.385  63.858  70.427  0.00  0.00    +0.000 C 
ATOM      2  C   UNL     1      62.602  64.460  70.949  0.00  0.00    +0.000 C 
ATOM      3  C   UNL     1      63.059  64.430  70.262  0.00  0.00    +0.000 C 
ATOM      4  C   UNL     1      63.669  64.973  70.148  0.00  0.00    +0.000 C 
ATOM      5  C   UNL     1      63.822  65.546  70.721  0.00  0.00    +0.000 C 
ATOM      6  C   UNL     1      63.366  65.576  71.408  0.00  0.00    +0.000 C 
ATOM      7  C   UNL     1      63.521  66.149  71.981  0.00  0.00    +0.000 C 
ATOM      8  C   UNL     1      64.131  66.693  71.868  0.00  0.00    +0.000 C 
ATOM      9  C   UNL     1      64.586  66.663  71.181  0.00  0.00    +0.000 C 
ATOM     10  C   UNL     1      65.197  67.207  71.068  0.00  0.00    +0.000 C 
ATOM     11  C   UNL     1      65.653  67.177  70.381  0.00  0.00    +0.000 C 
ATOM     12  O   UNL     1      66.263  67.720  70.267  0.00  0.00    +0.000 OA
ATOM     13  C   UNL     1      65.499  66.604  69.807  0.00  0.00    +0.000 C 
ATOM     14  C   UNL     1      64.889  66.061  69.921  0.00  0.00    +0.000 C 
ATOM     15  C   UNL     1      64.433  66.090  70.607  0.00  0.00    +0.000 C 
ATOM     16  C   UNL     1      64.279  65.517  70.034  0.00  0.00    +0.000 C 
ATOM     17  C   UNL     1      62.756  65.033  71.522  0.00  0.00    +0.000 C 
ATOM     18  C   UNL     1      62.219  64.927  72.138  0.00  0.00    +0.000 C 
ATOM     19  C   UNL     1      61.732  64.289  71.946  0.00  0.00    +0.000 C 
ATOM     20  C   UNL     1      61.969  64.000  71.211  0.00  0.00    +0.000 C 
ATOM     21  O   UNL     1      61.632  63.363  70.809  0.00  0.00    +0.000 OA
ATOM     22  C   UNL     1      60.998  62.954  71.141  0.00  0.00    +0.000 C 
ATOM     23  O   UNL     1      60.701  63.181  71.877  0.00  0.00    +0.000 OA
ATOM     24  C   UNL     1      60.661  62.317  70.740  0.00  0.00    +0.000 C 
ATOM     25 CL   UNL     1      60.325  61.681  70.337  0.00  0.00    +0.000 Cl
ATOM     26 CL   UNL     1      60.124  62.212  71.356  0.00  0.00    +0.000 Cl
ATOM     27 CL   UNL     1      61.200  62.423  70.122  0.00  0.00    +0.000 Cl
ENDROOT
TORSDOF 0
ENDMDL
MODEL 4
REMARK VINA RESULT:   -13.638      4.707      6.191
REMARK INTER + INTRA:         -13.638
REMARK INTER:                 -13.638
REMARK INTRA:                   0.000
REMARK UNBOUND:                 0.000
ROOT
REMARK  Name = cloxotestosterone
REMARK                            x       y       z     vdW  Elec       q    Type
REMARK                         _______ _______ _______ _____ _____    ______ ____
ATOM      1  C   UNL     1      63.972  65.524  70.402  0.00  0.00    +0.000 C 
ATOM      2  C   UNL     1      63.428  65.362  71.001  0.00  0.00    +0.000 C 
ATOM      3  C   UNL     1      63.377  64.852  70.354  0.00  0.00    +0.000 C 
ATOM      4  C   UNL     1      62.817  64.246  70.350  0.00  0.00    +0.000 C 
ATOM      5  C   UNL     1      62.307  64.152  70.991  0.00  0.00    +0.000 C 
ATOM      6  C   UNL     1      62.358  64.662  71.638  0.00  0.00    +0.000 C 
ATOM      7  C   UNL     1      61.847  64.567  72.279  0.00  0.00    +0.000 C 
ATOM      8  C   UNL     1      61.287  63.961  72.275  0.00  0.00    +0.000 C 
ATOM      9  C   UNL     1      61.237  63.452  71.628  0.00  0.00    +0.000 C 
ATOM     10  C   UNL     1      60.676  62.846  71.624  0.00  0.00    +0.000 C 
ATOM     11  C   UNL     1      60.626  62.336  70.978  0.00  0.00    +0.000 C 
ATOM     12  O   UNL     1      60.065  61.731  70.973  0.00  0.00    +0.000 OA
ATOM     13  C   UNL     1      61.135  62.431  70.336  0.00  0.00    +0.000 C 
ATOM     14  C   UNL     1      61.696  63.036  70.341  0.00  0.00    +0.000 C 
ATOM     15  C   UNL     1      61.747  63.546  70.987  0.00  0.00    +0.000 C 
ATOM     16  C   UNL     1      62.256  63.641  70.345  0.00  0.00    +0.000 C 
ATOM     17  C   UNL     1      62.918  65.267  71.643  0.00  0.00    +0.000 C 
ATOM     18  C   UNL     1      63.096  65.850  72.198  0.00  0.00    +0.000 C 
ATOM     19  C   UNL     1      63.716  66.306  71.900  0.00  0.00    +0.000 C 
ATOM     20  C   UNL     1      63.921  66.004  71.159  0.00  0.00    +0.000 C 
ATOM     21  O   UNL     1      64.515  66.294  70.666  0.00  0.00    +0.000 OA
ATOM     22  C   UNL     1      64.966  66.943  70.900  0.00  0.00    +0.000 C 
ATOM     23  O   UNL     1      64.823  67.304  71.628  0.00  0.00    +0.000 OA
ATOM     24  C   UNL     1      65.560  67.233  70.406  0.00  0.00    +0.000 C 
ATOM     25 CL   UNL     1      66.154  67.522  69.911  0.00  0.00    +0.000 Cl
ATOM     26 CL   UNL     1      65.738  67.816  70.961  0.00  0.00    +0.000 Cl
ATOM     27 CL   UNL     1      65.382  66.649  69.850  0.00  0.00    +0.000 Cl
ENDROOT
TORSDOF 0
ENDMDL
MODEL 5
REMARK VINA RESULT:   -13.284      5.060      6.142
REMARK INTER + INTRA:         -13.284
REMARK INTER:                 -13.284
REMARK INTRA:                   0.000
REMARK UNBOUND:                 0.000
ROOT
REMARK  Name = cloxotestosterone
REMARK                            x       y       z     vdW  Elec       q    Type
REMARK                         _______ _______ _______ _____ _____    ______ ____
ATOM      1  C   UNL     1      60.079  65.090  72.642  0.00  0.00    +0.000 C 
ATOM      2  C   UNL     1      60.144  64.568  72.005  0.00  0.00    +0.000 C 
ATOM      3  C   UNL     1      60.512  64.304  72.695  0.00  0.00    +0.000 C 
ATOM      4  C   UNL     1      60.900  63.575  72.703  0.00  0.00    +0.000 C 
ATOM      5  C   UNL     1      60.918  63.111  72.021  0.00  0.00    +0.000 C 
ATOM      6  C   UNL     1      60.549  63.375  71.332  0.00  0.00    +0.000 C 
ATOM      7  C   UNL     1      60.568  62.910  70.650  0.00  0.00    +0.000 C 
ATOM      8  C   UNL     1      60.956  62.181  70.658  0.00  0.00    +0.000 C 
ATOM      9  C   UNL     1      61.324  61.918  71.348  0.00  0.00    +0.000 C 
ATOM     10  C   UNL     1      61.712  61.189  71.355  0.00  0.00    +0.000 C 
ATOM     11  C   UNL     1      62.080  60.926  72.045  0.00  0.00    +0.000 C 
ATOM     12  O   UNL     1      62.467  60.198  72.053  0.00  0.00    +0.000 OA
ATOM     13  C   UNL     1      62.061  61.391  72.726  0.00  0.00    +0.000 C 
ATOM     14  C   UNL     1      61.674  62.119  72.718  0.00  0.00    +0.000 C 
ATOM     15  C   UNL     1      61.305  62.383  72.029  0.00  0.00    +0.000 C 
ATOM     16  C   UNL     1      61.287  62.847  72.711  0.00  0.00    +0.000 C 
ATOM     17  C   UNL     1      60.162  64.103  71.324  0.00  0.00    +0.000 C 
ATOM     18  C   UNL     1      59.753  64.504  70.731  0.00  0.00    +0.000 C 
ATOM     19  C   UNL     1      59.481  65.217  71.045  0.00  0.00    +0.000 C 
ATOM     20  C   UNL     1      59.723  65.256  71.834  0.00  0.00    +0.000 C 
ATOM     21  O   UNL     1      59.570  65.875  72.357  0.00  0.00    +0.000 OA
ATOM     22  C   UNL     1      59.139  66.532  72.105  0.00  0.00    +0.000 C 
ATOM     23  O   UNL     1      58.861  66.570  71.329  0.00  0.00    +0.000 OA
ATOM     24  C   UNL     1      58.986  67.151  72.628  0.00  0.00    +0.000 C 
ATOM     25 CL   UNL     1      58.834  67.770  73.153  0.00  0.00    +0.000 Cl
ATOM     26 CL   UNL     1      58.577  67.552  72.035  0.00  0.00    +0.000 Cl
ATOM     27 CL   UNL     1      59.396  66.749  73.222  0.00  0.00    +0.000 Cl
ENDROOT
TORSDOF 0
ENDMDL
MODEL 6
REMARK VINA RESULT:   -13.259      4.319      6.389
REMARK INTER + INTRA:         -13.259
REMARK INTER:                 -13.259
REMARK INTRA:                   0.000
REMARK UNBOUND:                 0.000
ROOT
REMARK  Name = cloxotestosterone
REMARK                            x       y       z     vdW  Elec       q    Type
REMARK                         _______ _______ _______ _____ _____    ______ ____
ATOM      1  C   UNL     1      62.204  64.524  71.319  0.00  0.00    +0.000 C 
ATOM      2  C   UNL     1      62.746  64.684  70.717  0.00  0.00    +0.000 C 
ATOM      3  C   UNL     1      62.866  65.125  71.403  0.00  0.00    +0.000 C 
ATOM      4  C   UNL     1      63.486  65.668  71.441  0.00  0.00    +0.000 C 
ATOM      5  C   UNL     1      63.986  65.769  70.793  0.00  0.00    +0.000 C 
ATOM      6  C   UNL     1      63.865  65.328  70.106  0.00  0.00    +0.000 C 
ATOM      7  C   UNL     1      64.365  65.430  69.457  0.00  0.00    +0.000 C 
ATOM      8  C   UNL     1      64.985  65.973  69.495  0.00  0.00    +0.000 C 
ATOM      9  C   UNL     1      65.105  66.413  70.182  0.00  0.00    +0.000 C 
ATOM     10  C   UNL     1      65.726  66.957  70.219  0.00  0.00    +0.000 C 
ATOM     11  C   UNL     1      65.846  67.397  70.906  0.00  0.00    +0.000 C 
ATOM     12  O   UNL     1      66.466  67.940  70.944  0.00  0.00    +0.000 OA
ATOM     13  C   UNL     1      65.347  67.296  71.555  0.00  0.00    +0.000 C 
ATOM     14  C   UNL     1      64.727  66.753  71.517  0.00  0.00    +0.000 C 
ATOM     15  C   UNL     1      64.606  66.312  70.831  0.00  0.00    +0.000 C 
ATOM     16  C   UNL     1      64.106  66.211  71.479  0.00  0.00    +0.000 C 
ATOM     17  C   UNL     1      63.245  64.785  70.068  0.00  0.00    +0.000 C 
ATOM     18  C   UNL     1      62.992  64.277  69.470  0.00  0.00    +0.000 C 
ATOM     19  C   UNL     1      62.337  63.860  69.749  0.00  0.00    +0.000 C 
ATOM     20  C   UNL     1      62.184  64.112  70.520  0.00  0.00    +0.000 C 
ATOM     21  O   UNL     1      61.577  63.840  71.007  0.00  0.00    +0.000 OA
ATOM     22  C   UNL     1      61.055  63.264  70.733  0.00  0.00    +0.000 C 
ATOM     23  O   UNL     1      61.140  62.959  69.971  0.00  0.00    +0.000 OA
ATOM     24  C   UNL     1      60.447  62.991  71.220  0.00  0.00    +0.000 C 
ATOM     25 CL   UNL     1      59.840  62.719  71.709  0.00  0.00    +0.000 Cl
ATOM     26 CL   UNL     1      60.195  62.482  70.623  0.00  0.00    +0.000 Cl
ATOM     27 CL   UNL     1      60.700  63.500  71.819  0.00  0.00    +0.000 Cl
ENDROOT
TORSDOF 0
ENDMDL
MODEL 7
REMARK VINA RESULT:   -12.762      4.908      5.905
REMARK INTER + INTRA:         -12.762
REMARK INTER:                 -12.762
REMARK INTRA:                   0.000
REMARK UNBOUND:                 0.000
ROOT
REMARK  Name = cloxotestosterone
REMARK                            x       y       z     vdW  Elec       q    Type
REMARK                         _______ _______ _______ _____ _____    ______ ____
ATOM      1  C   UNL     1      60.342  64.717  70.273  0.00  0.00    +0.000 C 
ATOM      2  C   UNL     1      60.577  64.508  71.037  0.00  0.00    +0.000 C 
ATOM      3  C   UNL     1      60.656  63.901  70.483  0.00  0.00    +0.000 C 
ATOM      4  C   UNL     1      60.948  63.166  70.716  0.00  0.00    +0.000 C 
ATOM      5  C   UNL     1      61.162  63.038  71.502  0.00  0.00    +0.000 C 
ATOM      6  C   UNL     1      61.084  63.645  72.056  0.00  0.00    +0.000 C 
ATOM      7  C   UNL     1      61.298  63.516  72.842  0.00  0.00    +0.000 C 
ATOM      8  C   UNL     1      61.590  62.780  73.075  0.00  0.00    +0.000 C 
ATOM      9  C   UNL     1      61.669  62.174  72.521  0.00  0.00    +0.000 C 
ATOM     10  C   UNL     1      61.962  61.438  72.755  0.00  0.00    +0.000 C 
ATOM     11  C   UNL     1      62.040  60.832  72.202  0.00  0.00    +0.000 C 
ATOM     12  O   UNL     1      62.332  60.097  72.434  0.00  0.00    +0.000 OA
ATOM     13  C   UNL     1      61.826  60.960  71.415  0.00  0.00    +0.000 C 
ATOM     14  C   UNL     1      61.533  61.695  71.182  0.00  0.00    +0.000 C 
ATOM     15  C   UNL     1      61.455  62.302  71.735  0.00  0.00    +0.000 C 
ATOM     16  C   UNL     1      61.241  62.430  70.949  0.00  0.00    +0.000 C 
ATOM     17  C   UNL     1      60.791  64.380  71.823  0.00  0.00    +0.000 C 
ATOM     18  C   UNL     1      60.653  65.077  72.241  0.00  0.00    +0.000 C 
ATOM     19  C   UNL     1      60.354  65.636  71.714  0.00  0.00    +0.000 C 
ATOM     20  C   UNL     1      60.307  65.285  70.969  0.00  0.00    +0.000 C 
ATOM     21  O   UNL     1      60.037  65.646  70.278  0.00  0.00    +0.000 OA
ATOM     22  C   UNL     1      59.783  66.431  70.296  0.00  0.00    +0.000 C 
ATOM     23  O   UNL     1      59.799  66.854  71.004  0.00  0.00    +0.000 OA
ATOM     24  C   UNL     1      59.513  66.793  69.605  0.00  0.00    +0.000 C 
ATOM     25 CL   UNL     1      59.244  67.154  68.914  0.00  0.00    +0.000 Cl
ATOM     26 CL   UNL     1      59.376  67.490  70.024  0.00  0.00    +0.000 Cl
ATOM     27 CL   UNL     1      59.651  66.095  69.186  0.00  0.00    +0.000 Cl
ENDROOT
TORSDOF 0
ENDMDL
MODEL 8
REMARK VINA RESULT:   -12.715      4.865      7.331
REMARK INTER + INTRA:         -12.715
REMARK INTER:                 -12.715
REMARK INTRA:                   0.000
REMARK UNBOUND:                 0.000
ROOT
REMARK  Name = cloxotestosterone
REMARK                            x       y       z     vdW  Elec       q    Type
REMARK                         _______ _______ _______ _____ _____    ______ ____
ATOM      1  C   UNL     1      61.328  64.301  71.737  0.00  0.00    +0.000 C 
ATOM      2  C   UNL     1      62.031  64.696  71.561  0.00  0.00    +0.000 C 
ATOM      3  C   UNL     1      61.526  65.117  72.060  0.00  0.00    +0.000 C 
ATOM      4  C   UNL     1      61.744  65.863  72.335  0.00  0.00    +0.000 C 
ATOM      5  C   UNL     1      62.468  66.189  72.111  0.00  0.00    +0.000 C 
ATOM      6  C   UNL     1      62.973  65.769  71.612  0.00  0.00    +0.000 C 
ATOM      7  C   UNL     1      63.697  66.096  71.388  0.00  0.00    +0.000 C 
ATOM      8  C   UNL     1      63.915  66.843  71.663  0.00  0.00    +0.000 C 
ATOM      9  C   UNL     1      63.410  67.262  72.162  0.00  0.00    +0.000 C 
ATOM     10  C   UNL     1      63.629  68.010  72.436  0.00  0.00    +0.000 C 
ATOM     11  C   UNL     1      63.123  68.429  72.935  0.00  0.00    +0.000 C 
ATOM     12  O   UNL     1      63.341  69.175  73.210  0.00  0.00    +0.000 OA
ATOM     13  C   UNL     1      62.399  68.103  73.159  0.00  0.00    +0.000 C 
ATOM     14  C   UNL     1      62.181  67.356  72.884  0.00  0.00    +0.000 C 
ATOM     15  C   UNL     1      62.686  66.936  72.385  0.00  0.00    +0.000 C 
ATOM     16  C   UNL     1      61.962  66.610  72.609  0.00  0.00    +0.000 C 
ATOM     17  C   UNL     1      62.755  65.023  71.337  0.00  0.00    +0.000 C 
ATOM     18  C   UNL     1      63.136  64.483  70.843  0.00  0.00    +0.000 C 
ATOM     19  C   UNL     1      62.648  63.823  70.762  0.00  0.00    +0.000 C 
ATOM     20  C   UNL     1      61.965  63.954  71.206  0.00  0.00    +0.000 C 
ATOM     21  O   UNL     1      61.328  63.436  71.280  0.00  0.00    +0.000 OA
ATOM     22  C   UNL     1      61.340  62.710  70.890  0.00  0.00    +0.000 C 
ATOM     23  O   UNL     1      61.988  62.501  70.425  0.00  0.00    +0.000 OA
ATOM     24  C   UNL     1      60.703  62.190  70.965  0.00  0.00    +0.000 C 
ATOM     25 CL   UNL     1      60.065  61.672  71.040  0.00  0.00    +0.000 Cl
ATOM     26 CL   UNL     1      61.084  61.651  70.471  0.00  0.00    +0.000 Cl
ATOM     27 CL   UNL     1      60.321  62.731  71.459  0.00  0.00    +0.000 Cl
ENDROOT
TORSDOF 0
ENDMDL
MODEL 9
REMARK VINA RESULT:   -12.698      5.090      6.408
REMARK INTER + INTRA:         -12.698
REMARK INTER:                 -12.698
REMARK INTRA:                   0.000
REMARK UNBOUND:                 0.000
ROOT
REMARK  Name = cloxotestosterone
REMARK                            x       y       z     vdW  Elec       q    Type
REMARK                         _______ _______ _______ _____ _____    ______ ____
ATOM      1  C   UNL     1      62.525  66.059  72.147  0.00  0.00    +0.000 C 
ATOM      2  C   UNL     1      61.776  65.721  72.228  0.00  0.00    +0.000 C 
ATOM      3  C   UNL     1      62.330  65.228  71.864  0.00  0.00    +0.000 C 
ATOM      4  C   UNL     1      62.110  64.472  71.620  0.00  0.00    +0.000 C 
ATOM      5  C   UNL     1      61.338  64.208  71.738  0.00  0.00    +0.000 C 
ATOM      6  C   UNL     1      60.784  64.701  72.101  0.00  0.00    +0.000 C 
ATOM      7  C   UNL     1      60.011  64.437  72.219  0.00  0.00    +0.000 C 
ATOM      8  C   UNL     1      59.792  63.680  71.975  0.00  0.00    +0.000 C 
ATOM      9  C   UNL     1      60.345  63.188  71.612  0.00  0.00    +0.000 C 
ATOM     10  C   UNL     1      60.125  62.431  71.367  0.00  0.00    +0.000 C 
ATOM     11  C   UNL     1      60.678  61.939  71.004  0.00  0.00    +0.000 C 
ATOM     12  O   UNL     1      60.459  61.183  70.759  0.00  0.00    +0.000 OA
ATOM     13  C   UNL     1      61.451  62.203  70.885  0.00  0.00    +0.000 C 
ATOM     14  C   UNL     1      61.671  62.959  71.130  0.00  0.00    +0.000 C 
ATOM     15  C   UNL     1      61.118  63.452  71.493  0.00  0.00    +0.000 C 
ATOM     16  C   UNL     1      61.891  63.716  71.375  0.00  0.00    +0.000 C 
ATOM     17  C   UNL     1      61.004  65.458  72.346  0.00  0.00    +0.000 C 
ATOM     18  C   UNL     1      60.582  66.062  72.717  0.00  0.00    +0.000 C 
ATOM     19  C   UNL     1      61.094  66.700  72.827  0.00  0.00    +0.000 C 
ATOM     20  C   UNL     1      61.833  66.489  72.525  0.00  0.00    +0.000 C 
ATOM     21  O   UNL     1      62.508  66.963  72.521  0.00  0.00    +0.000 OA
ATOM     22  C   UNL     1      62.480  67.723  72.840  0.00  0.00    +0.000 C 
ATOM     23  O   UNL     1      61.777  68.010  73.163  0.00  0.00    +0.000 OA
ATOM     24  C   UNL     1      63.155  68.197  72.836  0.00  0.00    +0.000 C 
ATOM     25 CL   UNL     1      63.831  68.671  72.832  0.00  0.00    +0.000 Cl
ATOM     26 CL   UNL     1      62.733  68.802  73.206  0.00  0.00    +0.000 Cl
ATOM     27 CL   UNL     1      63.577  67.592  72.465  0.00  0.00    +0.000 Cl
ENDROOT
TORSDOF 0
ENDMDL
