MODEL 1
REMARK VINA RESULT:   -14.692      0.000      0.000
REMARK INTER + INTRA:         -14.692
REMARK INTER:                 -14.692
REMARK INTRA:                   0.000
REMARK UNBOUND:                 0.000
ROOT
REMARK  Name = cortivazol
REMARK                            x       y       z     vdW  Elec       q    Type
REMARK                         _______ _______ _______ _____ _____    ______ ____
ATOM      1  C   UNL     1      62.535  66.100  70.934  0.00  0.00    +0.000 C 
ATOM      2  C   UNL     1      62.037  65.638  70.465  0.00  0.00    +0.000 C 
ATOM      3  C   UNL     1      62.259  65.217  69.791  0.00  0.00    +0.000 C 
ATOM      4  C   UNL     1      61.589  64.835  69.497  0.00  0.00    +0.000 C 
ATOM      5  C   UNL     1      61.476  64.342  68.845  0.00  0.00    +0.000 C 
ATOM      6  C   UNL     1      62.112  64.157  68.353  0.00  0.00    +0.000 C 
ATOM      7  C   UNL     1      62.000  63.665  67.701  0.00  0.00    +0.000 C 
ATOM      8  C   UNL     1      62.636  63.479  67.209  0.00  0.00    +0.000 C 
ATOM      9  C   UNL     1      61.251  63.357  67.540  0.00  0.00    +0.000 C 
ATOM     10  C   UNL     1      61.138  62.865  66.889  0.00  0.00    +0.000 C 
ATOM     11  C   UNL     1      60.389  62.557  66.728  0.00  0.00    +0.000 A 
ATOM     12  C   UNL     1      59.753  62.743  67.220  0.00  0.00    +0.000 A 
ATOM     13  C   UNL     1      59.867  63.236  67.872  0.00  0.00    +0.000 C 
ATOM     14  C   UNL     1      60.615  63.543  68.032  0.00  0.00    +0.000 C 
ATOM     15  C   UNL     1      59.979  63.728  68.524  0.00  0.00    +0.000 C 
ATOM     16  C   UNL     1      60.728  64.035  68.684  0.00  0.00    +0.000 C 
ATOM     17  C   UNL     1      60.092  64.221  69.176  0.00  0.00    +0.000 C 
ATOM     18  O   UNL     1      59.343  63.914  69.016  0.00  0.00    +0.000 OA
ATOM     19  C   UNL     1      60.205  64.714  69.828  0.00  0.00    +0.000 C 
ATOM     20  C   UNL     1      60.953  65.021  69.989  0.00  0.00    +0.000 C 
ATOM     21  C   UNL     1      60.374  65.253  70.527  0.00  0.00    +0.000 C 
ATOM     22  C   UNL     1      61.230  65.517  70.587  0.00  0.00    +0.000 C 
ATOM     23  O   UNL     1      60.509  65.607  70.976  0.00  0.00    +0.000 OA
ATOM     24  C   UNL     1      61.166  65.983  71.265  0.00  0.00    +0.000 C 
ATOM     25  O   UNL     1      60.437  66.062  71.642  0.00  0.00    +0.000 OA
ATOM     26  C   UNL     1      61.830  66.367  71.565  0.00  0.00    +0.000 C 
ATOM     27  O   UNL     1      61.767  66.833  72.244  0.00  0.00    +0.000 OA
ATOM     28  C   UNL     1      62.431  67.218  72.544  0.00  0.00    +0.000 C 
ATOM     29  C   UNL     1      62.368  67.683  73.222  0.00  0.00    +0.000 C 
ATOM     30  O   UNL     1      63.161  67.138  72.167  0.00  0.00    +0.000 OA
ATOM     31  C   UNL     1      59.084  62.361  66.925  0.00  0.00    +0.000 A 
ATOM     32  N   UNL     1      59.306  61.940  66.252  0.00  0.00    +0.000 NA
ATOM     33  N   UNL     1      60.113  62.061  66.130  0.00  0.00    +0.000 N 
ATOM     34  C   UNL     1      60.564  61.742  65.517  0.00  0.00    +0.000 A 
ATOM     35  C   UNL     1      61.369  61.913  65.466  0.00  0.00    +0.000 A 
ATOM     36  C   UNL     1      61.820  61.594  64.853  0.00  0.00    +0.000 A 
ATOM     37  C   UNL     1      61.466  61.104  64.292  0.00  0.00    +0.000 A 
ATOM     38  C   UNL     1      60.661  60.933  64.344  0.00  0.00    +0.000 A 
ATOM     39  C   UNL     1      60.210  61.252  64.956  0.00  0.00    +0.000 A 
ENDROOT
TORSDOF 0
ENDMDL
MODEL 2
REMARK VINA RESULT:   -13.512     14.570     15.394
REMARK INTER + INTRA:         -13.512
REMARK INTER:                 -13.512
REMARK INTRA:                   0.000
REMARK UNBOUND:                 0.000
ROOT
REMARK  Name = cortivazol
REMARK                            x       y       z     vdW  Elec       q    Type
REMARK                         _______ _______ _______ _____ _____    ______ ____
ATOM      1  C   UNL     1      62.646  67.111  54.710  0.00  0.00    +0.000 C 
ATOM      2  C   UNL     1      62.404  66.417  54.334  0.00  0.00    +0.000 C 
ATOM      3  C   UNL     1      62.750  65.673  54.421  0.00  0.00    +0.000 C 
ATOM      4  C   UNL     1      62.334  65.142  53.947  0.00  0.00    +0.000 C 
ATOM      5  C   UNL     1      62.427  64.333  53.812  0.00  0.00    +0.000 C 
ATOM      6  C   UNL     1      63.030  63.917  54.192  0.00  0.00    +0.000 C 
ATOM      7  C   UNL     1      63.123  63.110  54.058  0.00  0.00    +0.000 C 
ATOM      8  C   UNL     1      63.727  62.694  54.438  0.00  0.00    +0.000 C 
ATOM      9  C   UNL     1      62.612  62.715  53.542  0.00  0.00    +0.000 C 
ATOM     10  C   UNL     1      62.705  61.908  53.407  0.00  0.00    +0.000 C 
ATOM     11  C   UNL     1      62.195  61.513  52.893  0.00  0.00    +0.000 A 
ATOM     12  C   UNL     1      61.591  61.929  52.513  0.00  0.00    +0.000 A 
ATOM     13  C   UNL     1      61.499  62.737  52.648  0.00  0.00    +0.000 C 
ATOM     14  C   UNL     1      62.009  63.131  53.162  0.00  0.00    +0.000 C 
ATOM     15  C   UNL     1      61.406  63.546  52.782  0.00  0.00    +0.000 C 
ATOM     16  C   UNL     1      61.917  63.939  53.297  0.00  0.00    +0.000 C 
ATOM     17  C   UNL     1      61.313  64.355  52.917  0.00  0.00    +0.000 C 
ATOM     18  O   UNL     1      60.803  63.962  52.402  0.00  0.00    +0.000 OA
ATOM     19  C   UNL     1      61.221  65.163  53.052  0.00  0.00    +0.000 C 
ATOM     20  C   UNL     1      61.731  65.557  53.567  0.00  0.00    +0.000 C 
ATOM     21  C   UNL     1      61.157  66.042  53.229  0.00  0.00    +0.000 C 
ATOM     22  C   UNL     1      61.774  66.345  53.806  0.00  0.00    +0.000 C 
ATOM     23  O   UNL     1      61.136  66.614  53.360  0.00  0.00    +0.000 OA
ATOM     24  C   UNL     1      61.543  67.137  53.825  0.00  0.00    +0.000 C 
ATOM     25  O   UNL     1      60.902  67.390  53.372  0.00  0.00    +0.000 OA
ATOM     26  C   UNL     1      61.954  67.675  54.297  0.00  0.00    +0.000 C 
ATOM     27  O   UNL     1      61.724  68.467  54.316  0.00  0.00    +0.000 OA
ATOM     28  C   UNL     1      62.134  69.005  54.787  0.00  0.00    +0.000 C 
ATOM     29  C   UNL     1      61.904  69.797  54.807  0.00  0.00    +0.000 C 
ATOM     30  O   UNL     1      62.776  68.751  55.240  0.00  0.00    +0.000 OA
ATOM     31  C   UNL     1      61.176  61.397  52.038  0.00  0.00    +0.000 A 
ATOM     32  N   UNL     1      61.522  60.653  52.125  0.00  0.00    +0.000 NA
ATOM     33  N   UNL     1      62.152  60.725  52.653  0.00  0.00    +0.000 N 
ATOM     34  C   UNL     1      62.651  60.116  52.899  0.00  0.00    +0.000 A 
ATOM     35  C   UNL     1      63.260  60.272  53.432  0.00  0.00    +0.000 A 
ATOM     36  C   UNL     1      63.759  59.663  53.678  0.00  0.00    +0.000 A 
ATOM     37  C   UNL     1      63.649  58.898  53.390  0.00  0.00    +0.000 A 
ATOM     38  C   UNL     1      63.040  58.742  52.857  0.00  0.00    +0.000 A 
ATOM     39  C   UNL     1      62.540  59.351  52.611  0.00  0.00    +0.000 A 
ENDROOT
TORSDOF 0
ENDMDL
MODEL 3
REMARK VINA RESULT:   -13.511     24.224     25.088
REMARK INTER + INTRA:         -13.511
REMARK INTER:                 -13.511
REMARK INTRA:                   0.000
REMARK UNBOUND:                 0.000
ROOT
REMARK  Name = cortivazol
REMARK                            x       y       z     vdW  Elec       q    Type
REMARK                         _______ _______ _______ _____ _____    ______ ____
ATOM      1  C   UNL     1      66.758  81.293  54.079  0.00  0.00    +0.000 C 
ATOM      2  C   UNL     1      67.532  81.263  53.794  0.00  0.00    +0.000 C 
ATOM      3  C   UNL     1      67.773  80.928  53.079  0.00  0.00    +0.000 C 
ATOM      4  C   UNL     1      68.591  81.020  53.017  0.00  0.00    +0.000 C 
ATOM      5  C   UNL     1      69.129  80.798  52.433  0.00  0.00    +0.000 C 
ATOM      6  C   UNL     1      68.865  80.405  51.757  0.00  0.00    +0.000 C 
ATOM      7  C   UNL     1      69.402  80.183  51.172  0.00  0.00    +0.000 C 
ATOM      8  C   UNL     1      69.138  79.790  50.496  0.00  0.00    +0.000 C 
ATOM      9  C   UNL     1      70.205  80.353  51.263  0.00  0.00    +0.000 C 
ATOM     10  C   UNL     1      70.742  80.131  50.679  0.00  0.00    +0.000 C 
ATOM     11  C   UNL     1      71.545  80.300  50.769  0.00  0.00    +0.000 A 
ATOM     12  C   UNL     1      71.809  80.693  51.445  0.00  0.00    +0.000 A 
ATOM     13  C   UNL     1      71.271  80.915  52.030  0.00  0.00    +0.000 C 
ATOM     14  C   UNL     1      70.469  80.745  51.939  0.00  0.00    +0.000 C 
ATOM     15  C   UNL     1      70.733  81.138  52.615  0.00  0.00    +0.000 C 
ATOM     16  C   UNL     1      69.931  80.968  52.524  0.00  0.00    +0.000 C 
ATOM     17  C   UNL     1      70.195  81.360  53.200  0.00  0.00    +0.000 C 
ATOM     18  O   UNL     1      70.997  81.530  53.291  0.00  0.00    +0.000 OA
ATOM     19  C   UNL     1      69.657  81.582  53.784  0.00  0.00    +0.000 C 
ATOM     20  C   UNL     1      68.855  81.413  53.693  0.00  0.00    +0.000 C 
ATOM     21  C   UNL     1      69.037  81.806  54.395  0.00  0.00    +0.000 C 
ATOM     22  C   UNL     1      68.201  81.562  54.173  0.00  0.00    +0.000 C 
ATOM     23  O   UNL     1      68.613  81.941  54.779  0.00  0.00    +0.000 OA
ATOM     24  C   UNL     1      67.810  81.851  54.841  0.00  0.00    +0.000 C 
ATOM     25  O   UNL     1      68.237  82.227  55.438  0.00  0.00    +0.000 OA
ATOM     26  C   UNL     1      66.993  81.762  54.910  0.00  0.00    +0.000 C 
ATOM     27  O   UNL     1      66.602  82.049  55.577  0.00  0.00    +0.000 OA
ATOM     28  C   UNL     1      65.786  81.961  55.647  0.00  0.00    +0.000 C 
ATOM     29  C   UNL     1      65.394  82.249  56.314  0.00  0.00    +0.000 C 
ATOM     30  O   UNL     1      65.358  81.585  55.049  0.00  0.00    +0.000 OA
ATOM     31  C   UNL     1      72.626  80.785  51.383  0.00  0.00    +0.000 A 
ATOM     32  N   UNL     1      72.867  80.450  50.669  0.00  0.00    +0.000 NA
ATOM     33  N   UNL     1      72.198  80.150  50.290  0.00  0.00    +0.000 N 
ATOM     34  C   UNL     1      72.186  79.768  49.559  0.00  0.00    +0.000 A 
ATOM     35  C   UNL     1      71.472  79.497  49.248  0.00  0.00    +0.000 A 
ATOM     36  C   UNL     1      71.460  79.114  48.517  0.00  0.00    +0.000 A 
ATOM     37  C   UNL     1      72.161  79.003  48.098  0.00  0.00    +0.000 A 
ATOM     38  C   UNL     1      72.875  79.274  48.409  0.00  0.00    +0.000 A 
ATOM     39  C   UNL     1      72.888  79.657  49.140  0.00  0.00    +0.000 A 
ENDROOT
TORSDOF 0
ENDMDL
MODEL 4
REMARK VINA RESULT:   -13.453     14.492     16.400
REMARK INTER + INTRA:         -13.453
REMARK INTER:                 -13.453
REMARK INTRA:                   0.000
REMARK UNBOUND:                 0.000
ROOT
REMARK  Name = cortivazol
REMARK                            x       y       z     vdW  Elec       q    Type
REMARK                         _______ _______ _______ _____ _____    ______ ____
ATOM      1  C   UNL     1      63.158  62.204  54.108  0.00  0.00    +0.000 C 
ATOM      2  C   UNL     1      62.850  62.889  53.766  0.00  0.00    +0.000 C 
ATOM      3  C   UNL     1      62.732  63.611  54.148  0.00  0.00    +0.000 C 
ATOM      4  C   UNL     1      62.415  64.140  53.601  0.00  0.00    +0.000 C 
ATOM      5  C   UNL     1      62.188  64.930  53.665  0.00  0.00    +0.000 C 
ATOM      6  C   UNL     1      62.266  65.325  54.385  0.00  0.00    +0.000 C 
ATOM      7  C   UNL     1      62.039  66.115  54.450  0.00  0.00    +0.000 C 
ATOM      8  C   UNL     1      62.117  66.510  55.171  0.00  0.00    +0.000 C 
ATOM      9  C   UNL     1      61.732  66.512  53.794  0.00  0.00    +0.000 C 
ATOM     10  C   UNL     1      61.505  67.301  53.858  0.00  0.00    +0.000 C 
ATOM     11  C   UNL     1      61.199  67.698  53.203  0.00  0.00    +0.000 A 
ATOM     12  C   UNL     1      61.120  67.303  52.482  0.00  0.00    +0.000 A 
ATOM     13  C   UNL     1      61.348  66.513  52.418  0.00  0.00    +0.000 C 
ATOM     14  C   UNL     1      61.654  66.117  53.074  0.00  0.00    +0.000 C 
ATOM     15  C   UNL     1      61.576  65.722  52.353  0.00  0.00    +0.000 C 
ATOM     16  C   UNL     1      61.882  65.326  53.010  0.00  0.00    +0.000 C 
ATOM     17  C   UNL     1      61.803  64.932  52.289  0.00  0.00    +0.000 C 
ATOM     18  O   UNL     1      61.497  65.327  51.633  0.00  0.00    +0.000 OA
ATOM     19  C   UNL     1      62.031  64.141  52.225  0.00  0.00    +0.000 C 
ATOM     20  C   UNL     1      62.337  63.745  52.880  0.00  0.00    +0.000 C 
ATOM     21  C   UNL     1      62.291  63.282  52.200  0.00  0.00    +0.000 C 
ATOM     22  C   UNL     1      62.605  62.973  52.982  0.00  0.00    +0.000 C 
ATOM     23  O   UNL     1      62.468  62.721  52.209  0.00  0.00    +0.000 OA
ATOM     24  C   UNL     1      62.779  62.201  52.746  0.00  0.00    +0.000 C 
ATOM     25  O   UNL     1      62.635  61.966  51.969  0.00  0.00    +0.000 OA
ATOM     26  C   UNL     1      63.097  61.666  53.287  0.00  0.00    +0.000 C 
ATOM     27  O   UNL     1      63.271  60.894  53.052  0.00  0.00    +0.000 OA
ATOM     28  C   UNL     1      63.588  60.359  53.592  0.00  0.00    +0.000 C 
ATOM     29  C   UNL     1      63.762  59.587  53.357  0.00  0.00    +0.000 C 
ATOM     30  O   UNL     1      63.732  60.594  54.371  0.00  0.00    +0.000 OA
ATOM     31  C   UNL     1      60.803  67.833  51.935  0.00  0.00    +0.000 A 
ATOM     32  N   UNL     1      60.685  68.555  52.317  0.00  0.00    +0.000 NA
ATOM     33  N   UNL     1      60.930  68.471  53.101  0.00  0.00    +0.000 N 
ATOM     34  C   UNL     1      60.910  69.057  53.680  0.00  0.00    +0.000 A 
ATOM     35  C   UNL     1      61.174  68.892  54.444  0.00  0.00    +0.000 A 
ATOM     36  C   UNL     1      61.153  69.479  55.023  0.00  0.00    +0.000 A 
ATOM     37  C   UNL     1      60.868  70.231  54.839  0.00  0.00    +0.000 A 
ATOM     38  C   UNL     1      60.604  70.396  54.076  0.00  0.00    +0.000 A 
ATOM     39  C   UNL     1      60.625  69.809  53.496  0.00  0.00    +0.000 A 
ENDROOT
TORSDOF 0
ENDMDL
MODEL 5
REMARK VINA RESULT:   -13.253      4.146      6.203
REMARK INTER + INTRA:         -13.253
REMARK INTER:                 -13.253
REMARK INTRA:                   0.000
REMARK UNBOUND:                 0.000
ROOT
REMARK  Name = cortivazol
REMARK                            x       y       z     vdW  Elec       q    Type
REMARK                         _______ _______ _______ _____ _____    ______ ____
ATOM      1  C   UNL     1      66.898  67.626  69.473  0.00  0.00    +0.000 C 
ATOM      2  C   UNL     1      66.318  67.359  69.997  0.00  0.00    +0.000 C 
ATOM      3  C   UNL     1      65.536  67.181  69.805  0.00  0.00    +0.000 C 
ATOM      4  C   UNL     1      65.154  66.935  70.493  0.00  0.00    +0.000 C 
ATOM      5  C   UNL     1      64.379  66.690  70.638  0.00  0.00    +0.000 C 
ATOM      6  C   UNL     1      63.833  66.665  70.020  0.00  0.00    +0.000 C 
ATOM      7  C   UNL     1      63.058  66.421  70.163  0.00  0.00    +0.000 C 
ATOM      8  C   UNL     1      62.512  66.395  69.545  0.00  0.00    +0.000 C 
ATOM      9  C   UNL     1      62.829  66.202  70.926  0.00  0.00    +0.000 C 
ATOM     10  C   UNL     1      62.055  65.958  71.070  0.00  0.00    +0.000 C 
ATOM     11  C   UNL     1      61.826  65.739  71.831  0.00  0.00    +0.000 A 
ATOM     12  C   UNL     1      62.372  65.764  72.449  0.00  0.00    +0.000 A 
ATOM     13  C   UNL     1      63.147  66.009  72.305  0.00  0.00    +0.000 C 
ATOM     14  C   UNL     1      63.376  66.227  71.543  0.00  0.00    +0.000 C 
ATOM     15  C   UNL     1      63.922  66.253  72.161  0.00  0.00    +0.000 C 
ATOM     16  C   UNL     1      64.150  66.472  71.399  0.00  0.00    +0.000 C 
ATOM     17  C   UNL     1      64.697  66.497  72.017  0.00  0.00    +0.000 C 
ATOM     18  O   UNL     1      64.468  66.279  72.779  0.00  0.00    +0.000 OA
ATOM     19  C   UNL     1      65.471  66.742  71.872  0.00  0.00    +0.000 C 
ATOM     20  C   UNL     1      65.700  66.960  71.111  0.00  0.00    +0.000 C 
ATOM     21  C   UNL     1      66.304  67.014  71.670  0.00  0.00    +0.000 C 
ATOM     22  C   UNL     1      66.419  67.222  70.805  0.00  0.00    +0.000 C 
ATOM     23  O   UNL     1      66.840  67.194  71.513  0.00  0.00    +0.000 OA
ATOM     24  C   UNL     1      67.216  67.436  70.838  0.00  0.00    +0.000 C 
ATOM     25  O   UNL     1      67.622  67.403  71.555  0.00  0.00    +0.000 OA
ATOM     26  C   UNL     1      67.605  67.684  70.154  0.00  0.00    +0.000 C 
ATOM     27  O   UNL     1      68.401  67.898  70.186  0.00  0.00    +0.000 OA
ATOM     28  C   UNL     1      68.790  68.145  69.503  0.00  0.00    +0.000 C 
ATOM     29  C   UNL     1      69.587  68.359  69.535  0.00  0.00    +0.000 C 
ATOM     30  O   UNL     1      68.384  68.179  68.785  0.00  0.00    +0.000 OA
ATOM     31  C   UNL     1      61.990  65.518  73.138  0.00  0.00    +0.000 A 
ATOM     32  N   UNL     1      61.208  65.340  72.945  0.00  0.00    +0.000 NA
ATOM     33  N   UNL     1      61.107  65.477  72.138  0.00  0.00    +0.000 N 
ATOM     34  C   UNL     1      60.408  65.370  71.712  0.00  0.00    +0.000 A 
ATOM     35  C   UNL     1      60.390  65.530  70.903  0.00  0.00    +0.000 A 
ATOM     36  C   UNL     1      59.692  65.423  70.477  0.00  0.00    +0.000 A 
ATOM     37  C   UNL     1      59.012  65.156  70.860  0.00  0.00    +0.000 A 
ATOM     38  C   UNL     1      59.030  64.996  71.669  0.00  0.00    +0.000 A 
ATOM     39  C   UNL     1      59.728  65.103  72.095  0.00  0.00    +0.000 A 
ENDROOT
TORSDOF 0
ENDMDL
MODEL 6
REMARK VINA RESULT:   -12.840      3.239      4.892
REMARK INTER + INTRA:         -12.840
REMARK INTER:                 -12.840
REMARK INTRA:                   0.000
REMARK UNBOUND:                 0.000
ROOT
REMARK  Name = cortivazol
REMARK                            x       y       z     vdW  Elec       q    Type
REMARK                         _______ _______ _______ _____ _____    ______ ____
ATOM      1  C   UNL     1      65.836  67.249  69.302  0.00  0.00    +0.000 C 
ATOM      2  C   UNL     1      65.299  66.854  69.788  0.00  0.00    +0.000 C 
ATOM      3  C   UNL     1      64.819  66.221  69.566  0.00  0.00    +0.000 C 
ATOM      4  C   UNL     1      64.371  65.998  70.222  0.00  0.00    +0.000 C 
ATOM      5  C   UNL     1      63.804  65.408  70.330  0.00  0.00    +0.000 C 
ATOM      6  C   UNL     1      63.601  64.912  69.702  0.00  0.00    +0.000 C 
ATOM      7  C   UNL     1      63.035  64.322  69.808  0.00  0.00    +0.000 C 
ATOM      8  C   UNL     1      62.832  63.826  69.181  0.00  0.00    +0.000 C 
ATOM      9  C   UNL     1      62.671  64.228  70.544  0.00  0.00    +0.000 C 
ATOM     10  C   UNL     1      62.105  63.638  70.650  0.00  0.00    +0.000 C 
ATOM     11  C   UNL     1      61.740  63.544  71.385  0.00  0.00    +0.000 A 
ATOM     12  C   UNL     1      61.943  64.040  72.012  0.00  0.00    +0.000 A 
ATOM     13  C   UNL     1      62.509  64.630  71.905  0.00  0.00    +0.000 C 
ATOM     14  C   UNL     1      62.873  64.724  71.171  0.00  0.00    +0.000 C 
ATOM     15  C   UNL     1      63.076  65.220  71.798  0.00  0.00    +0.000 C 
ATOM     16  C   UNL     1      63.440  65.314  71.063  0.00  0.00    +0.000 C 
ATOM     17  C   UNL     1      63.643  65.810  71.691  0.00  0.00    +0.000 C 
ATOM     18  O   UNL     1      63.279  65.716  72.426  0.00  0.00    +0.000 OA
ATOM     19  C   UNL     1      64.210  66.400  71.583  0.00  0.00    +0.000 C 
ATOM     20  C   UNL     1      64.573  66.494  70.850  0.00  0.00    +0.000 C 
ATOM     21  C   UNL     1      64.831  67.029  71.422  0.00  0.00    +0.000 C 
ATOM     22  C   UNL     1      65.147  67.023  70.582  0.00  0.00    +0.000 C 
ATOM     23  O   UNL     1      65.239  67.431  71.292  0.00  0.00    +0.000 OA
ATOM     24  C   UNL     1      65.680  67.650  70.649  0.00  0.00    +0.000 C 
ATOM     25  O   UNL     1      65.760  68.047  71.367  0.00  0.00    +0.000 OA
ATOM     26  C   UNL     1      66.131  67.878  69.998  0.00  0.00    +0.000 C 
ATOM     27  O   UNL     1      66.664  68.504  70.064  0.00  0.00    +0.000 OA
ATOM     28  C   UNL     1      67.116  68.733  69.414  0.00  0.00    +0.000 C 
ATOM     29  C   UNL     1      67.649  69.359  69.480  0.00  0.00    +0.000 C 
ATOM     30  O   UNL     1      67.036  68.335  68.695  0.00  0.00    +0.000 OA
ATOM     31  C   UNL     1      61.494  63.817  72.668  0.00  0.00    +0.000 A 
ATOM     32  N   UNL     1      61.014  63.184  72.446  0.00  0.00    +0.000 NA
ATOM     33  N   UNL     1      61.167  63.015  71.653  0.00  0.00    +0.000 N 
ATOM     34  C   UNL     1      60.808  62.421  71.206  0.00  0.00    +0.000 A 
ATOM     35  C   UNL     1      61.017  62.317  70.415  0.00  0.00    +0.000 A 
ATOM     36  C   UNL     1      60.658  61.724  69.969  0.00  0.00    +0.000 A 
ATOM     37  C   UNL     1      60.091  61.234  70.313  0.00  0.00    +0.000 A 
ATOM     38  C   UNL     1      59.882  61.338  71.104  0.00  0.00    +0.000 A 
ATOM     39  C   UNL     1      60.240  61.932  71.551  0.00  0.00    +0.000 A 
ENDROOT
TORSDOF 0
ENDMDL
MODEL 7
REMARK VINA RESULT:   -12.294      2.209      3.565
REMARK INTER + INTRA:         -12.294
REMARK INTER:                 -12.294
REMARK INTRA:                   0.000
REMARK UNBOUND:                 0.000
ROOT
REMARK  Name = cortivazol
REMARK                            x       y       z     vdW  Elec       q    Type
REMARK                         _______ _______ _______ _____ _____    ______ ____
ATOM      1  C   UNL     1      66.086  65.972  71.456  0.00  0.00    +0.000 C 
ATOM      2  C   UNL     1      65.289  65.943  71.242  0.00  0.00    +0.000 C 
ATOM      3  C   UNL     1      64.949  65.415  70.708  0.00  0.00    +0.000 C 
ATOM      4  C   UNL     1      64.143  65.583  70.660  0.00  0.00    +0.000 C 
ATOM      5  C   UNL     1      63.532  65.242  70.222  0.00  0.00    +0.000 C 
ATOM      6  C   UNL     1      63.691  64.609  69.717  0.00  0.00    +0.000 C 
ATOM      7  C   UNL     1      63.082  64.268  69.279  0.00  0.00    +0.000 C 
ATOM      8  C   UNL     1      63.240  63.635  68.774  0.00  0.00    +0.000 C 
ATOM      9  C   UNL     1      62.312  64.559  69.346  0.00  0.00    +0.000 C 
ATOM     10  C   UNL     1      61.702  64.219  68.908  0.00  0.00    +0.000 C 
ATOM     11  C   UNL     1      60.933  64.510  68.975  0.00  0.00    +0.000 A 
ATOM     12  C   UNL     1      60.774  65.143  69.480  0.00  0.00    +0.000 A 
ATOM     13  C   UNL     1      61.385  65.484  69.918  0.00  0.00    +0.000 C 
ATOM     14  C   UNL     1      62.153  65.192  69.851  0.00  0.00    +0.000 C 
ATOM     15  C   UNL     1      61.995  65.825  70.356  0.00  0.00    +0.000 C 
ATOM     16  C   UNL     1      62.764  65.533  70.289  0.00  0.00    +0.000 C 
ATOM     17  C   UNL     1      62.606  66.166  70.794  0.00  0.00    +0.000 C 
ATOM     18  O   UNL     1      61.837  66.458  70.861  0.00  0.00    +0.000 OA
ATOM     19  C   UNL     1      63.216  66.507  71.232  0.00  0.00    +0.000 C 
ATOM     20  C   UNL     1      63.984  66.216  71.165  0.00  0.00    +0.000 C 
ATOM     21  C   UNL     1      63.910  66.848  71.689  0.00  0.00    +0.000 C 
ATOM     22  C   UNL     1      64.692  66.439  71.525  0.00  0.00    +0.000 C 
ATOM     23  O   UNL     1      64.380  67.053  71.977  0.00  0.00    +0.000 OA
ATOM     24  C   UNL     1      65.171  66.888  72.024  0.00  0.00    +0.000 C 
ATOM     25  O   UNL     1      64.843  67.499  72.470  0.00  0.00    +0.000 OA
ATOM     26  C   UNL     1      65.978  66.726  72.077  0.00  0.00    +0.000 C 
ATOM     27  O   UNL     1      66.458  67.175  72.577  0.00  0.00    +0.000 OA
ATOM     28  C   UNL     1      67.264  67.014  72.630  0.00  0.00    +0.000 C 
ATOM     29  C   UNL     1      67.744  67.463  73.130  0.00  0.00    +0.000 C 
ATOM     30  O   UNL     1      67.593  66.402  72.184  0.00  0.00    +0.000 OA
ATOM     31  C   UNL     1      59.968  65.311  69.432  0.00  0.00    +0.000 A 
ATOM     32  N   UNL     1      59.628  64.782  68.898  0.00  0.00    +0.000 NA
ATOM     33  N   UNL     1      60.225  64.287  68.615  0.00  0.00    +0.000 N 
ATOM     34  C   UNL     1      60.130  63.676  68.069  0.00  0.00    +0.000 A 
ATOM     35  C   UNL     1      60.780  63.225  67.837  0.00  0.00    +0.000 A 
ATOM     36  C   UNL     1      60.685  62.615  67.291  0.00  0.00    +0.000 A 
ATOM     37  C   UNL     1      59.939  62.455  66.976  0.00  0.00    +0.000 A 
ATOM     38  C   UNL     1      59.289  62.906  67.208  0.00  0.00    +0.000 A 
ATOM     39  C   UNL     1      59.384  63.517  67.754  0.00  0.00    +0.000 A 
ENDROOT
TORSDOF 0
ENDMDL
MODEL 8
REMARK VINA RESULT:   -12.244     14.882     16.772
REMARK INTER + INTRA:         -12.244
REMARK INTER:                 -12.244
REMARK INTRA:                   0.000
REMARK UNBOUND:                 0.000
ROOT
REMARK  Name = cortivazol
REMARK                            x       y       z     vdW  Elec       q    Type
REMARK                         _______ _______ _______ _____ _____    ______ ____
ATOM      1  C   UNL     1      63.178  60.044  52.752  0.00  0.00    +0.000 C 
ATOM      2  C   UNL     1      62.819  60.785  52.703  0.00  0.00    +0.000 C 
ATOM      3  C   UNL     1      63.043  61.462  53.120  0.00  0.00    +0.000 C 
ATOM      4  C   UNL     1      62.535  62.075  52.903  0.00  0.00    +0.000 C 
ATOM      5  C   UNL     1      62.493  62.865  53.136  0.00  0.00    +0.000 C 
ATOM      6  C   UNL     1      63.031  63.162  53.686  0.00  0.00    +0.000 C 
ATOM      7  C   UNL     1      62.989  63.952  53.919  0.00  0.00    +0.000 C 
ATOM      8  C   UNL     1      63.528  64.249  54.470  0.00  0.00    +0.000 C 
ATOM      9  C   UNL     1      62.409  64.446  53.602  0.00  0.00    +0.000 C 
ATOM     10  C   UNL     1      62.367  65.235  53.834  0.00  0.00    +0.000 C 
ATOM     11  C   UNL     1      61.787  65.730  53.517  0.00  0.00    +0.000 A 
ATOM     12  C   UNL     1      61.249  65.432  52.967  0.00  0.00    +0.000 A 
ATOM     13  C   UNL     1      61.291  64.642  52.734  0.00  0.00    +0.000 C 
ATOM     14  C   UNL     1      61.871  64.149  53.051  0.00  0.00    +0.000 C 
ATOM     15  C   UNL     1      61.332  63.851  52.501  0.00  0.00    +0.000 C 
ATOM     16  C   UNL     1      61.913  63.358  52.819  0.00  0.00    +0.000 C 
ATOM     17  C   UNL     1      61.375  63.061  52.268  0.00  0.00    +0.000 C 
ATOM     18  O   UNL     1      60.794  63.554  51.951  0.00  0.00    +0.000 OA
ATOM     19  C   UNL     1      61.417  62.270  52.036  0.00  0.00    +0.000 C 
ATOM     20  C   UNL     1      61.997  61.777  52.353  0.00  0.00    +0.000 C 
ATOM     21  C   UNL     1      61.500  61.404  51.811  0.00  0.00    +0.000 C 
ATOM     22  C   UNL     1      62.172  60.981  52.229  0.00  0.00    +0.000 C 
ATOM     23  O   UNL     1      61.574  60.836  51.681  0.00  0.00    +0.000 OA
ATOM     24  C   UNL     1      62.072  60.234  51.893  0.00  0.00    +0.000 C 
ATOM     25  O   UNL     1      61.469  60.106  51.345  0.00  0.00    +0.000 OA
ATOM     26  C   UNL     1      62.576  59.616  52.104  0.00  0.00    +0.000 C 
ATOM     27  O   UNL     1      62.477  58.869  51.768  0.00  0.00    +0.000 OA
ATOM     28  C   UNL     1      62.980  58.251  51.979  0.00  0.00    +0.000 C 
ATOM     29  C   UNL     1      62.881  57.504  51.642  0.00  0.00    +0.000 C 
ATOM     30  O   UNL     1      63.584  58.379  52.526  0.00  0.00    +0.000 OA
ATOM     31  C   UNL     1      60.741  66.045  52.750  0.00  0.00    +0.000 A 
ATOM     32  N   UNL     1      60.965  66.721  53.167  0.00  0.00    +0.000 NA
ATOM     33  N   UNL     1      61.611  66.526  53.641  0.00  0.00    +0.000 N 
ATOM     34  C   UNL     1      62.012  67.037  54.149  0.00  0.00    +0.000 A 
ATOM     35  C   UNL     1      62.652  66.762  54.590  0.00  0.00    +0.000 A 
ATOM     36  C   UNL     1      63.053  67.274  55.098  0.00  0.00    +0.000 A 
ATOM     37  C   UNL     1      62.814  68.060  55.165  0.00  0.00    +0.000 A 
ATOM     38  C   UNL     1      62.174  68.335  54.724  0.00  0.00    +0.000 A 
ATOM     39  C   UNL     1      61.773  67.824  54.216  0.00  0.00    +0.000 A 
ENDROOT
TORSDOF 0
ENDMDL
MODEL 9
REMARK VINA RESULT:   -12.161     14.735     16.624
REMARK INTER + INTRA:         -12.161
REMARK INTER:                 -12.161
REMARK INTRA:                   0.000
REMARK UNBOUND:                 0.000
ROOT
REMARK  Name = cortivazol
REMARK                            x       y       z     vdW  Elec       q    Type
REMARK                         _______ _______ _______ _____ _____    ______ ____
ATOM      1  C   UNL     1      62.049  65.699  52.903  0.00  0.00    +0.000 C 
ATOM      2  C   UNL     1      61.826  66.428  53.219  0.00  0.00    +0.000 C 
ATOM      3  C   UNL     1      61.386  67.009  52.833  0.00  0.00    +0.000 C 
ATOM      4  C   UNL     1      61.292  67.644  53.351  0.00  0.00    +0.000 C 
ATOM      5  C   UNL     1      60.908  68.370  53.272  0.00  0.00    +0.000 C 
ATOM      6  C   UNL     1      60.525  68.559  52.566  0.00  0.00    +0.000 C 
ATOM      7  C   UNL     1      60.141  69.284  52.485  0.00  0.00    +0.000 C 
ATOM      8  C   UNL     1      59.757  69.473  51.779  0.00  0.00    +0.000 C 
ATOM      9  C   UNL     1      60.139  69.822  53.112  0.00  0.00    +0.000 C 
ATOM     10  C   UNL     1      59.756  70.547  53.032  0.00  0.00    +0.000 C 
ATOM     11  C   UNL     1      59.754  71.085  53.658  0.00  0.00    +0.000 A 
ATOM     12  C   UNL     1      60.137  70.896  54.364  0.00  0.00    +0.000 A 
ATOM     13  C   UNL     1      60.521  70.170  54.444  0.00  0.00    +0.000 C 
ATOM     14  C   UNL     1      60.523  69.633  53.818  0.00  0.00    +0.000 C 
ATOM     15  C   UNL     1      60.906  69.444  54.524  0.00  0.00    +0.000 C 
ATOM     16  C   UNL     1      60.907  68.907  53.897  0.00  0.00    +0.000 C 
ATOM     17  C   UNL     1      61.290  68.719  54.603  0.00  0.00    +0.000 C 
ATOM     18  O   UNL     1      61.289  69.256  55.230  0.00  0.00    +0.000 OA
ATOM     19  C   UNL     1      61.674  67.993  54.683  0.00  0.00    +0.000 C 
ATOM     20  C   UNL     1      61.676  67.456  54.057  0.00  0.00    +0.000 C 
ATOM     21  C   UNL     1      62.080  67.192  54.726  0.00  0.00    +0.000 C 
ATOM     22  C   UNL     1      62.005  66.705  53.975  0.00  0.00    +0.000 C 
ATOM     23  O   UNL     1      62.337  66.664  54.729  0.00  0.00    +0.000 OA
ATOM     24  C   UNL     1      62.429  66.040  54.221  0.00  0.00    +0.000 C 
ATOM     25  O   UNL     1      62.754  66.015  54.979  0.00  0.00    +0.000 OA
ATOM     26  C   UNL     1      62.526  65.401  53.709  0.00  0.00    +0.000 C 
ATOM     27  O   UNL     1      62.949  64.736  53.954  0.00  0.00    +0.000 OA
ATOM     28  C   UNL     1      63.047  64.097  53.442  0.00  0.00    +0.000 C 
ATOM     29  C   UNL     1      63.470  63.432  53.687  0.00  0.00    +0.000 C 
ATOM     30  O   UNL     1      62.722  64.121  52.684  0.00  0.00    +0.000 OA
ATOM     31  C   UNL     1      60.044  71.531  54.882  0.00  0.00    +0.000 A 
ATOM     32  N   UNL     1      59.603  72.112  54.497  0.00  0.00    +0.000 NA
ATOM     33  N   UNL     1      59.424  71.836  53.740  0.00  0.00    +0.000 N 
ATOM     34  C   UNL     1      58.991  72.240  53.166  0.00  0.00    +0.000 A 
ATOM     35  C   UNL     1      58.855  71.893  52.431  0.00  0.00    +0.000 A 
ATOM     36  C   UNL     1      58.422  72.297  51.857  0.00  0.00    +0.000 A 
ATOM     37  C   UNL     1      58.125  73.049  52.019  0.00  0.00    +0.000 A 
ATOM     38  C   UNL     1      58.261  73.397  52.754  0.00  0.00    +0.000 A 
ATOM     39  C   UNL     1      58.694  72.993  53.328  0.00  0.00    +0.000 A 
ENDROOT
TORSDOF 0
ENDMDL
