MODEL 1
REMARK VINA RESULT:    -7.816      0.000      0.000
REMARK INTER + INTRA:          -7.816
REMARK INTER:                  -7.816
REMARK INTRA:                   0.000
REMARK UNBOUND:                 0.000
ROOT
REMARK  Name = cotinine
REMARK                            x       y       z     vdW  Elec       q    Type
REMARK                         _______ _______ _______ _____ _____    ______ ____
ATOM      1  C   UNL     1      61.282  62.857  66.810  0.00  0.00    +0.000 C 
ATOM      2  N   UNL     1      60.608  62.484  66.512  0.00  0.00    +0.000 N 
ATOM      3  C   UNL     1      60.557  62.076  65.798  0.00  0.00    +0.000 C 
ATOM      4  C   UNL     1      59.785  61.794  65.720  0.00  0.00    +0.000 C 
ATOM      5  C   UNL     1      59.360  62.029  66.387  0.00  0.00    +0.000 C 
ATOM      6  C   UNL     1      59.869  62.455  66.877  0.00  0.00    +0.000 C 
ATOM      7  O   UNL     1      59.672  62.793  67.604  0.00  0.00    +0.000 OA
ATOM      8  C   UNL     1      61.168  61.968  65.254  0.00  0.00    +0.000 A 
ATOM      9  C   UNL     1      61.916  62.284  65.408  0.00  0.00    +0.000 A 
ATOM     10  N   UNL     1      62.527  62.176  64.865  0.00  0.00    +0.000 NA
ATOM     11  C   UNL     1      62.393  61.753  64.170  0.00  0.00    +0.000 A 
ATOM     12  C   UNL     1      61.646  61.437  64.017  0.00  0.00    +0.000 A 
ATOM     13  C   UNL     1      61.034  61.545  64.560  0.00  0.00    +0.000 A 
ENDROOT
TORSDOF 0
ENDMDL
MODEL 2
REMARK VINA RESULT:    -7.689      1.435      2.780
REMARK INTER + INTRA:          -7.689
REMARK INTER:                  -7.689
REMARK INTRA:                   0.000
REMARK UNBOUND:                 0.000
ROOT
REMARK  Name = cotinine
REMARK                            x       y       z     vdW  Elec       q    Type
REMARK                         _______ _______ _______ _____ _____    ______ ____
ATOM      1  C   UNL     1      62.187  62.518  65.354  0.00  0.00    +0.000 C 
ATOM      2  N   UNL     1      61.678  62.014  64.943  0.00  0.00    +0.000 N 
ATOM      3  C   UNL     1      60.907  61.820  65.162  0.00  0.00    +0.000 C 
ATOM      4  C   UNL     1      60.604  61.303  64.595  0.00  0.00    +0.000 C 
ATOM      5  C   UNL     1      61.188  61.178  64.026  0.00  0.00    +0.000 C 
ATOM      6  C   UNL     1      61.852  61.618  64.241  0.00  0.00    +0.000 C 
ATOM      7  O   UNL     1      62.564  61.653  63.826  0.00  0.00    +0.000 OA
ATOM      8  C   UNL     1      60.508  62.094  65.830  0.00  0.00    +0.000 A 
ATOM      9  C   UNL     1      60.885  62.613  66.350  0.00  0.00    +0.000 A 
ATOM     10  N   UNL     1      60.486  62.887  67.019  0.00  0.00    +0.000 NA
ATOM     11  C   UNL     1      59.712  62.644  67.167  0.00  0.00    +0.000 A 
ATOM     12  C   UNL     1      59.336  62.125  66.646  0.00  0.00    +0.000 A 
ATOM     13  C   UNL     1      59.735  61.851  65.979  0.00  0.00    +0.000 A 
ENDROOT
TORSDOF 0
ENDMDL
MODEL 3
REMARK VINA RESULT:    -6.698      4.449      5.913
REMARK INTER + INTRA:          -6.698
REMARK INTER:                  -6.698
REMARK INTRA:                   0.000
REMARK UNBOUND:                 0.000
ROOT
REMARK  Name = cotinine
REMARK                            x       y       z     vdW  Elec       q    Type
REMARK                         _______ _______ _______ _____ _____    ______ ____
ATOM      1  C   UNL     1      60.809  63.460  69.725  0.00  0.00    +0.000 C 
ATOM      2  N   UNL     1      60.701  62.729  70.093  0.00  0.00    +0.000 N 
ATOM      3  C   UNL     1      60.845  62.560  70.887  0.00  0.00    +0.000 C 
ATOM      4  C   UNL     1      60.663  61.765  71.016  0.00  0.00    +0.000 C 
ATOM      5  C   UNL     1      60.407  61.444  70.301  0.00  0.00    +0.000 C 
ATOM      6  C   UNL     1      60.430  62.039  69.730  0.00  0.00    +0.000 C 
ATOM      7  O   UNL     1      60.219  61.958  68.937  0.00  0.00    +0.000 OA
ATOM      8  C   UNL     1      61.123  63.091  71.454  0.00  0.00    +0.000 A 
ATOM      9  C   UNL     1      61.282  63.873  71.242  0.00  0.00    +0.000 A 
ATOM     10  N   UNL     1      61.559  64.405  71.809  0.00  0.00    +0.000 NA
ATOM     11  C   UNL     1      61.678  64.155  72.587  0.00  0.00    +0.000 A 
ATOM     12  C   UNL     1      61.519  63.373  72.797  0.00  0.00    +0.000 A 
ATOM     13  C   UNL     1      61.242  62.842  72.231  0.00  0.00    +0.000 A 
ENDROOT
TORSDOF 0
ENDMDL
MODEL 4
REMARK VINA RESULT:    -6.683      2.898      4.390
REMARK INTER + INTRA:          -6.683
REMARK INTER:                  -6.683
REMARK INTRA:                   0.000
REMARK UNBOUND:                 0.000
ROOT
REMARK  Name = cotinine
REMARK                            x       y       z     vdW  Elec       q    Type
REMARK                         _______ _______ _______ _____ _____    ______ ____
ATOM      1  C   UNL     1      61.580  63.758  68.719  0.00  0.00    +0.000 C 
ATOM      2  N   UNL     1      61.182  63.103  68.411  0.00  0.00    +0.000 N 
ATOM      3  C   UNL     1      60.826  62.503  68.849  0.00  0.00    +0.000 C 
ATOM      4  C   UNL     1      60.495  61.963  68.320  0.00  0.00    +0.000 C 
ATOM      5  C   UNL     1      60.647  62.231  67.555  0.00  0.00    +0.000 C 
ATOM      6  C   UNL     1      61.072  62.936  67.611  0.00  0.00    +0.000 C 
ATOM      7  O   UNL     1      61.339  63.392  66.977  0.00  0.00    +0.000 OA
ATOM      8  C   UNL     1      60.804  62.449  69.672  0.00  0.00    +0.000 A 
ATOM      9  C   UNL     1      61.162  63.035  70.132  0.00  0.00    +0.000 A 
ATOM     10  N   UNL     1      61.140  62.981  70.955  0.00  0.00    +0.000 NA
ATOM     11  C   UNL     1      60.761  62.345  71.318  0.00  0.00    +0.000 A 
ATOM     12  C   UNL     1      60.404  61.760  70.858  0.00  0.00    +0.000 A 
ATOM     13  C   UNL     1      60.426  61.813  70.036  0.00  0.00    +0.000 A 
ENDROOT
TORSDOF 0
ENDMDL
MODEL 5
REMARK VINA RESULT:    -6.633      4.678      5.880
REMARK INTER + INTRA:          -6.633
REMARK INTER:                  -6.633
REMARK INTRA:                   0.000
REMARK UNBOUND:                 0.000
ROOT
REMARK  Name = cotinine
REMARK                            x       y       z     vdW  Elec       q    Type
REMARK                         _______ _______ _______ _____ _____    ______ ____
ATOM      1  C   UNL     1      61.617  64.443  71.022  0.00  0.00    +0.000 C 
ATOM      2  N   UNL     1      61.529  63.912  71.649  0.00  0.00    +0.000 N 
ATOM      3  C   UNL     1      61.235  63.145  71.596  0.00  0.00    +0.000 C 
ATOM      4  C   UNL     1      61.244  62.815  72.353  0.00  0.00    +0.000 C 
ATOM      5  C   UNL     1      61.544  63.381  72.873  0.00  0.00    +0.000 C 
ATOM      6  C   UNL     1      61.720  64.060  72.438  0.00  0.00    +0.000 C 
ATOM      7  O   UNL     1      62.033  64.761  72.740  0.00  0.00    +0.000 OA
ATOM      8  C   UNL     1      60.976  62.769  70.908  0.00  0.00    +0.000 A 
ATOM      9  C   UNL     1      61.000  63.171  70.187  0.00  0.00    +0.000 A 
ATOM     10  N   UNL     1      60.742  62.796  69.499  0.00  0.00    +0.000 NA
ATOM     11  C   UNL     1      60.460  62.021  69.531  0.00  0.00    +0.000 A 
ATOM     12  C   UNL     1      60.437  61.621  70.252  0.00  0.00    +0.000 A 
ATOM     13  C   UNL     1      60.695  61.996  70.940  0.00  0.00    +0.000 A 
ENDROOT
TORSDOF 0
ENDMDL
MODEL 6
REMARK VINA RESULT:    -6.633      3.013      3.937
REMARK INTER + INTRA:          -6.633
REMARK INTER:                  -6.633
REMARK INTRA:                   0.000
REMARK UNBOUND:                 0.000
ROOT
REMARK  Name = cotinine
REMARK                            x       y       z     vdW  Elec       q    Type
REMARK                         _______ _______ _______ _____ _____    ______ ____
ATOM      1  C   UNL     1      61.617  63.451  70.307  0.00  0.00    +0.000 C 
ATOM      2  N   UNL     1      61.148  62.772  70.352  0.00  0.00    +0.000 N 
ATOM      3  C   UNL     1      60.823  62.364  69.714  0.00  0.00    +0.000 C 
ATOM      4  C   UNL     1      60.397  61.724  70.012  0.00  0.00    +0.000 C 
ATOM      5  C   UNL     1      60.459  61.736  70.835  0.00  0.00    +0.000 C 
ATOM      6  C   UNL     1      60.924  62.385  71.045  0.00  0.00    +0.000 C 
ATOM      7  O   UNL     1      61.127  62.606  71.814  0.00  0.00    +0.000 OA
ATOM      8  C   UNL     1      60.909  62.561  68.917  0.00  0.00    +0.000 A 
ATOM      9  C   UNL     1      61.355  63.222  68.702  0.00  0.00    +0.000 A 
ATOM     10  N   UNL     1      61.440  63.418  67.905  0.00  0.00    +0.000 NA
ATOM     11  C   UNL     1      61.081  62.955  67.325  0.00  0.00    +0.000 A 
ATOM     12  C   UNL     1      60.635  62.295  67.541  0.00  0.00    +0.000 A 
ATOM     13  C   UNL     1      60.550  62.099  68.337  0.00  0.00    +0.000 A 
ENDROOT
TORSDOF 0
ENDMDL
MODEL 7
REMARK VINA RESULT:    -6.485      6.808      8.080
REMARK INTER + INTRA:          -6.485
REMARK INTER:                  -6.485
REMARK INTRA:                   0.000
REMARK UNBOUND:                 0.000
ROOT
REMARK  Name = cotinine
REMARK                            x       y       z     vdW  Elec       q    Type
REMARK                         _______ _______ _______ _____ _____    ______ ____
ATOM      1  C   UNL     1      65.677  66.245  71.753  0.00  0.00    +0.000 C 
ATOM      2  N   UNL     1      65.804  66.693  71.070  0.00  0.00    +0.000 N 
ATOM      3  C   UNL     1      65.308  66.724  70.412  0.00  0.00    +0.000 C 
ATOM      4  C   UNL     1      65.646  67.239  69.863  0.00  0.00    +0.000 C 
ATOM      5  C   UNL     1      66.351  67.526  70.182  0.00  0.00    +0.000 C 
ATOM      6  C   UNL     1      66.448  67.189  70.929  0.00  0.00    +0.000 C 
ATOM      7  O   UNL     1      67.080  67.324  71.443  0.00  0.00    +0.000 OA
ATOM      8  C   UNL     1      64.599  66.313  70.318  0.00  0.00    +0.000 A 
ATOM      9  C   UNL     1      64.329  65.815  70.919  0.00  0.00    +0.000 A 
ATOM     10  N   UNL     1      63.620  65.404  70.825  0.00  0.00    +0.000 NA
ATOM     11  C   UNL     1      63.182  65.490  70.132  0.00  0.00    +0.000 A 
ATOM     12  C   UNL     1      63.452  65.988  69.532  0.00  0.00    +0.000 A 
ATOM     13  C   UNL     1      64.160  66.398  69.626  0.00  0.00    +0.000 A 
ENDROOT
TORSDOF 0
ENDMDL
MODEL 8
REMARK VINA RESULT:    -6.378      6.136      7.401
REMARK INTER + INTRA:          -6.378
REMARK INTER:                  -6.378
REMARK INTRA:                   0.000
REMARK UNBOUND:                 0.000
ROOT
REMARK  Name = cotinine
REMARK                            x       y       z     vdW  Elec       q    Type
REMARK                         _______ _______ _______ _____ _____    ______ ____
ATOM      1  C   UNL     1      63.534  65.557  71.396  0.00  0.00    +0.000 C 
ATOM      2  N   UNL     1      63.819  65.331  70.654  0.00  0.00    +0.000 N 
ATOM      3  C   UNL     1      64.427  65.699  70.237  0.00  0.00    +0.000 C 
ATOM      4  C   UNL     1      64.529  65.294  69.525  0.00  0.00    +0.000 C 
ATOM      5  C   UNL     1      63.983  64.675  69.503  0.00  0.00    +0.000 C 
ATOM      6  C   UNL     1      63.544  64.698  70.202  0.00  0.00    +0.000 C 
ATOM      7  O   UNL     1      62.937  64.180  70.409  0.00  0.00    +0.000 OA
ATOM      8  C   UNL     1      64.859  66.357  70.485  0.00  0.00    +0.000 A 
ATOM      9  C   UNL     1      64.693  66.705  71.215  0.00  0.00    +0.000 A 
ATOM     10  N   UNL     1      65.125  67.363  71.464  0.00  0.00    +0.000 NA
ATOM     11  C   UNL     1      65.721  67.672  70.984  0.00  0.00    +0.000 A 
ATOM     12  C   UNL     1      65.885  67.322  70.255  0.00  0.00    +0.000 A 
ATOM     13  C   UNL     1      65.454  66.666  70.006  0.00  0.00    +0.000 A 
ENDROOT
TORSDOF 0
ENDMDL
MODEL 9
REMARK VINA RESULT:    -6.268     24.984     25.760
REMARK INTER + INTRA:          -6.268
REMARK INTER:                  -6.268
REMARK INTRA:                   0.000
REMARK UNBOUND:                 0.000
ROOT
REMARK  Name = cotinine
REMARK                            x       y       z     vdW  Elec       q    Type
REMARK                         _______ _______ _______ _____ _____    ______ ____
ATOM      1  C   UNL     1      72.269  79.992  49.616  0.00  0.00    +0.000 C 
ATOM      2  N   UNL     1      71.748  79.423  49.322  0.00  0.00    +0.000 N 
ATOM      3  C   UNL     1      70.978  79.290  49.586  0.00  0.00    +0.000 C 
ATOM      4  C   UNL     1      70.660  78.673  49.140  0.00  0.00    +0.000 C 
ATOM      5  C   UNL     1      71.234  78.425  48.601  0.00  0.00    +0.000 C 
ATOM      6  C   UNL     1      71.906  78.890  48.714  0.00  0.00    +0.000 C 
ATOM      7  O   UNL     1      72.613  78.829  48.291  0.00  0.00    +0.000 OA
ATOM      8  C   UNL     1      70.593  79.700  50.189  0.00  0.00    +0.000 A 
ATOM      9  C   UNL     1      70.984  80.308  50.588  0.00  0.00    +0.000 A 
ATOM     10  N   UNL     1      70.598  80.718  51.191  0.00  0.00    +0.000 NA
ATOM     11  C   UNL     1      69.824  80.522  51.395  0.00  0.00    +0.000 A 
ATOM     12  C   UNL     1      69.434  79.914  50.995  0.00  0.00    +0.000 A 
ATOM     13  C   UNL     1      69.818  79.504  50.393  0.00  0.00    +0.000 A 
ENDROOT
TORSDOF 0
ENDMDL
