MODEL 1
REMARK VINA RESULT:   -10.663      0.000      0.000
REMARK INTER + INTRA:         -10.663
REMARK INTER:                 -10.663
REMARK INTRA:                   0.000
REMARK UNBOUND:                 0.000
ROOT
REMARK  Name = coumafos
REMARK                            x       y       z     vdW  Elec       q    Type
REMARK                         _______ _______ _______ _____ _____    ______ ____
ATOM      1  C   UNL     1      63.173  64.941  70.058  0.00  0.00    +0.000 C 
ATOM      2  C   UNL     1      62.444  64.604  69.872  0.00  0.00    +0.000 C 
ATOM      3  O   UNL     1      62.342  64.212  69.153  0.00  0.00    +0.000 OA
ATOM      4  P   UNL     1      61.613  63.874  68.967  0.00  0.00    +0.000 P 
ATOM      5  S   UNL     1      61.917  63.616  68.245  0.00  0.00    +0.000 S 
ATOM      6  O   UNL     1      61.310  64.132  69.690  0.00  0.00    +0.000 OA
ATOM      7  C   UNL     1      60.525  63.968  69.890  0.00  0.00    +0.000 C 
ATOM      8  C   UNL     1      60.046  63.547  69.368  0.00  0.00    +0.000 C 
ATOM      9  O   UNL     1      60.884  63.536  68.781  0.00  0.00    +0.000 OA
ATOM     10  C   UNL     1      60.783  63.144  68.062  0.00  0.00    +0.000 A 
ATOM     11  C   UNL     1      60.052  62.806  67.876  0.00  0.00    +0.000 A 
ATOM     12  C   UNL     1      59.951  62.415  67.158  0.00  0.00    +0.000 A 
ATOM     13  C   UNL     1      60.578  62.360  66.625  0.00  0.00    +0.000 A 
ATOM     14  C   UNL     1      60.477  61.968  65.906  0.00  0.00    +0.000 A 
ATOM     15  C   UNL     1      59.747  61.631  65.720  0.00  0.00    +0.000 C 
ATOM     16  C   UNL     1      61.103  61.914  65.374  0.00  0.00    +0.000 A 
ATOM     17 CL   UNL     1      61.002  61.522  64.655  0.00  0.00    +0.000 Cl
ATOM     18  C   UNL     1      61.834  62.252  65.560  0.00  0.00    +0.000 A 
ATOM     19  O   UNL     1      62.461  62.197  65.027  0.00  0.00    +0.000 OA
ATOM     20  O   UNL     1      61.935  62.644  66.278  0.00  0.00    +0.000 OA
ATOM     21  C   UNL     1      61.308  62.698  66.812  0.00  0.00    +0.000 A 
ATOM     22  C   UNL     1      61.409  63.090  67.530  0.00  0.00    +0.000 A 
ENDROOT
TORSDOF 0
ENDMDL
MODEL 2
REMARK VINA RESULT:   -10.556      1.816      3.925
REMARK INTER + INTRA:         -10.556
REMARK INTER:                 -10.556
REMARK INTRA:                   0.000
REMARK UNBOUND:                 0.000
ROOT
REMARK  Name = coumafos
REMARK                            x       y       z     vdW  Elec       q    Type
REMARK                         _______ _______ _______ _____ _____    ______ ____
ATOM      1  C   UNL     1      62.331  61.995  64.245  0.00  0.00    +0.000 C 
ATOM      2  C   UNL     1      61.701  62.027  64.777  0.00  0.00    +0.000 C 
ATOM      3  O   UNL     1      61.809  62.362  65.523  0.00  0.00    +0.000 OA
ATOM      4  P   UNL     1      61.179  62.394  66.056  0.00  0.00    +0.000 P 
ATOM      5  S   UNL     1      61.667  62.763  66.610  0.00  0.00    +0.000 S 
ATOM      6  O   UNL     1      60.692  62.025  65.501  0.00  0.00    +0.000 OA
ATOM      7  C   UNL     1      59.903  61.868  65.685  0.00  0.00    +0.000 C 
ATOM      8  C   UNL     1      59.602  62.080  66.423  0.00  0.00    +0.000 C 
ATOM      9  O   UNL     1      60.550  62.426  66.588  0.00  0.00    +0.000 OA
ATOM     10  C   UNL     1      60.658  62.761  67.334  0.00  0.00    +0.000 A 
ATOM     11  C   UNL     1      60.027  62.793  67.867  0.00  0.00    +0.000 A 
ATOM     12  C   UNL     1      60.134  63.128  68.612  0.00  0.00    +0.000 A 
ATOM     13  C   UNL     1      60.870  63.432  68.826  0.00  0.00    +0.000 A 
ATOM     14  C   UNL     1      60.978  63.767  69.572  0.00  0.00    +0.000 A 
ATOM     15  C   UNL     1      60.348  63.799  70.105  0.00  0.00    +0.000 C 
ATOM     16  C   UNL     1      61.714  64.070  69.786  0.00  0.00    +0.000 A 
ATOM     17 CL   UNL     1      61.822  64.406  70.533  0.00  0.00    +0.000 Cl
ATOM     18  C   UNL     1      62.344  64.039  69.254  0.00  0.00    +0.000 A 
ATOM     19  O   UNL     1      63.081  64.343  69.468  0.00  0.00    +0.000 OA
ATOM     20  O   UNL     1      62.237  63.704  68.508  0.00  0.00    +0.000 OA
ATOM     21  C   UNL     1      61.501  63.400  68.293  0.00  0.00    +0.000 A 
ATOM     22  C   UNL     1      61.394  63.065  67.548  0.00  0.00    +0.000 A 
ENDROOT
TORSDOF 0
ENDMDL
MODEL 3
REMARK VINA RESULT:   -10.303      4.191      6.122
REMARK INTER + INTRA:         -10.303
REMARK INTER:                 -10.303
REMARK INTRA:                   0.000
REMARK UNBOUND:                 0.000
ROOT
REMARK  Name = coumafos
REMARK                            x       y       z     vdW  Elec       q    Type
REMARK                         _______ _______ _______ _____ _____    ______ ____
ATOM      1  C   UNL     1      61.263  63.616  72.343  0.00  0.00    +0.000 C 
ATOM      2  C   UNL     1      61.518  64.020  71.670  0.00  0.00    +0.000 C 
ATOM      3  O   UNL     1      62.229  64.438  71.685  0.00  0.00    +0.000 OA
ATOM      4  P   UNL     1      62.484  64.841  71.012  0.00  0.00    +0.000 P 
ATOM      5  S   UNL     1      63.158  65.091  71.417  0.00  0.00    +0.000 S 
ATOM      6  O   UNL     1      61.810  64.592  70.607  0.00  0.00    +0.000 OA
ATOM      7  C   UNL     1      61.694  64.816  69.821  0.00  0.00    +0.000 C 
ATOM      8  C   UNL     1      62.252  65.291  69.441  0.00  0.00    +0.000 C 
ATOM      9  O   UNL     1      62.739  65.245  70.339  0.00  0.00    +0.000 OA
ATOM     10  C   UNL     1      63.450  65.663  70.354  0.00  0.00    +0.000 A 
ATOM     11  C   UNL     1      63.705  66.067  69.680  0.00  0.00    +0.000 A 
ATOM     12  C   UNL     1      64.416  66.485  69.695  0.00  0.00    +0.000 A 
ATOM     13  C   UNL     1      64.872  66.500  70.381  0.00  0.00    +0.000 A 
ATOM     14  C   UNL     1      65.583  66.918  70.396  0.00  0.00    +0.000 A 
ATOM     15  C   UNL     1      65.838  67.321  69.723  0.00  0.00    +0.000 C 
ATOM     16  C   UNL     1      66.039  66.932  71.083  0.00  0.00    +0.000 A 
ATOM     17 CL   UNL     1      66.750  67.351  71.097  0.00  0.00    +0.000 Cl
ATOM     18  C   UNL     1      65.784  66.528  71.756  0.00  0.00    +0.000 A 
ATOM     19  O   UNL     1      66.241  66.543  72.443  0.00  0.00    +0.000 OA
ATOM     20  O   UNL     1      65.074  66.111  71.742  0.00  0.00    +0.000 OA
ATOM     21  C   UNL     1      64.617  66.096  71.055  0.00  0.00    +0.000 A 
ATOM     22  C   UNL     1      63.906  65.678  71.040  0.00  0.00    +0.000 A 
ENDROOT
TORSDOF 0
ENDMDL
MODEL 4
REMARK VINA RESULT:    -9.917      1.607      2.527
REMARK INTER + INTRA:          -9.917
REMARK INTER:                  -9.917
REMARK INTRA:                   0.000
REMARK UNBOUND:                 0.000
ROOT
REMARK  Name = coumafos
REMARK                            x       y       z     vdW  Elec       q    Type
REMARK                         _______ _______ _______ _____ _____    ______ ____
ATOM      1  C   UNL     1      64.699  66.490  69.905  0.00  0.00    +0.000 C 
ATOM      2  C   UNL     1      64.154  65.979  70.256  0.00  0.00    +0.000 C 
ATOM      3  O   UNL     1      63.696  65.480  69.786  0.00  0.00    +0.000 OA
ATOM      4  P   UNL     1      63.151  64.969  70.136  0.00  0.00    +0.000 P 
ATOM      5  S   UNL     1      62.936  64.687  69.391  0.00  0.00    +0.000 S 
ATOM      6  O   UNL     1      63.367  65.250  70.881  0.00  0.00    +0.000 OA
ATOM      7  C   UNL     1      63.003  64.948  71.558  0.00  0.00    +0.000 C 
ATOM      8  C   UNL     1      62.424  64.365  71.489  0.00  0.00    +0.000 C 
ATOM      9  O   UNL     1      62.607  64.458  70.487  0.00  0.00    +0.000 OA
ATOM     10  C   UNL     1      62.148  63.958  70.017  0.00  0.00    +0.000 A 
ATOM     11  C   UNL     1      61.603  63.447  70.368  0.00  0.00    +0.000 A 
ATOM     12  C   UNL     1      61.145  62.948  69.898  0.00  0.00    +0.000 A 
ATOM     13  C   UNL     1      61.230  62.959  69.078  0.00  0.00    +0.000 A 
ATOM     14  C   UNL     1      60.771  62.460  68.608  0.00  0.00    +0.000 A 
ATOM     15  C   UNL     1      60.227  61.949  68.959  0.00  0.00    +0.000 C 
ATOM     16  C   UNL     1      60.857  62.471  67.788  0.00  0.00    +0.000 A 
ATOM     17 CL   UNL     1      60.398  61.972  67.318  0.00  0.00    +0.000 Cl
ATOM     18  C   UNL     1      61.402  62.983  67.437  0.00  0.00    +0.000 A 
ATOM     19  O   UNL     1      61.487  62.994  66.616  0.00  0.00    +0.000 OA
ATOM     20  O   UNL     1      61.860  63.482  67.906  0.00  0.00    +0.000 OA
ATOM     21  C   UNL     1      61.775  63.471  68.727  0.00  0.00    +0.000 A 
ATOM     22  C   UNL     1      62.234  63.970  69.197  0.00  0.00    +0.000 A 
ENDROOT
TORSDOF 0
ENDMDL
MODEL 5
REMARK VINA RESULT:    -9.786      2.844      5.084
REMARK INTER + INTRA:          -9.786
REMARK INTER:                  -9.786
REMARK INTRA:                   0.000
REMARK UNBOUND:                 0.000
ROOT
REMARK  Name = coumafos
REMARK                            x       y       z     vdW  Elec       q    Type
REMARK                         _______ _______ _______ _____ _____    ______ ____
ATOM      1  C   UNL     1      61.214  63.076  67.075  0.00  0.00    +0.000 C 
ATOM      2  C   UNL     1      61.034  62.903  67.861  0.00  0.00    +0.000 C 
ATOM      3  O   UNL     1      60.755  63.498  68.361  0.00  0.00    +0.000 OA
ATOM      4  P   UNL     1      60.575  63.325  69.147  0.00  0.00    +0.000 P 
ATOM      5  S   UNL     1      60.357  64.111  69.270  0.00  0.00    +0.000 S 
ATOM      6  O   UNL     1      60.792  62.539  69.024  0.00  0.00    +0.000 OA
ATOM      7  C   UNL     1      60.745  61.995  69.644  0.00  0.00    +0.000 C 
ATOM      8  C   UNL     1      60.480  62.239  70.386  0.00  0.00    +0.000 C 
ATOM      9  O   UNL     1      60.395  63.152  69.933  0.00  0.00    +0.000 OA
ATOM     10  C   UNL     1      60.116  63.747  70.433  0.00  0.00    +0.000 A 
ATOM     11  C   UNL     1      59.936  63.574  71.220  0.00  0.00    +0.000 A 
ATOM     12  C   UNL     1      59.657  64.168  71.719  0.00  0.00    +0.000 A 
ATOM     13  C   UNL     1      59.559  64.935  71.433  0.00  0.00    +0.000 A 
ATOM     14  C   UNL     1      59.280  65.530  71.932  0.00  0.00    +0.000 A 
ATOM     15  C   UNL     1      59.100  65.356  72.719  0.00  0.00    +0.000 C 
ATOM     16  C   UNL     1      59.182  66.296  71.646  0.00  0.00    +0.000 A 
ATOM     17 CL   UNL     1      58.903  66.891  72.146  0.00  0.00    +0.000 Cl
ATOM     18  C   UNL     1      59.362  66.470  70.859  0.00  0.00    +0.000 A 
ATOM     19  O   UNL     1      59.264  67.237  70.573  0.00  0.00    +0.000 OA
ATOM     20  O   UNL     1      59.641  65.876  70.360  0.00  0.00    +0.000 OA
ATOM     21  C   UNL     1      59.739  65.108  70.646  0.00  0.00    +0.000 A 
ATOM     22  C   UNL     1      60.018  64.514  70.147  0.00  0.00    +0.000 A 
ENDROOT
TORSDOF 0
ENDMDL
MODEL 6
REMARK VINA RESULT:    -9.749      2.733      3.968
REMARK INTER + INTRA:          -9.749
REMARK INTER:                  -9.749
REMARK INTRA:                   0.000
REMARK UNBOUND:                 0.000
ROOT
REMARK  Name = coumafos
REMARK                            x       y       z     vdW  Elec       q    Type
REMARK                         _______ _______ _______ _____ _____    ______ ____
ATOM      1  C   UNL     1      60.512  67.992  71.085  0.00  0.00    +0.000 C 
ATOM      2  C   UNL     1      60.499  67.285  71.511  0.00  0.00    +0.000 C 
ATOM      3  O   UNL     1      60.490  66.564  71.111  0.00  0.00    +0.000 OA
ATOM      4  P   UNL     1      60.478  65.857  71.536  0.00  0.00    +0.000 P 
ATOM      5  S   UNL     1      60.474  65.432  70.829  0.00  0.00    +0.000 S 
ATOM      6  O   UNL     1      60.481  66.282  72.243  0.00  0.00    +0.000 OA
ATOM      7  C   UNL     1      60.473  65.883  72.965  0.00  0.00    +0.000 C 
ATOM      8  C   UNL     1      60.460  65.058  72.980  0.00  0.00    +0.000 C 
ATOM      9  O   UNL     1      60.466  65.150  71.961  0.00  0.00    +0.000 OA
ATOM     10  C   UNL     1      60.456  64.429  71.561  0.00  0.00    +0.000 A 
ATOM     11  C   UNL     1      60.444  63.721  71.987  0.00  0.00    +0.000 A 
ATOM     12  C   UNL     1      60.435  63.000  71.588  0.00  0.00    +0.000 A 
ATOM     13  C   UNL     1      60.438  62.985  70.764  0.00  0.00    +0.000 A 
ATOM     14  C   UNL     1      60.428  62.263  70.363  0.00  0.00    +0.000 A 
ATOM     15  C   UNL     1      60.416  61.556  70.789  0.00  0.00    +0.000 C 
ATOM     16  C   UNL     1      60.432  62.248  69.539  0.00  0.00    +0.000 A 
ATOM     17 CL   UNL     1      60.422  61.526  69.139  0.00  0.00    +0.000 Cl
ATOM     18  C   UNL     1      60.444  62.955  69.113  0.00  0.00    +0.000 A 
ATOM     19  O   UNL     1      60.447  62.940  68.288  0.00  0.00    +0.000 OA
ATOM     20  O   UNL     1      60.453  63.677  69.513  0.00  0.00    +0.000 OA
ATOM     21  C   UNL     1      60.450  63.692  70.338  0.00  0.00    +0.000 A 
ATOM     22  C   UNL     1      60.459  64.413  70.737  0.00  0.00    +0.000 A 
ENDROOT
TORSDOF 0
ENDMDL
MODEL 7
REMARK VINA RESULT:    -9.686      2.311      4.611
REMARK INTER + INTRA:          -9.686
REMARK INTER:                  -9.686
REMARK INTRA:                   0.000
REMARK UNBOUND:                 0.000
ROOT
REMARK  Name = coumafos
REMARK                            x       y       z     vdW  Elec       q    Type
REMARK                         _______ _______ _______ _____ _____    ______ ____
ATOM      1  C   UNL     1      61.359  62.942  66.178  0.00  0.00    +0.000 C 
ATOM      2  C   UNL     1      61.163  62.751  66.956  0.00  0.00    +0.000 C 
ATOM      3  O   UNL     1      61.433  63.222  67.578  0.00  0.00    +0.000 OA
ATOM      4  P   UNL     1      61.236  63.030  68.356  0.00  0.00    +0.000 P 
ATOM      5  S   UNL     1      61.661  63.685  68.624  0.00  0.00    +0.000 S 
ATOM      6  O   UNL     1      60.812  62.376  68.087  0.00  0.00    +0.000 OA
ATOM      7  C   UNL     1      60.429  61.882  68.627  0.00  0.00    +0.000 C 
ATOM      8  C   UNL     1      60.472  62.044  69.435  0.00  0.00    +0.000 C 
ATOM      9  O   UNL     1      61.040  62.839  69.134  0.00  0.00    +0.000 OA
ATOM     10  C   UNL     1      61.310  63.310  69.755  0.00  0.00    +0.000 A 
ATOM     11  C   UNL     1      61.113  63.118  70.534  0.00  0.00    +0.000 A 
ATOM     12  C   UNL     1      61.383  63.589  71.155  0.00  0.00    +0.000 A 
ATOM     13  C   UNL     1      61.848  64.251  70.998  0.00  0.00    +0.000 A 
ATOM     14  C   UNL     1      62.118  64.723  71.619  0.00  0.00    +0.000 A 
ATOM     15  C   UNL     1      61.922  64.531  72.397  0.00  0.00    +0.000 C 
ATOM     16  C   UNL     1      62.583  65.385  71.463  0.00  0.00    +0.000 A 
ATOM     17 CL   UNL     1      62.853  65.857  72.084  0.00  0.00    +0.000 Cl
ATOM     18  C   UNL     1      62.780  65.577  70.684  0.00  0.00    +0.000 A 
ATOM     19  O   UNL     1      63.246  66.240  70.528  0.00  0.00    +0.000 OA
ATOM     20  O   UNL     1      62.511  65.106  70.063  0.00  0.00    +0.000 OA
ATOM     21  C   UNL     1      62.045  64.443  70.219  0.00  0.00    +0.000 A 
ATOM     22  C   UNL     1      61.775  63.973  69.598  0.00  0.00    +0.000 A 
ENDROOT
TORSDOF 0
ENDMDL
MODEL 8
REMARK VINA RESULT:    -9.571      3.876      5.105
REMARK INTER + INTRA:          -9.571
REMARK INTER:                  -9.571
REMARK INTRA:                   0.000
REMARK UNBOUND:                 0.000
ROOT
REMARK  Name = coumafos
REMARK                            x       y       z     vdW  Elec       q    Type
REMARK                         _______ _______ _______ _____ _____    ______ ____
ATOM      1  C   UNL     1      65.397  66.776  69.828  0.00  0.00    +0.000 C 
ATOM      2  C   UNL     1      64.869  66.753  70.461  0.00  0.00    +0.000 C 
ATOM      3  O   UNL     1      64.313  66.146  70.511  0.00  0.00    +0.000 OA
ATOM      4  P   UNL     1      63.784  66.123  71.144  0.00  0.00    +0.000 P 
ATOM      5  S   UNL     1      63.446  65.435  70.837  0.00  0.00    +0.000 S 
ATOM      6  O   UNL     1      64.122  66.810  71.451  0.00  0.00    +0.000 OA
ATOM      7  C   UNL     1      63.833  67.134  72.154  0.00  0.00    +0.000 C 
ATOM      8  C   UNL     1      63.207  66.769  72.548  0.00  0.00    +0.000 C 
ATOM      9  O   UNL     1      63.256  66.099  71.777  0.00  0.00    +0.000 OA
ATOM     10  C   UNL     1      62.699  65.492  71.827  0.00  0.00    +0.000 A 
ATOM     11  C   UNL     1      62.170  65.469  72.461  0.00  0.00    +0.000 A 
ATOM     12  C   UNL     1      61.614  64.862  72.512  0.00  0.00    +0.000 A 
ATOM     13  C   UNL     1      61.586  64.279  71.930  0.00  0.00    +0.000 A 
ATOM     14  C   UNL     1      61.029  63.672  71.980  0.00  0.00    +0.000 A 
ATOM     15  C   UNL     1      60.501  63.649  72.613  0.00  0.00    +0.000 C 
ATOM     16  C   UNL     1      61.001  63.089  71.398  0.00  0.00    +0.000 A 
ATOM     17 CL   UNL     1      60.444  62.482  71.448  0.00  0.00    +0.000 Cl
ATOM     18  C   UNL     1      61.530  63.112  70.764  0.00  0.00    +0.000 A 
ATOM     19  O   UNL     1      61.501  62.528  70.182  0.00  0.00    +0.000 OA
ATOM     20  O   UNL     1      62.086  63.719  70.713  0.00  0.00    +0.000 OA
ATOM     21  C   UNL     1      62.115  64.303  71.296  0.00  0.00    +0.000 A 
ATOM     22  C   UNL     1      62.671  64.909  71.245  0.00  0.00    +0.000 A 
ENDROOT
TORSDOF 0
ENDMDL
MODEL 9
REMARK VINA RESULT:    -9.436      5.037      6.022
REMARK INTER + INTRA:          -9.436
REMARK INTER:                  -9.436
REMARK INTRA:                   0.000
REMARK UNBOUND:                 0.000
ROOT
REMARK  Name = coumafos
REMARK                            x       y       z     vdW  Elec       q    Type
REMARK                         _______ _______ _______ _____ _____    ______ ____
ATOM      1  C   UNL     1      65.642  67.583  70.290  0.00  0.00    +0.000 C 
ATOM      2  C   UNL     1      65.275  66.847  70.345  0.00  0.00    +0.000 C 
ATOM      3  O   UNL     1      64.559  66.773  70.748  0.00  0.00    +0.000 OA
ATOM      4  P   UNL     1      64.192  66.036  70.803  0.00  0.00    +0.000 P 
ATOM      5  S   UNL     1      63.577  66.375  71.237  0.00  0.00    +0.000 S 
ATOM      6  O   UNL     1      64.806  65.697  70.369  0.00  0.00    +0.000 OA
ATOM      7  C   UNL     1      64.795  64.889  70.200  0.00  0.00    +0.000 C 
ATOM      8  C   UNL     1      64.170  64.421  70.464  0.00  0.00    +0.000 C 
ATOM      9  O   UNL     1      63.824  65.299  70.858  0.00  0.00    +0.000 OA
ATOM     10  C   UNL     1      63.108  65.225  71.262  0.00  0.00    +0.000 A 
ATOM     11  C   UNL     1      62.740  64.488  71.317  0.00  0.00    +0.000 A 
ATOM     12  C   UNL     1      62.025  64.413  71.719  0.00  0.00    +0.000 A 
ATOM     13  C   UNL     1      61.677  65.074  72.068  0.00  0.00    +0.000 A 
ATOM     14  C   UNL     1      60.961  65.000  72.471  0.00  0.00    +0.000 A 
ATOM     15  C   UNL     1      60.593  64.264  72.526  0.00  0.00    +0.000 C 
ATOM     16  C   UNL     1      60.612  65.661  72.819  0.00  0.00    +0.000 A 
ATOM     17 CL   UNL     1      59.896  65.587  73.222  0.00  0.00    +0.000 Cl
ATOM     18  C   UNL     1      60.980  66.399  72.764  0.00  0.00    +0.000 A 
ATOM     19  O   UNL     1      60.631  67.060  73.113  0.00  0.00    +0.000 OA
ATOM     20  O   UNL     1      61.695  66.473  72.361  0.00  0.00    +0.000 OA
ATOM     21  C   UNL     1      62.044  65.812  72.013  0.00  0.00    +0.000 A 
ATOM     22  C   UNL     1      62.760  65.886  71.610  0.00  0.00    +0.000 A 
ENDROOT
TORSDOF 0
ENDMDL
