MODEL 1
REMARK VINA RESULT:    -8.857      0.000      0.000
REMARK INTER + INTRA:          -8.857
REMARK INTER:                  -8.857
REMARK INTRA:                   0.000
REMARK UNBOUND:                 0.000
ROOT
REMARK  Name = crotamiton
REMARK                            x       y       z     vdW  Elec       q    Type
REMARK                         _______ _______ _______ _____ _____    ______ ____
ATOM      1  C   UNL     1      59.553  61.718  65.753  0.00  0.00    +0.000 C 
ATOM      2  C   UNL     1      60.297  61.736  65.396  0.00  0.00    +0.000 C 
ATOM      3  N   UNL     1      60.925  62.113  65.774  0.00  0.00    +0.000 N 
ATOM      4  C   UNL     1      61.670  62.131  65.418  0.00  0.00    +0.000 C 
ATOM      5  O   UNL     1      62.299  62.509  65.796  0.00  0.00    +0.000 OA
ATOM      6  C   UNL     1      61.785  61.772  64.684  0.00  0.00    +0.000 C 
ATOM      7  C   UNL     1      61.155  61.395  64.306  0.00  0.00    +0.000 C 
ATOM      8  C   UNL     1      61.270  61.036  63.572  0.00  0.00    +0.000 C 
ATOM      9  C   UNL     1      60.811  62.471  66.508  0.00  0.00    +0.000 A 
ATOM     10  C   UNL     1      60.067  62.453  66.864  0.00  0.00    +0.000 A 
ATOM     11  C   UNL     1      59.439  62.076  66.486  0.00  0.00    +0.000 C 
ATOM     12  C   UNL     1      59.953  62.812  67.598  0.00  0.00    +0.000 A 
ATOM     13  C   UNL     1      60.582  63.189  67.975  0.00  0.00    +0.000 A 
ATOM     14  C   UNL     1      61.326  63.207  67.620  0.00  0.00    +0.000 A 
ATOM     15  C   UNL     1      61.441  62.849  66.886  0.00  0.00    +0.000 A 
ENDROOT
TORSDOF 0
ENDMDL
MODEL 2
REMARK VINA RESULT:    -8.811      0.569      2.778
REMARK INTER + INTRA:          -8.811
REMARK INTER:                  -8.811
REMARK INTRA:                   0.000
REMARK UNBOUND:                 0.000
ROOT
REMARK  Name = crotamiton
REMARK                            x       y       z     vdW  Elec       q    Type
REMARK                         _______ _______ _______ _____ _____    ______ ____
ATOM      1  C   UNL     1      59.402  62.084  66.383  0.00  0.00    +0.000 C 
ATOM      2  C   UNL     1      59.959  62.479  66.846  0.00  0.00    +0.000 C 
ATOM      3  N   UNL     1      60.750  62.497  66.613  0.00  0.00    +0.000 N 
ATOM      4  C   UNL     1      61.307  62.892  67.076  0.00  0.00    +0.000 C 
ATOM      5  O   UNL     1      62.099  62.911  66.843  0.00  0.00    +0.000 OA
ATOM      6  C   UNL     1      61.073  63.269  67.772  0.00  0.00    +0.000 C 
ATOM      7  C   UNL     1      60.281  63.251  68.004  0.00  0.00    +0.000 C 
ATOM      8  C   UNL     1      60.047  63.628  68.700  0.00  0.00    +0.000 C 
ATOM      9  C   UNL     1      60.983  62.121  65.918  0.00  0.00    +0.000 A 
ATOM     10  C   UNL     1      60.427  61.726  65.455  0.00  0.00    +0.000 A 
ATOM     11  C   UNL     1      59.636  61.708  65.688  0.00  0.00    +0.000 C 
ATOM     12  C   UNL     1      60.661  61.349  64.759  0.00  0.00    +0.000 A 
ATOM     13  C   UNL     1      61.452  61.367  64.527  0.00  0.00    +0.000 A 
ATOM     14  C   UNL     1      62.010  61.762  64.990  0.00  0.00    +0.000 A 
ATOM     15  C   UNL     1      61.775  62.139  65.685  0.00  0.00    +0.000 A 
ENDROOT
TORSDOF 0
ENDMDL
MODEL 3
REMARK VINA RESULT:    -8.116      3.104      4.954
REMARK INTER + INTRA:          -8.116
REMARK INTER:                  -8.116
REMARK INTRA:                   0.000
REMARK UNBOUND:                 0.000
ROOT
REMARK  Name = crotamiton
REMARK                            x       y       z     vdW  Elec       q    Type
REMARK                         _______ _______ _______ _____ _____    ______ ____
ATOM      1  C   UNL     1      60.438  61.647  70.610  0.00  0.00    +0.000 C 
ATOM      2  C   UNL     1      60.883  62.268  70.922  0.00  0.00    +0.000 C 
ATOM      3  N   UNL     1      61.205  62.837  70.419  0.00  0.00    +0.000 N 
ATOM      4  C   UNL     1      61.650  63.458  70.732  0.00  0.00    +0.000 C 
ATOM      5  O   UNL     1      61.973  64.028  70.229  0.00  0.00    +0.000 OA
ATOM      6  C   UNL     1      61.772  63.510  71.546  0.00  0.00    +0.000 C 
ATOM      7  C   UNL     1      61.449  62.940  72.048  0.00  0.00    +0.000 C 
ATOM      8  C   UNL     1      61.571  62.991  72.862  0.00  0.00    +0.000 C 
ATOM      9  C   UNL     1      61.083  62.785  69.606  0.00  0.00    +0.000 A 
ATOM     10  C   UNL     1      60.638  62.165  69.294  0.00  0.00    +0.000 A 
ATOM     11  C   UNL     1      60.316  61.596  69.796  0.00  0.00    +0.000 C 
ATOM     12  C   UNL     1      60.516  62.113  68.479  0.00  0.00    +0.000 A 
ATOM     13  C   UNL     1      60.838  62.682  67.978  0.00  0.00    +0.000 A 
ATOM     14  C   UNL     1      61.284  63.304  68.289  0.00  0.00    +0.000 A 
ATOM     15  C   UNL     1      61.406  63.355  69.103  0.00  0.00    +0.000 A 
ENDROOT
TORSDOF 0
ENDMDL
MODEL 4
REMARK VINA RESULT:    -7.966      3.118      4.353
REMARK INTER + INTRA:          -7.966
REMARK INTER:                  -7.966
REMARK INTRA:                   0.000
REMARK UNBOUND:                 0.000
ROOT
REMARK  Name = crotamiton
REMARK                            x       y       z     vdW  Elec       q    Type
REMARK                         _______ _______ _______ _____ _____    ______ ____
ATOM      1  C   UNL     1      60.404  61.513  70.475  0.00  0.00    +0.000 C 
ATOM      2  C   UNL     1      60.564  62.004  69.831  0.00  0.00    +0.000 C 
ATOM      3  N   UNL     1      60.977  62.709  69.945  0.00  0.00    +0.000 N 
ATOM      4  C   UNL     1      61.137  63.201  69.302  0.00  0.00    +0.000 C 
ATOM      5  O   UNL     1      61.550  63.907  69.415  0.00  0.00    +0.000 OA
ATOM      6  C   UNL     1      60.886  62.987  68.546  0.00  0.00    +0.000 C 
ATOM      7  C   UNL     1      60.473  62.281  68.433  0.00  0.00    +0.000 C 
ATOM      8  C   UNL     1      60.221  62.067  67.677  0.00  0.00    +0.000 C 
ATOM      9  C   UNL     1      61.228  62.923  70.700  0.00  0.00    +0.000 A 
ATOM     10  C   UNL     1      61.068  62.432  71.343  0.00  0.00    +0.000 A 
ATOM     11  C   UNL     1      60.655  61.727  71.230  0.00  0.00    +0.000 C 
ATOM     12  C   UNL     1      61.320  62.646  72.099  0.00  0.00    +0.000 A 
ATOM     13  C   UNL     1      61.732  63.351  72.212  0.00  0.00    +0.000 A 
ATOM     14  C   UNL     1      61.893  63.843  71.569  0.00  0.00    +0.000 A 
ATOM     15  C   UNL     1      61.641  63.629  70.813  0.00  0.00    +0.000 A 
ENDROOT
TORSDOF 0
ENDMDL
MODEL 5
REMARK VINA RESULT:    -7.839      4.320      5.787
REMARK INTER + INTRA:          -7.839
REMARK INTER:                  -7.839
REMARK INTRA:                   0.000
REMARK UNBOUND:                 0.000
ROOT
REMARK  Name = crotamiton
REMARK                            x       y       z     vdW  Elec       q    Type
REMARK                         _______ _______ _______ _____ _____    ______ ____
ATOM      1  C   UNL     1      61.668  63.434  72.482  0.00  0.00    +0.000 C 
ATOM      2  C   UNL     1      62.013  63.861  71.867  0.00  0.00    +0.000 C 
ATOM      3  N   UNL     1      61.876  63.639  71.084  0.00  0.00    +0.000 N 
ATOM      4  C   UNL     1      62.221  64.066  70.468  0.00  0.00    +0.000 C 
ATOM      5  O   UNL     1      62.084  63.844  69.685  0.00  0.00    +0.000 OA
ATOM      6  C   UNL     1      62.703  64.715  70.634  0.00  0.00    +0.000 C 
ATOM      7  C   UNL     1      62.839  64.937  71.418  0.00  0.00    +0.000 C 
ATOM      8  C   UNL     1      63.320  65.586  71.584  0.00  0.00    +0.000 C 
ATOM      9  C   UNL     1      61.395  62.991  70.918  0.00  0.00    +0.000 A 
ATOM     10  C   UNL     1      61.051  62.563  71.534  0.00  0.00    +0.000 A 
ATOM     11  C   UNL     1      61.188  62.786  72.316  0.00  0.00    +0.000 C 
ATOM     12  C   UNL     1      60.569  61.914  71.367  0.00  0.00    +0.000 A 
ATOM     13  C   UNL     1      60.433  61.693  70.585  0.00  0.00    +0.000 A 
ATOM     14  C   UNL     1      60.777  62.119  69.968  0.00  0.00    +0.000 A 
ATOM     15  C   UNL     1      61.258  62.768  70.135  0.00  0.00    +0.000 A 
ENDROOT
TORSDOF 0
ENDMDL
MODEL 6
REMARK VINA RESULT:    -7.769      6.416      7.610
REMARK INTER + INTRA:          -7.769
REMARK INTER:                  -7.769
REMARK INTRA:                   0.000
REMARK UNBOUND:                 0.000
ROOT
REMARK  Name = crotamiton
REMARK                            x       y       z     vdW  Elec       q    Type
REMARK                         _______ _______ _______ _____ _____    ______ ____
ATOM      1  C   UNL     1      64.624  65.910  69.510  0.00  0.00    +0.000 C 
ATOM      2  C   UNL     1      65.001  66.486  69.965  0.00  0.00    +0.000 C 
ATOM      3  N   UNL     1      64.724  66.658  70.723  0.00  0.00    +0.000 N 
ATOM      4  C   UNL     1      65.101  67.235  71.178  0.00  0.00    +0.000 C 
ATOM      5  O   UNL     1      64.825  67.407  71.937  0.00  0.00    +0.000 OA
ATOM      6  C   UNL     1      65.754  67.638  70.875  0.00  0.00    +0.000 C 
ATOM      7  C   UNL     1      66.030  67.465  70.117  0.00  0.00    +0.000 C 
ATOM      8  C   UNL     1      66.682  67.868  69.814  0.00  0.00    +0.000 C 
ATOM      9  C   UNL     1      64.072  66.255  71.025  0.00  0.00    +0.000 A 
ATOM     10  C   UNL     1      63.695  65.679  70.571  0.00  0.00    +0.000 A 
ATOM     11  C   UNL     1      63.972  65.507  69.813  0.00  0.00    +0.000 C 
ATOM     12  C   UNL     1      63.042  65.276  70.874  0.00  0.00    +0.000 A 
ATOM     13  C   UNL     1      62.767  65.449  71.631  0.00  0.00    +0.000 A 
ATOM     14  C   UNL     1      63.143  66.025  72.087  0.00  0.00    +0.000 A 
ATOM     15  C   UNL     1      63.796  66.428  71.784  0.00  0.00    +0.000 A 
ENDROOT
TORSDOF 0
ENDMDL
MODEL 7
REMARK VINA RESULT:    -7.700     25.055     25.973
REMARK INTER + INTRA:          -7.700
REMARK INTER:                  -7.700
REMARK INTRA:                   0.000
REMARK UNBOUND:                 0.000
ROOT
REMARK  Name = crotamiton
REMARK                            x       y       z     vdW  Elec       q    Type
REMARK                         _______ _______ _______ _____ _____    ______ ____
ATOM      1  C   UNL     1      70.246  78.547  49.480  0.00  0.00    +0.000 C 
ATOM      2  C   UNL     1      70.219  79.188  49.998  0.00  0.00    +0.000 C 
ATOM      3  N   UNL     1      70.876  79.682  50.075  0.00  0.00    +0.000 N 
ATOM      4  C   UNL     1      70.850  80.324  50.594  0.00  0.00    +0.000 C 
ATOM      5  O   UNL     1      71.506  80.818  50.671  0.00  0.00    +0.000 OA
ATOM      6  C   UNL     1      70.168  80.471  51.034  0.00  0.00    +0.000 C 
ATOM      7  C   UNL     1      69.512  79.977  50.956  0.00  0.00    +0.000 C 
ATOM      8  C   UNL     1      68.830  80.124  51.397  0.00  0.00    +0.000 C 
ATOM      9  C   UNL     1      71.557  79.534  49.636  0.00  0.00    +0.000 A 
ATOM     10  C   UNL     1      71.583  78.893  49.117  0.00  0.00    +0.000 A 
ATOM     11  C   UNL     1      70.927  78.400  49.040  0.00  0.00    +0.000 C 
ATOM     12  C   UNL     1      72.265  78.746  48.677  0.00  0.00    +0.000 A 
ATOM     13  C   UNL     1      72.920  79.239  48.755  0.00  0.00    +0.000 A 
ATOM     14  C   UNL     1      72.895  79.881  49.273  0.00  0.00    +0.000 A 
ATOM     15  C   UNL     1      72.213  80.029  49.713  0.00  0.00    +0.000 A 
ENDROOT
TORSDOF 0
ENDMDL
MODEL 8
REMARK VINA RESULT:    -7.673      3.946      5.349
REMARK INTER + INTRA:          -7.673
REMARK INTER:                  -7.673
REMARK INTRA:                   0.000
REMARK UNBOUND:                 0.000
ROOT
REMARK  Name = crotamiton
REMARK                            x       y       z     vdW  Elec       q    Type
REMARK                         _______ _______ _______ _____ _____    ______ ____
ATOM      1  C   UNL     1      60.090  63.946  71.815  0.00  0.00    +0.000 C 
ATOM      2  C   UNL     1      60.008  64.393  71.127  0.00  0.00    +0.000 C 
ATOM      3  N   UNL     1      60.113  64.038  70.390  0.00  0.00    +0.000 N 
ATOM      4  C   UNL     1      60.031  64.486  69.701  0.00  0.00    +0.000 C 
ATOM      5  O   UNL     1      60.136  64.130  68.963  0.00  0.00    +0.000 OA
ATOM      6  C   UNL     1      59.842  65.287  69.750  0.00  0.00    +0.000 C 
ATOM      7  C   UNL     1      59.737  65.642  70.488  0.00  0.00    +0.000 C 
ATOM      8  C   UNL     1      59.549  66.443  70.537  0.00  0.00    +0.000 C 
ATOM      9  C   UNL     1      60.301  63.237  70.341  0.00  0.00    +0.000 A 
ATOM     10  C   UNL     1      60.384  62.790  71.029  0.00  0.00    +0.000 A 
ATOM     11  C   UNL     1      60.278  63.145  71.766  0.00  0.00    +0.000 C 
ATOM     12  C   UNL     1      60.572  61.988  70.981  0.00  0.00    +0.000 A 
ATOM     13  C   UNL     1      60.678  61.634  70.244  0.00  0.00    +0.000 A 
ATOM     14  C   UNL     1      60.595  62.080  69.555  0.00  0.00    +0.000 A 
ATOM     15  C   UNL     1      60.407  62.882  69.604  0.00  0.00    +0.000 A 
ENDROOT
TORSDOF 0
ENDMDL
MODEL 9
REMARK VINA RESULT:    -7.436      5.776      6.500
REMARK INTER + INTRA:          -7.436
REMARK INTER:                  -7.436
REMARK INTRA:                   0.000
REMARK UNBOUND:                 0.000
ROOT
REMARK  Name = crotamiton
REMARK                            x       y       z     vdW  Elec       q    Type
REMARK                         _______ _______ _______ _____ _____    ______ ____
ATOM      1  C   UNL     1      63.073  66.123  71.942  0.00  0.00    +0.000 C 
ATOM      2  C   UNL     1      63.447  65.794  71.285  0.00  0.00    +0.000 C 
ATOM      3  N   UNL     1      63.237  65.039  71.027  0.00  0.00    +0.000 N 
ATOM      4  C   UNL     1      63.611  64.709  70.369  0.00  0.00    +0.000 C 
ATOM      5  O   UNL     1      63.400  63.953  70.111  0.00  0.00    +0.000 OA
ATOM      6  C   UNL     1      64.194  65.134  69.970  0.00  0.00    +0.000 C 
ATOM      7  C   UNL     1      64.404  65.889  70.229  0.00  0.00    +0.000 C 
ATOM      8  C   UNL     1      64.988  66.314  69.829  0.00  0.00    +0.000 C 
ATOM      9  C   UNL     1      62.654  64.615  71.426  0.00  0.00    +0.000 A 
ATOM     10  C   UNL     1      62.280  64.944  72.083  0.00  0.00    +0.000 A 
ATOM     11  C   UNL     1      62.490  65.699  72.341  0.00  0.00    +0.000 C 
ATOM     12  C   UNL     1      61.696  64.519  72.482  0.00  0.00    +0.000 A 
ATOM     13  C   UNL     1      61.486  63.765  72.224  0.00  0.00    +0.000 A 
ATOM     14  C   UNL     1      61.860  63.434  71.567  0.00  0.00    +0.000 A 
ATOM     15  C   UNL     1      62.443  63.859  71.168  0.00  0.00    +0.000 A 
ENDROOT
TORSDOF 0
ENDMDL
