MODEL 1
REMARK VINA RESULT:    -9.749      0.000      0.000
REMARK INTER + INTRA:          -9.749
REMARK INTER:                  -9.749
REMARK INTRA:                   0.000
REMARK UNBOUND:                 0.000
ROOT
REMARK  Name = cycloxilic acid
REMARK                            x       y       z     vdW  Elec       q    Type
REMARK                         _______ _______ _______ _____ _____    ______ ____
ATOM      1  O   UNL     1      61.801  63.089  66.967  0.00  0.00    +0.000 OA
ATOM      2  C   UNL     1      61.467  62.645  66.358  0.00  0.00    +0.000 C 
ATOM      3  O   UNL     1      62.107  62.548  65.846  0.00  0.00    +0.000 OA
ATOM      4  C   UNL     1      60.672  62.427  66.394  0.00  0.00    +0.000 C 
ATOM      5  C   UNL     1      60.211  62.653  67.039  0.00  0.00    +0.000 C 
ATOM      6  C   UNL     1      59.416  62.436  67.076  0.00  0.00    +0.000 C 
ATOM      7  C   UNL     1      59.082  61.991  66.466  0.00  0.00    +0.000 C 
ATOM      8  C   UNL     1      59.543  61.764  65.820  0.00  0.00    +0.000 C 
ATOM      9  C   UNL     1      60.338  61.982  65.785  0.00  0.00    +0.000 C 
ATOM     10  O   UNL     1      60.440  61.603  65.059  0.00  0.00    +0.000 OA
ATOM     11  C   UNL     1      61.051  61.962  65.370  0.00  0.00    +0.000 A 
ATOM     12  C   UNL     1      61.097  61.567  64.647  0.00  0.00    +0.000 A 
ATOM     13  C   UNL     1      61.810  61.546  64.232  0.00  0.00    +0.000 A 
ATOM     14  C   UNL     1      62.477  61.921  64.542  0.00  0.00    +0.000 A 
ATOM     15  C   UNL     1      62.431  62.316  65.264  0.00  0.00    +0.000 A 
ATOM     16  C   UNL     1      61.718  62.337  65.679  0.00  0.00    +0.000 A 
ENDROOT
TORSDOF 0
ENDMDL
MODEL 2
REMARK VINA RESULT:    -9.687      0.414      2.353
REMARK INTER + INTRA:          -9.687
REMARK INTER:                  -9.687
REMARK INTRA:                   0.000
REMARK UNBOUND:                 0.000
ROOT
REMARK  Name = cycloxilic acid
REMARK                            x       y       z     vdW  Elec       q    Type
REMARK                         _______ _______ _______ _____ _____    ______ ____
ATOM      1  O   UNL     1      62.259  62.843  66.384  0.00  0.00    +0.000 OA
ATOM      2  C   UNL     1      61.576  62.489  66.089  0.00  0.00    +0.000 C 
ATOM      3  O   UNL     1      61.029  62.648  66.687  0.00  0.00    +0.000 OA
ATOM      4  C   UNL     1      61.591  62.106  65.359  0.00  0.00    +0.000 C 
ATOM      5  C   UNL     1      62.291  62.077  64.923  0.00  0.00    +0.000 C 
ATOM      6  C   UNL     1      62.308  61.695  64.193  0.00  0.00    +0.000 C 
ATOM      7  C   UNL     1      61.623  61.340  63.897  0.00  0.00    +0.000 C 
ATOM      8  C   UNL     1      60.923  61.368  64.333  0.00  0.00    +0.000 C 
ATOM      9  C   UNL     1      60.908  61.752  65.064  0.00  0.00    +0.000 C 
ATOM     10  O   UNL     1      60.108  61.577  65.171  0.00  0.00    +0.000 OA
ATOM     11  C   UNL     1      60.470  61.976  65.726  0.00  0.00    +0.000 A 
ATOM     12  C   UNL     1      59.673  61.775  65.782  0.00  0.00    +0.000 A 
ATOM     13  C   UNL     1      59.235  62.000  66.444  0.00  0.00    +0.000 A 
ATOM     14  C   UNL     1      59.597  62.426  67.051  0.00  0.00    +0.000 A 
ATOM     15  C   UNL     1      60.394  62.628  66.996  0.00  0.00    +0.000 A 
ATOM     16  C   UNL     1      60.832  62.403  66.333  0.00  0.00    +0.000 A 
ENDROOT
TORSDOF 0
ENDMDL
MODEL 3
REMARK VINA RESULT:    -8.383      5.436      6.675
REMARK INTER + INTRA:          -8.383
REMARK INTER:                  -8.383
REMARK INTRA:                   0.000
REMARK UNBOUND:                 0.000
ROOT
REMARK  Name = cycloxilic acid
REMARK                            x       y       z     vdW  Elec       q    Type
REMARK                         _______ _______ _______ _____ _____    ______ ____
ATOM      1  O   UNL     1      61.999  63.341  72.976  0.00  0.00    +0.000 OA
ATOM      2  C   UNL     1      61.308  63.402  72.531  0.00  0.00    +0.000 C 
ATOM      3  O   UNL     1      60.985  64.108  72.812  0.00  0.00    +0.000 OA
ATOM      4  C   UNL     1      61.120  62.820  71.978  0.00  0.00    +0.000 C 
ATOM      5  C   UNL     1      61.625  62.176  71.870  0.00  0.00    +0.000 C 
ATOM      6  C   UNL     1      61.438  61.593  71.317  0.00  0.00    +0.000 C 
ATOM      7  C   UNL     1      60.746  61.654  70.871  0.00  0.00    +0.000 C 
ATOM      8  C   UNL     1      60.241  62.298  70.979  0.00  0.00    +0.000 C 
ATOM      9  C   UNL     1      60.429  62.880  71.532  0.00  0.00    +0.000 C 
ATOM     10  O   UNL     1      59.745  63.308  71.357  0.00  0.00    +0.000 OA
ATOM     11  C   UNL     1      60.221  63.590  71.898  0.00  0.00    +0.000 A 
ATOM     12  C   UNL     1      59.525  63.976  71.684  0.00  0.00    +0.000 A 
ATOM     13  C   UNL     1      59.317  64.686  72.050  0.00  0.00    +0.000 A 
ATOM     14  C   UNL     1      59.807  65.009  72.630  0.00  0.00    +0.000 A 
ATOM     15  C   UNL     1      60.503  64.624  72.844  0.00  0.00    +0.000 A 
ATOM     16  C   UNL     1      60.711  63.913  72.478  0.00  0.00    +0.000 A 
ENDROOT
TORSDOF 0
ENDMDL
MODEL 4
REMARK VINA RESULT:    -8.356      2.765      3.754
REMARK INTER + INTRA:          -8.356
REMARK INTER:                  -8.356
REMARK INTRA:                   0.000
REMARK UNBOUND:                 0.000
ROOT
REMARK  Name = cycloxilic acid
REMARK                            x       y       z     vdW  Elec       q    Type
REMARK                         _______ _______ _______ _____ _____    ______ ____
ATOM      1  O   UNL     1      61.885  64.023  69.783  0.00  0.00    +0.000 OA
ATOM      2  C   UNL     1      61.435  63.397  69.490  0.00  0.00    +0.000 C 
ATOM      3  O   UNL     1      61.446  63.543  68.678  0.00  0.00    +0.000 OA
ATOM      4  C   UNL     1      61.118  62.839  70.009  0.00  0.00    +0.000 C 
ATOM      5  C   UNL     1      61.251  62.908  70.820  0.00  0.00    +0.000 C 
ATOM      6  C   UNL     1      60.934  62.350  71.339  0.00  0.00    +0.000 C 
ATOM      7  C   UNL     1      60.484  61.723  71.046  0.00  0.00    +0.000 C 
ATOM      8  C   UNL     1      60.351  61.655  70.234  0.00  0.00    +0.000 C 
ATOM      9  C   UNL     1      60.668  62.213  69.716  0.00  0.00    +0.000 C 
ATOM     10  O   UNL     1      60.343  61.831  69.061  0.00  0.00    +0.000 OA
ATOM     11  C   UNL     1      60.759  62.473  68.938  0.00  0.00    +0.000 A 
ATOM     12  C   UNL     1      60.411  62.053  68.320  0.00  0.00    +0.000 A 
ATOM     13  C   UNL     1      60.502  62.313  67.542  0.00  0.00    +0.000 A 
ATOM     14  C   UNL     1      60.940  62.994  67.384  0.00  0.00    +0.000 A 
ATOM     15  C   UNL     1      61.287  63.414  68.002  0.00  0.00    +0.000 A 
ATOM     16  C   UNL     1      61.197  63.154  68.780  0.00  0.00    +0.000 A 
ENDROOT
TORSDOF 0
ENDMDL
MODEL 5
REMARK VINA RESULT:    -8.229      6.333      7.500
REMARK INTER + INTRA:          -8.229
REMARK INTER:                  -8.229
REMARK INTRA:                   0.000
REMARK UNBOUND:                 0.000
ROOT
REMARK  Name = cycloxilic acid
REMARK                            x       y       z     vdW  Elec       q    Type
REMARK                         _______ _______ _______ _____ _____    ______ ____
ATOM      1  O   UNL     1      64.057  66.419  72.167  0.00  0.00    +0.000 OA
ATOM      2  C   UNL     1      64.293  66.206  71.406  0.00  0.00    +0.000 C 
ATOM      3  O   UNL     1      63.837  65.532  71.268  0.00  0.00    +0.000 OA
ATOM      4  C   UNL     1      64.858  66.656  71.007  0.00  0.00    +0.000 C 
ATOM      5  C   UNL     1      65.186  67.320  71.370  0.00  0.00    +0.000 C 
ATOM      6  C   UNL     1      65.751  67.770  70.973  0.00  0.00    +0.000 C 
ATOM      7  C   UNL     1      65.987  67.557  70.211  0.00  0.00    +0.000 C 
ATOM      8  C   UNL     1      65.659  66.893  69.848  0.00  0.00    +0.000 C 
ATOM      9  C   UNL     1      65.094  66.443  70.247  0.00  0.00    +0.000 C 
ATOM     10  O   UNL     1      65.020  65.920  69.612  0.00  0.00    +0.000 OA
ATOM     11  C   UNL     1      64.586  65.792  70.240  0.00  0.00    +0.000 A 
ATOM     12  C   UNL     1      64.552  65.302  69.578  0.00  0.00    +0.000 A 
ATOM     13  C   UNL     1      64.045  64.651  69.571  0.00  0.00    +0.000 A 
ATOM     14  C   UNL     1      63.571  64.492  70.228  0.00  0.00    +0.000 A 
ATOM     15  C   UNL     1      63.605  64.982  70.890  0.00  0.00    +0.000 A 
ATOM     16  C   UNL     1      64.112  65.632  70.897  0.00  0.00    +0.000 A 
ENDROOT
TORSDOF 0
ENDMDL
MODEL 6
REMARK VINA RESULT:    -8.063      2.737      4.129
REMARK INTER + INTRA:          -8.063
REMARK INTER:                  -8.063
REMARK INTRA:                   0.000
REMARK UNBOUND:                 0.000
ROOT
REMARK  Name = cycloxilic acid
REMARK                            x       y       z     vdW  Elec       q    Type
REMARK                         _______ _______ _______ _____ _____    ______ ____
ATOM      1  O   UNL     1      61.590  64.232  69.325  0.00  0.00    +0.000 OA
ATOM      2  C   UNL     1      61.222  63.497  69.386  0.00  0.00    +0.000 C 
ATOM      3  O   UNL     1      61.306  63.329  70.190  0.00  0.00    +0.000 OA
ATOM      4  C   UNL     1      60.896  63.141  68.717  0.00  0.00    +0.000 C 
ATOM      5  C   UNL     1      60.939  63.521  67.986  0.00  0.00    +0.000 C 
ATOM      6  C   UNL     1      60.613  63.167  67.316  0.00  0.00    +0.000 C 
ATOM      7  C   UNL     1      60.245  62.430  67.377  0.00  0.00    +0.000 C 
ATOM      8  C   UNL     1      60.203  62.049  68.108  0.00  0.00    +0.000 C 
ATOM      9  C   UNL     1      60.529  62.405  68.777  0.00  0.00    +0.000 C 
ATOM     10  O   UNL     1      60.304  61.773  69.258  0.00  0.00    +0.000 OA
ATOM     11  C   UNL     1      60.679  62.364  69.588  0.00  0.00    +0.000 A 
ATOM     12  C   UNL     1      60.431  61.708  70.021  0.00  0.00    +0.000 A 
ATOM     13  C   UNL     1      60.582  61.667  70.831  0.00  0.00    +0.000 A 
ATOM     14  C   UNL     1      60.981  62.284  71.208  0.00  0.00    +0.000 A 
ATOM     15  C   UNL     1      61.228  62.941  70.775  0.00  0.00    +0.000 A 
ATOM     16  C   UNL     1      61.078  62.982  69.964  0.00  0.00    +0.000 A 
ENDROOT
TORSDOF 0
ENDMDL
MODEL 7
REMARK VINA RESULT:    -7.951      6.370      7.441
REMARK INTER + INTRA:          -7.951
REMARK INTER:                  -7.951
REMARK INTRA:                   0.000
REMARK UNBOUND:                 0.000
ROOT
REMARK  Name = cycloxilic acid
REMARK                            x       y       z     vdW  Elec       q    Type
REMARK                         _______ _______ _______ _____ _____    ______ ____
ATOM      1  O   UNL     1      63.779  66.240  72.153  0.00  0.00    +0.000 OA
ATOM      2  C   UNL     1      64.207  66.262  71.448  0.00  0.00    +0.000 C 
ATOM      3  O   UNL     1      64.698  66.915  71.567  0.00  0.00    +0.000 OA
ATOM      4  C   UNL     1      64.065  65.701  70.861  0.00  0.00    +0.000 C 
ATOM      5  C   UNL     1      63.495  65.116  70.979  0.00  0.00    +0.000 C 
ATOM      6  C   UNL     1      63.352  64.554  70.392  0.00  0.00    +0.000 C 
ATOM      7  C   UNL     1      63.780  64.577  69.687  0.00  0.00    +0.000 C 
ATOM      8  C   UNL     1      64.350  65.161  69.569  0.00  0.00    +0.000 C 
ATOM      9  C   UNL     1      64.492  65.723  70.156  0.00  0.00    +0.000 C 
ATOM     10  O   UNL     1      65.073  66.094  69.702  0.00  0.00    +0.000 OA
ATOM     11  C   UNL     1      64.918  66.386  70.402  0.00  0.00    +0.000 A 
ATOM     12  C   UNL     1      65.488  66.716  69.907  0.00  0.00    +0.000 A 
ATOM     13  C   UNL     1      65.915  67.379  70.152  0.00  0.00    +0.000 A 
ATOM     14  C   UNL     1      65.769  67.710  70.894  0.00  0.00    +0.000 A 
ATOM     15  C   UNL     1      65.199  67.380  71.389  0.00  0.00    +0.000 A 
ATOM     16  C   UNL     1      64.773  66.717  71.144  0.00  0.00    +0.000 A 
ENDROOT
TORSDOF 0
ENDMDL
MODEL 8
REMARK VINA RESULT:    -7.834      4.887      5.941
REMARK INTER + INTRA:          -7.834
REMARK INTER:                  -7.834
REMARK INTRA:                   0.000
REMARK UNBOUND:                 0.000
ROOT
REMARK  Name = cycloxilic acid
REMARK                            x       y       z     vdW  Elec       q    Type
REMARK                         _______ _______ _______ _____ _____    ______ ____
ATOM      1  O   UNL     1      61.582  63.029  69.738  0.00  0.00    +0.000 OA
ATOM      2  C   UNL     1      61.924  63.504  70.318  0.00  0.00    +0.000 C 
ATOM      3  O   UNL     1      62.457  63.956  69.878  0.00  0.00    +0.000 OA
ATOM      4  C   UNL     1      61.688  63.430  71.105  0.00  0.00    +0.000 C 
ATOM      5  C   UNL     1      61.109  62.880  71.312  0.00  0.00    +0.000 C 
ATOM      6  C   UNL     1      60.872  62.805  72.098  0.00  0.00    +0.000 C 
ATOM      7  C   UNL     1      61.215  63.281  72.679  0.00  0.00    +0.000 C 
ATOM      8  C   UNL     1      61.795  63.831  72.473  0.00  0.00    +0.000 C 
ATOM      9  C   UNL     1      62.031  63.905  71.685  0.00  0.00    +0.000 C 
ATOM     10  O   UNL     1      62.572  64.499  71.873  0.00  0.00    +0.000 OA
ATOM     11  C   UNL     1      62.514  64.282  71.133  0.00  0.00    +0.000 A 
ATOM     12  C   UNL     1      63.038  64.871  71.376  0.00  0.00    +0.000 A 
ATOM     13  C   UNL     1      63.521  65.248  70.823  0.00  0.00    +0.000 A 
ATOM     14  C   UNL     1      63.479  65.035  70.027  0.00  0.00    +0.000 A 
ATOM     15  C   UNL     1      62.955  64.447  69.784  0.00  0.00    +0.000 A 
ATOM     16  C   UNL     1      62.472  64.069  70.336  0.00  0.00    +0.000 A 
ENDROOT
TORSDOF 0
ENDMDL
MODEL 9
REMARK VINA RESULT:    -7.793      4.699      5.926
REMARK INTER + INTRA:          -7.793
REMARK INTER:                  -7.793
REMARK INTRA:                   0.000
REMARK UNBOUND:                 0.000
ROOT
REMARK  Name = cycloxilic acid
REMARK                            x       y       z     vdW  Elec       q    Type
REMARK                         _______ _______ _______ _____ _____    ______ ____
ATOM      1  O   UNL     1      61.079  62.591  69.777  0.00  0.00    +0.000 OA
ATOM      2  C   UNL     1      60.854  63.152  70.338  0.00  0.00    +0.000 C 
ATOM      3  O   UNL     1      60.472  63.717  69.873  0.00  0.00    +0.000 OA
ATOM      4  C   UNL     1      61.038  63.037  71.134  0.00  0.00    +0.000 C 
ATOM      5  C   UNL     1      61.448  62.360  71.369  0.00  0.00    +0.000 C 
ATOM      6  C   UNL     1      61.632  62.244  72.164  0.00  0.00    +0.000 C 
ATOM      7  C   UNL     1      61.407  62.805  72.726  0.00  0.00    +0.000 C 
ATOM      8  C   UNL     1      60.998  63.482  72.492  0.00  0.00    +0.000 C 
ATOM      9  C   UNL     1      60.813  63.597  71.696  0.00  0.00    +0.000 C 
ATOM     10  O   UNL     1      60.441  64.316  71.856  0.00  0.00    +0.000 OA
ATOM     11  C   UNL     1      60.463  64.075  71.121  0.00  0.00    +0.000 A 
ATOM     12  C   UNL     1      60.103  64.784  71.337  0.00  0.00    +0.000 A 
ATOM     13  C   UNL     1      59.753  65.262  70.763  0.00  0.00    +0.000 A 
ATOM     14  C   UNL     1      59.762  65.028  69.971  0.00  0.00    +0.000 A 
ATOM     15  C   UNL     1      60.121  64.318  69.755  0.00  0.00    +0.000 A 
ATOM     16  C   UNL     1      60.472  63.841  70.329  0.00  0.00    +0.000 A 
ENDROOT
TORSDOF 0
ENDMDL
