MODEL 1
REMARK VINA RESULT:   -14.310      0.000      0.000
REMARK INTER + INTRA:         -14.310
REMARK INTER:                 -14.310
REMARK INTRA:                   0.000
REMARK UNBOUND:                 0.000
ROOT
REMARK  Name = cyclarbamate
REMARK                            x       y       z     vdW  Elec       q    Type
REMARK                         _______ _______ _______ _____ _____    ______ ____
ATOM      1  O   UNL     1      60.937  61.677  66.571  0.00  0.00    +0.000 OA
ATOM      2  C   UNL     1      61.471  62.293  66.704  0.00  0.00    +0.000 C 
ATOM      3  N   UNL     1      61.948  62.565  66.088  0.00  0.00    +0.000 NA
ATOM      4  C   UNL     1      61.892  62.222  65.340  0.00  0.00    +0.000 A 
ATOM      5  C   UNL     1      62.369  62.494  64.724  0.00  0.00    +0.000 A 
ATOM      6  C   UNL     1      62.314  62.151  63.976  0.00  0.00    +0.000 A 
ATOM      7  C   UNL     1      61.780  61.535  63.844  0.00  0.00    +0.000 A 
ATOM      8  C   UNL     1      61.303  61.262  64.459  0.00  0.00    +0.000 A 
ATOM      9  C   UNL     1      61.359  61.606  65.207  0.00  0.00    +0.000 A 
ATOM     10  O   UNL     1      61.527  62.636  67.451  0.00  0.00    +0.000 OA
ATOM     11  C   UNL     1      61.049  62.364  68.067  0.00  0.00    +0.000 C 
ATOM     12  C   UNL     1      61.106  62.708  68.815  0.00  0.00    +0.000 C 
ATOM     13  C   UNL     1      61.680  63.181  68.460  0.00  0.00    +0.000 C 
ATOM     14  O   UNL     1      62.068  63.760  68.901  0.00  0.00    +0.000 OA
ATOM     15  C   UNL     1      61.882  63.866  69.698  0.00  0.00    +0.000 C 
ATOM     16  O   UNL     1      62.270  64.444  70.138  0.00  0.00    +0.000 OA
ATOM     17  N   UNL     1      61.307  63.392  70.053  0.00  0.00    +0.000 NA
ATOM     18  C   UNL     1      61.122  63.497  70.850  0.00  0.00    +0.000 A 
ATOM     19  C   UNL     1      60.547  63.023  71.206  0.00  0.00    +0.000 A 
ATOM     20  C   UNL     1      60.361  63.129  72.002  0.00  0.00    +0.000 A 
ATOM     21  C   UNL     1      60.749  63.707  72.443  0.00  0.00    +0.000 A 
ATOM     22  C   UNL     1      61.323  64.181  72.088  0.00  0.00    +0.000 A 
ATOM     23  C   UNL     1      61.509  64.076  71.291  0.00  0.00    +0.000 A 
ATOM     24  C   UNL     1      60.520  62.162  69.014  0.00  0.00    +0.000 C 
ATOM     25  C   UNL     1      60.333  62.267  69.811  0.00  0.00    +0.000 C 
ATOM     26  C   UNL     1      60.804  62.878  70.105  0.00  0.00    +0.000 C 
ATOM     27  C   UNL     1      61.281  63.150  69.489  0.00  0.00    +0.000 C 
ENDROOT
TORSDOF 0
ENDMDL
MODEL 2
REMARK VINA RESULT:   -13.360      1.051      5.425
REMARK INTER + INTRA:         -13.360
REMARK INTER:                 -13.360
REMARK INTRA:                   0.000
REMARK UNBOUND:                 0.000
ROOT
REMARK  Name = cyclarbamate
REMARK                            x       y       z     vdW  Elec       q    Type
REMARK                         _______ _______ _______ _____ _____    ______ ____
ATOM      1  O   UNL     1      59.838  63.401  69.738  0.00  0.00    +0.000 OA
ATOM      2  C   UNL     1      60.606  63.577  69.493  0.00  0.00    +0.000 C 
ATOM      3  N   UNL     1      61.111  63.998  69.990  0.00  0.00    +0.000 NA
ATOM      4  C   UNL     1      60.850  64.243  70.732  0.00  0.00    +0.000 A 
ATOM      5  C   UNL     1      61.356  64.665  71.230  0.00  0.00    +0.000 A 
ATOM      6  C   UNL     1      61.094  64.911  71.973  0.00  0.00    +0.000 A 
ATOM      7  C   UNL     1      60.326  64.735  72.218  0.00  0.00    +0.000 A 
ATOM      8  C   UNL     1      59.819  64.314  71.721  0.00  0.00    +0.000 A 
ATOM      9  C   UNL     1      60.082  64.068  70.978  0.00  0.00    +0.000 A 
ATOM     10  O   UNL     1      60.868  63.331  68.750  0.00  0.00    +0.000 OA
ATOM     11  C   UNL     1      60.362  62.910  68.252  0.00  0.00    +0.000 C 
ATOM     12  C   UNL     1      60.625  62.665  67.510  0.00  0.00    +0.000 C 
ATOM     13  C   UNL     1      61.328  63.033  67.732  0.00  0.00    +0.000 C 
ATOM     14  O   UNL     1      61.972  63.036  67.217  0.00  0.00    +0.000 OA
ATOM     15  C   UNL     1      61.913  62.672  66.479  0.00  0.00    +0.000 C 
ATOM     16  O   UNL     1      62.557  62.676  65.965  0.00  0.00    +0.000 OA
ATOM     17  N   UNL     1      61.209  62.304  66.257  0.00  0.00    +0.000 NA
ATOM     18  C   UNL     1      61.150  61.939  65.519  0.00  0.00    +0.000 A 
ATOM     19  C   UNL     1      60.445  61.571  65.297  0.00  0.00    +0.000 A 
ATOM     20  C   UNL     1      60.386  61.207  64.559  0.00  0.00    +0.000 A 
ATOM     21  C   UNL     1      61.029  61.210  64.044  0.00  0.00    +0.000 A 
ATOM     22  C   UNL     1      61.733  61.578  64.266  0.00  0.00    +0.000 A 
ATOM     23  C   UNL     1      61.793  61.943  65.004  0.00  0.00    +0.000 A 
ATOM     24  C   UNL     1      59.865  62.348  67.443  0.00  0.00    +0.000 C 
ATOM     25  C   UNL     1      59.806  61.983  66.705  0.00  0.00    +0.000 C 
ATOM     26  C   UNL     1      60.527  62.074  66.316  0.00  0.00    +0.000 C 
ATOM     27  C   UNL     1      61.033  62.496  66.814  0.00  0.00    +0.000 C 
ENDROOT
TORSDOF 0
ENDMDL
MODEL 3
REMARK VINA RESULT:   -13.238      2.949      5.199
REMARK INTER + INTRA:         -13.238
REMARK INTER:                 -13.238
REMARK INTRA:                   0.000
REMARK UNBOUND:                 0.000
ROOT
REMARK  Name = cyclarbamate
REMARK                            x       y       z     vdW  Elec       q    Type
REMARK                         _______ _______ _______ _____ _____    ______ ____
ATOM      1  O   UNL     1      64.532  65.894  71.283  0.00  0.00    +0.000 OA
ATOM      2  C   UNL     1      64.363  65.806  70.480  0.00  0.00    +0.000 C 
ATOM      3  N   UNL     1      64.769  66.257  69.922  0.00  0.00    +0.000 NA
ATOM      4  C   UNL     1      65.343  66.796  70.165  0.00  0.00    +0.000 A 
ATOM      5  C   UNL     1      65.750  67.248  69.606  0.00  0.00    +0.000 A 
ATOM      6  C   UNL     1      66.324  67.787  69.849  0.00  0.00    +0.000 A 
ATOM      7  C   UNL     1      66.493  67.875  70.653  0.00  0.00    +0.000 A 
ATOM      8  C   UNL     1      66.088  67.425  71.212  0.00  0.00    +0.000 A 
ATOM      9  C   UNL     1      65.513  66.885  70.968  0.00  0.00    +0.000 A 
ATOM     10  O   UNL     1      63.789  65.267  70.237  0.00  0.00    +0.000 OA
ATOM     11  C   UNL     1      63.383  64.815  70.796  0.00  0.00    +0.000 C 
ATOM     12  C   UNL     1      62.808  64.276  70.551  0.00  0.00    +0.000 C 
ATOM     13  C   UNL     1      63.004  64.541  69.796  0.00  0.00    +0.000 C 
ATOM     14  O   UNL     1      62.620  64.227  69.136  0.00  0.00    +0.000 OA
ATOM     15  C   UNL     1      62.039  63.650  69.233  0.00  0.00    +0.000 C 
ATOM     16  O   UNL     1      61.655  63.337  68.574  0.00  0.00    +0.000 OA
ATOM     17  N   UNL     1      61.843  63.385  69.990  0.00  0.00    +0.000 NA
ATOM     18  C   UNL     1      61.262  62.807  70.086  0.00  0.00    +0.000 A 
ATOM     19  C   UNL     1      61.066  62.542  70.843  0.00  0.00    +0.000 A 
ATOM     20  C   UNL     1      60.485  61.964  70.940  0.00  0.00    +0.000 A 
ATOM     21  C   UNL     1      60.101  61.651  70.281  0.00  0.00    +0.000 A 
ATOM     22  C   UNL     1      60.297  61.916  69.525  0.00  0.00    +0.000 A 
ATOM     23  C   UNL     1      60.878  62.494  69.428  0.00  0.00    +0.000 A 
ATOM     24  C   UNL     1      62.733  64.125  71.359  0.00  0.00    +0.000 C 
ATOM     25  C   UNL     1      62.151  63.546  71.456  0.00  0.00    +0.000 C 
ATOM     26  C   UNL     1      61.868  63.341  70.709  0.00  0.00    +0.000 C 
ATOM     27  C   UNL     1      62.274  63.792  70.150  0.00  0.00    +0.000 C 
ENDROOT
TORSDOF 0
ENDMDL
MODEL 4
REMARK VINA RESULT:   -12.411      2.050      2.887
REMARK INTER + INTRA:         -12.411
REMARK INTER:                 -12.411
REMARK INTRA:                   0.000
REMARK UNBOUND:                 0.000
ROOT
REMARK  Name = cyclarbamate
REMARK                            x       y       z     vdW  Elec       q    Type
REMARK                         _______ _______ _______ _____ _____    ______ ____
ATOM      1  O   UNL     1      60.232  63.563  68.334  0.00  0.00    +0.000 OA
ATOM      2  C   UNL     1      61.016  63.441  68.106  0.00  0.00    +0.000 C 
ATOM      3  N   UNL     1      61.186  62.974  67.448  0.00  0.00    +0.000 NA
ATOM      4  C   UNL     1      60.573  62.629  67.017  0.00  0.00    +0.000 A 
ATOM      5  C   UNL     1      60.744  62.162  66.358  0.00  0.00    +0.000 A 
ATOM      6  C   UNL     1      60.131  61.817  65.927  0.00  0.00    +0.000 A 
ATOM      7  C   UNL     1      59.347  61.939  66.155  0.00  0.00    +0.000 A 
ATOM      8  C   UNL     1      59.176  62.406  66.813  0.00  0.00    +0.000 A 
ATOM      9  C   UNL     1      59.789  62.751  67.244  0.00  0.00    +0.000 A 
ATOM     10  O   UNL     1      61.628  63.786  68.537  0.00  0.00    +0.000 OA
ATOM     11  C   UNL     1      61.458  64.253  69.196  0.00  0.00    +0.000 C 
ATOM     12  C   UNL     1      62.072  64.598  69.626  0.00  0.00    +0.000 C 
ATOM     13  C   UNL     1      62.555  64.224  69.073  0.00  0.00    +0.000 C 
ATOM     14  O   UNL     1      63.375  64.303  69.121  0.00  0.00    +0.000 OA
ATOM     15  C   UNL     1      63.711  64.757  69.722  0.00  0.00    +0.000 C 
ATOM     16  O   UNL     1      64.530  64.836  69.770  0.00  0.00    +0.000 OA
ATOM     17  N   UNL     1      63.227  65.131  70.276  0.00  0.00    +0.000 NA
ATOM     18  C   UNL     1      63.563  65.584  70.878  0.00  0.00    +0.000 A 
ATOM     19  C   UNL     1      63.079  65.959  71.432  0.00  0.00    +0.000 A 
ATOM     20  C   UNL     1      63.416  66.412  72.033  0.00  0.00    +0.000 A 
ATOM     21  C   UNL     1      64.234  66.491  72.081  0.00  0.00    +0.000 A 
ATOM     22  C   UNL     1      64.719  66.117  71.528  0.00  0.00    +0.000 A 
ATOM     23  C   UNL     1      64.382  65.664  70.926  0.00  0.00    +0.000 A 
ATOM     24  C   UNL     1      61.459  64.900  70.090  0.00  0.00    +0.000 C 
ATOM     25  C   UNL     1      61.795  65.354  70.692  0.00  0.00    +0.000 C 
ATOM     26  C   UNL     1      62.615  65.332  70.601  0.00  0.00    +0.000 C 
ATOM     27  C   UNL     1      62.785  64.865  69.942  0.00  0.00    +0.000 C 
ENDROOT
TORSDOF 0
ENDMDL
MODEL 5
REMARK VINA RESULT:   -12.396      1.301      2.098
REMARK INTER + INTRA:         -12.396
REMARK INTER:                 -12.396
REMARK INTRA:                   0.000
REMARK UNBOUND:                 0.000
ROOT
REMARK  Name = cyclarbamate
REMARK                            x       y       z     vdW  Elec       q    Type
REMARK                         _______ _______ _______ _____ _____    ______ ____
ATOM      1  O   UNL     1      61.820  62.866  67.271  0.00  0.00    +0.000 OA
ATOM      2  C   UNL     1      61.096  62.928  67.663  0.00  0.00    +0.000 C 
ATOM      3  N   UNL     1      60.412  62.626  67.316  0.00  0.00    +0.000 NA
ATOM      4  C   UNL     1      60.450  62.262  66.577  0.00  0.00    +0.000 A 
ATOM      5  C   UNL     1      59.765  61.960  66.230  0.00  0.00    +0.000 A 
ATOM      6  C   UNL     1      59.802  61.596  65.491  0.00  0.00    +0.000 A 
ATOM      7  C   UNL     1      60.526  61.534  65.098  0.00  0.00    +0.000 A 
ATOM      8  C   UNL     1      61.211  61.836  65.444  0.00  0.00    +0.000 A 
ATOM      9  C   UNL     1      61.172  62.200  66.184  0.00  0.00    +0.000 A 
ATOM     10  O   UNL     1      61.058  63.292  68.402  0.00  0.00    +0.000 OA
ATOM     11  C   UNL     1      61.743  63.594  68.750  0.00  0.00    +0.000 C 
ATOM     12  C   UNL     1      61.704  63.958  69.489  0.00  0.00    +0.000 C 
ATOM     13  C   UNL     1      60.900  63.782  69.438  0.00  0.00    +0.000 C 
ATOM     14  O   UNL     1      60.392  63.995  70.052  0.00  0.00    +0.000 OA
ATOM     15  C   UNL     1      60.687  64.384  70.716  0.00  0.00    +0.000 C 
ATOM     16  O   UNL     1      60.179  64.596  71.329  0.00  0.00    +0.000 OA
ATOM     17  N   UNL     1      61.492  64.560  70.767  0.00  0.00    +0.000 NA
ATOM     18  C   UNL     1      61.787  64.949  71.432  0.00  0.00    +0.000 A 
ATOM     19  C   UNL     1      62.592  65.125  71.483  0.00  0.00    +0.000 A 
ATOM     20  C   UNL     1      62.887  65.514  72.148  0.00  0.00    +0.000 A 
ATOM     21  C   UNL     1      62.379  65.726  72.761  0.00  0.00    +0.000 A 
ATOM     22  C   UNL     1      61.575  65.550  72.711  0.00  0.00    +0.000 A 
ATOM     23  C   UNL     1      61.279  65.161  72.045  0.00  0.00    +0.000 A 
ATOM     24  C   UNL     1      62.517  64.058  69.385  0.00  0.00    +0.000 C 
ATOM     25  C   UNL     1      62.813  64.447  70.050  0.00  0.00    +0.000 C 
ATOM     26  C   UNL     1      62.183  64.588  70.565  0.00  0.00    +0.000 C 
ATOM     27  C   UNL     1      61.498  64.285  70.218  0.00  0.00    +0.000 C 
ENDROOT
TORSDOF 0
ENDMDL
MODEL 6
REMARK VINA RESULT:   -11.367      1.655      5.591
REMARK INTER + INTRA:         -11.367
REMARK INTER:                 -11.367
REMARK INTRA:                   0.000
REMARK UNBOUND:                 0.000
ROOT
REMARK  Name = cyclarbamate
REMARK                            x       y       z     vdW  Elec       q    Type
REMARK                         _______ _______ _______ _____ _____    ______ ____
ATOM      1  O   UNL     1      60.064  65.310  70.111  0.00  0.00    +0.000 OA
ATOM      2  C   UNL     1      59.951  64.508  70.271  0.00  0.00    +0.000 C 
ATOM      3  N   UNL     1      59.613  64.274  70.985  0.00  0.00    +0.000 NA
ATOM      4  C   UNL     1      59.387  64.840  71.541  0.00  0.00    +0.000 A 
ATOM      5  C   UNL     1      59.048  64.605  72.256  0.00  0.00    +0.000 A 
ATOM      6  C   UNL     1      58.822  65.172  72.811  0.00  0.00    +0.000 A 
ATOM      7  C   UNL     1      58.935  65.973  72.651  0.00  0.00    +0.000 A 
ATOM      8  C   UNL     1      59.274  66.209  71.937  0.00  0.00    +0.000 A 
ATOM      9  C   UNL     1      59.500  65.642  71.382  0.00  0.00    +0.000 A 
ATOM     10  O   UNL     1      60.177  63.942  69.715  0.00  0.00    +0.000 OA
ATOM     11  C   UNL     1      60.516  64.176  69.000  0.00  0.00    +0.000 C 
ATOM     12  C   UNL     1      60.741  63.609  68.446  0.00  0.00    +0.000 C 
ATOM     13  C   UNL     1      60.458  63.074  69.005  0.00  0.00    +0.000 C 
ATOM     14  O   UNL     1      60.488  62.263  68.852  0.00  0.00    +0.000 OA
ATOM     15  C   UNL     1      60.800  61.988  68.140  0.00  0.00    +0.000 C 
ATOM     16  O   UNL     1      60.829  61.179  67.988  0.00  0.00    +0.000 OA
ATOM     17  N   UNL     1      61.083  62.525  67.580  0.00  0.00    +0.000 NA
ATOM     18  C   UNL     1      61.395  62.250  66.868  0.00  0.00    +0.000 A 
ATOM     19  C   UNL     1      61.678  62.786  66.307  0.00  0.00    +0.000 A 
ATOM     20  C   UNL     1      61.990  62.511  65.595  0.00  0.00    +0.000 A 
ATOM     21  C   UNL     1      62.019  61.702  65.443  0.00  0.00    +0.000 A 
ATOM     22  C   UNL     1      61.737  61.166  66.002  0.00  0.00    +0.000 A 
ATOM     23  C   UNL     1      61.424  61.440  66.715  0.00  0.00    +0.000 A 
ATOM     24  C   UNL     1      60.977  64.264  68.002  0.00  0.00    +0.000 C 
ATOM     25  C   UNL     1      61.289  63.989  67.289  0.00  0.00    +0.000 C 
ATOM     26  C   UNL     1      61.247  63.165  67.292  0.00  0.00    +0.000 C 
ATOM     27  C   UNL     1      60.908  62.931  68.007  0.00  0.00    +0.000 C 
ENDROOT
TORSDOF 0
ENDMDL
