MODEL 1
REMARK VINA RESULT:   -14.548      0.000      0.000
REMARK INTER + INTRA:         -14.548
REMARK INTER:                 -14.548
REMARK INTRA:                   0.000
REMARK UNBOUND:                 0.000
ROOT
REMARK  Name = cypermethrin
REMARK                            x       y       z     vdW  Elec       q    Type
REMARK                         _______ _______ _______ _____ _____    ______ ____
ATOM      1  C   UNL     1      59.715  63.502  72.096  0.00  0.00    +0.000 C 
ATOM      2  C   UNL     1      60.241  63.605  71.468  0.00  0.00    +0.000 C 
ATOM      3  C   UNL     1      59.878  63.134  70.897  0.00  0.00    +0.000 C 
ATOM      4  C   UNL     1      60.786  64.114  71.822  0.00  0.00    +0.000 C 
ATOM      5  C   UNL     1      61.040  64.546  72.478  0.00  0.00    +0.000 C 
ATOM      6  C   UNL     1      61.731  64.994  72.435  0.00  0.00    +0.000 C 
ATOM      7 CL   UNL     1      61.983  65.426  73.090  0.00  0.00    +0.000 Cl
ATOM      8 CL   UNL     1      62.169  65.010  71.736  0.00  0.00    +0.000 Cl
ATOM      9  C   UNL     1      60.893  63.874  71.040  0.00  0.00    +0.000 C 
ATOM     10  C   UNL     1      61.331  63.890  70.341  0.00  0.00    +0.000 C 
ATOM     11  O   UNL     1      62.022  64.338  70.298  0.00  0.00    +0.000 OA
ATOM     12  O   UNL     1      61.078  63.458  69.685  0.00  0.00    +0.000 OA
ATOM     13  C   UNL     1      61.516  63.475  68.987  0.00  0.00    +0.000 C 
ATOM     14  C   UNL     1      62.207  63.923  68.943  0.00  0.00    +0.000 C 
ATOM     15  N   UNL     1      62.898  64.371  68.901  0.00  0.00    +0.000 NA
ATOM     16  C   UNL     1      61.263  63.043  68.331  0.00  0.00    +0.000 A 
ATOM     17  C   UNL     1      61.701  63.059  67.632  0.00  0.00    +0.000 A 
ATOM     18  C   UNL     1      61.448  62.627  66.976  0.00  0.00    +0.000 A 
ATOM     19  O   UNL     1      61.885  62.643  66.277  0.00  0.00    +0.000 OA
ATOM     20  C   UNL     1      61.632  62.212  65.621  0.00  0.00    +0.000 A 
ATOM     21  C   UNL     1      62.071  62.228  64.923  0.00  0.00    +0.000 A 
ATOM     22  C   UNL     1      61.818  61.796  64.267  0.00  0.00    +0.000 A 
ATOM     23  C   UNL     1      61.126  61.348  64.310  0.00  0.00    +0.000 A 
ATOM     24  C   UNL     1      60.688  61.332  65.009  0.00  0.00    +0.000 A 
ATOM     25  C   UNL     1      60.942  61.764  65.665  0.00  0.00    +0.000 A 
ATOM     26  C   UNL     1      60.756  62.179  67.019  0.00  0.00    +0.000 A 
ATOM     27  C   UNL     1      60.319  62.163  67.718  0.00  0.00    +0.000 A 
ATOM     28  C   UNL     1      60.572  62.595  68.374  0.00  0.00    +0.000 A 
ENDROOT
TORSDOF 0
ENDMDL
MODEL 2
REMARK VINA RESULT:   -13.203      2.673      6.134
REMARK INTER + INTRA:         -13.203
REMARK INTER:                 -13.203
REMARK INTRA:                   0.000
REMARK UNBOUND:                 0.000
ROOT
REMARK  Name = cypermethrin
REMARK                            x       y       z     vdW  Elec       q    Type
REMARK                         _______ _______ _______ _____ _____    ______ ____
ATOM      1  C   UNL     1      62.817  62.316  64.459  0.00  0.00    +0.000 C 
ATOM      2  C   UNL     1      62.232  62.270  65.039  0.00  0.00    +0.000 C 
ATOM      3  C   UNL     1      62.585  62.716  65.636  0.00  0.00    +0.000 C 
ATOM      4  C   UNL     1      61.675  61.806  64.643  0.00  0.00    +0.000 C 
ATOM      5  C   UNL     1      61.442  61.387  63.972  0.00  0.00    +0.000 C 
ATOM      6  C   UNL     1      60.712  61.003  63.958  0.00  0.00    +0.000 C 
ATOM      7 CL   UNL     1      60.479  60.585  63.287  0.00  0.00    +0.000 Cl
ATOM      8 CL   UNL     1      60.216  61.037  64.616  0.00  0.00    +0.000 Cl
ATOM      9  C   UNL     1      61.524  62.067  65.411  0.00  0.00    +0.000 C 
ATOM     10  C   UNL     1      61.027  62.101  66.069  0.00  0.00    +0.000 C 
ATOM     11  O   UNL     1      60.298  61.717  66.056  0.00  0.00    +0.000 OA
ATOM     12  O   UNL     1      61.261  62.519  66.741  0.00  0.00    +0.000 OA
ATOM     13  C   UNL     1      60.765  62.553  67.398  0.00  0.00    +0.000 C 
ATOM     14  C   UNL     1      60.034  62.169  67.385  0.00  0.00    +0.000 C 
ATOM     15  N   UNL     1      59.305  61.785  67.371  0.00  0.00    +0.000 NA
ATOM     16  C   UNL     1      60.998  62.972  68.070  0.00  0.00    +0.000 A 
ATOM     17  C   UNL     1      60.501  63.006  68.729  0.00  0.00    +0.000 A 
ATOM     18  C   UNL     1      60.735  63.424  69.400  0.00  0.00    +0.000 A 
ATOM     19  O   UNL     1      60.239  63.459  70.058  0.00  0.00    +0.000 OA
ATOM     20  C   UNL     1      60.472  63.877  70.730  0.00  0.00    +0.000 A 
ATOM     21  C   UNL     1      59.975  63.911  71.388  0.00  0.00    +0.000 A 
ATOM     22  C   UNL     1      60.209  64.329  72.060  0.00  0.00    +0.000 A 
ATOM     23  C   UNL     1      60.939  64.714  72.073  0.00  0.00    +0.000 A 
ATOM     24  C   UNL     1      61.435  64.679  71.415  0.00  0.00    +0.000 A 
ATOM     25  C   UNL     1      61.202  64.261  70.743  0.00  0.00    +0.000 A 
ATOM     26  C   UNL     1      61.465  63.809  69.414  0.00  0.00    +0.000 A 
ATOM     27  C   UNL     1      61.961  63.775  68.756  0.00  0.00    +0.000 A 
ATOM     28  C   UNL     1      61.728  63.356  68.084  0.00  0.00    +0.000 A 
ENDROOT
TORSDOF 0
ENDMDL
MODEL 3
REMARK VINA RESULT:   -12.809      3.265      5.010
REMARK INTER + INTRA:         -12.809
REMARK INTER:                 -12.809
REMARK INTRA:                   0.000
REMARK UNBOUND:                 0.000
ROOT
REMARK  Name = cypermethrin
REMARK                            x       y       z     vdW  Elec       q    Type
REMARK                         _______ _______ _______ _____ _____    ______ ____
ATOM      1  C   UNL     1      64.959  67.948  72.182  0.00  0.00    +0.000 C 
ATOM      2  C   UNL     1      64.790  67.322  71.672  0.00  0.00    +0.000 C 
ATOM      3  C   UNL     1      64.154  66.979  72.071  0.00  0.00    +0.000 C 
ATOM      4  C   UNL     1      65.367  67.447  71.095  0.00  0.00    +0.000 C 
ATOM      5  C   UNL     1      66.004  67.885  70.805  0.00  0.00    +0.000 C 
ATOM      6  C   UNL     1      66.367  67.665  70.098  0.00  0.00    +0.000 C 
ATOM      7 CL   UNL     1      67.003  68.102  69.807  0.00  0.00    +0.000 Cl
ATOM      8 CL   UNL     1      66.093  67.007  69.681  0.00  0.00    +0.000 Cl
ATOM      9  C   UNL     1      64.841  66.815  71.023  0.00  0.00    +0.000 C 
ATOM     10  C   UNL     1      64.568  66.158  70.606  0.00  0.00    +0.000 C 
ATOM     11  O   UNL     1      64.931  65.938  69.899  0.00  0.00    +0.000 OA
ATOM     12  O   UNL     1      63.932  65.721  70.896  0.00  0.00    +0.000 OA
ATOM     13  C   UNL     1      63.659  65.064  70.480  0.00  0.00    +0.000 C 
ATOM     14  C   UNL     1      64.022  64.843  69.772  0.00  0.00    +0.000 C 
ATOM     15  N   UNL     1      64.385  64.623  69.065  0.00  0.00    +0.000 NA
ATOM     16  C   UNL     1      63.023  64.626  70.770  0.00  0.00    +0.000 A 
ATOM     17  C   UNL     1      62.749  63.968  70.353  0.00  0.00    +0.000 A 
ATOM     18  C   UNL     1      62.113  63.531  70.644  0.00  0.00    +0.000 A 
ATOM     19  O   UNL     1      61.839  62.874  70.227  0.00  0.00    +0.000 OA
ATOM     20  C   UNL     1      61.202  62.437  70.518  0.00  0.00    +0.000 A 
ATOM     21  C   UNL     1      60.930  61.779  70.101  0.00  0.00    +0.000 A 
ATOM     22  C   UNL     1      60.293  61.342  70.391  0.00  0.00    +0.000 A 
ATOM     23  C   UNL     1      59.930  61.562  71.099  0.00  0.00    +0.000 A 
ATOM     24  C   UNL     1      60.203  62.219  71.515  0.00  0.00    +0.000 A 
ATOM     25  C   UNL     1      60.840  62.657  71.225  0.00  0.00    +0.000 A 
ATOM     26  C   UNL     1      61.749  63.751  71.352  0.00  0.00    +0.000 A 
ATOM     27  C   UNL     1      62.023  64.409  71.768  0.00  0.00    +0.000 A 
ATOM     28  C   UNL     1      62.659  64.846  71.477  0.00  0.00    +0.000 A 
ENDROOT
TORSDOF 0
ENDMDL
MODEL 4
REMARK VINA RESULT:   -12.675      2.163      5.758
REMARK INTER + INTRA:         -12.675
REMARK INTER:                 -12.675
REMARK INTRA:                   0.000
REMARK UNBOUND:                 0.000
ROOT
REMARK  Name = cypermethrin
REMARK                            x       y       z     vdW  Elec       q    Type
REMARK                         _______ _______ _______ _____ _____    ______ ____
ATOM      1  C   UNL     1      59.512  61.803  65.903  0.00  0.00    +0.000 C 
ATOM      2  C   UNL     1      60.050  62.197  66.389  0.00  0.00    +0.000 C 
ATOM      3  C   UNL     1      59.569  62.351  67.041  0.00  0.00    +0.000 C 
ATOM      4  C   UNL     1      60.719  62.180  65.906  0.00  0.00    +0.000 C 
ATOM      5  C   UNL     1      61.083  61.964  65.198  0.00  0.00    +0.000 C 
ATOM      6  C   UNL     1      61.876  62.150  65.068  0.00  0.00    +0.000 C 
ATOM      7 CL   UNL     1      62.240  61.934  64.361  0.00  0.00    +0.000 Cl
ATOM      8 CL   UNL     1      62.305  62.552  65.647  0.00  0.00    +0.000 Cl
ATOM      9  C   UNL     1      60.755  62.537  66.649  0.00  0.00    +0.000 C 
ATOM     10  C   UNL     1      61.185  62.939  67.227  0.00  0.00    +0.000 C 
ATOM     11  O   UNL     1      61.977  63.126  67.098  0.00  0.00    +0.000 OA
ATOM     12  O   UNL     1      60.820  63.156  67.935  0.00  0.00    +0.000 OA
ATOM     13  C   UNL     1      61.249  63.558  68.513  0.00  0.00    +0.000 C 
ATOM     14  C   UNL     1      62.042  63.744  68.384  0.00  0.00    +0.000 C 
ATOM     15  N   UNL     1      62.835  63.930  68.254  0.00  0.00    +0.000 NA
ATOM     16  C   UNL     1      60.884  63.774  69.221  0.00  0.00    +0.000 A 
ATOM     17  C   UNL     1      61.313  64.177  69.800  0.00  0.00    +0.000 A 
ATOM     18  C   UNL     1      60.949  64.393  70.508  0.00  0.00    +0.000 A 
ATOM     19  O   UNL     1      61.377  64.795  71.087  0.00  0.00    +0.000 OA
ATOM     20  C   UNL     1      61.013  65.011  71.795  0.00  0.00    +0.000 A 
ATOM     21  C   UNL     1      61.442  65.414  72.373  0.00  0.00    +0.000 A 
ATOM     22  C   UNL     1      61.078  65.630  73.081  0.00  0.00    +0.000 A 
ATOM     23  C   UNL     1      60.284  65.444  73.210  0.00  0.00    +0.000 A 
ATOM     24  C   UNL     1      59.856  65.041  72.631  0.00  0.00    +0.000 A 
ATOM     25  C   UNL     1      60.220  64.825  71.923  0.00  0.00    +0.000 A 
ATOM     26  C   UNL     1      60.155  64.206  70.637  0.00  0.00    +0.000 A 
ATOM     27  C   UNL     1      59.727  63.804  70.058  0.00  0.00    +0.000 A 
ATOM     28  C   UNL     1      60.091  63.588  69.351  0.00  0.00    +0.000 A 
ENDROOT
TORSDOF 0
ENDMDL
MODEL 5
REMARK VINA RESULT:   -12.469      3.170      5.476
REMARK INTER + INTRA:         -12.469
REMARK INTER:                 -12.469
REMARK INTRA:                   0.000
REMARK UNBOUND:                 0.000
ROOT
REMARK  Name = cypermethrin
REMARK                            x       y       z     vdW  Elec       q    Type
REMARK                         _______ _______ _______ _____ _____    ______ ____
ATOM      1  C   UNL     1      60.806  62.470  68.317  0.00  0.00    +0.000 C 
ATOM      2  C   UNL     1      61.200  62.828  68.947  0.00  0.00    +0.000 C 
ATOM      3  C   UNL     1      61.701  63.336  68.533  0.00  0.00    +0.000 C 
ATOM      4  C   UNL     1      60.836  62.444  69.580  0.00  0.00    +0.000 C 
ATOM      5  C   UNL     1      60.288  61.896  69.864  0.00  0.00    +0.000 C 
ATOM      6  C   UNL     1      60.205  61.778  70.676  0.00  0.00    +0.000 C 
ATOM      7 CL   UNL     1      59.658  61.231  70.960  0.00  0.00    +0.000 Cl
ATOM      8 CL   UNL     1      60.669  62.210  71.205  0.00  0.00    +0.000 Cl
ATOM      9  C   UNL     1      61.420  63.009  69.721  0.00  0.00    +0.000 C 
ATOM     10  C   UNL     1      61.884  63.440  70.250  0.00  0.00    +0.000 C 
ATOM     11  O   UNL     1      61.801  63.324  71.062  0.00  0.00    +0.000 OA
ATOM     12  O   UNL     1      62.431  63.988  69.967  0.00  0.00    +0.000 OA
ATOM     13  C   UNL     1      62.895  64.419  70.495  0.00  0.00    +0.000 C 
ATOM     14  C   UNL     1      62.812  64.303  71.308  0.00  0.00    +0.000 C 
ATOM     15  N   UNL     1      62.728  64.185  72.120  0.00  0.00    +0.000 NA
ATOM     16  C   UNL     1      63.442  64.967  70.211  0.00  0.00    +0.000 A 
ATOM     17  C   UNL     1      63.907  65.399  70.740  0.00  0.00    +0.000 A 
ATOM     18  C   UNL     1      64.454  65.947  70.456  0.00  0.00    +0.000 A 
ATOM     19  O   UNL     1      64.919  66.378  70.984  0.00  0.00    +0.000 OA
ATOM     20  C   UNL     1      65.466  66.926  70.700  0.00  0.00    +0.000 A 
ATOM     21  C   UNL     1      65.930  67.357  71.230  0.00  0.00    +0.000 A 
ATOM     22  C   UNL     1      66.477  67.905  70.946  0.00  0.00    +0.000 A 
ATOM     23  C   UNL     1      66.561  68.023  70.133  0.00  0.00    +0.000 A 
ATOM     24  C   UNL     1      66.096  67.591  69.605  0.00  0.00    +0.000 A 
ATOM     25  C   UNL     1      65.549  67.043  69.889  0.00  0.00    +0.000 A 
ATOM     26  C   UNL     1      64.538  66.064  69.643  0.00  0.00    +0.000 A 
ATOM     27  C   UNL     1      64.073  65.633  69.115  0.00  0.00    +0.000 A 
ATOM     28  C   UNL     1      63.526  65.085  69.399  0.00  0.00    +0.000 A 
ENDROOT
TORSDOF 0
ENDMDL
MODEL 6
REMARK VINA RESULT:   -12.432      1.675      2.326
REMARK INTER + INTRA:         -12.432
REMARK INTER:                 -12.432
REMARK INTRA:                   0.000
REMARK UNBOUND:                 0.000
ROOT
REMARK  Name = cypermethrin
REMARK                            x       y       z     vdW  Elec       q    Type
REMARK                         _______ _______ _______ _____ _____    ______ ____
ATOM      1  C   UNL     1      61.383  66.942  72.282  0.00  0.00    +0.000 C 
ATOM      2  C   UNL     1      61.706  66.472  71.685  0.00  0.00    +0.000 C 
ATOM      3  C   UNL     1      61.016  66.175  71.346  0.00  0.00    +0.000 C 
ATOM      4  C   UNL     1      62.510  66.605  71.817  0.00  0.00    +0.000 C 
ATOM      5  C   UNL     1      63.112  66.972  72.246  0.00  0.00    +0.000 C 
ATOM      6  C   UNL     1      63.901  66.837  72.047  0.00  0.00    +0.000 C 
ATOM      7 CL   UNL     1      64.503  67.203  72.475  0.00  0.00    +0.000 Cl
ATOM      8 CL   UNL     1      64.088  66.336  71.418  0.00  0.00    +0.000 Cl
ATOM      9  C   UNL     1      62.269  66.105  71.207  0.00  0.00    +0.000 C 
ATOM     10  C   UNL     1      62.457  65.605  70.578  0.00  0.00    +0.000 C 
ATOM     11  O   UNL     1      63.245  65.470  70.378  0.00  0.00    +0.000 OA
ATOM     12  O   UNL     1      61.855  65.239  70.149  0.00  0.00    +0.000 OA
ATOM     13  C   UNL     1      62.041  64.738  69.521  0.00  0.00    +0.000 C 
ATOM     14  C   UNL     1      62.830  64.603  69.321  0.00  0.00    +0.000 C 
ATOM     15  N   UNL     1      63.620  64.469  69.122  0.00  0.00    +0.000 NA
ATOM     16  C   UNL     1      61.439  64.372  69.092  0.00  0.00    +0.000 A 
ATOM     17  C   UNL     1      61.626  63.871  68.463  0.00  0.00    +0.000 A 
ATOM     18  C   UNL     1      61.024  63.505  68.034  0.00  0.00    +0.000 A 
ATOM     19  O   UNL     1      61.210  63.005  67.406  0.00  0.00    +0.000 OA
ATOM     20  C   UNL     1      60.607  62.639  66.977  0.00  0.00    +0.000 A 
ATOM     21  C   UNL     1      60.795  62.138  66.348  0.00  0.00    +0.000 A 
ATOM     22  C   UNL     1      60.193  61.772  65.919  0.00  0.00    +0.000 A 
ATOM     23  C   UNL     1      59.403  61.907  66.119  0.00  0.00    +0.000 A 
ATOM     24  C   UNL     1      59.217  62.407  66.748  0.00  0.00    +0.000 A 
ATOM     25  C   UNL     1      59.819  62.773  67.177  0.00  0.00    +0.000 A 
ATOM     26  C   UNL     1      60.234  63.640  68.234  0.00  0.00    +0.000 A 
ATOM     27  C   UNL     1      60.048  64.140  68.863  0.00  0.00    +0.000 A 
ATOM     28  C   UNL     1      60.650  64.506  69.292  0.00  0.00    +0.000 A 
ENDROOT
TORSDOF 0
ENDMDL
MODEL 7
REMARK VINA RESULT:   -12.198      2.511      5.822
REMARK INTER + INTRA:         -12.198
REMARK INTER:                 -12.198
REMARK INTRA:                   0.000
REMARK UNBOUND:                 0.000
ROOT
REMARK  Name = cypermethrin
REMARK                            x       y       z     vdW  Elec       q    Type
REMARK                         _______ _______ _______ _____ _____    ______ ____
ATOM      1  C   UNL     1      61.809  62.245  65.797  0.00  0.00    +0.000 C 
ATOM      2  C   UNL     1      61.573  62.633  66.486  0.00  0.00    +0.000 C 
ATOM      3  C   UNL     1      62.296  62.946  66.730  0.00  0.00    +0.000 C 
ATOM      4  C   UNL     1      60.767  62.454  66.483  0.00  0.00    +0.000 C 
ATOM      5  C   UNL     1      60.119  62.086  66.129  0.00  0.00    +0.000 C 
ATOM      6  C   UNL     1      59.372  62.143  66.475  0.00  0.00    +0.000 C 
ATOM      7 CL   UNL     1      58.725  61.776  66.122  0.00  0.00    +0.000 Cl
ATOM      8 CL   UNL     1      59.274  62.568  67.176  0.00  0.00    +0.000 Cl
ATOM      9  C   UNL     1      61.086  62.911  67.091  0.00  0.00    +0.000 C 
ATOM     10  C   UNL     1      60.987  63.336  67.791  0.00  0.00    +0.000 C 
ATOM     11  O   UNL     1      60.241  63.394  68.138  0.00  0.00    +0.000 OA
ATOM     12  O   UNL     1      61.636  63.704  68.145  0.00  0.00    +0.000 OA
ATOM     13  C   UNL     1      61.537  64.128  68.845  0.00  0.00    +0.000 C 
ATOM     14  C   UNL     1      60.791  64.186  69.192  0.00  0.00    +0.000 C 
ATOM     15  N   UNL     1      60.045  64.243  69.538  0.00  0.00    +0.000 NA
ATOM     16  C   UNL     1      62.186  64.496  69.198  0.00  0.00    +0.000 A 
ATOM     17  C   UNL     1      62.088  64.921  69.899  0.00  0.00    +0.000 A 
ATOM     18  C   UNL     1      62.736  65.289  70.253  0.00  0.00    +0.000 A 
ATOM     19  O   UNL     1      62.639  65.714  70.953  0.00  0.00    +0.000 OA
ATOM     20  C   UNL     1      63.288  66.081  71.307  0.00  0.00    +0.000 A 
ATOM     21  C   UNL     1      63.189  66.506  72.007  0.00  0.00    +0.000 A 
ATOM     22  C   UNL     1      63.837  66.874  72.361  0.00  0.00    +0.000 A 
ATOM     23  C   UNL     1      64.584  66.817  72.014  0.00  0.00    +0.000 A 
ATOM     24  C   UNL     1      64.682  66.392  71.314  0.00  0.00    +0.000 A 
ATOM     25  C   UNL     1      64.033  66.024  70.960  0.00  0.00    +0.000 A 
ATOM     26  C   UNL     1      63.484  65.231  69.906  0.00  0.00    +0.000 A 
ATOM     27  C   UNL     1      63.581  64.806  69.206  0.00  0.00    +0.000 A 
ATOM     28  C   UNL     1      62.932  64.439  68.852  0.00  0.00    +0.000 A 
ENDROOT
TORSDOF 0
ENDMDL
