MODEL 1
REMARK VINA RESULT:   -10.842      0.000      0.000
REMARK INTER + INTRA:         -10.842
REMARK INTER:                 -10.842
REMARK INTRA:                   0.000
REMARK UNBOUND:                 0.000
ROOT
REMARK  Name = cyverine
REMARK                            x       y       z     vdW  Elec       q    Type
REMARK                         _______ _______ _______ _____ _____    ______ ____
ATOM      1  C   UNL     1      61.377  63.796  67.804  0.00  0.00    +0.000 C 
ATOM      2  N   UNL     1      61.262  62.981  67.843  0.00  0.00    +0.000 NA
ATOM      3  C   UNL     1      61.012  62.632  68.548  0.00  0.00    +0.000 C 
ATOM      4  C   UNL     1      60.878  63.101  69.215  0.00  0.00    +0.000 C 
ATOM      5  C   UNL     1      60.629  62.752  69.919  0.00  0.00    +0.000 C 
ATOM      6  C   UNL     1      60.513  61.936  69.958  0.00  0.00    +0.000 C 
ATOM      7  C   UNL     1      60.264  61.588  70.663  0.00  0.00    +0.000 C 
ATOM      8  C   UNL     1      60.130  62.055  71.330  0.00  0.00    +0.000 C 
ATOM      9  C   UNL     1      60.245  62.871  71.291  0.00  0.00    +0.000 C 
ATOM     10  C   UNL     1      60.495  63.220  70.585  0.00  0.00    +0.000 C 
ATOM     11  C   UNL     1      61.396  62.513  67.176  0.00  0.00    +0.000 C 
ATOM     12  C   UNL     1      61.645  62.862  66.472  0.00  0.00    +0.000 C 
ATOM     13  C   UNL     1      61.779  62.393  65.805  0.00  0.00    +0.000 C 
ATOM     14  C   UNL     1      62.029  62.742  65.100  0.00  0.00    +0.000 C 
ATOM     15  C   UNL     1      62.163  62.274  64.434  0.00  0.00    +0.000 C 
ATOM     16  C   UNL     1      62.047  61.458  64.473  0.00  0.00    +0.000 C 
ATOM     17  C   UNL     1      61.798  61.110  65.178  0.00  0.00    +0.000 C 
ATOM     18  C   UNL     1      61.664  61.577  65.844  0.00  0.00    +0.000 C 
ENDROOT
TORSDOF 0
ENDMDL
MODEL 2
REMARK VINA RESULT:   -10.832      0.026      4.881
REMARK INTER + INTRA:         -10.832
REMARK INTER:                 -10.832
REMARK INTRA:                   0.000
REMARK UNBOUND:                 0.000
ROOT
REMARK  Name = cyverine
REMARK                            x       y       z     vdW  Elec       q    Type
REMARK                         _______ _______ _______ _____ _____    ______ ____
ATOM      1  C   UNL     1      61.377  63.800  67.819  0.00  0.00    +0.000 C 
ATOM      2  N   UNL     1      61.267  62.985  67.857  0.00  0.00    +0.000 NA
ATOM      3  C   UNL     1      61.398  62.518  67.190  0.00  0.00    +0.000 C 
ATOM      4  C   UNL     1      61.640  62.869  66.483  0.00  0.00    +0.000 C 
ATOM      5  C   UNL     1      61.772  62.402  65.816  0.00  0.00    +0.000 C 
ATOM      6  C   UNL     1      61.662  61.585  65.855  0.00  0.00    +0.000 C 
ATOM      7  C   UNL     1      61.793  61.119  65.187  0.00  0.00    +0.000 C 
ATOM      8  C   UNL     1      62.035  61.469  64.480  0.00  0.00    +0.000 C 
ATOM      9  C   UNL     1      62.145  62.286  64.441  0.00  0.00    +0.000 C 
ATOM     10  C   UNL     1      62.014  62.753  65.110  0.00  0.00    +0.000 C 
ATOM     11  C   UNL     1      61.024  62.634  68.565  0.00  0.00    +0.000 C 
ATOM     12  C   UNL     1      60.893  63.101  69.232  0.00  0.00    +0.000 C 
ATOM     13  C   UNL     1      60.651  62.750  69.939  0.00  0.00    +0.000 C 
ATOM     14  C   UNL     1      60.519  63.217  70.606  0.00  0.00    +0.000 C 
ATOM     15  C   UNL     1      60.277  62.866  71.313  0.00  0.00    +0.000 C 
ATOM     16  C   UNL     1      60.167  62.049  71.352  0.00  0.00    +0.000 C 
ATOM     17  C   UNL     1      60.299  61.583  70.684  0.00  0.00    +0.000 C 
ATOM     18  C   UNL     1      60.541  61.933  69.978  0.00  0.00    +0.000 C 
ENDROOT
TORSDOF 0
ENDMDL
MODEL 3
REMARK VINA RESULT:   -10.375      4.111      6.260
REMARK INTER + INTRA:         -10.375
REMARK INTER:                 -10.375
REMARK INTRA:                   0.000
REMARK UNBOUND:                 0.000
ROOT
REMARK  Name = cyverine
REMARK                            x       y       z     vdW  Elec       q    Type
REMARK                         _______ _______ _______ _____ _____    ______ ____
ATOM      1  C   UNL     1      63.353  64.767  69.597  0.00  0.00    +0.000 C 
ATOM      2  N   UNL     1      63.447  64.965  70.392  0.00  0.00    +0.000 NA
ATOM      3  C   UNL     1      63.993  65.543  70.611  0.00  0.00    +0.000 C 
ATOM      4  C   UNL     1      64.445  65.924  70.035  0.00  0.00    +0.000 C 
ATOM      5  C   UNL     1      64.991  66.502  70.254  0.00  0.00    +0.000 C 
ATOM      6  C   UNL     1      65.085  66.700  71.050  0.00  0.00    +0.000 C 
ATOM      7  C   UNL     1      65.631  67.277  71.269  0.00  0.00    +0.000 C 
ATOM      8  C   UNL     1      66.083  67.658  70.693  0.00  0.00    +0.000 C 
ATOM      9  C   UNL     1      65.989  67.460  69.898  0.00  0.00    +0.000 C 
ATOM     10  C   UNL     1      65.442  66.882  69.678  0.00  0.00    +0.000 C 
ATOM     11  C   UNL     1      62.995  64.584  70.968  0.00  0.00    +0.000 C 
ATOM     12  C   UNL     1      62.450  64.006  70.749  0.00  0.00    +0.000 C 
ATOM     13  C   UNL     1      61.998  63.626  71.325  0.00  0.00    +0.000 C 
ATOM     14  C   UNL     1      61.452  63.048  71.106  0.00  0.00    +0.000 C 
ATOM     15  C   UNL     1      61.000  62.667  71.682  0.00  0.00    +0.000 C 
ATOM     16  C   UNL     1      61.094  62.865  72.478  0.00  0.00    +0.000 C 
ATOM     17  C   UNL     1      61.640  63.443  72.696  0.00  0.00    +0.000 C 
ATOM     18  C   UNL     1      62.092  63.824  72.121  0.00  0.00    +0.000 C 
ENDROOT
TORSDOF 0
ENDMDL
MODEL 4
REMARK VINA RESULT:   -10.355      4.129      5.532
REMARK INTER + INTRA:         -10.355
REMARK INTER:                 -10.355
REMARK INTRA:                   0.000
REMARK UNBOUND:                 0.000
ROOT
REMARK  Name = cyverine
REMARK                            x       y       z     vdW  Elec       q    Type
REMARK                         _______ _______ _______ _____ _____    ______ ____
ATOM      1  C   UNL     1      63.336  64.802  69.625  0.00  0.00    +0.000 C 
ATOM      2  N   UNL     1      63.436  64.997  70.419  0.00  0.00    +0.000 NA
ATOM      3  C   UNL     1      62.983  64.621  70.997  0.00  0.00    +0.000 C 
ATOM      4  C   UNL     1      62.429  64.049  70.779  0.00  0.00    +0.000 C 
ATOM      5  C   UNL     1      61.976  63.673  71.357  0.00  0.00    +0.000 C 
ATOM      6  C   UNL     1      62.076  63.868  72.152  0.00  0.00    +0.000 C 
ATOM      7  C   UNL     1      61.623  63.492  72.729  0.00  0.00    +0.000 C 
ATOM      8  C   UNL     1      61.069  62.920  72.511  0.00  0.00    +0.000 C 
ATOM      9  C   UNL     1      60.969  62.725  71.716  0.00  0.00    +0.000 C 
ATOM     10  C   UNL     1      61.423  63.102  71.138  0.00  0.00    +0.000 C 
ATOM     11  C   UNL     1      63.990  65.569  70.637  0.00  0.00    +0.000 C 
ATOM     12  C   UNL     1      64.443  65.945  70.060  0.00  0.00    +0.000 C 
ATOM     13  C   UNL     1      64.997  66.517  70.278  0.00  0.00    +0.000 C 
ATOM     14  C   UNL     1      65.450  66.893  69.700  0.00  0.00    +0.000 C 
ATOM     15  C   UNL     1      66.004  67.465  69.918  0.00  0.00    +0.000 C 
ATOM     16  C   UNL     1      66.104  67.660  70.714  0.00  0.00    +0.000 C 
ATOM     17  C   UNL     1      65.650  67.283  71.291  0.00  0.00    +0.000 C 
ATOM     18  C   UNL     1      65.097  66.712  71.073  0.00  0.00    +0.000 C 
ENDROOT
TORSDOF 0
ENDMDL
MODEL 5
REMARK VINA RESULT:   -10.259      0.996      1.559
REMARK INTER + INTRA:         -10.259
REMARK INTER:                 -10.259
REMARK INTRA:                   0.000
REMARK UNBOUND:                 0.000
ROOT
REMARK  Name = cyverine
REMARK                            x       y       z     vdW  Elec       q    Type
REMARK                         _______ _______ _______ _____ _____    ______ ____
ATOM      1  C   UNL     1      60.168  62.155  67.730  0.00  0.00    +0.000 C 
ATOM      2  N   UNL     1      60.915  62.480  67.606  0.00  0.00    +0.000 NA
ATOM      3  C   UNL     1      61.291  62.894  68.212  0.00  0.00    +0.000 C 
ATOM      4  C   UNL     1      60.918  62.982  68.944  0.00  0.00    +0.000 C 
ATOM      5  C   UNL     1      61.295  63.396  69.550  0.00  0.00    +0.000 C 
ATOM      6  C   UNL     1      62.042  63.721  69.426  0.00  0.00    +0.000 C 
ATOM      7  C   UNL     1      62.418  64.134  70.033  0.00  0.00    +0.000 C 
ATOM      8  C   UNL     1      62.046  64.223  70.764  0.00  0.00    +0.000 C 
ATOM      9  C   UNL     1      61.299  63.897  70.889  0.00  0.00    +0.000 C 
ATOM     10  C   UNL     1      60.922  63.483  70.281  0.00  0.00    +0.000 C 
ATOM     11  C   UNL     1      61.287  62.393  66.874  0.00  0.00    +0.000 C 
ATOM     12  C   UNL     1      60.911  61.979  66.268  0.00  0.00    +0.000 C 
ATOM     13  C   UNL     1      61.283  61.891  65.536  0.00  0.00    +0.000 C 
ATOM     14  C   UNL     1      60.907  61.477  64.930  0.00  0.00    +0.000 C 
ATOM     15  C   UNL     1      61.280  61.390  64.198  0.00  0.00    +0.000 C 
ATOM     16  C   UNL     1      62.027  61.715  64.074  0.00  0.00    +0.000 C 
ATOM     17  C   UNL     1      62.403  62.129  64.681  0.00  0.00    +0.000 C 
ATOM     18  C   UNL     1      62.031  62.217  65.412  0.00  0.00    +0.000 C 
ENDROOT
TORSDOF 0
ENDMDL
MODEL 6
REMARK VINA RESULT:    -9.679      1.462      4.990
REMARK INTER + INTRA:          -9.679
REMARK INTER:                  -9.679
REMARK INTRA:                   0.000
REMARK UNBOUND:                 0.000
ROOT
REMARK  Name = cyverine
REMARK                            x       y       z     vdW  Elec       q    Type
REMARK                         _______ _______ _______ _____ _____    ______ ____
ATOM      1  C   UNL     1      62.062  63.707  68.759  0.00  0.00    +0.000 C 
ATOM      2  N   UNL     1      61.360  63.356  69.011  0.00  0.00    +0.000 NA
ATOM      3  C   UNL     1      60.847  63.018  68.460  0.00  0.00    +0.000 C 
ATOM      4  C   UNL     1      61.037  63.032  67.657  0.00  0.00    +0.000 C 
ATOM      5  C   UNL     1      60.524  62.694  67.107  0.00  0.00    +0.000 C 
ATOM      6  C   UNL     1      59.821  62.343  67.358  0.00  0.00    +0.000 C 
ATOM      7  C   UNL     1      59.309  62.005  66.808  0.00  0.00    +0.000 C 
ATOM      8  C   UNL     1      59.499  62.018  66.005  0.00  0.00    +0.000 C 
ATOM      9  C   UNL     1      60.201  62.369  65.753  0.00  0.00    +0.000 C 
ATOM     10  C   UNL     1      60.715  62.707  66.304  0.00  0.00    +0.000 C 
ATOM     11  C   UNL     1      61.169  63.343  69.814  0.00  0.00    +0.000 C 
ATOM     12  C   UNL     1      61.683  63.681  70.365  0.00  0.00    +0.000 C 
ATOM     13  C   UNL     1      61.492  63.667  71.168  0.00  0.00    +0.000 C 
ATOM     14  C   UNL     1      62.005  64.005  71.718  0.00  0.00    +0.000 C 
ATOM     15  C   UNL     1      61.815  63.992  72.522  0.00  0.00    +0.000 C 
ATOM     16  C   UNL     1      61.112  63.640  72.773  0.00  0.00    +0.000 C 
ATOM     17  C   UNL     1      60.600  63.303  72.222  0.00  0.00    +0.000 C 
ATOM     18  C   UNL     1      60.789  63.316  71.420  0.00  0.00    +0.000 C 
ENDROOT
TORSDOF 0
ENDMDL
MODEL 7
REMARK VINA RESULT:    -9.573      2.313      3.065
REMARK INTER + INTRA:          -9.573
REMARK INTER:                  -9.573
REMARK INTRA:                   0.000
REMARK UNBOUND:                 0.000
ROOT
REMARK  Name = cyverine
REMARK                            x       y       z     vdW  Elec       q    Type
REMARK                         _______ _______ _______ _____ _____    ______ ____
ATOM      1  C   UNL     1      60.771  63.660  69.531  0.00  0.00    +0.000 C 
ATOM      2  N   UNL     1      61.366  63.626  68.962  0.00  0.00    +0.000 NA
ATOM      3  C   UNL     1      62.116  63.926  69.129  0.00  0.00    +0.000 C 
ATOM      4  C   UNL     1      62.270  64.261  69.868  0.00  0.00    +0.000 C 
ATOM      5  C   UNL     1      63.020  64.560  70.036  0.00  0.00    +0.000 C 
ATOM      6  C   UNL     1      63.615  64.526  69.466  0.00  0.00    +0.000 C 
ATOM      7  C   UNL     1      64.365  64.826  69.634  0.00  0.00    +0.000 C 
ATOM      8  C   UNL     1      64.520  65.161  70.373  0.00  0.00    +0.000 C 
ATOM      9  C   UNL     1      63.924  65.195  70.943  0.00  0.00    +0.000 C 
ATOM     10  C   UNL     1      63.174  64.894  70.774  0.00  0.00    +0.000 C 
ATOM     11  C   UNL     1      61.212  63.292  68.223  0.00  0.00    +0.000 C 
ATOM     12  C   UNL     1      60.462  62.992  68.055  0.00  0.00    +0.000 C 
ATOM     13  C   UNL     1      60.307  62.657  67.316  0.00  0.00    +0.000 C 
ATOM     14  C   UNL     1      59.557  62.357  67.148  0.00  0.00    +0.000 C 
ATOM     15  C   UNL     1      59.403  62.023  66.409  0.00  0.00    +0.000 C 
ATOM     16  C   UNL     1      59.999  61.989  65.839  0.00  0.00    +0.000 C 
ATOM     17  C   UNL     1      60.748  62.289  66.008  0.00  0.00    +0.000 C 
ATOM     18  C   UNL     1      60.903  62.623  66.746  0.00  0.00    +0.000 C 
ENDROOT
TORSDOF 0
ENDMDL
MODEL 8
REMARK VINA RESULT:    -9.536      2.373      4.567
REMARK INTER + INTRA:          -9.536
REMARK INTER:                  -9.536
REMARK INTRA:                   0.000
REMARK UNBOUND:                 0.000
ROOT
REMARK  Name = cyverine
REMARK                            x       y       z     vdW  Elec       q    Type
REMARK                         _______ _______ _______ _____ _____    ______ ____
ATOM      1  C   UNL     1      60.948  63.602  69.613  0.00  0.00    +0.000 C 
ATOM      2  N   UNL     1      61.513  63.617  69.014  0.00  0.00    +0.000 NA
ATOM      3  C   UNL     1      61.334  63.309  68.269  0.00  0.00    +0.000 C 
ATOM      4  C   UNL     1      60.588  62.987  68.125  0.00  0.00    +0.000 C 
ATOM      5  C   UNL     1      60.409  62.680  67.381  0.00  0.00    +0.000 C 
ATOM      6  C   UNL     1      60.975  62.694  66.781  0.00  0.00    +0.000 C 
ATOM      7  C   UNL     1      60.795  62.387  66.038  0.00  0.00    +0.000 C 
ATOM      8  C   UNL     1      60.050  62.064  65.893  0.00  0.00    +0.000 C 
ATOM      9  C   UNL     1      59.484  62.050  66.493  0.00  0.00    +0.000 C 
ATOM     10  C   UNL     1      59.663  62.358  67.238  0.00  0.00    +0.000 C 
ATOM     11  C   UNL     1      62.260  63.939  69.158  0.00  0.00    +0.000 C 
ATOM     12  C   UNL     1      62.439  64.246  69.902  0.00  0.00    +0.000 C 
ATOM     13  C   UNL     1      63.185  64.569  70.046  0.00  0.00    +0.000 C 
ATOM     14  C   UNL     1      63.364  64.876  70.790  0.00  0.00    +0.000 C 
ATOM     15  C   UNL     1      64.111  65.198  70.934  0.00  0.00    +0.000 C 
ATOM     16  C   UNL     1      64.677  65.213  70.334  0.00  0.00    +0.000 C 
ATOM     17  C   UNL     1      64.496  64.905  69.590  0.00  0.00    +0.000 C 
ATOM     18  C   UNL     1      63.751  64.583  69.446  0.00  0.00    +0.000 C 
ENDROOT
TORSDOF 0
ENDMDL
MODEL 9
REMARK VINA RESULT:    -9.444      1.562      2.258
REMARK INTER + INTRA:          -9.444
REMARK INTER:                  -9.444
REMARK INTRA:                   0.000
REMARK UNBOUND:                 0.000
ROOT
REMARK  Name = cyverine
REMARK                            x       y       z     vdW  Elec       q    Type
REMARK                         _______ _______ _______ _____ _____    ______ ____
ATOM      1  C   UNL     1      61.779  63.756  68.991  0.00  0.00    +0.000 C 
ATOM      2  N   UNL     1      60.987  63.575  69.126  0.00  0.00    +0.000 NA
ATOM      3  C   UNL     1      60.645  63.740  69.858  0.00  0.00    +0.000 C 
ATOM      4  C   UNL     1      61.097  64.088  70.455  0.00  0.00    +0.000 C 
ATOM      5  C   UNL     1      60.754  64.253  71.187  0.00  0.00    +0.000 C 
ATOM      6  C   UNL     1      59.961  64.071  71.323  0.00  0.00    +0.000 C 
ATOM      7  C   UNL     1      59.620  64.237  72.055  0.00  0.00    +0.000 C 
ATOM      8  C   UNL     1      60.071  64.585  72.652  0.00  0.00    +0.000 C 
ATOM      9  C   UNL     1      60.864  64.767  72.516  0.00  0.00    +0.000 C 
ATOM     10  C   UNL     1      61.206  64.601  71.784  0.00  0.00    +0.000 C 
ATOM     11  C   UNL     1      60.535  63.226  68.529  0.00  0.00    +0.000 C 
ATOM     12  C   UNL     1      60.878  63.061  67.797  0.00  0.00    +0.000 C 
ATOM     13  C   UNL     1      60.426  62.713  67.200  0.00  0.00    +0.000 C 
ATOM     14  C   UNL     1      60.768  62.548  66.468  0.00  0.00    +0.000 C 
ATOM     15  C   UNL     1      60.316  62.200  65.871  0.00  0.00    +0.000 C 
ATOM     16  C   UNL     1      59.523  62.017  66.007  0.00  0.00    +0.000 C 
ATOM     17  C   UNL     1      59.182  62.183  66.740  0.00  0.00    +0.000 C 
ATOM     18  C   UNL     1      59.633  62.531  67.336  0.00  0.00    +0.000 C 
ENDROOT
TORSDOF 0
ENDMDL
