MODEL 1
REMARK VINA RESULT:   -16.367      0.000      0.000
REMARK INTER + INTRA:         -16.367
REMARK INTER:                 -16.367
REMARK INTRA:                   0.000
REMARK UNBOUND:                 0.000
ROOT
REMARK  Name = dalbavancin
REMARK                            x       y       z     vdW  Elec       q    Type
REMARK                         _______ _______ _______ _____ _____    ______ ____
ATOM      1  C   UNL     1      82.252  59.198  50.364  0.00  0.00    +0.000 C 
ATOM      2  N   UNL     1      82.252  59.402  51.163  0.00  0.00    +0.000 NA
ATOM      3  C   UNL     1      82.252  60.197  51.385  0.00  0.00    +0.000 C 
ATOM      4  C   UNL     1      82.252  60.743  50.743  0.00  0.00    +0.000 A 
ATOM      5  C   UNL     1      82.252  61.570  50.884  0.00  0.00    +0.000 A 
ATOM      6  C   UNL     1      82.252  62.137  50.263  0.00  0.00    +0.000 A 
ATOM      7  O   UNL     1      82.252  62.966  50.449  0.00  0.00    +0.000 OA
ATOM      8  C   UNL     1      82.252  63.328  51.215  0.00  0.00    +0.000 A 
ATOM      9  C   UNL     1      82.252  62.798  51.865  0.00  0.00    +0.000 A 
ATOM     10  C   UNL     1      82.252  63.058  52.659  0.00  0.00    +0.000 A 
ATOM     11  C   UNL     1      82.252  62.485  53.294  0.00  0.00    +0.000 C 
ATOM     12  N   UNL     1      82.252  61.643  53.311  0.00  0.00    +0.000 NA
ATOM     13  C   UNL     1      82.252  60.937  53.766  0.00  0.00    +0.000 C 
ATOM     14  O   UNL     1      82.252  61.164  54.559  0.00  0.00    +0.000 OA
ATOM     15  C   UNL     1      82.252  60.089  53.751  0.00  0.00    +0.000 C 
ATOM     16  C   UNL     1      82.252  59.526  54.387  0.00  0.00    +0.000 C 
ATOM     17  C   UNL     1      82.252  59.603  55.230  0.00  0.00    +0.000 A 
ATOM     18  C   UNL     1      82.252  60.433  55.189  0.00  0.00    +0.000 A 
ATOM     19  C   UNL     1      82.252  60.905  55.867  0.00  0.00    +0.000 A 
ATOM     20  C   UNL     1      82.252  60.592  56.634  0.00  0.00    +0.000 A 
ATOM     21  O   UNL     1      82.252  61.391  56.928  0.00  0.00    +0.000 OA
ATOM     22  C   UNL     1      82.252  62.204  57.209  0.00  0.00    +0.000 A 
ATOM     23  C   UNL     1      82.252  62.789  57.836  0.00  0.00    +0.000 A 
ATOM     24  O   UNL     1      82.252  62.520  58.616  0.00  0.00    +0.000 OA
ATOM     25  C   UNL     1      82.252  61.711  58.774  0.00  0.00    +0.000 C 
ATOM     26  O   UNL     1      82.252  61.170  58.151  0.00  0.00    +0.000 OA
ATOM     27  C   UNL     1      82.252  60.360  58.309  0.00  0.00    +0.000 C 
ATOM     28  C   UNL     1      82.252  60.091  59.089  0.00  0.00    +0.000 C 
ATOM     29  O   UNL     1      82.252  59.282  59.246  0.00  0.00    +0.000 OA
ATOM     30  C   UNL     1      82.252  60.632  59.712  0.00  0.00    +0.000 C 
ATOM     31  O   UNL     1      82.252  60.365  60.491  0.00  0.00    +0.000 OA
ATOM     32  C   UNL     1      82.252  61.443  59.554  0.00  0.00    +0.000 C 
ATOM     33  N   UNL     1      82.252  61.984  60.176  0.00  0.00    +0.000 NA
ATOM     34  C   UNL     1      82.252  61.715  60.956  0.00  0.00    +0.000 C 
ATOM     35  O   UNL     1      82.252  60.906  61.114  0.00  0.00    +0.000 OA
ATOM     36  C   UNL     1      82.252  62.257  61.579  0.00  0.00    +0.000 C 
ATOM     37  C   UNL     1      82.252  61.989  62.359  0.00  0.00    +0.000 C 
ATOM     38  C   UNL     1      82.252  62.531  62.981  0.00  0.00    +0.000 C 
ATOM     39  C   UNL     1      82.252  62.262  63.762  0.00  0.00    +0.000 C 
ATOM     40  C   UNL     1      82.252  62.803  64.384  0.00  0.00    +0.000 C 
ATOM     41  C   UNL     1      82.252  62.536  65.164  0.00  0.00    +0.000 C 
ATOM     42  C   UNL     1      82.252  63.077  65.787  0.00  0.00    +0.000 C 
ATOM     43  C   UNL     1      82.252  62.808  66.567  0.00  0.00    +0.000 C 
ATOM     44  C   UNL     1      82.252  63.350  67.189  0.00  0.00    +0.000 C 
ATOM     45  C   UNL     1      82.252  63.081  67.969  0.00  0.00    +0.000 C 
ATOM     46  C   UNL     1      82.252  64.160  67.032  0.00  0.00    +0.000 C 
ATOM     47  C   UNL     1      82.252  59.818  57.687  0.00  0.00    +0.000 C 
ATOM     48  O   UNL     1      82.252  60.087  56.907  0.00  0.00    +0.000 OA
ATOM     49  O   UNL     1      82.252  59.008  57.844  0.00  0.00    +0.000 OA
ATOM     50  C   UNL     1      82.252  63.634  57.702  0.00  0.00    +0.000 A 
ATOM     51  C   UNL     1      82.252  63.867  56.895  0.00  0.00    +0.000 A 
ATOM     52  C   UNL     1      82.252  63.331  56.264  0.00  0.00    +0.000 A 
ATOM     53  C   UNL     1      82.252  62.521  56.433  0.00  0.00    +0.000 A 
ATOM     54  C   UNL     1      82.252  63.633  55.486  0.00  0.00    +0.000 C 
ATOM     55  N   UNL     1      82.252  63.169  54.794  0.00  0.00    +0.000 NA
ATOM     56  C   UNL     1      82.252  62.932  53.999  0.00  0.00    +0.000 C 
ATOM     57  O   UNL     1      82.252  63.682  53.656  0.00  0.00    +0.000 OA
ATOM     58  C   UNL     1      82.252  64.393  55.143  0.00  0.00    +0.000 C 
ATOM     59  O   UNL     1      82.252  64.865  55.821  0.00  0.00    +0.000 OA
ATOM     60  N   UNL     1      82.252  64.976  54.554  0.00  0.00    +0.000 NA
ATOM     61  C   UNL     1      82.252  65.812  54.478  0.00  0.00    +0.000 C 
ATOM     62  C   UNL     1      82.252  66.266  53.741  0.00  0.00    +0.000 A 
ATOM     63  C   UNL     1      82.252  67.106  53.776  0.00  0.00    +0.000 A 
ATOM     64  C   UNL     1      82.252  67.606  53.099  0.00  0.00    +0.000 A 
ATOM     65  C   UNL     1      82.252  67.233  52.349  0.00  0.00    +0.000 A 
ATOM     66  O   UNL     1      82.252  67.696  51.667  0.00  0.00    +0.000 OA
ATOM     67  C   UNL     1      82.252  66.405  52.279  0.00  0.00    +0.000 A 
ATOM     68  C   UNL     1      82.252  65.938  52.967  0.00  0.00    +0.000 A 
ATOM     69  C   UNL     1      82.252  68.443  53.238  0.00  0.00    +0.000 A 
ATOM     70  C   UNL     1      82.252  68.820  52.505  0.00  0.00    +0.000 A 
ATOM     71  O   UNL     1      82.252  68.374  51.811  0.00  0.00    +0.000 OA
ATOM     72  C   UNL     1      82.252  68.752  51.078  0.00  0.00    +0.000 C 
ATOM     73  O   UNL     1      82.252  69.576  51.038  0.00  0.00    +0.000 OA
ATOM     74  C   UNL     1      82.252  69.954  50.305  0.00  0.00    +0.000 C 
ATOM     75  C   UNL     1      82.252  70.778  50.266  0.00  0.00    +0.000 C 
ATOM     76  O   UNL     1      82.252  71.156  49.532  0.00  0.00    +0.000 OA
ATOM     77  C   UNL     1      82.252  69.508  49.611  0.00  0.00    +0.000 C 
ATOM     78  O   UNL     1      82.252  69.886  48.877  0.00  0.00    +0.000 OA
ATOM     79  C   UNL     1      82.252  68.683  49.650  0.00  0.00    +0.000 C 
ATOM     80  O   UNL     1      82.252  68.238  48.957  0.00  0.00    +0.000 OA
ATOM     81  C   UNL     1      82.252  68.306  50.384  0.00  0.00    +0.000 C 
ATOM     82  O   UNL     1      82.252  67.482  50.423  0.00  0.00    +0.000 OA
ATOM     83  C   UNL     1      82.252  69.644  52.465  0.00  0.00    +0.000 A 
ATOM     84  C   UNL     1      82.252  70.091  53.160  0.00  0.00    +0.000 A 
ATOM     85  O   UNL     1      82.252  70.915  53.120  0.00  0.00    +0.000 OA
ATOM     86  C   UNL     1      82.252  69.712  53.893  0.00  0.00    +0.000 A 
ATOM     87  C   UNL     1      82.252  68.888  53.933  0.00  0.00    +0.000 A 
ATOM     88  C   UNL     1      82.252  68.587  54.712  0.00  0.00    +0.000 C 
ATOM     89  N   UNL     1      82.252  68.819  55.512  0.00  0.00    +0.000 NA
ATOM     90  C   UNL     1      82.252  68.293  56.154  0.00  0.00    +0.000 C 
ATOM     91  O   UNL     1      82.252  68.694  56.875  0.00  0.00    +0.000 OA
ATOM     92  C   UNL     1      82.252  67.459  56.264  0.00  0.00    +0.000 C 
ATOM     93  N   UNL     1      82.252  66.897  55.627  0.00  0.00    +0.000 NA
ATOM     94  C   UNL     1      82.252  66.138  55.264  0.00  0.00    +0.000 C 
ATOM     95  O   UNL     1      82.252  65.538  55.831  0.00  0.00    +0.000 OA
ATOM     96  C   UNL     1      82.252  67.429  57.115  0.00  0.00    +0.000 C 
ATOM     97  O   UNL     1      82.252  68.198  57.413  0.00  0.00    +0.000 OA
ATOM     98  C   UNL     1      82.252  66.883  57.758  0.00  0.00    +0.000 A 
ATOM     99  C   UNL     1      82.252  66.259  57.208  0.00  0.00    +0.000 A 
ATOM    100  C   UNL     1      82.252  65.473  57.455  0.00  0.00    +0.000 A 
ATOM    101 CL   UNL     1      82.252  64.881  56.880  0.00  0.00    +0.000 Cl
ATOM    102  C   UNL     1      82.252  65.248  58.253  0.00  0.00    +0.000 A 
ATOM    103  O   UNL     1      82.252  64.443  57.988  0.00  0.00    +0.000 OA
ATOM    104  C   UNL     1      82.252  65.889  58.798  0.00  0.00    +0.000 A 
ATOM    105  C   UNL     1      82.252  66.697  58.570  0.00  0.00    +0.000 A 
ATOM    106  C   UNL     1      82.252  69.411  54.748  0.00  0.00    +0.000 C 
ATOM    107  O   UNL     1      82.252  70.048  54.223  0.00  0.00    +0.000 OA
ATOM    108  N   UNL     1      82.252  69.792  55.480  0.00  0.00    +0.000 NA
ATOM    109  C   UNL     1      82.252  70.616  55.516  0.00  0.00    +0.000 C 
ATOM    110  C   UNL     1      82.252  70.997  56.248  0.00  0.00    +0.000 C 
ATOM    111  C   UNL     1      82.252  71.822  56.284  0.00  0.00    +0.000 C 
ATOM    112  N   UNL     1      82.252  72.202  57.016  0.00  0.00    +0.000 NA
ATOM    113  C   UNL     1      82.252  71.759  57.711  0.00  0.00    +0.000 C 
ATOM    114  C   UNL     1      82.252  73.026  57.051  0.00  0.00    +0.000 C 
ATOM    115  C   UNL     1      82.252  59.750  56.667  0.00  0.00    +0.000 A 
ATOM    116  C   UNL     1      82.252  59.255  55.991  0.00  0.00    +0.000 A 
ATOM    117  N   UNL     1      82.252  59.922  52.928  0.00  0.00    +0.000 NA
ATOM    118  C   UNL     1      82.252  60.330  52.204  0.00  0.00    +0.000 C 
ATOM    119  O   UNL     1      82.252  61.142  52.349  0.00  0.00    +0.000 OA
ATOM    120  C   UNL     1      82.252  63.886  52.794  0.00  0.00    +0.000 A 
ATOM    121 CL   UNL     1      82.252  64.169  53.569  0.00  0.00    +0.000 Cl
ATOM    122  C   UNL     1      82.252  64.423  52.165  0.00  0.00    +0.000 A 
ATOM    123  O   UNL     1      82.252  65.233  52.316  0.00  0.00    +0.000 OA
ATOM    124  C   UNL     1      82.252  64.148  51.382  0.00  0.00    +0.000 A 
ATOM    125  C   UNL     1      82.252  61.844  49.478  0.00  0.00    +0.000 A 
ATOM    126  O   UNL     1      82.252  62.376  48.848  0.00  0.00    +0.000 OA
ATOM    127  C   UNL     1      82.252  61.026  49.321  0.00  0.00    +0.000 A 
ATOM    128  C   UNL     1      82.252  60.483  49.949  0.00  0.00    +0.000 A 
ENDROOT
TORSDOF 0
ENDMDL
