MODEL 1
REMARK VINA RESULT:   -14.329      0.000      0.000
REMARK INTER + INTRA:         -14.329
REMARK INTER:                 -14.329
REMARK INTRA:                   0.000
REMARK UNBOUND:                 0.000
ROOT
REMARK  Name = danazol
REMARK                            x       y       z     vdW  Elec       q    Type
REMARK                         _______ _______ _______ _____ _____    ______ ____
ATOM      1  C   UNL     1      61.999  61.863  64.514  0.00  0.00    +0.000 C 
ATOM      2  C   UNL     1      61.311  61.797  64.965  0.00  0.00    +0.000 C 
ATOM      3  C   UNL     1      61.910  62.232  65.329  0.00  0.00    +0.000 C 
ATOM      4  C   UNL     1      61.789  62.554  66.078  0.00  0.00    +0.000 C 
ATOM      5  C   UNL     1      61.069  62.442  66.465  0.00  0.00    +0.000 C 
ATOM      6  C   UNL     1      60.470  62.007  66.101  0.00  0.00    +0.000 C 
ATOM      7  C   UNL     1      59.749  61.894  66.487  0.00  0.00    +0.000 C 
ATOM      8  C   UNL     1      59.627  62.216  67.236  0.00  0.00    +0.000 C 
ATOM      9  C   UNL     1      60.227  62.652  67.600  0.00  0.00    +0.000 C 
ATOM     10  C   UNL     1      60.106  62.974  68.349  0.00  0.00    +0.000 C 
ATOM     11  C   UNL     1      60.705  63.410  68.714  0.00  0.00    +0.000 A 
ATOM     12  C   UNL     1      61.425  63.522  68.328  0.00  0.00    +0.000 A 
ATOM     13  C   UNL     1      61.546  63.200  67.578  0.00  0.00    +0.000 C 
ATOM     14  C   UNL     1      60.948  62.765  67.214  0.00  0.00    +0.000 C 
ATOM     15  C   UNL     1      61.668  62.877  66.828  0.00  0.00    +0.000 C 
ATOM     16  C   UNL     1      61.910  63.973  68.820  0.00  0.00    +0.000 A 
ATOM     17  N   UNL     1      61.490  64.139  69.510  0.00  0.00    +0.000 NA
ATOM     18  O   UNL     1      60.744  63.791  69.444  0.00  0.00    +0.000 OA
ATOM     19  C   UNL     1      60.591  61.684  65.351  0.00  0.00    +0.000 C 
ATOM     20  C   UNL     1      60.106  61.233  64.859  0.00  0.00    +0.000 C 
ATOM     21  C   UNL     1      60.526  61.067  64.169  0.00  0.00    +0.000 C 
ATOM     22  C   UNL     1      61.272  61.416  64.235  0.00  0.00    +0.000 C 
ATOM     23  O   UNL     1      61.556  61.170  63.500  0.00  0.00    +0.000 OA
ATOM     24  C   UNL     1      62.032  61.612  63.984  0.00  0.00    +0.000 C 
ATOM     25  C   UNL     1      62.793  61.809  63.733  0.00  0.00    +0.000 C 
ENDROOT
TORSDOF 0
ENDMDL
MODEL 2
REMARK VINA RESULT:   -13.749      1.453      4.031
REMARK INTER + INTRA:         -13.749
REMARK INTER:                 -13.749
REMARK INTRA:                   0.000
REMARK UNBOUND:                 0.000
ROOT
REMARK  Name = danazol
REMARK                            x       y       z     vdW  Elec       q    Type
REMARK                         _______ _______ _______ _____ _____    ______ ____
ATOM      1  C   UNL     1      61.638  63.495  68.187  0.00  0.00    +0.000 C 
ATOM      2  C   UNL     1      61.042  63.088  67.789  0.00  0.00    +0.000 C 
ATOM      3  C   UNL     1      61.752  63.134  67.372  0.00  0.00    +0.000 C 
ATOM      4  C   UNL     1      61.816  62.789  66.626  0.00  0.00    +0.000 C 
ATOM      5  C   UNL     1      61.169  62.398  66.295  0.00  0.00    +0.000 C 
ATOM      6  C   UNL     1      60.459  62.353  66.711  0.00  0.00    +0.000 C 
ATOM      7  C   UNL     1      59.812  61.962  66.380  0.00  0.00    +0.000 C 
ATOM      8  C   UNL     1      59.875  61.617  65.634  0.00  0.00    +0.000 C 
ATOM      9  C   UNL     1      60.586  61.663  65.217  0.00  0.00    +0.000 C 
ATOM     10  C   UNL     1      60.650  61.318  64.471  0.00  0.00    +0.000 C 
ATOM     11  C   UNL     1      61.361  61.364  64.054  0.00  0.00    +0.000 A 
ATOM     12  C   UNL     1      62.008  61.754  64.385  0.00  0.00    +0.000 A 
ATOM     13  C   UNL     1      61.944  62.099  65.132  0.00  0.00    +0.000 C 
ATOM     14  C   UNL     1      61.233  62.054  65.548  0.00  0.00    +0.000 C 
ATOM     15  C   UNL     1      61.880  62.444  65.879  0.00  0.00    +0.000 C 
ATOM     16  C   UNL     1      62.633  61.711  63.849  0.00  0.00    +0.000 A 
ATOM     17  N   UNL     1      62.373  61.293  63.186  0.00  0.00    +0.000 NA
ATOM     18  O   UNL     1      61.586  61.079  63.314  0.00  0.00    +0.000 OA
ATOM     19  C   UNL     1      60.395  62.698  67.458  0.00  0.00    +0.000 C 
ATOM     20  C   UNL     1      59.769  62.741  67.994  0.00  0.00    +0.000 C 
ATOM     21  C   UNL     1      60.030  63.159  68.656  0.00  0.00    +0.000 C 
ATOM     22  C   UNL     1      60.816  63.373  68.529  0.00  0.00    +0.000 C 
ATOM     23  O   UNL     1      60.925  63.765  69.247  0.00  0.00    +0.000 OA
ATOM     24  C   UNL     1      61.539  63.722  68.720  0.00  0.00    +0.000 C 
ATOM     25  C   UNL     1      62.262  64.071  68.912  0.00  0.00    +0.000 C 
ENDROOT
TORSDOF 0
ENDMDL
MODEL 3
REMARK VINA RESULT:   -13.214      2.445      5.515
REMARK INTER + INTRA:         -13.214
REMARK INTER:                 -13.214
REMARK INTRA:                   0.000
REMARK UNBOUND:                 0.000
ROOT
REMARK  Name = danazol
REMARK                            x       y       z     vdW  Elec       q    Type
REMARK                         _______ _______ _______ _____ _____    ______ ____
ATOM      1  C   UNL     1      61.942  64.446  71.626  0.00  0.00    +0.000 C 
ATOM      2  C   UNL     1      61.544  63.741  71.472  0.00  0.00    +0.000 C 
ATOM      3  C   UNL     1      61.777  64.149  70.794  0.00  0.00    +0.000 C 
ATOM      4  C   UNL     1      61.606  63.841  70.048  0.00  0.00    +0.000 C 
ATOM      5  C   UNL     1      61.202  63.125  69.979  0.00  0.00    +0.000 C 
ATOM      6  C   UNL     1      60.969  62.717  70.657  0.00  0.00    +0.000 C 
ATOM      7  C   UNL     1      60.565  62.001  70.588  0.00  0.00    +0.000 C 
ATOM      8  C   UNL     1      60.393  61.693  69.843  0.00  0.00    +0.000 C 
ATOM      9  C   UNL     1      60.627  62.102  69.164  0.00  0.00    +0.000 C 
ATOM     10  C   UNL     1      60.456  61.795  68.419  0.00  0.00    +0.000 C 
ATOM     11  C   UNL     1      60.689  62.203  67.740  0.00  0.00    +0.000 A 
ATOM     12  C   UNL     1      61.093  62.919  67.809  0.00  0.00    +0.000 A 
ATOM     13  C   UNL     1      61.264  63.226  68.555  0.00  0.00    +0.000 C 
ATOM     14  C   UNL     1      61.031  62.818  69.233  0.00  0.00    +0.000 C 
ATOM     15  C   UNL     1      61.435  63.534  69.302  0.00  0.00    +0.000 C 
ATOM     16  C   UNL     1      61.252  63.195  67.048  0.00  0.00    +0.000 A 
ATOM     17  N   UNL     1      60.946  62.651  66.509  0.00  0.00    +0.000 NA
ATOM     18  O   UNL     1      60.598  62.037  66.938  0.00  0.00    +0.000 OA
ATOM     19  C   UNL     1      61.140  63.025  71.403  0.00  0.00    +0.000 C 
ATOM     20  C   UNL     1      60.981  62.748  72.164  0.00  0.00    +0.000 C 
ATOM     21  C   UNL     1      61.287  63.293  72.703  0.00  0.00    +0.000 C 
ATOM     22  C   UNL     1      61.635  63.906  72.274  0.00  0.00    +0.000 C 
ATOM     23  O   UNL     1      61.883  64.348  72.926  0.00  0.00    +0.000 OA
ATOM     24  C   UNL     1      62.038  64.619  72.179  0.00  0.00    +0.000 C 
ATOM     25  C   UNL     1      62.442  65.333  72.084  0.00  0.00    +0.000 C 
ENDROOT
TORSDOF 0
ENDMDL
MODEL 4
REMARK VINA RESULT:   -12.903      5.085      7.292
REMARK INTER + INTRA:         -12.903
REMARK INTER:                 -12.903
REMARK INTRA:                   0.000
REMARK UNBOUND:                 0.000
ROOT
REMARK  Name = danazol
REMARK                            x       y       z     vdW  Elec       q    Type
REMARK                         _______ _______ _______ _____ _____    ______ ____
ATOM      1  C   UNL     1      66.088  66.587  71.690  0.00  0.00    +0.000 C 
ATOM      2  C   UNL     1      65.620  66.649  71.014  0.00  0.00    +0.000 C 
ATOM      3  C   UNL     1      65.304  66.159  71.596  0.00  0.00    +0.000 C 
ATOM      4  C   UNL     1      64.580  65.783  71.472  0.00  0.00    +0.000 C 
ATOM      5  C   UNL     1      64.172  65.897  70.764  0.00  0.00    +0.000 C 
ATOM      6  C   UNL     1      64.488  66.387  70.181  0.00  0.00    +0.000 C 
ATOM      7  C   UNL     1      64.081  66.502  69.473  0.00  0.00    +0.000 C 
ATOM      8  C   UNL     1      63.357  66.127  69.347  0.00  0.00    +0.000 C 
ATOM      9  C   UNL     1      63.041  65.636  69.931  0.00  0.00    +0.000 C 
ATOM     10  C   UNL     1      62.318  65.260  69.806  0.00  0.00    +0.000 C 
ATOM     11  C   UNL     1      62.000  64.770  70.389  0.00  0.00    +0.000 A 
ATOM     12  C   UNL     1      62.408  64.655  71.097  0.00  0.00    +0.000 A 
ATOM     13  C   UNL     1      63.132  65.031  71.222  0.00  0.00    +0.000 C 
ATOM     14  C   UNL     1      63.448  65.521  70.639  0.00  0.00    +0.000 C 
ATOM     15  C   UNL     1      63.856  65.407  71.347  0.00  0.00    +0.000 C 
ATOM     16  C   UNL     1      61.963  64.144  71.567  0.00  0.00    +0.000 A 
ATOM     17  N   UNL     1      61.280  63.943  71.150  0.00  0.00    +0.000 NA
ATOM     18  O   UNL     1      61.304  64.330  70.422  0.00  0.00    +0.000 OA
ATOM     19  C   UNL     1      65.212  66.763  70.306  0.00  0.00    +0.000 C 
ATOM     20  C   UNL     1      65.657  67.274  69.835  0.00  0.00    +0.000 C 
ATOM     21  C   UNL     1      66.340  67.476  70.252  0.00  0.00    +0.000 C 
ATOM     22  C   UNL     1      66.316  67.089  70.981  0.00  0.00    +0.000 C 
ATOM     23  O   UNL     1      67.035  67.379  71.266  0.00  0.00    +0.000 OA
ATOM     24  C   UNL     1      66.597  66.878  71.727  0.00  0.00    +0.000 C 
ATOM     25  C   UNL     1      66.878  66.666  72.474  0.00  0.00    +0.000 C 
ENDROOT
TORSDOF 0
ENDMDL
MODEL 5
REMARK VINA RESULT:   -12.897      2.989      5.087
REMARK INTER + INTRA:         -12.897
REMARK INTER:                 -12.897
REMARK INTRA:                   0.000
REMARK UNBOUND:                 0.000
ROOT
REMARK  Name = danazol
REMARK                            x       y       z     vdW  Elec       q    Type
REMARK                         _______ _______ _______ _____ _____    ______ ____
ATOM      1  C   UNL     1      60.840  62.665  69.258  0.00  0.00    +0.000 C 
ATOM      2  C   UNL     1      60.873  62.645  70.082  0.00  0.00    +0.000 C 
ATOM      3  C   UNL     1      61.189  63.331  69.752  0.00  0.00    +0.000 C 
ATOM      4  C   UNL     1      61.499  63.919  70.239  0.00  0.00    +0.000 C 
ATOM      5  C   UNL     1      61.494  63.821  71.059  0.00  0.00    +0.000 C 
ATOM      6  C   UNL     1      61.178  63.135  71.389  0.00  0.00    +0.000 C 
ATOM      7  C   UNL     1      61.172  63.037  72.209  0.00  0.00    +0.000 C 
ATOM      8  C   UNL     1      61.482  63.624  72.697  0.00  0.00    +0.000 C 
ATOM      9  C   UNL     1      61.799  64.311  72.366  0.00  0.00    +0.000 C 
ATOM     10  C   UNL     1      62.109  64.899  72.854  0.00  0.00    +0.000 C 
ATOM     11  C   UNL     1      62.426  65.586  72.524  0.00  0.00    +0.000 A 
ATOM     12  C   UNL     1      62.431  65.684  71.704  0.00  0.00    +0.000 A 
ATOM     13  C   UNL     1      62.121  65.095  71.216  0.00  0.00    +0.000 C 
ATOM     14  C   UNL     1      61.804  64.409  71.547  0.00  0.00    +0.000 C 
ATOM     15  C   UNL     1      61.810  64.507  70.727  0.00  0.00    +0.000 C 
ATOM     16  C   UNL     1      62.777  66.414  71.538  0.00  0.00    +0.000 A 
ATOM     17  N   UNL     1      62.985  66.767  72.253  0.00  0.00    +0.000 NA
ATOM     18  O   UNL     1      62.768  66.254  72.863  0.00  0.00    +0.000 OA
ATOM     19  C   UNL     1      60.867  62.547  70.901  0.00  0.00    +0.000 C 
ATOM     20  C   UNL     1      60.521  61.816  71.068  0.00  0.00    +0.000 C 
ATOM     21  C   UNL     1      60.313  61.463  70.352  0.00  0.00    +0.000 C 
ATOM     22  C   UNL     1      60.530  61.976  69.743  0.00  0.00    +0.000 C 
ATOM     23  O   UNL     1      60.268  61.500  69.121  0.00  0.00    +0.000 OA
ATOM     24  C   UNL     1      60.607  62.217  68.958  0.00  0.00    +0.000 C 
ATOM     25  C   UNL     1      60.685  62.459  68.173  0.00  0.00    +0.000 C 
ENDROOT
TORSDOF 0
ENDMDL
MODEL 6
REMARK VINA RESULT:   -12.674      4.611      6.188
REMARK INTER + INTRA:         -12.674
REMARK INTER:                 -12.674
REMARK INTRA:                   0.000
REMARK UNBOUND:                 0.000
ROOT
REMARK  Name = danazol
REMARK                            x       y       z     vdW  Elec       q    Type
REMARK                         _______ _______ _______ _____ _____    ______ ____
ATOM      1  C   UNL     1      60.637  62.372  70.868  0.00  0.00    +0.000 C 
ATOM      2  C   UNL     1      60.880  62.849  71.495  0.00  0.00    +0.000 C 
ATOM      3  C   UNL     1      60.399  63.235  70.948  0.00  0.00    +0.000 C 
ATOM      4  C   UNL     1      60.203  64.029  71.059  0.00  0.00    +0.000 C 
ATOM      5  C   UNL     1      60.489  64.436  71.717  0.00  0.00    +0.000 C 
ATOM      6  C   UNL     1      60.970  64.050  72.264  0.00  0.00    +0.000 C 
ATOM      7  C   UNL     1      61.255  64.458  72.922  0.00  0.00    +0.000 C 
ATOM      8  C   UNL     1      61.060  65.251  73.034  0.00  0.00    +0.000 C 
ATOM      9  C   UNL     1      60.579  65.638  72.486  0.00  0.00    +0.000 C 
ATOM     10  C   UNL     1      60.383  66.431  72.596  0.00  0.00    +0.000 C 
ATOM     11  C   UNL     1      59.902  66.818  72.050  0.00  0.00    +0.000 A 
ATOM     12  C   UNL     1      59.616  66.411  71.391  0.00  0.00    +0.000 A 
ATOM     13  C   UNL     1      59.812  65.617  71.281  0.00  0.00    +0.000 C 
ATOM     14  C   UNL     1      60.293  65.230  71.828  0.00  0.00    +0.000 C 
ATOM     15  C   UNL     1      60.007  64.823  71.169  0.00  0.00    +0.000 C 
ATOM     16  C   UNL     1      59.156  66.933  70.948  0.00  0.00    +0.000 A 
ATOM     17  N   UNL     1      59.157  67.663  71.332  0.00  0.00    +0.000 NA
ATOM     18  O   UNL     1      59.618  67.591  72.013  0.00  0.00    +0.000 OA
ATOM     19  C   UNL     1      61.166  63.256  72.153  0.00  0.00    +0.000 C 
ATOM     20  C   UNL     1      61.626  62.734  72.596  0.00  0.00    +0.000 C 
ATOM     21  C   UNL     1      61.625  62.004  72.212  0.00  0.00    +0.000 C 
ATOM     22  C   UNL     1      61.163  62.075  71.532  0.00  0.00    +0.000 C 
ATOM     23  O   UNL     1      61.258  61.297  71.271  0.00  0.00    +0.000 OA
ATOM     24  C   UNL     1      60.806  61.811  70.837  0.00  0.00    +0.000 C 
ATOM     25  C   UNL     1      60.449  61.546  70.142  0.00  0.00    +0.000 C 
ENDROOT
TORSDOF 0
ENDMDL
MODEL 7
REMARK VINA RESULT:   -12.497      5.228      6.717
REMARK INTER + INTRA:         -12.497
REMARK INTER:                 -12.497
REMARK INTRA:                   0.000
REMARK UNBOUND:                 0.000
ROOT
REMARK  Name = danazol
REMARK                            x       y       z     vdW  Elec       q    Type
REMARK                         _______ _______ _______ _____ _____    ______ ____
ATOM      1  C   UNL     1      61.588  63.270  71.359  0.00  0.00    +0.000 C 
ATOM      2  C   UNL     1      61.722  63.961  71.789  0.00  0.00    +0.000 C 
ATOM      3  C   UNL     1      62.230  63.862  71.148  0.00  0.00    +0.000 C 
ATOM      4  C   UNL     1      62.807  64.429  70.987  0.00  0.00    +0.000 C 
ATOM      5  C   UNL     1      62.876  65.096  71.468  0.00  0.00    +0.000 C 
ATOM      6  C   UNL     1      62.368  65.194  72.110  0.00  0.00    +0.000 C 
ATOM      7  C   UNL     1      62.436  65.861  72.592  0.00  0.00    +0.000 C 
ATOM      8  C   UNL     1      63.013  66.428  72.432  0.00  0.00    +0.000 C 
ATOM      9  C   UNL     1      63.522  66.329  71.789  0.00  0.00    +0.000 C 
ATOM     10  C   UNL     1      64.098  66.896  71.628  0.00  0.00    +0.000 C 
ATOM     11  C   UNL     1      64.607  66.798  70.986  0.00  0.00    +0.000 A 
ATOM     12  C   UNL     1      64.538  66.131  70.505  0.00  0.00    +0.000 A 
ATOM     13  C   UNL     1      63.961  65.564  70.666  0.00  0.00    +0.000 C 
ATOM     14  C   UNL     1      63.453  65.663  71.307  0.00  0.00    +0.000 C 
ATOM     15  C   UNL     1      63.384  64.996  70.826  0.00  0.00    +0.000 C 
ATOM     16  C   UNL     1      65.113  66.183  69.915  0.00  0.00    +0.000 A 
ATOM     17  N   UNL     1      65.537  66.881  70.032  0.00  0.00    +0.000 NA
ATOM     18  O   UNL     1      65.224  67.261  70.694  0.00  0.00    +0.000 OA
ATOM     19  C   UNL     1      61.790  64.627  72.271  0.00  0.00    +0.000 C 
ATOM     20  C   UNL     1      61.216  64.576  72.861  0.00  0.00    +0.000 C 
ATOM     21  C   UNL     1      60.792  63.878  72.744  0.00  0.00    +0.000 C 
ATOM     22  C   UNL     1      61.105  63.498  72.081  0.00  0.00    +0.000 C 
ATOM     23  O   UNL     1      60.597  62.847  72.097  0.00  0.00    +0.000 OA
ATOM     24  C   UNL     1      61.161  62.899  71.518  0.00  0.00    +0.000 C 
ATOM     25  C   UNL     1      61.218  62.298  70.954  0.00  0.00    +0.000 C 
ENDROOT
TORSDOF 0
ENDMDL
MODEL 8
REMARK VINA RESULT:   -12.285      5.300      7.025
REMARK INTER + INTRA:         -12.285
REMARK INTER:                 -12.285
REMARK INTRA:                   0.000
REMARK UNBOUND:                 0.000
ROOT
REMARK  Name = danazol
REMARK                            x       y       z     vdW  Elec       q    Type
REMARK                         _______ _______ _______ _____ _____    ______ ____
ATOM      1  C   UNL     1      64.541  66.328  70.858  0.00  0.00    +0.000 C 
ATOM      2  C   UNL     1      63.956  66.347  71.438  0.00  0.00    +0.000 C 
ATOM      3  C   UNL     1      63.932  65.675  70.961  0.00  0.00    +0.000 C 
ATOM      4  C   UNL     1      63.357  65.098  71.089  0.00  0.00    +0.000 C 
ATOM      5  C   UNL     1      62.804  65.193  71.694  0.00  0.00    +0.000 C 
ATOM      6  C   UNL     1      62.828  65.865  72.171  0.00  0.00    +0.000 C 
ATOM      7  C   UNL     1      62.275  65.960  72.777  0.00  0.00    +0.000 C 
ATOM      8  C   UNL     1      61.700  65.383  72.905  0.00  0.00    +0.000 C 
ATOM      9  C   UNL     1      61.676  64.710  72.427  0.00  0.00    +0.000 C 
ATOM     10  C   UNL     1      61.102  64.134  72.555  0.00  0.00    +0.000 C 
ATOM     11  C   UNL     1      61.078  63.461  72.078  0.00  0.00    +0.000 A 
ATOM     12  C   UNL     1      61.630  63.366  71.472  0.00  0.00    +0.000 A 
ATOM     13  C   UNL     1      62.205  63.943  71.345  0.00  0.00    +0.000 C 
ATOM     14  C   UNL     1      62.229  64.615  71.822  0.00  0.00    +0.000 C 
ATOM     15  C   UNL     1      62.781  64.520  71.216  0.00  0.00    +0.000 C 
ATOM     16  C   UNL     1      61.472  62.651  71.093  0.00  0.00    +0.000 A 
ATOM     17  N   UNL     1      60.822  62.303  71.464  0.00  0.00    +0.000 NA
ATOM     18  O   UNL     1      60.579  62.805  72.073  0.00  0.00    +0.000 OA
ATOM     19  C   UNL     1      63.403  66.442  72.044  0.00  0.00    +0.000 C 
ATOM     20  C   UNL     1      63.561  67.157  72.423  0.00  0.00    +0.000 C 
ATOM     21  C   UNL     1      64.211  67.505  72.052  0.00  0.00    +0.000 C 
ATOM     22  C   UNL     1      64.455  67.003  71.443  0.00  0.00    +0.000 C 
ATOM     23  O   UNL     1      65.084  67.470  71.182  0.00  0.00    +0.000 OA
ATOM     24  C   UNL     1      64.927  66.768  70.810  0.00  0.00    +0.000 C 
ATOM     25  C   UNL     1      65.401  66.532  70.177  0.00  0.00    +0.000 C 
ENDROOT
TORSDOF 0
ENDMDL
MODEL 9
REMARK VINA RESULT:   -12.197      1.076      1.919
REMARK INTER + INTRA:         -12.197
REMARK INTER:                 -12.197
REMARK INTRA:                   0.000
REMARK UNBOUND:                 0.000
ROOT
REMARK  Name = danazol
REMARK                            x       y       z     vdW  Elec       q    Type
REMARK                         _______ _______ _______ _____ _____    ______ ____
ATOM      1  C   UNL     1      60.875  61.336  65.401  0.00  0.00    +0.000 C 
ATOM      2  C   UNL     1      61.226  61.965  65.802  0.00  0.00    +0.000 C 
ATOM      3  C   UNL     1      60.773  61.472  66.283  0.00  0.00    +0.000 C 
ATOM      4  C   UNL     1      60.704  61.631  67.090  0.00  0.00    +0.000 C 
ATOM      5  C   UNL     1      61.089  62.284  67.415  0.00  0.00    +0.000 C 
ATOM      6  C   UNL     1      61.542  62.777  66.934  0.00  0.00    +0.000 C 
ATOM      7  C   UNL     1      61.927  63.431  67.260  0.00  0.00    +0.000 C 
ATOM      8  C   UNL     1      61.859  63.591  68.066  0.00  0.00    +0.000 C 
ATOM      9  C   UNL     1      61.405  63.097  68.548  0.00  0.00    +0.000 C 
ATOM     10  C   UNL     1      61.337  63.256  69.353  0.00  0.00    +0.000 C 
ATOM     11  C   UNL     1      60.884  62.763  69.835  0.00  0.00    +0.000 A 
ATOM     12  C   UNL     1      60.499  62.110  69.510  0.00  0.00    +0.000 A 
ATOM     13  C   UNL     1      60.568  61.950  68.703  0.00  0.00    +0.000 C 
ATOM     14  C   UNL     1      61.021  62.444  68.222  0.00  0.00    +0.000 C 
ATOM     15  C   UNL     1      60.636  61.790  67.896  0.00  0.00    +0.000 C 
ATOM     16  C   UNL     1      60.094  61.724  70.116  0.00  0.00    +0.000 A 
ATOM     17  N   UNL     1      60.228  62.139  70.817  0.00  0.00    +0.000 NA
ATOM     18  O   UNL     1      60.717  62.781  70.642  0.00  0.00    +0.000 OA
ATOM     19  C   UNL     1      61.611  62.618  66.128  0.00  0.00    +0.000 C 
ATOM     20  C   UNL     1      62.016  63.004  65.521  0.00  0.00    +0.000 C 
ATOM     21  C   UNL     1      61.882  62.589  64.821  0.00  0.00    +0.000 C 
ATOM     22  C   UNL     1      61.393  61.947  64.995  0.00  0.00    +0.000 C 
ATOM     23  O   UNL     1      61.354  61.646  64.227  0.00  0.00    +0.000 OA
ATOM     24  C   UNL     1      60.957  61.268  64.823  0.00  0.00    +0.000 C 
ATOM     25  C   UNL     1      60.520  60.590  64.651  0.00  0.00    +0.000 C 
ENDROOT
TORSDOF 0
ENDMDL
