MODEL 1
REMARK VINA RESULT:   -11.432      0.000      0.000
REMARK INTER + INTRA:         -11.432
REMARK INTER:                 -11.432
REMARK INTRA:                   0.000
REMARK UNBOUND:                 0.000
ROOT
REMARK  Name = danofloxacin
REMARK                            x       y       z     vdW  Elec       q    Type
REMARK                         _______ _______ _______ _____ _____    ______ ____
ATOM      1  C   UNL     1      61.216  62.380  65.470  0.00  0.00    +0.000 C 
ATOM      2  N   UNL     1      61.175  62.452  66.291  0.00  0.00    +0.000 NA
ATOM      3  C   UNL     1      61.666  62.987  66.683  0.00  0.00    +0.000 C 
ATOM      4  C   UNL     1      61.625  63.058  67.504  0.00  0.00    +0.000 C 
ATOM      5  C   UNL     1      61.217  62.579  66.931  0.00  0.00    +0.000 C 
ATOM      6  C   UNL     1      60.644  61.988  66.719  0.00  0.00    +0.000 C 
ATOM      7  C   UNL     1      60.604  62.060  67.541  0.00  0.00    +0.000 C 
ATOM      8  N   UNL     1      61.094  62.595  67.932  0.00  0.00    +0.000 N 
ATOM      9  C   UNL     1      61.054  62.666  68.753  0.00  0.00    +0.000 A 
ATOM     10  C   UNL     1      61.544  63.202  69.145  0.00  0.00    +0.000 A 
ATOM     11  C   UNL     1      61.504  63.274  69.967  0.00  0.00    +0.000 A 
ATOM     12  C   UNL     1      60.973  62.809  70.396  0.00  0.00    +0.000 A 
ATOM     13  C   UNL     1      60.483  62.274  70.003  0.00  0.00    +0.000 A 
ATOM     14  C   UNL     1      60.523  62.202  69.182  0.00  0.00    +0.000 A 
ATOM     15  F   UNL     1      60.033  61.667  68.790  0.00  0.00    +0.000 F 
ATOM     16  C   UNL     1      60.933  62.881  71.216  0.00  0.00    +0.000 A 
ATOM     17  O   UNL     1      60.402  62.417  71.645  0.00  0.00    +0.000 OA
ATOM     18  C   UNL     1      61.423  63.416  71.608  0.00  0.00    +0.000 A 
ATOM     19  C   UNL     1      61.954  63.880  71.179  0.00  0.00    +0.000 A 
ATOM     20  N   UNL     1      61.994  63.808  70.358  0.00  0.00    +0.000 N 
ATOM     21  C   UNL     1      62.525  64.272  69.930  0.00  0.00    +0.000 C 
ATOM     22  C   UNL     1      63.114  64.848  69.908  0.00  0.00    +0.000 C 
ATOM     23  C   UNL     1      62.854  64.498  69.208  0.00  0.00    +0.000 C 
ATOM     24  C   UNL     1      61.383  63.488  72.429  0.00  0.00    +0.000 C 
ATOM     25  O   UNL     1      60.852  63.024  72.858  0.00  0.00    +0.000 OA
ATOM     26  O   UNL     1      61.872  64.023  72.821  0.00  0.00    +0.000 OA
ENDROOT
TORSDOF 0
ENDMDL
MODEL 2
REMARK VINA RESULT:   -11.303      1.659      2.197
REMARK INTER + INTRA:         -11.303
REMARK INTER:                 -11.303
REMARK INTRA:                   0.000
REMARK UNBOUND:                 0.000
ROOT
REMARK  Name = danofloxacin
REMARK                            x       y       z     vdW  Elec       q    Type
REMARK                         _______ _______ _______ _____ _____    ______ ____
ATOM      1  C   UNL     1      61.521  61.717  65.928  0.00  0.00    +0.000 C 
ATOM      2  N   UNL     1      61.287  62.148  66.591  0.00  0.00    +0.000 NA
ATOM      3  C   UNL     1      61.236  61.777  67.327  0.00  0.00    +0.000 C 
ATOM      4  C   UNL     1      61.002  62.208  67.990  0.00  0.00    +0.000 C 
ATOM      5  C   UNL     1      61.113  62.401  67.169  0.00  0.00    +0.000 C 
ATOM      6  C   UNL     1      61.104  62.949  66.519  0.00  0.00    +0.000 C 
ATOM      7  C   UNL     1      60.871  63.379  67.184  0.00  0.00    +0.000 C 
ATOM      8  N   UNL     1      60.819  63.009  67.918  0.00  0.00    +0.000 N 
ATOM      9  C   UNL     1      60.586  63.439  68.582  0.00  0.00    +0.000 A 
ATOM     10  C   UNL     1      60.534  63.069  69.317  0.00  0.00    +0.000 A 
ATOM     11  C   UNL     1      60.301  63.499  69.982  0.00  0.00    +0.000 A 
ATOM     12  C   UNL     1      60.118  64.302  69.910  0.00  0.00    +0.000 A 
ATOM     13  C   UNL     1      60.169  64.672  69.174  0.00  0.00    +0.000 A 
ATOM     14  C   UNL     1      60.403  64.242  68.510  0.00  0.00    +0.000 A 
ATOM     15  F   UNL     1      60.454  64.612  67.775  0.00  0.00    +0.000 F 
ATOM     16  C   UNL     1      59.884  64.732  70.573  0.00  0.00    +0.000 A 
ATOM     17  O   UNL     1      59.702  65.533  70.502  0.00  0.00    +0.000 OA
ATOM     18  C   UNL     1      59.833  64.362  71.308  0.00  0.00    +0.000 A 
ATOM     19  C   UNL     1      60.016  63.559  71.380  0.00  0.00    +0.000 A 
ATOM     20  N   UNL     1      60.249  63.129  70.716  0.00  0.00    +0.000 N 
ATOM     21  C   UNL     1      60.432  62.328  70.788  0.00  0.00    +0.000 C 
ATOM     22  C   UNL     1      60.508  61.652  71.253  0.00  0.00    +0.000 C 
ATOM     23  C   UNL     1      60.672  61.617  70.445  0.00  0.00    +0.000 C 
ATOM     24  C   UNL     1      59.599  64.792  71.972  0.00  0.00    +0.000 C 
ATOM     25  O   UNL     1      59.417  65.593  71.901  0.00  0.00    +0.000 OA
ATOM     26  O   UNL     1      59.548  64.422  72.707  0.00  0.00    +0.000 OA
ENDROOT
TORSDOF 0
ENDMDL
MODEL 3
REMARK VINA RESULT:   -11.236      2.898      4.950
REMARK INTER + INTRA:         -11.236
REMARK INTER:                 -11.236
REMARK INTRA:                   0.000
REMARK UNBOUND:                 0.000
ROOT
REMARK  Name = danofloxacin
REMARK                            x       y       z     vdW  Elec       q    Type
REMARK                         _______ _______ _______ _____ _____    ______ ____
ATOM      1  C   UNL     1      66.434  67.627  69.880  0.00  0.00    +0.000 C 
ATOM      2  N   UNL     1      65.777  67.294  70.251  0.00  0.00    +0.000 NA
ATOM      3  C   UNL     1      65.377  66.666  69.894  0.00  0.00    +0.000 C 
ATOM      4  C   UNL     1      64.721  66.332  70.265  0.00  0.00    +0.000 C 
ATOM      5  C   UNL     1      65.252  66.966  70.463  0.00  0.00    +0.000 C 
ATOM      6  C   UNL     1      65.520  67.587  70.978  0.00  0.00    +0.000 C 
ATOM      7  C   UNL     1      64.862  67.253  71.348  0.00  0.00    +0.000 C 
ATOM      8  N   UNL     1      64.463  66.625  70.992  0.00  0.00    +0.000 N 
ATOM      9  C   UNL     1      63.806  66.291  71.361  0.00  0.00    +0.000 A 
ATOM     10  C   UNL     1      63.406  65.664  71.005  0.00  0.00    +0.000 A 
ATOM     11  C   UNL     1      62.749  65.329  71.375  0.00  0.00    +0.000 A 
ATOM     12  C   UNL     1      62.491  65.623  72.103  0.00  0.00    +0.000 A 
ATOM     13  C   UNL     1      62.891  66.250  72.459  0.00  0.00    +0.000 A 
ATOM     14  C   UNL     1      63.548  66.585  72.089  0.00  0.00    +0.000 A 
ATOM     15  F   UNL     1      63.948  67.212  72.445  0.00  0.00    +0.000 F 
ATOM     16  C   UNL     1      61.834  65.289  72.472  0.00  0.00    +0.000 A 
ATOM     17  O   UNL     1      61.577  65.582  73.199  0.00  0.00    +0.000 OA
ATOM     18  C   UNL     1      61.435  64.662  72.116  0.00  0.00    +0.000 A 
ATOM     19  C   UNL     1      61.693  64.368  71.389  0.00  0.00    +0.000 A 
ATOM     20  N   UNL     1      62.349  64.702  71.019  0.00  0.00    +0.000 N 
ATOM     21  C   UNL     1      62.607  64.409  70.292  0.00  0.00    +0.000 C 
ATOM     22  C   UNL     1      62.525  63.878  69.667  0.00  0.00    +0.000 C 
ATOM     23  C   UNL     1      63.135  64.433  69.659  0.00  0.00    +0.000 C 
ATOM     24  C   UNL     1      60.777  64.327  72.486  0.00  0.00    +0.000 C 
ATOM     25  O   UNL     1      60.520  64.620  73.213  0.00  0.00    +0.000 OA
ATOM     26  O   UNL     1      60.378  63.700  72.130  0.00  0.00    +0.000 OA
ENDROOT
TORSDOF 0
ENDMDL
MODEL 4
REMARK VINA RESULT:   -11.146      2.316      4.408
REMARK INTER + INTRA:         -11.146
REMARK INTER:                 -11.146
REMARK INTRA:                   0.000
REMARK UNBOUND:                 0.000
ROOT
REMARK  Name = danofloxacin
REMARK                            x       y       z     vdW  Elec       q    Type
REMARK                         _______ _______ _______ _____ _____    ______ ____
ATOM      1  C   UNL     1      64.893  67.219  71.728  0.00  0.00    +0.000 C 
ATOM      2  N   UNL     1      64.411  66.637  71.397  0.00  0.00    +0.000 NA
ATOM      3  C   UNL     1      63.954  66.154  71.886  0.00  0.00    +0.000 C 
ATOM      4  C   UNL     1      63.472  65.571  71.555  0.00  0.00    +0.000 C 
ATOM      5  C   UNL     1      64.003  66.153  71.233  0.00  0.00    +0.000 C 
ATOM      6  C   UNL     1      64.387  66.537  70.579  0.00  0.00    +0.000 C 
ATOM      7  C   UNL     1      63.905  65.954  70.249  0.00  0.00    +0.000 C 
ATOM      8  N   UNL     1      63.448  65.471  70.737  0.00  0.00    +0.000 N 
ATOM      9  C   UNL     1      62.967  64.889  70.407  0.00  0.00    +0.000 A 
ATOM     10  C   UNL     1      62.509  64.406  70.895  0.00  0.00    +0.000 A 
ATOM     11  C   UNL     1      62.027  63.823  70.565  0.00  0.00    +0.000 A 
ATOM     12  C   UNL     1      62.003  63.723  69.745  0.00  0.00    +0.000 A 
ATOM     13  C   UNL     1      62.460  64.206  69.258  0.00  0.00    +0.000 A 
ATOM     14  C   UNL     1      62.942  64.789  69.587  0.00  0.00    +0.000 A 
ATOM     15  F   UNL     1      63.399  65.271  69.100  0.00  0.00    +0.000 F 
ATOM     16  C   UNL     1      61.521  63.140  69.416  0.00  0.00    +0.000 A 
ATOM     17  O   UNL     1      61.497  63.040  68.597  0.00  0.00    +0.000 OA
ATOM     18  C   UNL     1      61.064  62.658  69.903  0.00  0.00    +0.000 A 
ATOM     19  C   UNL     1      61.089  62.758  70.723  0.00  0.00    +0.000 A 
ATOM     20  N   UNL     1      61.570  63.340  71.053  0.00  0.00    +0.000 N 
ATOM     21  C   UNL     1      61.594  63.440  71.871  0.00  0.00    +0.000 C 
ATOM     22  C   UNL     1      61.345  63.220  72.625  0.00  0.00    +0.000 C 
ATOM     23  C   UNL     1      61.887  63.835  72.534  0.00  0.00    +0.000 C 
ATOM     24  C   UNL     1      60.582  62.075  69.574  0.00  0.00    +0.000 C 
ATOM     25  O   UNL     1      60.558  61.975  68.755  0.00  0.00    +0.000 OA
ATOM     26  O   UNL     1      60.125  61.592  70.061  0.00  0.00    +0.000 OA
ENDROOT
TORSDOF 0
ENDMDL
MODEL 5
REMARK VINA RESULT:   -10.975      3.077      5.099
REMARK INTER + INTRA:         -10.975
REMARK INTER:                 -10.975
REMARK INTRA:                   0.000
REMARK UNBOUND:                 0.000
ROOT
REMARK  Name = danofloxacin
REMARK                            x       y       z     vdW  Elec       q    Type
REMARK                         _______ _______ _______ _____ _____    ______ ____
ATOM      1  C   UNL     1      62.757  68.624  73.043  0.00  0.00    +0.000 C 
ATOM      2  N   UNL     1      62.597  67.857  72.786  0.00  0.00    +0.000 NA
ATOM      3  C   UNL     1      61.828  67.560  72.829  0.00  0.00    +0.000 C 
ATOM      4  C   UNL     1      61.668  66.792  72.572  0.00  0.00    +0.000 C 
ATOM      5  C   UNL     1      62.373  67.268  72.610  0.00  0.00    +0.000 C 
ATOM      6  C   UNL     1      63.206  67.386  72.488  0.00  0.00    +0.000 C 
ATOM      7  C   UNL     1      63.045  66.618  72.231  0.00  0.00    +0.000 C 
ATOM      8  N   UNL     1      62.277  66.322  72.273  0.00  0.00    +0.000 N 
ATOM      9  C   UNL     1      62.116  65.555  72.017  0.00  0.00    +0.000 A 
ATOM     10  C   UNL     1      61.348  65.257  72.059  0.00  0.00    +0.000 A 
ATOM     11  C   UNL     1      61.186  64.490  71.802  0.00  0.00    +0.000 A 
ATOM     12  C   UNL     1      61.795  64.018  71.503  0.00  0.00    +0.000 A 
ATOM     13  C   UNL     1      62.564  64.316  71.462  0.00  0.00    +0.000 A 
ATOM     14  C   UNL     1      62.725  65.083  71.718  0.00  0.00    +0.000 A 
ATOM     15  F   UNL     1      63.493  65.380  71.676  0.00  0.00    +0.000 F 
ATOM     16  C   UNL     1      61.635  63.251  71.247  0.00  0.00    +0.000 A 
ATOM     17  O   UNL     1      62.243  62.781  70.949  0.00  0.00    +0.000 OA
ATOM     18  C   UNL     1      60.867  62.955  71.289  0.00  0.00    +0.000 A 
ATOM     19  C   UNL     1      60.258  63.426  71.588  0.00  0.00    +0.000 A 
ATOM     20  N   UNL     1      60.418  64.193  71.844  0.00  0.00    +0.000 N 
ATOM     21  C   UNL     1      59.810  64.664  72.143  0.00  0.00    +0.000 C 
ATOM     22  C   UNL     1      59.016  64.764  72.339  0.00  0.00    +0.000 C 
ATOM     23  C   UNL     1      59.552  65.379  72.463  0.00  0.00    +0.000 C 
ATOM     24  C   UNL     1      60.706  62.187  71.033  0.00  0.00    +0.000 C 
ATOM     25  O   UNL     1      61.314  61.716  70.734  0.00  0.00    +0.000 OA
ATOM     26  O   UNL     1      59.938  61.890  71.075  0.00  0.00    +0.000 OA
ENDROOT
TORSDOF 0
ENDMDL
MODEL 6
REMARK VINA RESULT:   -10.912      3.157      4.552
REMARK INTER + INTRA:         -10.912
REMARK INTER:                 -10.912
REMARK INTRA:                   0.000
REMARK UNBOUND:                 0.000
ROOT
REMARK  Name = danofloxacin
REMARK                            x       y       z     vdW  Elec       q    Type
REMARK                         _______ _______ _______ _____ _____    ______ ____
ATOM      1  C   UNL     1      60.026  62.820  71.512  0.00  0.00    +0.000 C 
ATOM      2  N   UNL     1      60.677  63.290  71.327  0.00  0.00    +0.000 NA
ATOM      3  C   UNL     1      60.889  63.915  71.823  0.00  0.00    +0.000 C 
ATOM      4  C   UNL     1      61.541  64.386  71.638  0.00  0.00    +0.000 C 
ATOM      5  C   UNL     1      61.171  63.715  71.267  0.00  0.00    +0.000 C 
ATOM      6  C   UNL     1      61.118  63.137  70.646  0.00  0.00    +0.000 C 
ATOM      7  C   UNL     1      61.769  63.608  70.462  0.00  0.00    +0.000 C 
ATOM      8  N   UNL     1      61.981  64.232  70.957  0.00  0.00    +0.000 N 
ATOM      9  C   UNL     1      62.632  64.703  70.773  0.00  0.00    +0.000 A 
ATOM     10  C   UNL     1      62.844  65.328  71.268  0.00  0.00    +0.000 A 
ATOM     11  C   UNL     1      63.496  65.799  71.084  0.00  0.00    +0.000 A 
ATOM     12  C   UNL     1      63.937  65.646  70.403  0.00  0.00    +0.000 A 
ATOM     13  C   UNL     1      63.725  65.021  69.907  0.00  0.00    +0.000 A 
ATOM     14  C   UNL     1      63.073  64.549  70.091  0.00  0.00    +0.000 A 
ATOM     15  F   UNL     1      62.861  63.925  69.596  0.00  0.00    +0.000 F 
ATOM     16  C   UNL     1      64.588  66.116  70.218  0.00  0.00    +0.000 A 
ATOM     17  O   UNL     1      65.028  65.963  69.538  0.00  0.00    +0.000 OA
ATOM     18  C   UNL     1      64.799  66.740  70.714  0.00  0.00    +0.000 A 
ATOM     19  C   UNL     1      64.358  66.894  71.395  0.00  0.00    +0.000 A 
ATOM     20  N   UNL     1      63.707  66.423  71.580  0.00  0.00    +0.000 N 
ATOM     21  C   UNL     1      63.267  66.577  72.260  0.00  0.00    +0.000 C 
ATOM     22  C   UNL     1      63.135  67.026  72.939  0.00  0.00    +0.000 C 
ATOM     23  C   UNL     1      62.636  66.393  72.759  0.00  0.00    +0.000 C 
ATOM     24  C   UNL     1      65.451  67.212  70.530  0.00  0.00    +0.000 C 
ATOM     25  O   UNL     1      65.891  67.058  69.849  0.00  0.00    +0.000 OA
ATOM     26  O   UNL     1      65.662  67.836  71.025  0.00  0.00    +0.000 OA
ENDROOT
TORSDOF 0
ENDMDL
MODEL 7
REMARK VINA RESULT:   -10.893      3.566      4.833
REMARK INTER + INTRA:         -10.893
REMARK INTER:                 -10.893
REMARK INTRA:                   0.000
REMARK UNBOUND:                 0.000
ROOT
REMARK  Name = danofloxacin
REMARK                            x       y       z     vdW  Elec       q    Type
REMARK                         _______ _______ _______ _____ _____    ______ ____
ATOM      1  C   UNL     1      66.191  67.204  71.155  0.00  0.00    +0.000 C 
ATOM      2  N   UNL     1      65.476  66.800  71.227  0.00  0.00    +0.000 NA
ATOM      3  C   UNL     1      64.839  67.155  71.615  0.00  0.00    +0.000 C 
ATOM      4  C   UNL     1      64.123  66.752  71.686  0.00  0.00    +0.000 C 
ATOM      5  C   UNL     1      64.875  66.564  71.334  0.00  0.00    +0.000 C 
ATOM      6  C   UNL     1      65.396  66.042  70.912  0.00  0.00    +0.000 C 
ATOM      7  C   UNL     1      64.679  65.639  70.985  0.00  0.00    +0.000 C 
ATOM      8  N   UNL     1      64.043  65.993  71.371  0.00  0.00    +0.000 N 
ATOM      9  C   UNL     1      63.328  65.590  71.444  0.00  0.00    +0.000 A 
ATOM     10  C   UNL     1      62.691  65.945  71.831  0.00  0.00    +0.000 A 
ATOM     11  C   UNL     1      61.975  65.542  71.903  0.00  0.00    +0.000 A 
ATOM     12  C   UNL     1      61.895  64.783  71.588  0.00  0.00    +0.000 A 
ATOM     13  C   UNL     1      62.531  64.428  71.201  0.00  0.00    +0.000 A 
ATOM     14  C   UNL     1      63.248  64.831  71.128  0.00  0.00    +0.000 A 
ATOM     15  F   UNL     1      63.884  64.477  70.742  0.00  0.00    +0.000 F 
ATOM     16  C   UNL     1      61.179  64.380  71.660  0.00  0.00    +0.000 A 
ATOM     17  O   UNL     1      61.099  63.621  71.345  0.00  0.00    +0.000 OA
ATOM     18  C   UNL     1      60.543  64.734  72.047  0.00  0.00    +0.000 A 
ATOM     19  C   UNL     1      60.623  65.494  72.362  0.00  0.00    +0.000 A 
ATOM     20  N   UNL     1      61.339  65.896  72.290  0.00  0.00    +0.000 N 
ATOM     21  C   UNL     1      61.419  66.655  72.605  0.00  0.00    +0.000 C 
ATOM     22  C   UNL     1      61.098  67.297  73.010  0.00  0.00    +0.000 C 
ATOM     23  C   UNL     1      61.879  67.325  72.745  0.00  0.00    +0.000 C 
ATOM     24  C   UNL     1      59.827  64.331  72.119  0.00  0.00    +0.000 C 
ATOM     25  O   UNL     1      59.747  63.573  71.804  0.00  0.00    +0.000 OA
ATOM     26  O   UNL     1      59.191  64.686  72.506  0.00  0.00    +0.000 OA
ENDROOT
TORSDOF 0
ENDMDL
MODEL 8
REMARK VINA RESULT:   -10.745      3.263      4.363
REMARK INTER + INTRA:         -10.745
REMARK INTER:                 -10.745
REMARK INTRA:                   0.000
REMARK UNBOUND:                 0.000
ROOT
REMARK  Name = danofloxacin
REMARK                            x       y       z     vdW  Elec       q    Type
REMARK                         _______ _______ _______ _____ _____    ______ ____
ATOM      1  C   UNL     1      61.128  61.588  71.154  0.00  0.00    +0.000 C 
ATOM      2  N   UNL     1      61.273  62.367  71.382  0.00  0.00    +0.000 NA
ATOM      3  C   UNL     1      61.963  62.747  71.134  0.00  0.00    +0.000 C 
ATOM      4  C   UNL     1      62.109  63.526  71.362  0.00  0.00    +0.000 C 
ATOM      5  C   UNL     1      61.477  62.976  71.508  0.00  0.00    +0.000 C 
ATOM      6  C   UNL     1      60.730  62.767  71.857  0.00  0.00    +0.000 C 
ATOM      7  C   UNL     1      60.877  63.547  72.085  0.00  0.00    +0.000 C 
ATOM      8  N   UNL     1      61.566  63.926  71.837  0.00  0.00    +0.000 N 
ATOM      9  C   UNL     1      61.712  64.705  72.064  0.00  0.00    +0.000 A 
ATOM     10  C   UNL     1      62.402  65.085  71.817  0.00  0.00    +0.000 A 
ATOM     11  C   UNL     1      62.549  65.864  72.044  0.00  0.00    +0.000 A 
ATOM     12  C   UNL     1      62.005  66.265  72.520  0.00  0.00    +0.000 A 
ATOM     13  C   UNL     1      61.315  65.885  72.767  0.00  0.00    +0.000 A 
ATOM     14  C   UNL     1      61.169  65.105  72.540  0.00  0.00    +0.000 A 
ATOM     15  F   UNL     1      60.480  64.726  72.788  0.00  0.00    +0.000 F 
ATOM     16  C   UNL     1      62.151  67.044  72.747  0.00  0.00    +0.000 A 
ATOM     17  O   UNL     1      61.608  67.443  73.222  0.00  0.00    +0.000 OA
ATOM     18  C   UNL     1      62.840  67.423  72.500  0.00  0.00    +0.000 A 
ATOM     19  C   UNL     1      63.384  67.023  72.024  0.00  0.00    +0.000 A 
ATOM     20  N   UNL     1      63.237  66.244  71.797  0.00  0.00    +0.000 N 
ATOM     21  C   UNL     1      63.781  65.844  71.322  0.00  0.00    +0.000 C 
ATOM     22  C   UNL     1      64.491  65.832  70.905  0.00  0.00    +0.000 C 
ATOM     23  C   UNL     1      64.009  65.163  70.916  0.00  0.00    +0.000 C 
ATOM     24  C   UNL     1      62.987  68.203  72.727  0.00  0.00    +0.000 C 
ATOM     25  O   UNL     1      62.444  68.602  73.202  0.00  0.00    +0.000 OA
ATOM     26  O   UNL     1      63.676  68.582  72.480  0.00  0.00    +0.000 OA
ENDROOT
TORSDOF 0
ENDMDL
MODEL 9
REMARK VINA RESULT:   -10.700      3.750      5.100
REMARK INTER + INTRA:         -10.700
REMARK INTER:                 -10.700
REMARK INTRA:                   0.000
REMARK UNBOUND:                 0.000
ROOT
REMARK  Name = danofloxacin
REMARK                            x       y       z     vdW  Elec       q    Type
REMARK                         _______ _______ _______ _____ _____    ______ ____
ATOM      1  C   UNL     1      59.887  63.548  72.108  0.00  0.00    +0.000 C 
ATOM      2  N   UNL     1      60.546  64.040  72.042  0.00  0.00    +0.000 NA
ATOM      3  C   UNL     1      61.118  63.886  71.466  0.00  0.00    +0.000 C 
ATOM      4  C   UNL     1      61.778  64.377  71.399  0.00  0.00    +0.000 C 
ATOM      5  C   UNL     1      61.098  64.367  71.911  0.00  0.00    +0.000 C 
ATOM      6  C   UNL     1      60.635  64.684  72.549  0.00  0.00    +0.000 C 
ATOM      7  C   UNL     1      61.295  65.174  72.481  0.00  0.00    +0.000 C 
ATOM      8  N   UNL     1      61.866  65.021  71.907  0.00  0.00    +0.000 N 
ATOM      9  C   UNL     1      62.525  65.512  71.840  0.00  0.00    +0.000 A 
ATOM     10  C   UNL     1      63.097  65.359  71.265  0.00  0.00    +0.000 A 
ATOM     11  C   UNL     1      63.757  65.849  71.197  0.00  0.00    +0.000 A 
ATOM     12  C   UNL     1      63.845  66.494  71.706  0.00  0.00    +0.000 A 
ATOM     13  C   UNL     1      63.273  66.647  72.280  0.00  0.00    +0.000 A 
ATOM     14  C   UNL     1      62.613  66.157  72.348  0.00  0.00    +0.000 A 
ATOM     15  F   UNL     1      62.042  66.310  72.923  0.00  0.00    +0.000 F 
ATOM     16  C   UNL     1      64.505  66.985  71.638  0.00  0.00    +0.000 A 
ATOM     17  O   UNL     1      64.593  67.629  72.146  0.00  0.00    +0.000 OA
ATOM     18  C   UNL     1      65.076  66.831  71.064  0.00  0.00    +0.000 A 
ATOM     19  C   UNL     1      64.988  66.186  70.556  0.00  0.00    +0.000 A 
ATOM     20  N   UNL     1      64.328  65.696  70.623  0.00  0.00    +0.000 N 
ATOM     21  C   UNL     1      64.240  65.052  70.115  0.00  0.00    +0.000 C 
ATOM     22  C   UNL     1      64.519  64.591  69.491  0.00  0.00    +0.000 C 
ATOM     23  C   UNL     1      63.808  64.397  69.862  0.00  0.00    +0.000 C 
ATOM     24  C   UNL     1      65.736  67.322  70.996  0.00  0.00    +0.000 C 
ATOM     25  O   UNL     1      65.824  67.966  71.504  0.00  0.00    +0.000 OA
ATOM     26  O   UNL     1      66.307  67.169  70.422  0.00  0.00    +0.000 OA
ENDROOT
TORSDOF 0
ENDMDL
