MODEL 1
REMARK VINA RESULT:   -12.242      0.000      0.000
REMARK INTER + INTRA:         -12.242
REMARK INTER:                 -12.242
REMARK INTRA:                   0.000
REMARK UNBOUND:                 0.000
ROOT
REMARK  Name = dapiprazole
REMARK                            x       y       z     vdW  Elec       q    Type
REMARK                         _______ _______ _______ _____ _____    ______ ____
ATOM      1  C   UNL     1      59.958  61.620  65.621  0.00  0.00    +0.000 C 
ATOM      2  C   UNL     1      60.727  61.743  65.348  0.00  0.00    +0.000 A 
ATOM      3  C   UNL     1      61.292  62.082  65.844  0.00  0.00    +0.000 A 
ATOM      4  C   UNL     1      62.061  62.206  65.571  0.00  0.00    +0.000 A 
ATOM      5  C   UNL     1      62.264  61.989  64.801  0.00  0.00    +0.000 A 
ATOM      6  C   UNL     1      61.699  61.650  64.305  0.00  0.00    +0.000 A 
ATOM      7  C   UNL     1      60.931  61.527  64.578  0.00  0.00    +0.000 A 
ATOM      8  N   UNL     1      61.088  62.298  66.614  0.00  0.00    +0.000 N 
ATOM      9  C   UNL     1      60.320  62.175  66.887  0.00  0.00    +0.000 C 
ATOM     10  C   UNL     1      60.116  62.391  67.656  0.00  0.00    +0.000 C 
ATOM     11  N   UNL     1      60.681  62.730  68.153  0.00  0.00    +0.000 NA
ATOM     12  C   UNL     1      60.477  62.946  68.923  0.00  0.00    +0.000 C 
ATOM     13  C   UNL     1      61.042  63.285  69.419  0.00  0.00    +0.000 C 
ATOM     14  C   UNL     1      60.838  63.501  70.189  0.00  0.00    +0.000 A 
ATOM     15  N   UNL     1      60.095  63.412  70.537  0.00  0.00    +0.000 NA
ATOM     16  N   UNL     1      60.139  63.700  71.310  0.00  0.00    +0.000 NA
ATOM     17  C   UNL     1      60.909  63.967  71.438  0.00  0.00    +0.000 A 
ATOM     18  C   UNL     1      61.273  64.306  72.096  0.00  0.00    +0.000 C 
ATOM     19  C   UNL     1      62.068  64.523  72.062  0.00  0.00    +0.000 C 
ATOM     20  C   UNL     1      62.500  64.400  71.370  0.00  0.00    +0.000 C 
ATOM     21  C   UNL     1      62.137  64.061  70.712  0.00  0.00    +0.000 C 
ATOM     22  N   UNL     1      61.340  63.844  70.746  0.00  0.00    +0.000 N 
ATOM     23  C   UNL     1      61.449  62.853  67.880  0.00  0.00    +0.000 C 
ATOM     24  C   UNL     1      61.653  62.637  67.110  0.00  0.00    +0.000 C 
ENDROOT
TORSDOF 0
ENDMDL
MODEL 2
REMARK VINA RESULT:   -12.060      2.875      4.758
REMARK INTER + INTRA:         -12.060
REMARK INTER:                 -12.060
REMARK INTRA:                   0.000
REMARK UNBOUND:                 0.000
ROOT
REMARK  Name = dapiprazole
REMARK                            x       y       z     vdW  Elec       q    Type
REMARK                         _______ _______ _______ _____ _____    ______ ____
ATOM      1  C   UNL     1      60.922  62.852  68.967  0.00  0.00    +0.000 C 
ATOM      2  C   UNL     1      60.876  62.517  69.719  0.00  0.00    +0.000 A 
ATOM      3  C   UNL     1      61.378  62.778  70.319  0.00  0.00    +0.000 A 
ATOM      4  C   UNL     1      61.331  62.444  71.072  0.00  0.00    +0.000 A 
ATOM      5  C   UNL     1      60.782  61.847  71.225  0.00  0.00    +0.000 A 
ATOM      6  C   UNL     1      60.280  61.586  70.625  0.00  0.00    +0.000 A 
ATOM      7  C   UNL     1      60.326  61.921  69.872  0.00  0.00    +0.000 A 
ATOM      8  N   UNL     1      61.927  63.375  70.167  0.00  0.00    +0.000 N 
ATOM      9  C   UNL     1      61.974  63.710  69.414  0.00  0.00    +0.000 C 
ATOM     10  C   UNL     1      62.523  64.306  69.262  0.00  0.00    +0.000 C 
ATOM     11  N   UNL     1      63.026  64.568  69.861  0.00  0.00    +0.000 NA
ATOM     12  C   UNL     1      63.575  65.164  69.709  0.00  0.00    +0.000 C 
ATOM     13  C   UNL     1      64.077  65.425  70.309  0.00  0.00    +0.000 C 
ATOM     14  C   UNL     1      64.627  66.022  70.156  0.00  0.00    +0.000 A 
ATOM     15  N   UNL     1      64.737  66.407  69.434  0.00  0.00    +0.000 NA
ATOM     16  N   UNL     1      65.341  66.961  69.530  0.00  0.00    +0.000 NA
ATOM     17  C   UNL     1      65.603  66.919  70.311  0.00  0.00    +0.000 A 
ATOM     18  C   UNL     1      66.188  67.333  70.720  0.00  0.00    +0.000 C 
ATOM     19  C   UNL     1      66.331  67.168  71.515  0.00  0.00    +0.000 C 
ATOM     20  C   UNL     1      65.890  66.588  71.902  0.00  0.00    +0.000 C 
ATOM     21  C   UNL     1      65.305  66.173  71.493  0.00  0.00    +0.000 C 
ATOM     22  N   UNL     1      65.162  66.338  70.697  0.00  0.00    +0.000 N 
ATOM     23  C   UNL     1      62.979  64.233  70.614  0.00  0.00    +0.000 C 
ATOM     24  C   UNL     1      62.430  63.636  70.767  0.00  0.00    +0.000 C 
ENDROOT
TORSDOF 0
ENDMDL
MODEL 3
REMARK VINA RESULT:   -11.970      0.682      5.444
REMARK INTER + INTRA:         -11.970
REMARK INTER:                 -11.970
REMARK INTRA:                   0.000
REMARK UNBOUND:                 0.000
ROOT
REMARK  Name = dapiprazole
REMARK                            x       y       z     vdW  Elec       q    Type
REMARK                         _______ _______ _______ _____ _____    ______ ____
ATOM      1  C   UNL     1      60.218  63.569  71.331  0.00  0.00    +0.000 C 
ATOM      2  C   UNL     1      60.972  63.892  71.422  0.00  0.00    +0.000 A 
ATOM      3  C   UNL     1      61.502  63.888  70.791  0.00  0.00    +0.000 A 
ATOM      4  C   UNL     1      62.256  64.212  70.882  0.00  0.00    +0.000 A 
ATOM      5  C   UNL     1      62.479  64.539  71.606  0.00  0.00    +0.000 A 
ATOM      6  C   UNL     1      61.949  64.543  72.238  0.00  0.00    +0.000 A 
ATOM      7  C   UNL     1      61.195  64.220  72.146  0.00  0.00    +0.000 A 
ATOM      8  N   UNL     1      61.279  63.561  70.067  0.00  0.00    +0.000 N 
ATOM      9  C   UNL     1      60.525  63.238  69.975  0.00  0.00    +0.000 C 
ATOM     10  C   UNL     1      60.302  62.910  69.252  0.00  0.00    +0.000 C 
ATOM     11  N   UNL     1      60.832  62.906  68.620  0.00  0.00    +0.000 NA
ATOM     12  C   UNL     1      60.609  62.578  67.896  0.00  0.00    +0.000 C 
ATOM     13  C   UNL     1      61.139  62.574  67.264  0.00  0.00    +0.000 C 
ATOM     14  C   UNL     1      60.916  62.247  66.540  0.00  0.00    +0.000 A 
ATOM     15  N   UNL     1      60.185  61.905  66.368  0.00  0.00    +0.000 NA
ATOM     16  N   UNL     1      60.201  61.651  65.583  0.00  0.00    +0.000 NA
ATOM     17  C   UNL     1      60.942  61.835  65.271  0.00  0.00    +0.000 A 
ATOM     18  C   UNL     1      61.273  61.715  64.525  0.00  0.00    +0.000 C 
ATOM     19  C   UNL     1      62.043  61.963  64.370  0.00  0.00    +0.000 C 
ATOM     20  C   UNL     1      62.485  62.331  64.961  0.00  0.00    +0.000 C 
ATOM     21  C   UNL     1      62.155  62.452  65.708  0.00  0.00    +0.000 C 
ATOM     22  N   UNL     1      61.383  62.203  65.863  0.00  0.00    +0.000 N 
ATOM     23  C   UNL     1      61.586  63.229  68.711  0.00  0.00    +0.000 C 
ATOM     24  C   UNL     1      61.809  63.557  69.435  0.00  0.00    +0.000 C 
ENDROOT
TORSDOF 0
ENDMDL
MODEL 4
REMARK VINA RESULT:   -11.910      2.549      5.744
REMARK INTER + INTRA:         -11.910
REMARK INTER:                 -11.910
REMARK INTRA:                   0.000
REMARK UNBOUND:                 0.000
ROOT
REMARK  Name = dapiprazole
REMARK                            x       y       z     vdW  Elec       q    Type
REMARK                         _______ _______ _______ _____ _____    ______ ____
ATOM      1  C   UNL     1      64.791  66.507  71.876  0.00  0.00    +0.000 C 
ATOM      2  C   UNL     1      65.137  66.795  71.185  0.00  0.00    +0.000 A 
ATOM      3  C   UNL     1      64.885  66.519  70.450  0.00  0.00    +0.000 A 
ATOM      4  C   UNL     1      65.231  66.807  69.759  0.00  0.00    +0.000 A 
ATOM      5  C   UNL     1      65.830  67.373  69.803  0.00  0.00    +0.000 A 
ATOM      6  C   UNL     1      66.082  67.650  70.538  0.00  0.00    +0.000 A 
ATOM      7  C   UNL     1      65.736  67.361  71.229  0.00  0.00    +0.000 A 
ATOM      8  N   UNL     1      64.286  65.953  70.406  0.00  0.00    +0.000 N 
ATOM      9  C   UNL     1      63.940  65.664  71.097  0.00  0.00    +0.000 C 
ATOM     10  C   UNL     1      63.341  65.098  71.053  0.00  0.00    +0.000 C 
ATOM     11  N   UNL     1      63.088  64.821  70.318  0.00  0.00    +0.000 NA
ATOM     12  C   UNL     1      62.489  64.255  70.274  0.00  0.00    +0.000 C 
ATOM     13  C   UNL     1      62.237  63.978  69.539  0.00  0.00    +0.000 C 
ATOM     14  C   UNL     1      61.638  63.412  69.495  0.00  0.00    +0.000 A 
ATOM     15  N   UNL     1      61.243  63.074  70.135  0.00  0.00    +0.000 NA
ATOM     16  N   UNL     1      60.690  62.538  69.839  0.00  0.00    +0.000 NA
ATOM     17  C   UNL     1      60.744  62.545  69.016  0.00  0.00    +0.000 A 
ATOM     18  C   UNL     1      60.335  62.129  68.432  0.00  0.00    +0.000 C 
ATOM     19  C   UNL     1      60.512  62.253  67.637  0.00  0.00    +0.000 C 
ATOM     20  C   UNL     1      61.098  62.794  67.424  0.00  0.00    +0.000 C 
ATOM     21  C   UNL     1      61.507  63.210  68.007  0.00  0.00    +0.000 C 
ATOM     22  N   UNL     1      61.330  63.085  68.804  0.00  0.00    +0.000 N 
ATOM     23  C   UNL     1      63.435  65.110  69.627  0.00  0.00    +0.000 C 
ATOM     24  C   UNL     1      64.034  65.676  69.671  0.00  0.00    +0.000 C 
ENDROOT
TORSDOF 0
ENDMDL
MODEL 5
REMARK VINA RESULT:   -10.347      4.079      6.184
REMARK INTER + INTRA:         -10.347
REMARK INTER:                 -10.347
REMARK INTRA:                   0.000
REMARK UNBOUND:                 0.000
ROOT
REMARK  Name = dapiprazole
REMARK                            x       y       z     vdW  Elec       q    Type
REMARK                         _______ _______ _______ _____ _____    ______ ____
ATOM      1  C   UNL     1      66.223  66.994  71.873  0.00  0.00    +0.000 C 
ATOM      2  C   UNL     1      66.194  67.200  71.075  0.00  0.00    +0.000 A 
ATOM      3  C   UNL     1      65.527  67.016  70.625  0.00  0.00    +0.000 A 
ATOM      4  C   UNL     1      65.499  67.221  69.827  0.00  0.00    +0.000 A 
ATOM      5  C   UNL     1      66.137  67.611  69.477  0.00  0.00    +0.000 A 
ATOM      6  C   UNL     1      66.803  67.795  69.927  0.00  0.00    +0.000 A 
ATOM      7  C   UNL     1      66.832  67.589  70.726  0.00  0.00    +0.000 A 
ATOM      8  N   UNL     1      64.889  66.626  70.974  0.00  0.00    +0.000 N 
ATOM      9  C   UNL     1      64.918  66.421  71.773  0.00  0.00    +0.000 C 
ATOM     10  C   UNL     1      64.280  66.031  72.121  0.00  0.00    +0.000 C 
ATOM     11  N   UNL     1      63.613  65.847  71.672  0.00  0.00    +0.000 NA
ATOM     12  C   UNL     1      62.975  65.457  72.021  0.00  0.00    +0.000 C 
ATOM     13  C   UNL     1      62.308  65.273  71.571  0.00  0.00    +0.000 C 
ATOM     14  C   UNL     1      61.670  64.884  71.920  0.00  0.00    +0.000 A 
ATOM     15  N   UNL     1      61.620  64.645  72.708  0.00  0.00    +0.000 NA
ATOM     16  N   UNL     1      60.889  64.278  72.818  0.00  0.00    +0.000 NA
ATOM     17  C   UNL     1      60.488  64.290  72.098  0.00  0.00    +0.000 A 
ATOM     18  C   UNL     1      59.745  64.009  71.874  0.00  0.00    +0.000 C 
ATOM     19  C   UNL     1      59.485  64.102  71.097  0.00  0.00    +0.000 C 
ATOM     20  C   UNL     1      59.967  64.476  70.543  0.00  0.00    +0.000 C 
ATOM     21  C   UNL     1      60.710  64.758  70.765  0.00  0.00    +0.000 C 
ATOM     22  N   UNL     1      60.970  64.664  71.543  0.00  0.00    +0.000 N 
ATOM     23  C   UNL     1      63.584  66.052  70.873  0.00  0.00    +0.000 C 
ATOM     24  C   UNL     1      64.223  66.442  70.524  0.00  0.00    +0.000 C 
ENDROOT
TORSDOF 0
ENDMDL
MODEL 6
REMARK VINA RESULT:    -9.898      4.424      5.525
REMARK INTER + INTRA:          -9.898
REMARK INTER:                  -9.898
REMARK INTRA:                   0.000
REMARK UNBOUND:                 0.000
ROOT
REMARK  Name = dapiprazole
REMARK                            x       y       z     vdW  Elec       q    Type
REMARK                         _______ _______ _______ _____ _____    ______ ____
ATOM      1  C   UNL     1      63.946  66.841  70.388  0.00  0.00    +0.000 C 
ATOM      2  C   UNL     1      64.003  66.030  70.247  0.00  0.00    +0.000 A 
ATOM      3  C   UNL     1      63.379  65.531  70.452  0.00  0.00    +0.000 A 
ATOM      4  C   UNL     1      63.436  64.720  70.311  0.00  0.00    +0.000 A 
ATOM      5  C   UNL     1      64.118  64.408  69.965  0.00  0.00    +0.000 A 
ATOM      6  C   UNL     1      64.741  64.908  69.760  0.00  0.00    +0.000 A 
ATOM      7  C   UNL     1      64.684  65.719  69.901  0.00  0.00    +0.000 A 
ATOM      8  N   UNL     1      62.698  65.843  70.799  0.00  0.00    +0.000 N 
ATOM      9  C   UNL     1      62.641  66.653  70.939  0.00  0.00    +0.000 C 
ATOM     10  C   UNL     1      61.960  66.964  71.285  0.00  0.00    +0.000 C 
ATOM     11  N   UNL     1      61.336  66.465  71.491  0.00  0.00    +0.000 NA
ATOM     12  C   UNL     1      60.655  66.777  71.837  0.00  0.00    +0.000 C 
ATOM     13  C   UNL     1      60.032  66.277  72.043  0.00  0.00    +0.000 C 
ATOM     14  C   UNL     1      59.350  66.589  72.389  0.00  0.00    +0.000 A 
ATOM     15  N   UNL     1      59.215  67.384  72.562  0.00  0.00    +0.000 NA
ATOM     16  N   UNL     1      58.466  67.447  72.903  0.00  0.00    +0.000 NA
ATOM     17  C   UNL     1      58.139  66.691  72.940  0.00  0.00    +0.000 A 
ATOM     18  C   UNL     1      57.414  66.415  73.222  0.00  0.00    +0.000 C 
ATOM     19  C   UNL     1      57.236  65.611  73.187  0.00  0.00    +0.000 C 
ATOM     20  C   UNL     1      57.782  65.081  72.869  0.00  0.00    +0.000 C 
ATOM     21  C   UNL     1      58.507  65.355  72.587  0.00  0.00    +0.000 C 
ATOM     22  N   UNL     1      58.686  66.161  72.623  0.00  0.00    +0.000 N 
ATOM     23  C   UNL     1      61.393  65.655  71.350  0.00  0.00    +0.000 C 
ATOM     24  C   UNL     1      62.075  65.343  71.004  0.00  0.00    +0.000 C 
ENDROOT
TORSDOF 0
ENDMDL
MODEL 7
REMARK VINA RESULT:    -9.513     24.578     25.938
REMARK INTER + INTRA:          -9.513
REMARK INTER:                  -9.513
REMARK INTRA:                   0.000
REMARK UNBOUND:                 0.000
ROOT
REMARK  Name = dapiprazole
REMARK                            x       y       z     vdW  Elec       q    Type
REMARK                         _______ _______ _______ _____ _____    ______ ____
ATOM      1  C   UNL     1      70.719  78.690  48.689  0.00  0.00    +0.000 C 
ATOM      2  C   UNL     1      71.478  78.987  48.820  0.00  0.00    +0.000 A 
ATOM      3  C   UNL     1      71.625  79.471  49.471  0.00  0.00    +0.000 A 
ATOM      4  C   UNL     1      72.384  79.768  49.602  0.00  0.00    +0.000 A 
ATOM      5  C   UNL     1      72.996  79.580  49.081  0.00  0.00    +0.000 A 
ATOM      6  C   UNL     1      72.848  79.096  48.430  0.00  0.00    +0.000 A 
ATOM      7  C   UNL     1      72.090  78.799  48.299  0.00  0.00    +0.000 A 
ATOM      8  N   UNL     1      71.013  79.659  49.992  0.00  0.00    +0.000 N 
ATOM      9  C   UNL     1      70.255  79.362  49.861  0.00  0.00    +0.000 C 
ATOM     10  C   UNL     1      69.643  79.550  50.382  0.00  0.00    +0.000 C 
ATOM     11  N   UNL     1      69.790  80.034  51.033  0.00  0.00    +0.000 NA
ATOM     12  C   UNL     1      69.178  80.222  51.554  0.00  0.00    +0.000 C 
ATOM     13  C   UNL     1      69.325  80.707  52.205  0.00  0.00    +0.000 C 
ATOM     14  C   UNL     1      68.713  80.894  52.726  0.00  0.00    +0.000 A 
ATOM     15  N   UNL     1      67.931  80.639  52.667  0.00  0.00    +0.000 NA
ATOM     16  N   UNL     1      67.510  80.957  53.302  0.00  0.00    +0.000 NA
ATOM     17  C   UNL     1      68.032  81.408  53.753  0.00  0.00    +0.000 A 
ATOM     18  C   UNL     1      67.928  81.850  54.442  0.00  0.00    +0.000 C 
ATOM     19  C   UNL     1      68.566  82.252  54.775  0.00  0.00    +0.000 C 
ATOM     20  C   UNL     1      69.309  82.213  54.420  0.00  0.00    +0.000 C 
ATOM     21  C   UNL     1      69.415  81.772  53.731  0.00  0.00    +0.000 C 
ATOM     22  N   UNL     1      68.776  81.369  53.397  0.00  0.00    +0.000 N 
ATOM     23  C   UNL     1      70.548  80.331  51.164  0.00  0.00    +0.000 C 
ATOM     24  C   UNL     1      71.160  80.144  50.643  0.00  0.00    +0.000 C 
ENDROOT
TORSDOF 0
ENDMDL
