MODEL 1
REMARK VINA RESULT:    -9.671      0.000      0.000
REMARK INTER + INTRA:          -9.671
REMARK INTER:                  -9.671
REMARK INTRA:                   0.000
REMARK UNBOUND:                 0.000
ROOT
REMARK  Name = dapsone
REMARK                            x       y       z     vdW  Elec       q    Type
REMARK                         _______ _______ _______ _____ _____    ______ ____
ATOM      1  N   UNL     1      62.155  61.463  63.400  0.00  0.00    +0.000 NA
ATOM      2  C   UNL     1      61.947  61.680  64.167  0.00  0.00    +0.000 A 
ATOM      3  C   UNL     1      62.438  62.178  64.603  0.00  0.00    +0.000 A 
ATOM      4  C   UNL     1      62.229  62.395  65.371  0.00  0.00    +0.000 A 
ATOM      5  C   UNL     1      61.529  62.114  65.703  0.00  0.00    +0.000 A 
ATOM      6  C   UNL     1      61.036  61.615  65.267  0.00  0.00    +0.000 A 
ATOM      7  C   UNL     1      61.245  61.399  64.499  0.00  0.00    +0.000 A 
ATOM      8  S   UNL     1      61.320  62.331  66.471  0.00  0.00    +0.000 S 
ATOM      9  O   UNL     1      60.630  61.880  66.410  0.00  0.00    +0.000 OA
ATOM     10  O   UNL     1      62.008  62.781  66.531  0.00  0.00    +0.000 OA
ATOM     11  C   UNL     1      61.111  62.548  67.239  0.00  0.00    +0.000 A 
ATOM     12  C   UNL     1      61.602  63.046  67.675  0.00  0.00    +0.000 A 
ATOM     13  C   UNL     1      61.393  63.263  68.443  0.00  0.00    +0.000 A 
ATOM     14  C   UNL     1      60.692  62.982  68.776  0.00  0.00    +0.000 A 
ATOM     15  N   UNL     1      60.483  63.199  69.544  0.00  0.00    +0.000 NA
ATOM     16  C   UNL     1      60.200  62.483  68.339  0.00  0.00    +0.000 A 
ATOM     17  C   UNL     1      60.409  62.266  67.571  0.00  0.00    +0.000 A 
ENDROOT
TORSDOF 0
ENDMDL
MODEL 2
REMARK VINA RESULT:    -9.651      0.067      3.881
REMARK INTER + INTRA:          -9.651
REMARK INTER:                  -9.651
REMARK INTRA:                   0.000
REMARK UNBOUND:                 0.000
ROOT
REMARK  Name = dapsone
REMARK                            x       y       z     vdW  Elec       q    Type
REMARK                         _______ _______ _______ _____ _____    ______ ____
ATOM      1  N   UNL     1      60.474  63.261  69.532  0.00  0.00    +0.000 NA
ATOM      2  C   UNL     1      60.693  63.042  68.768  0.00  0.00    +0.000 A 
ATOM      3  C   UNL     1      60.211  62.537  68.329  0.00  0.00    +0.000 A 
ATOM      4  C   UNL     1      60.430  62.317  67.565  0.00  0.00    +0.000 A 
ATOM      5  C   UNL     1      61.132  62.602  67.240  0.00  0.00    +0.000 A 
ATOM      6  C   UNL     1      61.615  63.108  67.678  0.00  0.00    +0.000 A 
ATOM      7  C   UNL     1      61.396  63.327  68.442  0.00  0.00    +0.000 A 
ATOM      8  S   UNL     1      61.351  62.383  66.475  0.00  0.00    +0.000 S 
ATOM      9  O   UNL     1      62.036  62.840  66.541  0.00  0.00    +0.000 OA
ATOM     10  O   UNL     1      60.667  61.927  66.410  0.00  0.00    +0.000 OA
ATOM     11  C   UNL     1      61.571  62.163  65.711  0.00  0.00    +0.000 A 
ATOM     12  C   UNL     1      61.089  61.659  65.272  0.00  0.00    +0.000 A 
ATOM     13  C   UNL     1      61.308  61.439  64.507  0.00  0.00    +0.000 A 
ATOM     14  C   UNL     1      62.010  61.724  64.181  0.00  0.00    +0.000 A 
ATOM     15  N   UNL     1      62.230  61.505  63.417  0.00  0.00    +0.000 NA
ATOM     16  C   UNL     1      62.493  62.230  64.620  0.00  0.00    +0.000 A 
ATOM     17  C   UNL     1      62.274  62.449  65.385  0.00  0.00    +0.000 A 
ENDROOT
TORSDOF 0
ENDMDL
MODEL 3
REMARK VINA RESULT:    -8.522      2.866      5.115
REMARK INTER + INTRA:          -8.522
REMARK INTER:                  -8.522
REMARK INTRA:                   0.000
REMARK UNBOUND:                 0.000
ROOT
REMARK  Name = dapsone
REMARK                            x       y       z     vdW  Elec       q    Type
REMARK                         _______ _______ _______ _____ _____    ______ ____
ATOM      1  N   UNL     1      61.628  62.750  73.222  0.00  0.00    +0.000 NA
ATOM      2  C   UNL     1      61.413  62.731  72.427  0.00  0.00    +0.000 A 
ATOM      3  C   UNL     1      61.216  63.431  72.036  0.00  0.00    +0.000 A 
ATOM      4  C   UNL     1      61.001  63.412  71.240  0.00  0.00    +0.000 A 
ATOM      5  C   UNL     1      60.983  62.695  70.834  0.00  0.00    +0.000 A 
ATOM      6  C   UNL     1      61.180  61.995  71.224  0.00  0.00    +0.000 A 
ATOM      7  C   UNL     1      61.395  62.013  72.020  0.00  0.00    +0.000 A 
ATOM      8  S   UNL     1      60.768  62.677  70.038  0.00  0.00    +0.000 S 
ATOM      9  O   UNL     1      60.871  61.857  70.029  0.00  0.00    +0.000 OA
ATOM     10  O   UNL     1      60.664  63.495  70.047  0.00  0.00    +0.000 OA
ATOM     11  C   UNL     1      60.553  62.658  69.242  0.00  0.00    +0.000 A 
ATOM     12  C   UNL     1      60.355  63.357  68.851  0.00  0.00    +0.000 A 
ATOM     13  C   UNL     1      60.140  63.339  68.055  0.00  0.00    +0.000 A 
ATOM     14  C   UNL     1      60.122  62.622  67.648  0.00  0.00    +0.000 A 
ATOM     15  N   UNL     1      59.907  62.603  66.852  0.00  0.00    +0.000 NA
ATOM     16  C   UNL     1      60.319  61.921  68.039  0.00  0.00    +0.000 A 
ATOM     17  C   UNL     1      60.535  61.940  68.835  0.00  0.00    +0.000 A 
ENDROOT
TORSDOF 0
ENDMDL
MODEL 4
REMARK VINA RESULT:    -8.351      5.428      6.519
REMARK INTER + INTRA:          -8.351
REMARK INTER:                  -8.351
REMARK INTRA:                   0.000
REMARK UNBOUND:                 0.000
ROOT
REMARK  Name = dapsone
REMARK                            x       y       z     vdW  Elec       q    Type
REMARK                         _______ _______ _______ _____ _____    ______ ____
ATOM      1  N   UNL     1      61.669  61.442  71.459  0.00  0.00    +0.000 NA
ATOM      2  C   UNL     1      61.290  62.148  71.654  0.00  0.00    +0.000 A 
ATOM      3  C   UNL     1      60.604  62.372  71.253  0.00  0.00    +0.000 A 
ATOM      4  C   UNL     1      60.225  63.079  71.448  0.00  0.00    +0.000 A 
ATOM      5  C   UNL     1      60.531  63.560  72.043  0.00  0.00    +0.000 A 
ATOM      6  C   UNL     1      61.216  63.337  72.444  0.00  0.00    +0.000 A 
ATOM      7  C   UNL     1      61.596  62.630  72.250  0.00  0.00    +0.000 A 
ATOM      8  S   UNL     1      60.151  64.266  72.237  0.00  0.00    +0.000 S 
ATOM      9  O   UNL     1      60.724  64.416  72.813  0.00  0.00    +0.000 OA
ATOM     10  O   UNL     1      59.579  64.117  71.662  0.00  0.00    +0.000 OA
ATOM     11  C   UNL     1      59.772  64.973  72.432  0.00  0.00    +0.000 A 
ATOM     12  C   UNL     1      59.087  65.197  72.031  0.00  0.00    +0.000 A 
ATOM     13  C   UNL     1      58.707  65.903  72.226  0.00  0.00    +0.000 A 
ATOM     14  C   UNL     1      59.012  66.386  72.821  0.00  0.00    +0.000 A 
ATOM     15  N   UNL     1      58.633  67.092  73.016  0.00  0.00    +0.000 NA
ATOM     16  C   UNL     1      59.698  66.162  73.222  0.00  0.00    +0.000 A 
ATOM     17  C   UNL     1      60.078  65.455  73.028  0.00  0.00    +0.000 A 
ENDROOT
TORSDOF 0
ENDMDL
MODEL 5
REMARK VINA RESULT:    -8.256      6.389      7.116
REMARK INTER + INTRA:          -8.256
REMARK INTER:                  -8.256
REMARK INTRA:                   0.000
REMARK UNBOUND:                 0.000
ROOT
REMARK  Name = dapsone
REMARK                            x       y       z     vdW  Elec       q    Type
REMARK                         _______ _______ _______ _____ _____    ______ ____
ATOM      1  N   UNL     1      66.500  67.626  69.840  0.00  0.00    +0.000 NA
ATOM      2  C   UNL     1      65.841  67.307  70.217  0.00  0.00    +0.000 A 
ATOM      3  C   UNL     1      65.403  66.713  69.850  0.00  0.00    +0.000 A 
ATOM      4  C   UNL     1      64.742  66.394  70.228  0.00  0.00    +0.000 A 
ATOM      5  C   UNL     1      64.519  66.669  70.972  0.00  0.00    +0.000 A 
ATOM      6  C   UNL     1      64.957  67.264  71.340  0.00  0.00    +0.000 A 
ATOM      7  C   UNL     1      65.617  67.583  70.963  0.00  0.00    +0.000 A 
ATOM      8  S   UNL     1      63.859  66.350  71.349  0.00  0.00    +0.000 S 
ATOM      9  O   UNL     1      63.983  66.853  71.993  0.00  0.00    +0.000 OA
ATOM     10  O   UNL     1      63.735  65.847  70.707  0.00  0.00    +0.000 OA
ATOM     11  C   UNL     1      63.198  66.031  71.727  0.00  0.00    +0.000 A 
ATOM     12  C   UNL     1      62.760  65.436  71.360  0.00  0.00    +0.000 A 
ATOM     13  C   UNL     1      62.100  65.117  71.737  0.00  0.00    +0.000 A 
ATOM     14  C   UNL     1      61.876  65.392  72.482  0.00  0.00    +0.000 A 
ATOM     15  N   UNL     1      61.216  65.073  72.860  0.00  0.00    +0.000 NA
ATOM     16  C   UNL     1      62.315  65.988  72.850  0.00  0.00    +0.000 A 
ATOM     17  C   UNL     1      62.975  66.307  72.472  0.00  0.00    +0.000 A 
ENDROOT
TORSDOF 0
ENDMDL
MODEL 6
REMARK VINA RESULT:    -8.230      6.422      7.600
REMARK INTER + INTRA:          -8.230
REMARK INTER:                  -8.230
REMARK INTRA:                   0.000
REMARK UNBOUND:                 0.000
ROOT
REMARK  Name = dapsone
REMARK                            x       y       z     vdW  Elec       q    Type
REMARK                         _______ _______ _______ _____ _____    ______ ____
ATOM      1  N   UNL     1      61.163  65.213  72.853  0.00  0.00    +0.000 NA
ATOM      2  C   UNL     1      61.830  65.517  72.477  0.00  0.00    +0.000 A 
ATOM      3  C   UNL     1      62.317  66.055  72.870  0.00  0.00    +0.000 A 
ATOM      4  C   UNL     1      62.984  66.359  72.493  0.00  0.00    +0.000 A 
ATOM      5  C   UNL     1      63.165  66.126  71.724  0.00  0.00    +0.000 A 
ATOM      6  C   UNL     1      62.679  65.588  71.329  0.00  0.00    +0.000 A 
ATOM      7  C   UNL     1      62.012  65.284  71.706  0.00  0.00    +0.000 A 
ATOM      8  S   UNL     1      63.833  66.431  71.347  0.00  0.00    +0.000 S 
ATOM      9  O   UNL     1      63.657  65.985  70.674  0.00  0.00    +0.000 OA
ATOM     10  O   UNL     1      64.009  66.876  72.019  0.00  0.00    +0.000 OA
ATOM     11  C   UNL     1      64.501  66.736  70.970  0.00  0.00    +0.000 A 
ATOM     12  C   UNL     1      64.987  67.273  71.363  0.00  0.00    +0.000 A 
ATOM     13  C   UNL     1      65.655  67.578  70.986  0.00  0.00    +0.000 A 
ATOM     14  C   UNL     1      65.837  67.345  70.216  0.00  0.00    +0.000 A 
ATOM     15  N   UNL     1      66.505  67.650  69.839  0.00  0.00    +0.000 NA
ATOM     16  C   UNL     1      65.350  66.807  69.822  0.00  0.00    +0.000 A 
ATOM     17  C   UNL     1      64.682  66.502  70.199  0.00  0.00    +0.000 A 
ENDROOT
TORSDOF 0
ENDMDL
MODEL 7
REMARK VINA RESULT:    -7.891      4.918      5.943
REMARK INTER + INTRA:          -7.891
REMARK INTER:                  -7.891
REMARK INTRA:                   0.000
REMARK UNBOUND:                 0.000
ROOT
REMARK  Name = dapsone
REMARK                            x       y       z     vdW  Elec       q    Type
REMARK                         _______ _______ _______ _____ _____    ______ ____
ATOM      1  N   UNL     1      61.748  62.200  73.033  0.00  0.00    +0.000 NA
ATOM      2  C   UNL     1      61.439  62.774  72.529  0.00  0.00    +0.000 A 
ATOM      3  C   UNL     1      61.227  63.513  72.827  0.00  0.00    +0.000 A 
ATOM      4  C   UNL     1      60.918  64.088  72.322  0.00  0.00    +0.000 A 
ATOM      5  C   UNL     1      60.820  63.923  71.520  0.00  0.00    +0.000 A 
ATOM      6  C   UNL     1      61.032  63.184  71.222  0.00  0.00    +0.000 A 
ATOM      7  C   UNL     1      61.342  62.609  71.726  0.00  0.00    +0.000 A 
ATOM      8  S   UNL     1      60.511  64.498  71.016  0.00  0.00    +0.000 S 
ATOM      9  O   UNL     1      60.577  63.975  70.379  0.00  0.00    +0.000 OA
ATOM     10  O   UNL     1      60.445  65.020  71.651  0.00  0.00    +0.000 OA
ATOM     11  C   UNL     1      60.202  65.072  70.511  0.00  0.00    +0.000 A 
ATOM     12  C   UNL     1      59.989  65.812  70.808  0.00  0.00    +0.000 A 
ATOM     13  C   UNL     1      59.680  66.387  70.304  0.00  0.00    +0.000 A 
ATOM     14  C   UNL     1      59.582  66.223  69.501  0.00  0.00    +0.000 A 
ATOM     15  N   UNL     1      59.273  66.797  68.997  0.00  0.00    +0.000 NA
ATOM     16  C   UNL     1      59.795  65.482  69.203  0.00  0.00    +0.000 A 
ATOM     17  C   UNL     1      60.104  64.908  69.708  0.00  0.00    +0.000 A 
ENDROOT
TORSDOF 0
ENDMDL
MODEL 8
REMARK VINA RESULT:    -7.793      5.991      7.411
REMARK INTER + INTRA:          -7.793
REMARK INTER:                  -7.793
REMARK INTRA:                   0.000
REMARK UNBOUND:                 0.000
ROOT
REMARK  Name = dapsone
REMARK                            x       y       z     vdW  Elec       q    Type
REMARK                         _______ _______ _______ _____ _____    ______ ____
ATOM      1  N   UNL     1      62.508  68.364  73.206  0.00  0.00    +0.000 NA
ATOM      2  C   UNL     1      62.201  67.628  73.002  0.00  0.00    +0.000 A 
ATOM      3  C   UNL     1      61.426  67.565  72.726  0.00  0.00    +0.000 A 
ATOM      4  C   UNL     1      61.119  66.828  72.521  0.00  0.00    +0.000 A 
ATOM      5  C   UNL     1      61.586  66.152  72.592  0.00  0.00    +0.000 A 
ATOM      6  C   UNL     1      62.362  66.213  72.868  0.00  0.00    +0.000 A 
ATOM      7  C   UNL     1      62.669  66.951  73.073  0.00  0.00    +0.000 A 
ATOM      8  S   UNL     1      61.279  65.415  72.387  0.00  0.00    +0.000 S 
ATOM      9  O   UNL     1      61.997  65.060  72.587  0.00  0.00    +0.000 OA
ATOM     10  O   UNL     1      60.561  65.769  72.187  0.00  0.00    +0.000 OA
ATOM     11  C   UNL     1      60.971  64.677  72.182  0.00  0.00    +0.000 A 
ATOM     12  C   UNL     1      60.196  64.615  71.906  0.00  0.00    +0.000 A 
ATOM     13  C   UNL     1      59.889  63.877  71.701  0.00  0.00    +0.000 A 
ATOM     14  C   UNL     1      60.356  63.201  71.772  0.00  0.00    +0.000 A 
ATOM     15  N   UNL     1      60.049  62.463  71.567  0.00  0.00    +0.000 NA
ATOM     16  C   UNL     1      61.132  63.263  72.048  0.00  0.00    +0.000 A 
ATOM     17  C   UNL     1      61.439  64.000  72.253  0.00  0.00    +0.000 A 
ENDROOT
TORSDOF 0
ENDMDL
MODEL 9
REMARK VINA RESULT:    -7.727      4.620      5.234
REMARK INTER + INTRA:          -7.727
REMARK INTER:                  -7.727
REMARK INTRA:                   0.000
REMARK UNBOUND:                 0.000
ROOT
REMARK  Name = dapsone
REMARK                            x       y       z     vdW  Elec       q    Type
REMARK                         _______ _______ _______ _____ _____    ______ ____
ATOM      1  N   UNL     1      59.423  66.473  69.461  0.00  0.00    +0.000 NA
ATOM      2  C   UNL     1      59.730  65.778  69.779  0.00  0.00    +0.000 A 
ATOM      3  C   UNL     1      60.012  65.768  70.554  0.00  0.00    +0.000 A 
ATOM      4  C   UNL     1      60.320  65.071  70.873  0.00  0.00    +0.000 A 
ATOM      5  C   UNL     1      60.344  64.385  70.416  0.00  0.00    +0.000 A 
ATOM      6  C   UNL     1      60.062  64.394  69.641  0.00  0.00    +0.000 A 
ATOM      7  C   UNL     1      59.755  65.090  69.322  0.00  0.00    +0.000 A 
ATOM      8  S   UNL     1      60.651  63.689  70.735  0.00  0.00    +0.000 S 
ATOM      9  O   UNL     1      60.502  63.298  70.023  0.00  0.00    +0.000 OA
ATOM     10  O   UNL     1      60.800  64.080  71.446  0.00  0.00    +0.000 OA
ATOM     11  C   UNL     1      60.958  62.993  71.054  0.00  0.00    +0.000 A 
ATOM     12  C   UNL     1      61.241  62.982  71.828  0.00  0.00    +0.000 A 
ATOM     13  C   UNL     1      61.548  62.286  72.147  0.00  0.00    +0.000 A 
ATOM     14  C   UNL     1      61.573  61.599  71.691  0.00  0.00    +0.000 A 
ATOM     15  N   UNL     1      61.880  60.903  72.010  0.00  0.00    +0.000 NA
ATOM     16  C   UNL     1      61.290  61.609  70.915  0.00  0.00    +0.000 A 
ATOM     17  C   UNL     1      60.983  62.305  70.597  0.00  0.00    +0.000 A 
ENDROOT
TORSDOF 0
ENDMDL
