MODEL 1
REMARK VINA RESULT:   -17.680      0.000      0.000
REMARK INTER + INTRA:         -17.680
REMARK INTER:                 -17.680
REMARK INTRA:                   0.000
REMARK UNBOUND:                 0.000
ROOT
REMARK  Name = darunavir
REMARK                            x       y       z     vdW  Elec       q    Type
REMARK                         _______ _______ _______ _____ _____    ______ ____
ATOM      1  C   UNL     1      62.695  65.268  71.872  0.00  0.00    +0.000 C 
ATOM      2  C   UNL     1      62.092  64.742  72.075  0.00  0.00    +0.000 C 
ATOM      3  C   UNL     1      61.808  64.719  72.849  0.00  0.00    +0.000 C 
ATOM      4  C   UNL     1      61.774  64.238  71.504  0.00  0.00    +0.000 C 
ATOM      5  N   UNL     1      62.059  64.261  70.730  0.00  0.00    +0.000 NA
ATOM      6  C   UNL     1      61.740  63.757  70.159  0.00  0.00    +0.000 C 
ATOM      7  C   UNL     1      62.025  63.779  69.384  0.00  0.00    +0.000 C 
ATOM      8  O   UNL     1      62.627  64.305  69.182  0.00  0.00    +0.000 OA
ATOM      9  C   UNL     1      61.707  63.276  68.814  0.00  0.00    +0.000 C 
ATOM     10  C   UNL     1      61.104  62.750  69.017  0.00  0.00    +0.000 C 
ATOM     11  C   UNL     1      60.820  62.728  69.791  0.00  0.00    +0.000 A 
ATOM     12  C   UNL     1      61.138  63.232  70.362  0.00  0.00    +0.000 A 
ATOM     13  C   UNL     1      60.854  63.209  71.137  0.00  0.00    +0.000 A 
ATOM     14  C   UNL     1      60.251  62.683  71.339  0.00  0.00    +0.000 A 
ATOM     15  C   UNL     1      59.933  62.180  70.769  0.00  0.00    +0.000 A 
ATOM     16  C   UNL     1      60.217  62.202  69.995  0.00  0.00    +0.000 A 
ATOM     17  N   UNL     1      61.991  63.298  68.040  0.00  0.00    +0.000 NA
ATOM     18  C   UNL     1      61.673  62.795  67.468  0.00  0.00    +0.000 C 
ATOM     19  O   UNL     1      61.070  62.269  67.672  0.00  0.00    +0.000 OA
ATOM     20  O   UNL     1      61.957  62.817  66.694  0.00  0.00    +0.000 OA
ATOM     21  C   UNL     1      61.639  62.314  66.124  0.00  0.00    +0.000 C 
ATOM     22  C   UNL     1      61.038  61.762  66.244  0.00  0.00    +0.000 C 
ATOM     23  O   UNL     1      60.893  61.381  65.527  0.00  0.00    +0.000 OA
ATOM     24  C   UNL     1      61.405  61.697  64.963  0.00  0.00    +0.000 C 
ATOM     25  O   UNL     1      61.632  61.657  64.171  0.00  0.00    +0.000 OA
ATOM     26  C   UNL     1      62.234  62.209  64.050  0.00  0.00    +0.000 C 
ATOM     27  C   UNL     1      62.378  62.590  64.768  0.00  0.00    +0.000 C 
ATOM     28  C   UNL     1      61.866  62.274  65.331  0.00  0.00    +0.000 C 
ATOM     29  S   UNL     1      62.661  64.786  70.526  0.00  0.00    +0.000 S 
ATOM     30  O   UNL     1      62.680  65.064  71.304  0.00  0.00    +0.000 OA
ATOM     31  O   UNL     1      62.641  64.509  69.750  0.00  0.00    +0.000 OA
ATOM     32  C   UNL     1      63.263  65.312  70.324  0.00  0.00    +0.000 A 
ATOM     33  C   UNL     1      63.548  65.335  69.550  0.00  0.00    +0.000 A 
ATOM     34  C   UNL     1      64.150  65.860  69.346  0.00  0.00    +0.000 A 
ATOM     35  C   UNL     1      64.468  66.363  69.917  0.00  0.00    +0.000 A 
ATOM     36  N   UNL     1      65.071  66.889  69.714  0.00  0.00    +0.000 NA
ATOM     37  C   UNL     1      64.183  66.341  70.691  0.00  0.00    +0.000 A 
ATOM     38  C   UNL     1      63.581  65.815  70.894  0.00  0.00    +0.000 A 
ENDROOT
TORSDOF 0
ENDMDL
MODEL 2
REMARK VINA RESULT:   -17.105      2.143      2.195
REMARK INTER + INTRA:         -17.105
REMARK INTER:                 -17.105
REMARK INTRA:                   0.000
REMARK UNBOUND:                 0.000
ROOT
REMARK  Name = darunavir
REMARK                            x       y       z     vdW  Elec       q    Type
REMARK                         _______ _______ _______ _____ _____    ______ ____
ATOM      1  C   UNL     1      59.678  65.488  71.435  0.00  0.00    +0.000 C 
ATOM      2  C   UNL     1      59.678  64.716  71.727  0.00  0.00    +0.000 C 
ATOM      3  C   UNL     1      59.450  64.570  72.506  0.00  0.00    +0.000 C 
ATOM      4  C   UNL     1      59.904  64.090  71.240  0.00  0.00    +0.000 C 
ATOM      5  N   UNL     1      60.132  64.236  70.461  0.00  0.00    +0.000 NA
ATOM      6  C   UNL     1      60.359  63.610  69.973  0.00  0.00    +0.000 C 
ATOM      7  C   UNL     1      60.587  63.755  69.194  0.00  0.00    +0.000 C 
ATOM      8  O   UNL     1      60.588  64.527  68.902  0.00  0.00    +0.000 OA
ATOM      9  C   UNL     1      60.814  63.130  68.707  0.00  0.00    +0.000 C 
ATOM     10  C   UNL     1      60.814  62.358  68.999  0.00  0.00    +0.000 C 
ATOM     11  C   UNL     1      60.586  62.212  69.778  0.00  0.00    +0.000 A 
ATOM     12  C   UNL     1      60.358  62.838  70.266  0.00  0.00    +0.000 A 
ATOM     13  C   UNL     1      60.131  62.693  71.045  0.00  0.00    +0.000 A 
ATOM     14  C   UNL     1      60.130  61.921  71.337  0.00  0.00    +0.000 A 
ATOM     15  C   UNL     1      60.357  61.295  70.850  0.00  0.00    +0.000 A 
ATOM     16  C   UNL     1      60.585  61.441  70.071  0.00  0.00    +0.000 A 
ATOM     17  N   UNL     1      61.042  63.275  67.928  0.00  0.00    +0.000 NA
ATOM     18  C   UNL     1      61.269  62.649  67.440  0.00  0.00    +0.000 C 
ATOM     19  O   UNL     1      61.268  61.878  67.733  0.00  0.00    +0.000 OA
ATOM     20  O   UNL     1      61.497  62.794  66.660  0.00  0.00    +0.000 OA
ATOM     21  C   UNL     1      61.724  62.169  66.174  0.00  0.00    +0.000 C 
ATOM     22  C   UNL     1      61.751  61.372  66.387  0.00  0.00    +0.000 C 
ATOM     23  O   UNL     1      62.008  60.941  65.733  0.00  0.00    +0.000 OA
ATOM     24  C   UNL     1      62.140  61.470  65.115  0.00  0.00    +0.000 C 
ATOM     25  O   UNL     1      62.380  61.530  64.327  0.00  0.00    +0.000 OA
ATOM     26  C   UNL     1      62.353  62.327  64.114  0.00  0.00    +0.000 C 
ATOM     27  C   UNL     1      62.096  62.759  64.768  0.00  0.00    +0.000 C 
ATOM     28  C   UNL     1      61.964  62.230  65.386  0.00  0.00    +0.000 C 
ATOM     29  S   UNL     1      60.133  65.007  70.168  0.00  0.00    +0.000 S 
ATOM     30  O   UNL     1      59.870  65.285  70.900  0.00  0.00    +0.000 OA
ATOM     31  O   UNL     1      60.396  64.730  69.437  0.00  0.00    +0.000 OA
ATOM     32  C   UNL     1      60.134  65.779  69.876  0.00  0.00    +0.000 A 
ATOM     33  C   UNL     1      60.362  65.925  69.097  0.00  0.00    +0.000 A 
ATOM     34  C   UNL     1      60.363  66.696  68.804  0.00  0.00    +0.000 A 
ATOM     35  C   UNL     1      60.136  67.321  69.291  0.00  0.00    +0.000 A 
ATOM     36  N   UNL     1      60.136  68.093  68.999  0.00  0.00    +0.000 NA
ATOM     37  C   UNL     1      59.908  67.175  70.071  0.00  0.00    +0.000 A 
ATOM     38  C   UNL     1      59.907  66.404  70.363  0.00  0.00    +0.000 A 
ENDROOT
TORSDOF 0
ENDMDL
MODEL 3
REMARK VINA RESULT:   -16.529      1.737      5.140
REMARK INTER + INTRA:         -16.529
REMARK INTER:                 -16.529
REMARK INTRA:                   0.000
REMARK UNBOUND:                 0.000
ROOT
REMARK  Name = darunavir
REMARK                            x       y       z     vdW  Elec       q    Type
REMARK                         _______ _______ _______ _____ _____    ______ ____
ATOM      1  C   UNL     1      60.317  61.943  69.373  0.00  0.00    +0.000 C 
ATOM      2  C   UNL     1      60.269  61.985  70.196  0.00  0.00    +0.000 C 
ATOM      3  C   UNL     1      59.737  61.503  70.602  0.00  0.00    +0.000 C 
ATOM      4  C   UNL     1      60.752  62.507  70.612  0.00  0.00    +0.000 C 
ATOM      5  N   UNL     1      61.285  62.989  70.206  0.00  0.00    +0.000 NA
ATOM      6  C   UNL     1      61.769  63.512  70.623  0.00  0.00    +0.000 C 
ATOM      7  C   UNL     1      62.301  63.994  70.217  0.00  0.00    +0.000 C 
ATOM      8  O   UNL     1      62.349  63.953  69.394  0.00  0.00    +0.000 OA
ATOM      9  C   UNL     1      62.784  64.517  70.633  0.00  0.00    +0.000 C 
ATOM     10  C   UNL     1      62.736  64.558  71.456  0.00  0.00    +0.000 C 
ATOM     11  C   UNL     1      62.204  64.076  71.862  0.00  0.00    +0.000 A 
ATOM     12  C   UNL     1      61.720  63.553  71.445  0.00  0.00    +0.000 A 
ATOM     13  C   UNL     1      61.187  63.070  71.851  0.00  0.00    +0.000 A 
ATOM     14  C   UNL     1      61.139  63.112  72.674  0.00  0.00    +0.000 A 
ATOM     15  C   UNL     1      61.622  63.634  73.090  0.00  0.00    +0.000 A 
ATOM     16  C   UNL     1      62.155  64.116  72.684  0.00  0.00    +0.000 A 
ATOM     17  N   UNL     1      63.316  64.999  70.227  0.00  0.00    +0.000 NA
ATOM     18  C   UNL     1      63.801  65.522  70.643  0.00  0.00    +0.000 C 
ATOM     19  O   UNL     1      63.751  65.562  71.466  0.00  0.00    +0.000 OA
ATOM     20  O   UNL     1      64.333  66.004  70.237  0.00  0.00    +0.000 OA
ATOM     21  C   UNL     1      64.816  66.526  70.654  0.00  0.00    +0.000 C 
ATOM     22  C   UNL     1      64.829  66.628  71.472  0.00  0.00    +0.000 C 
ATOM     23  O   UNL     1      65.393  67.204  71.649  0.00  0.00    +0.000 OA
ATOM     24  C   UNL     1      65.728  67.458  70.940  0.00  0.00    +0.000 C 
ATOM     25  O   UNL     1      66.284  67.972  70.611  0.00  0.00    +0.000 OA
ATOM     26  C   UNL     1      66.271  67.870  69.792  0.00  0.00    +0.000 C 
ATOM     27  C   UNL     1      65.707  67.295  69.615  0.00  0.00    +0.000 C 
ATOM     28  C   UNL     1      65.372  67.040  70.324  0.00  0.00    +0.000 C 
ATOM     29  S   UNL     1      61.334  62.949  69.384  0.00  0.00    +0.000 S 
ATOM     30  O   UNL     1      60.747  62.368  69.378  0.00  0.00    +0.000 OA
ATOM     31  O   UNL     1      61.920  63.528  69.390  0.00  0.00    +0.000 OA
ATOM     32  C   UNL     1      61.382  62.907  68.561  0.00  0.00    +0.000 A 
ATOM     33  C   UNL     1      61.914  63.389  68.155  0.00  0.00    +0.000 A 
ATOM     34  C   UNL     1      61.963  63.349  67.332  0.00  0.00    +0.000 A 
ATOM     35  C   UNL     1      61.479  62.826  66.917  0.00  0.00    +0.000 A 
ATOM     36  N   UNL     1      61.528  62.785  66.093  0.00  0.00    +0.000 NA
ATOM     37  C   UNL     1      60.947  62.344  67.323  0.00  0.00    +0.000 A 
ATOM     38  C   UNL     1      60.899  62.385  68.145  0.00  0.00    +0.000 A 
ENDROOT
TORSDOF 0
ENDMDL
MODEL 4
REMARK VINA RESULT:   -16.513      1.642      3.259
REMARK INTER + INTRA:         -16.513
REMARK INTER:                 -16.513
REMARK INTRA:                   0.000
REMARK UNBOUND:                 0.000
ROOT
REMARK  Name = darunavir
REMARK                            x       y       z     vdW  Elec       q    Type
REMARK                         _______ _______ _______ _____ _____    ______ ____
ATOM      1  C   UNL     1      61.579  66.095  72.930  0.00  0.00    +0.000 C 
ATOM      2  C   UNL     1      62.352  66.100  72.640  0.00  0.00    +0.000 C 
ATOM      3  C   UNL     1      62.952  66.465  73.072  0.00  0.00    +0.000 C 
ATOM      4  C   UNL     1      62.524  65.740  71.918  0.00  0.00    +0.000 C 
ATOM      5  N   UNL     1      61.924  65.375  71.486  0.00  0.00    +0.000 NA
ATOM      6  C   UNL     1      62.096  65.015  70.763  0.00  0.00    +0.000 C 
ATOM      7  C   UNL     1      61.496  64.650  70.331  0.00  0.00    +0.000 C 
ATOM      8  O   UNL     1      60.723  64.645  70.621  0.00  0.00    +0.000 OA
ATOM      9  C   UNL     1      61.668  64.290  69.610  0.00  0.00    +0.000 C 
ATOM     10  C   UNL     1      62.440  64.295  69.319  0.00  0.00    +0.000 C 
ATOM     11  C   UNL     1      63.041  64.660  69.752  0.00  0.00    +0.000 A 
ATOM     12  C   UNL     1      62.869  65.020  70.474  0.00  0.00    +0.000 A 
ATOM     13  C   UNL     1      63.469  65.386  70.907  0.00  0.00    +0.000 A 
ATOM     14  C   UNL     1      64.241  65.390  70.616  0.00  0.00    +0.000 A 
ATOM     15  C   UNL     1      64.414  65.031  69.895  0.00  0.00    +0.000 A 
ATOM     16  C   UNL     1      63.813  64.665  69.463  0.00  0.00    +0.000 A 
ATOM     17  N   UNL     1      61.068  63.925  69.177  0.00  0.00    +0.000 NA
ATOM     18  C   UNL     1      61.240  63.564  68.455  0.00  0.00    +0.000 C 
ATOM     19  O   UNL     1      62.012  63.570  68.165  0.00  0.00    +0.000 OA
ATOM     20  O   UNL     1      60.640  63.199  68.022  0.00  0.00    +0.000 OA
ATOM     21  C   UNL     1      60.812  62.839  67.301  0.00  0.00    +0.000 C 
ATOM     22  C   UNL     1      61.554  62.800  66.942  0.00  0.00    +0.000 C 
ATOM     23  O   UNL     1      61.473  62.392  66.230  0.00  0.00    +0.000 OA
ATOM     24  C   UNL     1      60.681  62.178  66.148  0.00  0.00    +0.000 C 
ATOM     25  O   UNL     1      60.141  61.793  65.657  0.00  0.00    +0.000 OA
ATOM     26  C   UNL     1      59.398  61.832  66.015  0.00  0.00    +0.000 C 
ATOM     27  C   UNL     1      59.480  62.241  66.727  0.00  0.00    +0.000 C 
ATOM     28  C   UNL     1      60.271  62.455  66.810  0.00  0.00    +0.000 C 
ATOM     29  S   UNL     1      61.151  65.370  71.775  0.00  0.00    +0.000 S 
ATOM     30  O   UNL     1      61.399  65.789  72.442  0.00  0.00    +0.000 OA
ATOM     31  O   UNL     1      60.904  64.951  71.109  0.00  0.00    +0.000 OA
ATOM     32  C   UNL     1      60.379  65.365  72.065  0.00  0.00    +0.000 A 
ATOM     33  C   UNL     1      59.779  65.000  71.633  0.00  0.00    +0.000 A 
ATOM     34  C   UNL     1      59.006  64.994  71.922  0.00  0.00    +0.000 A 
ATOM     35  C   UNL     1      58.835  65.354  72.644  0.00  0.00    +0.000 A 
ATOM     36  N   UNL     1      58.062  65.349  72.934  0.00  0.00    +0.000 NA
ATOM     37  C   UNL     1      59.435  65.719  73.077  0.00  0.00    +0.000 A 
ATOM     38  C   UNL     1      60.207  65.725  72.787  0.00  0.00    +0.000 A 
ENDROOT
TORSDOF 0
ENDMDL
