MODEL 1
REMARK VINA RESULT:   -16.185      0.000      0.000
REMARK INTER + INTRA:         -16.185
REMARK INTER:                 -16.185
REMARK INTRA:                   0.000
REMARK UNBOUND:                 0.000
ROOT
REMARK  Name = daunorubicin
REMARK                            x       y       z     vdW  Elec       q    Type
REMARK                         _______ _______ _______ _____ _____    ______ ____
ATOM      1  C   UNL     1      65.777  67.253  69.507  0.00  0.00    +0.000 C 
ATOM      2  O   UNL     1      65.148  66.787  69.766  0.00  0.00    +0.000 OA
ATOM      3  C   UNL     1      64.906  66.822  70.554  0.00  0.00    +0.000 A 
ATOM      4  C   UNL     1      64.277  66.356  70.814  0.00  0.00    +0.000 A 
ATOM      5  C   UNL     1      63.888  65.855  70.285  0.00  0.00    +0.000 C 
ATOM      6  O   UNL     1      64.130  65.821  69.497  0.00  0.00    +0.000 OA
ATOM      7  C   UNL     1      63.259  65.390  70.545  0.00  0.00    +0.000 A 
ATOM      8  C   UNL     1      63.018  65.424  71.332  0.00  0.00    +0.000 A 
ATOM      9  C   UNL     1      62.388  64.958  71.592  0.00  0.00    +0.000 A 
ATOM     10  O   UNL     1      62.146  64.993  72.380  0.00  0.00    +0.000 OA
ATOM     11  C   UNL     1      62.000  64.458  71.063  0.00  0.00    +0.000 A 
ATOM     12  C   UNL     1      61.370  63.992  71.323  0.00  0.00    +0.000 C 
ATOM     13  C   UNL     1      60.982  63.492  70.794  0.00  0.00    +0.000 C 
ATOM     14  O   UNL     1      60.445  62.936  70.504  0.00  0.00    +0.000 OA
ATOM     15  C   UNL     1      61.224  63.457  70.006  0.00  0.00    +0.000 C 
ATOM     16  C   UNL     1      61.853  63.923  69.746  0.00  0.00    +0.000 C 
ATOM     17  O   UNL     1      62.094  63.888  68.958  0.00  0.00    +0.000 OA
ATOM     18  C   UNL     1      61.706  63.388  68.430  0.00  0.00    +0.000 C 
ATOM     19  C   UNL     1      61.077  62.922  68.689  0.00  0.00    +0.000 C 
ATOM     20  C   UNL     1      60.689  62.422  68.161  0.00  0.00    +0.000 C 
ATOM     21  N   UNL     1      60.059  61.956  68.420  0.00  0.00    +0.000 NA
ATOM     22  C   UNL     1      60.930  62.387  67.372  0.00  0.00    +0.000 C 
ATOM     23  O   UNL     1      60.542  61.886  66.843  0.00  0.00    +0.000 OA
ATOM     24  C   UNL     1      61.559  62.853  67.113  0.00  0.00    +0.000 C 
ATOM     25  C   UNL     1      61.801  62.818  66.325  0.00  0.00    +0.000 C 
ATOM     26  O   UNL     1      61.948  63.353  67.641  0.00  0.00    +0.000 OA
ATOM     27  C   UNL     1      62.241  64.424  70.276  0.00  0.00    +0.000 A 
ATOM     28  C   UNL     1      62.871  64.889  70.016  0.00  0.00    +0.000 A 
ATOM     29  O   UNL     1      63.112  64.854  69.228  0.00  0.00    +0.000 OA
ATOM     30  C   UNL     1      60.555  63.334  71.482  0.00  0.00    +0.000 C 
ATOM     31  C   UNL     1      59.934  62.790  71.465  0.00  0.00    +0.000 C 
ATOM     32  O   UNL     1      60.747  63.719  72.185  0.00  0.00    +0.000 OA
ATOM     33  C   UNL     1      63.406  65.925  71.861  0.00  0.00    +0.000 C 
ATOM     34  O   UNL     1      63.164  65.959  72.649  0.00  0.00    +0.000 OA
ATOM     35  C   UNL     1      64.036  66.391  71.601  0.00  0.00    +0.000 A 
ATOM     36  C   UNL     1      64.423  66.891  72.130  0.00  0.00    +0.000 A 
ATOM     37  C   UNL     1      65.053  67.357  71.871  0.00  0.00    +0.000 A 
ATOM     38  C   UNL     1      65.295  67.322  71.083  0.00  0.00    +0.000 A 
ENDROOT
TORSDOF 0
ENDMDL
MODEL 2
REMARK VINA RESULT:   -15.673      1.377      4.908
REMARK INTER + INTRA:         -15.673
REMARK INTER:                 -15.673
REMARK INTRA:                   0.000
REMARK UNBOUND:                 0.000
ROOT
REMARK  Name = daunorubicin
REMARK                            x       y       z     vdW  Elec       q    Type
REMARK                         _______ _______ _______ _____ _____    ______ ____
ATOM      1  C   UNL     1      61.818  62.754  65.695  0.00  0.00    +0.000 C 
ATOM      2  O   UNL     1      61.761  62.934  66.498  0.00  0.00    +0.000 OA
ATOM      3  C   UNL     1      61.177  62.578  66.959  0.00  0.00    +0.000 A 
ATOM      4  C   UNL     1      61.119  62.757  67.762  0.00  0.00    +0.000 A 
ATOM      5  C   UNL     1      61.646  63.293  68.104  0.00  0.00    +0.000 C 
ATOM      6  O   UNL     1      62.230  63.649  67.643  0.00  0.00    +0.000 OA
ATOM      7  C   UNL     1      61.588  63.472  68.907  0.00  0.00    +0.000 A 
ATOM      8  C   UNL     1      61.005  63.117  69.368  0.00  0.00    +0.000 A 
ATOM      9  C   UNL     1      60.947  63.296  70.172  0.00  0.00    +0.000 A 
ATOM     10  O   UNL     1      60.363  62.940  70.633  0.00  0.00    +0.000 OA
ATOM     11  C   UNL     1      61.473  63.832  70.513  0.00  0.00    +0.000 A 
ATOM     12  C   UNL     1      61.416  64.011  71.317  0.00  0.00    +0.000 C 
ATOM     13  C   UNL     1      61.942  64.547  71.658  0.00  0.00    +0.000 C 
ATOM     14  O   UNL     1      62.310  65.015  72.230  0.00  0.00    +0.000 OA
ATOM     15  C   UNL     1      62.526  64.902  71.197  0.00  0.00    +0.000 C 
ATOM     16  C   UNL     1      62.584  64.723  70.394  0.00  0.00    +0.000 C 
ATOM     17  O   UNL     1      63.168  65.079  69.933  0.00  0.00    +0.000 OA
ATOM     18  C   UNL     1      63.693  65.614  70.275  0.00  0.00    +0.000 C 
ATOM     19  C   UNL     1      63.636  65.794  71.078  0.00  0.00    +0.000 C 
ATOM     20  C   UNL     1      64.162  66.329  71.420  0.00  0.00    +0.000 C 
ATOM     21  N   UNL     1      64.105  66.509  72.223  0.00  0.00    +0.000 NA
ATOM     22  C   UNL     1      64.747  66.686  70.958  0.00  0.00    +0.000 C 
ATOM     23  O   UNL     1      65.273  67.221  71.300  0.00  0.00    +0.000 OA
ATOM     24  C   UNL     1      64.804  66.506  70.155  0.00  0.00    +0.000 C 
ATOM     25  C   UNL     1      65.388  66.862  69.694  0.00  0.00    +0.000 C 
ATOM     26  O   UNL     1      64.278  65.971  69.813  0.00  0.00    +0.000 OA
ATOM     27  C   UNL     1      62.057  64.187  70.052  0.00  0.00    +0.000 A 
ATOM     28  C   UNL     1      62.115  64.008  69.249  0.00  0.00    +0.000 A 
ATOM     29  O   UNL     1      62.699  64.364  68.788  0.00  0.00    +0.000 OA
ATOM     30  C   UNL     1      61.485  64.353  72.318  0.00  0.00    +0.000 C 
ATOM     31  C   UNL     1      61.651  64.698  73.050  0.00  0.00    +0.000 C 
ATOM     32  O   UNL     1      60.864  63.815  72.247  0.00  0.00    +0.000 OA
ATOM     33  C   UNL     1      60.478  62.581  69.027  0.00  0.00    +0.000 C 
ATOM     34  O   UNL     1      59.894  62.225  69.488  0.00  0.00    +0.000 OA
ATOM     35  C   UNL     1      60.536  62.402  68.223  0.00  0.00    +0.000 A 
ATOM     36  C   UNL     1      60.009  61.866  67.882  0.00  0.00    +0.000 A 
ATOM     37  C   UNL     1      60.067  61.687  67.078  0.00  0.00    +0.000 A 
ATOM     38  C   UNL     1      60.651  62.042  66.617  0.00  0.00    +0.000 A 
ENDROOT
TORSDOF 0
ENDMDL
MODEL 3
REMARK VINA RESULT:   -13.393      2.788      2.935
REMARK INTER + INTRA:         -13.393
REMARK INTER:                 -13.393
REMARK INTRA:                   0.000
REMARK UNBOUND:                 0.000
ROOT
REMARK  Name = daunorubicin
REMARK                            x       y       z     vdW  Elec       q    Type
REMARK                         _______ _______ _______ _____ _____    ______ ____
ATOM      1  C   UNL     1      60.497  68.436  69.201  0.00  0.00    +0.000 C 
ATOM      2  O   UNL     1      60.478  67.626  69.360  0.00  0.00    +0.000 OA
ATOM      3  C   UNL     1      60.286  67.360  70.117  0.00  0.00    +0.000 A 
ATOM      4  C   UNL     1      60.267  66.551  70.278  0.00  0.00    +0.000 A 
ATOM      5  C   UNL     1      60.440  66.008  69.681  0.00  0.00    +0.000 C 
ATOM      6  O   UNL     1      60.631  66.274  68.924  0.00  0.00    +0.000 OA
ATOM      7  C   UNL     1      60.420  65.199  69.841  0.00  0.00    +0.000 A 
ATOM      8  C   UNL     1      60.228  64.934  70.597  0.00  0.00    +0.000 A 
ATOM      9  C   UNL     1      60.209  64.124  70.758  0.00  0.00    +0.000 A 
ATOM     10  O   UNL     1      60.017  63.858  71.515  0.00  0.00    +0.000 OA
ATOM     11  C   UNL     1      60.382  63.582  70.161  0.00  0.00    +0.000 A 
ATOM     12  C   UNL     1      60.362  62.772  70.321  0.00  0.00    +0.000 C 
ATOM     13  C   UNL     1      60.535  62.230  69.724  0.00  0.00    +0.000 C 
ATOM     14  O   UNL     1      60.655  61.507  69.345  0.00  0.00    +0.000 OA
ATOM     15  C   UNL     1      60.727  62.495  68.968  0.00  0.00    +0.000 C 
ATOM     16  C   UNL     1      60.746  63.304  68.807  0.00  0.00    +0.000 C 
ATOM     17  O   UNL     1      60.938  63.570  68.050  0.00  0.00    +0.000 OA
ATOM     18  C   UNL     1      61.110  63.028  67.454  0.00  0.00    +0.000 C 
ATOM     19  C   UNL     1      61.091  62.218  67.614  0.00  0.00    +0.000 C 
ATOM     20  C   UNL     1      61.264  61.676  67.018  0.00  0.00    +0.000 C 
ATOM     21  N   UNL     1      61.244  60.866  67.177  0.00  0.00    +0.000 NA
ATOM     22  C   UNL     1      61.456  61.942  66.260  0.00  0.00    +0.000 C 
ATOM     23  O   UNL     1      61.628  61.399  65.663  0.00  0.00    +0.000 OA
ATOM     24  C   UNL     1      61.475  62.751  66.100  0.00  0.00    +0.000 C 
ATOM     25  C   UNL     1      61.667  63.017  65.343  0.00  0.00    +0.000 C 
ATOM     26  O   UNL     1      61.303  63.294  66.696  0.00  0.00    +0.000 OA
ATOM     27  C   UNL     1      60.573  63.847  69.405  0.00  0.00    +0.000 A 
ATOM     28  C   UNL     1      60.593  64.656  69.244  0.00  0.00    +0.000 A 
ATOM     29  O   UNL     1      60.785  64.922  68.487  0.00  0.00    +0.000 OA
ATOM     30  C   UNL     1      60.385  61.712  70.350  0.00  0.00    +0.000 C 
ATOM     31  C   UNL     1      60.438  60.897  70.233  0.00  0.00    +0.000 C 
ATOM     32  O   UNL     1      60.181  62.010  71.092  0.00  0.00    +0.000 OA
ATOM     33  C   UNL     1      60.056  65.476  71.195  0.00  0.00    +0.000 C 
ATOM     34  O   UNL     1      59.864  65.210  71.951  0.00  0.00    +0.000 OA
ATOM     35  C   UNL     1      60.075  66.286  71.034  0.00  0.00    +0.000 A 
ATOM     36  C   UNL     1      59.902  66.828  71.631  0.00  0.00    +0.000 A 
ATOM     37  C   UNL     1      59.922  67.638  71.471  0.00  0.00    +0.000 A 
ATOM     38  C   UNL     1      60.114  67.903  70.715  0.00  0.00    +0.000 A 
ENDROOT
TORSDOF 0
ENDMDL
