MODEL 1
REMARK VINA RESULT:    -3.537      0.000      0.000
REMARK INTER + INTRA:          -3.537
REMARK INTER:                  -3.537
REMARK INTRA:                   0.000
REMARK UNBOUND:                 0.000
ROOT
REMARK  Name = deanol
REMARK                            x       y       z     vdW  Elec       q    Type
REMARK                         _______ _______ _______ _____ _____    ______ ____
ATOM      1  C   UNL     1      65.673  78.722  59.201  0.00  0.00    +0.000 C 
ATOM      2  N   UNL     1      66.096  78.091  59.523  0.00  0.00    +0.000 NA
ATOM      3  C   UNL     1      66.921  78.101  59.513  0.00  0.00    +0.000 C 
ATOM      4  C   UNL     1      65.695  77.453  59.856  0.00  0.00    +0.000 C 
ATOM      5  C   UNL     1      66.118  76.822  60.179  0.00  0.00    +0.000 C 
ATOM      6  O   UNL     1      65.717  76.183  60.512  0.00  0.00    +0.000 OA
ENDROOT
TORSDOF 0
ENDMDL
MODEL 2
REMARK VINA RESULT:    -3.397     16.580     16.913
REMARK INTER + INTRA:          -3.397
REMARK INTER:                  -3.397
REMARK INTRA:                   0.000
REMARK UNBOUND:                 0.000
ROOT
REMARK  Name = deanol
REMARK                            x       y       z     vdW  Elec       q    Type
REMARK                         _______ _______ _______ _____ _____    ______ ____
ATOM      1  C   UNL     1      61.623  62.675  66.193  0.00  0.00    +0.000 C 
ATOM      2  N   UNL     1      61.889  62.132  65.632  0.00  0.00    +0.000 NA
ATOM      3  C   UNL     1      61.940  61.331  65.826  0.00  0.00    +0.000 C 
ATOM      4  C   UNL     1      62.105  62.389  64.879  0.00  0.00    +0.000 C 
ATOM      5  C   UNL     1      62.372  61.845  64.319  0.00  0.00    +0.000 C 
ATOM      6  O   UNL     1      62.587  62.101  63.565  0.00  0.00    +0.000 OA
ENDROOT
TORSDOF 0
ENDMDL
MODEL 3
REMARK VINA RESULT:    -3.291     16.727     17.004
REMARK INTER + INTRA:          -3.291
REMARK INTER:                  -3.291
REMARK INTRA:                   0.000
REMARK UNBOUND:                 0.000
ROOT
REMARK  Name = deanol
REMARK                            x       y       z     vdW  Elec       q    Type
REMARK                         _______ _______ _______ _____ _____    ______ ____
ATOM      1  C   UNL     1      62.375  61.993  64.164  0.00  0.00    +0.000 C 
ATOM      2  N   UNL     1      61.843  61.949  64.793  0.00  0.00    +0.000 NA
ATOM      3  C   UNL     1      61.168  61.478  64.730  0.00  0.00    +0.000 C 
ATOM      4  C   UNL     1      61.984  62.376  65.484  0.00  0.00    +0.000 C 
ATOM      5  C   UNL     1      61.451  62.333  66.113  0.00  0.00    +0.000 C 
ATOM      6  O   UNL     1      61.592  62.760  66.804  0.00  0.00    +0.000 OA
ENDROOT
TORSDOF 0
ENDMDL
MODEL 4
REMARK VINA RESULT:    -2.991     14.590     15.324
REMARK INTER + INTRA:          -2.991
REMARK INTER:                  -2.991
REMARK INTRA:                   0.000
REMARK UNBOUND:                 0.000
ROOT
REMARK  Name = deanol
REMARK                            x       y       z     vdW  Elec       q    Type
REMARK                         _______ _______ _______ _____ _____    ______ ____
ATOM      1  C   UNL     1      66.203  66.627  72.077  0.00  0.00    +0.000 C 
ATOM      2  N   UNL     1      65.905  66.811  71.331  0.00  0.00    +0.000 NA
ATOM      3  C   UNL     1      65.194  66.477  71.077  0.00  0.00    +0.000 C 
ATOM      4  C   UNL     1      66.317  67.327  70.838  0.00  0.00    +0.000 C 
ATOM      5  C   UNL     1      66.018  67.510  70.090  0.00  0.00    +0.000 C 
ATOM      6  O   UNL     1      66.430  68.027  69.596  0.00  0.00    +0.000 OA
ENDROOT
TORSDOF 0
ENDMDL
MODEL 5
REMARK VINA RESULT:    -2.974     17.459     17.919
REMARK INTER + INTRA:          -2.974
REMARK INTER:                  -2.974
REMARK INTRA:                   0.000
REMARK UNBOUND:                 0.000
ROOT
REMARK  Name = deanol
REMARK                            x       y       z     vdW  Elec       q    Type
REMARK                         _______ _______ _______ _____ _____    ______ ____
ATOM      1  C   UNL     1      61.450  62.743  66.820  0.00  0.00    +0.000 C 
ATOM      2  N   UNL     1      61.272  62.792  67.624  0.00  0.00    +0.000 NA
ATOM      3  C   UNL     1      61.533  63.439  68.065  0.00  0.00    +0.000 C 
ATOM      4  C   UNL     1      60.834  62.196  67.987  0.00  0.00    +0.000 C 
ATOM      5  C   UNL     1      60.655  62.245  68.791  0.00  0.00    +0.000 C 
ATOM      6  O   UNL     1      60.216  61.649  69.154  0.00  0.00    +0.000 OA
ENDROOT
TORSDOF 0
ENDMDL
MODEL 6
REMARK VINA RESULT:    -2.929     17.153     17.677
REMARK INTER + INTRA:          -2.929
REMARK INTER:                  -2.929
REMARK INTRA:                   0.000
REMARK UNBOUND:                 0.000
ROOT
REMARK  Name = deanol
REMARK                            x       y       z     vdW  Elec       q    Type
REMARK                         _______ _______ _______ _____ _____    ______ ____
ATOM      1  C   UNL     1      60.539  62.070  68.384  0.00  0.00    +0.000 C 
ATOM      2  N   UNL     1      60.550  62.328  67.601  0.00  0.00    +0.000 NA
ATOM      3  C   UNL     1      59.846  62.540  67.226  0.00  0.00    +0.000 C 
ATOM      4  C   UNL     1      61.264  62.374  67.192  0.00  0.00    +0.000 C 
ATOM      5  C   UNL     1      61.275  62.632  66.408  0.00  0.00    +0.000 C 
ATOM      6  O   UNL     1      61.990  62.678  65.998  0.00  0.00    +0.000 OA
ENDROOT
TORSDOF 0
ENDMDL
MODEL 7
REMARK VINA RESULT:    -2.794     16.954     17.462
REMARK INTER + INTRA:          -2.794
REMARK INTER:                  -2.794
REMARK INTRA:                   0.000
REMARK UNBOUND:                 0.000
ROOT
REMARK  Name = deanol
REMARK                            x       y       z     vdW  Elec       q    Type
REMARK                         _______ _______ _______ _____ _____    ______ ____
ATOM      1  C   UNL     1      64.178  60.421  52.759  0.00  0.00    +0.000 C 
ATOM      2  N   UNL     1      64.151  60.897  53.432  0.00  0.00    +0.000 NA
ATOM      3  C   UNL     1      63.692  60.670  54.080  0.00  0.00    +0.000 C 
ATOM      4  C   UNL     1      64.580  61.600  53.457  0.00  0.00    +0.000 C 
ATOM      5  C   UNL     1      64.552  62.077  54.131  0.00  0.00    +0.000 C 
ATOM      6  O   UNL     1      64.982  62.781  54.157  0.00  0.00    +0.000 OA
ENDROOT
TORSDOF 0
ENDMDL
MODEL 8
REMARK VINA RESULT:    -2.764     16.331     16.774
REMARK INTER + INTRA:          -2.764
REMARK INTER:                  -2.764
REMARK INTRA:                   0.000
REMARK UNBOUND:                 0.000
ROOT
REMARK  Name = deanol
REMARK                            x       y       z     vdW  Elec       q    Type
REMARK                         _______ _______ _______ _____ _____    ______ ____
ATOM      1  C   UNL     1      61.721  67.324  72.902  0.00  0.00    +0.000 C 
ATOM      2  N   UNL     1      61.012  67.309  72.480  0.00  0.00    +0.000 NA
ATOM      3  C   UNL     1      60.341  66.962  72.813  0.00  0.00    +0.000 C 
ATOM      4  C   UNL     1      60.974  67.641  71.727  0.00  0.00    +0.000 C 
ATOM      5  C   UNL     1      60.264  67.627  71.305  0.00  0.00    +0.000 C 
ATOM      6  O   UNL     1      60.226  67.959  70.551  0.00  0.00    +0.000 OA
ENDROOT
TORSDOF 0
ENDMDL
MODEL 9
REMARK VINA RESULT:    -2.678     17.398     17.857
REMARK INTER + INTRA:          -2.678
REMARK INTER:                  -2.678
REMARK INTRA:                   0.000
REMARK UNBOUND:                 0.000
ROOT
REMARK  Name = deanol
REMARK                            x       y       z     vdW  Elec       q    Type
REMARK                         _______ _______ _______ _____ _____    ______ ____
ATOM      1  C   UNL     1      64.697  61.561  52.641  0.00  0.00    +0.000 C 
ATOM      2  N   UNL     1      64.387  61.348  53.375  0.00  0.00    +0.000 NA
ATOM      3  C   UNL     1      64.484  61.849  54.024  0.00  0.00    +0.000 C 
ATOM      4  C   UNL     1      63.982  60.636  53.461  0.00  0.00    +0.000 C 
ATOM      5  C   UNL     1      63.672  60.423  54.196  0.00  0.00    +0.000 C 
ATOM      6  O   UNL     1      63.266  59.710  54.282  0.00  0.00    +0.000 OA
ENDROOT
TORSDOF 0
ENDMDL
