MODEL 1
REMARK VINA RESULT:    -8.760      0.000      0.000
REMARK INTER + INTRA:          -8.760
REMARK INTER:                  -8.760
REMARK INTRA:                   0.000
REMARK UNBOUND:                 0.000
ROOT
REMARK  Name = decamethonium
REMARK                            x       y       z     vdW  Elec       q    Type
REMARK                         _______ _______ _______ _____ _____    ______ ____
ATOM      1  C   UNL     1      59.989  64.377  72.517  0.00  0.00    +0.000 C 
ATOM      2  N   UNL     1      60.446  64.301  71.835  0.00  0.00    +0.000 N 
ATOM      3  C   UNL     1      59.852  63.848  71.487  0.00  0.00    +0.000 C 
ATOM      4  C   UNL     1      61.041  64.754  72.183  0.00  0.00    +0.000 C 
ATOM      5  C   UNL     1      60.903  64.225  71.153  0.00  0.00    +0.000 C 
ATOM      6  C   UNL     1      60.617  63.794  70.510  0.00  0.00    +0.000 C 
ATOM      7  C   UNL     1      61.074  63.718  69.828  0.00  0.00    +0.000 C 
ATOM      8  C   UNL     1      60.788  63.288  69.185  0.00  0.00    +0.000 C 
ATOM      9  C   UNL     1      61.245  63.211  68.503  0.00  0.00    +0.000 C 
ATOM     10  C   UNL     1      60.959  62.781  67.860  0.00  0.00    +0.000 C 
ATOM     11  C   UNL     1      61.416  62.705  67.178  0.00  0.00    +0.000 C 
ATOM     12  C   UNL     1      61.130  62.274  66.535  0.00  0.00    +0.000 C 
ATOM     13  C   UNL     1      61.586  62.198  65.853  0.00  0.00    +0.000 C 
ATOM     14  C   UNL     1      61.300  61.767  65.210  0.00  0.00    +0.000 C 
ATOM     15  N   UNL     1      61.757  61.691  64.528  0.00  0.00    +0.000 N 
ATOM     16  C   UNL     1      62.215  61.615  63.845  0.00  0.00    +0.000 C 
ATOM     17  C   UNL     1      61.163  61.238  64.179  0.00  0.00    +0.000 C 
ATOM     18  C   UNL     1      62.353  62.145  64.875  0.00  0.00    +0.000 C 
ENDROOT
TORSDOF 0
ENDMDL
MODEL 2
REMARK VINA RESULT:    -8.740      0.019      6.361
REMARK INTER + INTRA:          -8.740
REMARK INTER:                  -8.740
REMARK INTRA:                   0.000
REMARK UNBOUND:                 0.000
ROOT
REMARK  Name = decamethonium
REMARK                            x       y       z     vdW  Elec       q    Type
REMARK                         _______ _______ _______ _____ _____    ______ ____
ATOM      1  C   UNL     1      62.245  61.627  63.847  0.00  0.00    +0.000 C 
ATOM      2  N   UNL     1      61.784  61.703  64.527  0.00  0.00    +0.000 N 
ATOM      3  C   UNL     1      62.377  62.154  64.880  0.00  0.00    +0.000 C 
ATOM      4  C   UNL     1      61.190  61.252  64.175  0.00  0.00    +0.000 C 
ATOM      5  C   UNL     1      61.323  61.779  65.207  0.00  0.00    +0.000 C 
ATOM      6  C   UNL     1      61.607  62.207  65.852  0.00  0.00    +0.000 C 
ATOM      7  C   UNL     1      61.146  62.283  66.532  0.00  0.00    +0.000 C 
ATOM      8  C   UNL     1      61.430  62.712  67.178  0.00  0.00    +0.000 C 
ATOM      9  C   UNL     1      60.969  62.787  67.857  0.00  0.00    +0.000 C 
ATOM     10  C   UNL     1      61.252  63.216  68.503  0.00  0.00    +0.000 C 
ATOM     11  C   UNL     1      60.792  63.292  69.182  0.00  0.00    +0.000 C 
ATOM     12  C   UNL     1      61.075  63.720  69.828  0.00  0.00    +0.000 C 
ATOM     13  C   UNL     1      60.615  63.796  70.508  0.00  0.00    +0.000 C 
ATOM     14  C   UNL     1      60.898  64.224  71.153  0.00  0.00    +0.000 C 
ATOM     15  N   UNL     1      60.438  64.300  71.833  0.00  0.00    +0.000 N 
ATOM     16  C   UNL     1      59.976  64.376  72.513  0.00  0.00    +0.000 C 
ATOM     17  C   UNL     1      61.031  64.751  72.186  0.00  0.00    +0.000 C 
ATOM     18  C   UNL     1      59.843  63.849  71.481  0.00  0.00    +0.000 C 
ENDROOT
TORSDOF 0
ENDMDL
MODEL 3
REMARK VINA RESULT:    -8.014      3.725      4.564
REMARK INTER + INTRA:          -8.014
REMARK INTER:                  -8.014
REMARK INTRA:                   0.000
REMARK UNBOUND:                 0.000
ROOT
REMARK  Name = decamethonium
REMARK                            x       y       z     vdW  Elec       q    Type
REMARK                         _______ _______ _______ _____ _____    ______ ____
ATOM      1  C   UNL     1      66.560  67.248  71.634  0.00  0.00    +0.000 C 
ATOM      2  N   UNL     1      66.024  67.045  71.040  0.00  0.00    +0.000 N 
ATOM      3  C   UNL     1      65.765  66.406  71.492  0.00  0.00    +0.000 C 
ATOM      4  C   UNL     1      66.283  67.684  70.587  0.00  0.00    +0.000 C 
ATOM      5  C   UNL     1      65.488  66.842  70.446  0.00  0.00    +0.000 C 
ATOM      6  C   UNL     1      64.996  66.187  70.541  0.00  0.00    +0.000 C 
ATOM      7  C   UNL     1      64.461  65.984  69.948  0.00  0.00    +0.000 C 
ATOM      8  C   UNL     1      63.968  65.329  70.043  0.00  0.00    +0.000 C 
ATOM      9  C   UNL     1      63.433  65.126  69.450  0.00  0.00    +0.000 C 
ATOM     10  C   UNL     1      62.940  64.471  69.544  0.00  0.00    +0.000 C 
ATOM     11  C   UNL     1      62.405  64.268  68.951  0.00  0.00    +0.000 C 
ATOM     12  C   UNL     1      61.912  63.613  69.045  0.00  0.00    +0.000 C 
ATOM     13  C   UNL     1      61.376  63.410  68.452  0.00  0.00    +0.000 C 
ATOM     14  C   UNL     1      60.884  62.754  68.547  0.00  0.00    +0.000 C 
ATOM     15  N   UNL     1      60.348  62.551  67.954  0.00  0.00    +0.000 N 
ATOM     16  C   UNL     1      59.812  62.348  67.360  0.00  0.00    +0.000 C 
ATOM     17  C   UNL     1      60.089  61.912  68.406  0.00  0.00    +0.000 C 
ATOM     18  C   UNL     1      60.607  63.191  67.501  0.00  0.00    +0.000 C 
ENDROOT
TORSDOF 0
ENDMDL
MODEL 4
REMARK VINA RESULT:    -7.956      3.516      6.182
REMARK INTER + INTRA:          -7.956
REMARK INTER:                  -7.956
REMARK INTRA:                   0.000
REMARK UNBOUND:                 0.000
ROOT
REMARK  Name = decamethonium
REMARK                            x       y       z     vdW  Elec       q    Type
REMARK                         _______ _______ _______ _____ _____    ______ ____
ATOM      1  C   UNL     1      59.743  61.910  67.637  0.00  0.00    +0.000 C 
ATOM      2  N   UNL     1      60.311  62.508  67.667  0.00  0.00    +0.000 N 
ATOM      3  C   UNL     1      60.481  62.307  68.449  0.00  0.00    +0.000 C 
ATOM      4  C   UNL     1      60.141  62.709  66.885  0.00  0.00    +0.000 C 
ATOM      5  C   UNL     1      60.879  63.105  67.698  0.00  0.00    +0.000 C 
ATOM      6  C   UNL     1      61.309  63.230  68.390  0.00  0.00    +0.000 C 
ATOM      7  C   UNL     1      61.876  63.828  68.421  0.00  0.00    +0.000 C 
ATOM      8  C   UNL     1      62.307  63.953  69.113  0.00  0.00    +0.000 C 
ATOM      9  C   UNL     1      62.874  64.551  69.144  0.00  0.00    +0.000 C 
ATOM     10  C   UNL     1      63.305  64.676  69.836  0.00  0.00    +0.000 C 
ATOM     11  C   UNL     1      63.873  65.273  69.867  0.00  0.00    +0.000 C 
ATOM     12  C   UNL     1      64.304  65.399  70.560  0.00  0.00    +0.000 C 
ATOM     13  C   UNL     1      64.871  65.996  70.591  0.00  0.00    +0.000 C 
ATOM     14  C   UNL     1      65.302  66.122  71.283  0.00  0.00    +0.000 C 
ATOM     15  N   UNL     1      65.869  66.719  71.314  0.00  0.00    +0.000 N 
ATOM     16  C   UNL     1      66.437  67.318  71.344  0.00  0.00    +0.000 C 
ATOM     17  C   UNL     1      66.039  66.519  72.096  0.00  0.00    +0.000 C 
ATOM     18  C   UNL     1      65.700  66.921  70.532  0.00  0.00    +0.000 C 
ENDROOT
TORSDOF 0
ENDMDL
MODEL 5
REMARK VINA RESULT:    -7.039     24.346     26.387
REMARK INTER + INTRA:          -7.039
REMARK INTER:                  -7.039
REMARK INTRA:                   0.000
REMARK UNBOUND:                 0.000
ROOT
REMARK  Name = decamethonium
REMARK                            x       y       z     vdW  Elec       q    Type
REMARK                         _______ _______ _______ _____ _____    ______ ____
ATOM      1  C   UNL     1      72.480  78.877  48.098  0.00  0.00    +0.000 C 
ATOM      2  N   UNL     1      72.155  79.109  48.819  0.00  0.00    +0.000 N 
ATOM      3  C   UNL     1      71.432  79.251  48.448  0.00  0.00    +0.000 C 
ATOM      4  C   UNL     1      72.877  78.967  49.191  0.00  0.00    +0.000 C 
ATOM      5  C   UNL     1      71.829  79.341  49.541  0.00  0.00    +0.000 C 
ATOM      6  C   UNL     1      71.041  79.580  49.580  0.00  0.00    +0.000 C 
ATOM      7  C   UNL     1      70.715  79.811  50.301  0.00  0.00    +0.000 C 
ATOM      8  C   UNL     1      69.926  80.050  50.341  0.00  0.00    +0.000 C 
ATOM      9  C   UNL     1      69.601  80.282  51.062  0.00  0.00    +0.000 C 
ATOM     10  C   UNL     1      68.812  80.521  51.101  0.00  0.00    +0.000 C 
ATOM     11  C   UNL     1      68.486  80.753  51.822  0.00  0.00    +0.000 C 
ATOM     12  C   UNL     1      67.698  80.992  51.862  0.00  0.00    +0.000 C 
ATOM     13  C   UNL     1      67.372  81.223  52.583  0.00  0.00    +0.000 C 
ATOM     14  C   UNL     1      66.583  81.463  52.623  0.00  0.00    +0.000 C 
ATOM     15  N   UNL     1      66.258  81.694  53.344  0.00  0.00    +0.000 N 
ATOM     16  C   UNL     1      65.932  81.926  54.066  0.00  0.00    +0.000 C 
ATOM     17  C   UNL     1      65.535  81.837  52.972  0.00  0.00    +0.000 C 
ATOM     18  C   UNL     1      66.980  81.552  53.716  0.00  0.00    +0.000 C 
ENDROOT
TORSDOF 0
ENDMDL
MODEL 6
REMARK VINA RESULT:    -7.032      5.768      7.210
REMARK INTER + INTRA:          -7.032
REMARK INTER:                  -7.032
REMARK INTRA:                   0.000
REMARK UNBOUND:                 0.000
ROOT
REMARK  Name = decamethonium
REMARK                            x       y       z     vdW  Elec       q    Type
REMARK                         _______ _______ _______ _____ _____    ______ ____
ATOM      1  C   UNL     1      67.278  67.253  71.098  0.00  0.00    +0.000 C 
ATOM      2  N   UNL     1      66.471  67.247  70.927  0.00  0.00    +0.000 N 
ATOM      3  C   UNL     1      66.325  66.840  71.629  0.00  0.00    +0.000 C 
ATOM      4  C   UNL     1      66.616  67.655  70.225  0.00  0.00    +0.000 C 
ATOM      5  C   UNL     1      65.663  67.242  70.757  0.00  0.00    +0.000 C 
ATOM      6  C   UNL     1      65.134  66.886  71.280  0.00  0.00    +0.000 C 
ATOM      7  C   UNL     1      64.327  66.881  71.110  0.00  0.00    +0.000 C 
ATOM      8  C   UNL     1      63.797  66.525  71.633  0.00  0.00    +0.000 C 
ATOM      9  C   UNL     1      62.991  66.519  71.462  0.00  0.00    +0.000 C 
ATOM     10  C   UNL     1      62.460  66.164  71.985  0.00  0.00    +0.000 C 
ATOM     11  C   UNL     1      61.654  66.158  71.815  0.00  0.00    +0.000 C 
ATOM     12  C   UNL     1      61.123  65.802  72.338  0.00  0.00    +0.000 C 
ATOM     13  C   UNL     1      60.317  65.797  72.168  0.00  0.00    +0.000 C 
ATOM     14  C   UNL     1      59.787  65.441  72.690  0.00  0.00    +0.000 C 
ATOM     15  N   UNL     1      58.980  65.436  72.520  0.00  0.00    +0.000 N 
ATOM     16  C   UNL     1      58.172  65.430  72.350  0.00  0.00    +0.000 C 
ATOM     17  C   UNL     1      58.834  65.028  73.222  0.00  0.00    +0.000 C 
ATOM     18  C   UNL     1      59.125  65.843  71.818  0.00  0.00    +0.000 C 
ENDROOT
TORSDOF 0
ENDMDL
MODEL 7
REMARK VINA RESULT:    -7.030     14.254     14.539
REMARK INTER + INTRA:          -7.030
REMARK INTER:                  -7.030
REMARK INTRA:                   0.000
REMARK UNBOUND:                 0.000
ROOT
REMARK  Name = decamethonium
REMARK                            x       y       z     vdW  Elec       q    Type
REMARK                         _______ _______ _______ _____ _____    ______ ____
ATOM      1  C   UNL     1      61.317  69.860  54.856  0.00  0.00    +0.000 C 
ATOM      2  N   UNL     1      61.701  69.140  54.977  0.00  0.00    +0.000 N 
ATOM      3  C   UNL     1      61.234  68.793  54.392  0.00  0.00    +0.000 C 
ATOM      4  C   UNL     1      62.169  69.486  55.561  0.00  0.00    +0.000 C 
ATOM      5  C   UNL     1      62.085  68.419  55.096  0.00  0.00    +0.000 C 
ATOM      6  C   UNL     1      61.872  67.759  54.650  0.00  0.00    +0.000 C 
ATOM      7  C   UNL     1      62.255  67.039  54.769  0.00  0.00    +0.000 C 
ATOM      8  C   UNL     1      62.043  66.379  54.322  0.00  0.00    +0.000 C 
ATOM      9  C   UNL     1      62.426  65.659  54.442  0.00  0.00    +0.000 C 
ATOM     10  C   UNL     1      62.213  64.998  53.995  0.00  0.00    +0.000 C 
ATOM     11  C   UNL     1      62.597  64.278  54.115  0.00  0.00    +0.000 C 
ATOM     12  C   UNL     1      62.384  63.618  53.668  0.00  0.00    +0.000 C 
ATOM     13  C   UNL     1      62.767  62.898  53.788  0.00  0.00    +0.000 C 
ATOM     14  C   UNL     1      62.555  62.237  53.341  0.00  0.00    +0.000 C 
ATOM     15  N   UNL     1      62.938  61.517  53.461  0.00  0.00    +0.000 N 
ATOM     16  C   UNL     1      63.322  60.796  53.581  0.00  0.00    +0.000 C 
ATOM     17  C   UNL     1      62.471  61.170  52.876  0.00  0.00    +0.000 C 
ATOM     18  C   UNL     1      63.406  61.863  54.046  0.00  0.00    +0.000 C 
ENDROOT
TORSDOF 0
ENDMDL
MODEL 8
REMARK VINA RESULT:    -6.962     14.221     14.798
REMARK INTER + INTRA:          -6.962
REMARK INTER:                  -6.962
REMARK INTRA:                   0.000
REMARK UNBOUND:                 0.000
ROOT
REMARK  Name = decamethonium
REMARK                            x       y       z     vdW  Elec       q    Type
REMARK                         _______ _______ _______ _____ _____    ______ ____
ATOM      1  C   UNL     1      61.708  67.986  54.642  0.00  0.00    +0.000 C 
ATOM      2  N   UNL     1      61.896  67.309  54.209  0.00  0.00    +0.000 N 
ATOM      3  C   UNL     1      61.940  66.875  54.908  0.00  0.00    +0.000 C 
ATOM      4  C   UNL     1      61.851  67.743  53.510  0.00  0.00    +0.000 C 
ATOM      5  C   UNL     1      62.083  66.632  53.777  0.00  0.00    +0.000 C 
ATOM      6  C   UNL     1      62.216  65.917  54.167  0.00  0.00    +0.000 C 
ATOM      7  C   UNL     1      62.404  65.241  53.735  0.00  0.00    +0.000 C 
ATOM      8  C   UNL     1      62.536  64.526  54.124  0.00  0.00    +0.000 C 
ATOM      9  C   UNL     1      62.724  63.849  53.693  0.00  0.00    +0.000 C 
ATOM     10  C   UNL     1      62.857  63.134  54.082  0.00  0.00    +0.000 C 
ATOM     11  C   UNL     1      63.044  62.457  53.650  0.00  0.00    +0.000 C 
ATOM     12  C   UNL     1      63.177  61.742  54.040  0.00  0.00    +0.000 C 
ATOM     13  C   UNL     1      63.365  61.065  53.608  0.00  0.00    +0.000 C 
ATOM     14  C   UNL     1      63.497  60.350  53.998  0.00  0.00    +0.000 C 
ATOM     15  N   UNL     1      63.685  59.673  53.566  0.00  0.00    +0.000 N 
ATOM     16  C   UNL     1      63.873  58.995  53.133  0.00  0.00    +0.000 C 
ATOM     17  C   UNL     1      63.730  59.238  54.265  0.00  0.00    +0.000 C 
ATOM     18  C   UNL     1      63.641  60.107  52.865  0.00  0.00    +0.000 C 
ENDROOT
TORSDOF 0
ENDMDL
MODEL 9
REMARK VINA RESULT:    -6.835      4.875      6.619
REMARK INTER + INTRA:          -6.835
REMARK INTER:                  -6.835
REMARK INTRA:                   0.000
REMARK UNBOUND:                 0.000
ROOT
REMARK  Name = decamethonium
REMARK                            x       y       z     vdW  Elec       q    Type
REMARK                         _______ _______ _______ _____ _____    ______ ____
ATOM      1  C   UNL     1      67.962  66.420  72.993  0.00  0.00    +0.000 C 
ATOM      2  N   UNL     1      67.373  66.657  72.467  0.00  0.00    +0.000 N 
ATOM      3  C   UNL     1      66.839  66.146  72.836  0.00  0.00    +0.000 C 
ATOM      4  C   UNL     1      67.905  67.167  72.099  0.00  0.00    +0.000 C 
ATOM      5  C   UNL     1      66.782  66.893  71.942  0.00  0.00    +0.000 C 
ATOM      6  C   UNL     1      66.026  66.569  71.998  0.00  0.00    +0.000 C 
ATOM      7  C   UNL     1      65.436  66.805  71.473  0.00  0.00    +0.000 C 
ATOM      8  C   UNL     1      64.679  66.482  71.529  0.00  0.00    +0.000 C 
ATOM      9  C   UNL     1      64.089  66.718  71.004  0.00  0.00    +0.000 C 
ATOM     10  C   UNL     1      63.332  66.394  71.060  0.00  0.00    +0.000 C 
ATOM     11  C   UNL     1      62.742  66.630  70.535  0.00  0.00    +0.000 C 
ATOM     12  C   UNL     1      61.985  66.306  70.592  0.00  0.00    +0.000 C 
ATOM     13  C   UNL     1      61.395  66.543  70.067  0.00  0.00    +0.000 C 
ATOM     14  C   UNL     1      60.638  66.219  70.123  0.00  0.00    +0.000 C 
ATOM     15  N   UNL     1      60.047  66.455  69.598  0.00  0.00    +0.000 N 
ATOM     16  C   UNL     1      59.457  66.692  69.072  0.00  0.00    +0.000 C 
ATOM     17  C   UNL     1      59.514  65.945  69.966  0.00  0.00    +0.000 C 
ATOM     18  C   UNL     1      60.580  66.966  69.228  0.00  0.00    +0.000 C 
ENDROOT
TORSDOF 0
ENDMDL
