MODEL 1
REMARK VINA RESULT:   -15.586      0.000      0.000
REMARK INTER + INTRA:         -15.586
REMARK INTER:                 -15.586
REMARK INTRA:                   0.000
REMARK UNBOUND:                 0.000
ROOT
REMARK  Name = delapril
REMARK                            x       y       z     vdW  Elec       q    Type
REMARK                         _______ _______ _______ _____ _____    ______ ____
ATOM      1  C   UNL     1      60.258  63.134  70.520  0.00  0.00    +0.000 C 
ATOM      2  C   UNL     1      60.319  62.888  69.734  0.00  0.00    +0.000 C 
ATOM      3  O   UNL     1      60.960  63.133  69.275  0.00  0.00    +0.000 OA
ATOM      4  C   UNL     1      61.021  62.888  68.490  0.00  0.00    +0.000 C 
ATOM      5  O   UNL     1      60.442  62.398  68.164  0.00  0.00    +0.000 OA
ATOM      6  C   UNL     1      61.661  63.132  68.030  0.00  0.00    +0.000 C 
ATOM      7  C   UNL     1      61.723  62.887  67.245  0.00  0.00    +0.000 C 
ATOM      8  C   UNL     1      61.144  62.398  66.919  0.00  0.00    +0.000 C 
ATOM      9  C   UNL     1      61.206  62.152  66.134  0.00  0.00    +0.000 A 
ATOM     10  C   UNL     1      61.846  62.397  65.674  0.00  0.00    +0.000 A 
ATOM     11  C   UNL     1      61.908  62.152  64.889  0.00  0.00    +0.000 A 
ATOM     12  C   UNL     1      61.330  61.662  64.563  0.00  0.00    +0.000 A 
ATOM     13  C   UNL     1      60.689  61.418  65.023  0.00  0.00    +0.000 A 
ATOM     14  C   UNL     1      60.627  61.663  65.808  0.00  0.00    +0.000 A 
ATOM     15  N   UNL     1      62.240  63.622  68.357  0.00  0.00    +0.000 NA
ATOM     16  C   UNL     1      62.178  63.867  69.142  0.00  0.00    +0.000 C 
ATOM     17  C   UNL     1      61.538  63.623  69.601  0.00  0.00    +0.000 C 
ATOM     18  C   UNL     1      62.757  64.356  69.468  0.00  0.00    +0.000 C 
ATOM     19  O   UNL     1      63.397  64.601  69.008  0.00  0.00    +0.000 OA
ATOM     20  N   UNL     1      62.695  64.601  70.254  0.00  0.00    +0.000 N 
ATOM     21  C   UNL     1      63.274  65.091  70.580  0.00  0.00    +0.000 C 
ATOM     22  C   UNL     1      63.212  65.336  71.364  0.00  0.00    +0.000 C 
ATOM     23  O   UNL     1      63.791  65.825  71.690  0.00  0.00    +0.000 OA
ATOM     24  O   UNL     1      62.572  65.091  71.824  0.00  0.00    +0.000 OA
ATOM     25  C   UNL     1      62.055  64.357  70.713  0.00  0.00    +0.000 C 
ATOM     26  C   UNL     1      61.920  64.556  71.502  0.00  0.00    +0.000 C 
ATOM     27  C   UNL     1      61.219  64.193  71.740  0.00  0.00    +0.000 A 
ATOM     28  C   UNL     1      60.920  63.768  71.099  0.00  0.00    +0.000 A 
ATOM     29  C   UNL     1      61.437  63.870  70.463  0.00  0.00    +0.000 C 
ATOM     30  C   UNL     1      60.217  63.345  71.176  0.00  0.00    +0.000 A 
ATOM     31  C   UNL     1      59.812  63.346  71.894  0.00  0.00    +0.000 A 
ATOM     32  C   UNL     1      60.110  63.769  72.536  0.00  0.00    +0.000 A 
ATOM     33  C   UNL     1      60.814  64.193  72.459  0.00  0.00    +0.000 A 
ENDROOT
TORSDOF 0
ENDMDL
MODEL 2
REMARK VINA RESULT:   -15.557      1.578      4.651
REMARK INTER + INTRA:         -15.557
REMARK INTER:                 -15.557
REMARK INTRA:                   0.000
REMARK UNBOUND:                 0.000
ROOT
REMARK  Name = delapril
REMARK                            x       y       z     vdW  Elec       q    Type
REMARK                         _______ _______ _______ _____ _____    ______ ____
ATOM      1  C   UNL     1      61.745  63.017  71.329  0.00  0.00    +0.000 C 
ATOM      2  C   UNL     1      62.325  63.604  71.311  0.00  0.00    +0.000 C 
ATOM      3  O   UNL     1      62.531  63.956  70.593  0.00  0.00    +0.000 OA
ATOM      4  C   UNL     1      63.111  64.543  70.575  0.00  0.00    +0.000 C 
ATOM      5  O   UNL     1      63.484  64.777  71.273  0.00  0.00    +0.000 OA
ATOM      6  C   UNL     1      63.318  64.896  69.858  0.00  0.00    +0.000 C 
ATOM      7  C   UNL     1      63.898  65.483  69.839  0.00  0.00    +0.000 C 
ATOM      8  C   UNL     1      64.270  65.717  70.536  0.00  0.00    +0.000 C 
ATOM      9  C   UNL     1      64.850  66.303  70.518  0.00  0.00    +0.000 A 
ATOM     10  C   UNL     1      65.057  66.656  69.801  0.00  0.00    +0.000 A 
ATOM     11  C   UNL     1      65.637  67.243  69.781  0.00  0.00    +0.000 A 
ATOM     12  C   UNL     1      66.009  67.477  70.479  0.00  0.00    +0.000 A 
ATOM     13  C   UNL     1      65.802  67.125  71.196  0.00  0.00    +0.000 A 
ATOM     14  C   UNL     1      65.222  66.538  71.215  0.00  0.00    +0.000 A 
ATOM     15  N   UNL     1      62.945  64.661  69.160  0.00  0.00    +0.000 NA
ATOM     16  C   UNL     1      62.365  64.074  69.179  0.00  0.00    +0.000 C 
ATOM     17  C   UNL     1      62.159  63.722  69.895  0.00  0.00    +0.000 C 
ATOM     18  C   UNL     1      61.993  63.840  68.481  0.00  0.00    +0.000 C 
ATOM     19  O   UNL     1      62.200  64.192  67.764  0.00  0.00    +0.000 OA
ATOM     20  N   UNL     1      61.413  63.253  68.501  0.00  0.00    +0.000 N 
ATOM     21  C   UNL     1      61.040  63.018  67.803  0.00  0.00    +0.000 C 
ATOM     22  C   UNL     1      60.461  62.432  67.822  0.00  0.00    +0.000 C 
ATOM     23  O   UNL     1      60.088  62.198  67.124  0.00  0.00    +0.000 OA
ATOM     24  O   UNL     1      60.254  62.079  68.539  0.00  0.00    +0.000 OA
ATOM     25  C   UNL     1      61.206  62.901  69.217  0.00  0.00    +0.000 C 
ATOM     26  C   UNL     1      60.640  62.310  69.321  0.00  0.00    +0.000 C 
ATOM     27  C   UNL     1      60.613  62.121  70.124  0.00  0.00    +0.000 A 
ATOM     28  C   UNL     1      61.163  62.596  70.517  0.00  0.00    +0.000 A 
ATOM     29  C   UNL     1      61.530  63.077  69.956  0.00  0.00    +0.000 C 
ATOM     30  C   UNL     1      61.258  62.527  71.333  0.00  0.00    +0.000 A 
ATOM     31  C   UNL     1      60.804  61.985  71.757  0.00  0.00    +0.000 A 
ATOM     32  C   UNL     1      60.255  61.511  71.366  0.00  0.00    +0.000 A 
ATOM     33  C   UNL     1      60.159  61.579  70.549  0.00  0.00    +0.000 A 
ENDROOT
TORSDOF 0
ENDMDL
MODEL 3
REMARK VINA RESULT:   -15.137      1.248      2.537
REMARK INTER + INTRA:         -15.137
REMARK INTER:                 -15.137
REMARK INTRA:                   0.000
REMARK UNBOUND:                 0.000
ROOT
REMARK  Name = delapril
REMARK                            x       y       z     vdW  Elec       q    Type
REMARK                         _______ _______ _______ _____ _____    ______ ____
ATOM      1  C   UNL     1      63.280  64.645  69.718  0.00  0.00    +0.000 C 
ATOM      2  C   UNL     1      62.860  64.245  69.131  0.00  0.00    +0.000 C 
ATOM      3  O   UNL     1      62.050  64.116  69.221  0.00  0.00    +0.000 OA
ATOM      4  C   UNL     1      61.630  63.716  68.634  0.00  0.00    +0.000 C 
ATOM      5  O   UNL     1      62.019  63.445  67.959  0.00  0.00    +0.000 OA
ATOM      6  C   UNL     1      60.819  63.586  68.723  0.00  0.00    +0.000 C 
ATOM      7  C   UNL     1      60.398  63.187  68.137  0.00  0.00    +0.000 C 
ATOM      8  C   UNL     1      60.787  62.916  67.462  0.00  0.00    +0.000 C 
ATOM      9  C   UNL     1      60.367  62.516  66.876  0.00  0.00    +0.000 A 
ATOM     10  C   UNL     1      59.557  62.387  66.965  0.00  0.00    +0.000 A 
ATOM     11  C   UNL     1      59.135  61.987  66.379  0.00  0.00    +0.000 A 
ATOM     12  C   UNL     1      59.525  61.716  65.704  0.00  0.00    +0.000 A 
ATOM     13  C   UNL     1      60.335  61.845  65.615  0.00  0.00    +0.000 A 
ATOM     14  C   UNL     1      60.756  62.245  66.201  0.00  0.00    +0.000 A 
ATOM     15  N   UNL     1      60.430  63.858  69.399  0.00  0.00    +0.000 NA
ATOM     16  C   UNL     1      60.851  64.258  69.985  0.00  0.00    +0.000 C 
ATOM     17  C   UNL     1      61.661  64.387  69.896  0.00  0.00    +0.000 C 
ATOM     18  C   UNL     1      60.462  64.528  70.661  0.00  0.00    +0.000 C 
ATOM     19  O   UNL     1      59.652  64.399  70.750  0.00  0.00    +0.000 OA
ATOM     20  N   UNL     1      60.883  64.928  71.247  0.00  0.00    +0.000 N 
ATOM     21  C   UNL     1      60.494  65.199  71.922  0.00  0.00    +0.000 C 
ATOM     22  C   UNL     1      60.915  65.599  72.508  0.00  0.00    +0.000 C 
ATOM     23  O   UNL     1      60.525  65.869  73.183  0.00  0.00    +0.000 OA
ATOM     24  O   UNL     1      61.725  65.728  72.419  0.00  0.00    +0.000 OA
ATOM     25  C   UNL     1      61.693  65.057  71.158  0.00  0.00    +0.000 C 
ATOM     26  C   UNL     1      62.184  65.446  71.694  0.00  0.00    +0.000 C 
ATOM     27  C   UNL     1      62.949  65.450  71.385  0.00  0.00    +0.000 A 
ATOM     28  C   UNL     1      62.931  65.062  70.656  0.00  0.00    +0.000 A 
ATOM     29  C   UNL     1      62.154  64.820  70.516  0.00  0.00    +0.000 C 
ATOM     30  C   UNL     1      63.623  64.981  70.215  0.00  0.00    +0.000 A 
ATOM     31  C   UNL     1      64.333  65.286  70.502  0.00  0.00    +0.000 A 
ATOM     32  C   UNL     1      64.352  65.673  71.230  0.00  0.00    +0.000 A 
ATOM     33  C   UNL     1      63.659  65.755  71.672  0.00  0.00    +0.000 A 
ENDROOT
TORSDOF 0
ENDMDL
MODEL 4
REMARK VINA RESULT:   -15.027      0.941      1.384
REMARK INTER + INTRA:         -15.027
REMARK INTER:                 -15.027
REMARK INTRA:                   0.000
REMARK UNBOUND:                 0.000
ROOT
REMARK  Name = delapril
REMARK                            x       y       z     vdW  Elec       q    Type
REMARK                         _______ _______ _______ _____ _____    ______ ____
ATOM      1  C   UNL     1      60.689  64.544  71.256  0.00  0.00    +0.000 C 
ATOM      2  C   UNL     1      60.476  64.174  70.550  0.00  0.00    +0.000 C 
ATOM      3  O   UNL     1      61.039  64.070  69.955  0.00  0.00    +0.000 OA
ATOM      4  C   UNL     1      60.827  63.699  69.249  0.00  0.00    +0.000 C 
ATOM      5  O   UNL     1      60.054  63.433  69.138  0.00  0.00    +0.000 OA
ATOM      6  C   UNL     1      61.388  63.595  68.653  0.00  0.00    +0.000 C 
ATOM      7  C   UNL     1      61.177  63.225  67.947  0.00  0.00    +0.000 C 
ATOM      8  C   UNL     1      60.404  62.959  67.836  0.00  0.00    +0.000 C 
ATOM      9  C   UNL     1      60.193  62.589  67.130  0.00  0.00    +0.000 A 
ATOM     10  C   UNL     1      60.754  62.484  66.534  0.00  0.00    +0.000 A 
ATOM     11  C   UNL     1      60.543  62.114  65.828  0.00  0.00    +0.000 A 
ATOM     12  C   UNL     1      59.770  61.848  65.717  0.00  0.00    +0.000 A 
ATOM     13  C   UNL     1      59.209  61.952  66.312  0.00  0.00    +0.000 A 
ATOM     14  C   UNL     1      59.420  62.323  67.019  0.00  0.00    +0.000 A 
ATOM     15  N   UNL     1      62.162  63.861  68.765  0.00  0.00    +0.000 NA
ATOM     16  C   UNL     1      62.373  64.232  69.471  0.00  0.00    +0.000 C 
ATOM     17  C   UNL     1      61.812  64.336  70.066  0.00  0.00    +0.000 C 
ATOM     18  C   UNL     1      63.146  64.497  69.582  0.00  0.00    +0.000 C 
ATOM     19  O   UNL     1      63.708  64.393  68.986  0.00  0.00    +0.000 OA
ATOM     20  N   UNL     1      63.357  64.868  70.289  0.00  0.00    +0.000 N 
ATOM     21  C   UNL     1      64.130  65.134  70.400  0.00  0.00    +0.000 C 
ATOM     22  C   UNL     1      64.342  65.504  71.105  0.00  0.00    +0.000 C 
ATOM     23  O   UNL     1      65.115  65.770  71.216  0.00  0.00    +0.000 OA
ATOM     24  O   UNL     1      63.780  65.608  71.701  0.00  0.00    +0.000 OA
ATOM     25  C   UNL     1      62.796  64.972  70.884  0.00  0.00    +0.000 C 
ATOM     26  C   UNL     1      62.925  65.330  71.615  0.00  0.00    +0.000 C 
ATOM     27  C   UNL     1      62.215  65.316  72.036  0.00  0.00    +0.000 A 
ATOM     28  C   UNL     1      61.647  64.948  71.564  0.00  0.00    +0.000 A 
ATOM     29  C   UNL     1      62.005  64.736  70.852  0.00  0.00    +0.000 C 
ATOM     30  C   UNL     1      60.877  64.855  71.843  0.00  0.00    +0.000 A 
ATOM     31  C   UNL     1      60.675  65.129  72.595  0.00  0.00    +0.000 A 
ATOM     32  C   UNL     1      61.243  65.496  73.066  0.00  0.00    +0.000 A 
ATOM     33  C   UNL     1      62.013  65.590  72.787  0.00  0.00    +0.000 A 
ENDROOT
TORSDOF 0
ENDMDL
MODEL 5
REMARK VINA RESULT:   -15.005      1.602      4.896
REMARK INTER + INTRA:         -15.005
REMARK INTER:                 -15.005
REMARK INTRA:                   0.000
REMARK UNBOUND:                 0.000
ROOT
REMARK  Name = delapril
REMARK                            x       y       z     vdW  Elec       q    Type
REMARK                         _______ _______ _______ _____ _____    ______ ____
ATOM      1  C   UNL     1      61.742  63.754  68.076  0.00  0.00    +0.000 C 
ATOM      2  C   UNL     1      62.316  64.259  68.388  0.00  0.00    +0.000 C 
ATOM      3  O   UNL     1      62.488  64.237  69.195  0.00  0.00    +0.000 OA
ATOM      4  C   UNL     1      63.063  64.741  69.506  0.00  0.00    +0.000 C 
ATOM      5  O   UNL     1      63.464  65.266  69.012  0.00  0.00    +0.000 OA
ATOM      6  C   UNL     1      63.235  64.721  70.313  0.00  0.00    +0.000 C 
ATOM      7  C   UNL     1      63.809  65.225  70.626  0.00  0.00    +0.000 C 
ATOM      8  C   UNL     1      64.210  65.749  70.131  0.00  0.00    +0.000 C 
ATOM      9  C   UNL     1      64.784  66.253  70.443  0.00  0.00    +0.000 A 
ATOM     10  C   UNL     1      64.957  66.232  71.250  0.00  0.00    +0.000 A 
ATOM     11  C   UNL     1      65.531  66.736  71.562  0.00  0.00    +0.000 A 
ATOM     12  C   UNL     1      65.932  67.261  71.068  0.00  0.00    +0.000 A 
ATOM     13  C   UNL     1      65.759  67.282  70.261  0.00  0.00    +0.000 A 
ATOM     14  C   UNL     1      65.185  66.778  69.949  0.00  0.00    +0.000 A 
ATOM     15  N   UNL     1      62.834  64.195  70.808  0.00  0.00    +0.000 NA
ATOM     16  C   UNL     1      62.260  63.691  70.495  0.00  0.00    +0.000 C 
ATOM     17  C   UNL     1      62.087  63.712  69.689  0.00  0.00    +0.000 C 
ATOM     18  C   UNL     1      61.859  63.167  70.989  0.00  0.00    +0.000 C 
ATOM     19  O   UNL     1      62.032  63.146  71.796  0.00  0.00    +0.000 OA
ATOM     20  N   UNL     1      61.285  62.663  70.677  0.00  0.00    +0.000 N 
ATOM     21  C   UNL     1      60.884  62.138  71.171  0.00  0.00    +0.000 C 
ATOM     22  C   UNL     1      60.310  61.634  70.860  0.00  0.00    +0.000 C 
ATOM     23  O   UNL     1      59.909  61.110  71.354  0.00  0.00    +0.000 OA
ATOM     24  O   UNL     1      60.138  61.655  70.053  0.00  0.00    +0.000 OA
ATOM     25  C   UNL     1      61.113  62.684  69.871  0.00  0.00    +0.000 C 
ATOM     26  C   UNL     1      60.555  62.215  69.482  0.00  0.00    +0.000 C 
ATOM     27  C   UNL     1      60.565  62.419  68.682  0.00  0.00    +0.000 A 
ATOM     28  C   UNL     1      61.128  63.013  68.577  0.00  0.00    +0.000 A 
ATOM     29  C   UNL     1      61.467  63.177  69.311  0.00  0.00    +0.000 C 
ATOM     30  C   UNL     1      61.260  63.328  67.826  0.00  0.00    +0.000 A 
ATOM     31  C   UNL     1      60.829  63.049  67.180  0.00  0.00    +0.000 A 
ATOM     32  C   UNL     1      60.267  62.456  67.285  0.00  0.00    +0.000 A 
ATOM     33  C   UNL     1      60.134  62.140  68.036  0.00  0.00    +0.000 A 
ENDROOT
TORSDOF 0
ENDMDL
MODEL 6
REMARK VINA RESULT:   -12.986      2.496      5.097
REMARK INTER + INTRA:         -12.986
REMARK INTER:                 -12.986
REMARK INTRA:                   0.000
REMARK UNBOUND:                 0.000
ROOT
REMARK  Name = delapril
REMARK                            x       y       z     vdW  Elec       q    Type
REMARK                         _______ _______ _______ _____ _____    ______ ____
ATOM      1  C   UNL     1      61.762  65.205  69.123  0.00  0.00    +0.000 C 
ATOM      2  C   UNL     1      62.502  65.556  69.223  0.00  0.00    +0.000 C 
ATOM      3  O   UNL     1      62.799  65.682  69.983  0.00  0.00    +0.000 OA
ATOM      4  C   UNL     1      63.539  66.033  70.082  0.00  0.00    +0.000 C 
ATOM      5  O   UNL     1      63.981  66.258  69.423  0.00  0.00    +0.000 OA
ATOM      6  C   UNL     1      63.836  66.159  70.842  0.00  0.00    +0.000 C 
ATOM      7  C   UNL     1      64.576  66.510  70.942  0.00  0.00    +0.000 C 
ATOM      8  C   UNL     1      65.019  66.735  70.283  0.00  0.00    +0.000 C 
ATOM      9  C   UNL     1      65.758  67.086  70.383  0.00  0.00    +0.000 A 
ATOM     10  C   UNL     1      66.055  67.212  71.143  0.00  0.00    +0.000 A 
ATOM     11  C   UNL     1      66.795  67.564  71.244  0.00  0.00    +0.000 A 
ATOM     12  C   UNL     1      67.238  67.789  70.585  0.00  0.00    +0.000 A 
ATOM     13  C   UNL     1      66.940  67.663  69.825  0.00  0.00    +0.000 A 
ATOM     14  C   UNL     1      66.200  67.312  69.725  0.00  0.00    +0.000 A 
ATOM     15  N   UNL     1      63.393  65.933  71.501  0.00  0.00    +0.000 NA
ATOM     16  C   UNL     1      62.653  65.582  71.400  0.00  0.00    +0.000 C 
ATOM     17  C   UNL     1      62.356  65.456  70.642  0.00  0.00    +0.000 C 
ATOM     18  C   UNL     1      62.211  65.357  72.059  0.00  0.00    +0.000 C 
ATOM     19  O   UNL     1      62.509  65.483  72.819  0.00  0.00    +0.000 OA
ATOM     20  N   UNL     1      61.471  65.006  71.958  0.00  0.00    +0.000 N 
ATOM     21  C   UNL     1      61.029  64.780  72.617  0.00  0.00    +0.000 C 
ATOM     22  C   UNL     1      60.290  64.429  72.517  0.00  0.00    +0.000 C 
ATOM     23  O   UNL     1      59.847  64.204  73.176  0.00  0.00    +0.000 OA
ATOM     24  O   UNL     1      59.992  64.303  71.758  0.00  0.00    +0.000 OA
ATOM     25  C   UNL     1      61.174  64.880  71.200  0.00  0.00    +0.000 C 
ATOM     26  C   UNL     1      60.447  64.537  71.014  0.00  0.00    +0.000 C 
ATOM     27  C   UNL     1      60.375  64.520  70.192  0.00  0.00    +0.000 A 
ATOM     28  C   UNL     1      61.058  64.853  69.869  0.00  0.00    +0.000 A 
ATOM     29  C   UNL     1      61.552  65.075  70.492  0.00  0.00    +0.000 C 
ATOM     30  C   UNL     1      61.142  64.910  69.051  0.00  0.00    +0.000 A 
ATOM     31  C   UNL     1      60.543  64.635  68.555  0.00  0.00    +0.000 A 
ATOM     32  C   UNL     1      59.861  64.302  68.877  0.00  0.00    +0.000 A 
ATOM     33  C   UNL     1      59.777  64.244  69.696  0.00  0.00    +0.000 A 
ENDROOT
TORSDOF 0
ENDMDL
