MODEL 1
REMARK VINA RESULT:    -9.948      0.000      0.000
REMARK INTER + INTRA:          -9.948
REMARK INTER:                  -9.948
REMARK INTRA:                   0.000
REMARK UNBOUND:                 0.000
ROOT
REMARK  Name = delorazepam
REMARK                            x       y       z     vdW  Elec       q    Type
REMARK                         _______ _______ _______ _____ _____    ______ ____
ATOM      1 CL   UNL     1      61.657  61.214  71.702  0.00  0.00    +0.000 Cl
ATOM      2  C   UNL     1      61.478  62.012  71.809  0.00  0.00    +0.000 A 
ATOM      3  C   UNL     1      61.621  62.373  72.537  0.00  0.00    +0.000 A 
ATOM      4  C   UNL     1      61.443  63.171  72.644  0.00  0.00    +0.000 A 
ATOM      5  C   UNL     1      61.121  63.609  72.023  0.00  0.00    +0.000 A 
ATOM      6  N   UNL     1      60.984  64.392  72.245  0.00  0.00    +0.000 NA
ATOM      7  C   UNL     1      60.670  65.007  71.793  0.00  0.00    +0.000 C 
ATOM      8  O   UNL     1      60.602  65.733  72.178  0.00  0.00    +0.000 OA
ATOM      9  C   UNL     1      60.416  64.991  71.009  0.00  0.00    +0.000 C 
ATOM     10  N   UNL     1      60.412  64.357  70.482  0.00  0.00    +0.000 NA
ATOM     11  C   UNL     1      60.662  63.581  70.609  0.00  0.00    +0.000 C 
ATOM     12  C   UNL     1      60.977  63.248  71.295  0.00  0.00    +0.000 A 
ATOM     13  C   UNL     1      61.156  62.449  71.188  0.00  0.00    +0.000 A 
ATOM     14  C   UNL     1      60.586  63.070  69.966  0.00  0.00    +0.000 A 
ATOM     15  C   UNL     1      60.276  63.347  69.253  0.00  0.00    +0.000 A 
ATOM     16 CL   UNL     1      60.043  64.136  69.185  0.00  0.00    +0.000 Cl
ATOM     17  C   UNL     1      60.201  62.836  68.610  0.00  0.00    +0.000 A 
ATOM     18  C   UNL     1      60.435  62.049  68.679  0.00  0.00    +0.000 A 
ATOM     19  C   UNL     1      60.744  61.771  69.391  0.00  0.00    +0.000 A 
ATOM     20  C   UNL     1      60.820  62.282  70.034  0.00  0.00    +0.000 A 
ENDROOT
TORSDOF 0
ENDMDL
MODEL 2
REMARK VINA RESULT:    -9.924      1.284      2.737
REMARK INTER + INTRA:          -9.924
REMARK INTER:                  -9.924
REMARK INTRA:                   0.000
REMARK UNBOUND:                 0.000
ROOT
REMARK  Name = delorazepam
REMARK                            x       y       z     vdW  Elec       q    Type
REMARK                         _______ _______ _______ _____ _____    ______ ____
ATOM      1 CL   UNL     1      60.869  61.644  68.962  0.00  0.00    +0.000 Cl
ATOM      2  C   UNL     1      60.622  62.429  69.029  0.00  0.00    +0.000 A 
ATOM      3  C   UNL     1      60.332  62.827  68.367  0.00  0.00    +0.000 A 
ATOM      4  C   UNL     1      60.085  63.612  68.433  0.00  0.00    +0.000 A 
ATOM      5  C   UNL     1      60.129  63.998  69.162  0.00  0.00    +0.000 A 
ATOM      6  N   UNL     1      59.857  64.775  69.107  0.00  0.00    +0.000 NA
ATOM      7  C   UNL     1      59.808  65.345  69.702  0.00  0.00    +0.000 C 
ATOM      8  O   UNL     1      59.508  66.078  69.470  0.00  0.00    +0.000 OA
ATOM      9  C   UNL     1      60.019  65.279  70.496  0.00  0.00    +0.000 C 
ATOM     10  N   UNL     1      60.331  64.627  70.893  0.00  0.00    +0.000 NA
ATOM     11  C   UNL     1      60.510  63.880  70.593  0.00  0.00    +0.000 C 
ATOM     12  C   UNL     1      60.420  63.600  69.823  0.00  0.00    +0.000 A 
ATOM     13  C   UNL     1      60.666  62.815  69.756  0.00  0.00    +0.000 A 
ATOM     14  C   UNL     1      60.819  63.341  71.136  0.00  0.00    +0.000 A 
ATOM     15  C   UNL     1      60.931  63.565  71.923  0.00  0.00    +0.000 A 
ATOM     16 CL   UNL     1      60.734  64.328  72.165  0.00  0.00    +0.000 Cl
ATOM     17  C   UNL     1      61.240  63.026  72.465  0.00  0.00    +0.000 A 
ATOM     18  C   UNL     1      61.437  62.263  72.222  0.00  0.00    +0.000 A 
ATOM     19  C   UNL     1      61.326  62.038  71.436  0.00  0.00    +0.000 A 
ATOM     20  C   UNL     1      61.016  62.577  70.893  0.00  0.00    +0.000 A 
ENDROOT
TORSDOF 0
ENDMDL
MODEL 3
REMARK VINA RESULT:    -9.843      1.686      3.453
REMARK INTER + INTRA:          -9.843
REMARK INTER:                  -9.843
REMARK INTRA:                   0.000
REMARK UNBOUND:                 0.000
ROOT
REMARK  Name = delorazepam
REMARK                            x       y       z     vdW  Elec       q    Type
REMARK                         _______ _______ _______ _____ _____    ______ ____
ATOM      1 CL   UNL     1      60.103  65.607  70.971  0.00  0.00    +0.000 Cl
ATOM      2  C   UNL     1      60.122  65.005  70.407  0.00  0.00    +0.000 A 
ATOM      3  C   UNL     1      59.860  65.151  69.639  0.00  0.00    +0.000 A 
ATOM      4  C   UNL     1      59.878  64.550  69.075  0.00  0.00    +0.000 A 
ATOM      5  C   UNL     1      60.160  63.801  69.279  0.00  0.00    +0.000 A 
ATOM      6  N   UNL     1      60.131  63.283  68.637  0.00  0.00    +0.000 NA
ATOM      7  C   UNL     1      60.359  62.490  68.606  0.00  0.00    +0.000 C 
ATOM      8  O   UNL     1      60.261  62.119  67.876  0.00  0.00    +0.000 OA
ATOM      9  C   UNL     1      60.670  62.020  69.208  0.00  0.00    +0.000 C 
ATOM     10  N   UNL     1      60.831  62.227  69.990  0.00  0.00    +0.000 NA
ATOM     11  C   UNL     1      60.721  62.954  70.364  0.00  0.00    +0.000 C 
ATOM     12  C   UNL     1      60.422  63.654  70.048  0.00  0.00    +0.000 A 
ATOM     13  C   UNL     1      60.403  64.257  70.611  0.00  0.00    +0.000 A 
ATOM     14  C   UNL     1      60.938  62.985  71.159  0.00  0.00    +0.000 A 
ATOM     15  C   UNL     1      61.244  62.314  71.530  0.00  0.00    +0.000 A 
ATOM     16 CL   UNL     1      61.332  61.613  71.105  0.00  0.00    +0.000 Cl
ATOM     17  C   UNL     1      61.461  62.345  72.325  0.00  0.00    +0.000 A 
ATOM     18  C   UNL     1      61.373  63.046  72.750  0.00  0.00    +0.000 A 
ATOM     19  C   UNL     1      61.068  63.718  72.380  0.00  0.00    +0.000 A 
ATOM     20  C   UNL     1      60.851  63.686  71.585  0.00  0.00    +0.000 A 
ENDROOT
TORSDOF 0
ENDMDL
MODEL 4
REMARK VINA RESULT:    -9.751      1.530      2.783
REMARK INTER + INTRA:          -9.751
REMARK INTER:                  -9.751
REMARK INTRA:                   0.000
REMARK UNBOUND:                 0.000
ROOT
REMARK  Name = delorazepam
REMARK                            x       y       z     vdW  Elec       q    Type
REMARK                         _______ _______ _______ _____ _____    ______ ____
ATOM      1 CL   UNL     1      61.890  62.218  73.222  0.00  0.00    +0.000 Cl
ATOM      2  C   UNL     1      61.631  62.132  72.444  0.00  0.00    +0.000 A 
ATOM      3  C   UNL     1      61.766  61.425  72.040  0.00  0.00    +0.000 A 
ATOM      4  C   UNL     1      61.507  61.338  71.262  0.00  0.00    +0.000 A 
ATOM      5  C   UNL     1      61.112  61.959  70.887  0.00  0.00    +0.000 A 
ATOM      6  N   UNL     1      60.901  61.758  70.115  0.00  0.00    +0.000 NA
ATOM      7  C   UNL     1      60.503  62.216  69.556  0.00  0.00    +0.000 C 
ATOM      8  O   UNL     1      60.374  61.855  68.825  0.00  0.00    +0.000 OA
ATOM      9  C   UNL     1      60.218  62.986  69.630  0.00  0.00    +0.000 C 
ATOM     10  N   UNL     1      60.260  63.489  70.283  0.00  0.00    +0.000 NA
ATOM     11  C   UNL     1      60.598  63.347  71.021  0.00  0.00    +0.000 C 
ATOM     12  C   UNL     1      60.977  62.665  71.291  0.00  0.00    +0.000 A 
ATOM     13  C   UNL     1      61.237  62.752  72.069  0.00  0.00    +0.000 A 
ATOM     14  C   UNL     1      60.550  63.967  71.563  0.00  0.00    +0.000 A 
ATOM     15  C   UNL     1      60.181  64.674  71.350  0.00  0.00    +0.000 A 
ATOM     16 CL   UNL     1      59.861  64.759  70.594  0.00  0.00    +0.000 Cl
ATOM     17  C   UNL     1      60.133  65.294  71.891  0.00  0.00    +0.000 A 
ATOM     18  C   UNL     1      60.454  65.208  72.646  0.00  0.00    +0.000 A 
ATOM     19  C   UNL     1      60.823  64.502  72.860  0.00  0.00    +0.000 A 
ATOM     20  C   UNL     1      60.870  63.882  72.318  0.00  0.00    +0.000 A 
ENDROOT
TORSDOF 0
ENDMDL
MODEL 5
REMARK VINA RESULT:    -9.657      3.906      4.756
REMARK INTER + INTRA:          -9.657
REMARK INTER:                  -9.657
REMARK INTRA:                   0.000
REMARK UNBOUND:                 0.000
ROOT
REMARK  Name = delorazepam
REMARK                            x       y       z     vdW  Elec       q    Type
REMARK                         _______ _______ _______ _____ _____    ______ ____
ATOM      1 CL   UNL     1      64.090  64.474  69.366  0.00  0.00    +0.000 Cl
ATOM      2  C   UNL     1      63.686  64.719  70.043  0.00  0.00    +0.000 A 
ATOM      3  C   UNL     1      63.033  64.291  70.311  0.00  0.00    +0.000 A 
ATOM      4  C   UNL     1      62.629  64.534  70.987  0.00  0.00    +0.000 A 
ATOM      5  C   UNL     1      62.877  65.208  71.396  0.00  0.00    +0.000 A 
ATOM      6  N   UNL     1      62.399  65.354  72.053  0.00  0.00    +0.000 NA
ATOM      7  C   UNL     1      62.457  65.966  72.603  0.00  0.00    +0.000 C 
ATOM      8  O   UNL     1      61.890  65.961  73.203  0.00  0.00    +0.000 OA
ATOM      9  C   UNL     1      63.005  66.581  72.634  0.00  0.00    +0.000 C 
ATOM     10  N   UNL     1      63.631  66.737  72.120  0.00  0.00    +0.000 NA
ATOM     11  C   UNL     1      63.865  66.317  71.450  0.00  0.00    +0.000 C 
ATOM     12  C   UNL     1      63.529  65.636  71.128  0.00  0.00    +0.000 A 
ATOM     13  C   UNL     1      63.933  65.391  70.451  0.00  0.00    +0.000 A 
ATOM     14  C   UNL     1      64.521  66.616  71.049  0.00  0.00    +0.000 A 
ATOM     15  C   UNL     1      64.899  67.296  71.326  0.00  0.00    +0.000 A 
ATOM     16 CL   UNL     1      64.620  67.675  72.004  0.00  0.00    +0.000 Cl
ATOM     17  C   UNL     1      65.554  67.595  70.925  0.00  0.00    +0.000 A 
ATOM     18  C   UNL     1      65.833  67.216  70.248  0.00  0.00    +0.000 A 
ATOM     19  C   UNL     1      65.456  66.536  69.971  0.00  0.00    +0.000 A 
ATOM     20  C   UNL     1      64.800  66.237  70.372  0.00  0.00    +0.000 A 
ENDROOT
TORSDOF 0
ENDMDL
MODEL 6
REMARK VINA RESULT:    -9.612      3.817      4.774
REMARK INTER + INTRA:          -9.612
REMARK INTER:                  -9.612
REMARK INTRA:                   0.000
REMARK UNBOUND:                 0.000
ROOT
REMARK  Name = delorazepam
REMARK                            x       y       z     vdW  Elec       q    Type
REMARK                         _______ _______ _______ _____ _____    ______ ____
ATOM      1 CL   UNL     1      62.895  66.617  73.018  0.00  0.00    +0.000 Cl
ATOM      2  C   UNL     1      62.805  66.099  72.381  0.00  0.00    +0.000 A 
ATOM      3  C   UNL     1      62.174  65.568  72.368  0.00  0.00    +0.000 A 
ATOM      4  C   UNL     1      62.083  65.050  71.733  0.00  0.00    +0.000 A 
ATOM      5  C   UNL     1      62.625  65.064  71.110  0.00  0.00    +0.000 A 
ATOM      6  N   UNL     1      62.434  64.504  70.533  0.00  0.00    +0.000 NA
ATOM      7  C   UNL     1      62.828  64.339  69.828  0.00  0.00    +0.000 C 
ATOM      8  O   UNL     1      62.497  63.742  69.365  0.00  0.00    +0.000 OA
ATOM      9  C   UNL     1      63.510  64.690  69.525  0.00  0.00    +0.000 C 
ATOM     10  N   UNL     1      63.966  65.295  69.852  0.00  0.00    +0.000 NA
ATOM     11  C   UNL     1      63.853  65.697  70.563  0.00  0.00    +0.000 C 
ATOM     12  C   UNL     1      63.256  65.594  71.123  0.00  0.00    +0.000 A 
ATOM     13  C   UNL     1      63.346  66.112  71.759  0.00  0.00    +0.000 A 
ATOM     14  C   UNL     1      64.410  66.280  70.738  0.00  0.00    +0.000 A 
ATOM     15  C   UNL     1      65.031  66.427  70.214  0.00  0.00    +0.000 A 
ATOM     16 CL   UNL     1      65.093  65.992  69.516  0.00  0.00    +0.000 Cl
ATOM     17  C   UNL     1      65.589  67.010  70.389  0.00  0.00    +0.000 A 
ATOM     18  C   UNL     1      65.526  67.444  71.087  0.00  0.00    +0.000 A 
ATOM     19  C   UNL     1      64.906  67.297  71.611  0.00  0.00    +0.000 A 
ATOM     20  C   UNL     1      64.349  66.715  71.436  0.00  0.00    +0.000 A 
ENDROOT
TORSDOF 0
ENDMDL
MODEL 7
REMARK VINA RESULT:    -9.482      2.232      3.455
REMARK INTER + INTRA:          -9.482
REMARK INTER:                  -9.482
REMARK INTRA:                   0.000
REMARK UNBOUND:                 0.000
ROOT
REMARK  Name = delorazepam
REMARK                            x       y       z     vdW  Elec       q    Type
REMARK                         _______ _______ _______ _____ _____    ______ ____
ATOM      1 CL   UNL     1      62.873  66.168  72.867  0.00  0.00    +0.000 Cl
ATOM      2  C   UNL     1      62.072  66.358  72.813  0.00  0.00    +0.000 A 
ATOM      3  C   UNL     1      61.825  67.137  72.923  0.00  0.00    +0.000 A 
ATOM      4  C   UNL     1      61.025  67.329  72.870  0.00  0.00    +0.000 A 
ATOM      5  C   UNL     1      60.470  66.739  72.706  0.00  0.00    +0.000 A 
ATOM      6  N   UNL     1      59.704  67.046  72.676  0.00  0.00    +0.000 NA
ATOM      7  C   UNL     1      58.997  66.649  72.529  0.00  0.00    +0.000 C 
ATOM      8  O   UNL     1      58.317  67.115  72.537  0.00  0.00    +0.000 OA
ATOM      9  C   UNL     1      58.880  65.847  72.375  0.00  0.00    +0.000 C 
ATOM     10  N   UNL     1      59.441  65.245  72.330  0.00  0.00    +0.000 NA
ATOM     11  C   UNL     1      60.258  65.295  72.428  0.00  0.00    +0.000 C 
ATOM     12  C   UNL     1      60.717  65.960  72.595  0.00  0.00    +0.000 A 
ATOM     13  C   UNL     1      61.518  65.770  72.649  0.00  0.00    +0.000 A 
ATOM     14  C   UNL     1      60.673  64.586  72.349  0.00  0.00    +0.000 A 
ATOM     15  C   UNL     1      60.268  63.887  72.181  0.00  0.00    +0.000 A 
ATOM     16 CL   UNL     1      59.447  63.898  72.094  0.00  0.00    +0.000 Cl
ATOM     17  C   UNL     1      60.682  63.178  72.102  0.00  0.00    +0.000 A 
ATOM     18  C   UNL     1      61.502  63.168  72.189  0.00  0.00    +0.000 A 
ATOM     19  C   UNL     1      61.908  63.867  72.357  0.00  0.00    +0.000 A 
ATOM     20  C   UNL     1      61.493  64.575  72.436  0.00  0.00    +0.000 A 
ENDROOT
TORSDOF 0
ENDMDL
MODEL 8
REMARK VINA RESULT:    -9.465      2.365      3.230
REMARK INTER + INTRA:          -9.465
REMARK INTER:                  -9.465
REMARK INTRA:                   0.000
REMARK UNBOUND:                 0.000
ROOT
REMARK  Name = delorazepam
REMARK                            x       y       z     vdW  Elec       q    Type
REMARK                         _______ _______ _______ _____ _____    ______ ____
ATOM      1 CL   UNL     1      63.841  64.251  70.217  0.00  0.00    +0.000 Cl
ATOM      2  C   UNL     1      63.556  64.871  70.681  0.00  0.00    +0.000 A 
ATOM      3  C   UNL     1      63.912  65.615  70.638  0.00  0.00    +0.000 A 
ATOM      4  C   UNL     1      63.628  66.235  71.102  0.00  0.00    +0.000 A 
ATOM      5  C   UNL     1      62.988  66.113  71.608  0.00  0.00    +0.000 A 
ATOM      6  N   UNL     1      62.793  66.801  72.019  0.00  0.00    +0.000 NA
ATOM      7  C   UNL     1      62.194  66.916  72.574  0.00  0.00    +0.000 C 
ATOM      8  O   UNL     1      62.139  67.676  72.889  0.00  0.00    +0.000 OA
ATOM      9  C   UNL     1      61.641  66.371  72.855  0.00  0.00    +0.000 C 
ATOM     10  N   UNL     1      61.552  65.577  72.650  0.00  0.00    +0.000 NA
ATOM     11  C   UNL     1      61.993  65.131  72.114  0.00  0.00    +0.000 C 
ATOM     12  C   UNL     1      62.632  65.370  71.650  0.00  0.00    +0.000 A 
ATOM     13  C   UNL     1      62.917  64.749  71.186  0.00  0.00    +0.000 A 
ATOM     14  C   UNL     1      61.765  64.343  72.031  0.00  0.00    +0.000 A 
ATOM     15  C   UNL     1      61.131  64.048  72.470  0.00  0.00    +0.000 A 
ATOM     16 CL   UNL     1      60.727  64.542  72.992  0.00  0.00    +0.000 Cl
ATOM     17  C   UNL     1      60.903  63.260  72.387  0.00  0.00    +0.000 A 
ATOM     18  C   UNL     1      61.308  62.766  71.864  0.00  0.00    +0.000 A 
ATOM     19  C   UNL     1      61.941  63.060  71.425  0.00  0.00    +0.000 A 
ATOM     20  C   UNL     1      62.169  63.849  71.509  0.00  0.00    +0.000 A 
ENDROOT
TORSDOF 0
ENDMDL
MODEL 9
REMARK VINA RESULT:    -9.228      3.415      4.697
REMARK INTER + INTRA:          -9.228
REMARK INTER:                  -9.228
REMARK INTRA:                   0.000
REMARK UNBOUND:                 0.000
ROOT
REMARK  Name = delorazepam
REMARK                            x       y       z     vdW  Elec       q    Type
REMARK                         _______ _______ _______ _____ _____    ______ ____
ATOM      1 CL   UNL     1      65.149  66.505  70.060  0.00  0.00    +0.000 Cl
ATOM      2  C   UNL     1      64.613  65.889  70.178  0.00  0.00    +0.000 A 
ATOM      3  C   UNL     1      64.646  65.218  69.699  0.00  0.00    +0.000 A 
ATOM      4  C   UNL     1      64.111  64.600  69.815  0.00  0.00    +0.000 A 
ATOM      5  C   UNL     1      63.543  64.655  70.412  0.00  0.00    +0.000 A 
ATOM      6  N   UNL     1      63.066  63.982  70.435  0.00  0.00    +0.000 NA
ATOM      7  C   UNL     1      62.438  63.815  70.943  0.00  0.00    +0.000 C 
ATOM      8  O   UNL     1      62.067  63.088  70.825  0.00  0.00    +0.000 OA
ATOM      9  C   UNL     1      62.132  64.278  71.553  0.00  0.00    +0.000 C 
ATOM     10  N   UNL     1      62.379  65.023  71.805  0.00  0.00    +0.000 NA
ATOM     11  C   UNL     1      62.992  65.490  71.511  0.00  0.00    +0.000 C 
ATOM     12  C   UNL     1      63.510  65.326  70.891  0.00  0.00    +0.000 A 
ATOM     13  C   UNL     1      64.046  65.942  70.773  0.00  0.00    +0.000 A 
ATOM     14  C   UNL     1      63.102  66.216  71.886  0.00  0.00    +0.000 A 
ATOM     15  C   UNL     1      62.612  66.435  72.514  0.00  0.00    +0.000 A 
ATOM     16 CL   UNL     1      62.014  65.926  72.765  0.00  0.00    +0.000 Cl
ATOM     17  C   UNL     1      62.722  67.161  72.889  0.00  0.00    +0.000 A 
ATOM     18  C   UNL     1      63.321  67.669  72.637  0.00  0.00    +0.000 A 
ATOM     19  C   UNL     1      63.810  67.451  72.009  0.00  0.00    +0.000 A 
ATOM     20  C   UNL     1      63.700  66.725  71.634  0.00  0.00    +0.000 A 
ENDROOT
TORSDOF 0
ENDMDL
