MODEL 1
REMARK VINA RESULT:   -11.990      0.000      0.000
REMARK INTER + INTRA:         -11.990
REMARK INTER:                 -11.990
REMARK INTRA:                   0.000
REMARK UNBOUND:                 0.000
ROOT
REMARK  Name = demecolcine
REMARK                            x       y       z     vdW  Elec       q    Type
REMARK                         _______ _______ _______ _____ _____    ______ ____
ATOM      1  C   UNL     1      60.700  61.633  70.660  0.00  0.00    +0.000 C 
ATOM      2  N   UNL     1      60.517  62.048  71.349  0.00  0.00    +0.000 NA
ATOM      3  C   UNL     1      60.315  62.847  71.307  0.00  0.00    +0.000 C 
ATOM      4  C   UNL     1      60.142  63.211  72.027  0.00  0.00    +0.000 C 
ATOM      5  C   UNL     1      59.924  63.993  72.169  0.00  0.00    +0.000 C 
ATOM      6  C   UNL     1      59.825  64.606  71.625  0.00  0.00    +0.000 A 
ATOM      7  C   UNL     1      59.603  65.307  71.998  0.00  0.00    +0.000 A 
ATOM      8  C   UNL     1      59.475  65.989  71.553  0.00  0.00    +0.000 A 
ATOM      9  O   UNL     1      59.253  66.691  71.927  0.00  0.00    +0.000 OA
ATOM     10  C   UNL     1      59.125  67.373  71.481  0.00  0.00    +0.000 C 
ATOM     11  C   UNL     1      59.570  65.970  70.733  0.00  0.00    +0.000 A 
ATOM     12  O   UNL     1      59.442  66.653  70.288  0.00  0.00    +0.000 OA
ATOM     13  C   UNL     1      59.536  66.634  69.468  0.00  0.00    +0.000 C 
ATOM     14  C   UNL     1      59.792  65.269  70.360  0.00  0.00    +0.000 A 
ATOM     15  O   UNL     1      59.886  65.250  69.541  0.00  0.00    +0.000 OA
ATOM     16  C   UNL     1      59.759  65.933  69.095  0.00  0.00    +0.000 C 
ATOM     17  C   UNL     1      59.919  64.587  70.806  0.00  0.00    +0.000 A 
ATOM     18  C   UNL     1      60.136  63.951  70.327  0.00  0.00    +0.000 A 
ATOM     19  C   UNL     1      60.134  64.280  69.571  0.00  0.00    +0.000 A 
ATOM     20  C   UNL     1      60.307  63.917  68.851  0.00  0.00    +0.000 A 
ATOM     21  C   UNL     1      60.525  63.133  68.709  0.00  0.00    +0.000 A 
ATOM     22  O   UNL     1      60.662  62.938  67.920  0.00  0.00    +0.000 OA
ATOM     23  C   UNL     1      60.578  63.511  67.332  0.00  0.00    +0.000 C 
ATOM     24  C   UNL     1      60.624  62.521  69.253  0.00  0.00    +0.000 A 
ATOM     25  O   UNL     1      60.847  61.793  68.935  0.00  0.00    +0.000 OA
ATOM     26  C   UNL     1      60.529  62.540  70.072  0.00  0.00    +0.000 A 
ATOM     27  C   UNL     1      60.312  63.176  70.550  0.00  0.00    +0.000 A 
ENDROOT
TORSDOF 0
ENDMDL
MODEL 2
REMARK VINA RESULT:   -11.854      1.754      3.511
REMARK INTER + INTRA:         -11.854
REMARK INTER:                 -11.854
REMARK INTRA:                   0.000
REMARK UNBOUND:                 0.000
ROOT
REMARK  Name = demecolcine
REMARK                            x       y       z     vdW  Elec       q    Type
REMARK                         _______ _______ _______ _____ _____    ______ ____
ATOM      1  C   UNL     1      61.622  63.055  73.059  0.00  0.00    +0.000 C 
ATOM      2  N   UNL     1      61.351  62.389  72.653  0.00  0.00    +0.000 NA
ATOM      3  C   UNL     1      61.179  62.439  71.848  0.00  0.00    +0.000 C 
ATOM      4  C   UNL     1      60.912  61.743  71.495  0.00  0.00    +0.000 C 
ATOM      5  C   UNL     1      60.697  61.614  70.710  0.00  0.00    +0.000 C 
ATOM      6  C   UNL     1      60.697  62.150  70.082  0.00  0.00    +0.000 A 
ATOM      7  C   UNL     1      60.441  61.795  69.382  0.00  0.00    +0.000 A 
ATOM      8  C   UNL     1      60.399  62.235  68.687  0.00  0.00    +0.000 A 
ATOM      9  O   UNL     1      60.144  61.880  67.988  0.00  0.00    +0.000 OA
ATOM     10  C   UNL     1      60.102  62.321  67.292  0.00  0.00    +0.000 C 
ATOM     11  C   UNL     1      60.614  63.032  68.691  0.00  0.00    +0.000 A 
ATOM     12  O   UNL     1      60.573  63.474  67.995  0.00  0.00    +0.000 OA
ATOM     13  C   UNL     1      60.787  64.270  67.998  0.00  0.00    +0.000 C 
ATOM     14  C   UNL     1      60.870  63.388  69.390  0.00  0.00    +0.000 A 
ATOM     15  O   UNL     1      61.084  64.184  69.394  0.00  0.00    +0.000 OA
ATOM     16  C   UNL     1      61.043  64.626  68.698  0.00  0.00    +0.000 C 
ATOM     17  C   UNL     1      60.911  62.946  70.086  0.00  0.00    +0.000 A 
ATOM     18  C   UNL     1      61.179  63.404  70.718  0.00  0.00    +0.000 A 
ATOM     19  C   UNL     1      61.297  64.143  70.371  0.00  0.00    +0.000 A 
ATOM     20  C   UNL     1      61.565  64.840  70.723  0.00  0.00    +0.000 A 
ATOM     21  C   UNL     1      61.780  64.968  71.510  0.00  0.00    +0.000 A 
ATOM     22  O   UNL     1      62.027  65.734  71.693  0.00  0.00    +0.000 OA
ATOM     23  C   UNL     1      62.047  66.312  71.104  0.00  0.00    +0.000 C 
ATOM     24  C   UNL     1      61.780  64.433  72.137  0.00  0.00    +0.000 A 
ATOM     25  O   UNL     1      62.028  64.734  72.865  0.00  0.00    +0.000 OA
ATOM     26  C   UNL     1      61.566  63.636  72.134  0.00  0.00    +0.000 A 
ATOM     27  C   UNL     1      61.298  63.179  71.502  0.00  0.00    +0.000 A 
ENDROOT
TORSDOF 0
ENDMDL
MODEL 3
REMARK VINA RESULT:   -11.771      1.976      2.026
REMARK INTER + INTRA:         -11.771
REMARK INTER:                 -11.771
REMARK INTRA:                   0.000
REMARK UNBOUND:                 0.000
ROOT
REMARK  Name = demecolcine
REMARK                            x       y       z     vdW  Elec       q    Type
REMARK                         _______ _______ _______ _____ _____    ______ ____
ATOM      1  C   UNL     1      60.406  61.442  70.609  0.00  0.00    +0.000 C 
ATOM      2  N   UNL     1      60.601  61.769  71.341  0.00  0.00    +0.000 NA
ATOM      3  C   UNL     1      60.963  62.509  71.380  0.00  0.00    +0.000 C 
ATOM      4  C   UNL     1      61.134  62.784  72.139  0.00  0.00    +0.000 C 
ATOM      5  C   UNL     1      61.490  63.494  72.360  0.00  0.00    +0.000 C 
ATOM      6  C   UNL     1      61.764  64.105  71.876  0.00  0.00    +0.000 A 
ATOM      7  C   UNL     1      62.085  64.721  72.321  0.00  0.00    +0.000 A 
ATOM      8  C   UNL     1      62.391  65.387  71.944  0.00  0.00    +0.000 A 
ATOM      9  O   UNL     1      62.712  66.002  72.389  0.00  0.00    +0.000 OA
ATOM     10  C   UNL     1      63.019  66.669  72.011  0.00  0.00    +0.000 C 
ATOM     11  C   UNL     1      62.376  65.437  71.120  0.00  0.00    +0.000 A 
ATOM     12  O   UNL     1      62.682  66.103  70.742  0.00  0.00    +0.000 OA
ATOM     13  C   UNL     1      62.667  66.154  69.919  0.00  0.00    +0.000 C 
ATOM     14  C   UNL     1      62.054  64.821  70.675  0.00  0.00    +0.000 A 
ATOM     15  O   UNL     1      62.039  64.872  69.852  0.00  0.00    +0.000 OA
ATOM     16  C   UNL     1      62.346  65.538  69.474  0.00  0.00    +0.000 C 
ATOM     17  C   UNL     1      61.749  64.155  71.054  0.00  0.00    +0.000 A 
ATOM     18  C   UNL     1      61.456  63.608  70.509  0.00  0.00    +0.000 A 
ATOM     19  C   UNL     1      61.599  63.974  69.785  0.00  0.00    +0.000 A 
ATOM     20  C   UNL     1      61.429  63.699  69.026  0.00  0.00    +0.000 A 
ATOM     21  C   UNL     1      61.072  62.988  68.805  0.00  0.00    +0.000 A 
ATOM     22  O   UNL     1      60.977  62.873  67.994  0.00  0.00    +0.000 OA
ATOM     23  C   UNL     1      61.232  63.451  67.462  0.00  0.00    +0.000 C 
ATOM     24  C   UNL     1      60.798  62.379  69.288  0.00  0.00    +0.000 A 
ATOM     25  O   UNL     1      60.465  61.734  68.896  0.00  0.00    +0.000 OA
ATOM     26  C   UNL     1      60.813  62.328  70.112  0.00  0.00    +0.000 A 
ATOM     27  C   UNL     1      61.106  62.875  70.655  0.00  0.00    +0.000 A 
ENDROOT
TORSDOF 0
ENDMDL
MODEL 4
REMARK VINA RESULT:   -11.546      1.125      3.570
REMARK INTER + INTRA:         -11.546
REMARK INTER:                 -11.546
REMARK INTRA:                   0.000
REMARK UNBOUND:                 0.000
ROOT
REMARK  Name = demecolcine
REMARK                            x       y       z     vdW  Elec       q    Type
REMARK                         _______ _______ _______ _____ _____    ______ ____
ATOM      1  C   UNL     1      59.925  66.622  72.801  0.00  0.00    +0.000 C 
ATOM      2  N   UNL     1      60.079  65.853  73.055  0.00  0.00    +0.000 NA
ATOM      3  C   UNL     1      60.140  65.241  72.505  0.00  0.00    +0.000 C 
ATOM      4  C   UNL     1      60.294  64.493  72.817  0.00  0.00    +0.000 C 
ATOM      5  C   UNL     1      60.385  63.778  72.417  0.00  0.00    +0.000 C 
ATOM      6  C   UNL     1      60.344  63.633  71.605  0.00  0.00    +0.000 A 
ATOM      7  C   UNL     1      60.468  62.836  71.435  0.00  0.00    +0.000 A 
ATOM      8  C   UNL     1      60.450  62.574  70.653  0.00  0.00    +0.000 A 
ATOM      9  O   UNL     1      60.574  61.776  70.483  0.00  0.00    +0.000 OA
ATOM     10  C   UNL     1      60.556  61.514  69.700  0.00  0.00    +0.000 C 
ATOM     11  C   UNL     1      60.308  63.110  70.042  0.00  0.00    +0.000 A 
ATOM     12  O   UNL     1      60.290  62.848  69.260  0.00  0.00    +0.000 OA
ATOM     13  C   UNL     1      60.148  63.383  68.648  0.00  0.00    +0.000 C 
ATOM     14  C   UNL     1      60.184  63.907  70.213  0.00  0.00    +0.000 A 
ATOM     15  O   UNL     1      60.042  64.443  69.601  0.00  0.00    +0.000 OA
ATOM     16  C   UNL     1      60.024  64.180  68.819  0.00  0.00    +0.000 C 
ATOM     17  C   UNL     1      60.202  64.169  70.995  0.00  0.00    +0.000 A 
ATOM     18  C   UNL     1      60.066  64.981  71.044  0.00  0.00    +0.000 A 
ATOM     19  C   UNL     1      59.965  65.198  70.255  0.00  0.00    +0.000 A 
ATOM     20  C   UNL     1      59.810  65.946  69.942  0.00  0.00    +0.000 A 
ATOM     21  C   UNL     1      59.719  66.662  70.343  0.00  0.00    +0.000 A 
ATOM     22  O   UNL     1      59.567  67.320  69.869  0.00  0.00    +0.000 OA
ATOM     23  C   UNL     1      59.515  67.235  69.049  0.00  0.00    +0.000 C 
ATOM     24  C   UNL     1      59.760  66.806  71.154  0.00  0.00    +0.000 A 
ATOM     25  O   UNL     1      59.643  67.590  71.384  0.00  0.00    +0.000 OA
ATOM     26  C   UNL     1      59.902  66.270  71.765  0.00  0.00    +0.000 A 
ATOM     27  C   UNL     1      60.038  65.459  71.716  0.00  0.00    +0.000 A 
ENDROOT
TORSDOF 0
ENDMDL
MODEL 5
REMARK VINA RESULT:   -11.346      3.756      5.081
REMARK INTER + INTRA:         -11.346
REMARK INTER:                 -11.346
REMARK INTRA:                   0.000
REMARK UNBOUND:                 0.000
ROOT
REMARK  Name = demecolcine
REMARK                            x       y       z     vdW  Elec       q    Type
REMARK                         _______ _______ _______ _____ _____    ______ ____
ATOM      1  C   UNL     1      65.353  67.050  70.979  0.00  0.00    +0.000 C 
ATOM      2  N   UNL     1      65.306  66.352  70.541  0.00  0.00    +0.000 NA
ATOM      3  C   UNL     1      64.634  65.876  70.596  0.00  0.00    +0.000 C 
ATOM      4  C   UNL     1      64.642  65.191  70.137  0.00  0.00    +0.000 C 
ATOM      5  C   UNL     1      64.061  64.609  70.071  0.00  0.00    +0.000 C 
ATOM      6  C   UNL     1      63.328  64.569  70.448  0.00  0.00    +0.000 A 
ATOM      7  C   UNL     1      62.912  63.891  70.227  0.00  0.00    +0.000 A 
ATOM      8  C   UNL     1      62.165  63.745  70.542  0.00  0.00    +0.000 A 
ATOM      9  O   UNL     1      61.749  63.067  70.321  0.00  0.00    +0.000 OA
ATOM     10  C   UNL     1      61.001  62.921  70.637  0.00  0.00    +0.000 C 
ATOM     11  C   UNL     1      61.832  64.277  71.078  0.00  0.00    +0.000 A 
ATOM     12  O   UNL     1      61.084  64.131  71.394  0.00  0.00    +0.000 OA
ATOM     13  C   UNL     1      60.751  64.662  71.930  0.00  0.00    +0.000 C 
ATOM     14  C   UNL     1      62.248  64.955  71.299  0.00  0.00    +0.000 A 
ATOM     15  O   UNL     1      61.915  65.486  71.835  0.00  0.00    +0.000 OA
ATOM     16  C   UNL     1      61.167  65.340  72.150  0.00  0.00    +0.000 C 
ATOM     17  C   UNL     1      62.996  65.100  70.983  0.00  0.00    +0.000 A 
ATOM     18  C   UNL     1      63.314  65.804  71.275  0.00  0.00    +0.000 A 
ATOM     19  C   UNL     1      62.723  66.076  71.782  0.00  0.00    +0.000 A 
ATOM     20  C   UNL     1      62.714  66.761  72.241  0.00  0.00    +0.000 A 
ATOM     21  C   UNL     1      63.295  67.344  72.307  0.00  0.00    +0.000 A 
ATOM     22  O   UNL     1      63.120  67.967  72.818  0.00  0.00    +0.000 OA
ATOM     23  C   UNL     1      62.401  67.980  73.222  0.00  0.00    +0.000 C 
ATOM     24  C   UNL     1      64.028  67.383  71.930  0.00  0.00    +0.000 A 
ATOM     25  O   UNL     1      64.489  68.043  72.114  0.00  0.00    +0.000 OA
ATOM     26  C   UNL     1      64.361  66.852  71.394  0.00  0.00    +0.000 A 
ATOM     27  C   UNL     1      64.042  66.149  71.103  0.00  0.00    +0.000 A 
ENDROOT
TORSDOF 0
ENDMDL
MODEL 6
REMARK VINA RESULT:   -11.317      3.222      3.810
REMARK INTER + INTRA:         -11.317
REMARK INTER:                 -11.317
REMARK INTRA:                   0.000
REMARK UNBOUND:                 0.000
ROOT
REMARK  Name = demecolcine
REMARK                            x       y       z     vdW  Elec       q    Type
REMARK                         _______ _______ _______ _____ _____    ______ ____
ATOM      1  C   UNL     1      59.960  64.828  72.860  0.00  0.00    +0.000 C 
ATOM      2  N   UNL     1      60.477  65.428  73.090  0.00  0.00    +0.000 NA
ATOM      3  C   UNL     1      61.209  65.508  72.718  0.00  0.00    +0.000 C 
ATOM      4  C   UNL     1      61.683  66.126  72.990  0.00  0.00    +0.000 C 
ATOM      5  C   UNL     1      62.434  66.348  72.734  0.00  0.00    +0.000 C 
ATOM      6  C   UNL     1      62.899  66.006  72.143  0.00  0.00    +0.000 A 
ATOM      7  C   UNL     1      63.620  66.399  72.061  0.00  0.00    +0.000 A 
ATOM      8  C   UNL     1      64.167  66.145  71.499  0.00  0.00    +0.000 A 
ATOM      9  O   UNL     1      64.887  66.537  71.417  0.00  0.00    +0.000 OA
ATOM     10  C   UNL     1      65.435  66.283  70.854  0.00  0.00    +0.000 C 
ATOM     11  C   UNL     1      63.992  65.497  71.018  0.00  0.00    +0.000 A 
ATOM     12  O   UNL     1      64.539  65.242  70.455  0.00  0.00    +0.000 OA
ATOM     13  C   UNL     1      64.366  64.595  69.975  0.00  0.00    +0.000 C 
ATOM     14  C   UNL     1      63.271  65.104  71.100  0.00  0.00    +0.000 A 
ATOM     15  O   UNL     1      63.098  64.457  70.619  0.00  0.00    +0.000 OA
ATOM     16  C   UNL     1      63.645  64.202  70.057  0.00  0.00    +0.000 C 
ATOM     17  C   UNL     1      62.725  65.359  71.663  0.00  0.00    +0.000 A 
ATOM     18  C   UNL     1      62.044  64.893  71.654  0.00  0.00    +0.000 A 
ATOM     19  C   UNL     1      62.205  64.344  71.059  0.00  0.00    +0.000 A 
ATOM     20  C   UNL     1      61.731  63.726  70.787  0.00  0.00    +0.000 A 
ATOM     21  C   UNL     1      60.978  63.504  71.043  0.00  0.00    +0.000 A 
ATOM     22  O   UNL     1      60.646  62.855  70.657  0.00  0.00    +0.000 OA
ATOM     23  C   UNL     1      61.065  62.473  70.057  0.00  0.00    +0.000 C 
ATOM     24  C   UNL     1      60.515  63.846  71.634  0.00  0.00    +0.000 A 
ATOM     25  O   UNL     1      59.780  63.493  71.761  0.00  0.00    +0.000 OA
ATOM     26  C   UNL     1      60.689  64.493  72.115  0.00  0.00    +0.000 A 
ATOM     27  C   UNL     1      61.369  64.959  72.123  0.00  0.00    +0.000 A 
ENDROOT
TORSDOF 0
ENDMDL
MODEL 7
REMARK VINA RESULT:   -11.229      1.298      2.533
REMARK INTER + INTRA:         -11.229
REMARK INTER:                 -11.229
REMARK INTRA:                   0.000
REMARK UNBOUND:                 0.000
ROOT
REMARK  Name = demecolcine
REMARK                            x       y       z     vdW  Elec       q    Type
REMARK                         _______ _______ _______ _____ _____    ______ ____
ATOM      1  C   UNL     1      60.876  62.030  69.507  0.00  0.00    +0.000 C 
ATOM      2  N   UNL     1      60.557  62.667  69.091  0.00  0.00    +0.000 NA
ATOM      3  C   UNL     1      60.415  63.382  69.476  0.00  0.00    +0.000 C 
ATOM      4  C   UNL     1      60.096  63.984  69.010  0.00  0.00    +0.000 C 
ATOM      5  C   UNL     1      59.894  64.752  69.230  0.00  0.00    +0.000 C 
ATOM      6  C   UNL     1      59.961  65.110  69.971  0.00  0.00    +0.000 A 
ATOM      7  C   UNL     1      59.695  65.891  69.954  0.00  0.00    +0.000 A 
ATOM      8  C   UNL     1      59.715  66.349  70.639  0.00  0.00    +0.000 A 
ATOM      9  O   UNL     1      59.449  67.129  70.622  0.00  0.00    +0.000 OA
ATOM     10  C   UNL     1      59.469  67.588  71.308  0.00  0.00    +0.000 C 
ATOM     11  C   UNL     1      60.001  66.025  71.343  0.00  0.00    +0.000 A 
ATOM     12  O   UNL     1      60.021  66.483  72.029  0.00  0.00    +0.000 OA
ATOM     13  C   UNL     1      60.306  66.161  72.732  0.00  0.00    +0.000 C 
ATOM     14  C   UNL     1      60.267  65.244  71.360  0.00  0.00    +0.000 A 
ATOM     15  O   UNL     1      60.552  64.922  72.063  0.00  0.00    +0.000 OA
ATOM     16  C   UNL     1      60.572  65.380  72.749  0.00  0.00    +0.000 C 
ATOM     17  C   UNL     1      60.247  64.787  70.674  0.00  0.00    +0.000 A 
ATOM     18  C   UNL     1      60.536  64.026  70.811  0.00  0.00    +0.000 A 
ATOM     19  C   UNL     1      60.732  64.046  71.611  0.00  0.00    +0.000 A 
ATOM     20  C   UNL     1      61.051  63.445  72.078  0.00  0.00    +0.000 A 
ATOM     21  C   UNL     1      61.253  62.675  71.858  0.00  0.00    +0.000 A 
ATOM     22  O   UNL     1      61.563  62.202  72.458  0.00  0.00    +0.000 OA
ATOM     23  C   UNL     1      61.653  62.507  73.220  0.00  0.00    +0.000 C 
ATOM     24  C   UNL     1      61.186  62.318  71.118  0.00  0.00    +0.000 A 
ATOM     25  O   UNL     1      61.438  61.533  71.075  0.00  0.00    +0.000 OA
ATOM     26  C   UNL     1      60.900  62.641  70.414  0.00  0.00    +0.000 A 
ATOM     27  C   UNL     1      60.611  63.401  70.278  0.00  0.00    +0.000 A 
ENDROOT
TORSDOF 0
ENDMDL
MODEL 8
REMARK VINA RESULT:   -11.228      2.278      3.107
REMARK INTER + INTRA:         -11.228
REMARK INTER:                 -11.228
REMARK INTRA:                   0.000
REMARK UNBOUND:                 0.000
ROOT
REMARK  Name = demecolcine
REMARK                            x       y       z     vdW  Elec       q    Type
REMARK                         _______ _______ _______ _____ _____    ______ ____
ATOM      1  C   UNL     1      62.533  63.436  70.696  0.00  0.00    +0.000 C 
ATOM      2  N   UNL     1      61.761  63.155  70.772  0.00  0.00    +0.000 NA
ATOM      3  C   UNL     1      61.190  63.615  71.150  0.00  0.00    +0.000 C 
ATOM      4  C   UNL     1      60.436  63.283  71.196  0.00  0.00    +0.000 C 
ATOM      5  C   UNL     1      59.755  63.600  71.535  0.00  0.00    +0.000 C 
ATOM      6  C   UNL     1      59.658  64.328  71.913  0.00  0.00    +0.000 A 
ATOM      7  C   UNL     1      58.883  64.431  72.175  0.00  0.00    +0.000 A 
ATOM      8  C   UNL     1      58.669  65.124  72.567  0.00  0.00    +0.000 A 
ATOM      9  O   UNL     1      57.893  65.227  72.829  0.00  0.00    +0.000 OA
ATOM     10  C   UNL     1      57.679  65.921  73.221  0.00  0.00    +0.000 C 
ATOM     11  C   UNL     1      59.231  65.714  72.697  0.00  0.00    +0.000 A 
ATOM     12  O   UNL     1      59.017  66.408  73.090  0.00  0.00    +0.000 OA
ATOM     13  C   UNL     1      59.579  66.998  73.221  0.00  0.00    +0.000 C 
ATOM     14  C   UNL     1      60.007  65.611  72.435  0.00  0.00    +0.000 A 
ATOM     15  O   UNL     1      60.568  66.201  72.566  0.00  0.00    +0.000 OA
ATOM     16  C   UNL     1      60.354  66.894  72.959  0.00  0.00    +0.000 C 
ATOM     17  C   UNL     1      60.220  64.917  72.043  0.00  0.00    +0.000 A 
ATOM     18  C   UNL     1      61.017  64.926  71.829  0.00  0.00    +0.000 A 
ATOM     19  C   UNL     1      61.275  65.656  72.110  0.00  0.00    +0.000 A 
ATOM     20  C   UNL     1      62.028  65.989  72.064  0.00  0.00    +0.000 A 
ATOM     21  C   UNL     1      62.711  65.671  71.725  0.00  0.00    +0.000 A 
ATOM     22  O   UNL     1      63.385  66.144  71.768  0.00  0.00    +0.000 OA
ATOM     23  C   UNL     1      63.348  66.883  72.134  0.00  0.00    +0.000 C 
ATOM     24  C   UNL     1      62.806  64.944  71.348  0.00  0.00    +0.000 A 
ATOM     25  O   UNL     1      63.565  64.786  71.064  0.00  0.00    +0.000 OA
ATOM     26  C   UNL     1      62.245  64.354  71.217  0.00  0.00    +0.000 A 
ATOM     27  C   UNL     1      61.449  64.346  71.431  0.00  0.00    +0.000 A 
ENDROOT
TORSDOF 0
ENDMDL
MODEL 9
REMARK VINA RESULT:   -11.055      3.627      4.439
REMARK INTER + INTRA:         -11.055
REMARK INTER:                 -11.055
REMARK INTRA:                   0.000
REMARK UNBOUND:                 0.000
ROOT
REMARK  Name = demecolcine
REMARK                            x       y       z     vdW  Elec       q    Type
REMARK                         _______ _______ _______ _____ _____    ______ ____
ATOM      1  C   UNL     1      61.146  63.403  70.858  0.00  0.00    +0.000 C 
ATOM      2  N   UNL     1      61.878  63.372  70.479  0.00  0.00    +0.000 NA
ATOM      3  C   UNL     1      62.434  63.969  70.604  0.00  0.00    +0.000 C 
ATOM      4  C   UNL     1      63.147  63.886  70.198  0.00  0.00    +0.000 C 
ATOM      5  C   UNL     1      63.804  64.383  70.207  0.00  0.00    +0.000 C 
ATOM      6  C   UNL     1      63.911  65.088  70.624  0.00  0.00    +0.000 A 
ATOM      7  C   UNL     1      64.654  65.415  70.477  0.00  0.00    +0.000 A 
ATOM      8  C   UNL     1      64.873  66.122  70.840  0.00  0.00    +0.000 A 
ATOM      9  O   UNL     1      65.616  66.449  70.694  0.00  0.00    +0.000 OA
ATOM     10  C   UNL     1      65.835  67.156  71.058  0.00  0.00    +0.000 C 
ATOM     11  C   UNL     1      64.348  66.502  71.351  0.00  0.00    +0.000 A 
ATOM     12  O   UNL     1      64.566  67.209  71.715  0.00  0.00    +0.000 OA
ATOM     13  C   UNL     1      64.042  67.589  72.226  0.00  0.00    +0.000 C 
ATOM     14  C   UNL     1      63.605  66.174  71.498  0.00  0.00    +0.000 A 
ATOM     15  O   UNL     1      63.081  66.555  72.009  0.00  0.00    +0.000 OA
ATOM     16  C   UNL     1      63.299  67.262  72.373  0.00  0.00    +0.000 C 
ATOM     17  C   UNL     1      63.387  65.467  71.134  0.00  0.00    +0.000 A 
ATOM     18  C   UNL     1      62.626  65.237  71.355  0.00  0.00    +0.000 A 
ATOM     19  C   UNL     1      62.394  65.839  71.869  0.00  0.00    +0.000 A 
ATOM     20  C   UNL     1      61.681  65.923  72.275  0.00  0.00    +0.000 A 
ATOM     21  C   UNL     1      61.022  65.425  72.266  0.00  0.00    +0.000 A 
ATOM     22  O   UNL     1      60.388  65.662  72.736  0.00  0.00    +0.000 OA
ATOM     23  C   UNL     1      60.438  66.359  73.176  0.00  0.00    +0.000 C 
ATOM     24  C   UNL     1      60.916  64.721  71.850  0.00  0.00    +0.000 A 
ATOM     25  O   UNL     1      60.188  64.348  71.959  0.00  0.00    +0.000 OA
ATOM     26  C   UNL     1      61.440  64.340  71.339  0.00  0.00    +0.000 A 
ATOM     27  C   UNL     1      62.201  64.571  71.119  0.00  0.00    +0.000 A 
ENDROOT
TORSDOF 0
ENDMDL
