MODEL 1
REMARK VINA RESULT:   -13.631      0.000      0.000
REMARK INTER + INTRA:         -13.631
REMARK INTER:                 -13.631
REMARK INTRA:                   0.000
REMARK UNBOUND:                 0.000
ROOT
REMARK  Name = depreotide
REMARK                            x       y       z     vdW  Elec       q    Type
REMARK                         _______ _______ _______ _____ _____    ______ ____
ATOM      1  CG1 VAL A   1      82.191  64.011  59.384  0.00  0.00    +0.000 C 
ATOM      2  CB  VAL A   1      82.191  64.394  58.652  0.00  0.00    +0.000 C 
ATOM      3  CG2 VAL A   1      82.185  65.218  58.617  0.00  0.00    +0.000 C 
ATOM      4  CA  VAL A   1      82.197  63.951  57.956  0.00  0.00    +0.000 C 
ATOM      5  N   VAL A   1      82.197  64.334  57.224  0.00  0.00    +0.000 NA
ATOM      6  C   LYS A   6      82.191  65.158  57.190  0.00  0.00    +0.000 C 
ATOM      7  O   LYS A   6      82.185  65.600  57.887  0.00  0.00    +0.000 OA
ATOM      8  CA  LYS A   6      82.191  65.540  56.459  0.00  0.00    +0.000 C 
ATOM      9  CB  LYS A   6      82.184  66.364  56.424  0.00  0.00    +0.000 C 
ATOM     10  CG  LYS A   6      82.184  66.746  55.694  0.00  0.00    +0.000 C 
ATOM     11  CD  LYS A   6      82.178  67.571  55.659  0.00  0.00    +0.000 C 
ATOM     12  CE  LYS A   6      82.178  67.953  54.928  0.00  0.00    +0.000 C 
ATOM     13  NZ  LYS A   6      82.172  68.777  54.893  0.00  0.00    +0.000 NA
ATOM     14  N   LYS A   6      82.197  65.099  55.763  0.00  0.00    +0.000 NA
ATOM     15  C   TRP A   5      82.197  65.480  55.031  0.00  0.00    +0.000 C 
ATOM     16  O   TRP A   5      82.190  66.305  54.997  0.00  0.00    +0.000 OA
ATOM     17  CA  TRP A   5      82.203  65.039  54.334  0.00  0.00    +0.000 C 
ATOM     18  CB  TRP A   5      82.203  65.421  53.604  0.00  0.00    +0.000 C 
ATOM     19  CG  TRP A   5      82.196  66.245  53.569  0.00  0.00    +0.000 C 
ATOM     20  CD1 TRP A   5      82.190  66.757  54.216  0.00  0.00    +0.000 C 
ATOM     21  NE1 TRP A   5      82.185  67.531  53.928  0.00  0.00    +0.000 NA
ATOM     22  CE2 TRP A   5      82.188  67.496  53.104  0.00  0.00    +0.000 C 
ATOM     23  CD2 TRP A   5      82.195  66.701  52.882  0.00  0.00    +0.000 C 
ATOM     24  CE3 TRP A   5      82.200  66.496  52.083  0.00  0.00    +0.000 C 
ATOM     25  CZ3 TRP A   5      82.198  67.086  51.506  0.00  0.00    +0.000 C 
ATOM     26  CH2 TRP A   5      82.191  67.880  51.728  0.00  0.00    +0.000 C 
ATOM     27  CZ2 TRP A   5      82.186  68.086  52.527  0.00  0.00    +0.000 C 
ATOM     28  N   TRP A   5      82.209  64.214  54.369  0.00  0.00    +0.000 NA
ATOM     29  C   TYR A   4      82.215  63.772  53.673  0.00  0.00    +0.000 C 
ATOM     30  O   TYR A   4      82.215  64.155  52.942  0.00  0.00    +0.000 OA
ATOM     31  CA  TYR A   4      82.221  62.948  53.707  0.00  0.00    +0.000 C 
ATOM     32  CB  TYR A   4      82.227  62.505  53.011  0.00  0.00    +0.000 C 
ATOM     33  CG  TYR A   4      82.227  62.888  52.279  0.00  0.00    +0.000 A 
ATOM     34  CD1 TYR A   4      82.233  62.445  51.583  0.00  0.00    +0.000 A 
ATOM     35  CE1 TYR A   4      82.233  62.828  50.852  0.00  0.00    +0.000 A 
ATOM     36  CZ  TYR A   4      82.227  63.652  50.817  0.00  0.00    +0.000 A 
ATOM     37  OH  TYR A   4      82.227  64.035  50.086  0.00  0.00    +0.000 OA
ATOM     38  CE2 TYR A   4      82.221  64.095  51.514  0.00  0.00    +0.000 A 
ATOM     39  CD2 TYR A   4      82.221  63.712  52.245  0.00  0.00    +0.000 A 
ATOM     40  N   TYR A   4      82.221  62.565  54.438  0.00  0.00    +0.000 NA
ATOM     41  C   PHE A   3      82.228  61.741  54.472  0.00  0.00    +0.000 C 
ATOM     42  O   PHE A   3      82.234  61.299  53.776  0.00  0.00    +0.000 OA
ATOM     43  CA  PHE A   3      82.228  61.359  55.204  0.00  0.00    +0.000 C 
ATOM     44  CB  PHE A   3      82.234  60.535  55.238  0.00  0.00    +0.000 C 
ATOM     45  CG  PHE A   3      82.240  60.092  54.541  0.00  0.00    +0.000 A 
ATOM     46  CD1 PHE A   3      82.246  59.269  54.576  0.00  0.00    +0.000 A 
ATOM     47  CE1 PHE A   3      82.252  58.826  53.880  0.00  0.00    +0.000 A 
ATOM     48  CZ  PHE A   3      82.252  59.209  53.149  0.00  0.00    +0.000 A 
ATOM     49  CE2 PHE A   3      82.246  60.032  53.115  0.00  0.00    +0.000 A 
ATOM     50  CD2 PHE A   3      82.240  60.475  53.811  0.00  0.00    +0.000 A 
ATOM     51  N   PHE A   3      82.222  61.801  55.901  0.00  0.00    +0.000 N 
ATOM     52  C   ACE A   0      82.215  62.625  55.867  0.00  0.00    +0.000 C 
ATOM     53  C   UNK A   2      82.222  61.419  56.632  0.00  0.00    +0.000 C 
ATOM     54  O   UNK A   2      82.228  60.595  56.666  0.00  0.00    +0.000 OA
ATOM     55  C   UNK A   2      82.216  61.860  57.328  0.00  0.00    +0.000 C 
ATOM     56  C   UNK A   2      82.216  61.479  58.059  0.00  0.00    +0.000 C 
ATOM     57  C   UNK A   2      82.210  61.920  58.756  0.00  0.00    +0.000 C 
ATOM     58  S   UNK A   2      82.210  61.538  59.487  0.00  0.00    +0.000 S 
ATOM     59  C   UNK A   2      82.204  61.980  60.183  0.00  0.00    +0.000 C 
ATOM     60  C   UNK A   2      82.204  61.598  60.915  0.00  0.00    +0.000 C 
ATOM     61  O   UNK A   2      82.210  60.774  60.949  0.00  0.00    +0.000 OA
ATOM     62  N   UNK A   2      82.198  62.040  61.611  0.00  0.00    +0.000 NA
ATOM     63  C   UNK A   2      82.198  61.658  62.343  0.00  0.00    +0.000 C 
ATOM     64  C   UNK A   2      82.192  62.099  63.039  0.00  0.00    +0.000 C 
ATOM     65  N   UNK A   2      82.186  62.924  63.004  0.00  0.00    +0.000 NA
ATOM     66  C   UNK A   2      82.192  61.718  63.770  0.00  0.00    +0.000 C 
ATOM     67  O   UNK A   2      82.198  60.893  63.805  0.00  0.00    +0.000 OA
ATOM     68  N   UNK A   2      82.186  62.159  64.466  0.00  0.00    +0.000 NA
ATOM     69  C   UNK A   2      82.186  61.777  65.198  0.00  0.00    +0.000 C 
ATOM     70  C   UNK A   2      82.192  60.953  65.233  0.00  0.00    +0.000 C 
ATOM     71  C   UNK A   2      82.192  60.570  65.963  0.00  0.00    +0.000 C 
ATOM     72  C   UNK A   2      82.199  59.747  65.998  0.00  0.00    +0.000 C 
ATOM     73  C   UNK A   2      82.199  59.364  66.728  0.00  0.00    +0.000 C 
ATOM     74  N   UNK A   2      82.205  58.540  66.763  0.00  0.00    +0.000 NA
ATOM     75  C   UNK A   2      82.180  62.219  65.894  0.00  0.00    +0.000 C 
ATOM     76  O   UNK A   2      82.174  63.043  65.860  0.00  0.00    +0.000 OA
ATOM     77  N   UNK A   2      82.180  61.837  66.625  0.00  0.00    +0.000 NA
ATOM     78  C   UNK A   2      82.174  62.279  67.322  0.00  0.00    +0.000 C 
ATOM     79  C   UNK A   2      82.168  63.103  67.287  0.00  0.00    +0.000 C 
ATOM     80  S   UNK A   2      82.162  63.546  67.984  0.00  0.00    +0.000 S 
ATOM     81  C   UNK A   2      82.174  61.897  68.054  0.00  0.00    +0.000 C 
ATOM     82  O   UNK A   2      82.180  61.073  68.088  0.00  0.00    +0.000 OA
ATOM     83  N   UNK A   2      82.168  62.338  68.750  0.00  0.00    +0.000 NA
ATOM     84  C   UNK A   2      82.168  61.957  69.480  0.00  0.00    +0.000 C 
ATOM     85  C   UNK A   2      82.162  62.398  70.177  0.00  0.00    +0.000 C 
ATOM     86  C   UNK A   2      82.162  62.017  70.908  0.00  0.00    +0.000 C 
ATOM     87  C   UNK A   2      82.156  62.458  71.605  0.00  0.00    +0.000 C 
ATOM     88  C   UNK A   2      82.156  62.076  72.336  0.00  0.00    +0.000 C 
ATOM     89  N   UNK A   2      82.150  62.518  73.033  0.00  0.00    +0.000 NA
ATOM     90  C   UNK A   2      82.174  61.132  69.515  0.00  0.00    +0.000 C 
ATOM     91  N   UNK A   2      82.175  60.750  70.246  0.00  0.00    +0.000 NA
ATOM     92  O   UNK A   2      82.181  60.690  68.819  0.00  0.00    +0.000 OA
ATOM     93  N   UNK A   2      82.209  62.685  57.293  0.00  0.00    +0.000 NA
ATOM     94  C   VAL A   1      82.203  63.127  57.990  0.00  0.00    +0.000 C 
ATOM     95  O   VAL A   1      82.204  62.744  58.721  0.00  0.00    +0.000 OA
ENDROOT
TORSDOF 0
ENDMDL
