MODEL 1
REMARK VINA RESULT:   -14.098      0.000      0.000
REMARK INTER + INTRA:         -14.098
REMARK INTER:                 -14.098
REMARK INTRA:                   0.000
REMARK UNBOUND:                 0.000
ROOT
REMARK  Name = deptropine
REMARK                            x       y       z     vdW  Elec       q    Type
REMARK                         _______ _______ _______ _____ _____    ______ ____
ATOM      1  C   UNL     1      61.075  62.996  67.239  0.00  0.00    +0.000 C 
ATOM      2  N   UNL     1      60.992  63.368  67.971  0.00  0.00    +0.000 NA
ATOM      3  C   UNL     1      60.086  63.066  67.947  0.00  0.00    +0.000 C 
ATOM      4  C   UNL     1      60.285  63.497  68.622  0.00  0.00    +0.000 C 
ATOM      5  C   UNL     1      61.011  63.835  68.820  0.00  0.00    +0.000 C 
ATOM      6  C   UNL     1      61.717  63.826  68.391  0.00  0.00    +0.000 C 
ATOM      7  C   UNL     1      61.870  63.478  67.660  0.00  0.00    +0.000 C 
ATOM      8  C   UNL     1      61.356  63.051  67.175  0.00  0.00    +0.000 C 
ATOM      9  C   UNL     1      60.562  62.868  67.304  0.00  0.00    +0.000 C 
ATOM     10  O   UNL     1      61.679  62.771  66.470  0.00  0.00    +0.000 OA
ATOM     11  C   UNL     1      61.212  62.337  65.946  0.00  0.00    +0.000 C 
ATOM     12  C   UNL     1      60.430  62.216  66.180  0.00  0.00    +0.000 A 
ATOM     13  C   UNL     1      60.277  62.565  66.912  0.00  0.00    +0.000 A 
ATOM     14  C   UNL     1      59.525  62.507  67.246  0.00  0.00    +0.000 A 
ATOM     15  C   UNL     1      58.927  62.102  66.850  0.00  0.00    +0.000 A 
ATOM     16  C   UNL     1      59.080  61.753  66.118  0.00  0.00    +0.000 A 
ATOM     17  C   UNL     1      59.832  61.810  65.783  0.00  0.00    +0.000 A 
ATOM     18  C   UNL     1      59.868  61.425  65.054  0.00  0.00    +0.000 C 
ATOM     19  C   UNL     1      60.510  61.352  64.542  0.00  0.00    +0.000 C 
ATOM     20  C   UNL     1      61.276  61.644  64.633  0.00  0.00    +0.000 A 
ATOM     21  C   UNL     1      61.753  61.446  63.989  0.00  0.00    +0.000 A 
ATOM     22  C   UNL     1      62.541  61.687  63.970  0.00  0.00    +0.000 A 
ATOM     23  C   UNL     1      62.854  62.125  64.595  0.00  0.00    +0.000 A 
ATOM     24  C   UNL     1      62.377  62.324  65.239  0.00  0.00    +0.000 A 
ATOM     25  C   UNL     1      61.589  62.083  65.257  0.00  0.00    +0.000 A 
ENDROOT
TORSDOF 0
ENDMDL
MODEL 2
REMARK VINA RESULT:   -13.880      0.807      3.235
REMARK INTER + INTRA:         -13.880
REMARK INTER:                 -13.880
REMARK INTRA:                   0.000
REMARK UNBOUND:                 0.000
ROOT
REMARK  Name = deptropine
REMARK                            x       y       z     vdW  Elec       q    Type
REMARK                         _______ _______ _______ _____ _____    ______ ____
ATOM      1  C   UNL     1      61.584  62.257  65.631  0.00  0.00    +0.000 C 
ATOM      2  N   UNL     1      61.825  61.949  64.904  0.00  0.00    +0.000 NA
ATOM      3  C   UNL     1      60.924  61.645  64.810  0.00  0.00    +0.000 C 
ATOM      4  C   UNL     1      61.417  61.456  64.175  0.00  0.00    +0.000 C 
ATOM      5  C   UNL     1      62.217  61.632  64.077  0.00  0.00    +0.000 C 
ATOM      6  C   UNL     1      62.722  62.040  64.588  0.00  0.00    +0.000 C 
ATOM      7  C   UNL     1      62.550  62.371  65.323  0.00  0.00    +0.000 C 
ATOM      8  C   UNL     1      61.832  62.379  65.730  0.00  0.00    +0.000 C 
ATOM      9  C   UNL     1      61.109  62.055  65.501  0.00  0.00    +0.000 C 
ATOM     10  O   UNL     1      61.839  62.759  66.461  0.00  0.00    +0.000 OA
ATOM     11  C   UNL     1      61.149  62.797  66.913  0.00  0.00    +0.000 C 
ATOM     12  C   UNL     1      60.485  62.438  66.582  0.00  0.00    +0.000 A 
ATOM     13  C   UNL     1      60.656  62.106  65.847  0.00  0.00    +0.000 A 
ATOM     14  C   UNL     1      60.065  61.718  65.421  0.00  0.00    +0.000 A 
ATOM     15  C   UNL     1      59.303  61.663  65.731  0.00  0.00    +0.000 A 
ATOM     16  C   UNL     1      59.131  61.995  66.467  0.00  0.00    +0.000 A 
ATOM     17  C   UNL     1      59.722  62.382  66.892  0.00  0.00    +0.000 A 
ATOM     18  C   UNL     1      59.437  62.673  67.610  0.00  0.00    +0.000 C 
ATOM     19  C   UNL     1      59.842  63.090  68.194  0.00  0.00    +0.000 C 
ATOM     20  C   UNL     1      60.634  63.321  68.205  0.00  0.00    +0.000 A 
ATOM     21  C   UNL     1      60.819  63.731  68.897  0.00  0.00    +0.000 A 
ATOM     22  C   UNL     1      61.585  64.011  69.018  0.00  0.00    +0.000 A 
ATOM     23  C   UNL     1      62.167  63.881  68.449  0.00  0.00    +0.000 A 
ATOM     24  C   UNL     1      61.982  63.470  67.757  0.00  0.00    +0.000 A 
ATOM     25  C   UNL     1      61.216  63.191  67.636  0.00  0.00    +0.000 A 
ENDROOT
TORSDOF 0
ENDMDL
MODEL 3
REMARK VINA RESULT:   -13.240      2.462      5.090
REMARK INTER + INTRA:         -13.240
REMARK INTER:                 -13.240
REMARK INTRA:                   0.000
REMARK UNBOUND:                 0.000
ROOT
REMARK  Name = deptropine
REMARK                            x       y       z     vdW  Elec       q    Type
REMARK                         _______ _______ _______ _____ _____    ______ ____
ATOM      1  C   UNL     1      61.051  63.079  69.248  0.00  0.00    +0.000 C 
ATOM      2  N   UNL     1      60.832  62.798  68.504  0.00  0.00    +0.000 NA
ATOM      3  C   UNL     1      60.488  62.036  68.966  0.00  0.00    +0.000 C 
ATOM      4  C   UNL     1      60.393  62.011  68.146  0.00  0.00    +0.000 C 
ATOM      5  C   UNL     1      60.624  62.571  67.586  0.00  0.00    +0.000 C 
ATOM      6  C   UNL     1      61.006  63.293  67.706  0.00  0.00    +0.000 C 
ATOM      7  C   UNL     1      61.251  63.633  68.416  0.00  0.00    +0.000 C 
ATOM      8  C   UNL     1      61.176  63.336  69.182  0.00  0.00    +0.000 C 
ATOM      9  C   UNL     1      60.836  62.625  69.426  0.00  0.00    +0.000 C 
ATOM     10  O   UNL     1      61.480  63.812  69.782  0.00  0.00    +0.000 OA
ATOM     11  C   UNL     1      61.433  63.566  70.568  0.00  0.00    +0.000 C 
ATOM     12  C   UNL     1      61.071  62.835  70.693  0.00  0.00    +0.000 A 
ATOM     13  C   UNL     1      60.826  62.495  69.983  0.00  0.00    +0.000 A 
ATOM     14  C   UNL     1      60.450  61.761  69.986  0.00  0.00    +0.000 A 
ATOM     15  C   UNL     1      60.320  61.366  70.698  0.00  0.00    +0.000 A 
ATOM     16  C   UNL     1      60.565  61.707  71.408  0.00  0.00    +0.000 A 
ATOM     17  C   UNL     1      60.941  62.441  71.406  0.00  0.00    +0.000 A 
ATOM     18  C   UNL     1      61.141  62.681  72.170  0.00  0.00    +0.000 C 
ATOM     19  C   UNL     1      61.519  63.373  72.410  0.00  0.00    +0.000 C 
ATOM     20  C   UNL     1      61.792  63.998  71.944  0.00  0.00    +0.000 A 
ATOM     21  C   UNL     1      62.141  64.587  72.405  0.00  0.00    +0.000 A 
ATOM     22  C   UNL     1      62.450  65.262  72.046  0.00  0.00    +0.000 A 
ATOM     23  C   UNL     1      62.412  65.348  71.227  0.00  0.00    +0.000 A 
ATOM     24  C   UNL     1      62.063  64.758  70.766  0.00  0.00    +0.000 A 
ATOM     25  C   UNL     1      61.754  64.084  71.125  0.00  0.00    +0.000 A 
ENDROOT
TORSDOF 0
ENDMDL
MODEL 4
REMARK VINA RESULT:   -13.226      2.658      5.250
REMARK INTER + INTRA:         -13.226
REMARK INTER:                 -13.226
REMARK INTRA:                   0.000
REMARK UNBOUND:                 0.000
ROOT
REMARK  Name = deptropine
REMARK                            x       y       z     vdW  Elec       q    Type
REMARK                         _______ _______ _______ _____ _____    ______ ____
ATOM      1  C   UNL     1      60.620  62.723  69.470  0.00  0.00    +0.000 C 
ATOM      2  N   UNL     1      60.402  62.757  68.675  0.00  0.00    +0.000 NA
ATOM      3  C   UNL     1      60.110  63.647  68.862  0.00  0.00    +0.000 C 
ATOM      4  C   UNL     1      59.999  63.407  68.080  0.00  0.00    +0.000 C 
ATOM      5  C   UNL     1      60.187  62.682  67.734  0.00  0.00    +0.000 C 
ATOM      6  C   UNL     1      60.530  62.019  68.084  0.00  0.00    +0.000 C 
ATOM      7  C   UNL     1      60.772  61.916  68.865  0.00  0.00    +0.000 C 
ATOM      8  C   UNL     1      60.729  62.452  69.492  0.00  0.00    +0.000 C 
ATOM      9  C   UNL     1      60.435  63.222  69.489  0.00  0.00    +0.000 C 
ATOM     10  O   UNL     1      61.019  62.181  70.214  0.00  0.00    +0.000 OA
ATOM     11  C   UNL     1      61.003  62.674  70.876  0.00  0.00    +0.000 C 
ATOM     12  C   UNL     1      60.685  63.425  70.755  0.00  0.00    +0.000 A 
ATOM     13  C   UNL     1      60.443  63.528  69.973  0.00  0.00    +0.000 A 
ATOM     14  C   UNL     1      60.108  64.243  69.735  0.00  0.00    +0.000 A 
ATOM     15  C   UNL     1      60.015  64.856  70.279  0.00  0.00    +0.000 A 
ATOM     16  C   UNL     1      60.257  64.753  71.061  0.00  0.00    +0.000 A 
ATOM     17  C   UNL     1      60.591  64.038  71.299  0.00  0.00    +0.000 A 
ATOM     18  C   UNL     1      60.793  64.050  72.099  0.00  0.00    +0.000 C 
ATOM     19  C   UNL     1      61.138  63.453  72.552  0.00  0.00    +0.000 C 
ATOM     20  C   UNL     1      61.367  62.696  72.317  0.00  0.00    +0.000 A 
ATOM     21  C   UNL     1      61.692  62.271  72.945  0.00  0.00    +0.000 A 
ATOM     22  C   UNL     1      61.956  61.499  72.827  0.00  0.00    +0.000 A 
ATOM     23  C   UNL     1      61.895  61.151  72.082  0.00  0.00    +0.000 A 
ATOM     24  C   UNL     1      61.570  61.577  71.453  0.00  0.00    +0.000 A 
ATOM     25  C   UNL     1      61.306  62.349  71.572  0.00  0.00    +0.000 A 
ENDROOT
TORSDOF 0
ENDMDL
MODEL 5
REMARK VINA RESULT:   -13.214      2.876      4.946
REMARK INTER + INTRA:         -13.214
REMARK INTER:                 -13.214
REMARK INTRA:                   0.000
REMARK UNBOUND:                 0.000
ROOT
REMARK  Name = deptropine
REMARK                            x       y       z     vdW  Elec       q    Type
REMARK                         _______ _______ _______ _____ _____    ______ ____
ATOM      1  C   UNL     1      62.093  64.587  70.808  0.00  0.00    +0.000 C 
ATOM      2  N   UNL     1      62.485  65.256  71.089  0.00  0.00    +0.000 NA
ATOM      3  C   UNL     1      62.360  64.882  71.959  0.00  0.00    +0.000 C 
ATOM      4  C   UNL     1      62.756  65.606  71.951  0.00  0.00    +0.000 C 
ATOM      5  C   UNL     1      62.954  66.076  71.303  0.00  0.00    +0.000 C 
ATOM      6  C   UNL     1      62.806  65.938  70.503  0.00  0.00    +0.000 C 
ATOM      7  C   UNL     1      62.423  65.297  70.154  0.00  0.00    +0.000 C 
ATOM      8  C   UNL     1      62.093  64.634  70.518  0.00  0.00    +0.000 C 
ATOM      9  C   UNL     1      62.065  64.450  71.322  0.00  0.00    +0.000 C 
ATOM     10  O   UNL     1      61.745  64.083  70.013  0.00  0.00    +0.000 OA
ATOM     11  C   UNL     1      61.399  63.401  70.321  0.00  0.00    +0.000 C 
ATOM     12  C   UNL     1      61.431  63.323  71.141  0.00  0.00    +0.000 A 
ATOM     13  C   UNL     1      61.815  63.964  71.491  0.00  0.00    +0.000 A 
ATOM     14  C   UNL     1      61.906  63.994  72.310  0.00  0.00    +0.000 A 
ATOM     15  C   UNL     1      61.614  63.383  72.780  0.00  0.00    +0.000 A 
ATOM     16  C   UNL     1      61.231  62.741  72.431  0.00  0.00    +0.000 A 
ATOM     17  C   UNL     1      61.139  62.711  71.612  0.00  0.00    +0.000 A 
ATOM     18  C   UNL     1      60.743  62.027  71.377  0.00  0.00    +0.000 C 
ATOM     19  C   UNL     1      60.541  61.784  70.615  0.00  0.00    +0.000 C 
ATOM     20  C   UNL     1      60.685  62.167  69.899  0.00  0.00    +0.000 A 
ATOM     21  C   UNL     1      60.390  61.735  69.260  0.00  0.00    +0.000 A 
ATOM     22  C   UNL     1      60.478  62.022  68.493  0.00  0.00    +0.000 A 
ATOM     23  C   UNL     1      60.859  62.741  68.361  0.00  0.00    +0.000 A 
ATOM     24  C   UNL     1      61.154  63.173  68.999  0.00  0.00    +0.000 A 
ATOM     25  C   UNL     1      61.067  62.886  69.767  0.00  0.00    +0.000 A 
ENDROOT
TORSDOF 0
ENDMDL
MODEL 6
REMARK VINA RESULT:   -12.988      5.259      6.720
REMARK INTER + INTRA:         -12.988
REMARK INTER:                 -12.988
REMARK INTRA:                   0.000
REMARK UNBOUND:                 0.000
ROOT
REMARK  Name = deptropine
REMARK                            x       y       z     vdW  Elec       q    Type
REMARK                         _______ _______ _______ _____ _____    ______ ____
ATOM      1  C   UNL     1      63.622  65.153  70.677  0.00  0.00    +0.000 C 
ATOM      2  N   UNL     1      64.203  65.485  70.196  0.00  0.00    +0.000 NA
ATOM      3  C   UNL     1      64.140  66.252  70.762  0.00  0.00    +0.000 C 
ATOM      4  C   UNL     1      64.690  66.323  70.151  0.00  0.00    +0.000 C 
ATOM      5  C   UNL     1      64.883  65.772  69.568  0.00  0.00    +0.000 C 
ATOM      6  C   UNL     1      64.574  65.015  69.452  0.00  0.00    +0.000 C 
ATOM      7  C   UNL     1      63.997  64.623  69.890  0.00  0.00    +0.000 C 
ATOM      8  C   UNL     1      63.584  64.889  70.554  0.00  0.00    +0.000 C 
ATOM      9  C   UNL     1      63.649  65.614  70.941  0.00  0.00    +0.000 C 
ATOM     10  O   UNL     1      63.036  64.361  70.870  0.00  0.00    +0.000 OA
ATOM     11  C   UNL     1      62.595  64.573  71.534  0.00  0.00    +0.000 C 
ATOM     12  C   UNL     1      62.744  65.325  71.837  0.00  0.00    +0.000 A 
ATOM     13  C   UNL     1      63.321  65.718  71.399  0.00  0.00    +0.000 A 
ATOM     14  C   UNL     1      63.553  66.481  71.611  0.00  0.00    +0.000 A 
ATOM     15  C   UNL     1      63.207  66.851  72.261  0.00  0.00    +0.000 A 
ATOM     16  C   UNL     1      62.629  66.458  72.700  0.00  0.00    +0.000 A 
ATOM     17  C   UNL     1      62.398  65.696  72.488  0.00  0.00    +0.000 A 
ATOM     18  C   UNL     1      61.816  65.404  72.996  0.00  0.00    +0.000 C 
ATOM     19  C   UNL     1      61.438  64.671  72.979  0.00  0.00    +0.000 C 
ATOM     20  C   UNL     1      61.547  64.049  72.449  0.00  0.00    +0.000 A 
ATOM     21  C   UNL     1      61.055  63.410  72.628  0.00  0.00    +0.000 A 
ATOM     22  C   UNL     1      61.079  62.729  72.164  0.00  0.00    +0.000 A 
ATOM     23  C   UNL     1      61.593  62.685  71.521  0.00  0.00    +0.000 A 
ATOM     24  C   UNL     1      62.085  63.323  71.342  0.00  0.00    +0.000 A 
ATOM     25  C   UNL     1      62.062  64.004  71.806  0.00  0.00    +0.000 A 
ENDROOT
TORSDOF 0
ENDMDL
MODEL 7
REMARK VINA RESULT:   -12.953      5.158      6.358
REMARK INTER + INTRA:         -12.953
REMARK INTER:                 -12.953
REMARK INTRA:                   0.000
REMARK UNBOUND:                 0.000
ROOT
REMARK  Name = deptropine
REMARK                            x       y       z     vdW  Elec       q    Type
REMARK                         _______ _______ _______ _____ _____    ______ ____
ATOM      1  C   UNL     1      62.198  63.984  71.568  0.00  0.00    +0.000 C 
ATOM      2  N   UNL     1      61.663  63.418  71.840  0.00  0.00    +0.000 NA
ATOM      3  C   UNL     1      61.441  64.051  72.521  0.00  0.00    +0.000 C 
ATOM      4  C   UNL     1      61.021  63.342  72.563  0.00  0.00    +0.000 C 
ATOM      5  C   UNL     1      61.074  62.684  72.069  0.00  0.00    +0.000 C 
ATOM      6  C   UNL     1      61.560  62.571  71.411  0.00  0.00    +0.000 C 
ATOM      7  C   UNL     1      62.112  63.090  71.086  0.00  0.00    +0.000 C 
ATOM      8  C   UNL     1      62.317  63.849  71.336  0.00  0.00    +0.000 C 
ATOM      9  C   UNL     1      62.017  64.276  71.975  0.00  0.00    +0.000 C 
ATOM     10  O   UNL     1      62.895  64.230  70.889  0.00  0.00    +0.000 OA
ATOM     11  C   UNL     1      63.139  64.991  71.094  0.00  0.00    +0.000 C 
ATOM     12  C   UNL     1      62.770  65.321  71.753  0.00  0.00    +0.000 A 
ATOM     13  C   UNL     1      62.217  64.802  72.080  0.00  0.00    +0.000 A 
ATOM     14  C   UNL     1      61.785  65.026  72.745  0.00  0.00    +0.000 A 
ATOM     15  C   UNL     1      61.905  65.767  73.086  0.00  0.00    +0.000 A 
ATOM     16  C   UNL     1      62.458  66.285  72.760  0.00  0.00    +0.000 A 
ATOM     17  C   UNL     1      62.890  66.062  72.094  0.00  0.00    +0.000 A 
ATOM     18  C   UNL     1      63.410  66.658  71.858  0.00  0.00    +0.000 C 
ATOM     19  C   UNL     1      63.938  66.659  71.224  0.00  0.00    +0.000 C 
ATOM     20  C   UNL     1      64.076  66.064  70.669  0.00  0.00    +0.000 A 
ATOM     21  C   UNL     1      64.653  66.289  70.123  0.00  0.00    +0.000 A 
ATOM     22  C   UNL     1      64.873  65.772  69.520  0.00  0.00    +0.000 A 
ATOM     23  C   UNL     1      64.518  65.030  69.461  0.00  0.00    +0.000 A 
ATOM     24  C   UNL     1      63.942  64.805  70.007  0.00  0.00    +0.000 A 
ATOM     25  C   UNL     1      63.721  65.322  70.611  0.00  0.00    +0.000 A 
ENDROOT
TORSDOF 0
ENDMDL
MODEL 8
REMARK VINA RESULT:   -12.927      2.521      4.457
REMARK INTER + INTRA:         -12.927
REMARK INTER:                 -12.927
REMARK INTRA:                   0.000
REMARK UNBOUND:                 0.000
ROOT
REMARK  Name = deptropine
REMARK                            x       y       z     vdW  Elec       q    Type
REMARK                         _______ _______ _______ _____ _____    ______ ____
ATOM      1  C   UNL     1      59.847  65.116  70.079  0.00  0.00    +0.000 C 
ATOM      2  N   UNL     1      59.675  65.880  70.338  0.00  0.00    +0.000 NA
ATOM      3  C   UNL     1      59.729  65.521  71.222  0.00  0.00    +0.000 C 
ATOM      4  C   UNL     1      59.557  66.327  71.190  0.00  0.00    +0.000 C 
ATOM      5  C   UNL     1      59.471  66.808  70.525  0.00  0.00    +0.000 C 
ATOM      6  C   UNL     1      59.536  66.602  69.728  0.00  0.00    +0.000 C 
ATOM      7  C   UNL     1      59.704  65.864  69.401  0.00  0.00    +0.000 C 
ATOM      8  C   UNL     1      59.847  65.149  69.787  0.00  0.00    +0.000 C 
ATOM      9  C   UNL     1      59.858  64.997  70.598  0.00  0.00    +0.000 C 
ATOM     10  O   UNL     1      59.999  64.503  69.299  0.00  0.00    +0.000 OA
ATOM     11  C   UNL     1      60.149  63.762  69.630  0.00  0.00    +0.000 C 
ATOM     12  C   UNL     1      60.135  63.729  70.454  0.00  0.00    +0.000 A 
ATOM     13  C   UNL     1      59.967  64.467  70.783  0.00  0.00    +0.000 A 
ATOM     14  C   UNL     1      59.927  64.554  71.602  0.00  0.00    +0.000 A 
ATOM     15  C   UNL     1      60.054  63.904  72.093  0.00  0.00    +0.000 A 
ATOM     16  C   UNL     1      60.221  63.166  71.764  0.00  0.00    +0.000 A 
ATOM     17  C   UNL     1      60.261  63.079  70.945  0.00  0.00    +0.000 A 
ATOM     18  C   UNL     1      60.435  62.300  70.733  0.00  0.00    +0.000 C 
ATOM     19  C   UNL     1      60.523  61.980  69.977  0.00  0.00    +0.000 C 
ATOM     20  C   UNL     1      60.461  62.360  69.248  0.00  0.00    +0.000 A 
ATOM     21  C   UNL     1      60.590  61.836  68.623  0.00  0.00    +0.000 A 
ATOM     22  C   UNL     1      60.553  62.105  67.845  0.00  0.00    +0.000 A 
ATOM     23  C   UNL     1      60.387  62.898  67.690  0.00  0.00    +0.000 A 
ATOM     24  C   UNL     1      60.258  63.422  68.314  0.00  0.00    +0.000 A 
ATOM     25  C   UNL     1      60.295  63.152  69.093  0.00  0.00    +0.000 A 
ENDROOT
TORSDOF 0
ENDMDL
MODEL 9
REMARK VINA RESULT:   -12.775      4.908      6.603
REMARK INTER + INTRA:         -12.775
REMARK INTER:                 -12.775
REMARK INTRA:                   0.000
REMARK UNBOUND:                 0.000
ROOT
REMARK  Name = deptropine
REMARK                            x       y       z     vdW  Elec       q    Type
REMARK                         _______ _______ _______ _____ _____    ______ ____
ATOM      1  C   UNL     1      62.725  65.538  71.829  0.00  0.00    +0.000 C 
ATOM      2  N   UNL     1      62.078  65.262  72.260  0.00  0.00    +0.000 NA
ATOM      3  C   UNL     1      61.990  64.601  71.576  0.00  0.00    +0.000 C 
ATOM      4  C   UNL     1      61.427  64.549  72.177  0.00  0.00    +0.000 C 
ATOM      5  C   UNL     1      61.343  65.026  72.844  0.00  0.00    +0.000 C 
ATOM      6  C   UNL     1      61.801  65.672  73.076  0.00  0.00    +0.000 C 
ATOM      7  C   UNL     1      62.455  66.000  72.697  0.00  0.00    +0.000 C 
ATOM      8  C   UNL     1      62.815  65.765  71.993  0.00  0.00    +0.000 C 
ATOM      9  C   UNL     1      62.607  65.141  71.494  0.00  0.00    +0.000 C 
ATOM     10  O   UNL     1      63.467  66.210  71.757  0.00  0.00    +0.000 OA
ATOM     11  C   UNL     1      63.866  66.020  71.061  0.00  0.00    +0.000 C 
ATOM     12  C   UNL     1      63.569  65.375  70.642  0.00  0.00    +0.000 A 
ATOM     13  C   UNL     1      62.913  65.046  71.020  0.00  0.00    +0.000 A 
ATOM     14  C   UNL     1      62.531  64.394  70.692  0.00  0.00    +0.000 A 
ATOM     15  C   UNL     1      62.804  64.069  69.984  0.00  0.00    +0.000 A 
ATOM     16  C   UNL     1      63.459  64.398  69.605  0.00  0.00    +0.000 A 
ATOM     17  C   UNL     1      63.841  65.051  69.934  0.00  0.00    +0.000 A 
ATOM     18  C   UNL     1      64.480  65.292  69.471  0.00  0.00    +0.000 C 
ATOM     19  C   UNL     1      65.003  65.917  69.600  0.00  0.00    +0.000 C 
ATOM     20  C   UNL     1      65.017  66.455  70.225  0.00  0.00    +0.000 A 
ATOM     21  C   UNL     1      65.635  66.996  70.144  0.00  0.00    +0.000 A 
ATOM     22  C   UNL     1      65.746  67.583  70.712  0.00  0.00    +0.000 A 
ATOM     23  C   UNL     1      65.241  67.629  71.362  0.00  0.00    +0.000 A 
ATOM     24  C   UNL     1      64.623  67.088  71.444  0.00  0.00    +0.000 A 
ATOM     25  C   UNL     1      64.511  66.501  70.875  0.00  0.00    +0.000 A 
ENDROOT
TORSDOF 0
ENDMDL
