MODEL 1
REMARK VINA RESULT:   -13.913      0.000      0.000
REMARK INTER + INTRA:         -13.913
REMARK INTER:                 -13.913
REMARK INTRA:                   0.000
REMARK UNBOUND:                 0.000
ROOT
REMARK  Name = desaspidin
REMARK                            x       y       z     vdW  Elec       q    Type
REMARK                         _______ _______ _______ _____ _____    ______ ____
ATOM      1  C   UNL     1      63.503  69.467  73.222  0.00  0.00    +0.000 C 
ATOM      2  C   UNL     1      63.063  68.784  73.080  0.00  0.00    +0.000 C 
ATOM      3  C   UNL     1      63.386  68.171  72.632  0.00  0.00    +0.000 C 
ATOM      4  C   UNL     1      62.945  67.488  72.491  0.00  0.00    +0.000 C 
ATOM      5  O   UNL     1      62.183  67.417  72.798  0.00  0.00    +0.000 OA
ATOM      6  C   UNL     1      63.268  66.874  72.043  0.00  0.00    +0.000 A 
ATOM      7  C   UNL     1      62.827  66.191  71.902  0.00  0.00    +0.000 A 
ATOM      8  O   UNL     1      62.064  66.120  72.208  0.00  0.00    +0.000 OA
ATOM      9  C   UNL     1      63.150  65.578  71.453  0.00  0.00    +0.000 A 
ATOM     10  C   UNL     1      62.709  64.894  71.312  0.00  0.00    +0.000 C 
ATOM     11  C   UNL     1      61.947  64.825  71.619  0.00  0.00    +0.000 C 
ATOM     12  C   UNL     1      61.624  65.438  72.067  0.00  0.00    +0.000 C 
ATOM     13  O   UNL     1      61.613  66.175  72.437  0.00  0.00    +0.000 OA
ATOM     14  C   UNL     1      60.862  65.367  72.373  0.00  0.00    +0.000 C 
ATOM     15  C   UNL     1      60.168  65.557  72.778  0.00  0.00    +0.000 C 
ATOM     16  C   UNL     1      61.061  66.117  72.655  0.00  0.00    +0.000 C 
ATOM     17  C   UNL     1      60.421  64.684  72.232  0.00  0.00    +0.000 C 
ATOM     18  O   UNL     1      59.659  64.614  72.538  0.00  0.00    +0.000 OA
ATOM     19  C   UNL     1      60.744  64.071  71.784  0.00  0.00    +0.000 C 
ATOM     20  C   UNL     1      60.304  63.388  71.642  0.00  0.00    +0.000 C 
ATOM     21  O   UNL     1      59.541  63.318  71.949  0.00  0.00    +0.000 OA
ATOM     22  C   UNL     1      60.626  62.775  71.195  0.00  0.00    +0.000 C 
ATOM     23  C   UNL     1      60.186  62.092  71.053  0.00  0.00    +0.000 C 
ATOM     24  C   UNL     1      60.508  61.478  70.605  0.00  0.00    +0.000 C 
ATOM     25  C   UNL     1      61.507  64.141  71.477  0.00  0.00    +0.000 C 
ATOM     26  O   UNL     1      61.829  63.529  71.029  0.00  0.00    +0.000 OA
ATOM     27  C   UNL     1      63.913  65.648  71.147  0.00  0.00    +0.000 A 
ATOM     28  O   UNL     1      64.235  65.036  70.699  0.00  0.00    +0.000 OA
ATOM     29  C   UNL     1      64.998  65.105  70.392  0.00  0.00    +0.000 C 
ATOM     30  C   UNL     1      64.353  66.331  71.288  0.00  0.00    +0.000 A 
ATOM     31  C   UNL     1      64.030  66.944  71.736  0.00  0.00    +0.000 A 
ATOM     32  O   UNL     1      64.470  67.627  71.877  0.00  0.00    +0.000 OA
ENDROOT
TORSDOF 0
ENDMDL
MODEL 2
REMARK VINA RESULT:   -13.797      1.085      4.304
REMARK INTER + INTRA:         -13.797
REMARK INTER:                 -13.797
REMARK INTRA:                   0.000
REMARK UNBOUND:                 0.000
ROOT
REMARK  Name = desaspidin
REMARK                            x       y       z     vdW  Elec       q    Type
REMARK                         _______ _______ _______ _____ _____    ______ ____
ATOM      1  C   UNL     1      57.332  65.561  73.222  0.00  0.00    +0.000 C 
ATOM      2  C   UNL     1      58.103  65.840  73.132  0.00  0.00    +0.000 C 
ATOM      3  C   UNL     1      58.671  65.371  72.761  0.00  0.00    +0.000 C 
ATOM      4  C   UNL     1      59.442  65.650  72.671  0.00  0.00    +0.000 C 
ATOM      5  O   UNL     1      59.645  66.399  72.952  0.00  0.00    +0.000 OA
ATOM      6  C   UNL     1      60.011  65.180  72.300  0.00  0.00    +0.000 A 
ATOM      7  C   UNL     1      60.782  65.461  72.210  0.00  0.00    +0.000 A 
ATOM      8  O   UNL     1      60.985  66.210  72.491  0.00  0.00    +0.000 OA
ATOM      9  C   UNL     1      61.350  64.991  71.839  0.00  0.00    +0.000 A 
ATOM     10  C   UNL     1      62.121  65.271  71.749  0.00  0.00    +0.000 C 
ATOM     11  C   UNL     1      62.323  66.020  72.030  0.00  0.00    +0.000 C 
ATOM     12  C   UNL     1      61.755  66.489  72.401  0.00  0.00    +0.000 C 
ATOM     13  O   UNL     1      61.007  66.676  72.695  0.00  0.00    +0.000 OA
ATOM     14  C   UNL     1      61.958  67.237  72.682  0.00  0.00    +0.000 C 
ATOM     15  C   UNL     1      61.884  67.979  73.037  0.00  0.00    +0.000 C 
ATOM     16  C   UNL     1      61.161  67.215  72.895  0.00  0.00    +0.000 C 
ATOM     17  C   UNL     1      62.729  67.517  72.592  0.00  0.00    +0.000 C 
ATOM     18  O   UNL     1      62.932  68.266  72.873  0.00  0.00    +0.000 OA
ATOM     19  C   UNL     1      63.297  67.048  72.221  0.00  0.00    +0.000 C 
ATOM     20  C   UNL     1      64.068  67.327  72.131  0.00  0.00    +0.000 C 
ATOM     21  O   UNL     1      64.271  68.077  72.412  0.00  0.00    +0.000 OA
ATOM     22  C   UNL     1      64.636  66.859  71.760  0.00  0.00    +0.000 C 
ATOM     23  C   UNL     1      65.407  67.138  71.670  0.00  0.00    +0.000 C 
ATOM     24  C   UNL     1      65.976  66.669  71.299  0.00  0.00    +0.000 C 
ATOM     25  C   UNL     1      63.094  66.299  71.940  0.00  0.00    +0.000 C 
ATOM     26  O   UNL     1      63.662  65.830  71.570  0.00  0.00    +0.000 OA
ATOM     27  C   UNL     1      61.147  64.242  71.558  0.00  0.00    +0.000 A 
ATOM     28  O   UNL     1      61.715  63.773  71.188  0.00  0.00    +0.000 OA
ATOM     29  C   UNL     1      61.513  63.025  70.907  0.00  0.00    +0.000 C 
ATOM     30  C   UNL     1      60.376  63.963  71.649  0.00  0.00    +0.000 A 
ATOM     31  C   UNL     1      59.808  64.432  72.019  0.00  0.00    +0.000 A 
ATOM     32  O   UNL     1      59.038  64.153  72.109  0.00  0.00    +0.000 OA
ENDROOT
TORSDOF 0
ENDMDL
MODEL 3
REMARK VINA RESULT:   -13.507      3.289      5.240
REMARK INTER + INTRA:         -13.507
REMARK INTER:                 -13.507
REMARK INTRA:                   0.000
REMARK UNBOUND:                 0.000
ROOT
REMARK  Name = desaspidin
REMARK                            x       y       z     vdW  Elec       q    Type
REMARK                         _______ _______ _______ _____ _____    ______ ____
ATOM      1  C   UNL     1      61.605  62.268  66.086  0.00  0.00    +0.000 C 
ATOM      2  C   UNL     1      61.335  62.834  66.622  0.00  0.00    +0.000 C 
ATOM      3  C   UNL     1      61.149  62.616  67.395  0.00  0.00    +0.000 C 
ATOM      4  C   UNL     1      60.880  63.183  67.930  0.00  0.00    +0.000 C 
ATOM      5  O   UNL     1      60.795  63.968  67.692  0.00  0.00    +0.000 OA
ATOM      6  C   UNL     1      60.693  62.964  68.704  0.00  0.00    +0.000 A 
ATOM      7  C   UNL     1      60.423  63.532  69.239  0.00  0.00    +0.000 A 
ATOM      8  O   UNL     1      60.339  64.318  69.001  0.00  0.00    +0.000 OA
ATOM      9  C   UNL     1      60.238  63.314  70.012  0.00  0.00    +0.000 A 
ATOM     10  C   UNL     1      59.967  63.881  70.548  0.00  0.00    +0.000 C 
ATOM     11  C   UNL     1      59.884  64.666  70.309  0.00  0.00    +0.000 C 
ATOM     12  C   UNL     1      60.070  64.885  69.535  0.00  0.00    +0.000 C 
ATOM     13  O   UNL     1      60.323  64.766  68.758  0.00  0.00    +0.000 OA
ATOM     14  C   UNL     1      59.986  65.669  69.297  0.00  0.00    +0.000 C 
ATOM     15  C   UNL     1      59.997  66.339  68.814  0.00  0.00    +0.000 C 
ATOM     16  C   UNL     1      60.259  65.335  68.594  0.00  0.00    +0.000 C 
ATOM     17  C   UNL     1      59.716  66.237  69.832  0.00  0.00    +0.000 C 
ATOM     18  O   UNL     1      59.632  67.022  69.593  0.00  0.00    +0.000 OA
ATOM     19  C   UNL     1      59.530  66.019  70.605  0.00  0.00    +0.000 C 
ATOM     20  C   UNL     1      59.260  66.585  71.140  0.00  0.00    +0.000 C 
ATOM     21  O   UNL     1      59.176  67.371  70.901  0.00  0.00    +0.000 OA
ATOM     22  C   UNL     1      59.074  66.367  71.913  0.00  0.00    +0.000 C 
ATOM     23  C   UNL     1      58.804  66.935  72.449  0.00  0.00    +0.000 C 
ATOM     24  C   UNL     1      58.618  66.717  73.222  0.00  0.00    +0.000 C 
ATOM     25  C   UNL     1      59.614  65.233  70.844  0.00  0.00    +0.000 C 
ATOM     26  O   UNL     1      59.428  65.015  71.617  0.00  0.00    +0.000 OA
ATOM     27  C   UNL     1      60.321  62.528  70.251  0.00  0.00    +0.000 A 
ATOM     28  O   UNL     1      60.136  62.310  71.024  0.00  0.00    +0.000 OA
ATOM     29  C   UNL     1      60.219  61.525  71.263  0.00  0.00    +0.000 C 
ATOM     30  C   UNL     1      60.591  61.962  69.716  0.00  0.00    +0.000 A 
ATOM     31  C   UNL     1      60.777  62.180  68.943  0.00  0.00    +0.000 A 
ATOM     32  O   UNL     1      61.047  61.613  68.408  0.00  0.00    +0.000 OA
ENDROOT
TORSDOF 0
ENDMDL
MODEL 4
REMARK VINA RESULT:   -13.388      3.441      4.935
REMARK INTER + INTRA:         -13.388
REMARK INTER:                 -13.388
REMARK INTRA:                   0.000
REMARK UNBOUND:                 0.000
ROOT
REMARK  Name = desaspidin
REMARK                            x       y       z     vdW  Elec       q    Type
REMARK                         _______ _______ _______ _____ _____    ______ ____
ATOM      1  C   UNL     1      59.384  64.626  72.295  0.00  0.00    +0.000 C 
ATOM      2  C   UNL     1      59.499  64.331  71.533  0.00  0.00    +0.000 C 
ATOM      3  C   UNL     1      60.241  64.385  71.178  0.00  0.00    +0.000 C 
ATOM      4  C   UNL     1      60.356  64.091  70.416  0.00  0.00    +0.000 C 
ATOM      5  O   UNL     1      59.728  63.741  70.010  0.00  0.00    +0.000 OA
ATOM      6  C   UNL     1      61.099  64.145  70.060  0.00  0.00    +0.000 A 
ATOM      7  C   UNL     1      61.213  63.849  69.298  0.00  0.00    +0.000 A 
ATOM      8  O   UNL     1      60.586  63.500  68.891  0.00  0.00    +0.000 OA
ATOM      9  C   UNL     1      61.956  63.903  68.942  0.00  0.00    +0.000 A 
ATOM     10  C   UNL     1      62.071  63.608  68.180  0.00  0.00    +0.000 C 
ATOM     11  C   UNL     1      61.443  63.259  67.774  0.00  0.00    +0.000 C 
ATOM     12  C   UNL     1      60.700  63.205  68.130  0.00  0.00    +0.000 C 
ATOM     13  O   UNL     1      60.142  63.307  68.730  0.00  0.00    +0.000 OA
ATOM     14  C   UNL     1      60.073  62.856  67.724  0.00  0.00    +0.000 C 
ATOM     15  C   UNL     1      59.314  62.575  67.563  0.00  0.00    +0.000 C 
ATOM     16  C   UNL     1      59.695  63.054  68.430  0.00  0.00    +0.000 C 
ATOM     17  C   UNL     1      60.187  62.561  66.962  0.00  0.00    +0.000 C 
ATOM     18  O   UNL     1      59.560  62.212  66.556  0.00  0.00    +0.000 OA
ATOM     19  C   UNL     1      60.930  62.615  66.606  0.00  0.00    +0.000 C 
ATOM     20  C   UNL     1      61.045  62.320  65.845  0.00  0.00    +0.000 C 
ATOM     21  O   UNL     1      60.417  61.970  65.439  0.00  0.00    +0.000 OA
ATOM     22  C   UNL     1      61.787  62.374  65.489  0.00  0.00    +0.000 C 
ATOM     23  C   UNL     1      61.902  62.078  64.727  0.00  0.00    +0.000 C 
ATOM     24  C   UNL     1      62.644  62.133  64.371  0.00  0.00    +0.000 C 
ATOM     25  C   UNL     1      61.558  62.964  67.013  0.00  0.00    +0.000 C 
ATOM     26  O   UNL     1      62.300  63.018  66.657  0.00  0.00    +0.000 OA
ATOM     27  C   UNL     1      62.584  64.253  69.348  0.00  0.00    +0.000 A 
ATOM     28  O   UNL     1      63.325  64.307  68.993  0.00  0.00    +0.000 OA
ATOM     29  C   UNL     1      63.953  64.656  69.398  0.00  0.00    +0.000 C 
ATOM     30  C   UNL     1      62.468  64.548  70.110  0.00  0.00    +0.000 A 
ATOM     31  C   UNL     1      61.726  64.493  70.466  0.00  0.00    +0.000 A 
ATOM     32  O   UNL     1      61.612  64.788  71.227  0.00  0.00    +0.000 OA
ENDROOT
TORSDOF 0
ENDMDL
MODEL 5
REMARK VINA RESULT:   -12.743      1.646      3.154
REMARK INTER + INTRA:         -12.743
REMARK INTER:                 -12.743
REMARK INTRA:                   0.000
REMARK UNBOUND:                 0.000
ROOT
REMARK  Name = desaspidin
REMARK                            x       y       z     vdW  Elec       q    Type
REMARK                         _______ _______ _______ _____ _____    ______ ____
ATOM      1  C   UNL     1      62.650  68.674  73.222  0.00  0.00    +0.000 C 
ATOM      2  C   UNL     1      62.577  68.066  72.670  0.00  0.00    +0.000 C 
ATOM      3  C   UNL     1      61.894  67.604  72.651  0.00  0.00    +0.000 C 
ATOM      4  C   UNL     1      61.823  66.996  72.098  0.00  0.00    +0.000 C 
ATOM      5  O   UNL     1      62.434  66.850  71.564  0.00  0.00    +0.000 OA
ATOM      6  C   UNL     1      61.139  66.534  72.079  0.00  0.00    +0.000 A 
ATOM      7  C   UNL     1      61.068  65.926  71.526  0.00  0.00    +0.000 A 
ATOM      8  O   UNL     1      61.679  65.779  70.991  0.00  0.00    +0.000 OA
ATOM      9  C   UNL     1      60.385  65.463  71.507  0.00  0.00    +0.000 A 
ATOM     10  C   UNL     1      60.313  64.855  70.954  0.00  0.00    +0.000 C 
ATOM     11  C   UNL     1      60.924  64.710  70.420  0.00  0.00    +0.000 C 
ATOM     12  C   UNL     1      61.608  65.172  70.439  0.00  0.00    +0.000 C 
ATOM     13  O   UNL     1      62.105  65.771  70.712  0.00  0.00    +0.000 OA
ATOM     14  C   UNL     1      62.219  65.026  69.905  0.00  0.00    +0.000 C 
ATOM     15  C   UNL     1      62.942  65.100  69.515  0.00  0.00    +0.000 C 
ATOM     16  C   UNL     1      62.542  65.659  70.322  0.00  0.00    +0.000 C 
ATOM     17  C   UNL     1      62.148  64.418  69.351  0.00  0.00    +0.000 C 
ATOM     18  O   UNL     1      62.758  64.272  68.818  0.00  0.00    +0.000 OA
ATOM     19  C   UNL     1      61.464  63.956  69.333  0.00  0.00    +0.000 C 
ATOM     20  C   UNL     1      61.392  63.348  68.780  0.00  0.00    +0.000 C 
ATOM     21  O   UNL     1      62.004  63.202  68.245  0.00  0.00    +0.000 OA
ATOM     22  C   UNL     1      60.710  62.886  68.761  0.00  0.00    +0.000 C 
ATOM     23  C   UNL     1      60.638  62.277  68.208  0.00  0.00    +0.000 C 
ATOM     24  C   UNL     1      59.955  61.815  68.189  0.00  0.00    +0.000 C 
ATOM     25  C   UNL     1      60.852  64.102  69.867  0.00  0.00    +0.000 C 
ATOM     26  O   UNL     1      60.170  63.640  69.848  0.00  0.00    +0.000 OA
ATOM     27  C   UNL     1      59.772  65.609  72.042  0.00  0.00    +0.000 A 
ATOM     28  O   UNL     1      59.090  65.148  72.023  0.00  0.00    +0.000 OA
ATOM     29  C   UNL     1      58.478  65.293  72.557  0.00  0.00    +0.000 C 
ATOM     30  C   UNL     1      59.845  66.217  72.594  0.00  0.00    +0.000 A 
ATOM     31  C   UNL     1      60.528  66.679  72.613  0.00  0.00    +0.000 A 
ATOM     32  O   UNL     1      60.599  67.287  73.166  0.00  0.00    +0.000 OA
ENDROOT
TORSDOF 0
ENDMDL
MODEL 6
REMARK VINA RESULT:   -12.734      2.240      2.544
REMARK INTER + INTRA:         -12.734
REMARK INTER:                 -12.734
REMARK INTRA:                   0.000
REMARK UNBOUND:                 0.000
ROOT
REMARK  Name = desaspidin
REMARK                            x       y       z     vdW  Elec       q    Type
REMARK                         _______ _______ _______ _____ _____    ______ ____
ATOM      1  C   UNL     1      62.048  67.950  73.190  0.00  0.00    +0.000 C 
ATOM      2  C   UNL     1      61.795  67.449  72.586  0.00  0.00    +0.000 C 
ATOM      3  C   UNL     1      62.338  66.966  72.196  0.00  0.00    +0.000 C 
ATOM      4  C   UNL     1      62.085  66.465  71.593  0.00  0.00    +0.000 C 
ATOM      5  O   UNL     1      61.288  66.445  71.378  0.00  0.00    +0.000 OA
ATOM      6  C   UNL     1      62.629  65.981  71.202  0.00  0.00    +0.000 A 
ATOM      7  C   UNL     1      62.375  65.480  70.598  0.00  0.00    +0.000 A 
ATOM      8  O   UNL     1      61.578  65.461  70.383  0.00  0.00    +0.000 OA
ATOM      9  C   UNL     1      62.918  64.997  70.207  0.00  0.00    +0.000 A 
ATOM     10  C   UNL     1      62.664  64.495  69.603  0.00  0.00    +0.000 C 
ATOM     11  C   UNL     1      61.868  64.477  69.390  0.00  0.00    +0.000 C 
ATOM     12  C   UNL     1      61.324  64.959  69.780  0.00  0.00    +0.000 C 
ATOM     13  O   UNL     1      61.075  65.523  70.329  0.00  0.00    +0.000 OA
ATOM     14  C   UNL     1      60.528  64.940  69.566  0.00  0.00    +0.000 C 
ATOM     15  C   UNL     1      59.722  65.117  69.562  0.00  0.00    +0.000 C 
ATOM     16  C   UNL     1      60.502  65.503  70.169  0.00  0.00    +0.000 C 
ATOM     17  C   UNL     1      60.274  64.439  68.962  0.00  0.00    +0.000 C 
ATOM     18  O   UNL     1      59.478  64.420  68.749  0.00  0.00    +0.000 OA
ATOM     19  C   UNL     1      60.818  63.956  68.572  0.00  0.00    +0.000 C 
ATOM     20  C   UNL     1      60.565  63.454  67.968  0.00  0.00    +0.000 C 
ATOM     21  O   UNL     1      59.767  63.436  67.754  0.00  0.00    +0.000 OA
ATOM     22  C   UNL     1      61.107  62.972  67.578  0.00  0.00    +0.000 C 
ATOM     23  C   UNL     1      60.854  62.470  66.974  0.00  0.00    +0.000 C 
ATOM     24  C   UNL     1      61.397  61.987  66.583  0.00  0.00    +0.000 C 
ATOM     25  C   UNL     1      61.615  63.975  68.786  0.00  0.00    +0.000 C 
ATOM     26  O   UNL     1      62.157  63.493  68.396  0.00  0.00    +0.000 OA
ATOM     27  C   UNL     1      63.715  65.016  70.421  0.00  0.00    +0.000 A 
ATOM     28  O   UNL     1      64.258  64.533  70.031  0.00  0.00    +0.000 OA
ATOM     29  C   UNL     1      65.054  64.552  70.244  0.00  0.00    +0.000 C 
ATOM     30  C   UNL     1      63.968  65.517  71.025  0.00  0.00    +0.000 A 
ATOM     31  C   UNL     1      63.425  66.000  71.415  0.00  0.00    +0.000 A 
ATOM     32  O   UNL     1      63.678  66.501  72.019  0.00  0.00    +0.000 OA
ENDROOT
TORSDOF 0
ENDMDL
MODEL 7
REMARK VINA RESULT:   -11.780      3.956      6.445
REMARK INTER + INTRA:         -11.780
REMARK INTER:                 -11.780
REMARK INTRA:                   0.000
REMARK UNBOUND:                 0.000
ROOT
REMARK  Name = desaspidin
REMARK                            x       y       z     vdW  Elec       q    Type
REMARK                         _______ _______ _______ _____ _____    ______ ____
ATOM      1  C   UNL     1      62.754  62.010  63.854  0.00  0.00    +0.000 C 
ATOM      2  C   UNL     1      62.614  62.299  64.614  0.00  0.00    +0.000 C 
ATOM      3  C   UNL     1      61.871  62.205  64.960  0.00  0.00    +0.000 C 
ATOM      4  C   UNL     1      61.731  62.494  65.719  0.00  0.00    +0.000 C 
ATOM      5  O   UNL     1      62.333  62.878  66.133  0.00  0.00    +0.000 OA
ATOM      6  C   UNL     1      60.987  62.400  66.067  0.00  0.00    +0.000 A 
ATOM      7  C   UNL     1      60.848  62.690  66.827  0.00  0.00    +0.000 A 
ATOM      8  O   UNL     1      61.450  63.074  67.240  0.00  0.00    +0.000 OA
ATOM      9  C   UNL     1      60.105  62.596  67.173  0.00  0.00    +0.000 A 
ATOM     10  C   UNL     1      59.965  62.885  67.934  0.00  0.00    +0.000 C 
ATOM     11  C   UNL     1      60.567  63.269  68.346  0.00  0.00    +0.000 C 
ATOM     12  C   UNL     1      61.310  63.363  67.999  0.00  0.00    +0.000 C 
ATOM     13  O   UNL     1      61.880  63.291  67.407  0.00  0.00    +0.000 OA
ATOM     14  C   UNL     1      61.912  63.746  68.412  0.00  0.00    +0.000 C 
ATOM     15  C   UNL     1      62.653  64.068  68.582  0.00  0.00    +0.000 C 
ATOM     16  C   UNL     1      62.309  63.569  67.711  0.00  0.00    +0.000 C 
ATOM     17  C   UNL     1      61.772  64.036  69.172  0.00  0.00    +0.000 C 
ATOM     18  O   UNL     1      62.374  64.419  69.585  0.00  0.00    +0.000 OA
ATOM     19  C   UNL     1      61.030  63.942  69.519  0.00  0.00    +0.000 C 
ATOM     20  C   UNL     1      60.889  64.231  70.278  0.00  0.00    +0.000 C 
ATOM     21  O   UNL     1      61.492  64.615  70.691  0.00  0.00    +0.000 OA
ATOM     22  C   UNL     1      60.147  64.137  70.625  0.00  0.00    +0.000 C 
ATOM     23  C   UNL     1      60.007  64.427  71.385  0.00  0.00    +0.000 C 
ATOM     24  C   UNL     1      59.264  64.333  71.732  0.00  0.00    +0.000 C 
ATOM     25  C   UNL     1      60.427  63.558  69.105  0.00  0.00    +0.000 C 
ATOM     26  O   UNL     1      59.685  63.464  69.452  0.00  0.00    +0.000 OA
ATOM     27  C   UNL     1      59.502  62.212  66.760  0.00  0.00    +0.000 A 
ATOM     28  O   UNL     1      58.760  62.118  67.106  0.00  0.00    +0.000 OA
ATOM     29  C   UNL     1      58.158  61.735  66.694  0.00  0.00    +0.000 C 
ATOM     30  C   UNL     1      59.643  61.923  66.001  0.00  0.00    +0.000 A 
ATOM     31  C   UNL     1      60.386  62.017  65.654  0.00  0.00    +0.000 A 
ATOM     32  O   UNL     1      60.525  61.727  64.895  0.00  0.00    +0.000 OA
ENDROOT
TORSDOF 0
ENDMDL
MODEL 8
REMARK VINA RESULT:   -11.124     17.903     19.110
REMARK INTER + INTRA:         -11.124
REMARK INTER:                 -11.124
REMARK INTRA:                   0.000
REMARK UNBOUND:                 0.000
ROOT
REMARK  Name = desaspidin
REMARK                            x       y       z     vdW  Elec       q    Type
REMARK                         _______ _______ _______ _____ _____    ______ ____
ATOM      1  C   UNL     1      62.873  68.687  57.484  0.00  0.00    +0.000 C 
ATOM      2  C   UNL     1      62.752  68.762  56.671  0.00  0.00    +0.000 C 
ATOM      3  C   UNL     1      62.569  68.098  56.217  0.00  0.00    +0.000 C 
ATOM      4  C   UNL     1      62.449  68.175  55.405  0.00  0.00    +0.000 C 
ATOM      5  O   UNL     1      62.512  68.915  55.046  0.00  0.00    +0.000 OA
ATOM      6  C   UNL     1      62.266  67.510  54.951  0.00  0.00    +0.000 A 
ATOM      7  C   UNL     1      62.146  67.587  54.138  0.00  0.00    +0.000 A 
ATOM      8  O   UNL     1      62.209  68.327  53.779  0.00  0.00    +0.000 OA
ATOM      9  C   UNL     1      61.963  66.923  53.684  0.00  0.00    +0.000 A 
ATOM     10  C   UNL     1      61.842  66.999  52.871  0.00  0.00    +0.000 C 
ATOM     11  C   UNL     1      61.905  67.739  52.513  0.00  0.00    +0.000 C 
ATOM     12  C   UNL     1      62.089  68.403  52.967  0.00  0.00    +0.000 C 
ATOM     13  O   UNL     1      62.269  68.818  53.657  0.00  0.00    +0.000 OA
ATOM     14  C   UNL     1      62.151  69.143  52.608  0.00  0.00    +0.000 C 
ATOM     15  C   UNL     1      62.270  69.955  52.521  0.00  0.00    +0.000 C 
ATOM     16  C   UNL     1      62.313  69.349  53.390  0.00  0.00    +0.000 C 
ATOM     17  C   UNL     1      62.031  69.220  51.795  0.00  0.00    +0.000 C 
ATOM     18  O   UNL     1      62.094  69.959  51.437  0.00  0.00    +0.000 OA
ATOM     19  C   UNL     1      61.848  68.556  51.341  0.00  0.00    +0.000 C 
ATOM     20  C   UNL     1      61.728  68.631  50.529  0.00  0.00    +0.000 C 
ATOM     21  O   UNL     1      61.791  69.372  50.170  0.00  0.00    +0.000 OA
ATOM     22  C   UNL     1      61.545  67.968  50.075  0.00  0.00    +0.000 C 
ATOM     23  C   UNL     1      61.425  68.044  49.262  0.00  0.00    +0.000 C 
ATOM     24  C   UNL     1      61.242  67.380  48.808  0.00  0.00    +0.000 C 
ATOM     25  C   UNL     1      61.785  67.815  51.700  0.00  0.00    +0.000 C 
ATOM     26  O   UNL     1      61.602  67.151  51.247  0.00  0.00    +0.000 OA
ATOM     27  C   UNL     1      61.900  66.182  54.043  0.00  0.00    +0.000 A 
ATOM     28  O   UNL     1      61.717  65.518  53.590  0.00  0.00    +0.000 OA
ATOM     29  C   UNL     1      61.654  64.778  53.948  0.00  0.00    +0.000 C 
ATOM     30  C   UNL     1      62.020  66.106  54.855  0.00  0.00    +0.000 A 
ATOM     31  C   UNL     1      62.203  66.770  55.309  0.00  0.00    +0.000 A 
ATOM     32  O   UNL     1      62.323  66.694  56.121  0.00  0.00    +0.000 OA
ENDROOT
TORSDOF 0
ENDMDL
MODEL 9
REMARK VINA RESULT:   -11.117     25.040     26.839
REMARK INTER + INTRA:         -11.117
REMARK INTER:                 -11.117
REMARK INTRA:                   0.000
REMARK UNBOUND:                 0.000
ROOT
REMARK  Name = desaspidin
REMARK                            x       y       z     vdW  Elec       q    Type
REMARK                         _______ _______ _______ _____ _____    ______ ____
ATOM      1  C   UNL     1      72.875  79.232  48.100  0.00  0.00    +0.000 C 
ATOM      2  C   UNL     1      72.253  79.397  48.615  0.00  0.00    +0.000 C 
ATOM      3  C   UNL     1      72.401  79.769  49.336  0.00  0.00    +0.000 C 
ATOM      4  C   UNL     1      71.778  79.934  49.850  0.00  0.00    +0.000 C 
ATOM      5  O   UNL     1      71.006  79.729  49.643  0.00  0.00    +0.000 OA
ATOM      6  C   UNL     1      71.926  80.306  50.573  0.00  0.00    +0.000 A 
ATOM      7  C   UNL     1      71.302  80.471  51.087  0.00  0.00    +0.000 A 
ATOM      8  O   UNL     1      70.530  80.266  50.880  0.00  0.00    +0.000 OA
ATOM      9  C   UNL     1      71.451  80.843  51.808  0.00  0.00    +0.000 A 
ATOM     10  C   UNL     1      70.827  81.009  52.323  0.00  0.00    +0.000 C 
ATOM     11  C   UNL     1      70.056  80.803  52.115  0.00  0.00    +0.000 C 
ATOM     12  C   UNL     1      69.907  80.431  51.394  0.00  0.00    +0.000 C 
ATOM     13  O   UNL     1      70.100  80.101  50.662  0.00  0.00    +0.000 OA
ATOM     14  C   UNL     1      69.136  80.226  51.187  0.00  0.00    +0.000 C 
ATOM     15  C   UNL     1      68.504  79.927  50.748  0.00  0.00    +0.000 C 
ATOM     16  C   UNL     1      69.540  79.956  50.520  0.00  0.00    +0.000 C 
ATOM     17  C   UNL     1      68.512  80.391  51.701  0.00  0.00    +0.000 C 
ATOM     18  O   UNL     1      67.741  80.186  51.494  0.00  0.00    +0.000 OA
ATOM     19  C   UNL     1      68.661  80.763  52.423  0.00  0.00    +0.000 C 
ATOM     20  C   UNL     1      68.038  80.929  52.937  0.00  0.00    +0.000 C 
ATOM     21  O   UNL     1      67.266  80.723  52.730  0.00  0.00    +0.000 OA
ATOM     22  C   UNL     1      68.186  81.300  53.658  0.00  0.00    +0.000 C 
ATOM     23  C   UNL     1      67.562  81.466  54.173  0.00  0.00    +0.000 C 
ATOM     24  C   UNL     1      67.710  81.837  54.895  0.00  0.00    +0.000 C 
ATOM     25  C   UNL     1      69.433  80.969  52.630  0.00  0.00    +0.000 C 
ATOM     26  O   UNL     1      69.581  81.340  53.351  0.00  0.00    +0.000 OA
ATOM     27  C   UNL     1      72.223  81.049  52.016  0.00  0.00    +0.000 A 
ATOM     28  O   UNL     1      72.371  81.420  52.737  0.00  0.00    +0.000 OA
ATOM     29  C   UNL     1      73.142  81.625  52.944  0.00  0.00    +0.000 C 
ATOM     30  C   UNL     1      72.846  80.883  51.501  0.00  0.00    +0.000 A 
ATOM     31  C   UNL     1      72.697  80.511  50.779  0.00  0.00    +0.000 A 
ATOM     32  O   UNL     1      73.320  80.346  50.266  0.00  0.00    +0.000 OA
ENDROOT
TORSDOF 0
ENDMDL
