MODEL 1
REMARK VINA RESULT:   -18.851      0.000      0.000
REMARK INTER + INTRA:         -18.851
REMARK INTER:                 -18.851
REMARK INTRA:                   0.000
REMARK UNBOUND:                 0.000
ROOT
REMARK  Name = desmopressin
REMARK                            x       y       z     vdW  Elec       q    Type
REMARK                         _______ _______ _______ _____ _____    ______ ____
ATOM      1  N   UNL     1      58.652  68.163  48.347  0.00  0.00    +0.000 NA
ATOM      2  C   UNL     1      58.971  67.585  48.842  0.00  0.00    +0.000 C 
ATOM      3  O   UNL     1      58.950  66.792  48.614  0.00  0.00    +0.000 OA
ATOM      4  C   UNL     1      59.311  67.799  49.562  0.00  0.00    +0.000 C 
ATOM      5  C   UNL     1      59.630  67.221  50.056  0.00  0.00    +0.000 C 
ATOM      6  C   UNL     1      59.970  67.436  50.777  0.00  0.00    +0.000 C 
ATOM      7  N   UNL     1      59.651  68.014  50.283  0.00  0.00    +0.000 NA
ATOM      8  C   UNL     1      59.671  68.807  50.509  0.00  0.00    +0.000 C 
ATOM      9  O   UNL     1      59.351  69.385  50.015  0.00  0.00    +0.000 OA
ATOM     10  C   UNL     1      60.011  69.021  51.230  0.00  0.00    +0.000 C 
ATOM     11  C   UNL     1      60.031  69.814  51.456  0.00  0.00    +0.000 C 
ATOM     12  C   UNL     1      59.712  70.393  50.963  0.00  0.00    +0.000 A 
ATOM     13  C   UNL     1      59.372  70.178  50.242  0.00  0.00    +0.000 A 
ATOM     14  C   UNL     1      59.052  70.757  49.748  0.00  0.00    +0.000 A 
ATOM     15  C   UNL     1      59.073  71.550  49.975  0.00  0.00    +0.000 A 
ATOM     16  C   UNL     1      59.412  71.764  50.696  0.00  0.00    +0.000 A 
ATOM     17  C   UNL     1      59.732  71.186  51.190  0.00  0.00    +0.000 A 
ATOM     18  N   UNL     1      60.330  68.442  51.724  0.00  0.00    +0.000 NA
ATOM     19  C   UNL     1      60.670  68.657  52.444  0.00  0.00    +0.000 C 
ATOM     20  O   UNL     1      60.690  69.450  52.671  0.00  0.00    +0.000 OA
ATOM     21  C   UNL     1      60.989  68.078  52.938  0.00  0.00    +0.000 C 
ATOM     22  C   UNL     1      61.010  68.872  53.165  0.00  0.00    +0.000 C 
ATOM     23  C   UNL     1      61.349  69.086  53.886  0.00  0.00    +0.000 A 
ATOM     24  C   UNL     1      61.370  69.879  54.112  0.00  0.00    +0.000 A 
ATOM     25  C   UNL     1      61.709  70.093  54.832  0.00  0.00    +0.000 A 
ATOM     26  C   UNL     1      62.029  69.515  55.327  0.00  0.00    +0.000 A 
ATOM     27  O   UNL     1      62.369  69.729  56.047  0.00  0.00    +0.000 OA
ATOM     28  C   UNL     1      62.008  68.721  55.100  0.00  0.00    +0.000 A 
ATOM     29  C   UNL     1      61.669  68.507  54.379  0.00  0.00    +0.000 A 
ATOM     30  N   UNL     1      61.329  68.293  53.659  0.00  0.00    +0.000 NA
ATOM     31  C   UNL     1      61.648  67.714  54.152  0.00  0.00    +0.000 C 
ATOM     32  O   UNL     1      61.628  66.921  53.926  0.00  0.00    +0.000 OA
ATOM     33  C   UNL     1      61.988  67.929  54.873  0.00  0.00    +0.000 C 
ATOM     34  C   UNL     1      62.308  67.350  55.367  0.00  0.00    +0.000 C 
ATOM     35  S   UNL     1      62.287  66.557  55.140  0.00  0.00    +0.000 S 
ATOM     36  S   UNL     1      61.947  66.342  54.419  0.00  0.00    +0.000 S 
ATOM     37  C   UNL     1      61.927  65.550  54.192  0.00  0.00    +0.000 C 
ATOM     38  C   UNL     1      61.587  65.336  53.472  0.00  0.00    +0.000 C 
ATOM     39  N   UNL     1      61.268  65.914  52.978  0.00  0.00    +0.000 NA
ATOM     40  C   UNL     1      60.928  65.699  52.258  0.00  0.00    +0.000 C 
ATOM     41  O   UNL     1      60.907  64.907  52.030  0.00  0.00    +0.000 OA
ATOM     42  C   UNL     1      60.609  66.278  51.764  0.00  0.00    +0.000 C 
ATOM     43  C   UNL     1      60.588  65.486  51.537  0.00  0.00    +0.000 C 
ATOM     44  C   UNL     1      60.248  65.271  50.816  0.00  0.00    +0.000 C 
ATOM     45  N   UNL     1      59.929  65.849  50.322  0.00  0.00    +0.000 NA
ATOM     46  O   UNL     1      60.228  64.478  50.589  0.00  0.00    +0.000 OA
ATOM     47  N   UNL     1      60.269  66.065  51.043  0.00  0.00    +0.000 NA
ATOM     48  C   UNL     1      59.950  66.642  50.550  0.00  0.00    +0.000 C 
ATOM     49  O   UNL     1      59.609  66.428  49.829  0.00  0.00    +0.000 OA
ATOM     50  C   UNL     1      61.567  64.543  53.245  0.00  0.00    +0.000 C 
ATOM     51  O   UNL     1      61.227  64.328  52.524  0.00  0.00    +0.000 OA
ATOM     52  N   UNL     1      61.886  63.965  53.739  0.00  0.00    +0.000 N 
ATOM     53  C   UNL     1      62.242  64.095  54.472  0.00  0.00    +0.000 C 
ATOM     54  C   UNL     1      62.482  63.364  54.772  0.00  0.00    +0.000 C 
ATOM     55  C   UNL     1      62.273  62.783  54.225  0.00  0.00    +0.000 C 
ATOM     56  C   UNL     1      61.906  63.154  53.587  0.00  0.00    +0.000 C 
ATOM     57  C   UNL     1      61.609  62.778  52.914  0.00  0.00    +0.000 C 
ATOM     58  O   UNL     1      61.668  61.960  52.838  0.00  0.00    +0.000 OA
ATOM     59  N   UNL     1      61.254  63.223  52.318  0.00  0.00    +0.000 NA
ATOM     60  C   UNL     1      60.957  62.850  51.645  0.00  0.00    +0.000 C 
ATOM     61  C   UNL     1      61.016  62.030  51.569  0.00  0.00    +0.000 C 
ATOM     62  C   UNL     1      61.372  61.585  52.165  0.00  0.00    +0.000 C 
ATOM     63  C   UNL     1      61.431  60.766  52.089  0.00  0.00    +0.000 C 
ATOM     64  N   UNL     1      61.787  60.321  52.686  0.00  0.00    +0.000 NA
ATOM     65  C   UNL     1      61.846  59.501  52.609  0.00  0.00    +0.000 C 
ATOM     66  N   UNL     1      62.201  59.056  53.206  0.00  0.00    +0.000 NA
ATOM     67  N   UNL     1      61.550  59.127  51.937  0.00  0.00    +0.000 NA
ATOM     68  C   UNL     1      60.602  63.295  51.048  0.00  0.00    +0.000 C 
ATOM     69  O   UNL     1      60.542  64.114  51.124  0.00  0.00    +0.000 OA
ATOM     70  N   UNL     1      60.305  62.920  50.375  0.00  0.00    +0.000 NA
ATOM     71  C   UNL     1      59.949  63.365  49.778  0.00  0.00    +0.000 C 
ATOM     72  C   UNL     1      59.653  62.991  49.106  0.00  0.00    +0.000 C 
ATOM     73  N   UNL     1      59.712  62.172  49.029  0.00  0.00    +0.000 NA
ATOM     74  O   UNL     1      59.297  63.436  48.509  0.00  0.00    +0.000 OA
ENDROOT
TORSDOF 0
ENDMDL
MODEL 2
REMARK VINA RESULT:   -18.083      2.188      4.547
REMARK INTER + INTRA:         -18.083
REMARK INTER:                 -18.083
REMARK INTRA:                   0.000
REMARK UNBOUND:                 0.000
ROOT
REMARK  Name = desmopressin
REMARK                            x       y       z     vdW  Elec       q    Type
REMARK                         _______ _______ _______ _____ _____    ______ ____
ATOM      1  N   UNL     1      61.999  66.729  56.266  0.00  0.00    +0.000 NA
ATOM      2  C   UNL     1      62.088  66.263  55.591  0.00  0.00    +0.000 C 
ATOM      3  O   UNL     1      62.255  65.458  55.666  0.00  0.00    +0.000 OA
ATOM      4  C   UNL     1      62.011  66.601  54.842  0.00  0.00    +0.000 C 
ATOM      5  C   UNL     1      62.100  66.134  54.168  0.00  0.00    +0.000 C 
ATOM      6  C   UNL     1      62.023  66.472  53.419  0.00  0.00    +0.000 C 
ATOM      7  N   UNL     1      61.933  66.938  54.094  0.00  0.00    +0.000 NA
ATOM      8  C   UNL     1      61.767  67.743  54.019  0.00  0.00    +0.000 C 
ATOM      9  O   UNL     1      61.677  68.210  54.694  0.00  0.00    +0.000 OA
ATOM     10  C   UNL     1      61.689  68.081  53.271  0.00  0.00    +0.000 C 
ATOM     11  C   UNL     1      61.522  68.885  53.197  0.00  0.00    +0.000 C 
ATOM     12  C   UNL     1      61.433  69.352  53.871  0.00  0.00    +0.000 A 
ATOM     13  C   UNL     1      61.510  69.014  54.620  0.00  0.00    +0.000 A 
ATOM     14  C   UNL     1      61.421  69.481  55.295  0.00  0.00    +0.000 A 
ATOM     15  C   UNL     1      61.254  70.286  55.220  0.00  0.00    +0.000 A 
ATOM     16  C   UNL     1      61.177  70.623  54.472  0.00  0.00    +0.000 A 
ATOM     17  C   UNL     1      61.266  70.157  53.797  0.00  0.00    +0.000 A 
ATOM     18  N   UNL     1      61.779  67.614  52.597  0.00  0.00    +0.000 NA
ATOM     19  C   UNL     1      61.701  67.952  51.848  0.00  0.00    +0.000 C 
ATOM     20  O   UNL     1      61.534  68.757  51.774  0.00  0.00    +0.000 OA
ATOM     21  C   UNL     1      61.791  67.486  51.173  0.00  0.00    +0.000 C 
ATOM     22  C   UNL     1      61.624  68.291  51.099  0.00  0.00    +0.000 C 
ATOM     23  C   UNL     1      61.546  68.629  50.351  0.00  0.00    +0.000 A 
ATOM     24  C   UNL     1      61.380  69.433  50.277  0.00  0.00    +0.000 A 
ATOM     25  C   UNL     1      61.302  69.770  49.528  0.00  0.00    +0.000 A 
ATOM     26  C   UNL     1      61.391  69.304  48.853  0.00  0.00    +0.000 A 
ATOM     27  O   UNL     1      61.314  69.642  48.105  0.00  0.00    +0.000 OA
ATOM     28  C   UNL     1      61.558  68.499  48.928  0.00  0.00    +0.000 A 
ATOM     29  C   UNL     1      61.636  68.161  49.676  0.00  0.00    +0.000 A 
ATOM     30  N   UNL     1      61.713  67.824  50.425  0.00  0.00    +0.000 NA
ATOM     31  C   UNL     1      61.803  67.357  49.751  0.00  0.00    +0.000 C 
ATOM     32  O   UNL     1      61.969  66.553  49.824  0.00  0.00    +0.000 OA
ATOM     33  C   UNL     1      61.725  67.695  49.002  0.00  0.00    +0.000 C 
ATOM     34  C   UNL     1      61.815  67.228  48.327  0.00  0.00    +0.000 C 
ATOM     35  S   UNL     1      61.982  66.423  48.402  0.00  0.00    +0.000 S 
ATOM     36  S   UNL     1      62.059  66.085  49.150  0.00  0.00    +0.000 S 
ATOM     37  C   UNL     1      62.226  65.282  49.225  0.00  0.00    +0.000 C 
ATOM     38  C   UNL     1      62.303  64.944  49.974  0.00  0.00    +0.000 C 
ATOM     39  N   UNL     1      62.214  65.410  50.647  0.00  0.00    +0.000 NA
ATOM     40  C   UNL     1      62.291  65.072  51.396  0.00  0.00    +0.000 C 
ATOM     41  O   UNL     1      62.458  64.267  51.471  0.00  0.00    +0.000 OA
ATOM     42  C   UNL     1      62.202  65.539  52.070  0.00  0.00    +0.000 C 
ATOM     43  C   UNL     1      62.368  64.735  52.145  0.00  0.00    +0.000 C 
ATOM     44  C   UNL     1      62.446  64.397  52.894  0.00  0.00    +0.000 C 
ATOM     45  N   UNL     1      62.357  64.863  53.569  0.00  0.00    +0.000 NA
ATOM     46  O   UNL     1      62.613  63.592  52.968  0.00  0.00    +0.000 OA
ATOM     47  N   UNL     1      62.279  65.202  52.820  0.00  0.00    +0.000 NA
ATOM     48  C   UNL     1      62.190  65.667  53.493  0.00  0.00    +0.000 C 
ATOM     49  O   UNL     1      62.267  65.330  54.243  0.00  0.00    +0.000 OA
ATOM     50  C   UNL     1      62.470  64.139  50.048  0.00  0.00    +0.000 C 
ATOM     51  O   UNL     1      62.547  63.801  50.796  0.00  0.00    +0.000 OA
ATOM     52  N   UNL     1      62.559  63.673  49.373  0.00  0.00    +0.000 N 
ATOM     53  C   UNL     1      62.498  63.932  48.592  0.00  0.00    +0.000 C 
ATOM     54  C   UNL     1      62.627  63.284  48.098  0.00  0.00    +0.000 C 
ATOM     55  C   UNL     1      62.768  62.625  48.573  0.00  0.00    +0.000 C 
ATOM     56  C   UNL     1      62.726  62.865  49.361  0.00  0.00    +0.000 C 
ATOM     57  C   UNL     1      62.833  62.381  50.021  0.00  0.00    +0.000 C 
ATOM     58  O   UNL     1      62.997  61.579  49.923  0.00  0.00    +0.000 OA
ATOM     59  N   UNL     1      62.775  62.700  50.779  0.00  0.00    +0.000 NA
ATOM     60  C   UNL     1      62.881  62.218  51.440  0.00  0.00    +0.000 C 
ATOM     61  C   UNL     1      63.046  61.415  51.341  0.00  0.00    +0.000 C 
ATOM     62  C   UNL     1      63.104  61.095  50.583  0.00  0.00    +0.000 C 
ATOM     63  C   UNL     1      63.268  60.293  50.485  0.00  0.00    +0.000 C 
ATOM     64  N   UNL     1      63.326  59.974  49.726  0.00  0.00    +0.000 NA
ATOM     65  C   UNL     1      63.491  59.171  49.629  0.00  0.00    +0.000 C 
ATOM     66  N   UNL     1      63.549  58.852  48.870  0.00  0.00    +0.000 NA
ATOM     67  N   UNL     1      63.598  58.689  50.288  0.00  0.00    +0.000 NA
ATOM     68  C   UNL     1      62.823  62.537  52.198  0.00  0.00    +0.000 C 
ATOM     69  O   UNL     1      62.658  63.339  52.296  0.00  0.00    +0.000 OA
ATOM     70  N   UNL     1      62.929  62.053  52.858  0.00  0.00    +0.000 NA
ATOM     71  C   UNL     1      62.871  62.373  53.618  0.00  0.00    +0.000 C 
ATOM     72  C   UNL     1      62.978  61.890  54.277  0.00  0.00    +0.000 C 
ATOM     73  N   UNL     1      63.142  61.087  54.179  0.00  0.00    +0.000 NA
ATOM     74  O   UNL     1      62.919  62.209  55.036  0.00  0.00    +0.000 OA
ENDROOT
TORSDOF 0
ENDMDL
MODEL 3
REMARK VINA RESULT:   -16.873      1.913      7.898
REMARK INTER + INTRA:         -16.873
REMARK INTER:                 -16.873
REMARK INTRA:                   0.000
REMARK UNBOUND:                 0.000
ROOT
REMARK  Name = desmopressin
REMARK                            x       y       z     vdW  Elec       q    Type
REMARK                         _______ _______ _______ _____ _____    ______ ____
ATOM      1  N   UNL     1      64.565  61.937  54.469  0.00  0.00    +0.000 NA
ATOM      2  C   UNL     1      64.075  62.509  54.132  0.00  0.00    +0.000 C 
ATOM      3  O   UNL     1      64.113  63.290  54.395  0.00  0.00    +0.000 OA
ATOM      4  C   UNL     1      63.549  62.299  53.533  0.00  0.00    +0.000 C 
ATOM      5  C   UNL     1      63.059  62.871  53.196  0.00  0.00    +0.000 C 
ATOM      6  C   UNL     1      62.532  62.662  52.596  0.00  0.00    +0.000 C 
ATOM      7  N   UNL     1      63.022  62.090  52.934  0.00  0.00    +0.000 NA
ATOM      8  C   UNL     1      62.984  61.308  52.671  0.00  0.00    +0.000 C 
ATOM      9  O   UNL     1      63.474  60.737  53.009  0.00  0.00    +0.000 OA
ATOM     10  C   UNL     1      62.458  61.099  52.072  0.00  0.00    +0.000 C 
ATOM     11  C   UNL     1      62.421  60.318  51.810  0.00  0.00    +0.000 C 
ATOM     12  C   UNL     1      62.910  59.746  52.147  0.00  0.00    +0.000 A 
ATOM     13  C   UNL     1      63.437  59.955  52.746  0.00  0.00    +0.000 A 
ATOM     14  C   UNL     1      63.927  59.384  53.083  0.00  0.00    +0.000 A 
ATOM     15  C   UNL     1      63.890  58.602  52.821  0.00  0.00    +0.000 A 
ATOM     16  C   UNL     1      63.363  58.393  52.222  0.00  0.00    +0.000 A 
ATOM     17  C   UNL     1      62.873  58.964  51.884  0.00  0.00    +0.000 A 
ATOM     18  N   UNL     1      61.968  61.671  51.735  0.00  0.00    +0.000 NA
ATOM     19  C   UNL     1      61.441  61.462  51.136  0.00  0.00    +0.000 C 
ATOM     20  O   UNL     1      61.404  60.680  50.874  0.00  0.00    +0.000 OA
ATOM     21  C   UNL     1      60.951  62.034  50.799  0.00  0.00    +0.000 C 
ATOM     22  C   UNL     1      60.914  61.252  50.536  0.00  0.00    +0.000 C 
ATOM     23  C   UNL     1      60.387  61.043  49.937  0.00  0.00    +0.000 A 
ATOM     24  C   UNL     1      60.350  60.262  49.675  0.00  0.00    +0.000 A 
ATOM     25  C   UNL     1      59.823  60.053  49.076  0.00  0.00    +0.000 A 
ATOM     26  C   UNL     1      59.333  60.624  48.739  0.00  0.00    +0.000 A 
ATOM     27  O   UNL     1      58.806  60.415  48.139  0.00  0.00    +0.000 OA
ATOM     28  C   UNL     1      59.370  61.406  49.001  0.00  0.00    +0.000 A 
ATOM     29  C   UNL     1      59.897  61.615  49.600  0.00  0.00    +0.000 A 
ATOM     30  N   UNL     1      60.424  61.824  50.200  0.00  0.00    +0.000 NA
ATOM     31  C   UNL     1      59.934  62.397  49.863  0.00  0.00    +0.000 C 
ATOM     32  O   UNL     1      59.971  63.178  50.125  0.00  0.00    +0.000 OA
ATOM     33  C   UNL     1      59.407  62.187  49.263  0.00  0.00    +0.000 C 
ATOM     34  C   UNL     1      58.918  62.759  48.926  0.00  0.00    +0.000 C 
ATOM     35  S   UNL     1      58.955  63.541  49.189  0.00  0.00    +0.000 S 
ATOM     36  S   UNL     1      59.482  63.750  49.788  0.00  0.00    +0.000 S 
ATOM     37  C   UNL     1      59.519  64.530  50.050  0.00  0.00    +0.000 C 
ATOM     38  C   UNL     1      60.046  64.740  50.650  0.00  0.00    +0.000 C 
ATOM     39  N   UNL     1      60.535  64.169  50.986  0.00  0.00    +0.000 NA
ATOM     40  C   UNL     1      61.062  64.378  51.585  0.00  0.00    +0.000 C 
ATOM     41  O   UNL     1      61.100  65.159  51.848  0.00  0.00    +0.000 OA
ATOM     42  C   UNL     1      61.552  63.806  51.922  0.00  0.00    +0.000 C 
ATOM     43  C   UNL     1      61.590  64.587  52.185  0.00  0.00    +0.000 C 
ATOM     44  C   UNL     1      62.117  64.796  52.784  0.00  0.00    +0.000 C 
ATOM     45  N   UNL     1      62.607  64.224  53.122  0.00  0.00    +0.000 NA
ATOM     46  O   UNL     1      62.154  65.578  53.047  0.00  0.00    +0.000 OA
ATOM     47  N   UNL     1      62.079  64.014  52.522  0.00  0.00    +0.000 NA
ATOM     48  C   UNL     1      62.569  63.443  52.859  0.00  0.00    +0.000 C 
ATOM     49  O   UNL     1      63.096  63.652  53.459  0.00  0.00    +0.000 OA
ATOM     50  C   UNL     1      60.083  65.521  50.912  0.00  0.00    +0.000 C 
ATOM     51  O   UNL     1      60.610  65.731  51.511  0.00  0.00    +0.000 OA
ATOM     52  N   UNL     1      59.593  66.093  50.575  0.00  0.00    +0.000 N 
ATOM     53  C   UNL     1      59.042  65.966  49.974  0.00  0.00    +0.000 C 
ATOM     54  C   UNL     1      58.676  66.688  49.807  0.00  0.00    +0.000 C 
ATOM     55  C   UNL     1      59.002  67.259  50.305  0.00  0.00    +0.000 C 
ATOM     56  C   UNL     1      59.569  66.892  50.779  0.00  0.00    +0.000 C 
ATOM     57  C   UNL     1      60.029  67.260  51.356  0.00  0.00    +0.000 C 
ATOM     58  O   UNL     1      59.944  68.067  51.500  0.00  0.00    +0.000 OA
ATOM     59  N   UNL     1      60.576  66.820  51.789  0.00  0.00    +0.000 NA
ATOM     60  C   UNL     1      61.038  67.186  52.366  0.00  0.00    +0.000 C 
ATOM     61  C   UNL     1      60.952  67.995  52.511  0.00  0.00    +0.000 C 
ATOM     62  C   UNL     1      60.405  68.435  52.077  0.00  0.00    +0.000 C 
ATOM     63  C   UNL     1      60.319  69.242  52.222  0.00  0.00    +0.000 C 
ATOM     64  N   UNL     1      59.772  69.683  51.789  0.00  0.00    +0.000 NA
ATOM     65  C   UNL     1      59.687  70.491  51.933  0.00  0.00    +0.000 C 
ATOM     66  N   UNL     1      59.140  70.931  51.500  0.00  0.00    +0.000 NA
ATOM     67  N   UNL     1      60.148  70.858  52.510  0.00  0.00    +0.000 NA
ATOM     68  C   UNL     1      61.584  66.746  52.799  0.00  0.00    +0.000 C 
ATOM     69  O   UNL     1      61.670  65.939  52.655  0.00  0.00    +0.000 OA
ATOM     70  N   UNL     1      62.045  67.114  53.377  0.00  0.00    +0.000 NA
ATOM     71  C   UNL     1      62.593  66.673  53.810  0.00  0.00    +0.000 C 
ATOM     72  C   UNL     1      63.053  67.040  54.387  0.00  0.00    +0.000 C 
ATOM     73  N   UNL     1      62.968  67.848  54.532  0.00  0.00    +0.000 NA
ATOM     74  O   UNL     1      63.600  66.599  54.820  0.00  0.00    +0.000 OA
ENDROOT
TORSDOF 0
ENDMDL
MODEL 4
REMARK VINA RESULT:   -16.804      2.016      7.854
REMARK INTER + INTRA:         -16.804
REMARK INTER:                 -16.804
REMARK INTRA:                   0.000
REMARK UNBOUND:                 0.000
ROOT
REMARK  Name = desmopressin
REMARK                            x       y       z     vdW  Elec       q    Type
REMARK                         _______ _______ _______ _____ _____    ______ ____
ATOM      1  N   UNL     1      64.192  62.660  54.491  0.00  0.00    +0.000 NA
ATOM      2  C   UNL     1      63.652  63.127  54.078  0.00  0.00    +0.000 C 
ATOM      3  O   UNL     1      63.702  63.950  54.123  0.00  0.00    +0.000 OA
ATOM      4  C   UNL     1      63.063  62.773  53.622  0.00  0.00    +0.000 C 
ATOM      5  C   UNL     1      62.523  63.241  53.210  0.00  0.00    +0.000 C 
ATOM      6  C   UNL     1      61.934  62.887  52.753  0.00  0.00    +0.000 C 
ATOM      7  N   UNL     1      62.473  62.420  53.166  0.00  0.00    +0.000 NA
ATOM      8  C   UNL     1      62.424  61.597  53.122  0.00  0.00    +0.000 C 
ATOM      9  O   UNL     1      62.964  61.129  53.535  0.00  0.00    +0.000 OA
ATOM     10  C   UNL     1      61.835  61.243  52.666  0.00  0.00    +0.000 C 
ATOM     11  C   UNL     1      61.785  60.421  52.622  0.00  0.00    +0.000 C 
ATOM     12  C   UNL     1      62.325  59.952  53.035  0.00  0.00    +0.000 A 
ATOM     13  C   UNL     1      62.914  60.306  53.491  0.00  0.00    +0.000 A 
ATOM     14  C   UNL     1      63.454  59.838  53.903  0.00  0.00    +0.000 A 
ATOM     15  C   UNL     1      63.404  59.016  53.860  0.00  0.00    +0.000 A 
ATOM     16  C   UNL     1      62.815  58.662  53.403  0.00  0.00    +0.000 A 
ATOM     17  C   UNL     1      62.275  59.130  52.991  0.00  0.00    +0.000 A 
ATOM     18  N   UNL     1      61.295  61.712  52.254  0.00  0.00    +0.000 NA
ATOM     19  C   UNL     1      60.706  61.358  51.798  0.00  0.00    +0.000 C 
ATOM     20  O   UNL     1      60.656  60.535  51.754  0.00  0.00    +0.000 OA
ATOM     21  C   UNL     1      60.166  61.826  51.385  0.00  0.00    +0.000 C 
ATOM     22  C   UNL     1      60.116  61.003  51.341  0.00  0.00    +0.000 C 
ATOM     23  C   UNL     1      59.527  60.649  50.885  0.00  0.00    +0.000 A 
ATOM     24  C   UNL     1      59.478  59.827  50.842  0.00  0.00    +0.000 A 
ATOM     25  C   UNL     1      58.889  59.473  50.385  0.00  0.00    +0.000 A 
ATOM     26  C   UNL     1      58.349  59.941  49.973  0.00  0.00    +0.000 A 
ATOM     27  O   UNL     1      57.759  59.587  49.517  0.00  0.00    +0.000 OA
ATOM     28  C   UNL     1      58.398  60.764  50.017  0.00  0.00    +0.000 A 
ATOM     29  C   UNL     1      58.988  61.118  50.473  0.00  0.00    +0.000 A 
ATOM     30  N   UNL     1      59.577  61.472  50.929  0.00  0.00    +0.000 NA
ATOM     31  C   UNL     1      59.037  61.940  50.517  0.00  0.00    +0.000 C 
ATOM     32  O   UNL     1      59.087  62.762  50.560  0.00  0.00    +0.000 OA
ATOM     33  C   UNL     1      58.448  61.586  50.060  0.00  0.00    +0.000 C 
ATOM     34  C   UNL     1      57.908  62.054  49.648  0.00  0.00    +0.000 C 
ATOM     35  S   UNL     1      57.958  62.877  49.692  0.00  0.00    +0.000 S 
ATOM     36  S   UNL     1      58.547  63.231  50.148  0.00  0.00    +0.000 S 
ATOM     37  C   UNL     1      58.597  64.052  50.192  0.00  0.00    +0.000 C 
ATOM     38  C   UNL     1      59.186  64.406  50.648  0.00  0.00    +0.000 C 
ATOM     39  N   UNL     1      59.726  63.939  51.060  0.00  0.00    +0.000 NA
ATOM     40  C   UNL     1      60.315  64.293  51.516  0.00  0.00    +0.000 C 
ATOM     41  O   UNL     1      60.365  65.115  51.561  0.00  0.00    +0.000 OA
ATOM     42  C   UNL     1      60.854  63.824  51.929  0.00  0.00    +0.000 C 
ATOM     43  C   UNL     1      60.905  64.646  51.973  0.00  0.00    +0.000 C 
ATOM     44  C   UNL     1      61.494  65.000  52.429  0.00  0.00    +0.000 C 
ATOM     45  N   UNL     1      62.034  64.532  52.842  0.00  0.00    +0.000 NA
ATOM     46  O   UNL     1      61.544  65.823  52.473  0.00  0.00    +0.000 OA
ATOM     47  N   UNL     1      61.444  64.178  52.385  0.00  0.00    +0.000 NA
ATOM     48  C   UNL     1      61.983  63.710  52.797  0.00  0.00    +0.000 C 
ATOM     49  O   UNL     1      62.573  64.064  53.254  0.00  0.00    +0.000 OA
ATOM     50  C   UNL     1      59.236  65.229  50.692  0.00  0.00    +0.000 C 
ATOM     51  O   UNL     1      59.825  65.583  51.148  0.00  0.00    +0.000 OA
ATOM     52  N   UNL     1      58.696  65.697  50.280  0.00  0.00    +0.000 N 
ATOM     53  C   UNL     1      58.081  65.423  49.804  0.00  0.00    +0.000 C 
ATOM     54  C   UNL     1      57.681  66.079  49.501  0.00  0.00    +0.000 C 
ATOM     55  C   UNL     1      58.050  66.758  49.789  0.00  0.00    +0.000 C 
ATOM     56  C   UNL     1      58.677  66.522  50.271  0.00  0.00    +0.000 C 
ATOM     57  C   UNL     1      59.195  67.024  50.672  0.00  0.00    +0.000 C 
ATOM     58  O   UNL     1      59.108  67.842  50.611  0.00  0.00    +0.000 OA
ATOM     59  N   UNL     1      59.799  66.707  51.136  0.00  0.00    +0.000 NA
ATOM     60  C   UNL     1      60.317  67.208  51.538  0.00  0.00    +0.000 C 
ATOM     61  C   UNL     1      60.230  68.026  51.476  0.00  0.00    +0.000 C 
ATOM     62  C   UNL     1      59.625  68.343  51.013  0.00  0.00    +0.000 C 
ATOM     63  C   UNL     1      59.538  69.161  50.952  0.00  0.00    +0.000 C 
ATOM     64  N   UNL     1      58.934  69.478  50.488  0.00  0.00    +0.000 NA
ATOM     65  C   UNL     1      58.847  70.296  50.427  0.00  0.00    +0.000 C 
ATOM     66  N   UNL     1      58.243  70.613  49.964  0.00  0.00    +0.000 NA
ATOM     67  N   UNL     1      59.364  70.797  50.829  0.00  0.00    +0.000 NA
ATOM     68  C   UNL     1      60.921  66.891  52.001  0.00  0.00    +0.000 C 
ATOM     69  O   UNL     1      61.008  66.073  52.063  0.00  0.00    +0.000 OA
ATOM     70  N   UNL     1      61.439  67.393  52.403  0.00  0.00    +0.000 NA
ATOM     71  C   UNL     1      62.044  67.075  52.867  0.00  0.00    +0.000 C 
ATOM     72  C   UNL     1      62.561  67.576  53.269  0.00  0.00    +0.000 C 
ATOM     73  N   UNL     1      62.475  68.395  53.207  0.00  0.00    +0.000 NA
ATOM     74  O   UNL     1      63.166  67.259  53.732  0.00  0.00    +0.000 OA
ENDROOT
TORSDOF 0
ENDMDL
MODEL 5
REMARK VINA RESULT:   -16.157      1.879      4.506
REMARK INTER + INTRA:         -16.157
REMARK INTER:                 -16.157
REMARK INTRA:                   0.000
REMARK UNBOUND:                 0.000
ROOT
REMARK  Name = desmopressin
REMARK                            x       y       z     vdW  Elec       q    Type
REMARK                         _______ _______ _______ _____ _____    ______ ____
ATOM      1  N   UNL     1      61.941  68.754  55.367  0.00  0.00    +0.000 NA
ATOM      2  C   UNL     1      61.896  68.188  54.768  0.00  0.00    +0.000 C 
ATOM      3  O   UNL     1      62.317  67.482  54.838  0.00  0.00    +0.000 OA
ATOM      4  C   UNL     1      61.432  68.328  54.101  0.00  0.00    +0.000 C 
ATOM      5  C   UNL     1      61.387  67.762  53.503  0.00  0.00    +0.000 C 
ATOM      6  C   UNL     1      60.922  67.903  52.836  0.00  0.00    +0.000 C 
ATOM      7  N   UNL     1      60.967  68.468  53.434  0.00  0.00    +0.000 NA
ATOM      8  C   UNL     1      60.546  69.175  53.366  0.00  0.00    +0.000 C 
ATOM      9  O   UNL     1      60.590  69.741  53.965  0.00  0.00    +0.000 OA
ATOM     10  C   UNL     1      60.081  69.315  52.699  0.00  0.00    +0.000 C 
ATOM     11  C   UNL     1      59.661  70.021  52.631  0.00  0.00    +0.000 C 
ATOM     12  C   UNL     1      59.705  70.588  53.229  0.00  0.00    +0.000 A 
ATOM     13  C   UNL     1      60.170  70.448  53.896  0.00  0.00    +0.000 A 
ATOM     14  C   UNL     1      60.214  71.013  54.495  0.00  0.00    +0.000 A 
ATOM     15  C   UNL     1      59.793  71.720  54.426  0.00  0.00    +0.000 A 
ATOM     16  C   UNL     1      59.328  71.860  53.759  0.00  0.00    +0.000 A 
ATOM     17  C   UNL     1      59.284  71.294  53.160  0.00  0.00    +0.000 A 
ATOM     18  N   UNL     1      60.037  68.749  52.100  0.00  0.00    +0.000 NA
ATOM     19  C   UNL     1      59.573  68.889  51.434  0.00  0.00    +0.000 C 
ATOM     20  O   UNL     1      59.152  69.596  51.365  0.00  0.00    +0.000 OA
ATOM     21  C   UNL     1      59.528  68.323  50.835  0.00  0.00    +0.000 C 
ATOM     22  C   UNL     1      59.107  69.030  50.766  0.00  0.00    +0.000 C 
ATOM     23  C   UNL     1      58.643  69.170  50.099  0.00  0.00    +0.000 A 
ATOM     24  C   UNL     1      58.222  69.876  50.031  0.00  0.00    +0.000 A 
ATOM     25  C   UNL     1      57.757  70.017  49.364  0.00  0.00    +0.000 A 
ATOM     26  C   UNL     1      57.713  69.451  48.765  0.00  0.00    +0.000 A 
ATOM     27  O   UNL     1      57.248  69.591  48.098  0.00  0.00    +0.000 OA
ATOM     28  C   UNL     1      58.134  68.744  48.834  0.00  0.00    +0.000 A 
ATOM     29  C   UNL     1      58.599  68.604  49.501  0.00  0.00    +0.000 A 
ATOM     30  N   UNL     1      59.063  68.464  50.168  0.00  0.00    +0.000 NA
ATOM     31  C   UNL     1      59.020  67.897  49.569  0.00  0.00    +0.000 C 
ATOM     32  O   UNL     1      59.440  67.191  49.638  0.00  0.00    +0.000 OA
ATOM     33  C   UNL     1      58.554  68.038  48.902  0.00  0.00    +0.000 C 
ATOM     34  C   UNL     1      58.510  67.472  48.304  0.00  0.00    +0.000 C 
ATOM     35  S   UNL     1      58.931  66.765  48.372  0.00  0.00    +0.000 S 
ATOM     36  S   UNL     1      59.396  66.625  49.039  0.00  0.00    +0.000 S 
ATOM     37  C   UNL     1      59.816  65.919  49.108  0.00  0.00    +0.000 C 
ATOM     38  C   UNL     1      60.281  65.779  49.775  0.00  0.00    +0.000 C 
ATOM     39  N   UNL     1      60.325  66.344  50.373  0.00  0.00    +0.000 NA
ATOM     40  C   UNL     1      60.790  66.204  51.040  0.00  0.00    +0.000 C 
ATOM     41  O   UNL     1      61.211  65.498  51.109  0.00  0.00    +0.000 OA
ATOM     42  C   UNL     1      60.834  66.771  51.639  0.00  0.00    +0.000 C 
ATOM     43  C   UNL     1      61.255  66.064  51.708  0.00  0.00    +0.000 C 
ATOM     44  C   UNL     1      61.720  65.924  52.375  0.00  0.00    +0.000 C 
ATOM     45  N   UNL     1      61.764  66.490  52.974  0.00  0.00    +0.000 NA
ATOM     46  O   UNL     1      62.141  65.218  52.443  0.00  0.00    +0.000 OA
ATOM     47  N   UNL     1      61.299  66.631  52.306  0.00  0.00    +0.000 NA
ATOM     48  C   UNL     1      61.343  67.196  52.904  0.00  0.00    +0.000 C 
ATOM     49  O   UNL     1      61.808  67.056  53.572  0.00  0.00    +0.000 OA
ATOM     50  C   UNL     1      60.702  65.073  49.844  0.00  0.00    +0.000 C 
ATOM     51  O   UNL     1      61.167  64.932  50.511  0.00  0.00    +0.000 OA
ATOM     52  N   UNL     1      60.658  64.507  49.245  0.00  0.00    +0.000 N 
ATOM     53  C   UNL     1      60.218  64.570  48.550  0.00  0.00    +0.000 C 
ATOM     54  C   UNL     1      60.334  63.880  48.112  0.00  0.00    +0.000 C 
ATOM     55  C   UNL     1      60.846  63.391  48.537  0.00  0.00    +0.000 C 
ATOM     56  C   UNL     1      61.045  63.778  49.237  0.00  0.00    +0.000 C 
ATOM     57  C   UNL     1      61.545  63.488  49.825  0.00  0.00    +0.000 C 
ATOM     58  O   UNL     1      61.896  62.746  49.740  0.00  0.00    +0.000 OA
ATOM     59  N   UNL     1      61.695  63.940  50.499  0.00  0.00    +0.000 NA
ATOM     60  C   UNL     1      62.195  63.650  51.088  0.00  0.00    +0.000 C 
ATOM     61  C   UNL     1      62.545  62.908  51.003  0.00  0.00    +0.000 C 
ATOM     62  C   UNL     1      62.396  62.455  50.329  0.00  0.00    +0.000 C 
ATOM     63  C   UNL     1      62.746  61.714  50.244  0.00  0.00    +0.000 C 
ATOM     64  N   UNL     1      62.596  61.262  49.571  0.00  0.00    +0.000 NA
ATOM     65  C   UNL     1      62.947  60.520  49.486  0.00  0.00    +0.000 C 
ATOM     66  N   UNL     1      62.798  60.068  48.813  0.00  0.00    +0.000 NA
ATOM     67  N   UNL     1      63.447  60.230  50.075  0.00  0.00    +0.000 NA
ATOM     68  C   UNL     1      62.344  64.102  51.762  0.00  0.00    +0.000 C 
ATOM     69  O   UNL     1      61.994  64.844  51.846  0.00  0.00    +0.000 OA
ATOM     70  N   UNL     1      62.844  63.812  52.350  0.00  0.00    +0.000 NA
ATOM     71  C   UNL     1      62.994  64.264  53.025  0.00  0.00    +0.000 C 
ATOM     72  C   UNL     1      63.493  63.974  53.613  0.00  0.00    +0.000 C 
ATOM     73  N   UNL     1      63.844  63.232  53.529  0.00  0.00    +0.000 NA
ATOM     74  O   UNL     1      63.643  64.426  54.287  0.00  0.00    +0.000 OA
ENDROOT
TORSDOF 0
ENDMDL
