MODEL 1
REMARK VINA RESULT:   -14.919      0.000      0.000
REMARK INTER + INTRA:         -14.919
REMARK INTER:                 -14.919
REMARK INTRA:                   0.000
REMARK UNBOUND:                 0.000
ROOT
REMARK  Name = desonide
REMARK                            x       y       z     vdW  Elec       q    Type
REMARK                         _______ _______ _______ _____ _____    ______ ____
ATOM      1  C   UNL     1      61.173  64.403  70.122  0.00  0.00    +0.000 C 
ATOM      2  C   UNL     1      60.572  64.026  69.701  0.00  0.00    +0.000 C 
ATOM      3  C   UNL     1      60.104  64.241  70.345  0.00  0.00    +0.000 C 
ATOM      4  O   UNL     1      59.874  63.694  69.414  0.00  0.00    +0.000 OA
ATOM      5  C   UNL     1      60.036  63.352  68.681  0.00  0.00    +0.000 C 
ATOM      6  C   UNL     1      59.705  62.936  68.051  0.00  0.00    +0.000 C 
ATOM      7  C   UNL     1      60.299  62.799  67.496  0.00  0.00    +0.000 C 
ATOM      8  C   UNL     1      60.293  62.415  66.765  0.00  0.00    +0.000 C 
ATOM      9  C   UNL     1      59.595  62.083  66.478  0.00  0.00    +0.000 C 
ATOM     10  C   UNL     1      59.590  61.699  65.748  0.00  0.00    +0.000 C 
ATOM     11  C   UNL     1      60.284  61.647  65.305  0.00  0.00    +0.000 C 
ATOM     12  C   UNL     1      60.279  61.263  64.575  0.00  0.00    +0.000 C 
ATOM     13  C   UNL     1      60.972  61.211  64.131  0.00  0.00    +0.000 C 
ATOM     14  O   UNL     1      60.968  60.828  63.401  0.00  0.00    +0.000 OA
ATOM     15  C   UNL     1      61.672  61.543  64.417  0.00  0.00    +0.000 C 
ATOM     16  C   UNL     1      61.677  61.927  65.148  0.00  0.00    +0.000 C 
ATOM     17  C   UNL     1      60.983  61.979  65.591  0.00  0.00    +0.000 C 
ATOM     18  C   UNL     1      61.682  62.311  65.878  0.00  0.00    +0.000 C 
ATOM     19  C   UNL     1      60.988  62.363  66.322  0.00  0.00    +0.000 C 
ATOM     20  C   UNL     1      61.687  62.695  66.608  0.00  0.00    +0.000 C 
ATOM     21  O   UNL     1      62.380  62.643  66.165  0.00  0.00    +0.000 OA
ATOM     22  C   UNL     1      61.691  63.079  67.338  0.00  0.00    +0.000 C 
ATOM     23  C   UNL     1      60.998  63.131  67.782  0.00  0.00    +0.000 C 
ATOM     24  C   UNL     1      61.764  63.403  67.922  0.00  0.00    +0.000 C 
ATOM     25  C   UNL     1      60.835  63.473  68.515  0.00  0.00    +0.000 C 
ATOM     26  O   UNL     1      61.167  63.889  69.145  0.00  0.00    +0.000 OA
ATOM     27  C   UNL     1      61.634  63.593  68.349  0.00  0.00    +0.000 C 
ATOM     28  O   UNL     1      62.168  63.416  67.746  0.00  0.00    +0.000 OA
ATOM     29  C   UNL     1      62.111  63.999  68.887  0.00  0.00    +0.000 C 
ATOM     30  O   UNL     1      61.788  64.284  69.591  0.00  0.00    +0.000 OA
ENDROOT
TORSDOF 0
ENDMDL
MODEL 2
REMARK VINA RESULT:   -14.653      0.719      4.405
REMARK INTER + INTRA:         -14.653
REMARK INTER:                 -14.653
REMARK INTRA:                   0.000
REMARK UNBOUND:                 0.000
ROOT
REMARK  Name = desonide
REMARK                            x       y       z     vdW  Elec       q    Type
REMARK                         _______ _______ _______ _____ _____    ______ ____
ATOM      1  C   UNL     1      61.897  60.967  63.012  0.00  0.00    +0.000 C 
ATOM      2  C   UNL     1      61.235  60.956  63.505  0.00  0.00    +0.000 C 
ATOM      3  C   UNL     1      60.905  60.496  62.906  0.00  0.00    +0.000 C 
ATOM      4  O   UNL     1      60.505  60.849  63.872  0.00  0.00    +0.000 OA
ATOM      5  C   UNL     1      60.522  61.245  64.596  0.00  0.00    +0.000 C 
ATOM      6  C   UNL     1      60.082  61.423  65.270  0.00  0.00    +0.000 C 
ATOM      7  C   UNL     1      60.551  61.886  65.766  0.00  0.00    +0.000 C 
ATOM      8  C   UNL     1      60.408  62.223  66.505  0.00  0.00    +0.000 C 
ATOM      9  C   UNL     1      59.678  62.116  66.874  0.00  0.00    +0.000 C 
ATOM     10  C   UNL     1      59.534  62.453  67.613  0.00  0.00    +0.000 C 
ATOM     11  C   UNL     1      60.122  62.898  67.984  0.00  0.00    +0.000 C 
ATOM     12  C   UNL     1      59.978  63.235  68.723  0.00  0.00    +0.000 C 
ATOM     13  C   UNL     1      60.565  63.680  69.095  0.00  0.00    +0.000 C 
ATOM     14  O   UNL     1      60.422  64.017  69.834  0.00  0.00    +0.000 OA
ATOM     15  C   UNL     1      61.296  63.787  68.727  0.00  0.00    +0.000 C 
ATOM     16  C   UNL     1      61.439  63.450  67.988  0.00  0.00    +0.000 C 
ATOM     17  C   UNL     1      60.852  63.005  67.616  0.00  0.00    +0.000 C 
ATOM     18  C   UNL     1      61.583  63.113  67.249  0.00  0.00    +0.000 C 
ATOM     19  C   UNL     1      60.995  62.668  66.877  0.00  0.00    +0.000 C 
ATOM     20  C   UNL     1      61.727  62.775  66.510  0.00  0.00    +0.000 C 
ATOM     21  O   UNL     1      62.313  63.219  66.881  0.00  0.00    +0.000 OA
ATOM     22  C   UNL     1      61.869  62.438  65.771  0.00  0.00    +0.000 C 
ATOM     23  C   UNL     1      61.283  61.993  65.399  0.00  0.00    +0.000 C 
ATOM     24  C   UNL     1      62.051  62.192  65.173  0.00  0.00    +0.000 C 
ATOM     25  C   UNL     1      61.264  61.597  64.675  0.00  0.00    +0.000 C 
ATOM     26  O   UNL     1      61.705  61.419  64.001  0.00  0.00    +0.000 OA
ATOM     27  C   UNL     1      62.006  61.949  64.755  0.00  0.00    +0.000 C 
ATOM     28  O   UNL     1      62.409  62.413  65.306  0.00  0.00    +0.000 OA
ATOM     29  C   UNL     1      62.570  61.864  64.158  0.00  0.00    +0.000 C 
ATOM     30  O   UNL     1      62.391  61.426  63.482  0.00  0.00    +0.000 OA
ENDROOT
TORSDOF 0
ENDMDL
MODEL 3
REMARK VINA RESULT:   -14.179      4.113      6.010
REMARK INTER + INTRA:         -14.179
REMARK INTER:                 -14.179
REMARK INTRA:                   0.000
REMARK UNBOUND:                 0.000
ROOT
REMARK  Name = desonide
REMARK                            x       y       z     vdW  Elec       q    Type
REMARK                         _______ _______ _______ _____ _____    ______ ____
ATOM      1  C   UNL     1      60.552  62.990  71.893  0.00  0.00    +0.000 C 
ATOM      2  C   UNL     1      61.070  63.057  71.254  0.00  0.00    +0.000 C 
ATOM      3  C   UNL     1      60.658  62.403  70.964  0.00  0.00    +0.000 C 
ATOM      4  O   UNL     1      61.501  62.987  70.554  0.00  0.00    +0.000 OA
ATOM      5  C   UNL     1      62.071  63.583  70.545  0.00  0.00    +0.000 C 
ATOM      6  C   UNL     1      62.690  63.908  70.108  0.00  0.00    +0.000 C 
ATOM      7  C   UNL     1      62.993  64.547  70.531  0.00  0.00    +0.000 C 
ATOM      8  C   UNL     1      63.607  65.075  70.370  0.00  0.00    +0.000 C 
ATOM      9  C   UNL     1      64.038  65.006  69.670  0.00  0.00    +0.000 C 
ATOM     10  C   UNL     1      64.652  65.533  69.509  0.00  0.00    +0.000 C 
ATOM     11  C   UNL     1      64.833  66.130  70.048  0.00  0.00    +0.000 C 
ATOM     12  C   UNL     1      65.447  66.658  69.887  0.00  0.00    +0.000 C 
ATOM     13  C   UNL     1      65.630  67.256  70.425  0.00  0.00    +0.000 C 
ATOM     14  O   UNL     1      66.243  67.783  70.265  0.00  0.00    +0.000 OA
ATOM     15  C   UNL     1      65.198  67.326  71.126  0.00  0.00    +0.000 C 
ATOM     16  C   UNL     1      64.585  66.798  71.287  0.00  0.00    +0.000 C 
ATOM     17  C   UNL     1      64.403  66.200  70.748  0.00  0.00    +0.000 C 
ATOM     18  C   UNL     1      63.971  66.271  71.448  0.00  0.00    +0.000 C 
ATOM     19  C   UNL     1      63.789  65.673  70.909  0.00  0.00    +0.000 C 
ATOM     20  C   UNL     1      63.358  65.743  71.609  0.00  0.00    +0.000 C 
ATOM     21  O   UNL     1      63.540  66.340  72.147  0.00  0.00    +0.000 OA
ATOM     22  C   UNL     1      62.745  65.215  71.769  0.00  0.00    +0.000 C 
ATOM     23  C   UNL     1      62.562  64.618  71.231  0.00  0.00    +0.000 C 
ATOM     24  C   UNL     1      62.236  64.821  71.961  0.00  0.00    +0.000 C 
ATOM     25  C   UNL     1      61.992  64.021  71.239  0.00  0.00    +0.000 C 
ATOM     26  O   UNL     1      61.373  63.696  71.678  0.00  0.00    +0.000 OA
ATOM     27  C   UNL     1      61.913  64.460  71.934  0.00  0.00    +0.000 C 
ATOM     28  O   UNL     1      62.273  65.109  72.293  0.00  0.00    +0.000 OA
ATOM     29  C   UNL     1      61.332  64.260  72.485  0.00  0.00    +0.000 C 
ATOM     30  O   UNL     1      60.830  63.621  72.341  0.00  0.00    +0.000 OA
ENDROOT
TORSDOF 0
ENDMDL
MODEL 4
REMARK VINA RESULT:   -14.158      1.588      4.556
REMARK INTER + INTRA:         -14.158
REMARK INTER:                 -14.158
REMARK INTRA:                   0.000
REMARK UNBOUND:                 0.000
ROOT
REMARK  Name = desonide
REMARK                            x       y       z     vdW  Elec       q    Type
REMARK                         _______ _______ _______ _____ _____    ______ ____
ATOM      1  C   UNL     1      60.815  62.513  65.698  0.00  0.00    +0.000 C 
ATOM      2  C   UNL     1      60.471  62.142  66.350  0.00  0.00    +0.000 C 
ATOM      3  C   UNL     1      60.054  61.718  65.778  0.00  0.00    +0.000 C 
ATOM      4  O   UNL     1      60.040  61.682  66.881  0.00  0.00    +0.000 OA
ATOM      5  C   UNL     1      60.263  61.899  67.646  0.00  0.00    +0.000 C 
ATOM      6  C   UNL     1      60.135  61.750  68.446  0.00  0.00    +0.000 C 
ATOM      7  C   UNL     1      60.623  62.252  68.881  0.00  0.00    +0.000 C 
ATOM      8  C   UNL     1      60.732  62.349  69.693  0.00  0.00    +0.000 C 
ATOM      9  C   UNL     1      60.301  61.890  70.226  0.00  0.00    +0.000 C 
ATOM     10  C   UNL     1      60.410  61.987  71.038  0.00  0.00    +0.000 C 
ATOM     11  C   UNL     1      60.950  62.545  71.317  0.00  0.00    +0.000 C 
ATOM     12  C   UNL     1      61.058  62.643  72.129  0.00  0.00    +0.000 C 
ATOM     13  C   UNL     1      61.598  63.200  72.409  0.00  0.00    +0.000 C 
ATOM     14  O   UNL     1      61.707  63.299  73.221  0.00  0.00    +0.000 OA
ATOM     15  C   UNL     1      62.029  63.661  71.877  0.00  0.00    +0.000 C 
ATOM     16  C   UNL     1      61.920  63.563  71.065  0.00  0.00    +0.000 C 
ATOM     17  C   UNL     1      61.380  63.005  70.785  0.00  0.00    +0.000 C 
ATOM     18  C   UNL     1      61.812  63.465  70.253  0.00  0.00    +0.000 C 
ATOM     19  C   UNL     1      61.272  62.907  69.973  0.00  0.00    +0.000 C 
ATOM     20  C   UNL     1      61.703  63.368  69.441  0.00  0.00    +0.000 C 
ATOM     21  O   UNL     1      62.242  63.925  69.721  0.00  0.00    +0.000 OA
ATOM     22  C   UNL     1      61.594  63.270  68.629  0.00  0.00    +0.000 C 
ATOM     23  C   UNL     1      61.055  62.712  68.349  0.00  0.00    +0.000 C 
ATOM     24  C   UNL     1      61.554  63.241  67.960  0.00  0.00    +0.000 C 
ATOM     25  C   UNL     1      60.831  62.494  67.585  0.00  0.00    +0.000 C 
ATOM     26  O   UNL     1      60.960  62.644  66.784  0.00  0.00    +0.000 OA
ATOM     27  C   UNL     1      61.400  63.089  67.525  0.00  0.00    +0.000 C 
ATOM     28  O   UNL     1      61.856  63.555  68.031  0.00  0.00    +0.000 OA
ATOM     29  C   UNL     1      61.642  63.356  66.783  0.00  0.00    +0.000 C 
ATOM     30  O   UNL     1      61.314  63.027  66.100  0.00  0.00    +0.000 OA
ENDROOT
TORSDOF 0
ENDMDL
MODEL 5
REMARK VINA RESULT:   -13.785      4.335      6.121
REMARK INTER + INTRA:         -13.785
REMARK INTER:                 -13.785
REMARK INTRA:                   0.000
REMARK UNBOUND:                 0.000
ROOT
REMARK  Name = desonide
REMARK                            x       y       z     vdW  Elec       q    Type
REMARK                         _______ _______ _______ _____ _____    ______ ____
ATOM      1  C   UNL     1      65.826  67.701  70.838  0.00  0.00    +0.000 C 
ATOM      2  C   UNL     1      65.537  67.082  70.376  0.00  0.00    +0.000 C 
ATOM      3  C   UNL     1      66.128  67.314  69.850  0.00  0.00    +0.000 C 
ATOM      4  O   UNL     1      65.371  66.512  69.804  0.00  0.00    +0.000 OA
ATOM      5  C   UNL     1      64.737  66.058  70.073  0.00  0.00    +0.000 C 
ATOM      6  C   UNL     1      64.243  65.424  69.886  0.00  0.00    +0.000 C 
ATOM      7  C   UNL     1      63.712  65.322  70.508  0.00  0.00    +0.000 C 
ATOM      8  C   UNL     1      63.099  64.784  70.628  0.00  0.00    +0.000 C 
ATOM      9  C   UNL     1      62.932  64.213  70.057  0.00  0.00    +0.000 C 
ATOM     10  C   UNL     1      62.319  63.674  70.177  0.00  0.00    +0.000 C 
ATOM     11  C   UNL     1      61.872  63.707  70.869  0.00  0.00    +0.000 C 
ATOM     12  C   UNL     1      61.259  63.168  70.989  0.00  0.00    +0.000 C 
ATOM     13  C   UNL     1      60.812  63.199  71.681  0.00  0.00    +0.000 C 
ATOM     14  O   UNL     1      60.198  62.661  71.802  0.00  0.00    +0.000 OA
ATOM     15  C   UNL     1      60.977  63.770  72.254  0.00  0.00    +0.000 C 
ATOM     16  C   UNL     1      61.591  64.309  72.134  0.00  0.00    +0.000 C 
ATOM     17  C   UNL     1      62.038  64.277  71.441  0.00  0.00    +0.000 C 
ATOM     18  C   UNL     1      62.204  64.847  72.014  0.00  0.00    +0.000 C 
ATOM     19  C   UNL     1      62.651  64.815  71.321  0.00  0.00    +0.000 C 
ATOM     20  C   UNL     1      62.817  65.386  71.894  0.00  0.00    +0.000 C 
ATOM     21  O   UNL     1      62.371  65.418  72.586  0.00  0.00    +0.000 OA
ATOM     22  C   UNL     1      63.431  65.924  71.773  0.00  0.00    +0.000 C 
ATOM     23  C   UNL     1      63.878  65.893  71.081  0.00  0.00    +0.000 C 
ATOM     24  C   UNL     1      63.913  66.390  71.739  0.00  0.00    +0.000 C 
ATOM     25  C   UNL     1      64.512  66.347  70.811  0.00  0.00    +0.000 C 
ATOM     26  O   UNL     1      65.006  66.981  70.999  0.00  0.00    +0.000 OA
ATOM     27  C   UNL     1      64.286  66.637  71.550  0.00  0.00    +0.000 C 
ATOM     28  O   UNL     1      63.722  66.469  72.128  0.00  0.00    +0.000 OA
ATOM     29  C   UNL     1      64.687  67.277  71.883  0.00  0.00    +0.000 C 
ATOM     30  O   UNL     1      65.313  67.627  71.476  0.00  0.00    +0.000 OA
ENDROOT
TORSDOF 0
ENDMDL
MODEL 6
REMARK VINA RESULT:   -13.707      1.465      2.323
REMARK INTER + INTRA:         -13.707
REMARK INTER:                 -13.707
REMARK INTRA:                   0.000
REMARK UNBOUND:                 0.000
ROOT
REMARK  Name = desonide
REMARK                            x       y       z     vdW  Elec       q    Type
REMARK                         _______ _______ _______ _____ _____    ______ ____
ATOM      1  C   UNL     1      61.929  64.094  72.464  0.00  0.00    +0.000 C 
ATOM      2  C   UNL     1      61.451  63.516  72.120  0.00  0.00    +0.000 C 
ATOM      3  C   UNL     1      61.245  63.346  72.900  0.00  0.00    +0.000 C 
ATOM      4  O   UNL     1      60.931  62.903  71.939  0.00  0.00    +0.000 OA
ATOM      5  C   UNL     1      60.915  62.815  71.119  0.00  0.00    +0.000 C 
ATOM      6  C   UNL     1      60.583  62.382  70.500  0.00  0.00    +0.000 C 
ATOM      7  C   UNL     1      60.889  62.674  69.792  0.00  0.00    +0.000 C 
ATOM      8  C   UNL     1      60.761  62.460  69.006  0.00  0.00    +0.000 C 
ATOM      9  C   UNL     1      60.240  61.846  68.824  0.00  0.00    +0.000 C 
ATOM     10  C   UNL     1      60.112  61.632  68.037  0.00  0.00    +0.000 C 
ATOM     11  C   UNL     1      60.505  62.033  67.433  0.00  0.00    +0.000 C 
ATOM     12  C   UNL     1      60.377  61.819  66.646  0.00  0.00    +0.000 C 
ATOM     13  C   UNL     1      60.769  62.218  66.041  0.00  0.00    +0.000 C 
ATOM     14  O   UNL     1      60.641  62.005  65.254  0.00  0.00    +0.000 OA
ATOM     15  C   UNL     1      61.290  62.832  66.221  0.00  0.00    +0.000 C 
ATOM     16  C   UNL     1      61.418  63.046  67.008  0.00  0.00    +0.000 C 
ATOM     17  C   UNL     1      61.025  62.646  67.613  0.00  0.00    +0.000 C 
ATOM     18  C   UNL     1      61.547  63.260  67.794  0.00  0.00    +0.000 C 
ATOM     19  C   UNL     1      61.154  62.860  68.400  0.00  0.00    +0.000 C 
ATOM     20  C   UNL     1      61.675  63.474  68.581  0.00  0.00    +0.000 C 
ATOM     21  O   UNL     1      62.067  63.873  67.976  0.00  0.00    +0.000 OA
ATOM     22  C   UNL     1      61.802  63.687  69.367  0.00  0.00    +0.000 C 
ATOM     23  C   UNL     1      61.410  63.287  69.973  0.00  0.00    +0.000 C 
ATOM     24  C   UNL     1      61.951  63.910  69.983  0.00  0.00    +0.000 C 
ATOM     25  C   UNL     1      61.426  63.375  70.793  0.00  0.00    +0.000 C 
ATOM     26  O   UNL     1      61.758  63.808  71.412  0.00  0.00    +0.000 OA
ATOM     27  C   UNL     1      61.937  63.934  70.467  0.00  0.00    +0.000 C 
ATOM     28  O   UNL     1      62.194  64.167  69.719  0.00  0.00    +0.000 OA
ATOM     29  C   UNL     1      62.351  64.452  70.959  0.00  0.00    +0.000 C 
ATOM     30  O   UNL     1      62.253  64.409  71.778  0.00  0.00    +0.000 OA
ENDROOT
TORSDOF 0
ENDMDL
MODEL 7
REMARK VINA RESULT:   -13.009      2.333      5.588
REMARK INTER + INTRA:         -13.009
REMARK INTER:                 -13.009
REMARK INTRA:                   0.000
REMARK UNBOUND:                 0.000
ROOT
REMARK  Name = desonide
REMARK                            x       y       z     vdW  Elec       q    Type
REMARK                         _______ _______ _______ _____ _____    ______ ____
ATOM      1  C   UNL     1      60.373  61.785  69.278  0.00  0.00    +0.000 C 
ATOM      2  C   UNL     1      60.845  62.365  68.928  0.00  0.00    +0.000 C 
ATOM      3  C   UNL     1      60.624  61.997  68.224  0.00  0.00    +0.000 C 
ATOM      4  O   UNL     1      61.270  62.868  68.432  0.00  0.00    +0.000 OA
ATOM      5  C   UNL     1      61.655  63.426  68.902  0.00  0.00    +0.000 C 
ATOM      6  C   UNL     1      62.155  64.081  68.887  0.00  0.00    +0.000 C 
ATOM      7  C   UNL     1      62.277  64.328  69.664  0.00  0.00    +0.000 C 
ATOM      8  C   UNL     1      62.720  64.945  69.984  0.00  0.00    +0.000 C 
ATOM      9  C   UNL     1      63.146  65.449  69.488  0.00  0.00    +0.000 C 
ATOM     10  C   UNL     1      63.589  66.066  69.808  0.00  0.00    +0.000 C 
ATOM     11  C   UNL     1      63.607  66.181  70.625  0.00  0.00    +0.000 C 
ATOM     12  C   UNL     1      64.050  66.798  70.945  0.00  0.00    +0.000 C 
ATOM     13  C   UNL     1      64.068  66.914  71.762  0.00  0.00    +0.000 C 
ATOM     14  O   UNL     1      64.511  67.531  72.082  0.00  0.00    +0.000 OA
ATOM     15  C   UNL     1      63.643  66.411  72.259  0.00  0.00    +0.000 C 
ATOM     16  C   UNL     1      63.199  65.793  71.939  0.00  0.00    +0.000 C 
ATOM     17  C   UNL     1      63.181  65.678  71.121  0.00  0.00    +0.000 C 
ATOM     18  C   UNL     1      62.756  65.175  71.619  0.00  0.00    +0.000 C 
ATOM     19  C   UNL     1      62.738  65.060  70.801  0.00  0.00    +0.000 C 
ATOM     20  C   UNL     1      62.313  64.557  71.298  0.00  0.00    +0.000 C 
ATOM     21  O   UNL     1      62.330  64.672  72.114  0.00  0.00    +0.000 OA
ATOM     22  C   UNL     1      61.870  63.940  70.978  0.00  0.00    +0.000 C 
ATOM     23  C   UNL     1      61.851  63.825  70.161  0.00  0.00    +0.000 C 
ATOM     24  C   UNL     1      61.491  63.421  70.783  0.00  0.00    +0.000 C 
ATOM     25  C   UNL     1      61.467  63.267  69.690  0.00  0.00    +0.000 C 
ATOM     26  O   UNL     1      60.966  62.612  69.706  0.00  0.00    +0.000 OA
ATOM     27  C   UNL     1      61.279  63.109  70.478  0.00  0.00    +0.000 C 
ATOM     28  O   UNL     1      61.451  63.418  71.223  0.00  0.00    +0.000 OA
ATOM     29  C   UNL     1      60.782  62.477  70.665  0.00  0.00    +0.000 C 
ATOM     30  O   UNL     1      60.473  62.004  70.063  0.00  0.00    +0.000 OA
ENDROOT
TORSDOF 0
ENDMDL
MODEL 8
REMARK VINA RESULT:   -13.006      0.985      4.544
REMARK INTER + INTRA:         -13.006
REMARK INTER:                 -13.006
REMARK INTRA:                   0.000
REMARK UNBOUND:                 0.000
ROOT
REMARK  Name = desonide
REMARK                            x       y       z     vdW  Elec       q    Type
REMARK                         _______ _______ _______ _____ _____    ______ ____
ATOM      1  C   UNL     1      60.404  61.244  64.696  0.00  0.00    +0.000 C 
ATOM      2  C   UNL     1      61.036  61.580  65.105  0.00  0.00    +0.000 C 
ATOM      3  C   UNL     1      61.489  61.256  64.496  0.00  0.00    +0.000 C 
ATOM      4  O   UNL     1      61.763  61.849  65.387  0.00  0.00    +0.000 OA
ATOM      5  C   UNL     1      61.628  62.268  66.084  0.00  0.00    +0.000 C 
ATOM      6  C   UNL     1      61.993  62.694  66.688  0.00  0.00    +0.000 C 
ATOM      7  C   UNL     1      61.408  62.948  67.211  0.00  0.00    +0.000 C 
ATOM      8  C   UNL     1      61.443  63.389  67.908  0.00  0.00    +0.000 C 
ATOM      9  C   UNL     1      62.170  63.658  68.190  0.00  0.00    +0.000 C 
ATOM     10  C   UNL     1      62.205  64.099  68.886  0.00  0.00    +0.000 C 
ATOM     11  C   UNL     1      61.513  64.271  69.300  0.00  0.00    +0.000 C 
ATOM     12  C   UNL     1      61.548  64.712  69.997  0.00  0.00    +0.000 C 
ATOM     13  C   UNL     1      60.857  64.884  70.411  0.00  0.00    +0.000 C 
ATOM     14  O   UNL     1      60.891  65.325  71.108  0.00  0.00    +0.000 OA
ATOM     15  C   UNL     1      60.129  64.616  70.130  0.00  0.00    +0.000 C 
ATOM     16  C   UNL     1      60.094  64.175  69.433  0.00  0.00    +0.000 C 
ATOM     17  C   UNL     1      60.786  64.002  69.019  0.00  0.00    +0.000 C 
ATOM     18  C   UNL     1      60.058  63.734  68.737  0.00  0.00    +0.000 C 
ATOM     19  C   UNL     1      60.751  63.561  68.322  0.00  0.00    +0.000 C 
ATOM     20  C   UNL     1      60.023  63.293  68.041  0.00  0.00    +0.000 C 
ATOM     21  O   UNL     1      59.331  63.465  68.455  0.00  0.00    +0.000 OA
ATOM     22  C   UNL     1      59.989  62.852  67.344  0.00  0.00    +0.000 C 
ATOM     23  C   UNL     1      60.680  62.679  66.930  0.00  0.00    +0.000 C 
ATOM     24  C   UNL     1      59.890  62.490  66.787  0.00  0.00    +0.000 C 
ATOM     25  C   UNL     1      60.816  62.259  66.233  0.00  0.00    +0.000 C 
ATOM     26  O   UNL     1      60.450  61.834  65.628  0.00  0.00    +0.000 OA
ATOM     27  C   UNL     1      60.005  62.250  66.382  0.00  0.00    +0.000 C 
ATOM     28  O   UNL     1      59.483  62.540  66.950  0.00  0.00    +0.000 OA
ATOM     29  C   UNL     1      59.494  61.860  65.863  0.00  0.00    +0.000 C 
ATOM     30  O   UNL     1      59.796  61.480  65.196  0.00  0.00    +0.000 OA
ENDROOT
TORSDOF 0
ENDMDL
MODEL 9
REMARK VINA RESULT:   -12.808      3.744      5.129
REMARK INTER + INTRA:         -12.808
REMARK INTER:                 -12.808
REMARK INTRA:                   0.000
REMARK UNBOUND:                 0.000
ROOT
REMARK  Name = desonide
REMARK                            x       y       z     vdW  Elec       q    Type
REMARK                         _______ _______ _______ _____ _____    ______ ____
ATOM      1  C   UNL     1      62.019  61.283  72.942  0.00  0.00    +0.000 C 
ATOM      2  C   UNL     1      61.782  61.385  72.158  0.00  0.00    +0.000 C 
ATOM      3  C   UNL     1      62.004  60.594  72.079  0.00  0.00    +0.000 C 
ATOM      4  O   UNL     1      61.591  61.322  71.359  0.00  0.00    +0.000 OA
ATOM      5  C   UNL     1      61.300  62.051  71.107  0.00  0.00    +0.000 C 
ATOM      6  C   UNL     1      61.003  62.464  70.458  0.00  0.00    +0.000 C 
ATOM      7  C   UNL     1      60.830  63.232  70.701  0.00  0.00    +0.000 C 
ATOM      8  C   UNL     1      60.523  63.883  70.297  0.00  0.00    +0.000 C 
ATOM      9  C   UNL     1      60.333  63.821  69.497  0.00  0.00    +0.000 C 
ATOM     10  C   UNL     1      60.026  64.472  69.093  0.00  0.00    +0.000 C 
ATOM     11  C   UNL     1      59.910  65.186  69.490  0.00  0.00    +0.000 C 
ATOM     12  C   UNL     1      59.604  65.837  69.087  0.00  0.00    +0.000 C 
ATOM     13  C   UNL     1      59.488  66.551  69.482  0.00  0.00    +0.000 C 
ATOM     14  O   UNL     1      59.181  67.202  69.079  0.00  0.00    +0.000 OA
ATOM     15  C   UNL     1      59.678  66.614  70.283  0.00  0.00    +0.000 C 
ATOM     16  C   UNL     1      59.985  65.963  70.687  0.00  0.00    +0.000 C 
ATOM     17  C   UNL     1      60.101  65.249  70.290  0.00  0.00    +0.000 C 
ATOM     18  C   UNL     1      60.291  65.312  71.090  0.00  0.00    +0.000 C 
ATOM     19  C   UNL     1      60.407  64.598  70.694  0.00  0.00    +0.000 C 
ATOM     20  C   UNL     1      60.598  64.661  71.494  0.00  0.00    +0.000 C 
ATOM     21  O   UNL     1      60.482  65.374  71.890  0.00  0.00    +0.000 OA
ATOM     22  C   UNL     1      60.904  64.010  71.897  0.00  0.00    +0.000 C 
ATOM     23  C   UNL     1      61.020  63.296  71.501  0.00  0.00    +0.000 C 
ATOM     24  C   UNL     1      61.156  63.521  72.283  0.00  0.00    +0.000 C 
ATOM     25  C   UNL     1      61.311  62.566  71.752  0.00  0.00    +0.000 C 
ATOM     26  O   UNL     1      61.609  62.154  72.402  0.00  0.00    +0.000 OA
ATOM     27  C   UNL     1      61.322  63.080  72.397  0.00  0.00    +0.000 C 
ATOM     28  O   UNL     1      61.123  63.864  72.559  0.00  0.00    +0.000 OA
ATOM     29  C   UNL     1      61.595  62.817  73.130  0.00  0.00    +0.000 C 
ATOM     30  O   UNL     1      61.858  62.040  73.217  0.00  0.00    +0.000 OA
ENDROOT
TORSDOF 0
ENDMDL
