MODEL 1
REMARK VINA RESULT:   -15.269      0.000      0.000
REMARK INTER + INTRA:         -15.269
REMARK INTER:                 -15.269
REMARK INTRA:                   0.000
REMARK UNBOUND:                 0.000
ROOT
REMARK  Name = dexamethasone acetate
REMARK                            x       y       z     vdW  Elec       q    Type
REMARK                         _______ _______ _______ _____ _____    ______ ____
ATOM      1  C   UNL     1      60.119  63.530  69.441  0.00  0.00    +0.000 C 
ATOM      2  C   UNL     1      60.432  63.290  68.717  0.00  0.00    +0.000 C 
ATOM      3  C   UNL     1      60.037  62.856  68.137  0.00  0.00    +0.000 C 
ATOM      4  C   UNL     1      60.556  62.741  67.507  0.00  0.00    +0.000 C 
ATOM      5  C   UNL     1      60.469  62.352  66.784  0.00  0.00    +0.000 C 
ATOM      6  C   UNL     1      59.753  61.990  66.594  0.00  0.00    +0.000 C 
ATOM      7  C   UNL     1      59.666  61.601  65.871  0.00  0.00    +0.000 C 
ATOM      8  C   UNL     1      60.296  61.575  65.339  0.00  0.00    +0.000 C 
ATOM      9  C   UNL     1      60.209  61.186  64.616  0.00  0.00    +0.000 C 
ATOM     10  C   UNL     1      60.838  61.160  64.084  0.00  0.00    +0.000 C 
ATOM     11  O   UNL     1      60.752  60.772  63.362  0.00  0.00    +0.000 OA
ATOM     12  C   UNL     1      61.555  61.522  64.274  0.00  0.00    +0.000 C 
ATOM     13  C   UNL     1      61.642  61.910  64.997  0.00  0.00    +0.000 C 
ATOM     14  C   UNL     1      61.013  61.937  65.529  0.00  0.00    +0.000 C 
ATOM     15  C   UNL     1      61.729  62.299  65.719  0.00  0.00    +0.000 C 
ATOM     16  C   UNL     1      61.099  62.326  66.252  0.00  0.00    +0.000 C 
ATOM     17  F   UNL     1      61.882  62.559  66.130  0.00  0.00    +0.000 F 
ATOM     18  C   UNL     1      61.816  62.688  66.442  0.00  0.00    +0.000 C 
ATOM     19  O   UNL     1      62.445  62.661  65.909  0.00  0.00    +0.000 OA
ATOM     20  C   UNL     1      61.903  63.076  67.164  0.00  0.00    +0.000 C 
ATOM     21  C   UNL     1      61.273  63.103  67.697  0.00  0.00    +0.000 C 
ATOM     22  C   UNL     1      61.953  63.488  67.962  0.00  0.00    +0.000 C 
ATOM     23  C   UNL     1      61.197  63.443  68.445  0.00  0.00    +0.000 C 
ATOM     24  O   UNL     1      61.960  63.750  68.488  0.00  0.00    +0.000 OA
ATOM     25  C   UNL     1      61.450  63.864  69.107  0.00  0.00    +0.000 C 
ATOM     26  O   UNL     1      62.218  64.165  69.134  0.00  0.00    +0.000 OA
ATOM     27  C   UNL     1      60.937  63.984  69.741  0.00  0.00    +0.000 C 
ATOM     28  O   UNL     1      61.192  64.406  70.403  0.00  0.00    +0.000 OA
ATOM     29  C   UNL     1      60.678  64.526  71.038  0.00  0.00    +0.000 C 
ATOM     30  C   UNL     1      60.932  64.948  71.701  0.00  0.00    +0.000 C 
ATOM     31  O   UNL     1      59.911  64.225  71.010  0.00  0.00    +0.000 OA
ENDROOT
TORSDOF 0
ENDMDL
MODEL 2
REMARK VINA RESULT:   -14.309      3.947      6.227
REMARK INTER + INTRA:         -14.309
REMARK INTER:                 -14.309
REMARK INTRA:                   0.000
REMARK UNBOUND:                 0.000
ROOT
REMARK  Name = dexamethasone acetate
REMARK                            x       y       z     vdW  Elec       q    Type
REMARK                         _______ _______ _______ _____ _____    ______ ____
ATOM      1  C   UNL     1      62.027  63.246  70.040  0.00  0.00    +0.000 C 
ATOM      2  C   UNL     1      62.479  63.882  70.309  0.00  0.00    +0.000 C 
ATOM      3  C   UNL     1      63.066  64.275  69.883  0.00  0.00    +0.000 C 
ATOM      4  C   UNL     1      63.372  64.872  70.361  0.00  0.00    +0.000 C 
ATOM      5  C   UNL     1      63.962  65.434  70.233  0.00  0.00    +0.000 C 
ATOM      6  C   UNL     1      64.360  65.458  69.511  0.00  0.00    +0.000 C 
ATOM      7  C   UNL     1      64.950  66.020  69.383  0.00  0.00    +0.000 C 
ATOM      8  C   UNL     1      65.142  66.558  69.977  0.00  0.00    +0.000 C 
ATOM      9  C   UNL     1      65.732  67.121  69.848  0.00  0.00    +0.000 C 
ATOM     10  C   UNL     1      65.924  67.660  70.443  0.00  0.00    +0.000 C 
ATOM     11  O   UNL     1      66.514  68.222  70.315  0.00  0.00    +0.000 OA
ATOM     12  C   UNL     1      65.527  67.636  71.165  0.00  0.00    +0.000 C 
ATOM     13  C   UNL     1      64.937  67.074  71.293  0.00  0.00    +0.000 C 
ATOM     14  C   UNL     1      64.744  66.535  70.700  0.00  0.00    +0.000 C 
ATOM     15  C   UNL     1      64.347  66.512  71.422  0.00  0.00    +0.000 C 
ATOM     16  C   UNL     1      64.155  65.973  70.828  0.00  0.00    +0.000 C 
ATOM     17  F   UNL     1      63.976  66.211  71.598  0.00  0.00    +0.000 F 
ATOM     18  C   UNL     1      63.757  65.950  71.551  0.00  0.00    +0.000 C 
ATOM     19  O   UNL     1      63.950  66.489  72.144  0.00  0.00    +0.000 OA
ATOM     20  C   UNL     1      63.168  65.388  71.679  0.00  0.00    +0.000 C 
ATOM     21  C   UNL     1      62.975  64.849  71.084  0.00  0.00    +0.000 C 
ATOM     22  C   UNL     1      62.532  64.759  71.775  0.00  0.00    +0.000 C 
ATOM     23  C   UNL     1      62.422  64.237  71.052  0.00  0.00    +0.000 C 
ATOM     24  O   UNL     1      62.122  64.339  71.813  0.00  0.00    +0.000 OA
ATOM     25  C   UNL     1      61.821  63.753  71.342  0.00  0.00    +0.000 C 
ATOM     26  O   UNL     1      61.531  63.869  72.107  0.00  0.00    +0.000 OA
ATOM     27  C   UNL     1      61.509  63.153  70.870  0.00  0.00    +0.000 C 
ATOM     28  O   UNL     1      60.907  62.670  71.161  0.00  0.00    +0.000 OA
ATOM     29  C   UNL     1      60.595  62.069  70.688  0.00  0.00    +0.000 C 
ATOM     30  C   UNL     1      59.993  61.586  70.979  0.00  0.00    +0.000 C 
ATOM     31  O   UNL     1      60.885  61.954  69.925  0.00  0.00    +0.000 OA
ENDROOT
TORSDOF 0
ENDMDL
MODEL 3
REMARK VINA RESULT:   -14.287      3.615      5.318
REMARK INTER + INTRA:         -14.287
REMARK INTER:                 -14.287
REMARK INTRA:                   0.000
REMARK UNBOUND:                 0.000
ROOT
REMARK  Name = dexamethasone acetate
REMARK                            x       y       z     vdW  Elec       q    Type
REMARK                         _______ _______ _______ _____ _____    ______ ____
ATOM      1  C   UNL     1      64.672  66.420  71.163  0.00  0.00    +0.000 C 
ATOM      2  C   UNL     1      64.128  65.845  70.928  0.00  0.00    +0.000 C 
ATOM      3  C   UNL     1      63.570  65.479  71.413  0.00  0.00    +0.000 C 
ATOM      4  C   UNL     1      63.145  64.943  70.952  0.00  0.00    +0.000 C 
ATOM      5  C   UNL     1      62.527  64.428  71.133  0.00  0.00    +0.000 C 
ATOM      6  C   UNL     1      62.232  64.391  71.903  0.00  0.00    +0.000 C 
ATOM      7  C   UNL     1      61.614  63.876  72.084  0.00  0.00    +0.000 C 
ATOM      8  C   UNL     1      61.291  63.396  71.495  0.00  0.00    +0.000 C 
ATOM      9  C   UNL     1      60.673  62.880  71.677  0.00  0.00    +0.000 C 
ATOM     10  C   UNL     1      60.350  62.401  71.089  0.00  0.00    +0.000 C 
ATOM     11  O   UNL     1      59.733  61.885  71.270  0.00  0.00    +0.000 OA
ATOM     12  C   UNL     1      60.645  62.437  70.319  0.00  0.00    +0.000 C 
ATOM     13  C   UNL     1      61.263  62.952  70.138  0.00  0.00    +0.000 C 
ATOM     14  C   UNL     1      61.586  63.432  70.726  0.00  0.00    +0.000 C 
ATOM     15  C   UNL     1      61.881  63.468  69.956  0.00  0.00    +0.000 C 
ATOM     16  C   UNL     1      62.204  63.948  70.544  0.00  0.00    +0.000 C 
ATOM     17  F   UNL     1      62.252  63.746  69.746  0.00  0.00    +0.000 F 
ATOM     18  C   UNL     1      62.499  63.983  69.775  0.00  0.00    +0.000 C 
ATOM     19  O   UNL     1      62.175  63.503  69.187  0.00  0.00    +0.000 OA
ATOM     20  C   UNL     1      63.116  64.499  69.593  0.00  0.00    +0.000 C 
ATOM     21  C   UNL     1      63.440  64.979  70.182  0.00  0.00    +0.000 C 
ATOM     22  C   UNL     1      63.790  65.075  69.440  0.00  0.00    +0.000 C 
ATOM     23  C   UNL     1      64.048  65.537  70.167  0.00  0.00    +0.000 C 
ATOM     24  O   UNL     1      64.229  65.458  69.367  0.00  0.00    +0.000 OA
ATOM     25  C   UNL     1      64.647  65.984  69.819  0.00  0.00    +0.000 C 
ATOM     26  O   UNL     1      64.816  65.893  69.017  0.00  0.00    +0.000 OA
ATOM     27  C   UNL     1      65.077  66.521  70.273  0.00  0.00    +0.000 C 
ATOM     28  O   UNL     1      65.677  66.969  69.925  0.00  0.00    +0.000 OA
ATOM     29  C   UNL     1      66.107  67.507  70.380  0.00  0.00    +0.000 C 
ATOM     30  C   UNL     1      66.707  67.954  70.032  0.00  0.00    +0.000 C 
ATOM     31  O   UNL     1      65.937  67.597  71.182  0.00  0.00    +0.000 OA
ENDROOT
TORSDOF 0
ENDMDL
MODEL 4
REMARK VINA RESULT:   -14.244      1.683      5.534
REMARK INTER + INTRA:         -14.244
REMARK INTER:                 -14.244
REMARK INTRA:                   0.000
REMARK UNBOUND:                 0.000
ROOT
REMARK  Name = dexamethasone acetate
REMARK                            x       y       z     vdW  Elec       q    Type
REMARK                         _______ _______ _______ _____ _____    ______ ____
ATOM      1  C   UNL     1      60.961  63.475  67.343  0.00  0.00    +0.000 C 
ATOM      2  C   UNL     1      60.737  63.542  68.134  0.00  0.00    +0.000 C 
ATOM      3  C   UNL     1      60.496  64.235  68.513  0.00  0.00    +0.000 C 
ATOM      4  C   UNL     1      60.325  64.050  69.298  0.00  0.00    +0.000 C 
ATOM      5  C   UNL     1      60.063  64.511  69.930  0.00  0.00    +0.000 C 
ATOM      6  C   UNL     1      59.928  65.318  69.824  0.00  0.00    +0.000 C 
ATOM      7  C   UNL     1      59.666  65.779  70.455  0.00  0.00    +0.000 C 
ATOM      8  C   UNL     1      59.540  65.434  71.193  0.00  0.00    +0.000 C 
ATOM      9  C   UNL     1      59.278  65.896  71.825  0.00  0.00    +0.000 C 
ATOM     10  C   UNL     1      59.152  65.550  72.563  0.00  0.00    +0.000 C 
ATOM     11  O   UNL     1      58.890  66.012  73.195  0.00  0.00    +0.000 OA
ATOM     12  C   UNL     1      59.287  64.744  72.670  0.00  0.00    +0.000 C 
ATOM     13  C   UNL     1      59.548  64.282  72.039  0.00  0.00    +0.000 C 
ATOM     14  C   UNL     1      59.675  64.627  71.300  0.00  0.00    +0.000 C 
ATOM     15  C   UNL     1      59.810  63.820  71.407  0.00  0.00    +0.000 C 
ATOM     16  C   UNL     1      59.936  64.165  70.669  0.00  0.00    +0.000 C 
ATOM     17  F   UNL     1      59.969  63.456  71.088  0.00  0.00    +0.000 F 
ATOM     18  C   UNL     1      60.071  63.359  70.776  0.00  0.00    +0.000 C 
ATOM     19  O   UNL     1      59.945  63.014  71.514  0.00  0.00    +0.000 OA
ATOM     20  C   UNL     1      60.333  62.897  70.144  0.00  0.00    +0.000 C 
ATOM     21  C   UNL     1      60.460  63.243  69.405  0.00  0.00    +0.000 C 
ATOM     22  C   UNL     1      60.617  62.433  69.429  0.00  0.00    +0.000 C 
ATOM     23  C   UNL     1      60.715  62.929  68.686  0.00  0.00    +0.000 C 
ATOM     24  O   UNL     1      60.803  62.152  68.947  0.00  0.00    +0.000 OA
ATOM     25  C   UNL     1      60.971  62.334  68.175  0.00  0.00    +0.000 C 
ATOM     26  O   UNL     1      61.054  61.561  68.452  0.00  0.00    +0.000 OA
ATOM     27  C   UNL     1      61.145  62.511  67.389  0.00  0.00    +0.000 C 
ATOM     28  O   UNL     1      61.401  61.915  66.879  0.00  0.00    +0.000 OA
ATOM     29  C   UNL     1      61.575  62.092  66.091  0.00  0.00    +0.000 C 
ATOM     30  C   UNL     1      61.831  61.497  65.581  0.00  0.00    +0.000 C 
ATOM     31  O   UNL     1      61.492  62.865  65.815  0.00  0.00    +0.000 OA
ENDROOT
TORSDOF 0
ENDMDL
MODEL 5
REMARK VINA RESULT:   -13.897      1.487      5.348
REMARK INTER + INTRA:         -13.897
REMARK INTER:                 -13.897
REMARK INTRA:                   0.000
REMARK UNBOUND:                 0.000
ROOT
REMARK  Name = dexamethasone acetate
REMARK                            x       y       z     vdW  Elec       q    Type
REMARK                         _______ _______ _______ _____ _____    ______ ____
ATOM      1  C   UNL     1      61.627  62.991  66.813  0.00  0.00    +0.000 C 
ATOM      2  C   UNL     1      61.420  63.018  67.611  0.00  0.00    +0.000 C 
ATOM      3  C   UNL     1      61.663  63.587  68.157  0.00  0.00    +0.000 C 
ATOM      4  C   UNL     1      61.326  63.400  68.886  0.00  0.00    +0.000 C 
ATOM      5  C   UNL     1      61.372  63.765  69.625  0.00  0.00    +0.000 C 
ATOM      6  C   UNL     1      61.823  64.449  69.720  0.00  0.00    +0.000 C 
ATOM      7  C   UNL     1      61.869  64.813  70.459  0.00  0.00    +0.000 C 
ATOM      8  C   UNL     1      61.463  64.493  71.102  0.00  0.00    +0.000 C 
ATOM      9  C   UNL     1      61.509  64.859  71.841  0.00  0.00    +0.000 C 
ATOM     10  C   UNL     1      61.104  64.539  72.484  0.00  0.00    +0.000 C 
ATOM     11  O   UNL     1      61.149  64.904  73.222  0.00  0.00    +0.000 OA
ATOM     12  C   UNL     1      60.652  63.855  72.389  0.00  0.00    +0.000 C 
ATOM     13  C   UNL     1      60.606  63.491  71.650  0.00  0.00    +0.000 C 
ATOM     14  C   UNL     1      61.011  63.810  71.007  0.00  0.00    +0.000 C 
ATOM     15  C   UNL     1      60.560  63.126  70.912  0.00  0.00    +0.000 C 
ATOM     16  C   UNL     1      60.966  63.445  70.268  0.00  0.00    +0.000 C 
ATOM     17  F   UNL     1      60.469  62.831  70.507  0.00  0.00    +0.000 F 
ATOM     18  C   UNL     1      60.514  62.761  70.174  0.00  0.00    +0.000 C 
ATOM     19  O   UNL     1      60.109  62.443  70.817  0.00  0.00    +0.000 OA
ATOM     20  C   UNL     1      60.468  62.397  69.435  0.00  0.00    +0.000 C 
ATOM     21  C   UNL     1      60.874  62.716  68.791  0.00  0.00    +0.000 C 
ATOM     22  C   UNL     1      60.447  62.033  68.613  0.00  0.00    +0.000 C 
ATOM     23  C   UNL     1      60.932  62.479  68.003  0.00  0.00    +0.000 C 
ATOM     24  O   UNL     1      60.449  61.815  68.067  0.00  0.00    +0.000 OA
ATOM     25  C   UNL     1      60.780  61.998  67.351  0.00  0.00    +0.000 C 
ATOM     26  O   UNL     1      60.293  61.336  67.432  0.00  0.00    +0.000 OA
ATOM     27  C   UNL     1      61.113  62.177  66.618  0.00  0.00    +0.000 C 
ATOM     28  O   UNL     1      60.960  61.695  65.966  0.00  0.00    +0.000 OA
ATOM     29  C   UNL     1      61.294  61.875  65.233  0.00  0.00    +0.000 C 
ATOM     30  C   UNL     1      61.141  61.392  64.581  0.00  0.00    +0.000 C 
ATOM     31  O   UNL     1      61.779  62.536  65.152  0.00  0.00    +0.000 OA
ENDROOT
TORSDOF 0
ENDMDL
MODEL 6
REMARK VINA RESULT:   -13.651      4.114      5.396
REMARK INTER + INTRA:         -13.651
REMARK INTER:                 -13.651
REMARK INTRA:                   0.000
REMARK UNBOUND:                 0.000
ROOT
REMARK  Name = dexamethasone acetate
REMARK                            x       y       z     vdW  Elec       q    Type
REMARK                         _______ _______ _______ _____ _____    ______ ____
ATOM      1  C   UNL     1      61.958  67.171  72.693  0.00  0.00    +0.000 C 
ATOM      2  C   UNL     1      61.963  66.422  72.346  0.00  0.00    +0.000 C 
ATOM      3  C   UNL     1      61.350  65.871  72.372  0.00  0.00    +0.000 C 
ATOM      4  C   UNL     1      61.591  65.201  71.955  0.00  0.00    +0.000 C 
ATOM      5  C   UNL     1      61.215  64.484  71.797  0.00  0.00    +0.000 C 
ATOM      6  C   UNL     1      60.452  64.347  72.079  0.00  0.00    +0.000 C 
ATOM      7  C   UNL     1      60.076  63.630  71.921  0.00  0.00    +0.000 C 
ATOM      8  C   UNL     1      60.463  63.051  71.480  0.00  0.00    +0.000 C 
ATOM      9  C   UNL     1      60.086  62.333  71.321  0.00  0.00    +0.000 C 
ATOM     10  C   UNL     1      60.473  61.754  70.880  0.00  0.00    +0.000 C 
ATOM     11  O   UNL     1      60.097  61.037  70.722  0.00  0.00    +0.000 OA
ATOM     12  C   UNL     1      61.236  61.890  70.597  0.00  0.00    +0.000 C 
ATOM     13  C   UNL     1      61.612  62.607  70.756  0.00  0.00    +0.000 C 
ATOM     14  C   UNL     1      61.226  63.187  71.197  0.00  0.00    +0.000 C 
ATOM     15  C   UNL     1      61.989  63.324  70.914  0.00  0.00    +0.000 C 
ATOM     16  C   UNL     1      61.602  63.904  71.355  0.00  0.00    +0.000 C 
ATOM     17  F   UNL     1      62.301  63.724  70.956  0.00  0.00    +0.000 F 
ATOM     18  C   UNL     1      62.365  64.041  71.072  0.00  0.00    +0.000 C 
ATOM     19  O   UNL     1      62.750  63.461  70.631  0.00  0.00    +0.000 OA
ATOM     20  C   UNL     1      62.741  64.758  71.231  0.00  0.00    +0.000 C 
ATOM     21  C   UNL     1      62.354  65.338  71.672  0.00  0.00    +0.000 C 
ATOM     22  C   UNL     1      63.112  65.552  71.427  0.00  0.00    +0.000 C 
ATOM     23  C   UNL     1      62.585  66.093  71.914  0.00  0.00    +0.000 C 
ATOM     24  O   UNL     1      63.333  66.079  71.569  0.00  0.00    +0.000 OA
ATOM     25  C   UNL     1      63.096  66.737  71.978  0.00  0.00    +0.000 C 
ATOM     26  O   UNL     1      63.842  66.707  71.626  0.00  0.00    +0.000 OA
ATOM     27  C   UNL     1      62.862  67.410  72.393  0.00  0.00    +0.000 C 
ATOM     28  O   UNL     1      63.374  68.054  72.456  0.00  0.00    +0.000 OA
ATOM     29  C   UNL     1      63.140  68.728  72.871  0.00  0.00    +0.000 C 
ATOM     30  C   UNL     1      63.652  69.372  72.935  0.00  0.00    +0.000 C 
ATOM     31  O   UNL     1      62.394  68.757  73.222  0.00  0.00    +0.000 OA
ENDROOT
TORSDOF 0
ENDMDL
MODEL 7
REMARK VINA RESULT:   -12.708      4.270      6.964
REMARK INTER + INTRA:         -12.708
REMARK INTER:                 -12.708
REMARK INTRA:                   0.000
REMARK UNBOUND:                 0.000
ROOT
REMARK  Name = dexamethasone acetate
REMARK                            x       y       z     vdW  Elec       q    Type
REMARK                         _______ _______ _______ _____ _____    ______ ____
ATOM      1  C   UNL     1      62.031  66.015  69.229  0.00  0.00    +0.000 C 
ATOM      2  C   UNL     1      62.678  66.097  69.735  0.00  0.00    +0.000 C 
ATOM      3  C   UNL     1      63.413  66.413  69.534  0.00  0.00    +0.000 C 
ATOM      4  C   UNL     1      63.892  66.390  70.205  0.00  0.00    +0.000 C 
ATOM      5  C   UNL     1      64.671  66.627  70.336  0.00  0.00    +0.000 C 
ATOM      6  C   UNL     1      65.111  66.957  69.721  0.00  0.00    +0.000 C 
ATOM      7  C   UNL     1      65.891  67.194  69.851  0.00  0.00    +0.000 C 
ATOM      8  C   UNL     1      66.230  67.100  70.597  0.00  0.00    +0.000 C 
ATOM      9  C   UNL     1      67.011  67.337  70.727  0.00  0.00    +0.000 C 
ATOM     10  C   UNL     1      67.350  67.243  71.472  0.00  0.00    +0.000 C 
ATOM     11  O   UNL     1      68.129  67.480  71.603  0.00  0.00    +0.000 OA
ATOM     12  C   UNL     1      66.911  66.912  72.088  0.00  0.00    +0.000 C 
ATOM     13  C   UNL     1      66.132  66.676  71.957  0.00  0.00    +0.000 C 
ATOM     14  C   UNL     1      65.791  66.769  71.212  0.00  0.00    +0.000 C 
ATOM     15  C   UNL     1      65.352  66.439  71.828  0.00  0.00    +0.000 C 
ATOM     16  C   UNL     1      65.012  66.533  71.082  0.00  0.00    +0.000 C 
ATOM     17  F   UNL     1      64.874  66.264  71.850  0.00  0.00    +0.000 F 
ATOM     18  C   UNL     1      64.573  66.202  71.697  0.00  0.00    +0.000 C 
ATOM     19  O   UNL     1      64.914  66.109  72.442  0.00  0.00    +0.000 OA
ATOM     20  C   UNL     1      63.794  65.965  71.567  0.00  0.00    +0.000 C 
ATOM     21  C   UNL     1      63.453  66.059  70.821  0.00  0.00    +0.000 C 
ATOM     22  C   UNL     1      62.949  65.722  71.380  0.00  0.00    +0.000 C 
ATOM     23  C   UNL     1      62.702  65.878  70.530  0.00  0.00    +0.000 C 
ATOM     24  O   UNL     1      62.400  65.571  71.233  0.00  0.00    +0.000 OA
ATOM     25  C   UNL     1      61.929  65.594  70.574  0.00  0.00    +0.000 C 
ATOM     26  O   UNL     1      61.642  65.289  71.285  0.00  0.00    +0.000 OA
ATOM     27  C   UNL     1      61.444  65.614  69.908  0.00  0.00    +0.000 C 
ATOM     28  O   UNL     1      60.671  65.329  69.952  0.00  0.00    +0.000 OA
ATOM     29  C   UNL     1      60.185  65.350  69.285  0.00  0.00    +0.000 C 
ATOM     30  C   UNL     1      59.411  65.065  69.329  0.00  0.00    +0.000 C 
ATOM     31  O   UNL     1      60.473  65.654  68.574  0.00  0.00    +0.000 OA
ENDROOT
TORSDOF 0
ENDMDL
