MODEL 1
REMARK VINA RESULT:   -10.429      0.000      0.000
REMARK INTER + INTRA:         -10.429
REMARK INTER:                 -10.429
REMARK INTRA:                   0.000
REMARK UNBOUND:                 0.000
ROOT
REMARK  Name = dexfenfluramine
REMARK                            x       y       z     vdW  Elec       q    Type
REMARK                         _______ _______ _______ _____ _____    ______ ____
ATOM      1  C   UNL     1      61.330  63.614  68.734  0.00  0.00    +0.000 C 
ATOM      2  C   UNL     1      61.108  63.154  68.085  0.00  0.00    +0.000 C 
ATOM      3  N   UNL     1      61.596  63.118  67.420  0.00  0.00    +0.000 NA
ATOM      4  C   UNL     1      61.374  62.659  66.772  0.00  0.00    +0.000 C 
ATOM      5  C   UNL     1      60.667  62.236  66.788  0.00  0.00    +0.000 C 
ATOM      6  C   UNL     1      61.862  62.622  66.107  0.00  0.00    +0.000 C 
ATOM      7  C   UNL     1      61.640  62.163  65.459  0.00  0.00    +0.000 A 
ATOM      8  C   UNL     1      62.128  62.126  64.793  0.00  0.00    +0.000 A 
ATOM      9  C   UNL     1      61.906  61.667  64.145  0.00  0.00    +0.000 A 
ATOM     10  C   UNL     1      61.199  61.245  64.161  0.00  0.00    +0.000 A 
ATOM     11  C   UNL     1      60.711  61.281  64.825  0.00  0.00    +0.000 A 
ATOM     12  C   UNL     1      60.933  61.741  65.475  0.00  0.00    +0.000 A 
ATOM     13  C   UNL     1      62.394  61.630  63.480  0.00  0.00    +0.000 C 
ATOM     14  F   UNL     1      62.882  61.594  62.815  0.00  0.00    +0.000 F 
ATOM     15  F   UNL     1      61.858  61.121  63.115  0.00  0.00    +0.000 F 
ATOM     16  F   UNL     1      62.931  62.140  63.845  0.00  0.00    +0.000 F 
ENDROOT
TORSDOF 0
ENDMDL
MODEL 2
REMARK VINA RESULT:    -9.038      5.639      7.616
REMARK INTER + INTRA:          -9.038
REMARK INTER:                  -9.038
REMARK INTRA:                   0.000
REMARK UNBOUND:                 0.000
ROOT
REMARK  Name = dexfenfluramine
REMARK                            x       y       z     vdW  Elec       q    Type
REMARK                         _______ _______ _______ _____ _____    ______ ____
ATOM      1  C   UNL     1      61.999  63.750  69.651  0.00  0.00    +0.000 C 
ATOM      2  C   UNL     1      62.563  64.166  70.088  0.00  0.00    +0.000 C 
ATOM      3  N   UNL     1      63.035  64.732  69.718  0.00  0.00    +0.000 NA
ATOM      4  C   UNL     1      63.598  65.147  70.155  0.00  0.00    +0.000 C 
ATOM      5  C   UNL     1      63.689  64.996  70.960  0.00  0.00    +0.000 C 
ATOM      6  C   UNL     1      64.071  65.714  69.786  0.00  0.00    +0.000 C 
ATOM      7  C   UNL     1      64.634  66.129  70.223  0.00  0.00    +0.000 A 
ATOM      8  C   UNL     1      65.107  66.696  69.853  0.00  0.00    +0.000 A 
ATOM      9  C   UNL     1      65.670  67.111  70.290  0.00  0.00    +0.000 A 
ATOM     10  C   UNL     1      65.761  66.960  71.095  0.00  0.00    +0.000 A 
ATOM     11  C   UNL     1      65.289  66.394  71.465  0.00  0.00    +0.000 A 
ATOM     12  C   UNL     1      64.725  65.978  71.028  0.00  0.00    +0.000 A 
ATOM     13  C   UNL     1      66.143  67.678  69.920  0.00  0.00    +0.000 C 
ATOM     14  F   UNL     1      66.616  68.244  69.550  0.00  0.00    +0.000 F 
ATOM     15  F   UNL     1      66.521  67.830  70.637  0.00  0.00    +0.000 F 
ATOM     16  F   UNL     1      65.765  67.525  69.202  0.00  0.00    +0.000 F 
ENDROOT
TORSDOF 0
ENDMDL
MODEL 3
REMARK VINA RESULT:    -8.959      2.613      4.014
REMARK INTER + INTRA:          -8.959
REMARK INTER:                  -8.959
REMARK INTRA:                   0.000
REMARK UNBOUND:                 0.000
ROOT
REMARK  Name = dexfenfluramine
REMARK                            x       y       z     vdW  Elec       q    Type
REMARK                         _______ _______ _______ _____ _____    ______ ____
ATOM      1  C   UNL     1      62.764  61.632  63.371  0.00  0.00    +0.000 C 
ATOM      2  C   UNL     1      62.115  61.681  63.878  0.00  0.00    +0.000 C 
ATOM      3  N   UNL     1      62.227  61.865  64.675  0.00  0.00    +0.000 NA
ATOM      4  C   UNL     1      61.578  61.914  65.181  0.00  0.00    +0.000 C 
ATOM      5  C   UNL     1      60.819  61.779  64.893  0.00  0.00    +0.000 C 
ATOM      6  C   UNL     1      61.691  62.098  65.978  0.00  0.00    +0.000 C 
ATOM      7  C   UNL     1      61.042  62.146  66.485  0.00  0.00    +0.000 A 
ATOM      8  C   UNL     1      61.154  62.330  67.282  0.00  0.00    +0.000 A 
ATOM      9  C   UNL     1      60.505  62.379  67.789  0.00  0.00    +0.000 A 
ATOM     10  C   UNL     1      59.745  62.244  67.500  0.00  0.00    +0.000 A 
ATOM     11  C   UNL     1      59.633  62.060  66.704  0.00  0.00    +0.000 A 
ATOM     12  C   UNL     1      60.282  62.011  66.197  0.00  0.00    +0.000 A 
ATOM     13  C   UNL     1      60.618  62.563  68.586  0.00  0.00    +0.000 C 
ATOM     14  F   UNL     1      60.730  62.747  69.382  0.00  0.00    +0.000 F 
ATOM     15  F   UNL     1      59.804  62.513  68.712  0.00  0.00    +0.000 F 
ATOM     16  F   UNL     1      61.432  62.613  68.460  0.00  0.00    +0.000 F 
ENDROOT
TORSDOF 0
ENDMDL
MODEL 4
REMARK VINA RESULT:    -8.939      5.999      7.028
REMARK INTER + INTRA:          -8.939
REMARK INTER:                  -8.939
REMARK INTRA:                   0.000
REMARK UNBOUND:                 0.000
ROOT
REMARK  Name = dexfenfluramine
REMARK                            x       y       z     vdW  Elec       q    Type
REMARK                         _______ _______ _______ _____ _____    ______ ____
ATOM      1  C   UNL     1      59.777  66.889  73.188  0.00  0.00    +0.000 C 
ATOM      2  C   UNL     1      60.207  66.188  73.115  0.00  0.00    +0.000 C 
ATOM      3  N   UNL     1      59.942  65.594  72.608  0.00  0.00    +0.000 NA
ATOM      4  C   UNL     1      60.372  64.893  72.536  0.00  0.00    +0.000 C 
ATOM      5  C   UNL     1      61.065  64.788  72.969  0.00  0.00    +0.000 C 
ATOM      6  C   UNL     1      60.107  64.298  72.029  0.00  0.00    +0.000 C 
ATOM      7  C   UNL     1      60.537  63.597  71.956  0.00  0.00    +0.000 A 
ATOM      8  C   UNL     1      60.272  63.002  71.449  0.00  0.00    +0.000 A 
ATOM      9  C   UNL     1      60.701  62.302  71.377  0.00  0.00    +0.000 A 
ATOM     10  C   UNL     1      61.394  62.196  71.810  0.00  0.00    +0.000 A 
ATOM     11  C   UNL     1      61.659  62.791  72.317  0.00  0.00    +0.000 A 
ATOM     12  C   UNL     1      61.229  63.492  72.389  0.00  0.00    +0.000 A 
ATOM     13  C   UNL     1      60.437  61.706  70.870  0.00  0.00    +0.000 C 
ATOM     14  F   UNL     1      60.172  61.112  70.363  0.00  0.00    +0.000 F 
ATOM     15  F   UNL     1      61.085  61.241  71.078  0.00  0.00    +0.000 F 
ATOM     16  F   UNL     1      59.788  62.172  70.661  0.00  0.00    +0.000 F 
ENDROOT
TORSDOF 0
ENDMDL
MODEL 5
REMARK VINA RESULT:    -8.889      5.927      6.811
REMARK INTER + INTRA:          -8.889
REMARK INTER:                  -8.889
REMARK INTRA:                   0.000
REMARK UNBOUND:                 0.000
ROOT
REMARK  Name = dexfenfluramine
REMARK                            x       y       z     vdW  Elec       q    Type
REMARK                         _______ _______ _______ _____ _____    ______ ____
ATOM      1  C   UNL     1      59.654  65.527  69.339  0.00  0.00    +0.000 C 
ATOM      2  C   UNL     1      59.954  65.190  70.031  0.00  0.00    +0.000 C 
ATOM      3  N   UNL     1      60.231  64.413  70.024  0.00  0.00    +0.000 NA
ATOM      4  C   UNL     1      60.529  64.076  70.715  0.00  0.00    +0.000 C 
ATOM      5  C   UNL     1      60.551  64.516  71.412  0.00  0.00    +0.000 C 
ATOM      6  C   UNL     1      60.807  63.298  70.709  0.00  0.00    +0.000 C 
ATOM      7  C   UNL     1      61.106  62.962  71.400  0.00  0.00    +0.000 A 
ATOM      8  C   UNL     1      61.383  62.184  71.393  0.00  0.00    +0.000 A 
ATOM      9  C   UNL     1      61.682  61.848  72.085  0.00  0.00    +0.000 A 
ATOM     10  C   UNL     1      61.704  62.287  72.781  0.00  0.00    +0.000 A 
ATOM     11  C   UNL     1      61.427  63.064  72.788  0.00  0.00    +0.000 A 
ATOM     12  C   UNL     1      61.128  63.402  72.097  0.00  0.00    +0.000 A 
ATOM     13  C   UNL     1      61.959  61.070  72.078  0.00  0.00    +0.000 C 
ATOM     14  F   UNL     1      62.236  60.293  72.071  0.00  0.00    +0.000 F 
ATOM     15  F   UNL     1      62.144  61.130  72.879  0.00  0.00    +0.000 F 
ATOM     16  F   UNL     1      61.774  61.011  71.276  0.00  0.00    +0.000 F 
ENDROOT
TORSDOF 0
ENDMDL
MODEL 6
REMARK VINA RESULT:    -8.832      4.573      6.485
REMARK INTER + INTRA:          -8.832
REMARK INTER:                  -8.832
REMARK INTRA:                   0.000
REMARK UNBOUND:                 0.000
ROOT
REMARK  Name = dexfenfluramine
REMARK                            x       y       z     vdW  Elec       q    Type
REMARK                         _______ _______ _______ _____ _____    ______ ____
ATOM      1  C   UNL     1      60.036  62.567  67.095  0.00  0.00    +0.000 C 
ATOM      2  C   UNL     1      60.200  62.258  67.843  0.00  0.00    +0.000 C 
ATOM      3  N   UNL     1      60.444  62.760  68.451  0.00  0.00    +0.000 NA
ATOM      4  C   UNL     1      60.607  62.451  69.198  0.00  0.00    +0.000 C 
ATOM      5  C   UNL     1      60.526  61.642  69.337  0.00  0.00    +0.000 C 
ATOM      6  C   UNL     1      60.851  62.952  69.807  0.00  0.00    +0.000 C 
ATOM      7  C   UNL     1      61.014  62.643  70.554  0.00  0.00    +0.000 A 
ATOM      8  C   UNL     1      61.258  63.144  71.163  0.00  0.00    +0.000 A 
ATOM      9  C   UNL     1      61.421  62.835  71.910  0.00  0.00    +0.000 A 
ATOM     10  C   UNL     1      61.341  62.027  72.049  0.00  0.00    +0.000 A 
ATOM     11  C   UNL     1      61.097  61.526  71.441  0.00  0.00    +0.000 A 
ATOM     12  C   UNL     1      60.934  61.835  70.693  0.00  0.00    +0.000 A 
ATOM     13  C   UNL     1      61.665  63.337  72.519  0.00  0.00    +0.000 C 
ATOM     14  F   UNL     1      61.909  63.838  73.127  0.00  0.00    +0.000 F 
ATOM     15  F   UNL     1      61.713  62.692  73.031  0.00  0.00    +0.000 F 
ATOM     16  F   UNL     1      61.618  63.982  72.007  0.00  0.00    +0.000 F 
ENDROOT
TORSDOF 0
ENDMDL
MODEL 7
REMARK VINA RESULT:    -8.551      2.257      3.248
REMARK INTER + INTRA:          -8.551
REMARK INTER:                  -8.551
REMARK INTRA:                   0.000
REMARK UNBOUND:                 0.000
ROOT
REMARK  Name = dexfenfluramine
REMARK                            x       y       z     vdW  Elec       q    Type
REMARK                         _______ _______ _______ _____ _____    ______ ____
ATOM      1  C   UNL     1      60.720  63.569  71.456  0.00  0.00    +0.000 C 
ATOM      2  C   UNL     1      60.966  63.453  70.677  0.00  0.00    +0.000 C 
ATOM      3  N   UNL     1      60.429  63.186  70.111  0.00  0.00    +0.000 NA
ATOM      4  C   UNL     1      60.675  63.071  69.332  0.00  0.00    +0.000 C 
ATOM      5  C   UNL     1      61.457  63.222  69.120  0.00  0.00    +0.000 C 
ATOM      6  C   UNL     1      60.138  62.804  68.765  0.00  0.00    +0.000 C 
ATOM      7  C   UNL     1      60.384  62.688  67.986  0.00  0.00    +0.000 A 
ATOM      8  C   UNL     1      59.846  62.421  67.419  0.00  0.00    +0.000 A 
ATOM      9  C   UNL     1      60.092  62.306  66.641  0.00  0.00    +0.000 A 
ATOM     10  C   UNL     1      60.874  62.457  66.429  0.00  0.00    +0.000 A 
ATOM     11  C   UNL     1      61.412  62.724  66.994  0.00  0.00    +0.000 A 
ATOM     12  C   UNL     1      61.166  62.840  67.774  0.00  0.00    +0.000 A 
ATOM     13  C   UNL     1      59.555  62.039  66.074  0.00  0.00    +0.000 C 
ATOM     14  F   UNL     1      59.017  61.772  65.508  0.00  0.00    +0.000 F 
ATOM     15  F   UNL     1      60.148  62.059  65.502  0.00  0.00    +0.000 F 
ATOM     16  F   UNL     1      58.961  62.018  66.647  0.00  0.00    +0.000 F 
ENDROOT
TORSDOF 0
ENDMDL
MODEL 8
REMARK VINA RESULT:    -8.502      5.678      6.502
REMARK INTER + INTRA:          -8.502
REMARK INTER:                  -8.502
REMARK INTRA:                   0.000
REMARK UNBOUND:                 0.000
ROOT
REMARK  Name = dexfenfluramine
REMARK                            x       y       z     vdW  Elec       q    Type
REMARK                         _______ _______ _______ _____ _____    ______ ____
ATOM      1  C   UNL     1      64.340  65.969  71.136  0.00  0.00    +0.000 C 
ATOM      2  C   UNL     1      63.649  65.614  71.415  0.00  0.00    +0.000 C 
ATOM      3  N   UNL     1      63.342  64.952  71.031  0.00  0.00    +0.000 NA
ATOM      4  C   UNL     1      62.652  64.597  71.310  0.00  0.00    +0.000 C 
ATOM      5  C   UNL     1      62.268  64.904  71.972  0.00  0.00    +0.000 C 
ATOM      6  C   UNL     1      62.345  63.934  70.926  0.00  0.00    +0.000 C 
ATOM      7  C   UNL     1      61.654  63.580  71.205  0.00  0.00    +0.000 A 
ATOM      8  C   UNL     1      61.347  62.916  70.820  0.00  0.00    +0.000 A 
ATOM      9  C   UNL     1      60.656  62.562  71.099  0.00  0.00    +0.000 A 
ATOM     10  C   UNL     1      60.273  62.869  71.761  0.00  0.00    +0.000 A 
ATOM     11  C   UNL     1      60.579  63.532  72.145  0.00  0.00    +0.000 A 
ATOM     12  C   UNL     1      61.271  63.887  71.866  0.00  0.00    +0.000 A 
ATOM     13  C   UNL     1      60.349  61.899  70.715  0.00  0.00    +0.000 C 
ATOM     14  F   UNL     1      60.043  61.236  70.331  0.00  0.00    +0.000 F 
ATOM     15  F   UNL     1      59.730  61.872  71.258  0.00  0.00    +0.000 F 
ATOM     16  F   UNL     1      60.970  61.926  70.171  0.00  0.00    +0.000 F 
ENDROOT
TORSDOF 0
ENDMDL
MODEL 9
REMARK VINA RESULT:    -8.213      6.538      7.702
REMARK INTER + INTRA:          -8.213
REMARK INTER:                  -8.213
REMARK INTRA:                   0.000
REMARK UNBOUND:                 0.000
ROOT
REMARK  Name = dexfenfluramine
REMARK                            x       y       z     vdW  Elec       q    Type
REMARK                         _______ _______ _______ _____ _____    ______ ____
ATOM      1  C   UNL     1      62.388  68.158  73.097  0.00  0.00    +0.000 C 
ATOM      2  C   UNL     1      62.357  67.490  72.613  0.00  0.00    +0.000 C 
ATOM      3  N   UNL     1      62.199  66.751  72.941  0.00  0.00    +0.000 NA
ATOM      4  C   UNL     1      62.168  66.083  72.457  0.00  0.00    +0.000 C 
ATOM      5  C   UNL     1      62.296  66.156  71.646  0.00  0.00    +0.000 C 
ATOM      6  C   UNL     1      62.009  65.343  72.785  0.00  0.00    +0.000 C 
ATOM      7  C   UNL     1      61.979  64.676  72.301  0.00  0.00    +0.000 A 
ATOM      8  C   UNL     1      61.820  63.935  72.630  0.00  0.00    +0.000 A 
ATOM      9  C   UNL     1      61.789  63.268  72.146  0.00  0.00    +0.000 A 
ATOM     10  C   UNL     1      61.917  63.340  71.335  0.00  0.00    +0.000 A 
ATOM     11  C   UNL     1      62.076  64.080  71.006  0.00  0.00    +0.000 A 
ATOM     12  C   UNL     1      62.107  64.748  71.490  0.00  0.00    +0.000 A 
ATOM     13  C   UNL     1      61.630  62.527  72.474  0.00  0.00    +0.000 C 
ATOM     14  F   UNL     1      61.471  61.787  72.803  0.00  0.00    +0.000 F 
ATOM     15  F   UNL     1      61.686  62.184  71.727  0.00  0.00    +0.000 F 
ATOM     16  F   UNL     1      61.574  62.871  73.222  0.00  0.00    +0.000 F 
ENDROOT
TORSDOF 0
ENDMDL
