MODEL 1
REMARK VINA RESULT:   -19.224      0.000      0.000
REMARK INTER + INTRA:         -19.224
REMARK INTER:                 -19.224
REMARK INTRA:                   0.000
REMARK UNBOUND:                 0.000
ROOT
REMARK  Name = dexniguldipine
REMARK                            x       y       z     vdW  Elec       q    Type
REMARK                         _______ _______ _______ _____ _____    ______ ____
ATOM      1  C   UNL     1      63.165  66.573  72.847  0.00  0.00    +0.000 C 
ATOM      2  O   UNL     1      63.459  66.272  72.136  0.00  0.00    +0.000 OA
ATOM      3  C   UNL     1      62.963  65.845  71.634  0.00  0.00    +0.000 C 
ATOM      4  O   UNL     1      63.257  65.545  70.924  0.00  0.00    +0.000 OA
ATOM      5  C   UNL     1      62.175  65.718  71.841  0.00  0.00    +0.000 C 
ATOM      6  C   UNL     1      61.882  66.018  72.551  0.00  0.00    +0.000 C 
ATOM      7  C   UNL     1      62.377  66.446  73.054  0.00  0.00    +0.000 C 
ATOM      8  N   UNL     1      61.094  65.891  72.758  0.00  0.00    +0.000 NA
ATOM      9  C   UNL     1      60.598  65.464  72.256  0.00  0.00    +0.000 C 
ATOM     10  C   UNL     1      59.810  65.337  72.464  0.00  0.00    +0.000 C 
ATOM     11  C   UNL     1      60.892  65.164  71.546  0.00  0.00    +0.000 C 
ATOM     12  C   UNL     1      61.680  65.291  71.339  0.00  0.00    +0.000 C 
ATOM     13  C   UNL     1      61.973  64.990  70.628  0.00  0.00    +0.000 A 
ATOM     14  C   UNL     1      62.761  65.117  70.421  0.00  0.00    +0.000 A 
ATOM     15  C   UNL     1      63.055  64.817  69.711  0.00  0.00    +0.000 A 
ATOM     16  C   UNL     1      62.559  64.389  69.208  0.00  0.00    +0.000 A 
ATOM     17  C   UNL     1      61.771  64.262  69.415  0.00  0.00    +0.000 A 
ATOM     18  C   UNL     1      61.478  64.563  70.126  0.00  0.00    +0.000 A 
ATOM     19  N   UNL     1      63.843  64.944  69.503  0.00  0.00    +0.000 N 
ATOM     20  O   UNL     1      64.136  64.643  68.793  0.00  0.00    +0.000 OA
ATOM     21  O   UNL     1      64.338  65.371  70.006  0.00  0.00    +0.000 OA
ATOM     22  C   UNL     1      60.396  64.736  71.043  0.00  0.00    +0.000 C 
ATOM     23  O   UNL     1      59.608  64.609  71.251  0.00  0.00    +0.000 OA
ATOM     24  O   UNL     1      60.690  64.436  70.333  0.00  0.00    +0.000 OA
ATOM     25  C   UNL     1      60.194  64.008  69.830  0.00  0.00    +0.000 C 
ATOM     26  C   UNL     1      60.488  63.708  69.120  0.00  0.00    +0.000 C 
ATOM     27  C   UNL     1      59.992  63.280  68.617  0.00  0.00    +0.000 C 
ATOM     28  N   UNL     1      60.286  62.980  67.907  0.00  0.00    +0.000 NA
ATOM     29  C   UNL     1      59.790  62.552  67.404  0.00  0.00    +0.000 C 
ATOM     30  C   UNL     1      60.084  62.252  66.694  0.00  0.00    +0.000 C 
ATOM     31  C   UNL     1      60.872  62.379  66.487  0.00  0.00    +0.000 C 
ATOM     32  C   UNL     1      61.367  62.806  66.989  0.00  0.00    +0.000 C 
ATOM     33  C   UNL     1      61.074  63.107  67.700  0.00  0.00    +0.000 C 
ATOM     34  C   UNL     1      60.542  61.940  65.871  0.00  0.00    +0.000 A 
ATOM     35  C   UNL     1      59.750  61.715  65.902  0.00  0.00    +0.000 A 
ATOM     36  C   UNL     1      59.420  61.276  65.287  0.00  0.00    +0.000 A 
ATOM     37  C   UNL     1      59.884  61.062  64.639  0.00  0.00    +0.000 A 
ATOM     38  C   UNL     1      60.677  61.286  64.607  0.00  0.00    +0.000 A 
ATOM     39  C   UNL     1      61.006  61.725  65.223  0.00  0.00    +0.000 A 
ATOM     40  C   UNL     1      61.478  62.264  65.940  0.00  0.00    +0.000 A 
ATOM     41  C   UNL     1      61.334  61.839  65.247  0.00  0.00    +0.000 A 
ATOM     42  C   UNL     1      61.941  61.724  64.700  0.00  0.00    +0.000 A 
ATOM     43  C   UNL     1      62.692  62.034  64.845  0.00  0.00    +0.000 A 
ATOM     44  C   UNL     1      62.836  62.458  65.538  0.00  0.00    +0.000 A 
ATOM     45  C   UNL     1      62.230  62.573  66.085  0.00  0.00    +0.000 A 
ENDROOT
TORSDOF 0
ENDMDL
MODEL 2
REMARK VINA RESULT:   -17.424      1.125      2.662
REMARK INTER + INTRA:         -17.424
REMARK INTER:                 -17.424
REMARK INTRA:                   0.000
REMARK UNBOUND:                 0.000
ROOT
REMARK  Name = dexniguldipine
REMARK                            x       y       z     vdW  Elec       q    Type
REMARK                         _______ _______ _______ _____ _____    ______ ____
ATOM      1  C   UNL     1      61.571  67.624  73.222  0.00  0.00    +0.000 C 
ATOM      2  O   UNL     1      61.006  67.234  72.763  0.00  0.00    +0.000 OA
ATOM      3  C   UNL     1      61.245  66.763  72.129  0.00  0.00    +0.000 C 
ATOM      4  O   UNL     1      60.680  66.375  71.671  0.00  0.00    +0.000 OA
ATOM      5  C   UNL     1      62.047  66.682  71.954  0.00  0.00    +0.000 C 
ATOM      6  C   UNL     1      62.610  67.071  72.413  0.00  0.00    +0.000 C 
ATOM      7  C   UNL     1      62.373  67.542  73.047  0.00  0.00    +0.000 C 
ATOM      8  N   UNL     1      63.412  66.989  72.237  0.00  0.00    +0.000 NA
ATOM      9  C   UNL     1      63.651  66.518  71.603  0.00  0.00    +0.000 C 
ATOM     10  C   UNL     1      64.453  66.437  71.428  0.00  0.00    +0.000 C 
ATOM     11  C   UNL     1      63.086  66.129  71.145  0.00  0.00    +0.000 C 
ATOM     12  C   UNL     1      62.284  66.211  71.320  0.00  0.00    +0.000 C 
ATOM     13  C   UNL     1      61.720  65.822  70.861  0.00  0.00    +0.000 A 
ATOM     14  C   UNL     1      60.918  65.903  71.036  0.00  0.00    +0.000 A 
ATOM     15  C   UNL     1      60.353  65.514  70.577  0.00  0.00    +0.000 A 
ATOM     16  C   UNL     1      60.591  65.043  69.943  0.00  0.00    +0.000 A 
ATOM     17  C   UNL     1      61.393  64.961  69.767  0.00  0.00    +0.000 A 
ATOM     18  C   UNL     1      61.957  65.351  70.227  0.00  0.00    +0.000 A 
ATOM     19  N   UNL     1      59.551  65.596  70.753  0.00  0.00    +0.000 N 
ATOM     20  O   UNL     1      58.987  65.206  70.293  0.00  0.00    +0.000 OA
ATOM     21  O   UNL     1      59.314  66.067  71.387  0.00  0.00    +0.000 OA
ATOM     22  C   UNL     1      63.324  65.658  70.510  0.00  0.00    +0.000 C 
ATOM     23  O   UNL     1      64.126  65.576  70.334  0.00  0.00    +0.000 OA
ATOM     24  O   UNL     1      62.759  65.269  70.051  0.00  0.00    +0.000 OA
ATOM     25  C   UNL     1      62.997  64.798  69.416  0.00  0.00    +0.000 C 
ATOM     26  C   UNL     1      62.432  64.409  68.958  0.00  0.00    +0.000 C 
ATOM     27  C   UNL     1      62.670  63.938  68.323  0.00  0.00    +0.000 C 
ATOM     28  N   UNL     1      62.106  63.549  67.865  0.00  0.00    +0.000 NA
ATOM     29  C   UNL     1      62.344  63.077  67.230  0.00  0.00    +0.000 C 
ATOM     30  C   UNL     1      61.779  62.688  66.771  0.00  0.00    +0.000 C 
ATOM     31  C   UNL     1      60.977  62.770  66.947  0.00  0.00    +0.000 C 
ATOM     32  C   UNL     1      60.740  63.241  67.581  0.00  0.00    +0.000 C 
ATOM     33  C   UNL     1      61.304  63.630  68.040  0.00  0.00    +0.000 C 
ATOM     34  C   UNL     1      61.017  62.270  66.292  0.00  0.00    +0.000 A 
ATOM     35  C   UNL     1      61.749  62.071  65.969  0.00  0.00    +0.000 A 
ATOM     36  C   UNL     1      61.789  61.571  65.313  0.00  0.00    +0.000 A 
ATOM     37  C   UNL     1      61.096  61.270  64.982  0.00  0.00    +0.000 A 
ATOM     38  C   UNL     1      60.364  61.470  65.304  0.00  0.00    +0.000 A 
ATOM     39  C   UNL     1      60.324  61.969  65.959  0.00  0.00    +0.000 A 
ATOM     40  C   UNL     1      60.197  62.576  66.761  0.00  0.00    +0.000 A 
ATOM     41  C   UNL     1      60.037  62.077  66.124  0.00  0.00    +0.000 A 
ATOM     42  C   UNL     1      59.257  61.883  65.938  0.00  0.00    +0.000 A 
ATOM     43  C   UNL     1      58.636  62.188  66.389  0.00  0.00    +0.000 A 
ATOM     44  C   UNL     1      58.798  62.688  67.026  0.00  0.00    +0.000 A 
ATOM     45  C   UNL     1      59.577  62.882  67.212  0.00  0.00    +0.000 A 
ENDROOT
TORSDOF 0
ENDMDL
