MODEL 1
REMARK VINA RESULT:    -9.089      0.000      0.000
REMARK INTER + INTRA:          -9.089
REMARK INTER:                  -9.089
REMARK INTRA:                   0.000
REMARK UNBOUND:                 0.000
ROOT
REMARK  Name = dexrazoxane
REMARK                            x       y       z     vdW  Elec       q    Type
REMARK                         _______ _______ _______ _____ _____    ______ ____
ATOM      1  C   UNL     1      60.589  61.712  66.638  0.00  0.00    +0.000 C 
ATOM      2  C   UNL     1      61.152  62.282  66.834  0.00  0.00    +0.000 C 
ATOM      3  C   UNL     1      61.700  62.532  66.271  0.00  0.00    +0.000 C 
ATOM      4  N   UNL     1      61.686  62.212  65.511  0.00  0.00    +0.000 NA
ATOM      5  C   UNL     1      62.234  62.461  64.947  0.00  0.00    +0.000 C 
ATOM      6  C   UNL     1      62.219  62.141  64.188  0.00  0.00    +0.000 C 
ATOM      7  O   UNL     1      62.768  62.391  63.624  0.00  0.00    +0.000 OA
ATOM      8  N   UNL     1      61.656  61.571  63.991  0.00  0.00    +0.000 NA
ATOM      9  C   UNL     1      61.108  61.322  64.555  0.00  0.00    +0.000 C 
ATOM     10  O   UNL     1      60.545  60.751  64.358  0.00  0.00    +0.000 OA
ATOM     11  C   UNL     1      61.123  61.642  65.314  0.00  0.00    +0.000 C 
ATOM     12  N   UNL     1      61.167  62.603  67.595  0.00  0.00    +0.000 NA
ATOM     13  C   UNL     1      60.619  62.353  68.159  0.00  0.00    +0.000 C 
ATOM     14  C   UNL     1      60.633  62.673  68.919  0.00  0.00    +0.000 C 
ATOM     15  O   UNL     1      60.085  62.423  69.483  0.00  0.00    +0.000 OA
ATOM     16  N   UNL     1      61.197  63.244  69.116  0.00  0.00    +0.000 NA
ATOM     17  C   UNL     1      61.745  63.493  68.552  0.00  0.00    +0.000 C 
ATOM     18  O   UNL     1      62.307  64.063  68.749  0.00  0.00    +0.000 OA
ATOM     19  C   UNL     1      61.730  63.173  67.792  0.00  0.00    +0.000 C 
ENDROOT
TORSDOF 0
ENDMDL
MODEL 2
REMARK VINA RESULT:    -8.886      0.429      4.016
REMARK INTER + INTRA:          -8.886
REMARK INTER:                  -8.886
REMARK INTRA:                   0.000
REMARK UNBOUND:                 0.000
ROOT
REMARK  Name = dexrazoxane
REMARK                            x       y       z     vdW  Elec       q    Type
REMARK                         _______ _______ _______ _____ _____    ______ ____
ATOM      1  C   UNL     1      60.557  61.936  66.959  0.00  0.00    +0.000 C 
ATOM      2  C   UNL     1      61.176  62.296  66.550  0.00  0.00    +0.000 C 
ATOM      3  C   UNL     1      61.647  62.859  66.925  0.00  0.00    +0.000 C 
ATOM      4  N   UNL     1      61.500  63.063  67.711  0.00  0.00    +0.000 NA
ATOM      5  C   UNL     1      61.971  63.626  68.087  0.00  0.00    +0.000 C 
ATOM      6  C   UNL     1      61.823  63.829  68.872  0.00  0.00    +0.000 C 
ATOM      7  O   UNL     1      62.295  64.392  69.249  0.00  0.00    +0.000 OA
ATOM      8  N   UNL     1      61.204  63.469  69.283  0.00  0.00    +0.000 NA
ATOM      9  C   UNL     1      60.734  62.906  68.906  0.00  0.00    +0.000 C 
ATOM     10  O   UNL     1      60.114  62.546  69.317  0.00  0.00    +0.000 OA
ATOM     11  C   UNL     1      60.881  62.703  68.121  0.00  0.00    +0.000 C 
ATOM     12  N   UNL     1      61.324  62.093  65.763  0.00  0.00    +0.000 NA
ATOM     13  C   UNL     1      60.852  61.529  65.388  0.00  0.00    +0.000 C 
ATOM     14  C   UNL     1      61.000  61.326  64.602  0.00  0.00    +0.000 C 
ATOM     15  O   UNL     1      60.528  60.762  64.226  0.00  0.00    +0.000 OA
ATOM     16  N   UNL     1      61.620  61.686  64.192  0.00  0.00    +0.000 NA
ATOM     17  C   UNL     1      62.090  62.249  64.568  0.00  0.00    +0.000 C 
ATOM     18  O   UNL     1      62.709  62.608  64.158  0.00  0.00    +0.000 OA
ATOM     19  C   UNL     1      61.943  62.452  65.354  0.00  0.00    +0.000 C 
ENDROOT
TORSDOF 0
ENDMDL
MODEL 3
REMARK VINA RESULT:    -8.403      2.844      4.453
REMARK INTER + INTRA:          -8.403
REMARK INTER:                  -8.403
REMARK INTRA:                   0.000
REMARK UNBOUND:                 0.000
ROOT
REMARK  Name = dexrazoxane
REMARK                            x       y       z     vdW  Elec       q    Type
REMARK                         _______ _______ _______ _____ _____    ______ ____
ATOM      1  C   UNL     1      60.077  64.199  70.518  0.00  0.00    +0.000 C 
ATOM      2  C   UNL     1      59.990  64.664  69.842  0.00  0.00    +0.000 C 
ATOM      3  C   UNL     1      60.080  64.327  69.095  0.00  0.00    +0.000 C 
ATOM      4  N   UNL     1      60.256  63.525  69.023  0.00  0.00    +0.000 NA
ATOM      5  C   UNL     1      60.345  63.187  68.276  0.00  0.00    +0.000 C 
ATOM      6  C   UNL     1      60.522  62.385  68.203  0.00  0.00    +0.000 C 
ATOM      7  O   UNL     1      60.611  62.048  67.455  0.00  0.00    +0.000 OA
ATOM      8  N   UNL     1      60.609  61.919  68.878  0.00  0.00    +0.000 NA
ATOM      9  C   UNL     1      60.520  62.257  69.626  0.00  0.00    +0.000 C 
ATOM     10  O   UNL     1      60.607  61.791  70.302  0.00  0.00    +0.000 OA
ATOM     11  C   UNL     1      60.343  63.059  69.698  0.00  0.00    +0.000 C 
ATOM     12  N   UNL     1      59.814  65.468  69.914  0.00  0.00    +0.000 NA
ATOM     13  C   UNL     1      59.724  65.804  70.662  0.00  0.00    +0.000 C 
ATOM     14  C   UNL     1      59.548  66.607  70.735  0.00  0.00    +0.000 C 
ATOM     15  O   UNL     1      59.459  66.945  71.483  0.00  0.00    +0.000 OA
ATOM     16  N   UNL     1      59.461  67.073  70.059  0.00  0.00    +0.000 NA
ATOM     17  C   UNL     1      59.550  66.735  69.311  0.00  0.00    +0.000 C 
ATOM     18  O   UNL     1      59.463  67.201  68.636  0.00  0.00    +0.000 OA
ATOM     19  C   UNL     1      59.727  65.933  69.239  0.00  0.00    +0.000 C 
ENDROOT
TORSDOF 0
ENDMDL
MODEL 4
REMARK VINA RESULT:    -8.293      4.611      6.707
REMARK INTER + INTRA:          -8.293
REMARK INTER:                  -8.293
REMARK INTRA:                   0.000
REMARK UNBOUND:                 0.000
ROOT
REMARK  Name = dexrazoxane
REMARK                            x       y       z     vdW  Elec       q    Type
REMARK                         _______ _______ _______ _____ _____    ______ ____
ATOM      1  C   UNL     1      64.058  66.112  69.666  0.00  0.00    +0.000 C 
ATOM      2  C   UNL     1      64.381  66.023  70.420  0.00  0.00    +0.000 C 
ATOM      3  C   UNL     1      64.023  65.520  70.967  0.00  0.00    +0.000 C 
ATOM      4  N   UNL     1      63.341  65.105  70.759  0.00  0.00    +0.000 NA
ATOM      5  C   UNL     1      62.983  64.601  71.305  0.00  0.00    +0.000 C 
ATOM      6  C   UNL     1      62.302  64.186  71.099  0.00  0.00    +0.000 C 
ATOM      7  O   UNL     1      61.943  63.682  71.646  0.00  0.00    +0.000 OA
ATOM      8  N   UNL     1      61.977  64.274  70.345  0.00  0.00    +0.000 NA
ATOM      9  C   UNL     1      62.336  64.777  69.799  0.00  0.00    +0.000 C 
ATOM     10  O   UNL     1      62.012  64.865  69.045  0.00  0.00    +0.000 OA
ATOM     11  C   UNL     1      63.017  65.192  70.006  0.00  0.00    +0.000 C 
ATOM     12  N   UNL     1      65.064  66.440  70.628  0.00  0.00    +0.000 NA
ATOM     13  C   UNL     1      65.422  66.943  70.081  0.00  0.00    +0.000 C 
ATOM     14  C   UNL     1      66.103  67.359  70.288  0.00  0.00    +0.000 C 
ATOM     15  O   UNL     1      66.462  67.863  69.741  0.00  0.00    +0.000 OA
ATOM     16  N   UNL     1      66.428  67.271  71.042  0.00  0.00    +0.000 NA
ATOM     17  C   UNL     1      66.069  66.767  71.588  0.00  0.00    +0.000 C 
ATOM     18  O   UNL     1      66.393  66.680  72.342  0.00  0.00    +0.000 OA
ATOM     19  C   UNL     1      65.387  66.352  71.381  0.00  0.00    +0.000 C 
ENDROOT
TORSDOF 0
ENDMDL
MODEL 5
REMARK VINA RESULT:    -8.264      3.557      5.586
REMARK INTER + INTRA:          -8.264
REMARK INTER:                  -8.264
REMARK INTRA:                   0.000
REMARK UNBOUND:                 0.000
ROOT
REMARK  Name = dexrazoxane
REMARK                            x       y       z     vdW  Elec       q    Type
REMARK                         _______ _______ _______ _____ _____    ______ ____
ATOM      1  C   UNL     1      60.109  64.671  68.968  0.00  0.00    +0.000 C 
ATOM      2  C   UNL     1      60.115  64.331  69.720  0.00  0.00    +0.000 C 
ATOM      3  C   UNL     1      59.938  64.789  70.382  0.00  0.00    +0.000 C 
ATOM      4  N   UNL     1      59.755  65.589  70.292  0.00  0.00    +0.000 NA
ATOM      5  C   UNL     1      59.579  66.048  70.954  0.00  0.00    +0.000 C 
ATOM      6  C   UNL     1      59.396  66.847  70.865  0.00  0.00    +0.000 C 
ATOM      7  O   UNL     1      59.219  67.307  71.528  0.00  0.00    +0.000 OA
ATOM      8  N   UNL     1      59.390  67.188  70.114  0.00  0.00    +0.000 NA
ATOM      9  C   UNL     1      59.567  66.728  69.452  0.00  0.00    +0.000 C 
ATOM     10  O   UNL     1      59.560  67.069  68.700  0.00  0.00    +0.000 OA
ATOM     11  C   UNL     1      59.749  65.930  69.541  0.00  0.00    +0.000 C 
ATOM     12  N   UNL     1      60.298  63.530  69.809  0.00  0.00    +0.000 NA
ATOM     13  C   UNL     1      60.475  63.072  69.146  0.00  0.00    +0.000 C 
ATOM     14  C   UNL     1      60.658  62.272  69.235  0.00  0.00    +0.000 C 
ATOM     15  O   UNL     1      60.835  61.812  68.573  0.00  0.00    +0.000 OA
ATOM     16  N   UNL     1      60.664  61.931  69.988  0.00  0.00    +0.000 NA
ATOM     17  C   UNL     1      60.487  62.391  70.649  0.00  0.00    +0.000 C 
ATOM     18  O   UNL     1      60.493  62.050  71.400  0.00  0.00    +0.000 OA
ATOM     19  C   UNL     1      60.304  63.190  70.560  0.00  0.00    +0.000 C 
ENDROOT
TORSDOF 0
ENDMDL
MODEL 6
REMARK VINA RESULT:    -7.678      4.673      5.831
REMARK INTER + INTRA:          -7.678
REMARK INTER:                  -7.678
REMARK INTRA:                   0.000
REMARK UNBOUND:                 0.000
ROOT
REMARK  Name = dexrazoxane
REMARK                            x       y       z     vdW  Elec       q    Type
REMARK                         _______ _______ _______ _____ _____    ______ ____
ATOM      1  C   UNL     1      61.824  64.919  71.681  0.00  0.00    +0.000 C 
ATOM      2  C   UNL     1      62.351  64.542  71.171  0.00  0.00    +0.000 C 
ATOM      3  C   UNL     1      62.147  63.824  70.822  0.00  0.00    +0.000 C 
ATOM      4  N   UNL     1      61.414  63.481  70.983  0.00  0.00    +0.000 NA
ATOM      5  C   UNL     1      61.208  62.762  70.634  0.00  0.00    +0.000 C 
ATOM      6  C   UNL     1      60.476  62.420  70.794  0.00  0.00    +0.000 C 
ATOM      7  O   UNL     1      60.271  61.701  70.445  0.00  0.00    +0.000 OA
ATOM      8  N   UNL     1      59.947  62.796  71.304  0.00  0.00    +0.000 NA
ATOM      9  C   UNL     1      60.153  63.515  71.653  0.00  0.00    +0.000 C 
ATOM     10  O   UNL     1      59.624  63.891  72.164  0.00  0.00    +0.000 OA
ATOM     11  C   UNL     1      60.885  63.857  71.493  0.00  0.00    +0.000 C 
ATOM     12  N   UNL     1      63.085  64.885  71.010  0.00  0.00    +0.000 NA
ATOM     13  C   UNL     1      63.290  65.604  71.360  0.00  0.00    +0.000 C 
ATOM     14  C   UNL     1      64.023  65.946  71.199  0.00  0.00    +0.000 C 
ATOM     15  O   UNL     1      64.228  66.666  71.549  0.00  0.00    +0.000 OA
ATOM     16  N   UNL     1      64.552  65.570  70.689  0.00  0.00    +0.000 NA
ATOM     17  C   UNL     1      64.346  64.851  70.340  0.00  0.00    +0.000 C 
ATOM     18  O   UNL     1      64.875  64.475  69.830  0.00  0.00    +0.000 OA
ATOM     19  C   UNL     1      63.613  64.509  70.500  0.00  0.00    +0.000 C 
ENDROOT
TORSDOF 0
ENDMDL
MODEL 7
REMARK VINA RESULT:    -7.552     13.098     14.171
REMARK INTER + INTRA:          -7.552
REMARK INTER:                  -7.552
REMARK INTRA:                   0.000
REMARK UNBOUND:                 0.000
ROOT
REMARK  Name = dexrazoxane
REMARK                            x       y       z     vdW  Elec       q    Type
REMARK                         _______ _______ _______ _____ _____    ______ ____
ATOM      1  C   UNL     1      64.185  61.113  54.100  0.00  0.00    +0.000 C 
ATOM      2  C   UNL     1      64.404  61.205  53.310  0.00  0.00    +0.000 C 
ATOM      3  C   UNL     1      64.216  60.621  52.759  0.00  0.00    +0.000 C 
ATOM      4  N   UNL     1      63.810  59.943  52.999  0.00  0.00    +0.000 NA
ATOM      5  C   UNL     1      63.622  59.358  52.448  0.00  0.00    +0.000 C 
ATOM      6  C   UNL     1      63.217  58.682  52.687  0.00  0.00    +0.000 C 
ATOM      7  O   UNL     1      63.029  58.097  52.136  0.00  0.00    +0.000 OA
ATOM      8  N   UNL     1      62.998  58.589  53.477  0.00  0.00    +0.000 NA
ATOM      9  C   UNL     1      63.186  59.174  54.028  0.00  0.00    +0.000 C 
ATOM     10  O   UNL     1      62.967  59.082  54.818  0.00  0.00    +0.000 OA
ATOM     11  C   UNL     1      63.591  59.851  53.788  0.00  0.00    +0.000 C 
ATOM     12  N   UNL     1      64.810  61.883  53.070  0.00  0.00    +0.000 NA
ATOM     13  C   UNL     1      64.997  62.467  53.621  0.00  0.00    +0.000 C 
ATOM     14  C   UNL     1      65.403  63.144  53.382  0.00  0.00    +0.000 C 
ATOM     15  O   UNL     1      65.591  63.730  53.933  0.00  0.00    +0.000 OA
ATOM     16  N   UNL     1      65.622  63.237  52.591  0.00  0.00    +0.000 NA
ATOM     17  C   UNL     1      65.434  62.652  52.041  0.00  0.00    +0.000 C 
ATOM     18  O   UNL     1      65.653  62.744  51.251  0.00  0.00    +0.000 OA
ATOM     19  C   UNL     1      65.028  61.975  52.280  0.00  0.00    +0.000 C 
ENDROOT
TORSDOF 0
ENDMDL
MODEL 8
REMARK VINA RESULT:    -7.544      4.042      5.458
REMARK INTER + INTRA:          -7.544
REMARK INTER:                  -7.544
REMARK INTRA:                   0.000
REMARK UNBOUND:                 0.000
ROOT
REMARK  Name = dexrazoxane
REMARK                            x       y       z     vdW  Elec       q    Type
REMARK                         _______ _______ _______ _____ _____    ______ ____
ATOM      1  C   UNL     1      62.150  64.511  71.488  0.00  0.00    +0.000 C 
ATOM      2  C   UNL     1      62.125  64.051  70.803  0.00  0.00    +0.000 C 
ATOM      3  C   UNL     1      62.708  64.135  70.227  0.00  0.00    +0.000 C 
ATOM      4  N   UNL     1      63.318  64.680  70.335  0.00  0.00    +0.000 NA
ATOM      5  C   UNL     1      63.903  64.764  69.758  0.00  0.00    +0.000 C 
ATOM      6  C   UNL     1      64.512  65.308  69.866  0.00  0.00    +0.000 C 
ATOM      7  O   UNL     1      65.097  65.393  69.289  0.00  0.00    +0.000 OA
ATOM      8  N   UNL     1      64.539  65.769  70.549  0.00  0.00    +0.000 NA
ATOM      9  C   UNL     1      63.955  65.685  71.125  0.00  0.00    +0.000 C 
ATOM     10  O   UNL     1      63.981  66.146  71.810  0.00  0.00    +0.000 OA
ATOM     11  C   UNL     1      63.345  65.140  71.018  0.00  0.00    +0.000 C 
ATOM     12  N   UNL     1      61.514  63.505  70.696  0.00  0.00    +0.000 NA
ATOM     13  C   UNL     1      60.930  63.422  71.273  0.00  0.00    +0.000 C 
ATOM     14  C   UNL     1      60.320  62.877  71.166  0.00  0.00    +0.000 C 
ATOM     15  O   UNL     1      59.735  62.793  71.743  0.00  0.00    +0.000 OA
ATOM     16  N   UNL     1      60.294  62.416  70.482  0.00  0.00    +0.000 NA
ATOM     17  C   UNL     1      60.878  62.500  69.905  0.00  0.00    +0.000 C 
ATOM     18  O   UNL     1      60.851  62.039  69.222  0.00  0.00    +0.000 OA
ATOM     19  C   UNL     1      61.488  63.045  70.013  0.00  0.00    +0.000 C 
ENDROOT
TORSDOF 0
ENDMDL
MODEL 9
REMARK VINA RESULT:    -7.512      5.755      6.699
REMARK INTER + INTRA:          -7.512
REMARK INTER:                  -7.512
REMARK INTRA:                   0.000
REMARK UNBOUND:                 0.000
ROOT
REMARK  Name = dexrazoxane
REMARK                            x       y       z     vdW  Elec       q    Type
REMARK                         _______ _______ _______ _____ _____    ______ ____
ATOM      1  C   UNL     1      62.742  64.485  71.210  0.00  0.00    +0.000 C 
ATOM      2  C   UNL     1      62.304  64.971  71.713  0.00  0.00    +0.000 C 
ATOM      3  C   UNL     1      62.615  65.692  71.965  0.00  0.00    +0.000 C 
ATOM      4  N   UNL     1      63.365  65.928  71.714  0.00  0.00    +0.000 NA
ATOM      5  C   UNL     1      63.677  66.649  71.965  0.00  0.00    +0.000 C 
ATOM      6  C   UNL     1      64.425  66.884  71.714  0.00  0.00    +0.000 C 
ATOM      7  O   UNL     1      64.737  67.606  71.966  0.00  0.00    +0.000 OA
ATOM      8  N   UNL     1      64.864  66.400  71.211  0.00  0.00    +0.000 NA
ATOM      9  C   UNL     1      64.552  65.678  70.960  0.00  0.00    +0.000 C 
ATOM     10  O   UNL     1      64.991  65.193  70.456  0.00  0.00    +0.000 OA
ATOM     11  C   UNL     1      63.803  65.443  71.211  0.00  0.00    +0.000 C 
ATOM     12  N   UNL     1      61.554  64.735  71.965  0.00  0.00    +0.000 NA
ATOM     13  C   UNL     1      61.243  64.013  71.713  0.00  0.00    +0.000 C 
ATOM     14  C   UNL     1      60.494  63.777  71.964  0.00  0.00    +0.000 C 
ATOM     15  O   UNL     1      60.182  63.055  71.713  0.00  0.00    +0.000 OA
ATOM     16  N   UNL     1      60.055  64.263  72.468  0.00  0.00    +0.000 NA
ATOM     17  C   UNL     1      60.367  64.984  72.719  0.00  0.00    +0.000 C 
ATOM     18  O   UNL     1      59.928  65.469  73.222  0.00  0.00    +0.000 OA
ATOM     19  C   UNL     1      61.116  65.220  72.468  0.00  0.00    +0.000 C 
ENDROOT
TORSDOF 0
ENDMDL
