MODEL 1
REMARK VINA RESULT:   -11.587      0.000      0.000
REMARK INTER + INTRA:         -11.587
REMARK INTER:                 -11.587
REMARK INTRA:                   0.000
REMARK UNBOUND:                 0.000
ROOT
REMARK  Name = dextrofemine
REMARK                            x       y       z     vdW  Elec       q    Type
REMARK                         _______ _______ _______ _____ _____    ______ ____
ATOM      1  C   UNL     1      60.417  61.993  68.068  0.00  0.00    +0.000 C 
ATOM      2  C   UNL     1      61.087  62.439  67.886  0.00  0.00    +0.000 C 
ATOM      3  C   UNL     1      61.396  62.427  67.121  0.00  0.00    +0.000 C 
ATOM      4  O   UNL     1      61.034  61.968  66.538  0.00  0.00    +0.000 OA
ATOM      5  C   UNL     1      61.344  61.957  65.773  0.00  0.00    +0.000 A 
ATOM      6  C   UNL     1      60.982  61.498  65.190  0.00  0.00    +0.000 A 
ATOM      7  C   UNL     1      61.291  61.486  64.424  0.00  0.00    +0.000 A 
ATOM      8  C   UNL     1      61.960  61.931  64.243  0.00  0.00    +0.000 A 
ATOM      9  C   UNL     1      62.322  62.390  64.827  0.00  0.00    +0.000 A 
ATOM     10  C   UNL     1      62.013  62.402  65.592  0.00  0.00    +0.000 A 
ATOM     11  N   UNL     1      61.448  62.897  68.469  0.00  0.00    +0.000 NA
ATOM     12  C   UNL     1      61.139  62.909  69.235  0.00  0.00    +0.000 C 
ATOM     13  C   UNL     1      60.469  62.463  69.416  0.00  0.00    +0.000 C 
ATOM     14  C   UNL     1      61.500  63.368  69.817  0.00  0.00    +0.000 C 
ATOM     15  C   UNL     1      61.191  63.380  70.583  0.00  0.00    +0.000 A 
ATOM     16  C   UNL     1      61.553  63.838  71.166  0.00  0.00    +0.000 A 
ATOM     17  C   UNL     1      61.243  63.850  71.931  0.00  0.00    +0.000 A 
ATOM     18  C   UNL     1      60.574  63.404  72.113  0.00  0.00    +0.000 A 
ATOM     19  C   UNL     1      60.213  62.946  71.529  0.00  0.00    +0.000 A 
ATOM     20  C   UNL     1      60.521  62.934  70.765  0.00  0.00    +0.000 A 
ENDROOT
TORSDOF 0
ENDMDL
MODEL 2
REMARK VINA RESULT:   -11.425      0.917      5.374
REMARK INTER + INTRA:         -11.425
REMARK INTER:                 -11.425
REMARK INTRA:                   0.000
REMARK UNBOUND:                 0.000
ROOT
REMARK  Name = dextrofemine
REMARK                            x       y       z     vdW  Elec       q    Type
REMARK                         _______ _______ _______ _____ _____    ______ ____
ATOM      1  C   UNL     1      60.338  62.358  67.869  0.00  0.00    +0.000 C 
ATOM      2  C   UNL     1      61.052  62.755  67.982  0.00  0.00    +0.000 C 
ATOM      3  C   UNL     1      61.213  63.118  68.706  0.00  0.00    +0.000 C 
ATOM      4  O   UNL     1      60.660  63.082  69.317  0.00  0.00    +0.000 OA
ATOM      5  C   UNL     1      60.821  63.445  70.040  0.00  0.00    +0.000 A 
ATOM      6  C   UNL     1      60.268  63.409  70.651  0.00  0.00    +0.000 A 
ATOM      7  C   UNL     1      60.429  63.772  71.375  0.00  0.00    +0.000 A 
ATOM      8  C   UNL     1      61.142  64.169  71.488  0.00  0.00    +0.000 A 
ATOM      9  C   UNL     1      61.696  64.204  70.876  0.00  0.00    +0.000 A 
ATOM     10  C   UNL     1      61.535  63.841  70.152  0.00  0.00    +0.000 A 
ATOM     11  N   UNL     1      61.605  62.791  67.371  0.00  0.00    +0.000 NA
ATOM     12  C   UNL     1      61.444  62.428  66.647  0.00  0.00    +0.000 C 
ATOM     13  C   UNL     1      60.730  62.031  66.535  0.00  0.00    +0.000 C 
ATOM     14  C   UNL     1      61.997  62.464  66.037  0.00  0.00    +0.000 C 
ATOM     15  C   UNL     1      61.836  62.101  65.313  0.00  0.00    +0.000 A 
ATOM     16  C   UNL     1      62.390  62.137  64.702  0.00  0.00    +0.000 A 
ATOM     17  C   UNL     1      62.228  61.774  63.978  0.00  0.00    +0.000 A 
ATOM     18  C   UNL     1      61.514  61.377  63.865  0.00  0.00    +0.000 A 
ATOM     19  C   UNL     1      60.961  61.342  64.477  0.00  0.00    +0.000 A 
ATOM     20  C   UNL     1      61.122  61.704  65.200  0.00  0.00    +0.000 A 
ENDROOT
TORSDOF 0
ENDMDL
MODEL 3
REMARK VINA RESULT:   -11.312      3.494      5.244
REMARK INTER + INTRA:         -11.312
REMARK INTER:                 -11.312
REMARK INTRA:                   0.000
REMARK UNBOUND:                 0.000
ROOT
REMARK  Name = dextrofemine
REMARK                            x       y       z     vdW  Elec       q    Type
REMARK                         _______ _______ _______ _____ _____    ______ ____
ATOM      1  C   UNL     1      63.066  64.735  69.492  0.00  0.00    +0.000 C 
ATOM      2  C   UNL     1      63.084  64.475  70.275  0.00  0.00    +0.000 C 
ATOM      3  C   UNL     1      62.568  63.881  70.526  0.00  0.00    +0.000 C 
ATOM      4  O   UNL     1      62.033  63.549  69.993  0.00  0.00    +0.000 OA
ATOM      5  C   UNL     1      61.518  62.956  70.243  0.00  0.00    +0.000 A 
ATOM      6  C   UNL     1      60.982  62.623  69.710  0.00  0.00    +0.000 A 
ATOM      7  C   UNL     1      60.466  62.029  69.961  0.00  0.00    +0.000 A 
ATOM      8  C   UNL     1      60.485  61.770  70.742  0.00  0.00    +0.000 A 
ATOM      9  C   UNL     1      61.020  62.103  71.276  0.00  0.00    +0.000 A 
ATOM     10  C   UNL     1      61.536  62.696  71.025  0.00  0.00    +0.000 A 
ATOM     11  N   UNL     1      63.619  64.808  70.808  0.00  0.00    +0.000 NA
ATOM     12  C   UNL     1      64.135  65.401  70.558  0.00  0.00    +0.000 C 
ATOM     13  C   UNL     1      64.117  65.661  69.775  0.00  0.00    +0.000 C 
ATOM     14  C   UNL     1      64.670  65.734  71.091  0.00  0.00    +0.000 C 
ATOM     15  C   UNL     1      65.186  66.327  70.840  0.00  0.00    +0.000 A 
ATOM     16  C   UNL     1      65.721  66.660  71.373  0.00  0.00    +0.000 A 
ATOM     17  C   UNL     1      66.237  67.253  71.123  0.00  0.00    +0.000 A 
ATOM     18  C   UNL     1      66.219  67.513  70.340  0.00  0.00    +0.000 A 
ATOM     19  C   UNL     1      65.683  67.180  69.808  0.00  0.00    +0.000 A 
ATOM     20  C   UNL     1      65.168  66.587  70.057  0.00  0.00    +0.000 A 
ENDROOT
TORSDOF 0
ENDMDL
MODEL 4
REMARK VINA RESULT:   -10.942      3.438      5.391
REMARK INTER + INTRA:         -10.942
REMARK INTER:                 -10.942
REMARK INTRA:                   0.000
REMARK UNBOUND:                 0.000
ROOT
REMARK  Name = dextrofemine
REMARK                            x       y       z     vdW  Elec       q    Type
REMARK                         _______ _______ _______ _____ _____    ______ ____
ATOM      1  C   UNL     1      63.236  64.869  69.508  0.00  0.00    +0.000 C 
ATOM      2  C   UNL     1      63.446  64.863  70.306  0.00  0.00    +0.000 C 
ATOM      3  C   UNL     1      64.035  65.371  70.582  0.00  0.00    +0.000 C 
ATOM      4  O   UNL     1      64.414  65.884  70.058  0.00  0.00    +0.000 OA
ATOM      5  C   UNL     1      65.003  66.391  70.334  0.00  0.00    +0.000 A 
ATOM      6  C   UNL     1      65.383  66.905  69.811  0.00  0.00    +0.000 A 
ATOM      7  C   UNL     1      65.973  67.413  70.086  0.00  0.00    +0.000 A 
ATOM      8  C   UNL     1      66.182  67.407  70.883  0.00  0.00    +0.000 A 
ATOM      9  C   UNL     1      65.803  66.894  71.406  0.00  0.00    +0.000 A 
ATOM     10  C   UNL     1      65.213  66.386  71.131  0.00  0.00    +0.000 A 
ATOM     11  N   UNL     1      63.067  64.350  70.829  0.00  0.00    +0.000 NA
ATOM     12  C   UNL     1      62.477  63.842  70.554  0.00  0.00    +0.000 C 
ATOM     13  C   UNL     1      62.267  63.848  69.756  0.00  0.00    +0.000 C 
ATOM     14  C   UNL     1      62.098  63.329  71.077  0.00  0.00    +0.000 C 
ATOM     15  C   UNL     1      61.508  62.821  70.802  0.00  0.00    +0.000 A 
ATOM     16  C   UNL     1      61.129  62.308  71.325  0.00  0.00    +0.000 A 
ATOM     17  C   UNL     1      60.540  61.800  71.049  0.00  0.00    +0.000 A 
ATOM     18  C   UNL     1      60.330  61.806  70.251  0.00  0.00    +0.000 A 
ATOM     19  C   UNL     1      60.709  62.320  69.729  0.00  0.00    +0.000 A 
ATOM     20  C   UNL     1      61.298  62.827  70.004  0.00  0.00    +0.000 A 
ENDROOT
TORSDOF 0
ENDMDL
MODEL 5
REMARK VINA RESULT:   -10.531      1.417      5.540
REMARK INTER + INTRA:         -10.531
REMARK INTER:                 -10.531
REMARK INTRA:                   0.000
REMARK UNBOUND:                 0.000
ROOT
REMARK  Name = dextrofemine
REMARK                            x       y       z     vdW  Elec       q    Type
REMARK                         _______ _______ _______ _____ _____    ______ ____
ATOM      1  C   UNL     1      61.460  63.243  69.140  0.00  0.00    +0.000 C 
ATOM      2  C   UNL     1      60.645  63.294  69.255  0.00  0.00    +0.000 C 
ATOM      3  C   UNL     1      60.345  63.593  69.964  0.00  0.00    +0.000 C 
ATOM      4  O   UNL     1      60.862  63.841  70.557  0.00  0.00    +0.000 OA
ATOM      5  C   UNL     1      60.563  64.139  71.265  0.00  0.00    +0.000 A 
ATOM      6  C   UNL     1      61.080  64.387  71.859  0.00  0.00    +0.000 A 
ATOM      7  C   UNL     1      60.781  64.687  72.568  0.00  0.00    +0.000 A 
ATOM      8  C   UNL     1      59.966  64.738  72.683  0.00  0.00    +0.000 A 
ATOM      9  C   UNL     1      59.449  64.490  72.089  0.00  0.00    +0.000 A 
ATOM     10  C   UNL     1      59.748  64.191  71.380  0.00  0.00    +0.000 A 
ATOM     11  N   UNL     1      60.128  63.047  68.661  0.00  0.00    +0.000 NA
ATOM     12  C   UNL     1      60.427  62.747  67.952  0.00  0.00    +0.000 C 
ATOM     13  C   UNL     1      61.242  62.696  67.838  0.00  0.00    +0.000 C 
ATOM     14  C   UNL     1      59.910  62.500  67.359  0.00  0.00    +0.000 C 
ATOM     15  C   UNL     1      60.209  62.201  66.650  0.00  0.00    +0.000 A 
ATOM     16  C   UNL     1      59.692  61.953  66.057  0.00  0.00    +0.000 A 
ATOM     17  C   UNL     1      59.992  61.654  65.348  0.00  0.00    +0.000 A 
ATOM     18  C   UNL     1      60.807  61.603  65.233  0.00  0.00    +0.000 A 
ATOM     19  C   UNL     1      61.323  61.851  65.827  0.00  0.00    +0.000 A 
ATOM     20  C   UNL     1      61.025  62.149  66.535  0.00  0.00    +0.000 A 
ENDROOT
TORSDOF 0
ENDMDL
MODEL 6
REMARK VINA RESULT:    -9.598      1.711      2.585
REMARK INTER + INTRA:          -9.598
REMARK INTER:                  -9.598
REMARK INTRA:                   0.000
REMARK UNBOUND:                 0.000
ROOT
REMARK  Name = dextrofemine
REMARK                            x       y       z     vdW  Elec       q    Type
REMARK                         _______ _______ _______ _____ _____    ______ ____
ATOM      1  C   UNL     1      62.264  63.839  68.525  0.00  0.00    +0.000 C 
ATOM      2  C   UNL     1      61.478  63.817  68.773  0.00  0.00    +0.000 C 
ATOM      3  C   UNL     1      60.907  63.450  68.303  0.00  0.00    +0.000 C 
ATOM      4  O   UNL     1      61.124  63.106  67.585  0.00  0.00    +0.000 OA
ATOM      5  C   UNL     1      60.553  62.740  67.116  0.00  0.00    +0.000 A 
ATOM      6  C   UNL     1      60.769  62.395  66.397  0.00  0.00    +0.000 A 
ATOM      7  C   UNL     1      60.198  62.028  65.927  0.00  0.00    +0.000 A 
ATOM      8  C   UNL     1      59.413  62.006  66.174  0.00  0.00    +0.000 A 
ATOM      9  C   UNL     1      59.196  62.350  66.893  0.00  0.00    +0.000 A 
ATOM     10  C   UNL     1      59.767  62.717  67.363  0.00  0.00    +0.000 A 
ATOM     11  N   UNL     1      61.261  64.161  69.491  0.00  0.00    +0.000 NA
ATOM     12  C   UNL     1      61.832  64.527  69.961  0.00  0.00    +0.000 C 
ATOM     13  C   UNL     1      62.619  64.550  69.713  0.00  0.00    +0.000 C 
ATOM     14  C   UNL     1      61.615  64.871  70.679  0.00  0.00    +0.000 C 
ATOM     15  C   UNL     1      62.186  65.238  71.149  0.00  0.00    +0.000 A 
ATOM     16  C   UNL     1      61.970  65.582  71.867  0.00  0.00    +0.000 A 
ATOM     17  C   UNL     1      62.541  65.949  72.337  0.00  0.00    +0.000 A 
ATOM     18  C   UNL     1      63.327  65.971  72.089  0.00  0.00    +0.000 A 
ATOM     19  C   UNL     1      63.543  65.627  71.371  0.00  0.00    +0.000 A 
ATOM     20  C   UNL     1      62.973  65.261  70.901  0.00  0.00    +0.000 A 
ENDROOT
TORSDOF 0
ENDMDL
