MODEL 1
REMARK VINA RESULT:    -9.109      0.000      0.000
REMARK INTER + INTRA:          -9.109
REMARK INTER:                  -9.109
REMARK INTRA:                   0.000
REMARK UNBOUND:                 0.000
ROOT
REMARK  Name = diatrizoate
REMARK                            x       y       z     vdW  Elec       q    Type
REMARK                         _______ _______ _______ _____ _____    ______ ____
ATOM      1  C   UNL     1      61.630  62.680  72.913  0.00  0.00    +0.000 C 
ATOM      2  C   UNL     1      61.468  62.744  72.106  0.00  0.00    +0.000 C 
ATOM      3  O   UNL     1      61.085  62.130  71.712  0.00  0.00    +0.000 OA
ATOM      4  N   UNL     1      61.690  63.423  71.693  0.00  0.00    +0.000 NA
ATOM      5  C   UNL     1      61.529  63.487  70.888  0.00  0.00    +0.000 A 
ATOM      6  C   UNL     1      61.145  62.872  70.493  0.00  0.00    +0.000 A 
ATOM      7  I   UNL     1      60.923  62.194  70.907  0.00  0.00    +0.000 I 
ATOM      8  C   UNL     1      60.984  62.936  69.687  0.00  0.00    +0.000 A 
ATOM      9  C   UNL     1      60.600  62.322  69.294  0.00  0.00    +0.000 C 
ATOM     10  O   UNL     1      60.438  62.386  68.486  0.00  0.00    +0.000 OA
ATOM     11  O   UNL     1      60.377  61.642  69.706  0.00  0.00    +0.000 OA
ATOM     12  C   UNL     1      61.206  63.615  69.275  0.00  0.00    +0.000 A 
ATOM     13  I   UNL     1      61.044  63.679  68.467  0.00  0.00    +0.000 I 
ATOM     14  C   UNL     1      61.590  64.230  69.668  0.00  0.00    +0.000 A 
ATOM     15  N   UNL     1      61.812  64.910  69.256  0.00  0.00    +0.000 NA
ATOM     16  C   UNL     1      62.196  65.524  69.650  0.00  0.00    +0.000 C 
ATOM     17  C   UNL     1      62.418  66.203  69.238  0.00  0.00    +0.000 C 
ATOM     18  O   UNL     1      62.358  65.460  70.456  0.00  0.00    +0.000 OA
ATOM     19  C   UNL     1      61.751  64.166  70.475  0.00  0.00    +0.000 A 
ATOM     20  I   UNL     1      62.136  64.781  70.869  0.00  0.00    +0.000 I 
ENDROOT
TORSDOF 0
ENDMDL
MODEL 2
REMARK VINA RESULT:    -9.003      1.154      2.522
REMARK INTER + INTRA:          -9.003
REMARK INTER:                  -9.003
REMARK INTRA:                   0.000
REMARK UNBOUND:                 0.000
ROOT
REMARK  Name = diatrizoate
REMARK                            x       y       z     vdW  Elec       q    Type
REMARK                         _______ _______ _______ _____ _____    ______ ____
ATOM      1  C   UNL     1      61.313  63.226  67.053  0.00  0.00    +0.000 C 
ATOM      2  C   UNL     1      61.234  63.063  67.858  0.00  0.00    +0.000 C 
ATOM      3  O   UNL     1      60.749  62.445  68.108  0.00  0.00    +0.000 OA
ATOM      4  N   UNL     1      61.640  63.519  68.413  0.00  0.00    +0.000 NA
ATOM      5  C   UNL     1      61.561  63.356  69.217  0.00  0.00    +0.000 A 
ATOM      6  C   UNL     1      61.076  62.737  69.468  0.00  0.00    +0.000 A 
ATOM      7  I   UNL     1      60.670  62.282  68.912  0.00  0.00    +0.000 I 
ATOM      8  C   UNL     1      60.997  62.574  70.272  0.00  0.00    +0.000 A 
ATOM      9  C   UNL     1      60.512  61.956  70.522  0.00  0.00    +0.000 C 
ATOM     10  O   UNL     1      60.433  61.793  71.328  0.00  0.00    +0.000 OA
ATOM     11  O   UNL     1      60.106  61.500  69.967  0.00  0.00    +0.000 OA
ATOM     12  C   UNL     1      61.403  63.029  70.827  0.00  0.00    +0.000 A 
ATOM     13  I   UNL     1      61.324  62.866  71.633  0.00  0.00    +0.000 I 
ATOM     14  C   UNL     1      61.888  63.648  70.578  0.00  0.00    +0.000 A 
ATOM     15  N   UNL     1      62.295  64.105  71.132  0.00  0.00    +0.000 NA
ATOM     16  C   UNL     1      62.780  64.723  70.883  0.00  0.00    +0.000 C 
ATOM     17  C   UNL     1      63.185  65.178  71.438  0.00  0.00    +0.000 C 
ATOM     18  O   UNL     1      62.859  64.886  70.078  0.00  0.00    +0.000 OA
ATOM     19  C   UNL     1      61.967  63.812  69.773  0.00  0.00    +0.000 A 
ATOM     20  I   UNL     1      62.453  64.431  69.523  0.00  0.00    +0.000 I 
ENDROOT
TORSDOF 0
ENDMDL
MODEL 3
REMARK VINA RESULT:    -8.985      1.266      2.650
REMARK INTER + INTRA:          -8.985
REMARK INTER:                  -8.985
REMARK INTRA:                   0.000
REMARK UNBOUND:                 0.000
ROOT
REMARK  Name = diatrizoate
REMARK                            x       y       z     vdW  Elec       q    Type
REMARK                         _______ _______ _______ _____ _____    ______ ____
ATOM      1  C   UNL     1      61.643  62.426  73.199  0.00  0.00    +0.000 C 
ATOM      2  C   UNL     1      61.460  62.951  72.590  0.00  0.00    +0.000 C 
ATOM      3  O   UNL     1      61.487  63.765  72.723  0.00  0.00    +0.000 OA
ATOM      4  N   UNL     1      61.250  62.663  71.846  0.00  0.00    +0.000 NA
ATOM      5  C   UNL     1      61.067  63.188  71.237  0.00  0.00    +0.000 A 
ATOM      6  C   UNL     1      61.094  64.001  71.371  0.00  0.00    +0.000 A 
ATOM      7  I   UNL     1      61.304  64.289  72.115  0.00  0.00    +0.000 I 
ATOM      8  C   UNL     1      60.911  64.526  70.761  0.00  0.00    +0.000 A 
ATOM      9  C   UNL     1      60.938  65.339  70.895  0.00  0.00    +0.000 C 
ATOM     10  O   UNL     1      60.755  65.865  70.285  0.00  0.00    +0.000 OA
ATOM     11  O   UNL     1      61.148  65.628  71.639  0.00  0.00    +0.000 OA
ATOM     12  C   UNL     1      60.701  64.238  70.018  0.00  0.00    +0.000 A 
ATOM     13  I   UNL     1      60.517  64.763  69.408  0.00  0.00    +0.000 I 
ATOM     14  C   UNL     1      60.673  63.424  69.883  0.00  0.00    +0.000 A 
ATOM     15  N   UNL     1      60.463  63.135  69.139  0.00  0.00    +0.000 NA
ATOM     16  C   UNL     1      60.436  62.322  69.005  0.00  0.00    +0.000 C 
ATOM     17  C   UNL     1      60.226  62.033  68.262  0.00  0.00    +0.000 C 
ATOM     18  O   UNL     1      60.619  61.797  69.615  0.00  0.00    +0.000 OA
ATOM     19  C   UNL     1      60.857  62.899  70.493  0.00  0.00    +0.000 A 
ATOM     20  I   UNL     1      60.829  62.085  70.358  0.00  0.00    +0.000 I 
ENDROOT
TORSDOF 0
ENDMDL
MODEL 4
REMARK VINA RESULT:    -8.984      1.632      2.679
REMARK INTER + INTRA:          -8.984
REMARK INTER:                  -8.984
REMARK INTRA:                   0.000
REMARK UNBOUND:                 0.000
ROOT
REMARK  Name = diatrizoate
REMARK                            x       y       z     vdW  Elec       q    Type
REMARK                         _______ _______ _______ _____ _____    ______ ____
ATOM      1  C   UNL     1      60.512  61.959  68.524  0.00  0.00    +0.000 C 
ATOM      2  C   UNL     1      60.555  62.338  69.256  0.00  0.00    +0.000 C 
ATOM      3  O   UNL     1      60.773  61.913  69.928  0.00  0.00    +0.000 OA
ATOM      4  N   UNL     1      60.378  63.141  69.316  0.00  0.00    +0.000 NA
ATOM      5  C   UNL     1      60.420  63.519  70.047  0.00  0.00    +0.000 A 
ATOM      6  C   UNL     1      60.639  63.094  70.720  0.00  0.00    +0.000 A 
ATOM      7  I   UNL     1      60.815  62.290  70.659  0.00  0.00    +0.000 I 
ATOM      8  C   UNL     1      60.681  63.472  71.452  0.00  0.00    +0.000 A 
ATOM      9  C   UNL     1      60.899  63.047  72.123  0.00  0.00    +0.000 C 
ATOM     10  O   UNL     1      60.941  63.425  72.856  0.00  0.00    +0.000 OA
ATOM     11  O   UNL     1      61.076  62.243  72.064  0.00  0.00    +0.000 OA
ATOM     12  C   UNL     1      60.504  64.275  71.512  0.00  0.00    +0.000 A 
ATOM     13  I   UNL     1      60.547  64.654  72.244  0.00  0.00    +0.000 I 
ATOM     14  C   UNL     1      60.286  64.701  70.840  0.00  0.00    +0.000 A 
ATOM     15  N   UNL     1      60.109  65.505  70.899  0.00  0.00    +0.000 NA
ATOM     16  C   UNL     1      59.891  65.931  70.227  0.00  0.00    +0.000 C 
ATOM     17  C   UNL     1      59.715  66.734  70.287  0.00  0.00    +0.000 C 
ATOM     18  O   UNL     1      59.849  65.552  69.495  0.00  0.00    +0.000 OA
ATOM     19  C   UNL     1      60.244  64.323  70.108  0.00  0.00    +0.000 A 
ATOM     20  I   UNL     1      60.025  64.749  69.435  0.00  0.00    +0.000 I 
ENDROOT
TORSDOF 0
ENDMDL
MODEL 5
REMARK VINA RESULT:    -8.885      0.993      3.069
REMARK INTER + INTRA:          -8.885
REMARK INTER:                  -8.885
REMARK INTRA:                   0.000
REMARK UNBOUND:                 0.000
ROOT
REMARK  Name = diatrizoate
REMARK                            x       y       z     vdW  Elec       q    Type
REMARK                         _______ _______ _______ _____ _____    ______ ____
ATOM      1  C   UNL     1      63.086  66.072  69.758  0.00  0.00    +0.000 C 
ATOM      2  C   UNL     1      62.719  65.430  70.123  0.00  0.00    +0.000 C 
ATOM      3  O   UNL     1      62.741  65.354  70.944  0.00  0.00    +0.000 OA
ATOM      4  N   UNL     1      62.328  64.864  69.668  0.00  0.00    +0.000 NA
ATOM      5  C   UNL     1      61.961  64.223  70.033  0.00  0.00    +0.000 A 
ATOM      6  C   UNL     1      61.983  64.147  70.854  0.00  0.00    +0.000 A 
ATOM      7  I   UNL     1      62.374  64.713  71.309  0.00  0.00    +0.000 I 
ATOM      8  C   UNL     1      61.616  63.505  71.220  0.00  0.00    +0.000 A 
ATOM      9  C   UNL     1      61.638  63.430  72.040  0.00  0.00    +0.000 C 
ATOM     10  O   UNL     1      61.270  62.787  72.406  0.00  0.00    +0.000 OA
ATOM     11  O   UNL     1      62.029  63.996  72.497  0.00  0.00    +0.000 OA
ATOM     12  C   UNL     1      61.226  62.939  70.764  0.00  0.00    +0.000 A 
ATOM     13  I   UNL     1      60.858  62.297  71.130  0.00  0.00    +0.000 I 
ATOM     14  C   UNL     1      61.203  63.015  69.943  0.00  0.00    +0.000 A 
ATOM     15  N   UNL     1      60.812  62.449  69.486  0.00  0.00    +0.000 NA
ATOM     16  C   UNL     1      60.790  62.524  68.666  0.00  0.00    +0.000 C 
ATOM     17  C   UNL     1      60.400  61.958  68.210  0.00  0.00    +0.000 C 
ATOM     18  O   UNL     1      61.157  63.166  68.300  0.00  0.00    +0.000 OA
ATOM     19  C   UNL     1      61.570  63.656  69.577  0.00  0.00    +0.000 A 
ATOM     20  I   UNL     1      61.548  63.732  68.755  0.00  0.00    +0.000 I 
ENDROOT
TORSDOF 0
ENDMDL
MODEL 6
REMARK VINA RESULT:    -8.870      1.686      3.170
REMARK INTER + INTRA:          -8.870
REMARK INTER:                  -8.870
REMARK INTRA:                   0.000
REMARK UNBOUND:                 0.000
ROOT
REMARK  Name = diatrizoate
REMARK                            x       y       z     vdW  Elec       q    Type
REMARK                         _______ _______ _______ _____ _____    ______ ____
ATOM      1  C   UNL     1      59.507  66.556  70.167  0.00  0.00    +0.000 C 
ATOM      2  C   UNL     1      59.753  65.818  70.442  0.00  0.00    +0.000 C 
ATOM      3  O   UNL     1      59.838  65.686  71.252  0.00  0.00    +0.000 OA
ATOM      4  N   UNL     1      59.913  65.210  69.907  0.00  0.00    +0.000 NA
ATOM      5  C   UNL     1      60.158  64.473  70.181  0.00  0.00    +0.000 A 
ATOM      6  C   UNL     1      60.243  64.341  70.991  0.00  0.00    +0.000 A 
ATOM      7  I   UNL     1      60.083  64.948  71.526  0.00  0.00    +0.000 I 
ATOM      8  C   UNL     1      60.488  63.603  71.266  0.00  0.00    +0.000 A 
ATOM      9  C   UNL     1      60.573  63.472  72.075  0.00  0.00    +0.000 C 
ATOM     10  O   UNL     1      60.818  62.733  72.350  0.00  0.00    +0.000 OA
ATOM     11  O   UNL     1      60.413  64.078  72.611  0.00  0.00    +0.000 OA
ATOM     12  C   UNL     1      60.648  62.997  70.731  0.00  0.00    +0.000 A 
ATOM     13  I   UNL     1      60.894  62.257  71.006  0.00  0.00    +0.000 I 
ATOM     14  C   UNL     1      60.564  63.127  69.921  0.00  0.00    +0.000 A 
ATOM     15  N   UNL     1      60.724  62.521  69.385  0.00  0.00    +0.000 NA
ATOM     16  C   UNL     1      60.639  62.652  68.575  0.00  0.00    +0.000 C 
ATOM     17  C   UNL     1      60.800  62.046  68.040  0.00  0.00    +0.000 C 
ATOM     18  O   UNL     1      60.394  63.390  68.300  0.00  0.00    +0.000 OA
ATOM     19  C   UNL     1      60.319  63.866  69.646  0.00  0.00    +0.000 A 
ATOM     20  I   UNL     1      60.234  63.997  68.835  0.00  0.00    +0.000 I 
ENDROOT
TORSDOF 0
ENDMDL
MODEL 7
REMARK VINA RESULT:    -8.845      2.079      3.318
REMARK INTER + INTRA:          -8.845
REMARK INTER:                  -8.845
REMARK INTRA:                   0.000
REMARK UNBOUND:                 0.000
ROOT
REMARK  Name = diatrizoate
REMARK                            x       y       z     vdW  Elec       q    Type
REMARK                         _______ _______ _______ _____ _____    ______ ____
ATOM      1  C   UNL     1      61.691  62.653  70.859  0.00  0.00    +0.000 C 
ATOM      2  C   UNL     1      61.881  63.396  71.162  0.00  0.00    +0.000 C 
ATOM      3  O   UNL     1      61.472  63.692  71.815  0.00  0.00    +0.000 OA
ATOM      4  N   UNL     1      62.479  63.844  70.813  0.00  0.00    +0.000 NA
ATOM      5  C   UNL     1      62.669  64.586  71.116  0.00  0.00    +0.000 A 
ATOM      6  C   UNL     1      62.260  64.882  71.769  0.00  0.00    +0.000 A 
ATOM      7  I   UNL     1      61.662  64.435  72.118  0.00  0.00    +0.000 I 
ATOM      8  C   UNL     1      62.450  65.626  72.072  0.00  0.00    +0.000 A 
ATOM      9  C   UNL     1      62.042  65.921  72.725  0.00  0.00    +0.000 C 
ATOM     10  O   UNL     1      62.232  66.665  73.028  0.00  0.00    +0.000 OA
ATOM     11  O   UNL     1      61.443  65.474  73.074  0.00  0.00    +0.000 OA
ATOM     12  C   UNL     1      63.049  66.073  71.723  0.00  0.00    +0.000 A 
ATOM     13  I   UNL     1      63.239  66.817  72.027  0.00  0.00    +0.000 I 
ATOM     14  C   UNL     1      63.458  65.777  71.070  0.00  0.00    +0.000 A 
ATOM     15  N   UNL     1      64.057  66.224  70.721  0.00  0.00    +0.000 NA
ATOM     16  C   UNL     1      64.465  65.929  70.068  0.00  0.00    +0.000 C 
ATOM     17  C   UNL     1      65.064  66.376  69.719  0.00  0.00    +0.000 C 
ATOM     18  O   UNL     1      64.275  65.186  69.765  0.00  0.00    +0.000 OA
ATOM     19  C   UNL     1      63.268  65.034  70.767  0.00  0.00    +0.000 A 
ATOM     20  I   UNL     1      63.677  64.738  70.114  0.00  0.00    +0.000 I 
ENDROOT
TORSDOF 0
ENDMDL
MODEL 8
REMARK VINA RESULT:    -8.804      0.925      3.227
REMARK INTER + INTRA:          -8.804
REMARK INTER:                  -8.804
REMARK INTRA:                   0.000
REMARK UNBOUND:                 0.000
ROOT
REMARK  Name = diatrizoate
REMARK                            x       y       z     vdW  Elec       q    Type
REMARK                         _______ _______ _______ _____ _____    ______ ____
ATOM      1  C   UNL     1      60.163  61.990  68.123  0.00  0.00    +0.000 C 
ATOM      2  C   UNL     1      60.548  62.563  68.576  0.00  0.00    +0.000 C 
ATOM      3  O   UNL     1      60.780  63.275  68.231  0.00  0.00    +0.000 OA
ATOM      4  N   UNL     1      60.702  62.423  69.374  0.00  0.00    +0.000 NA
ATOM      5  C   UNL     1      61.087  62.994  69.826  0.00  0.00    +0.000 A 
ATOM      6  C   UNL     1      61.318  63.707  69.481  0.00  0.00    +0.000 A 
ATOM      7  I   UNL     1      61.164  63.847  68.683  0.00  0.00    +0.000 I 
ATOM      8  C   UNL     1      61.703  64.279  69.934  0.00  0.00    +0.000 A 
ATOM      9  C   UNL     1      61.934  64.991  69.589  0.00  0.00    +0.000 C 
ATOM     10  O   UNL     1      62.320  65.564  70.042  0.00  0.00    +0.000 OA
ATOM     11  O   UNL     1      61.781  65.132  68.790  0.00  0.00    +0.000 OA
ATOM     12  C   UNL     1      61.857  64.139  70.732  0.00  0.00    +0.000 A 
ATOM     13  I   UNL     1      62.242  64.712  71.185  0.00  0.00    +0.000 I 
ATOM     14  C   UNL     1      61.626  63.426  71.078  0.00  0.00    +0.000 A 
ATOM     15  N   UNL     1      61.779  63.285  71.876  0.00  0.00    +0.000 NA
ATOM     16  C   UNL     1      61.548  62.573  72.222  0.00  0.00    +0.000 C 
ATOM     17  C   UNL     1      61.702  62.433  73.020  0.00  0.00    +0.000 C 
ATOM     18  O   UNL     1      61.163  62.001  71.769  0.00  0.00    +0.000 OA
ATOM     19  C   UNL     1      61.241  62.854  70.625  0.00  0.00    +0.000 A 
ATOM     20  I   UNL     1      61.009  62.141  70.971  0.00  0.00    +0.000 I 
ENDROOT
TORSDOF 0
ENDMDL
MODEL 9
REMARK VINA RESULT:    -8.610      2.883      4.628
REMARK INTER + INTRA:          -8.610
REMARK INTER:                  -8.610
REMARK INTRA:                   0.000
REMARK UNBOUND:                 0.000
ROOT
REMARK  Name = diatrizoate
REMARK                            x       y       z     vdW  Elec       q    Type
REMARK                         _______ _______ _______ _____ _____    ______ ____
ATOM      1  C   UNL     1      64.627  64.477  69.966  0.00  0.00    +0.000 C 
ATOM      2  C   UNL     1      64.325  65.054  70.472  0.00  0.00    +0.000 C 
ATOM      3  O   UNL     1      64.743  65.754  70.598  0.00  0.00    +0.000 OA
ATOM      4  N   UNL     1      63.604  64.931  70.854  0.00  0.00    +0.000 NA
ATOM      5  C   UNL     1      63.302  65.508  71.360  0.00  0.00    +0.000 A 
ATOM      6  C   UNL     1      63.720  66.207  71.485  0.00  0.00    +0.000 A 
ATOM      7  I   UNL     1      64.441  66.330  71.104  0.00  0.00    +0.000 I 
ATOM      8  C   UNL     1      63.418  66.784  71.992  0.00  0.00    +0.000 A 
ATOM      9  C   UNL     1      63.836  67.483  72.117  0.00  0.00    +0.000 C 
ATOM     10  O   UNL     1      63.533  68.061  72.624  0.00  0.00    +0.000 OA
ATOM     11  O   UNL     1      64.558  67.607  71.735  0.00  0.00    +0.000 OA
ATOM     12  C   UNL     1      62.697  66.661  72.373  0.00  0.00    +0.000 A 
ATOM     13  I   UNL     1      62.394  67.239  72.880  0.00  0.00    +0.000 I 
ATOM     14  C   UNL     1      62.278  65.961  72.248  0.00  0.00    +0.000 A 
ATOM     15  N   UNL     1      61.556  65.838  72.629  0.00  0.00    +0.000 NA
ATOM     16  C   UNL     1      61.138  65.139  72.504  0.00  0.00    +0.000 C 
ATOM     17  C   UNL     1      60.417  65.016  72.885  0.00  0.00    +0.000 C 
ATOM     18  O   UNL     1      61.440  64.562  71.998  0.00  0.00    +0.000 OA
ATOM     19  C   UNL     1      62.580  65.385  71.742  0.00  0.00    +0.000 A 
ATOM     20  I   UNL     1      62.161  64.684  71.616  0.00  0.00    +0.000 I 
ENDROOT
TORSDOF 0
ENDMDL
