MODEL 1
REMARK VINA RESULT:   -11.112      0.000      0.000
REMARK INTER + INTRA:         -11.112
REMARK INTER:                 -11.112
REMARK INTRA:                   0.000
REMARK UNBOUND:                 0.000
ROOT
REMARK  Name = diaziquone
REMARK                            x       y       z     vdW  Elec       q    Type
REMARK                         _______ _______ _______ _____ _____    ______ ____
ATOM      1  C   UNL     1      65.001  65.734  71.065  0.00  0.00    +0.000 C 
ATOM      2  C   UNL     1      64.423  65.352  70.617  0.00  0.00    +0.000 C 
ATOM      3  O   UNL     1      63.796  64.968  70.992  0.00  0.00    +0.000 OA
ATOM      4  C   UNL     1      63.218  64.587  70.544  0.00  0.00    +0.000 C 
ATOM      5  O   UNL     1      63.267  64.589  69.721  0.00  0.00    +0.000 OA
ATOM      6  N   UNL     1      62.591  64.203  70.919  0.00  0.00    +0.000 NA
ATOM      7  C   UNL     1      62.013  63.822  70.471  0.00  0.00    +0.000 C 
ATOM      8  C   UNL     1      61.387  63.438  70.847  0.00  0.00    +0.000 C 
ATOM      9  N   UNL     1      61.338  63.436  71.670  0.00  0.00    +0.000 N 
ATOM     10  C   UNL     1      61.644  63.655  72.404  0.00  0.00    +0.000 C 
ATOM     11  C   UNL     1      60.949  63.214  72.362  0.00  0.00    +0.000 C 
ATOM     12  C   UNL     1      60.809  63.057  70.399  0.00  0.00    +0.000 C 
ATOM     13  O   UNL     1      60.183  62.674  70.774  0.00  0.00    +0.000 OA
ATOM     14  C   UNL     1      60.857  63.059  69.575  0.00  0.00    +0.000 C 
ATOM     15  N   UNL     1      60.279  62.677  69.126  0.00  0.00    +0.000 NA
ATOM     16  C   UNL     1      60.328  62.679  68.303  0.00  0.00    +0.000 C 
ATOM     17  O   UNL     1      60.954  63.063  67.928  0.00  0.00    +0.000 OA
ATOM     18  O   UNL     1      59.749  62.298  67.855  0.00  0.00    +0.000 OA
ATOM     19  C   UNL     1      59.798  62.300  67.031  0.00  0.00    +0.000 C 
ATOM     20  C   UNL     1      59.220  61.918  66.584  0.00  0.00    +0.000 C 
ATOM     21  C   UNL     1      61.484  63.442  69.199  0.00  0.00    +0.000 C 
ATOM     22  N   UNL     1      61.532  63.444  68.376  0.00  0.00    +0.000 N 
ATOM     23  C   UNL     1      61.226  63.225  67.641  0.00  0.00    +0.000 C 
ATOM     24  C   UNL     1      61.922  63.667  67.684  0.00  0.00    +0.000 C 
ATOM     25  C   UNL     1      62.062  63.824  69.648  0.00  0.00    +0.000 C 
ATOM     26  O   UNL     1      62.689  64.208  69.273  0.00  0.00    +0.000 OA
ENDROOT
TORSDOF 0
ENDMDL
MODEL 2
REMARK VINA RESULT:   -11.036      2.319      3.860
REMARK INTER + INTRA:         -11.036
REMARK INTER:                 -11.036
REMARK INTRA:                   0.000
REMARK UNBOUND:                 0.000
ROOT
REMARK  Name = diaziquone
REMARK                            x       y       z     vdW  Elec       q    Type
REMARK                         _______ _______ _______ _____ _____    ______ ____
ATOM      1  C   UNL     1      61.616  62.357  66.219  0.00  0.00    +0.000 C 
ATOM      2  C   UNL     1      61.339  62.887  66.786  0.00  0.00    +0.000 C 
ATOM      3  O   UNL     1      61.203  62.632  67.559  0.00  0.00    +0.000 OA
ATOM      4  C   UNL     1      60.925  63.163  68.126  0.00  0.00    +0.000 C 
ATOM      5  O   UNL     1      60.784  63.949  67.921  0.00  0.00    +0.000 OA
ATOM      6  N   UNL     1      60.789  62.907  68.899  0.00  0.00    +0.000 NA
ATOM      7  C   UNL     1      60.512  63.438  69.466  0.00  0.00    +0.000 C 
ATOM      8  C   UNL     1      60.376  63.182  70.239  0.00  0.00    +0.000 C 
ATOM      9  N   UNL     1      60.517  62.396  70.444  0.00  0.00    +0.000 N 
ATOM     10  C   UNL     1      60.759  61.635  70.235  0.00  0.00    +0.000 C 
ATOM     11  C   UNL     1      60.521  61.794  71.008  0.00  0.00    +0.000 C 
ATOM     12  C   UNL     1      60.099  63.712  70.807  0.00  0.00    +0.000 C 
ATOM     13  O   UNL     1      59.963  63.457  71.578  0.00  0.00    +0.000 OA
ATOM     14  C   UNL     1      59.957  64.499  70.601  0.00  0.00    +0.000 C 
ATOM     15  N   UNL     1      59.680  65.030  71.169  0.00  0.00    +0.000 NA
ATOM     16  C   UNL     1      59.538  65.816  70.964  0.00  0.00    +0.000 C 
ATOM     17  O   UNL     1      59.674  66.072  70.191  0.00  0.00    +0.000 OA
ATOM     18  O   UNL     1      59.261  66.346  71.531  0.00  0.00    +0.000 OA
ATOM     19  C   UNL     1      59.119  67.134  71.326  0.00  0.00    +0.000 C 
ATOM     20  C   UNL     1      58.842  67.664  71.894  0.00  0.00    +0.000 C 
ATOM     21  C   UNL     1      60.093  64.755  69.829  0.00  0.00    +0.000 C 
ATOM     22  N   UNL     1      59.951  65.542  69.624  0.00  0.00    +0.000 N 
ATOM     23  C   UNL     1      59.709  66.302  69.833  0.00  0.00    +0.000 C 
ATOM     24  C   UNL     1      59.948  66.143  69.059  0.00  0.00    +0.000 C 
ATOM     25  C   UNL     1      60.371  64.223  69.262  0.00  0.00    +0.000 C 
ATOM     26  O   UNL     1      60.507  64.479  68.488  0.00  0.00    +0.000 OA
ENDROOT
TORSDOF 0
ENDMDL
MODEL 3
REMARK VINA RESULT:   -10.807      2.080      4.504
REMARK INTER + INTRA:         -10.807
REMARK INTER:                 -10.807
REMARK INTRA:                   0.000
REMARK UNBOUND:                 0.000
ROOT
REMARK  Name = diaziquone
REMARK                            x       y       z     vdW  Elec       q    Type
REMARK                         _______ _______ _______ _____ _____    ______ ____
ATOM      1  C   UNL     1      60.511  61.639  70.455  0.00  0.00    +0.000 C 
ATOM      2  C   UNL     1      61.087  62.229  70.424  0.00  0.00    +0.000 C 
ATOM      3  O   UNL     1      61.052  62.868  70.945  0.00  0.00    +0.000 OA
ATOM      4  C   UNL     1      61.628  63.457  70.913  0.00  0.00    +0.000 C 
ATOM      5  O   UNL     1      62.239  63.408  70.362  0.00  0.00    +0.000 OA
ATOM      6  N   UNL     1      61.593  64.097  71.434  0.00  0.00    +0.000 NA
ATOM      7  C   UNL     1      62.169  64.686  71.403  0.00  0.00    +0.000 C 
ATOM      8  C   UNL     1      62.134  65.325  71.923  0.00  0.00    +0.000 C 
ATOM      9  N   UNL     1      61.523  65.376  72.475  0.00  0.00    +0.000 N 
ATOM     10  C   UNL     1      60.838  65.064  72.812  0.00  0.00    +0.000 C 
ATOM     11  C   UNL     1      61.150  65.773  73.094  0.00  0.00    +0.000 C 
ATOM     12  C   UNL     1      62.710  65.915  71.892  0.00  0.00    +0.000 C 
ATOM     13  O   UNL     1      62.675  66.554  72.412  0.00  0.00    +0.000 OA
ATOM     14  C   UNL     1      63.322  65.865  71.340  0.00  0.00    +0.000 C 
ATOM     15  N   UNL     1      63.898  66.456  71.309  0.00  0.00    +0.000 NA
ATOM     16  C   UNL     1      64.509  66.405  70.757  0.00  0.00    +0.000 C 
ATOM     17  O   UNL     1      64.544  65.766  70.236  0.00  0.00    +0.000 OA
ATOM     18  O   UNL     1      65.085  66.995  70.726  0.00  0.00    +0.000 OA
ATOM     19  C   UNL     1      65.697  66.945  70.174  0.00  0.00    +0.000 C 
ATOM     20  C   UNL     1      66.273  67.535  70.143  0.00  0.00    +0.000 C 
ATOM     21  C   UNL     1      63.357  65.226  70.820  0.00  0.00    +0.000 C 
ATOM     22  N   UNL     1      63.969  65.177  70.268  0.00  0.00    +0.000 N 
ATOM     23  C   UNL     1      64.654  65.489  69.931  0.00  0.00    +0.000 C 
ATOM     24  C   UNL     1      64.341  64.779  69.649  0.00  0.00    +0.000 C 
ATOM     25  C   UNL     1      62.780  64.637  70.851  0.00  0.00    +0.000 C 
ATOM     26  O   UNL     1      62.815  63.997  70.330  0.00  0.00    +0.000 OA
ENDROOT
TORSDOF 0
ENDMDL
MODEL 4
REMARK VINA RESULT:   -10.686      1.123      1.148
REMARK INTER + INTRA:         -10.686
REMARK INTER:                 -10.686
REMARK INTRA:                   0.000
REMARK UNBOUND:                 0.000
ROOT
REMARK  Name = diaziquone
REMARK                            x       y       z     vdW  Elec       q    Type
REMARK                         _______ _______ _______ _____ _____    ______ ____
ATOM      1  C   UNL     1      63.066  66.566  72.372  0.00  0.00    +0.000 C 
ATOM      2  C   UNL     1      62.697  66.117  71.787  0.00  0.00    +0.000 C 
ATOM      3  O   UNL     1      62.469  65.340  71.944  0.00  0.00    +0.000 OA
ATOM      4  C   UNL     1      62.100  64.892  71.357  0.00  0.00    +0.000 C 
ATOM      5  O   UNL     1      61.958  65.221  70.615  0.00  0.00    +0.000 OA
ATOM      6  N   UNL     1      61.872  64.114  71.515  0.00  0.00    +0.000 NA
ATOM      7  C   UNL     1      61.503  63.666  70.929  0.00  0.00    +0.000 C 
ATOM      8  C   UNL     1      61.275  62.889  71.086  0.00  0.00    +0.000 C 
ATOM      9  N   UNL     1      61.416  62.559  71.829  0.00  0.00    +0.000 N 
ATOM     10  C   UNL     1      61.711  62.628  72.596  0.00  0.00    +0.000 C 
ATOM     11  C   UNL     1      61.367  61.921  72.349  0.00  0.00    +0.000 C 
ATOM     12  C   UNL     1      60.906  62.440  70.501  0.00  0.00    +0.000 C 
ATOM     13  O   UNL     1      60.678  61.664  70.658  0.00  0.00    +0.000 OA
ATOM     14  C   UNL     1      60.764  62.770  69.757  0.00  0.00    +0.000 C 
ATOM     15  N   UNL     1      60.394  62.321  69.171  0.00  0.00    +0.000 NA
ATOM     16  C   UNL     1      60.253  62.651  68.428  0.00  0.00    +0.000 C 
ATOM     17  O   UNL     1      60.481  63.428  68.271  0.00  0.00    +0.000 OA
ATOM     18  O   UNL     1      59.884  62.202  67.842  0.00  0.00    +0.000 OA
ATOM     19  C   UNL     1      59.742  62.532  67.099  0.00  0.00    +0.000 C 
ATOM     20  C   UNL     1      59.373  62.083  66.513  0.00  0.00    +0.000 C 
ATOM     21  C   UNL     1      60.992  63.547  69.600  0.00  0.00    +0.000 C 
ATOM     22  N   UNL     1      60.850  63.876  68.856  0.00  0.00    +0.000 N 
ATOM     23  C   UNL     1      60.555  63.807  68.089  0.00  0.00    +0.000 C 
ATOM     24  C   UNL     1      60.900  64.515  68.337  0.00  0.00    +0.000 C 
ATOM     25  C   UNL     1      61.361  63.995  70.186  0.00  0.00    +0.000 C 
ATOM     26  O   UNL     1      61.589  64.773  70.029  0.00  0.00    +0.000 OA
ENDROOT
TORSDOF 0
ENDMDL
MODEL 5
REMARK VINA RESULT:   -10.600      1.527      2.761
REMARK INTER + INTRA:         -10.600
REMARK INTER:                 -10.600
REMARK INTRA:                   0.000
REMARK UNBOUND:                 0.000
ROOT
REMARK  Name = diaziquone
REMARK                            x       y       z     vdW  Elec       q    Type
REMARK                         _______ _______ _______ _____ _____    ______ ____
ATOM      1  C   UNL     1      58.775  65.727  72.754  0.00  0.00    +0.000 C 
ATOM      2  C   UNL     1      59.072  65.379  72.068  0.00  0.00    +0.000 C 
ATOM      3  O   UNL     1      59.887  65.339  71.945  0.00  0.00    +0.000 OA
ATOM      4  C   UNL     1      60.183  64.990  71.258  0.00  0.00    +0.000 C 
ATOM      5  O   UNL     1      59.665  64.682  70.695  0.00  0.00    +0.000 OA
ATOM      6  N   UNL     1      60.998  64.949  71.135  0.00  0.00    +0.000 NA
ATOM      7  C   UNL     1      61.295  64.601  70.449  0.00  0.00    +0.000 C 
ATOM      8  C   UNL     1      62.109  64.561  70.326  0.00  0.00    +0.000 C 
ATOM      9  N   UNL     1      62.628  64.868  70.889  0.00  0.00    +0.000 N 
ATOM     10  C   UNL     1      62.756  65.247  71.610  0.00  0.00    +0.000 C 
ATOM     11  C   UNL     1      63.397  65.023  71.143  0.00  0.00    +0.000 C 
ATOM     12  C   UNL     1      62.407  64.212  69.640  0.00  0.00    +0.000 C 
ATOM     13  O   UNL     1      63.220  64.172  69.517  0.00  0.00    +0.000 OA
ATOM     14  C   UNL     1      61.888  63.904  69.076  0.00  0.00    +0.000 C 
ATOM     15  N   UNL     1      62.185  63.555  68.389  0.00  0.00    +0.000 NA
ATOM     16  C   UNL     1      61.667  63.247  67.826  0.00  0.00    +0.000 C 
ATOM     17  O   UNL     1      60.852  63.288  67.949  0.00  0.00    +0.000 OA
ATOM     18  O   UNL     1      61.964  62.899  67.140  0.00  0.00    +0.000 OA
ATOM     19  C   UNL     1      61.445  62.591  66.577  0.00  0.00    +0.000 C 
ATOM     20  C   UNL     1      61.742  62.243  65.891  0.00  0.00    +0.000 C 
ATOM     21  C   UNL     1      61.073  63.944  69.199  0.00  0.00    +0.000 C 
ATOM     22  N   UNL     1      60.556  63.636  68.635  0.00  0.00    +0.000 N 
ATOM     23  C   UNL     1      60.428  63.257  67.914  0.00  0.00    +0.000 C 
ATOM     24  C   UNL     1      59.786  63.482  68.382  0.00  0.00    +0.000 C 
ATOM     25  C   UNL     1      60.777  64.293  69.886  0.00  0.00    +0.000 C 
ATOM     26  O   UNL     1      59.961  64.334  70.009  0.00  0.00    +0.000 OA
ENDROOT
TORSDOF 0
ENDMDL
MODEL 6
REMARK VINA RESULT:   -10.548      2.462      3.644
REMARK INTER + INTRA:         -10.548
REMARK INTER:                 -10.548
REMARK INTRA:                   0.000
REMARK UNBOUND:                 0.000
ROOT
REMARK  Name = diaziquone
REMARK                            x       y       z     vdW  Elec       q    Type
REMARK                         _______ _______ _______ _____ _____    ______ ____
ATOM      1  C   UNL     1      66.552  67.643  70.539  0.00  0.00    +0.000 C 
ATOM      2  C   UNL     1      65.913  67.128  70.627  0.00  0.00    +0.000 C 
ATOM      3  O   UNL     1      65.277  67.338  71.109  0.00  0.00    +0.000 OA
ATOM      4  C   UNL     1      64.639  66.823  71.196  0.00  0.00    +0.000 C 
ATOM      5  O   UNL     1      64.636  66.098  70.802  0.00  0.00    +0.000 OA
ATOM      6  N   UNL     1      64.002  67.033  71.678  0.00  0.00    +0.000 NA
ATOM      7  C   UNL     1      63.364  66.518  71.765  0.00  0.00    +0.000 C 
ATOM      8  C   UNL     1      62.728  66.727  72.247  0.00  0.00    +0.000 C 
ATOM      9  N   UNL     1      62.730  67.452  72.641  0.00  0.00    +0.000 N 
ATOM     10  C   UNL     1      63.099  68.168  72.818  0.00  0.00    +0.000 C 
ATOM     11  C   UNL     1      62.364  67.992  73.147  0.00  0.00    +0.000 C 
ATOM     12  C   UNL     1      62.089  66.213  72.335  0.00  0.00    +0.000 C 
ATOM     13  O   UNL     1      61.454  66.422  72.816  0.00  0.00    +0.000 OA
ATOM     14  C   UNL     1      62.087  65.488  71.940  0.00  0.00    +0.000 C 
ATOM     15  N   UNL     1      61.448  64.972  72.028  0.00  0.00    +0.000 NA
ATOM     16  C   UNL     1      61.446  64.248  71.634  0.00  0.00    +0.000 C 
ATOM     17  O   UNL     1      62.082  64.038  71.152  0.00  0.00    +0.000 OA
ATOM     18  O   UNL     1      60.807  63.733  71.722  0.00  0.00    +0.000 OA
ATOM     19  C   UNL     1      60.805  63.008  71.327  0.00  0.00    +0.000 C 
ATOM     20  C   UNL     1      60.166  62.493  71.415  0.00  0.00    +0.000 C 
ATOM     21  C   UNL     1      62.723  65.278  71.459  0.00  0.00    +0.000 C 
ATOM     22  N   UNL     1      62.720  64.553  71.065  0.00  0.00    +0.000 N 
ATOM     23  C   UNL     1      62.350  63.837  70.888  0.00  0.00    +0.000 C 
ATOM     24  C   UNL     1      63.087  64.014  70.559  0.00  0.00    +0.000 C 
ATOM     25  C   UNL     1      63.361  65.793  71.372  0.00  0.00    +0.000 C 
ATOM     26  O   UNL     1      63.998  65.584  70.890  0.00  0.00    +0.000 OA
ENDROOT
TORSDOF 0
ENDMDL
MODEL 7
REMARK VINA RESULT:   -10.338      2.461      4.868
REMARK INTER + INTRA:         -10.338
REMARK INTER:                 -10.338
REMARK INTRA:                   0.000
REMARK UNBOUND:                 0.000
ROOT
REMARK  Name = diaziquone
REMARK                            x       y       z     vdW  Elec       q    Type
REMARK                         _______ _______ _______ _____ _____    ______ ____
ATOM      1  C   UNL     1      57.493  65.516  73.204  0.00  0.00    +0.000 C 
ATOM      2  C   UNL     1      58.291  65.629  73.026  0.00  0.00    +0.000 C 
ATOM      3  O   UNL     1      58.723  65.028  72.663  0.00  0.00    +0.000 OA
ATOM      4  C   UNL     1      59.521  65.143  72.486  0.00  0.00    +0.000 C 
ATOM      5  O   UNL     1      59.886  65.858  72.672  0.00  0.00    +0.000 OA
ATOM      6  N   UNL     1      59.953  64.541  72.122  0.00  0.00    +0.000 NA
ATOM      7  C   UNL     1      60.750  64.655  71.945  0.00  0.00    +0.000 C 
ATOM      8  C   UNL     1      61.182  64.053  71.581  0.00  0.00    +0.000 C 
ATOM      9  N   UNL     1      60.817  63.338  71.394  0.00  0.00    +0.000 N 
ATOM     10  C   UNL     1      60.145  62.859  71.389  0.00  0.00    +0.000 C 
ATOM     11  C   UNL     1      60.854  62.577  71.077  0.00  0.00    +0.000 C 
ATOM     12  C   UNL     1      61.979  64.167  71.403  0.00  0.00    +0.000 C 
ATOM     13  O   UNL     1      62.411  63.566  71.040  0.00  0.00    +0.000 OA
ATOM     14  C   UNL     1      62.345  64.883  71.590  0.00  0.00    +0.000 C 
ATOM     15  N   UNL     1      63.144  64.997  71.413  0.00  0.00    +0.000 NA
ATOM     16  C   UNL     1      63.509  65.713  71.600  0.00  0.00    +0.000 C 
ATOM     17  O   UNL     1      63.077  66.314  71.963  0.00  0.00    +0.000 OA
ATOM     18  O   UNL     1      64.306  65.826  71.422  0.00  0.00    +0.000 OA
ATOM     19  C   UNL     1      64.672  66.543  71.609  0.00  0.00    +0.000 C 
ATOM     20  C   UNL     1      65.469  66.656  71.431  0.00  0.00    +0.000 C 
ATOM     21  C   UNL     1      61.913  65.485  71.954  0.00  0.00    +0.000 C 
ATOM     22  N   UNL     1      62.280  66.200  72.140  0.00  0.00    +0.000 N 
ATOM     23  C   UNL     1      62.951  66.679  72.146  0.00  0.00    +0.000 C 
ATOM     24  C   UNL     1      62.241  66.961  72.458  0.00  0.00    +0.000 C 
ATOM     25  C   UNL     1      61.116  65.370  72.131  0.00  0.00    +0.000 C 
ATOM     26  O   UNL     1      60.683  65.972  72.495  0.00  0.00    +0.000 OA
ENDROOT
TORSDOF 0
ENDMDL
MODEL 8
REMARK VINA RESULT:    -9.892      2.273      2.571
REMARK INTER + INTRA:          -9.892
REMARK INTER:                  -9.892
REMARK INTRA:                   0.000
REMARK UNBOUND:                 0.000
ROOT
REMARK  Name = diaziquone
REMARK                            x       y       z     vdW  Elec       q    Type
REMARK                         _______ _______ _______ _____ _____    ______ ____
ATOM      1  C   UNL     1      62.753  68.392  73.040  0.00  0.00    +0.000 C 
ATOM      2  C   UNL     1      62.546  67.769  72.540  0.00  0.00    +0.000 C 
ATOM      3  O   UNL     1      61.850  67.346  72.672  0.00  0.00    +0.000 OA
ATOM      4  C   UNL     1      61.645  66.724  72.171  0.00  0.00    +0.000 C 
ATOM      5  O   UNL     1      62.134  66.524  71.539  0.00  0.00    +0.000 OA
ATOM      6  N   UNL     1      60.948  66.301  72.304  0.00  0.00    +0.000 NA
ATOM      7  C   UNL     1      60.742  65.679  71.803  0.00  0.00    +0.000 C 
ATOM      8  C   UNL     1      60.046  65.256  71.936  0.00  0.00    +0.000 C 
ATOM      9  N   UNL     1      59.555  65.456  72.568  0.00  0.00    +0.000 N 
ATOM     10  C   UNL     1      59.391  65.931  73.222  0.00  0.00    +0.000 C 
ATOM     11  C   UNL     1      58.871  65.328  73.010  0.00  0.00    +0.000 C 
ATOM     12  C   UNL     1      59.839  64.634  71.436  0.00  0.00    +0.000 C 
ATOM     13  O   UNL     1      59.144  64.212  71.568  0.00  0.00    +0.000 OA
ATOM     14  C   UNL     1      60.329  64.433  70.802  0.00  0.00    +0.000 C 
ATOM     15  N   UNL     1      60.123  63.810  70.302  0.00  0.00    +0.000 NA
ATOM     16  C   UNL     1      60.613  63.611  69.669  0.00  0.00    +0.000 C 
ATOM     17  O   UNL     1      61.310  64.033  69.537  0.00  0.00    +0.000 OA
ATOM     18  O   UNL     1      60.407  62.988  69.169  0.00  0.00    +0.000 OA
ATOM     19  C   UNL     1      60.897  62.788  68.536  0.00  0.00    +0.000 C 
ATOM     20  C   UNL     1      60.691  62.165  68.036  0.00  0.00    +0.000 C 
ATOM     21  C   UNL     1      61.026  64.856  70.670  0.00  0.00    +0.000 C 
ATOM     22  N   UNL     1      61.515  64.655  70.037  0.00  0.00    +0.000 N 
ATOM     23  C   UNL     1      61.679  64.180  69.383  0.00  0.00    +0.000 C 
ATOM     24  C   UNL     1      62.201  64.784  69.595  0.00  0.00    +0.000 C 
ATOM     25  C   UNL     1      61.231  65.479  71.171  0.00  0.00    +0.000 C 
ATOM     26  O   UNL     1      61.928  65.902  71.039  0.00  0.00    +0.000 OA
ENDROOT
TORSDOF 0
ENDMDL
MODEL 9
REMARK VINA RESULT:    -9.867      2.794      4.012
REMARK INTER + INTRA:          -9.867
REMARK INTER:                  -9.867
REMARK INTRA:                   0.000
REMARK UNBOUND:                 0.000
ROOT
REMARK  Name = diaziquone
REMARK                            x       y       z     vdW  Elec       q    Type
REMARK                         _______ _______ _______ _____ _____    ______ ____
ATOM      1  C   UNL     1      64.671  65.788  69.443  0.00  0.00    +0.000 C 
ATOM      2  C   UNL     1      63.952  65.941  69.818  0.00  0.00    +0.000 C 
ATOM      3  O   UNL     1      63.389  65.343  69.893  0.00  0.00    +0.000 OA
ATOM      4  C   UNL     1      62.671  65.497  70.268  0.00  0.00    +0.000 C 
ATOM      5  O   UNL     1      62.515  66.249  70.569  0.00  0.00    +0.000 OA
ATOM      6  N   UNL     1      62.107  64.898  70.342  0.00  0.00    +0.000 NA
ATOM      7  C   UNL     1      61.389  65.052  70.717  0.00  0.00    +0.000 C 
ATOM      8  C   UNL     1      60.826  64.453  70.791  0.00  0.00    +0.000 C 
ATOM      9  N   UNL     1      60.981  63.701  70.491  0.00  0.00    +0.000 N 
ATOM     10  C   UNL     1      61.486  63.178  70.100  0.00  0.00    +0.000 C 
ATOM     11  C   UNL     1      60.747  62.921  70.360  0.00  0.00    +0.000 C 
ATOM     12  C   UNL     1      60.108  64.606  71.166  0.00  0.00    +0.000 C 
ATOM     13  O   UNL     1      59.546  64.008  71.240  0.00  0.00    +0.000 OA
ATOM     14  C   UNL     1      59.952  65.359  71.467  0.00  0.00    +0.000 C 
ATOM     15  N   UNL     1      59.233  65.512  71.843  0.00  0.00    +0.000 NA
ATOM     16  C   UNL     1      59.078  66.265  72.143  0.00  0.00    +0.000 C 
ATOM     17  O   UNL     1      59.641  66.863  72.069  0.00  0.00    +0.000 OA
ATOM     18  O   UNL     1      58.359  66.418  72.518  0.00  0.00    +0.000 OA
ATOM     19  C   UNL     1      58.204  67.171  72.819  0.00  0.00    +0.000 C 
ATOM     20  C   UNL     1      57.485  67.324  73.194  0.00  0.00    +0.000 C 
ATOM     21  C   UNL     1      60.515  65.957  71.393  0.00  0.00    +0.000 C 
ATOM     22  N   UNL     1      60.359  66.710  71.694  0.00  0.00    +0.000 N 
ATOM     23  C   UNL     1      59.854  67.233  72.085  0.00  0.00    +0.000 C 
ATOM     24  C   UNL     1      60.594  67.490  71.825  0.00  0.00    +0.000 C 
ATOM     25  C   UNL     1      61.234  65.803  71.018  0.00  0.00    +0.000 C 
ATOM     26  O   UNL     1      61.797  66.402  70.943  0.00  0.00    +0.000 OA
ENDROOT
TORSDOF 0
ENDMDL
