MODEL 1
REMARK VINA RESULT:    -8.698      0.000      0.000
REMARK INTER + INTRA:          -8.698
REMARK INTER:                  -8.698
REMARK INTRA:                   0.000
REMARK UNBOUND:                 0.000
ROOT
REMARK  Name = dibutylsuccinate
REMARK                            x       y       z     vdW  Elec       q    Type
REMARK                         _______ _______ _______ _____ _____    ______ ____
ATOM      1  C   UNL     1      60.120  63.508  72.122  0.00  0.00    +0.000 C 
ATOM      2  C   UNL     1      60.113  63.003  71.470  0.00  0.00    +0.000 C 
ATOM      3  C   UNL     1      60.480  63.231  70.767  0.00  0.00    +0.000 C 
ATOM      4  C   UNL     1      60.473  62.725  70.116  0.00  0.00    +0.000 C 
ATOM      5  O   UNL     1      60.840  62.954  69.413  0.00  0.00    +0.000 OA
ATOM      6  C   UNL     1      60.834  62.448  68.761  0.00  0.00    +0.000 C 
ATOM      7  O   UNL     1      60.460  61.714  68.812  0.00  0.00    +0.000 OA
ATOM      8  C   UNL     1      61.201  62.677  68.059  0.00  0.00    +0.000 C 
ATOM      9  C   UNL     1      61.194  62.171  67.406  0.00  0.00    +0.000 C 
ATOM     10  C   UNL     1      61.561  62.400  66.704  0.00  0.00    +0.000 C 
ATOM     11  O   UNL     1      61.935  63.134  66.653  0.00  0.00    +0.000 OA
ATOM     12  O   UNL     1      61.555  61.894  66.051  0.00  0.00    +0.000 OA
ATOM     13  C   UNL     1      61.922  62.123  65.349  0.00  0.00    +0.000 C 
ATOM     14  C   UNL     1      61.915  61.617  64.697  0.00  0.00    +0.000 C 
ATOM     15  C   UNL     1      62.282  61.846  63.994  0.00  0.00    +0.000 C 
ATOM     16  C   UNL     1      62.275  61.340  63.342  0.00  0.00    +0.000 C 
ENDROOT
TORSDOF 0
ENDMDL
MODEL 2
REMARK VINA RESULT:    -8.661      0.062      5.504
REMARK INTER + INTRA:          -8.661
REMARK INTER:                  -8.661
REMARK INTRA:                   0.000
REMARK UNBOUND:                 0.000
ROOT
REMARK  Name = dibutylsuccinate
REMARK                            x       y       z     vdW  Elec       q    Type
REMARK                         _______ _______ _______ _____ _____    ______ ____
ATOM      1  C   UNL     1      62.367  61.343  63.328  0.00  0.00    +0.000 C 
ATOM      2  C   UNL     1      62.364  61.851  63.977  0.00  0.00    +0.000 C 
ATOM      3  C   UNL     1      61.989  61.624  64.677  0.00  0.00    +0.000 C 
ATOM      4  C   UNL     1      61.987  62.132  65.327  0.00  0.00    +0.000 C 
ATOM      5  O   UNL     1      61.612  61.905  66.025  0.00  0.00    +0.000 OA
ATOM      6  C   UNL     1      61.610  62.413  66.676  0.00  0.00    +0.000 C 
ATOM      7  O   UNL     1      61.982  63.148  66.627  0.00  0.00    +0.000 OA
ATOM      8  C   UNL     1      61.235  62.186  67.374  0.00  0.00    +0.000 C 
ATOM      9  C   UNL     1      61.232  62.694  68.025  0.00  0.00    +0.000 C 
ATOM     10  C   UNL     1      60.857  62.467  68.724  0.00  0.00    +0.000 C 
ATOM     11  O   UNL     1      60.485  61.733  68.773  0.00  0.00    +0.000 OA
ATOM     12  O   UNL     1      60.855  62.975  69.374  0.00  0.00    +0.000 OA
ATOM     13  C   UNL     1      60.480  62.748  70.073  0.00  0.00    +0.000 C 
ATOM     14  C   UNL     1      60.477  63.257  70.724  0.00  0.00    +0.000 C 
ATOM     15  C   UNL     1      60.102  63.029  71.422  0.00  0.00    +0.000 C 
ATOM     16  C   UNL     1      60.100  63.538  72.073  0.00  0.00    +0.000 C 
ENDROOT
TORSDOF 0
ENDMDL
MODEL 3
REMARK VINA RESULT:    -8.047      4.206      5.823
REMARK INTER + INTRA:          -8.047
REMARK INTER:                  -8.047
REMARK INTRA:                   0.000
REMARK UNBOUND:                 0.000
ROOT
REMARK  Name = dibutylsuccinate
REMARK                            x       y       z     vdW  Elec       q    Type
REMARK                         _______ _______ _______ _____ _____    ______ ____
ATOM      1  C   UNL     1      66.495  68.064  70.131  0.00  0.00    +0.000 C 
ATOM      2  C   UNL     1      66.122  67.388  69.841  0.00  0.00    +0.000 C 
ATOM      3  C   UNL     1      65.505  67.043  70.267  0.00  0.00    +0.000 C 
ATOM      4  C   UNL     1      65.132  66.367  69.977  0.00  0.00    +0.000 C 
ATOM      5  O   UNL     1      64.515  66.022  70.403  0.00  0.00    +0.000 OA
ATOM      6  C   UNL     1      64.142  65.345  70.112  0.00  0.00    +0.000 C 
ATOM      7  O   UNL     1      64.385  65.014  69.397  0.00  0.00    +0.000 OA
ATOM      8  C   UNL     1      63.525  65.001  70.539  0.00  0.00    +0.000 C 
ATOM      9  C   UNL     1      63.152  64.324  70.248  0.00  0.00    +0.000 C 
ATOM     10  C   UNL     1      62.535  63.979  70.674  0.00  0.00    +0.000 C 
ATOM     11  O   UNL     1      62.292  64.310  71.390  0.00  0.00    +0.000 OA
ATOM     12  O   UNL     1      62.161  63.303  70.384  0.00  0.00    +0.000 OA
ATOM     13  C   UNL     1      61.545  62.958  70.810  0.00  0.00    +0.000 C 
ATOM     14  C   UNL     1      61.171  62.281  70.520  0.00  0.00    +0.000 C 
ATOM     15  C   UNL     1      60.555  61.936  70.946  0.00  0.00    +0.000 C 
ATOM     16  C   UNL     1      60.181  61.260  70.656  0.00  0.00    +0.000 C 
ENDROOT
TORSDOF 0
ENDMDL
MODEL 4
REMARK VINA RESULT:    -7.785      1.965      2.330
REMARK INTER + INTRA:          -7.785
REMARK INTER:                  -7.785
REMARK INTRA:                   0.000
REMARK UNBOUND:                 0.000
ROOT
REMARK  Name = dibutylsuccinate
REMARK                            x       y       z     vdW  Elec       q    Type
REMARK                         _______ _______ _______ _____ _____    ______ ____
ATOM      1  C   UNL     1      62.380  66.016  72.545  0.00  0.00    +0.000 C 
ATOM      2  C   UNL     1      62.652  65.685  71.840  0.00  0.00    +0.000 C 
ATOM      3  C   UNL     1      62.125  65.296  71.338  0.00  0.00    +0.000 C 
ATOM      4  C   UNL     1      62.397  64.964  70.633  0.00  0.00    +0.000 C 
ATOM      5  O   UNL     1      61.870  64.575  70.131  0.00  0.00    +0.000 OA
ATOM      6  C   UNL     1      62.142  64.243  69.426  0.00  0.00    +0.000 C 
ATOM      7  O   UNL     1      62.940  64.301  69.223  0.00  0.00    +0.000 OA
ATOM      8  C   UNL     1      61.616  63.855  68.924  0.00  0.00    +0.000 C 
ATOM      9  C   UNL     1      61.888  63.523  68.218  0.00  0.00    +0.000 C 
ATOM     10  C   UNL     1      61.361  63.134  67.716  0.00  0.00    +0.000 C 
ATOM     11  O   UNL     1      60.563  63.077  67.919  0.00  0.00    +0.000 OA
ATOM     12  O   UNL     1      61.633  62.802  67.011  0.00  0.00    +0.000 OA
ATOM     13  C   UNL     1      61.106  62.413  66.509  0.00  0.00    +0.000 C 
ATOM     14  C   UNL     1      61.378  62.081  65.804  0.00  0.00    +0.000 C 
ATOM     15  C   UNL     1      60.852  61.692  65.302  0.00  0.00    +0.000 C 
ATOM     16  C   UNL     1      61.123  61.361  64.596  0.00  0.00    +0.000 C 
ENDROOT
TORSDOF 0
ENDMDL
MODEL 5
REMARK VINA RESULT:    -7.139      5.961      7.466
REMARK INTER + INTRA:          -7.139
REMARK INTER:                  -7.139
REMARK INTRA:                   0.000
REMARK UNBOUND:                 0.000
ROOT
REMARK  Name = dibutylsuccinate
REMARK                            x       y       z     vdW  Elec       q    Type
REMARK                         _______ _______ _______ _____ _____    ______ ____
ATOM      1  C   UNL     1      66.286  67.405  70.579  0.00  0.00    +0.000 C 
ATOM      2  C   UNL     1      65.564  67.020  70.475  0.00  0.00    +0.000 C 
ATOM      3  C   UNL     1      64.953  67.137  71.018  0.00  0.00    +0.000 C 
ATOM      4  C   UNL     1      64.231  66.752  70.914  0.00  0.00    +0.000 C 
ATOM      5  O   UNL     1      63.621  66.869  71.457  0.00  0.00    +0.000 OA
ATOM      6  C   UNL     1      62.898  66.484  71.353  0.00  0.00    +0.000 C 
ATOM      7  O   UNL     1      62.786  65.983  70.708  0.00  0.00    +0.000 OA
ATOM      8  C   UNL     1      62.288  66.601  71.896  0.00  0.00    +0.000 C 
ATOM      9  C   UNL     1      61.564  66.216  71.792  0.00  0.00    +0.000 C 
ATOM     10  C   UNL     1      60.954  66.333  72.335  0.00  0.00    +0.000 C 
ATOM     11  O   UNL     1      61.066  66.835  72.980  0.00  0.00    +0.000 OA
ATOM     12  O   UNL     1      60.231  65.948  72.231  0.00  0.00    +0.000 OA
ATOM     13  C   UNL     1      59.621  66.066  72.774  0.00  0.00    +0.000 C 
ATOM     14  C   UNL     1      58.898  65.681  72.670  0.00  0.00    +0.000 C 
ATOM     15  C   UNL     1      58.288  65.798  73.213  0.00  0.00    +0.000 C 
ATOM     16  C   UNL     1      57.565  65.413  73.109  0.00  0.00    +0.000 C 
ENDROOT
TORSDOF 0
ENDMDL
MODEL 6
REMARK VINA RESULT:    -7.110      4.280      6.269
REMARK INTER + INTRA:          -7.110
REMARK INTER:                  -7.110
REMARK INTRA:                   0.000
REMARK UNBOUND:                 0.000
ROOT
REMARK  Name = dibutylsuccinate
REMARK                            x       y       z     vdW  Elec       q    Type
REMARK                         _______ _______ _______ _____ _____    ______ ____
ATOM      1  C   UNL     1      63.501  69.844  73.222  0.00  0.00    +0.000 C 
ATOM      2  C   UNL     1      63.592  69.118  72.841  0.00  0.00    +0.000 C 
ATOM      3  C   UNL     1      62.979  68.565  72.856  0.00  0.00    +0.000 C 
ATOM      4  C   UNL     1      63.069  67.840  72.475  0.00  0.00    +0.000 C 
ATOM      5  O   UNL     1      62.457  67.288  72.490  0.00  0.00    +0.000 OA
ATOM      6  C   UNL     1      62.547  66.561  72.109  0.00  0.00    +0.000 C 
ATOM      7  O   UNL     1      63.249  66.388  71.712  0.00  0.00    +0.000 OA
ATOM      8  C   UNL     1      61.934  66.009  72.124  0.00  0.00    +0.000 C 
ATOM      9  C   UNL     1      62.024  65.282  71.743  0.00  0.00    +0.000 C 
ATOM     10  C   UNL     1      61.412  64.730  71.758  0.00  0.00    +0.000 C 
ATOM     11  O   UNL     1      60.710  64.904  72.155  0.00  0.00    +0.000 OA
ATOM     12  O   UNL     1      61.502  64.004  71.376  0.00  0.00    +0.000 OA
ATOM     13  C   UNL     1      60.889  63.452  71.392  0.00  0.00    +0.000 C 
ATOM     14  C   UNL     1      60.979  62.725  71.010  0.00  0.00    +0.000 C 
ATOM     15  C   UNL     1      60.367  62.173  71.026  0.00  0.00    +0.000 C 
ATOM     16  C   UNL     1      60.457  61.446  70.644  0.00  0.00    +0.000 C 
ENDROOT
TORSDOF 0
ENDMDL
MODEL 7
REMARK VINA RESULT:    -6.808     24.022     25.944
REMARK INTER + INTRA:          -6.808
REMARK INTER:                  -6.808
REMARK INTRA:                   0.000
REMARK UNBOUND:                 0.000
ROOT
REMARK  Name = dibutylsuccinate
REMARK                            x       y       z     vdW  Elec       q    Type
REMARK                         _______ _______ _______ _____ _____    ______ ____
ATOM      1  C   UNL     1      72.073  78.881  48.124  0.00  0.00    +0.000 C 
ATOM      2  C   UNL     1      71.367  78.896  48.549  0.00  0.00    +0.000 C 
ATOM      3  C   UNL     1      71.312  79.345  49.240  0.00  0.00    +0.000 C 
ATOM      4  C   UNL     1      70.606  79.361  49.666  0.00  0.00    +0.000 C 
ATOM      5  O   UNL     1      70.551  79.810  50.356  0.00  0.00    +0.000 OA
ATOM      6  C   UNL     1      69.845  79.826  50.783  0.00  0.00    +0.000 C 
ATOM      7  O   UNL     1      69.194  79.393  50.519  0.00  0.00    +0.000 OA
ATOM      8  C   UNL     1      69.790  80.274  51.473  0.00  0.00    +0.000 C 
ATOM      9  C   UNL     1      69.083  80.290  51.899  0.00  0.00    +0.000 C 
ATOM     10  C   UNL     1      69.029  80.739  52.589  0.00  0.00    +0.000 C 
ATOM     11  O   UNL     1      69.680  81.172  52.853  0.00  0.00    +0.000 OA
ATOM     12  O   UNL     1      68.322  80.755  53.016  0.00  0.00    +0.000 OA
ATOM     13  C   UNL     1      68.268  81.204  53.706  0.00  0.00    +0.000 C 
ATOM     14  C   UNL     1      67.561  81.220  54.132  0.00  0.00    +0.000 C 
ATOM     15  C   UNL     1      67.507  81.668  54.822  0.00  0.00    +0.000 C 
ATOM     16  C   UNL     1      66.800  81.684  55.249  0.00  0.00    +0.000 C 
ENDROOT
TORSDOF 0
ENDMDL
MODEL 8
REMARK VINA RESULT:    -6.506     14.036     14.183
REMARK INTER + INTRA:          -6.506
REMARK INTER:                  -6.506
REMARK INTRA:                   0.000
REMARK UNBOUND:                 0.000
ROOT
REMARK  Name = dibutylsuccinate
REMARK                            x       y       z     vdW  Elec       q    Type
REMARK                         _______ _______ _______ _____ _____    ______ ____
ATOM      1  C   UNL     1      62.183  67.806  54.383  0.00  0.00    +0.000 C 
ATOM      2  C   UNL     1      61.928  67.035  54.242  0.00  0.00    +0.000 C 
ATOM      3  C   UNL     1      62.462  66.407  54.299  0.00  0.00    +0.000 C 
ATOM      4  C   UNL     1      62.207  65.636  54.158  0.00  0.00    +0.000 C 
ATOM      5  O   UNL     1      62.741  65.009  54.214  0.00  0.00    +0.000 OA
ATOM      6  C   UNL     1      62.486  64.237  54.074  0.00  0.00    +0.000 C 
ATOM      7  O   UNL     1      61.698  64.091  53.877  0.00  0.00    +0.000 OA
ATOM      8  C   UNL     1      63.020  63.610  54.130  0.00  0.00    +0.000 C 
ATOM      9  C   UNL     1      62.765  62.838  53.989  0.00  0.00    +0.000 C 
ATOM     10  C   UNL     1      63.299  62.211  54.045  0.00  0.00    +0.000 C 
ATOM     11  O   UNL     1      64.087  62.357  54.242  0.00  0.00    +0.000 OA
ATOM     12  O   UNL     1      63.044  61.439  53.905  0.00  0.00    +0.000 OA
ATOM     13  C   UNL     1      63.578  60.813  53.961  0.00  0.00    +0.000 C 
ATOM     14  C   UNL     1      63.323  60.040  53.820  0.00  0.00    +0.000 C 
ATOM     15  C   UNL     1      63.857  59.414  53.876  0.00  0.00    +0.000 C 
ATOM     16  C   UNL     1      63.602  58.641  53.736  0.00  0.00    +0.000 C 
ENDROOT
TORSDOF 0
ENDMDL
MODEL 9
REMARK VINA RESULT:    -6.476     14.070     14.533
REMARK INTER + INTRA:          -6.476
REMARK INTER:                  -6.476
REMARK INTRA:                   0.000
REMARK UNBOUND:                 0.000
ROOT
REMARK  Name = dibutylsuccinate
REMARK                            x       y       z     vdW  Elec       q    Type
REMARK                         _______ _______ _______ _____ _____    ______ ____
ATOM      1  C   UNL     1      63.622  58.629  53.639  0.00  0.00    +0.000 C 
ATOM      2  C   UNL     1      63.886  59.402  53.752  0.00  0.00    +0.000 C 
ATOM      3  C   UNL     1      63.345  60.026  53.751  0.00  0.00    +0.000 C 
ATOM      4  C   UNL     1      63.609  60.800  53.864  0.00  0.00    +0.000 C 
ATOM      5  O   UNL     1      63.068  61.423  53.862  0.00  0.00    +0.000 OA
ATOM      6  C   UNL     1      63.332  62.197  53.976  0.00  0.00    +0.000 C 
ATOM      7  O   UNL     1      64.135  62.347  54.090  0.00  0.00    +0.000 OA
ATOM      8  C   UNL     1      62.791  62.820  53.974  0.00  0.00    +0.000 C 
ATOM      9  C   UNL     1      63.055  63.595  54.087  0.00  0.00    +0.000 C 
ATOM     10  C   UNL     1      62.514  64.218  54.086  0.00  0.00    +0.000 C 
ATOM     11  O   UNL     1      61.711  64.068  53.971  0.00  0.00    +0.000 OA
ATOM     12  O   UNL     1      62.778  64.992  54.199  0.00  0.00    +0.000 OA
ATOM     13  C   UNL     1      62.237  65.615  54.197  0.00  0.00    +0.000 C 
ATOM     14  C   UNL     1      62.501  66.389  54.311  0.00  0.00    +0.000 C 
ATOM     15  C   UNL     1      61.960  67.013  54.309  0.00  0.00    +0.000 C 
ATOM     16  C   UNL     1      62.224  67.787  54.422  0.00  0.00    +0.000 C 
ENDROOT
TORSDOF 0
ENDMDL
