MODEL 1
REMARK VINA RESULT:   -14.255      0.000      0.000
REMARK INTER + INTRA:         -14.255
REMARK INTER:                 -14.255
REMARK INTRA:                   0.000
REMARK UNBOUND:                 0.000
ROOT
REMARK  Name = dicloxacillin
REMARK                            x       y       z     vdW  Elec       q    Type
REMARK                         _______ _______ _______ _____ _____    ______ ____
ATOM      1  C   UNL     1      58.934  62.242  66.993  0.00  0.00    +0.000 C 
ATOM      2  C   UNL     1      59.398  62.023  66.347  0.00  0.00    +0.000 A 
ATOM      3  C   UNL     1      60.203  62.177  66.255  0.00  0.00    +0.000 A 
ATOM      4  C   UNL     1      60.686  62.576  66.791  0.00  0.00    +0.000 C 
ATOM      5  O   UNL     1      61.485  62.689  66.623  0.00  0.00    +0.000 OA
ATOM      6  N   UNL     1      60.369  62.863  67.497  0.00  0.00    +0.000 NA
ATOM      7  CA  UNL     1      60.851  63.262  68.033  0.00  0.00    +0.000 C 
ATOM      8  C   UNL     1      60.736  63.616  68.770  0.00  0.00    +0.000 C 
ATOM      9  S   UNL     1      60.381  63.887  69.464  0.00  0.00    +0.000 S 
ATOM     10  C   UNL     1      60.959  64.266  69.915  0.00  0.00    +0.000 C 
ATOM     11  C   UNL     1      60.340  64.387  70.447  0.00  0.00    +0.000 C 
ATOM     12  C   UNL     1      61.407  64.670  70.478  0.00  0.00    +0.000 C 
ATOM     13  CA  UNL     1      61.671  64.229  69.501  0.00  0.00    +0.000 C 
ATOM     14  N   UNL     1      61.534  63.827  68.793  0.00  0.00    +0.000 N 
ATOM     15  C   UNL     1      61.648  63.473  68.056  0.00  0.00    +0.000 C 
ATOM     16  O   UNL     1      62.293  63.373  67.552  0.00  0.00    +0.000 OA
ATOM     17  C   UNL     1      62.394  64.539  69.750  0.00  0.00    +0.000 C 
ATOM     18  O   UNL     1      62.447  64.928  70.475  0.00  0.00    +0.000 OA
ATOM     19  OXT UNL     1      63.063  64.459  69.274  0.00  0.00    +0.000 OA
ATOM     20  C   UNL     1      60.441  61.861  65.531  0.00  0.00    +0.000 A 
ATOM     21  N   UNL     1      59.783  61.512  65.175  0.00  0.00    +0.000 NA
ATOM     22  O   UNL     1      59.139  61.613  65.681  0.00  0.00    +0.000 OA
ATOM     23  C   UNL     1      61.204  61.888  65.216  0.00  0.00    +0.000 A 
ATOM     24  C   UNL     1      61.810  62.258  65.637  0.00  0.00    +0.000 A 
ATOM     25 CL   UNL     1      61.654  62.600  66.371  0.00  0.00    +0.000 Cl
ATOM     26  C   UNL     1      62.572  62.286  65.322  0.00  0.00    +0.000 A 
ATOM     27  C   UNL     1      62.728  61.944  64.588  0.00  0.00    +0.000 A 
ATOM     28  C   UNL     1      62.122  61.574  64.168  0.00  0.00    +0.000 A 
ATOM     29  C   UNL     1      61.360  61.546  64.482  0.00  0.00    +0.000 A 
ATOM     30 CL   UNL     1      60.754  61.176  64.062  0.00  0.00    +0.000 Cl
ENDROOT
TORSDOF 0
ENDMDL
MODEL 2
REMARK VINA RESULT:   -13.162      1.927      5.462
REMARK INTER + INTRA:         -13.162
REMARK INTER:                 -13.162
REMARK INTRA:                   0.000
REMARK UNBOUND:                 0.000
ROOT
REMARK  Name = dicloxacillin
REMARK                            x       y       z     vdW  Elec       q    Type
REMARK                         _______ _______ _______ _____ _____    ______ ____
ATOM      1  C   UNL     1      63.297  64.248  69.460  0.00  0.00    +0.000 C 
ATOM      2  C   UNL     1      62.856  64.369  70.146  0.00  0.00    +0.000 A 
ATOM      3  C   UNL     1      62.057  64.188  70.247  0.00  0.00    +0.000 A 
ATOM      4  C   UNL     1      61.560  63.856  69.679  0.00  0.00    +0.000 C 
ATOM      5  O   UNL     1      60.769  63.706  69.860  0.00  0.00    +0.000 OA
ATOM      6  N   UNL     1      61.853  63.673  68.930  0.00  0.00    +0.000 NA
ATOM      7  CA  UNL     1      61.356  63.341  68.362  0.00  0.00    +0.000 C 
ATOM      8  C   UNL     1      61.447  63.093  67.581  0.00  0.00    +0.000 C 
ATOM      9  S   UNL     1      61.778  62.925  66.844  0.00  0.00    +0.000 S 
ATOM     10  C   UNL     1      61.189  62.600  66.367  0.00  0.00    +0.000 C 
ATOM     11  C   UNL     1      61.788  62.564  65.801  0.00  0.00    +0.000 C 
ATOM     12  C   UNL     1      60.725  62.267  65.771  0.00  0.00    +0.000 C 
ATOM     13  CA  UNL     1      60.493  62.566  66.809  0.00  0.00    +0.000 C 
ATOM     14  N   UNL     1      60.652  62.871  67.559  0.00  0.00    +0.000 N 
ATOM     15  C   UNL     1      60.561  63.119  68.340  0.00  0.00    +0.000 C 
ATOM     16  O   UNL     1      59.936  63.138  68.877  0.00  0.00    +0.000 OA
ATOM     17  C   UNL     1      59.765  62.279  66.546  0.00  0.00    +0.000 C 
ATOM     18  O   UNL     1      59.690  61.990  65.777  0.00  0.00    +0.000 OA
ATOM     19  OXT UNL     1      59.114  62.280  67.053  0.00  0.00    +0.000 OA
ATOM     20  C   UNL     1      61.843  64.399  71.016  0.00  0.00    +0.000 A 
ATOM     21  N   UNL     1      62.510  64.709  71.390  0.00  0.00    +0.000 NA
ATOM     22  O   UNL     1      63.135  64.690  70.852  0.00  0.00    +0.000 OA
ATOM     23  C   UNL     1      61.094  64.314  71.351  0.00  0.00    +0.000 A 
ATOM     24  C   UNL     1      60.478  63.992  70.907  0.00  0.00    +0.000 A 
ATOM     25 CL   UNL     1      60.610  63.756  70.127  0.00  0.00    +0.000 Cl
ATOM     26  C   UNL     1      59.729  63.908  71.243  0.00  0.00    +0.000 A 
ATOM     27  C   UNL     1      59.597  64.144  72.022  0.00  0.00    +0.000 A 
ATOM     28  C   UNL     1      60.214  64.465  72.466  0.00  0.00    +0.000 A 
ATOM     29  C   UNL     1      60.962  64.550  72.131  0.00  0.00    +0.000 A 
ATOM     30 CL   UNL     1      61.579  64.871  72.574  0.00  0.00    +0.000 Cl
ENDROOT
TORSDOF 0
ENDMDL
MODEL 3
REMARK VINA RESULT:   -13.129      1.771      4.962
REMARK INTER + INTRA:         -13.129
REMARK INTER:                 -13.129
REMARK INTRA:                   0.000
REMARK UNBOUND:                 0.000
ROOT
REMARK  Name = dicloxacillin
REMARK                            x       y       z     vdW  Elec       q    Type
REMARK                         _______ _______ _______ _____ _____    ______ ____
ATOM      1  C   UNL     1      60.114  64.002  70.579  0.00  0.00    +0.000 C 
ATOM      2  C   UNL     1      60.845  64.306  70.809  0.00  0.00    +0.000 A 
ATOM      3  C   UNL     1      61.533  64.313  70.353  0.00  0.00    +0.000 A 
ATOM      4  C   UNL     1      61.610  64.016  69.588  0.00  0.00    +0.000 C 
ATOM      5  O   UNL     1      62.336  64.062  69.199  0.00  0.00    +0.000 OA
ATOM      6  N   UNL     1      60.961  63.674  69.211  0.00  0.00    +0.000 NA
ATOM      7  CA  UNL     1      61.038  63.377  68.445  0.00  0.00    +0.000 C 
ATOM      8  C   UNL     1      60.532  63.009  67.908  0.00  0.00    +0.000 C 
ATOM      9  S   UNL     1      59.859  62.674  67.566  0.00  0.00    +0.000 S 
ATOM     10  C   UNL     1      60.060  62.416  66.809  0.00  0.00    +0.000 C 
ATOM     11  C   UNL     1      59.271  62.177  66.775  0.00  0.00    +0.000 C 
ATOM     12  C   UNL     1      60.096  62.108  66.044  0.00  0.00    +0.000 C 
ATOM     13  CA  UNL     1      60.856  62.591  66.683  0.00  0.00    +0.000 C 
ATOM     14  N   UNL     1      61.148  62.957  67.362  0.00  0.00    +0.000 N 
ATOM     15  C   UNL     1      61.655  63.325  67.899  0.00  0.00    +0.000 C 
ATOM     16  O   UNL     1      62.448  63.549  67.892  0.00  0.00    +0.000 OA
ATOM     17  C   UNL     1      61.286  62.428  65.997  0.00  0.00    +0.000 C 
ATOM     18  O   UNL     1      60.918  62.057  65.359  0.00  0.00    +0.000 OA
ATOM     19  OXT UNL     1      62.083  62.636  65.950  0.00  0.00    +0.000 OA
ATOM     20  C   UNL     1      62.129  64.669  70.798  0.00  0.00    +0.000 A 
ATOM     21  N   UNL     1      61.811  64.882  71.529  0.00  0.00    +0.000 NA
ATOM     22  O   UNL     1      61.017  64.658  71.535  0.00  0.00    +0.000 OA
ATOM     23  C   UNL     1      62.909  64.790  70.556  0.00  0.00    +0.000 A 
ATOM     24  C   UNL     1      63.149  64.546  69.805  0.00  0.00    +0.000 A 
ATOM     25 CL   UNL     1      62.611  64.181  69.297  0.00  0.00    +0.000 Cl
ATOM     26  C   UNL     1      63.928  64.667  69.562  0.00  0.00    +0.000 A 
ATOM     27  C   UNL     1      64.467  65.033  70.070  0.00  0.00    +0.000 A 
ATOM     28  C   UNL     1      64.226  65.276  70.820  0.00  0.00    +0.000 A 
ATOM     29  C   UNL     1      63.447  65.155  71.063  0.00  0.00    +0.000 A 
ATOM     30 CL   UNL     1      63.206  65.399  71.814  0.00  0.00    +0.000 Cl
ENDROOT
TORSDOF 0
ENDMDL
MODEL 4
REMARK VINA RESULT:   -12.972      3.515      4.892
REMARK INTER + INTRA:         -12.972
REMARK INTER:                 -12.972
REMARK INTRA:                   0.000
REMARK UNBOUND:                 0.000
ROOT
REMARK  Name = dicloxacillin
REMARK                            x       y       z     vdW  Elec       q    Type
REMARK                         _______ _______ _______ _____ _____    ______ ____
ATOM      1  C   UNL     1      61.748  64.108  72.864  0.00  0.00    +0.000 C 
ATOM      2  C   UNL     1      61.372  63.606  72.329  0.00  0.00    +0.000 A 
ATOM      3  C   UNL     1      61.522  63.559  71.519  0.00  0.00    +0.000 A 
ATOM      4  C   UNL     1      62.076  64.007  71.103  0.00  0.00    +0.000 C 
ATOM      5  O   UNL     1      62.166  63.899  70.290  0.00  0.00    +0.000 OA
ATOM      6  N   UNL     1      62.540  64.562  71.499  0.00  0.00    +0.000 NA
ATOM      7  CA  UNL     1      63.093  65.009  71.082  0.00  0.00    +0.000 C 
ATOM      8  C   UNL     1      63.638  65.596  71.282  0.00  0.00    +0.000 C 
ATOM      9  S   UNL     1      64.082  66.141  71.715  0.00  0.00    +0.000 S 
ATOM     10  C   UNL     1      64.595  66.523  71.194  0.00  0.00    +0.000 C 
ATOM     11  C   UNL     1      64.840  66.929  71.869  0.00  0.00    +0.000 C 
ATOM     12  C   UNL     1      65.159  66.990  70.814  0.00  0.00    +0.000 C 
ATOM     13  CA  UNL     1      64.468  66.215  70.439  0.00  0.00    +0.000 C 
ATOM     14  N   UNL     1      63.876  65.642  70.493  0.00  0.00    +0.000 N 
ATOM     15  C   UNL     1      63.332  65.055  70.294  0.00  0.00    +0.000 C 
ATOM     16  O   UNL     1      63.116  64.673  69.596  0.00  0.00    +0.000 OA
ATOM     17  C   UNL     1      64.864  66.441  69.751  0.00  0.00    +0.000 C 
ATOM     18  O   UNL     1      65.446  67.024  69.782  0.00  0.00    +0.000 OA
ATOM     19  OXT UNL     1      64.677  66.082  69.032  0.00  0.00    +0.000 OA
ATOM     20  C   UNL     1      61.022  62.986  71.199  0.00  0.00    +0.000 A 
ATOM     21  N   UNL     1      60.562  62.678  71.811  0.00  0.00    +0.000 NA
ATOM     22  O   UNL     1      60.778  63.062  72.509  0.00  0.00    +0.000 OA
ATOM     23  C   UNL     1      60.988  62.760  70.406  0.00  0.00    +0.000 A 
ATOM     24  C   UNL     1      61.485  63.119  69.854  0.00  0.00    +0.000 A 
ATOM     25 CL   UNL     1      62.016  63.703  70.094  0.00  0.00    +0.000 Cl
ATOM     26  C   UNL     1      61.450  62.893  69.061  0.00  0.00    +0.000 A 
ATOM     27  C   UNL     1      60.919  62.309  68.821  0.00  0.00    +0.000 A 
ATOM     28  C   UNL     1      60.422  61.951  69.374  0.00  0.00    +0.000 A 
ATOM     29  C   UNL     1      60.456  62.176  70.166  0.00  0.00    +0.000 A 
ATOM     30 CL   UNL     1      59.960  61.818  70.719  0.00  0.00    +0.000 Cl
ENDROOT
TORSDOF 0
ENDMDL
MODEL 5
REMARK VINA RESULT:   -12.710      2.660      4.039
REMARK INTER + INTRA:         -12.710
REMARK INTER:                 -12.710
REMARK INTRA:                   0.000
REMARK UNBOUND:                 0.000
ROOT
REMARK  Name = dicloxacillin
REMARK                            x       y       z     vdW  Elec       q    Type
REMARK                         _______ _______ _______ _____ _____    ______ ____
ATOM      1  C   UNL     1      60.152  62.493  71.636  0.00  0.00    +0.000 C 
ATOM      2  C   UNL     1      60.327  62.336  70.846  0.00  0.00    +0.000 A 
ATOM      3  C   UNL     1      60.319  62.883  70.229  0.00  0.00    +0.000 A 
ATOM      4  C   UNL     1      60.134  63.684  70.295  0.00  0.00    +0.000 C 
ATOM      5  O   UNL     1      60.149  64.168  69.626  0.00  0.00    +0.000 OA
ATOM      6  N   UNL     1      59.934  64.003  71.029  0.00  0.00    +0.000 NA
ATOM      7  CA  UNL     1      59.750  64.804  71.094  0.00  0.00    +0.000 C 
ATOM      8  C   UNL     1      59.532  65.304  71.714  0.00  0.00    +0.000 C 
ATOM      9  S   UNL     1      59.337  65.583  72.465  0.00  0.00    +0.000 S 
ATOM     10  C   UNL     1      59.174  66.390  72.403  0.00  0.00    +0.000 C 
ATOM     11  C   UNL     1      59.041  66.337  73.216  0.00  0.00    +0.000 C 
ATOM     12  C   UNL     1      58.984  67.185  72.511  0.00  0.00    +0.000 C 
ATOM     13  CA  UNL     1      59.268  66.609  71.614  0.00  0.00    +0.000 C 
ATOM     14  N   UNL     1      59.489  65.938  71.187  0.00  0.00    +0.000 N 
ATOM     15  C   UNL     1      59.707  65.438  70.568  0.00  0.00    +0.000 C 
ATOM     16  O   UNL     1      59.831  65.533  69.758  0.00  0.00    +0.000 OA
ATOM     17  C   UNL     1      59.160  67.366  71.304  0.00  0.00    +0.000 C 
ATOM     18  O   UNL     1      58.937  67.986  71.801  0.00  0.00    +0.000 OA
ATOM     19  OXT UNL     1      59.274  67.503  70.499  0.00  0.00    +0.000 OA
ATOM     20  C   UNL     1      60.528  62.489  69.535  0.00  0.00    +0.000 A 
ATOM     21  N   UNL     1      60.665  61.697  69.722  0.00  0.00    +0.000 NA
ATOM     22  O   UNL     1      60.541  61.603  70.533  0.00  0.00    +0.000 OA
ATOM     23  C   UNL     1      60.588  62.827  68.784  0.00  0.00    +0.000 A 
ATOM     24  C   UNL     1      60.433  63.631  68.681  0.00  0.00    +0.000 A 
ATOM     25 CL   UNL     1      60.218  64.097  69.327  0.00  0.00    +0.000 Cl
ATOM     26  C   UNL     1      60.494  63.968  67.930  0.00  0.00    +0.000 A 
ATOM     27  C   UNL     1      60.710  63.502  67.284  0.00  0.00    +0.000 A 
ATOM     28  C   UNL     1      60.865  62.699  67.389  0.00  0.00    +0.000 A 
ATOM     29  C   UNL     1      60.804  62.361  68.139  0.00  0.00    +0.000 A 
ATOM     30 CL   UNL     1      60.959  61.557  68.243  0.00  0.00    +0.000 Cl
ENDROOT
TORSDOF 0
ENDMDL
MODEL 6
REMARK VINA RESULT:   -12.684      3.224      6.143
REMARK INTER + INTRA:         -12.684
REMARK INTER:                 -12.684
REMARK INTRA:                   0.000
REMARK UNBOUND:                 0.000
ROOT
REMARK  Name = dicloxacillin
REMARK                            x       y       z     vdW  Elec       q    Type
REMARK                         _______ _______ _______ _____ _____    ______ ____
ATOM      1  C   UNL     1      62.294  65.915  72.694  0.00  0.00    +0.000 C 
ATOM      2  C   UNL     1      62.965  66.305  72.415  0.00  0.00    +0.000 A 
ATOM      3  C   UNL     1      63.322  66.190  71.679  0.00  0.00    +0.000 A 
ATOM      4  C   UNL     1      63.070  65.665  71.095  0.00  0.00    +0.000 C 
ATOM      5  O   UNL     1      63.484  65.610  70.384  0.00  0.00    +0.000 OA
ATOM      6  N   UNL     1      62.403  65.196  71.221  0.00  0.00    +0.000 NA
ATOM      7  CA  UNL     1      62.151  64.672  70.637  0.00  0.00    +0.000 C 
ATOM      8  C   UNL     1      61.531  64.132  70.566  0.00  0.00    +0.000 C 
ATOM      9  S   UNL     1      60.860  63.680  70.732  0.00  0.00    +0.000 S 
ATOM     10  C   UNL     1      60.709  63.200  70.078  0.00  0.00    +0.000 C 
ATOM     11  C   UNL     1      60.073  62.933  70.530  0.00  0.00    +0.000 C 
ATOM     12  C   UNL     1      60.424  62.663  69.519  0.00  0.00    +0.000 C 
ATOM     13  CA  UNL     1      61.286  63.354  69.509  0.00  0.00    +0.000 C 
ATOM     14  N   UNL     1      61.794  63.930  69.810  0.00  0.00    +0.000 N 
ATOM     15  C   UNL     1      62.414  64.470  69.882  0.00  0.00    +0.000 C 
ATOM     16  O   UNL     1      63.037  64.709  69.398  0.00  0.00    +0.000 OA
ATOM     17  C   UNL     1      61.344  62.995  68.768  0.00  0.00    +0.000 C 
ATOM     18  O   UNL     1      60.793  62.425  68.542  0.00  0.00    +0.000 OA
ATOM     19  OXT UNL     1      61.954  63.206  68.254  0.00  0.00    +0.000 OA
ATOM     20  C   UNL     1      63.975  66.692  71.632  0.00  0.00    +0.000 A 
ATOM     21  N   UNL     1      64.023  67.117  72.337  0.00  0.00    +0.000 NA
ATOM     22  O   UNL     1      63.398  66.877  72.821  0.00  0.00    +0.000 OA
ATOM     23  C   UNL     1      64.491  66.757  70.991  0.00  0.00    +0.000 A 
ATOM     24  C   UNL     1      64.373  66.293  70.318  0.00  0.00    +0.000 A 
ATOM     25 CL   UNL     1      63.741  65.764  70.287  0.00  0.00    +0.000 Cl
ATOM     26  C   UNL     1      64.889  66.359  69.678  0.00  0.00    +0.000 A 
ATOM     27  C   UNL     1      65.522  66.888  69.709  0.00  0.00    +0.000 A 
ATOM     28  C   UNL     1      65.639  67.351  70.382  0.00  0.00    +0.000 A 
ATOM     29  C   UNL     1      65.124  67.286  71.023  0.00  0.00    +0.000 A 
ATOM     30 CL   UNL     1      65.240  67.749  71.695  0.00  0.00    +0.000 Cl
ENDROOT
TORSDOF 0
ENDMDL
MODEL 7
REMARK VINA RESULT:   -12.648      3.603      5.523
REMARK INTER + INTRA:         -12.648
REMARK INTER:                 -12.648
REMARK INTRA:                   0.000
REMARK UNBOUND:                 0.000
ROOT
REMARK  Name = dicloxacillin
REMARK                            x       y       z     vdW  Elec       q    Type
REMARK                         _______ _______ _______ _____ _____    ______ ____
ATOM      1  C   UNL     1      62.614  64.264  68.665  0.00  0.00    +0.000 C 
ATOM      2  C   UNL     1      62.156  63.887  69.238  0.00  0.00    +0.000 A 
ATOM      3  C   UNL     1      62.216  63.994  70.053  0.00  0.00    +0.000 A 
ATOM      4  C   UNL     1      62.744  64.496  70.439  0.00  0.00    +0.000 C 
ATOM      5  O   UNL     1      62.741  64.546  71.262  0.00  0.00    +0.000 OA
ATOM      6  N   UNL     1      63.276  64.950  70.001  0.00  0.00    +0.000 NA
ATOM      7  CA  UNL     1      63.804  65.453  70.387  0.00  0.00    +0.000 C 
ATOM      8  C   UNL     1      64.397  65.973  70.144  0.00  0.00    +0.000 C 
ATOM      9  S   UNL     1      64.912  66.410  69.670  0.00  0.00    +0.000 S 
ATOM     10  C   UNL     1      65.386  66.870  70.166  0.00  0.00    +0.000 C 
ATOM     11  C   UNL     1      65.722  67.130  69.459  0.00  0.00    +0.000 C 
ATOM     12  C   UNL     1      65.929  67.385  70.513  0.00  0.00    +0.000 C 
ATOM     13  CA  UNL     1      65.163  66.719  70.945  0.00  0.00    +0.000 C 
ATOM     14  N   UNL     1      64.551  66.164  70.932  0.00  0.00    +0.000 N 
ATOM     15  C   UNL     1      63.959  65.643  71.174  0.00  0.00    +0.000 C 
ATOM     16  O   UNL     1      63.650  65.410  71.902  0.00  0.00    +0.000 OA
ATOM     17  C   UNL     1      65.493  67.061  71.620  0.00  0.00    +0.000 C 
ATOM     18  O   UNL     1      66.104  67.610  71.546  0.00  0.00    +0.000 OA
ATOM     19  OXT UNL     1      65.211  66.854  72.367  0.00  0.00    +0.000 OA
ATOM     20  C   UNL     1      61.655  63.509  70.416  0.00  0.00    +0.000 A 
ATOM     21  N   UNL     1      61.248  63.103  69.824  0.00  0.00    +0.000 NA
ATOM     22  O   UNL     1      61.558  63.336  69.096  0.00  0.00    +0.000 OA
ATOM     23  C   UNL     1      61.524  63.442  71.228  0.00  0.00    +0.000 A 
ATOM     24  C   UNL     1      61.977  63.886  71.756  0.00  0.00    +0.000 A 
ATOM     25 CL   UNL     1      62.560  64.396  71.473  0.00  0.00    +0.000 Cl
ATOM     26  C   UNL     1      61.845  63.819  72.568  0.00  0.00    +0.000 A 
ATOM     27  C   UNL     1      61.262  63.309  72.851  0.00  0.00    +0.000 A 
ATOM     28  C   UNL     1      60.810  62.866  72.322  0.00  0.00    +0.000 A 
ATOM     29  C   UNL     1      60.940  62.932  71.511  0.00  0.00    +0.000 A 
ATOM     30 CL   UNL     1      60.488  62.489  70.982  0.00  0.00    +0.000 Cl
ENDROOT
TORSDOF 0
ENDMDL
MODEL 8
REMARK VINA RESULT:   -12.626      3.143      6.253
REMARK INTER + INTRA:         -12.626
REMARK INTER:                 -12.626
REMARK INTRA:                   0.000
REMARK UNBOUND:                 0.000
ROOT
REMARK  Name = dicloxacillin
REMARK                            x       y       z     vdW  Elec       q    Type
REMARK                         _______ _______ _______ _____ _____    ______ ____
ATOM      1  C   UNL     1      60.395  67.123  69.537  0.00  0.00    +0.000 C 
ATOM      2  C   UNL     1      59.989  67.180  70.252  0.00  0.00    +0.000 A 
ATOM      3  C   UNL     1      59.721  66.547  70.709  0.00  0.00    +0.000 A 
ATOM      4  C   UNL     1      59.812  65.747  70.530  0.00  0.00    +0.000 C 
ATOM      5  O   UNL     1      59.513  65.173  71.042  0.00  0.00    +0.000 OA
ATOM      6  N   UNL     1      60.201  65.520  69.839  0.00  0.00    +0.000 NA
ATOM      7  CA  UNL     1      60.292  64.721  69.660  0.00  0.00    +0.000 C 
ATOM      8  C   UNL     1      60.638  64.297  69.042  0.00  0.00    +0.000 C 
ATOM      9  S   UNL     1      61.034  64.112  68.342  0.00  0.00    +0.000 S 
ATOM     10  C   UNL     1      61.061  63.290  68.274  0.00  0.00    +0.000 C 
ATOM     11  C   UNL     1      61.463  63.449  67.571  0.00  0.00    +0.000 C 
ATOM     12  C   UNL     1      61.173  62.502  68.059  0.00  0.00    +0.000 C 
ATOM     13  CA  UNL     1      60.683  62.967  68.932  0.00  0.00    +0.000 C 
ATOM     14  N   UNL     1      60.421  63.589  69.407  0.00  0.00    +0.000 N 
ATOM     15  C   UNL     1      60.076  64.013  70.025  0.00  0.00    +0.000 C 
ATOM     16  O   UNL     1      59.679  63.812  70.719  0.00  0.00    +0.000 OA
ATOM     17  C   UNL     1      60.584  62.163  69.088  0.00  0.00    +0.000 C 
ATOM     18  O   UNL     1      60.877  61.601  68.559  0.00  0.00    +0.000 OA
ATOM     19  OXT UNL     1      60.192  61.920  69.772  0.00  0.00    +0.000 OA
ATOM     20  C   UNL     1      59.346  66.855  71.376  0.00  0.00    +0.000 A 
ATOM     21  N   UNL     1      59.381  67.678  71.332  0.00  0.00    +0.000 NA
ATOM     22  O   UNL     1      59.779  67.878  70.638  0.00  0.00    +0.000 OA
ATOM     23  C   UNL     1      58.995  66.417  71.982  0.00  0.00    +0.000 A 
ATOM     24  C   UNL     1      59.002  65.592  71.951  0.00  0.00    +0.000 A 
ATOM     25 CL   UNL     1      59.359  65.206  71.315  0.00  0.00    +0.000 Cl
ATOM     26  C   UNL     1      58.652  65.154  72.556  0.00  0.00    +0.000 A 
ATOM     27  C   UNL     1      58.296  65.541  73.192  0.00  0.00    +0.000 A 
ATOM     28  C   UNL     1      58.290  66.365  73.222  0.00  0.00    +0.000 A 
ATOM     29  C   UNL     1      58.639  66.804  72.618  0.00  0.00    +0.000 A 
ATOM     30 CL   UNL     1      58.633  67.628  72.648  0.00  0.00    +0.000 Cl
ENDROOT
TORSDOF 0
ENDMDL
MODEL 9
REMARK VINA RESULT:   -12.178      4.395      6.405
REMARK INTER + INTRA:         -12.178
REMARK INTER:                 -12.178
REMARK INTRA:                   0.000
REMARK UNBOUND:                 0.000
ROOT
REMARK  Name = dicloxacillin
REMARK                            x       y       z     vdW  Elec       q    Type
REMARK                         _______ _______ _______ _____ _____    ______ ____
ATOM      1  C   UNL     1      64.418  64.607  69.472  0.00  0.00    +0.000 C 
ATOM      2  C   UNL     1      64.625  65.296  69.874  0.00  0.00    +0.000 A 
ATOM      3  C   UNL     1      64.193  65.650  70.482  0.00  0.00    +0.000 A 
ATOM      4  C   UNL     1      63.480  65.377  70.793  0.00  0.00    +0.000 C 
ATOM      5  O   UNL     1      63.110  65.791  71.403  0.00  0.00    +0.000 OA
ATOM      6  N   UNL     1      63.136  64.690  70.494  0.00  0.00    +0.000 NA
ATOM      7  CA  UNL     1      62.422  64.417  70.805  0.00  0.00    +0.000 C 
ATOM      8  C   UNL     1      61.928  63.774  70.653  0.00  0.00    +0.000 C 
ATOM      9  S   UNL     1      61.617  63.082  70.327  0.00  0.00    +0.000 S 
ATOM     10  C   UNL     1      60.910  62.912  70.716  0.00  0.00    +0.000 C 
ATOM     11  C   UNL     1      60.887  62.263  70.209  0.00  0.00    +0.000 C 
ATOM     12  C   UNL     1      60.198  62.606  71.000  0.00  0.00    +0.000 C 
ATOM     13  CA  UNL     1      60.784  63.498  71.283  0.00  0.00    +0.000 C 
ATOM     14  N   UNL     1      61.413  64.030  71.245  0.00  0.00    +0.000 N 
ATOM     15  C   UNL     1      61.907  64.673  71.396  0.00  0.00    +0.000 C 
ATOM     16  O   UNL     1      61.892  65.309  71.920  0.00  0.00    +0.000 OA
ATOM     17  C   UNL     1      60.141  63.543  71.799  0.00  0.00    +0.000 C 
ATOM     18  O   UNL     1      59.551  62.967  71.773  0.00  0.00    +0.000 OA
ATOM     19  OXT UNL     1      60.089  64.164  72.339  0.00  0.00    +0.000 OA
ATOM     20  C   UNL     1      64.601  66.326  70.724  0.00  0.00    +0.000 A 
ATOM     21  N   UNL     1      65.284  66.389  70.266  0.00  0.00    +0.000 NA
ATOM     22  O   UNL     1      65.298  65.753  69.741  0.00  0.00    +0.000 OA
ATOM     23  C   UNL     1      64.366  66.847  71.319  0.00  0.00    +0.000 A 
ATOM     24  C   UNL     1      63.665  66.711  71.732  0.00  0.00    +0.000 A 
ATOM     25 CL   UNL     1      63.198  66.056  71.551  0.00  0.00    +0.000 Cl
ATOM     26  C   UNL     1      63.431  67.232  72.328  0.00  0.00    +0.000 A 
ATOM     27  C   UNL     1      63.897  67.888  72.510  0.00  0.00    +0.000 A 
ATOM     28  C   UNL     1      64.598  68.023  72.096  0.00  0.00    +0.000 A 
ATOM     29  C   UNL     1      64.833  67.502  71.501  0.00  0.00    +0.000 A 
ATOM     30 CL   UNL     1      65.534  67.637  71.088  0.00  0.00    +0.000 Cl
ENDROOT
TORSDOF 0
ENDMDL
