MODEL 1
REMARK VINA RESULT:   -11.516      0.000      0.000
REMARK INTER + INTRA:         -11.516
REMARK INTER:                 -11.516
REMARK INTRA:                   0.000
REMARK UNBOUND:                 0.000
ROOT
REMARK  Name = dienestrol
REMARK                            x       y       z     vdW  Elec       q    Type
REMARK                         _______ _______ _______ _____ _____    ______ ____
ATOM      1  C   UNL     1      59.180  61.839  66.278  0.00  0.00    +0.000 C 
ATOM      2  C   UNL     1      59.862  61.796  65.814  0.00  0.00    +0.000 C 
ATOM      3  C   UNL     1      60.562  62.147  66.074  0.00  0.00    +0.000 C 
ATOM      4  C   UNL     1      61.243  62.103  65.611  0.00  0.00    +0.000 C 
ATOM      5  C   UNL     1      61.942  62.454  65.871  0.00  0.00    +0.000 C 
ATOM      6  C   UNL     1      62.623  62.410  65.408  0.00  0.00    +0.000 C 
ATOM      7  C   UNL     1      61.224  61.709  64.886  0.00  0.00    +0.000 A 
ATOM      8  C   UNL     1      61.904  61.665  64.422  0.00  0.00    +0.000 A 
ATOM      9  C   UNL     1      61.885  61.272  63.699  0.00  0.00    +0.000 A 
ATOM     10  C   UNL     1      61.186  60.921  63.437  0.00  0.00    +0.000 A 
ATOM     11  O   UNL     1      61.167  60.527  62.713  0.00  0.00    +0.000 OA
ATOM     12  C   UNL     1      60.505  60.965  63.902  0.00  0.00    +0.000 A 
ATOM     13  C   UNL     1      60.524  61.359  64.625  0.00  0.00    +0.000 A 
ATOM     14  C   UNL     1      60.581  62.541  66.800  0.00  0.00    +0.000 A 
ATOM     15  C   UNL     1      59.900  62.584  67.263  0.00  0.00    +0.000 A 
ATOM     16  C   UNL     1      59.919  62.979  67.988  0.00  0.00    +0.000 A 
ATOM     17  C   UNL     1      60.619  63.329  68.249  0.00  0.00    +0.000 A 
ATOM     18  O   UNL     1      60.638  63.723  68.973  0.00  0.00    +0.000 OA
ATOM     19  C   UNL     1      61.299  63.286  67.785  0.00  0.00    +0.000 A 
ATOM     20  C   UNL     1      61.281  62.892  67.060  0.00  0.00    +0.000 A 
ENDROOT
TORSDOF 0
ENDMDL
MODEL 2
REMARK VINA RESULT:   -10.482      2.527      4.061
REMARK INTER + INTRA:         -10.482
REMARK INTER:                 -10.482
REMARK INTRA:                   0.000
REMARK UNBOUND:                 0.000
ROOT
REMARK  Name = dienestrol
REMARK                            x       y       z     vdW  Elec       q    Type
REMARK                         _______ _______ _______ _____ _____    ______ ____
ATOM      1  C   UNL     1      60.236  61.568  70.598  0.00  0.00    +0.000 C 
ATOM      2  C   UNL     1      60.485  61.993  69.936  0.00  0.00    +0.000 C 
ATOM      3  C   UNL     1      60.969  62.656  70.028  0.00  0.00    +0.000 C 
ATOM      4  C   UNL     1      61.217  63.080  69.367  0.00  0.00    +0.000 C 
ATOM      5  C   UNL     1      61.700  63.742  69.459  0.00  0.00    +0.000 C 
ATOM      6  C   UNL     1      61.949  64.168  68.797  0.00  0.00    +0.000 C 
ATOM      7  C   UNL     1      60.982  62.843  68.612  0.00  0.00    +0.000 A 
ATOM      8  C   UNL     1      61.230  63.268  67.950  0.00  0.00    +0.000 A 
ATOM      9  C   UNL     1      60.996  63.031  67.196  0.00  0.00    +0.000 A 
ATOM     10  C   UNL     1      60.512  62.369  67.103  0.00  0.00    +0.000 A 
ATOM     11  O   UNL     1      60.277  62.132  66.349  0.00  0.00    +0.000 OA
ATOM     12  C   UNL     1      60.264  61.944  67.766  0.00  0.00    +0.000 A 
ATOM     13  C   UNL     1      60.499  62.181  68.519  0.00  0.00    +0.000 A 
ATOM     14  C   UNL     1      61.204  62.893  70.784  0.00  0.00    +0.000 A 
ATOM     15  C   UNL     1      60.955  62.468  71.445  0.00  0.00    +0.000 A 
ATOM     16  C   UNL     1      61.190  62.705  72.200  0.00  0.00    +0.000 A 
ATOM     17  C   UNL     1      61.674  63.368  72.292  0.00  0.00    +0.000 A 
ATOM     18  O   UNL     1      61.908  63.605  73.046  0.00  0.00    +0.000 OA
ATOM     19  C   UNL     1      61.922  63.792  71.630  0.00  0.00    +0.000 A 
ATOM     20  C   UNL     1      61.687  63.555  70.876  0.00  0.00    +0.000 A 
ENDROOT
TORSDOF 0
ENDMDL
MODEL 3
REMARK VINA RESULT:   -10.466      2.531      5.607
REMARK INTER + INTRA:         -10.466
REMARK INTER:                 -10.466
REMARK INTRA:                   0.000
REMARK UNBOUND:                 0.000
ROOT
REMARK  Name = dienestrol
REMARK                            x       y       z     vdW  Elec       q    Type
REMARK                         _______ _______ _______ _____ _____    ______ ____
ATOM      1  C   UNL     1      61.928  64.218  68.824  0.00  0.00    +0.000 C 
ATOM      2  C   UNL     1      61.689  63.777  69.479  0.00  0.00    +0.000 C 
ATOM      3  C   UNL     1      61.215  63.109  69.377  0.00  0.00    +0.000 C 
ATOM      4  C   UNL     1      60.976  62.669  70.032  0.00  0.00    +0.000 C 
ATOM      5  C   UNL     1      60.502  62.002  69.930  0.00  0.00    +0.000 C 
ATOM      6  C   UNL     1      60.263  61.561  70.585  0.00  0.00    +0.000 C 
ATOM      7  C   UNL     1      61.213  62.895  70.789  0.00  0.00    +0.000 A 
ATOM      8  C   UNL     1      60.975  62.454  71.445  0.00  0.00    +0.000 A 
ATOM      9  C   UNL     1      61.211  62.680  72.201  0.00  0.00    +0.000 A 
ATOM     10  C   UNL     1      61.685  63.347  72.304  0.00  0.00    +0.000 A 
ATOM     11  O   UNL     1      61.921  63.573  73.062  0.00  0.00    +0.000 OA
ATOM     12  C   UNL     1      61.923  63.788  71.649  0.00  0.00    +0.000 A 
ATOM     13  C   UNL     1      61.687  63.562  70.892  0.00  0.00    +0.000 A 
ATOM     14  C   UNL     1      60.978  62.883  68.619  0.00  0.00    +0.000 A 
ATOM     15  C   UNL     1      61.217  63.325  67.964  0.00  0.00    +0.000 A 
ATOM     16  C   UNL     1      60.981  63.099  67.206  0.00  0.00    +0.000 A 
ATOM     17  C   UNL     1      60.506  62.431  67.104  0.00  0.00    +0.000 A 
ATOM     18  O   UNL     1      60.270  62.205  66.348  0.00  0.00    +0.000 OA
ATOM     19  C   UNL     1      60.268  61.990  67.760  0.00  0.00    +0.000 A 
ATOM     20  C   UNL     1      60.504  62.217  68.517  0.00  0.00    +0.000 A 
ENDROOT
TORSDOF 0
ENDMDL
MODEL 4
REMARK VINA RESULT:   -10.367      5.969      7.686
REMARK INTER + INTRA:         -10.367
REMARK INTER:                 -10.367
REMARK INTRA:                   0.000
REMARK UNBOUND:                 0.000
ROOT
REMARK  Name = dienestrol
REMARK                            x       y       z     vdW  Elec       q    Type
REMARK                         _______ _______ _______ _____ _____    ______ ____
ATOM      1  C   UNL     1      63.838  67.082  72.355  0.00  0.00    +0.000 C 
ATOM      2  C   UNL     1      63.534  66.381  72.044  0.00  0.00    +0.000 C 
ATOM      3  C   UNL     1      63.856  66.059  71.356  0.00  0.00    +0.000 C 
ATOM      4  C   UNL     1      63.551  65.358  71.046  0.00  0.00    +0.000 C 
ATOM      5  C   UNL     1      63.873  65.037  70.359  0.00  0.00    +0.000 C 
ATOM      6  C   UNL     1      63.568  64.336  70.048  0.00  0.00    +0.000 C 
ATOM      7  C   UNL     1      62.924  64.979  71.425  0.00  0.00    +0.000 A 
ATOM      8  C   UNL     1      62.618  64.277  71.115  0.00  0.00    +0.000 A 
ATOM      9  C   UNL     1      61.992  63.898  71.493  0.00  0.00    +0.000 A 
ATOM     10  C   UNL     1      61.669  64.219  72.181  0.00  0.00    +0.000 A 
ATOM     11  O   UNL     1      61.042  63.839  72.559  0.00  0.00    +0.000 OA
ATOM     12  C   UNL     1      61.975  64.920  72.490  0.00  0.00    +0.000 A 
ATOM     13  C   UNL     1      62.601  65.299  72.113  0.00  0.00    +0.000 A 
ATOM     14  C   UNL     1      64.484  66.439  70.977  0.00  0.00    +0.000 A 
ATOM     15  C   UNL     1      64.788  67.140  71.288  0.00  0.00    +0.000 A 
ATOM     16  C   UNL     1      65.415  67.520  70.909  0.00  0.00    +0.000 A 
ATOM     17  C   UNL     1      65.738  67.198  70.221  0.00  0.00    +0.000 A 
ATOM     18  O   UNL     1      66.364  67.578  69.843  0.00  0.00    +0.000 OA
ATOM     19  C   UNL     1      65.433  66.497  69.912  0.00  0.00    +0.000 A 
ATOM     20  C   UNL     1      64.805  66.118  70.290  0.00  0.00    +0.000 A 
ENDROOT
TORSDOF 0
ENDMDL
MODEL 5
REMARK VINA RESULT:   -10.359      5.943      7.522
REMARK INTER + INTRA:         -10.359
REMARK INTER:                 -10.359
REMARK INTRA:                   0.000
REMARK UNBOUND:                 0.000
ROOT
REMARK  Name = dienestrol
REMARK                            x       y       z     vdW  Elec       q    Type
REMARK                         _______ _______ _______ _____ _____    ______ ____
ATOM      1  C   UNL     1      63.494  64.399  70.013  0.00  0.00    +0.000 C 
ATOM      2  C   UNL     1      63.819  65.090  70.327  0.00  0.00    +0.000 C 
ATOM      3  C   UNL     1      63.511  65.414  71.021  0.00  0.00    +0.000 C 
ATOM      4  C   UNL     1      63.836  66.104  71.334  0.00  0.00    +0.000 C 
ATOM      5  C   UNL     1      63.527  66.427  72.027  0.00  0.00    +0.000 C 
ATOM      6  C   UNL     1      63.853  67.118  72.341  0.00  0.00    +0.000 C 
ATOM      7  C   UNL     1      64.470  66.470  70.954  0.00  0.00    +0.000 A 
ATOM      8  C   UNL     1      64.796  67.160  71.267  0.00  0.00    +0.000 A 
ATOM      9  C   UNL     1      65.429  67.526  70.888  0.00  0.00    +0.000 A 
ATOM     10  C   UNL     1      65.738  67.203  70.195  0.00  0.00    +0.000 A 
ATOM     11  O   UNL     1      66.372  67.570  69.815  0.00  0.00    +0.000 OA
ATOM     12  C   UNL     1      65.412  66.513  69.882  0.00  0.00    +0.000 A 
ATOM     13  C   UNL     1      64.779  66.147  70.261  0.00  0.00    +0.000 A 
ATOM     14  C   UNL     1      62.876  65.047  71.401  0.00  0.00    +0.000 A 
ATOM     15  C   UNL     1      62.550  64.357  71.086  0.00  0.00    +0.000 A 
ATOM     16  C   UNL     1      61.916  63.990  71.466  0.00  0.00    +0.000 A 
ATOM     17  C   UNL     1      61.607  64.314  72.160  0.00  0.00    +0.000 A 
ATOM     18  O   UNL     1      60.974  63.948  72.539  0.00  0.00    +0.000 OA
ATOM     19  C   UNL     1      61.933  65.004  72.473  0.00  0.00    +0.000 A 
ATOM     20  C   UNL     1      62.567  65.371  72.093  0.00  0.00    +0.000 A 
ENDROOT
TORSDOF 0
ENDMDL
MODEL 6
REMARK VINA RESULT:   -10.298      6.240      7.531
REMARK INTER + INTRA:         -10.298
REMARK INTER:                 -10.298
REMARK INTRA:                   0.000
REMARK UNBOUND:                 0.000
ROOT
REMARK  Name = dienestrol
REMARK                            x       y       z     vdW  Elec       q    Type
REMARK                         _______ _______ _______ _____ _____    ______ ____
ATOM      1  C   UNL     1      62.773  66.496  72.798  0.00  0.00    +0.000 C 
ATOM      2  C   UNL     1      63.284  66.358  72.165  0.00  0.00    +0.000 C 
ATOM      3  C   UNL     1      63.218  65.665  71.723  0.00  0.00    +0.000 C 
ATOM      4  C   UNL     1      63.729  65.527  71.091  0.00  0.00    +0.000 C 
ATOM      5  C   UNL     1      63.663  64.834  70.650  0.00  0.00    +0.000 C 
ATOM      6  C   UNL     1      64.174  64.696  70.018  0.00  0.00    +0.000 C 
ATOM      7  C   UNL     1      64.308  66.084  70.900  0.00  0.00    +0.000 A 
ATOM      8  C   UNL     1      64.819  65.947  70.268  0.00  0.00    +0.000 A 
ATOM      9  C   UNL     1      65.397  66.503  70.077  0.00  0.00    +0.000 A 
ATOM     10  C   UNL     1      65.464  67.197  70.517  0.00  0.00    +0.000 A 
ATOM     11  O   UNL     1      66.042  67.754  70.326  0.00  0.00    +0.000 OA
ATOM     12  C   UNL     1      64.952  67.334  71.150  0.00  0.00    +0.000 A 
ATOM     13  C   UNL     1      64.375  66.778  71.341  0.00  0.00    +0.000 A 
ATOM     14  C   UNL     1      62.640  65.107  71.915  0.00  0.00    +0.000 A 
ATOM     15  C   UNL     1      62.128  65.245  72.548  0.00  0.00    +0.000 A 
ATOM     16  C   UNL     1      61.550  64.689  72.739  0.00  0.00    +0.000 A 
ATOM     17  C   UNL     1      61.483  63.994  72.298  0.00  0.00    +0.000 A 
ATOM     18  O   UNL     1      60.906  63.438  72.489  0.00  0.00    +0.000 OA
ATOM     19  C   UNL     1      61.995  63.857  71.665  0.00  0.00    +0.000 A 
ATOM     20  C   UNL     1      62.573  64.414  71.474  0.00  0.00    +0.000 A 
ENDROOT
TORSDOF 0
ENDMDL
MODEL 7
REMARK VINA RESULT:   -10.252      4.328      6.045
REMARK INTER + INTRA:         -10.252
REMARK INTER:                 -10.252
REMARK INTRA:                   0.000
REMARK UNBOUND:                 0.000
ROOT
REMARK  Name = dienestrol
REMARK                            x       y       z     vdW  Elec       q    Type
REMARK                         _______ _______ _______ _____ _____    ______ ____
ATOM      1  C   UNL     1      60.526  62.768  69.305  0.00  0.00    +0.000 C 
ATOM      2  C   UNL     1      60.773  62.711  70.091  0.00  0.00    +0.000 C 
ATOM      3  C   UNL     1      60.698  63.359  70.596  0.00  0.00    +0.000 C 
ATOM      4  C   UNL     1      60.944  63.302  71.381  0.00  0.00    +0.000 C 
ATOM      5  C   UNL     1      60.869  63.950  71.885  0.00  0.00    +0.000 C 
ATOM      6  C   UNL     1      61.115  63.893  72.671  0.00  0.00    +0.000 C 
ATOM      7  C   UNL     1      61.266  62.596  71.661  0.00  0.00    +0.000 A 
ATOM      8  C   UNL     1      61.513  62.538  72.446  0.00  0.00    +0.000 A 
ATOM      9  C   UNL     1      61.835  61.833  72.726  0.00  0.00    +0.000 A 
ATOM     10  C   UNL     1      61.911  61.185  72.222  0.00  0.00    +0.000 A 
ATOM     11  O   UNL     1      62.233  60.479  72.503  0.00  0.00    +0.000 OA
ATOM     12  C   UNL     1      61.664  61.243  71.438  0.00  0.00    +0.000 A 
ATOM     13  C   UNL     1      61.342  61.948  71.157  0.00  0.00    +0.000 A 
ATOM     14  C   UNL     1      60.375  64.066  70.315  0.00  0.00    +0.000 A 
ATOM     15  C   UNL     1      60.128  64.123  69.530  0.00  0.00    +0.000 A 
ATOM     16  C   UNL     1      59.806  64.828  69.249  0.00  0.00    +0.000 A 
ATOM     17  C   UNL     1      59.731  65.477  69.754  0.00  0.00    +0.000 A 
ATOM     18  O   UNL     1      59.409  66.182  69.474  0.00  0.00    +0.000 OA
ATOM     19  C   UNL     1      59.977  65.419  70.539  0.00  0.00    +0.000 A 
ATOM     20  C   UNL     1      60.300  64.714  70.820  0.00  0.00    +0.000 A 
ENDROOT
TORSDOF 0
ENDMDL
MODEL 8
REMARK VINA RESULT:   -10.167      5.173      6.668
REMARK INTER + INTRA:         -10.167
REMARK INTER:                 -10.167
REMARK INTRA:                   0.000
REMARK UNBOUND:                 0.000
ROOT
REMARK  Name = dienestrol
REMARK                            x       y       z     vdW  Elec       q    Type
REMARK                         _______ _______ _______ _____ _____    ______ ____
ATOM      1  C   UNL     1      63.378  64.297  70.225  0.00  0.00    +0.000 C 
ATOM      2  C   UNL     1      62.698  64.058  70.627  0.00  0.00    +0.000 C 
ATOM      3  C   UNL     1      62.421  64.496  71.269  0.00  0.00    +0.000 C 
ATOM      4  C   UNL     1      61.741  64.256  71.670  0.00  0.00    +0.000 C 
ATOM      5  C   UNL     1      61.465  64.694  72.311  0.00  0.00    +0.000 C 
ATOM      6  C   UNL     1      60.785  64.455  72.713  0.00  0.00    +0.000 C 
ATOM      7  C   UNL     1      61.338  63.578  71.429  0.00  0.00    +0.000 A 
ATOM      8  C   UNL     1      60.658  63.338  71.829  0.00  0.00    +0.000 A 
ATOM      9  C   UNL     1      60.255  62.661  71.589  0.00  0.00    +0.000 A 
ATOM     10  C   UNL     1      60.531  62.222  70.947  0.00  0.00    +0.000 A 
ATOM     11  O   UNL     1      60.128  61.544  70.706  0.00  0.00    +0.000 OA
ATOM     12  C   UNL     1      61.211  62.462  70.547  0.00  0.00    +0.000 A 
ATOM     13  C   UNL     1      61.614  63.140  70.787  0.00  0.00    +0.000 A 
ATOM     14  C   UNL     1      62.824  65.175  71.510  0.00  0.00    +0.000 A 
ATOM     15  C   UNL     1      63.504  65.414  71.108  0.00  0.00    +0.000 A 
ATOM     16  C   UNL     1      63.908  66.093  71.349  0.00  0.00    +0.000 A 
ATOM     17  C   UNL     1      63.631  66.531  71.991  0.00  0.00    +0.000 A 
ATOM     18  O   UNL     1      64.034  67.209  72.232  0.00  0.00    +0.000 OA
ATOM     19  C   UNL     1      62.951  66.291  72.392  0.00  0.00    +0.000 A 
ATOM     20  C   UNL     1      62.548  65.613  72.151  0.00  0.00    +0.000 A 
ENDROOT
TORSDOF 0
ENDMDL
MODEL 9
REMARK VINA RESULT:    -9.959      0.705      3.935
REMARK INTER + INTRA:          -9.959
REMARK INTER:                  -9.959
REMARK INTRA:                   0.000
REMARK UNBOUND:                 0.000
ROOT
REMARK  Name = dienestrol
REMARK                            x       y       z     vdW  Elec       q    Type
REMARK                         _______ _______ _______ _____ _____    ______ ____
ATOM      1  C   UNL     1      58.994  61.983  66.358  0.00  0.00    +0.000 C 
ATOM      2  C   UNL     1      59.579  62.371  66.792  0.00  0.00    +0.000 C 
ATOM      3  C   UNL     1      60.356  62.388  66.516  0.00  0.00    +0.000 C 
ATOM      4  C   UNL     1      60.940  62.777  66.950  0.00  0.00    +0.000 C 
ATOM      5  C   UNL     1      61.716  62.794  66.674  0.00  0.00    +0.000 C 
ATOM      6  C   UNL     1      62.301  63.182  67.107  0.00  0.00    +0.000 C 
ATOM      7  C   UNL     1      60.747  63.149  67.660  0.00  0.00    +0.000 A 
ATOM      8  C   UNL     1      61.330  63.538  68.094  0.00  0.00    +0.000 A 
ATOM      9  C   UNL     1      61.137  63.910  68.804  0.00  0.00    +0.000 A 
ATOM     10  C   UNL     1      60.360  63.894  69.081  0.00  0.00    +0.000 A 
ATOM     11  O   UNL     1      60.167  64.267  69.791  0.00  0.00    +0.000 OA
ATOM     12  C   UNL     1      59.777  63.505  68.646  0.00  0.00    +0.000 A 
ATOM     13  C   UNL     1      59.970  63.133  67.937  0.00  0.00    +0.000 A 
ATOM     14  C   UNL     1      60.549  62.015  65.805  0.00  0.00    +0.000 A 
ATOM     15  C   UNL     1      59.965  61.627  65.371  0.00  0.00    +0.000 A 
ATOM     16  C   UNL     1      60.158  61.254  64.661  0.00  0.00    +0.000 A 
ATOM     17  C   UNL     1      60.936  61.271  64.384  0.00  0.00    +0.000 A 
ATOM     18  O   UNL     1      61.129  60.899  63.675  0.00  0.00    +0.000 OA
ATOM     19  C   UNL     1      61.519  61.660  64.818  0.00  0.00    +0.000 A 
ATOM     20  C   UNL     1      61.326  62.032  65.529  0.00  0.00    +0.000 A 
ENDROOT
TORSDOF 0
ENDMDL
