MODEL 1
REMARK VINA RESULT:   -16.047      0.000      0.000
REMARK INTER + INTRA:         -16.047
REMARK INTER:                 -16.047
REMARK INTRA:                   0.000
REMARK UNBOUND:                 0.000
ROOT
REMARK  Name = difluprednate
REMARK                            x       y       z     vdW  Elec       q    Type
REMARK                         _______ _______ _______ _____ _____    ______ ____
ATOM      1  C   UNL     1      60.508  61.552  70.593  0.00  0.00    +0.000 C 
ATOM      2  C   UNL     1      60.317  62.267  70.957  0.00  0.00    +0.000 C 
ATOM      3  C   UNL     1      60.891  62.855  71.039  0.00  0.00    +0.000 C 
ATOM      4  C   UNL     1      60.699  63.570  71.403  0.00  0.00    +0.000 C 
ATOM      5  O   UNL     1      59.935  63.697  71.684  0.00  0.00    +0.000 OA
ATOM      6  O   UNL     1      61.273  64.158  71.485  0.00  0.00    +0.000 OA
ATOM      7  C   UNL     1      61.082  64.872  71.848  0.00  0.00    +0.000 C 
ATOM      8  C   UNL     1      60.734  65.517  72.228  0.00  0.00    +0.000 C 
ATOM      9  C   UNL     1      61.308  66.105  72.310  0.00  0.00    +0.000 C 
ATOM     10  C   UNL     1      62.010  65.823  71.981  0.00  0.00    +0.000 C 
ATOM     11  C   UNL     1      62.758  66.162  71.904  0.00  0.00    +0.000 C 
ATOM     12  C   UNL     1      62.898  66.923  72.189  0.00  0.00    +0.000 C 
ATOM     13  C   UNL     1      63.646  67.262  72.112  0.00  0.00    +0.000 C 
ATOM     14  F   UNL     1      63.786  68.023  72.397  0.00  0.00    +0.000 F 
ATOM     15  C   UNL     1      64.254  66.838  71.750  0.00  0.00    +0.000 C 
ATOM     16  C   UNL     1      65.004  67.178  71.673  0.00  0.00    +0.000 C 
ATOM     17  C   UNL     1      65.612  66.755  71.311  0.00  0.00    +0.000 C 
ATOM     18  O   UNL     1      66.360  67.093  71.234  0.00  0.00    +0.000 OA
ATOM     19  C   UNL     1      65.472  65.993  71.025  0.00  0.00    +0.000 C 
ATOM     20  C   UNL     1      64.724  65.655  71.102  0.00  0.00    +0.000 C 
ATOM     21  C   UNL     1      64.115  66.077  71.464  0.00  0.00    +0.000 C 
ATOM     22  C   UNL     1      63.976  65.316  71.179  0.00  0.00    +0.000 C 
ATOM     23  C   UNL     1      63.367  65.739  71.541  0.00  0.00    +0.000 C 
ATOM     24  F   UNL     1      63.559  65.023  71.177  0.00  0.00    +0.000 F 
ATOM     25  C   UNL     1      63.228  64.977  71.256  0.00  0.00    +0.000 C 
ATOM     26  O   UNL     1      63.836  64.555  70.894  0.00  0.00    +0.000 OA
ATOM     27  C   UNL     1      62.479  64.639  71.333  0.00  0.00    +0.000 C 
ATOM     28  C   UNL     1      61.870  65.062  71.695  0.00  0.00    +0.000 C 
ATOM     29  C   UNL     1      61.649  64.309  71.438  0.00  0.00    +0.000 C 
ATOM     30  C   UNL     1      60.333  64.534  71.925  0.00  0.00    +0.000 C 
ATOM     31  O   UNL     1      59.760  63.946  71.843  0.00  0.00    +0.000 OA
ATOM     32  C   UNL     1      59.724  64.957  72.287  0.00  0.00    +0.000 C 
ATOM     33  O   UNL     1      59.865  65.718  72.572  0.00  0.00    +0.000 OA
ATOM     34  C   UNL     1      59.256  66.142  72.935  0.00  0.00    +0.000 C 
ATOM     35  C   UNL     1      58.507  65.802  73.011  0.00  0.00    +0.000 C 
ATOM     36  O   UNL     1      59.395  66.903  73.220  0.00  0.00    +0.000 OA
ENDROOT
TORSDOF 0
ENDMDL
MODEL 2
REMARK VINA RESULT:   -15.807      3.473      5.628
REMARK INTER + INTRA:         -15.807
REMARK INTER:                 -15.807
REMARK INTRA:                   0.000
REMARK UNBOUND:                 0.000
ROOT
REMARK  Name = difluprednate
REMARK                            x       y       z     vdW  Elec       q    Type
REMARK                         _______ _______ _______ _____ _____    ______ ____
ATOM      1  C   UNL     1      64.715  65.438  69.756  0.00  0.00    +0.000 C 
ATOM      2  C   UNL     1      63.971  65.180  70.000  0.00  0.00    +0.000 C 
ATOM      3  C   UNL     1      63.491  64.754  69.481  0.00  0.00    +0.000 C 
ATOM      4  C   UNL     1      62.746  64.497  69.727  0.00  0.00    +0.000 C 
ATOM      5  O   UNL     1      62.482  64.666  70.489  0.00  0.00    +0.000 OA
ATOM      6  O   UNL     1      62.266  64.071  69.208  0.00  0.00    +0.000 OA
ATOM      7  C   UNL     1      61.522  63.814  69.453  0.00  0.00    +0.000 C 
ATOM      8  C   UNL     1      60.819  63.633  69.846  0.00  0.00    +0.000 C 
ATOM      9  C   UNL     1      60.339  63.207  69.328  0.00  0.00    +0.000 C 
ATOM     10  C   UNL     1      60.744  63.124  68.615  0.00  0.00    +0.000 C 
ATOM     11  C   UNL     1      60.543  62.756  67.905  0.00  0.00    +0.000 C 
ATOM     12  C   UNL     1      59.812  62.381  67.827  0.00  0.00    +0.000 C 
ATOM     13  C   UNL     1      59.611  62.013  67.117  0.00  0.00    +0.000 C 
ATOM     14  F   UNL     1      58.880  61.638  67.040  0.00  0.00    +0.000 F 
ATOM     15  C   UNL     1      60.140  62.020  66.484  0.00  0.00    +0.000 C 
ATOM     16  C   UNL     1      59.938  61.651  65.774  0.00  0.00    +0.000 C 
ATOM     17  C   UNL     1      60.467  61.658  65.141  0.00  0.00    +0.000 C 
ATOM     18  O   UNL     1      60.266  61.290  64.431  0.00  0.00    +0.000 OA
ATOM     19  C   UNL     1      61.198  62.033  65.218  0.00  0.00    +0.000 C 
ATOM     20  C   UNL     1      61.400  62.401  65.928  0.00  0.00    +0.000 C 
ATOM     21  C   UNL     1      60.871  62.394  66.561  0.00  0.00    +0.000 C 
ATOM     22  C   UNL     1      61.602  62.769  66.638  0.00  0.00    +0.000 C 
ATOM     23  C   UNL     1      61.072  62.763  67.271  0.00  0.00    +0.000 C 
ATOM     24  F   UNL     1      61.817  63.020  67.026  0.00  0.00    +0.000 F 
ATOM     25  C   UNL     1      61.803  63.137  67.348  0.00  0.00    +0.000 C 
ATOM     26  O   UNL     1      62.332  63.144  66.716  0.00  0.00    +0.000 OA
ATOM     27  C   UNL     1      62.005  63.506  68.059  0.00  0.00    +0.000 C 
ATOM     28  C   UNL     1      61.475  63.499  68.692  0.00  0.00    +0.000 C 
ATOM     29  C   UNL     1      62.183  63.894  68.850  0.00  0.00    +0.000 C 
ATOM     30  C   UNL     1      61.723  64.182  70.163  0.00  0.00    +0.000 C 
ATOM     31  O   UNL     1      62.203  64.608  70.682  0.00  0.00    +0.000 OA
ATOM     32  C   UNL     1      61.194  64.175  70.796  0.00  0.00    +0.000 C 
ATOM     33  O   UNL     1      60.463  63.800  70.719  0.00  0.00    +0.000 OA
ATOM     34  C   UNL     1      59.933  63.794  71.352  0.00  0.00    +0.000 C 
ATOM     35  C   UNL     1      60.136  64.162  72.061  0.00  0.00    +0.000 C 
ATOM     36  O   UNL     1      59.203  63.419  71.275  0.00  0.00    +0.000 OA
ENDROOT
TORSDOF 0
ENDMDL
MODEL 3
REMARK VINA RESULT:   -15.731      3.336      5.675
REMARK INTER + INTRA:         -15.731
REMARK INTER:                 -15.731
REMARK INTRA:                   0.000
REMARK UNBOUND:                 0.000
ROOT
REMARK  Name = difluprednate
REMARK                            x       y       z     vdW  Elec       q    Type
REMARK                         _______ _______ _______ _____ _____    ______ ____
ATOM      1  C   UNL     1      58.988  64.408  72.101  0.00  0.00    +0.000 C 
ATOM      2  C   UNL     1      59.730  64.482  71.747  0.00  0.00    +0.000 C 
ATOM      3  C   UNL     1      59.860  64.175  70.992  0.00  0.00    +0.000 C 
ATOM      4  C   UNL     1      60.602  64.250  70.639  0.00  0.00    +0.000 C 
ATOM      5  O   UNL     1      61.213  64.631  71.041  0.00  0.00    +0.000 OA
ATOM      6  O   UNL     1      60.732  63.943  69.885  0.00  0.00    +0.000 OA
ATOM      7  C   UNL     1      61.473  64.017  69.532  0.00  0.00    +0.000 C 
ATOM      8  C   UNL     1      62.257  64.172  69.325  0.00  0.00    +0.000 C 
ATOM      9  C   UNL     1      62.387  63.865  68.570  0.00  0.00    +0.000 C 
ATOM     10  C   UNL     1      61.684  63.521  68.310  0.00  0.00    +0.000 C 
ATOM     11  C   UNL     1      61.485  63.133  67.610  0.00  0.00    +0.000 C 
ATOM     12  C   UNL     1      62.050  63.039  67.015  0.00  0.00    +0.000 C 
ATOM     13  C   UNL     1      61.850  62.652  66.315  0.00  0.00    +0.000 C 
ATOM     14  F   UNL     1      62.415  62.559  65.721  0.00  0.00    +0.000 F 
ATOM     15  C   UNL     1      61.087  62.359  66.209  0.00  0.00    +0.000 C 
ATOM     16  C   UNL     1      60.888  61.971  65.507  0.00  0.00    +0.000 C 
ATOM     17  C   UNL     1      60.125  61.678  65.401  0.00  0.00    +0.000 C 
ATOM     18  O   UNL     1      59.925  61.291  64.701  0.00  0.00    +0.000 OA
ATOM     19  C   UNL     1      59.560  61.772  65.995  0.00  0.00    +0.000 C 
ATOM     20  C   UNL     1      59.759  62.159  66.696  0.00  0.00    +0.000 C 
ATOM     21  C   UNL     1      60.522  62.453  66.803  0.00  0.00    +0.000 C 
ATOM     22  C   UNL     1      59.957  62.546  67.397  0.00  0.00    +0.000 C 
ATOM     23  C   UNL     1      60.721  62.840  67.503  0.00  0.00    +0.000 C 
ATOM     24  F   UNL     1      59.979  62.765  67.856  0.00  0.00    +0.000 F 
ATOM     25  C   UNL     1      60.156  62.933  68.097  0.00  0.00    +0.000 C 
ATOM     26  O   UNL     1      59.393  62.640  67.990  0.00  0.00    +0.000 OA
ATOM     27  C   UNL     1      60.356  63.321  68.798  0.00  0.00    +0.000 C 
ATOM     28  C   UNL     1      61.120  63.614  68.904  0.00  0.00    +0.000 C 
ATOM     29  C   UNL     1      60.616  63.749  69.545  0.00  0.00    +0.000 C 
ATOM     30  C   UNL     1      61.672  64.404  70.233  0.00  0.00    +0.000 C 
ATOM     31  O   UNL     1      61.542  64.711  70.987  0.00  0.00    +0.000 OA
ATOM     32  C   UNL     1      62.436  64.698  70.339  0.00  0.00    +0.000 C 
ATOM     33  O   UNL     1      63.001  64.604  69.744  0.00  0.00    +0.000 OA
ATOM     34  C   UNL     1      63.765  64.898  69.851  0.00  0.00    +0.000 C 
ATOM     35  C   UNL     1      63.963  65.285  70.552  0.00  0.00    +0.000 C 
ATOM     36  O   UNL     1      64.329  64.804  69.257  0.00  0.00    +0.000 OA
ENDROOT
TORSDOF 0
ENDMDL
MODEL 4
REMARK VINA RESULT:   -15.389      4.132      6.060
REMARK INTER + INTRA:         -15.389
REMARK INTER:                 -15.389
REMARK INTRA:                   0.000
REMARK UNBOUND:                 0.000
ROOT
REMARK  Name = difluprednate
REMARK                            x       y       z     vdW  Elec       q    Type
REMARK                         _______ _______ _______ _____ _____    ______ ____
ATOM      1  C   UNL     1      59.698  66.678  69.087  0.00  0.00    +0.000 C 
ATOM      2  C   UNL     1      59.810  65.898  69.331  0.00  0.00    +0.000 C 
ATOM      3  C   UNL     1      60.096  65.336  68.799  0.00  0.00    +0.000 C 
ATOM      4  C   UNL     1      60.208  64.556  69.044  0.00  0.00    +0.000 C 
ATOM      5  O   UNL     1      60.034  64.339  69.820  0.00  0.00    +0.000 OA
ATOM      6  O   UNL     1      60.494  63.994  68.512  0.00  0.00    +0.000 OA
ATOM      7  C   UNL     1      60.605  63.215  68.756  0.00  0.00    +0.000 C 
ATOM      8  C   UNL     1      60.660  62.493  69.152  0.00  0.00    +0.000 C 
ATOM      9  C   UNL     1      60.946  61.931  68.620  0.00  0.00    +0.000 C 
ATOM     10  C   UNL     1      61.068  62.305  67.895  0.00  0.00    +0.000 C 
ATOM     11  C   UNL     1      61.344  62.026  67.170  0.00  0.00    +0.000 C 
ATOM     12  C   UNL     1      61.554  61.233  67.085  0.00  0.00    +0.000 C 
ATOM     13  C   UNL     1      61.830  60.954  66.359  0.00  0.00    +0.000 C 
ATOM     14  F   UNL     1      62.040  60.160  66.275  0.00  0.00    +0.000 F 
ATOM     15  C   UNL     1      61.895  61.469  65.718  0.00  0.00    +0.000 C 
ATOM     16  C   UNL     1      62.172  61.189  64.992  0.00  0.00    +0.000 C 
ATOM     17  C   UNL     1      62.237  61.704  64.351  0.00  0.00    +0.000 C 
ATOM     18  O   UNL     1      62.513  61.425  63.625  0.00  0.00    +0.000 OA
ATOM     19  C   UNL     1      62.027  62.497  64.435  0.00  0.00    +0.000 C 
ATOM     20  C   UNL     1      61.751  62.776  65.160  0.00  0.00    +0.000 C 
ATOM     21  C   UNL     1      61.685  62.262  65.802  0.00  0.00    +0.000 C 
ATOM     22  C   UNL     1      61.475  63.055  65.886  0.00  0.00    +0.000 C 
ATOM     23  C   UNL     1      61.409  62.541  66.528  0.00  0.00    +0.000 C 
ATOM     24  F   UNL     1      61.298  63.321  66.283  0.00  0.00    +0.000 F 
ATOM     25  C   UNL     1      61.199  63.334  66.611  0.00  0.00    +0.000 C 
ATOM     26  O   UNL     1      61.265  63.848  65.970  0.00  0.00    +0.000 OA
ATOM     27  C   UNL     1      60.924  63.613  67.337  0.00  0.00    +0.000 C 
ATOM     28  C   UNL     1      60.858  63.098  67.979  0.00  0.00    +0.000 C 
ATOM     29  C   UNL     1      60.628  63.873  68.145  0.00  0.00    +0.000 C 
ATOM     30  C   UNL     1      60.330  63.494  69.482  0.00  0.00    +0.000 C 
ATOM     31  O   UNL     1      60.044  64.056  70.014  0.00  0.00    +0.000 OA
ATOM     32  C   UNL     1      60.264  62.979  70.124  0.00  0.00    +0.000 C 
ATOM     33  O   UNL     1      60.474  62.185  70.039  0.00  0.00    +0.000 OA
ATOM     34  C   UNL     1      60.409  61.671  70.681  0.00  0.00    +0.000 C 
ATOM     35  C   UNL     1      60.133  61.950  71.406  0.00  0.00    +0.000 C 
ATOM     36  O   UNL     1      60.619  60.877  70.597  0.00  0.00    +0.000 OA
ENDROOT
TORSDOF 0
ENDMDL
MODEL 5
REMARK VINA RESULT:   -13.541      3.237      5.239
REMARK INTER + INTRA:         -13.541
REMARK INTER:                 -13.541
REMARK INTRA:                   0.000
REMARK UNBOUND:                 0.000
ROOT
REMARK  Name = difluprednate
REMARK                            x       y       z     vdW  Elec       q    Type
REMARK                         _______ _______ _______ _____ _____    ______ ____
ATOM      1  C   UNL     1      59.131  67.179  71.065  0.00  0.00    +0.000 C 
ATOM      2  C   UNL     1      59.510  66.478  71.279  0.00  0.00    +0.000 C 
ATOM      3  C   UNL     1      59.662  65.900  70.710  0.00  0.00    +0.000 C 
ATOM      4  C   UNL     1      60.042  65.200  70.925  0.00  0.00    +0.000 C 
ATOM      5  O   UNL     1      60.270  65.078  71.708  0.00  0.00    +0.000 OA
ATOM      6  O   UNL     1      60.194  64.622  70.356  0.00  0.00    +0.000 OA
ATOM      7  C   UNL     1      60.574  63.923  70.571  0.00  0.00    +0.000 C 
ATOM      8  C   UNL     1      60.955  63.292  70.943  0.00  0.00    +0.000 C 
ATOM      9  C   UNL     1      61.107  62.714  70.374  0.00  0.00    +0.000 C 
ATOM     10  C   UNL     1      60.820  62.987  69.651  0.00  0.00    +0.000 C 
ATOM     11  C   UNL     1      60.817  62.652  68.897  0.00  0.00    +0.000 C 
ATOM     12  C   UNL     1      61.146  61.905  68.775  0.00  0.00    +0.000 C 
ATOM     13  C   UNL     1      61.142  61.571  68.021  0.00  0.00    +0.000 C 
ATOM     14  F   UNL     1      61.471  60.824  67.900  0.00  0.00    +0.000 F 
ATOM     15  C   UNL     1      60.809  61.983  67.389  0.00  0.00    +0.000 C 
ATOM     16  C   UNL     1      60.806  61.647  66.634  0.00  0.00    +0.000 C 
ATOM     17  C   UNL     1      60.473  62.060  66.003  0.00  0.00    +0.000 C 
ATOM     18  O   UNL     1      60.469  61.725  65.249  0.00  0.00    +0.000 OA
ATOM     19  C   UNL     1      60.143  62.806  66.124  0.00  0.00    +0.000 C 
ATOM     20  C   UNL     1      60.147  63.141  66.878  0.00  0.00    +0.000 C 
ATOM     21  C   UNL     1      60.480  62.730  67.510  0.00  0.00    +0.000 C 
ATOM     22  C   UNL     1      60.151  63.476  67.631  0.00  0.00    +0.000 C 
ATOM     23  C   UNL     1      60.484  63.064  68.264  0.00  0.00    +0.000 C 
ATOM     24  F   UNL     1      60.104  63.764  68.049  0.00  0.00    +0.000 F 
ATOM     25  C   UNL     1      60.154  63.811  68.385  0.00  0.00    +0.000 C 
ATOM     26  O   UNL     1      59.822  64.222  67.753  0.00  0.00    +0.000 OA
ATOM     27  C   UNL     1      60.158  64.145  69.139  0.00  0.00    +0.000 C 
ATOM     28  C   UNL     1      60.491  63.733  69.772  0.00  0.00    +0.000 C 
ATOM     29  C   UNL     1      60.184  64.472  69.976  0.00  0.00    +0.000 C 
ATOM     30  C   UNL     1      60.578  64.257  71.325  0.00  0.00    +0.000 C 
ATOM     31  O   UNL     1      60.426  64.835  71.894  0.00  0.00    +0.000 OA
ATOM     32  C   UNL     1      60.911  63.845  71.958  0.00  0.00    +0.000 C 
ATOM     33  O   UNL     1      61.240  63.098  71.836  0.00  0.00    +0.000 OA
ATOM     34  C   UNL     1      61.573  62.686  72.469  0.00  0.00    +0.000 C 
ATOM     35  C   UNL     1      61.576  63.022  73.222  0.00  0.00    +0.000 C 
ATOM     36  O   UNL     1      61.902  61.940  72.348  0.00  0.00    +0.000 OA
ENDROOT
TORSDOF 0
ENDMDL
