MODEL 1
REMARK VINA RESULT:   -19.959      0.000      0.000
REMARK INTER + INTRA:         -19.959
REMARK INTER:                 -19.959
REMARK INTRA:                   0.000
REMARK UNBOUND:                 0.000
ROOT
REMARK  Name = digoxin
REMARK                            x       y       z     vdW  Elec       q    Type
REMARK                         _______ _______ _______ _____ _____    ______ ____
ATOM      1  C   UNL     1      65.847  67.299  69.647  0.00  0.00    +0.000 C 
ATOM      2  C   UNL     1      65.186  66.877  69.902  0.00  0.00    +0.000 C 
ATOM      3  O   UNL     1      64.899  66.982  70.669  0.00  0.00    +0.000 OA
ATOM      4  C   UNL     1      64.238  66.559  70.923  0.00  0.00    +0.000 C 
ATOM      5  C   UNL     1      63.863  66.031  70.412  0.00  0.00    +0.000 C 
ATOM      6  C   UNL     1      64.150  65.926  69.646  0.00  0.00    +0.000 C 
ATOM      7  O   UNL     1      63.776  65.399  69.133  0.00  0.00    +0.000 OA
ATOM      8  C   UNL     1      64.811  66.349  69.391  0.00  0.00    +0.000 C 
ATOM      9  O   UNL     1      65.098  66.244  68.625  0.00  0.00    +0.000 OA
ATOM     10  O   UNL     1      63.952  66.665  71.690  0.00  0.00    +0.000 OA
ATOM     11  C   UNL     1      63.290  66.242  71.945  0.00  0.00    +0.000 C 
ATOM     12  C   UNL     1      63.003  66.347  72.711  0.00  0.00    +0.000 C 
ATOM     13  O   UNL     1      63.378  66.874  73.222  0.00  0.00    +0.000 OA
ATOM     14  C   UNL     1      62.342  65.924  72.966  0.00  0.00    +0.000 C 
ATOM     15  C   UNL     1      61.967  65.396  72.454  0.00  0.00    +0.000 C 
ATOM     16  O   UNL     1      61.307  64.974  72.708  0.00  0.00    +0.000 OA
ATOM     17  C   UNL     1      60.932  64.446  72.197  0.00  0.00    +0.000 C 
ATOM     18  C   UNL     1      60.271  64.023  72.451  0.00  0.00    +0.000 C 
ATOM     19  O   UNL     1      59.984  64.128  73.218  0.00  0.00    +0.000 OA
ATOM     20  C   UNL     1      59.896  63.496  71.940  0.00  0.00    +0.000 C 
ATOM     21  C   UNL     1      60.183  63.391  71.173  0.00  0.00    +0.000 C 
ATOM     22  O   UNL     1      59.809  62.863  70.661  0.00  0.00    +0.000 OA
ATOM     23  C   UNL     1      60.095  62.758  69.895  0.00  0.00    +0.000 C 
ATOM     24  C   UNL     1      59.721  62.230  69.383  0.00  0.00    +0.000 C 
ATOM     25  C   UNL     1      60.007  62.125  68.617  0.00  0.00    +0.000 C 
ATOM     26  C   UNL     1      60.668  62.548  68.362  0.00  0.00    +0.000 C 
ATOM     27  C   UNL     1      60.294  62.020  67.851  0.00  0.00    +0.000 C 
ATOM     28  C   UNL     1      61.043  63.075  68.874  0.00  0.00    +0.000 C 
ATOM     29  C   UNL     1      61.704  63.498  68.619  0.00  0.00    +0.000 C 
ATOM     30  C   UNL     1      61.991  63.393  67.853  0.00  0.00    +0.000 C 
ATOM     31  C   UNL     1      61.617  62.865  67.341  0.00  0.00    +0.000 C 
ATOM     32  C   UNL     1      60.955  62.443  67.596  0.00  0.00    +0.000 C 
ATOM     33  C   UNL     1      60.580  61.915  67.084  0.00  0.00    +0.000 C 
ATOM     34  C   UNL     1      60.868  61.810  66.317  0.00  0.00    +0.000 C 
ATOM     35  O   UNL     1      60.493  61.282  65.806  0.00  0.00    +0.000 OA
ATOM     36  C   UNL     1      61.529  62.233  66.063  0.00  0.00    +0.000 C 
ATOM     37  C   UNL     1      61.213  61.727  65.493  0.00  0.00    +0.000 C 
ATOM     38  C   UNL     1      61.933  62.243  65.344  0.00  0.00    +0.000 C 
ATOM     39  C   UNL     1      62.558  62.779  65.412  0.00  0.00    +0.000 C 
ATOM     40  C   UNL     1      62.540  63.098  66.172  0.00  0.00    +0.000 C 
ATOM     41  C   UNL     1      61.903  62.761  66.575  0.00  0.00    +0.000 C 
ATOM     42  O   UNL     1      62.333  63.304  67.023  0.00  0.00    +0.000 OA
ATOM     43  C   UNL     1      61.746  61.799  64.676  0.00  0.00    +0.000 C 
ATOM     44  C   UNL     1      61.122  61.264  64.608  0.00  0.00    +0.000 C 
ATOM     45  C   UNL     1      61.141  60.945  63.847  0.00  0.00    +0.000 C 
ATOM     46  O   UNL     1      60.615  60.386  63.542  0.00  0.00    +0.000 OA
ATOM     47  O   UNL     1      61.776  61.282  63.445  0.00  0.00    +0.000 OA
ATOM     48  C   UNL     1      62.151  61.810  63.956  0.00  0.00    +0.000 C 
ATOM     49  C   UNL     1      60.756  63.180  69.640  0.00  0.00    +0.000 C 
ATOM     50  O   UNL     1      60.844  63.814  70.919  0.00  0.00    +0.000 OA
ATOM     51  C   UNL     1      61.218  64.341  71.430  0.00  0.00    +0.000 C 
ATOM     52  C   UNL     1      61.880  64.763  71.175  0.00  0.00    +0.000 C 
ATOM     53  O   UNL     1      62.255  65.291  71.687  0.00  0.00    +0.000 OA
ATOM     54  C   UNL     1      62.916  65.714  71.433  0.00  0.00    +0.000 C 
ATOM     55  C   UNL     1      63.202  65.609  70.667  0.00  0.00    +0.000 C 
ENDROOT
TORSDOF 0
ENDMDL
