MODEL 1
REMARK VINA RESULT:   -15.619      0.000      0.000
REMARK INTER + INTRA:         -15.619
REMARK INTER:                 -15.619
REMARK INTRA:                   0.000
REMARK UNBOUND:                 0.000
ROOT
REMARK  Name = dihydroemetine
REMARK                            x       y       z     vdW  Elec       q    Type
REMARK                         _______ _______ _______ _____ _____    ______ ____
ATOM      1  C   UNL     1      59.963  63.515  70.345  0.00  0.00    +0.000 C 
ATOM      2  C   UNL     1      60.678  63.636  69.951  0.00  0.00    +0.000 C 
ATOM      3  C   UNL     1      60.772  63.367  69.176  0.00  0.00    +0.000 C 
ATOM      4  C   UNL     1      61.486  63.488  68.782  0.00  0.00    +0.000 C 
ATOM      5  C   UNL     1      62.106  63.876  69.162  0.00  0.00    +0.000 C 
ATOM      6  C   UNL     1      62.012  64.145  69.937  0.00  0.00    +0.000 C 
ATOM      7  N   UNL     1      61.298  64.024  70.331  0.00  0.00    +0.000 NA
ATOM      8  C   UNL     1      61.204  64.293  71.105  0.00  0.00    +0.000 C 
ATOM      9  C   UNL     1      61.824  64.681  71.485  0.00  0.00    +0.000 C 
ATOM     10  C   UNL     1      62.539  64.802  71.091  0.00  0.00    +0.000 A 
ATOM     11  C   UNL     1      63.159  65.191  71.471  0.00  0.00    +0.000 A 
ATOM     12  C   UNL     1      63.874  65.312  71.077  0.00  0.00    +0.000 A 
ATOM     13  O   UNL     1      64.494  65.700  71.456  0.00  0.00    +0.000 OA
ATOM     14  C   UNL     1      65.209  65.821  71.062  0.00  0.00    +0.000 C 
ATOM     15  C   UNL     1      63.968  65.043  70.302  0.00  0.00    +0.000 A 
ATOM     16  O   UNL     1      64.682  65.164  69.908  0.00  0.00    +0.000 OA
ATOM     17  C   UNL     1      64.776  64.895  69.133  0.00  0.00    +0.000 C 
ATOM     18  C   UNL     1      63.347  64.654  69.923  0.00  0.00    +0.000 A 
ATOM     19  C   UNL     1      62.633  64.534  70.317  0.00  0.00    +0.000 A 
ATOM     20  C   UNL     1      61.580  63.219  68.008  0.00  0.00    +0.000 C 
ATOM     21  C   UNL     1      60.960  62.831  67.628  0.00  0.00    +0.000 C 
ATOM     22  N   UNL     1      60.245  62.710  68.022  0.00  0.00    +0.000 NA
ATOM     23  C   UNL     1      59.625  62.321  67.642  0.00  0.00    +0.000 C 
ATOM     24  C   UNL     1      59.719  62.053  66.868  0.00  0.00    +0.000 C 
ATOM     25  C   UNL     1      60.434  62.173  66.473  0.00  0.00    +0.000 A 
ATOM     26  C   UNL     1      61.054  62.562  66.854  0.00  0.00    +0.000 A 
ATOM     27  C   UNL     1      61.769  62.683  66.459  0.00  0.00    +0.000 A 
ATOM     28  C   UNL     1      61.863  62.414  65.684  0.00  0.00    +0.000 A 
ATOM     29  O   UNL     1      62.577  62.534  65.289  0.00  0.00    +0.000 OA
ATOM     30  C   UNL     1      62.671  62.266  64.516  0.00  0.00    +0.000 C 
ATOM     31  C   UNL     1      61.243  62.025  65.304  0.00  0.00    +0.000 A 
ATOM     32  O   UNL     1      61.337  61.757  64.530  0.00  0.00    +0.000 OA
ATOM     33  C   UNL     1      62.051  61.878  64.135  0.00  0.00    +0.000 C 
ATOM     34  C   UNL     1      60.528  61.905  65.699  0.00  0.00    +0.000 A 
ATOM     35  C   UNL     1      60.151  62.978  68.796  0.00  0.00    +0.000 C 
ENDROOT
TORSDOF 0
ENDMDL
MODEL 2
REMARK VINA RESULT:   -15.066      1.088      1.788
REMARK INTER + INTRA:         -15.066
REMARK INTER:                 -15.066
REMARK INTRA:                   0.000
REMARK UNBOUND:                 0.000
ROOT
REMARK  Name = dihydroemetine
REMARK                            x       y       z     vdW  Elec       q    Type
REMARK                         _______ _______ _______ _____ _____    ______ ____
ATOM      1  C   UNL     1      61.110  63.942  72.231  0.00  0.00    +0.000 C 
ATOM      2  C   UNL     1      61.586  64.194  71.606  0.00  0.00    +0.000 C 
ATOM      3  C   UNL     1      61.493  63.860  70.856  0.00  0.00    +0.000 C 
ATOM      4  C   UNL     1      61.968  64.111  70.231  0.00  0.00    +0.000 C 
ATOM      5  C   UNL     1      62.536  64.696  70.353  0.00  0.00    +0.000 C 
ATOM      6  C   UNL     1      62.629  65.030  71.103  0.00  0.00    +0.000 C 
ATOM      7  N   UNL     1      62.154  64.779  71.728  0.00  0.00    +0.000 NA
ATOM      8  C   UNL     1      62.247  65.113  72.477  0.00  0.00    +0.000 C 
ATOM      9  C   UNL     1      62.815  65.697  72.599  0.00  0.00    +0.000 C 
ATOM     10  C   UNL     1      63.291  65.949  71.974  0.00  0.00    +0.000 A 
ATOM     11  C   UNL     1      63.859  66.534  72.096  0.00  0.00    +0.000 A 
ATOM     12  C   UNL     1      64.335  66.786  71.471  0.00  0.00    +0.000 A 
ATOM     13  O   UNL     1      64.903  67.370  71.594  0.00  0.00    +0.000 OA
ATOM     14  C   UNL     1      65.378  67.622  70.968  0.00  0.00    +0.000 C 
ATOM     15  C   UNL     1      64.242  66.452  70.722  0.00  0.00    +0.000 A 
ATOM     16  O   UNL     1      64.717  66.703  70.097  0.00  0.00    +0.000 OA
ATOM     17  C   UNL     1      64.623  66.369  69.348  0.00  0.00    +0.000 C 
ATOM     18  C   UNL     1      63.673  65.867  70.600  0.00  0.00    +0.000 A 
ATOM     19  C   UNL     1      63.198  65.615  71.225  0.00  0.00    +0.000 A 
ATOM     20  C   UNL     1      61.875  63.777  69.482  0.00  0.00    +0.000 C 
ATOM     21  C   UNL     1      61.307  63.193  69.360  0.00  0.00    +0.000 C 
ATOM     22  N   UNL     1      60.831  62.941  69.985  0.00  0.00    +0.000 NA
ATOM     23  C   UNL     1      60.263  62.356  69.862  0.00  0.00    +0.000 C 
ATOM     24  C   UNL     1      60.170  62.022  69.114  0.00  0.00    +0.000 C 
ATOM     25  C   UNL     1      60.645  62.273  68.488  0.00  0.00    +0.000 A 
ATOM     26  C   UNL     1      61.213  62.859  68.611  0.00  0.00    +0.000 A 
ATOM     27  C   UNL     1      61.688  63.109  67.985  0.00  0.00    +0.000 A 
ATOM     28  C   UNL     1      61.595  62.776  67.236  0.00  0.00    +0.000 A 
ATOM     29  O   UNL     1      62.070  63.026  66.610  0.00  0.00    +0.000 OA
ATOM     30  C   UNL     1      61.977  62.693  65.862  0.00  0.00    +0.000 C 
ATOM     31  C   UNL     1      61.027  62.191  67.113  0.00  0.00    +0.000 A 
ATOM     32  O   UNL     1      60.934  61.857  66.365  0.00  0.00    +0.000 OA
ATOM     33  C   UNL     1      61.409  62.108  65.739  0.00  0.00    +0.000 C 
ATOM     34  C   UNL     1      60.551  61.939  67.739  0.00  0.00    +0.000 A 
ATOM     35  C   UNL     1      60.924  63.275  70.734  0.00  0.00    +0.000 C 
ENDROOT
TORSDOF 0
ENDMDL
MODEL 3
REMARK VINA RESULT:   -14.087      3.205      4.573
REMARK INTER + INTRA:         -14.087
REMARK INTER:                 -14.087
REMARK INTRA:                   0.000
REMARK UNBOUND:                 0.000
ROOT
REMARK  Name = dihydroemetine
REMARK                            x       y       z     vdW  Elec       q    Type
REMARK                         _______ _______ _______ _____ _____    ______ ____
ATOM      1  C   UNL     1      61.509  67.541  73.216  0.00  0.00    +0.000 C 
ATOM      2  C   UNL     1      61.958  67.062  72.716  0.00  0.00    +0.000 C 
ATOM      3  C   UNL     1      61.658  66.335  72.462  0.00  0.00    +0.000 C 
ATOM      4  C   UNL     1      62.107  65.857  71.963  0.00  0.00    +0.000 C 
ATOM      5  C   UNL     1      62.854  66.103  71.717  0.00  0.00    +0.000 C 
ATOM      6  C   UNL     1      63.154  66.830  71.971  0.00  0.00    +0.000 C 
ATOM      7  N   UNL     1      62.705  67.308  72.470  0.00  0.00    +0.000 NA
ATOM      8  C   UNL     1      63.004  68.034  72.724  0.00  0.00    +0.000 C 
ATOM      9  C   UNL     1      63.751  68.280  72.478  0.00  0.00    +0.000 C 
ATOM     10  C   UNL     1      64.201  67.801  71.978  0.00  0.00    +0.000 A 
ATOM     11  C   UNL     1      64.948  68.048  71.732  0.00  0.00    +0.000 A 
ATOM     12  C   UNL     1      65.397  67.569  71.232  0.00  0.00    +0.000 A 
ATOM     13  O   UNL     1      66.145  67.815  70.986  0.00  0.00    +0.000 OA
ATOM     14  C   UNL     1      66.594  67.337  70.486  0.00  0.00    +0.000 C 
ATOM     15  C   UNL     1      65.098  66.843  70.978  0.00  0.00    +0.000 A 
ATOM     16  O   UNL     1      65.547  66.365  70.479  0.00  0.00    +0.000 OA
ATOM     17  C   UNL     1      65.247  65.638  70.225  0.00  0.00    +0.000 C 
ATOM     18  C   UNL     1      64.350  66.597  71.225  0.00  0.00    +0.000 A 
ATOM     19  C   UNL     1      63.902  67.076  71.724  0.00  0.00    +0.000 A 
ATOM     20  C   UNL     1      61.808  65.131  71.709  0.00  0.00    +0.000 C 
ATOM     21  C   UNL     1      61.060  64.884  71.955  0.00  0.00    +0.000 C 
ATOM     22  N   UNL     1      60.611  65.363  72.455  0.00  0.00    +0.000 NA
ATOM     23  C   UNL     1      59.864  65.117  72.701  0.00  0.00    +0.000 C 
ATOM     24  C   UNL     1      59.565  64.391  72.447  0.00  0.00    +0.000 C 
ATOM     25  C   UNL     1      60.013  63.912  71.947  0.00  0.00    +0.000 A 
ATOM     26  C   UNL     1      60.761  64.159  71.701  0.00  0.00    +0.000 A 
ATOM     27  C   UNL     1      61.209  63.679  71.201  0.00  0.00    +0.000 A 
ATOM     28  C   UNL     1      60.910  62.953  70.948  0.00  0.00    +0.000 A 
ATOM     29  O   UNL     1      61.358  62.474  70.448  0.00  0.00    +0.000 OA
ATOM     30  C   UNL     1      61.060  61.749  70.195  0.00  0.00    +0.000 C 
ATOM     31  C   UNL     1      60.163  62.706  71.193  0.00  0.00    +0.000 A 
ATOM     32  O   UNL     1      59.864  61.981  70.940  0.00  0.00    +0.000 OA
ATOM     33  C   UNL     1      60.312  61.502  70.440  0.00  0.00    +0.000 C 
ATOM     34  C   UNL     1      59.714  63.186  71.694  0.00  0.00    +0.000 A 
ATOM     35  C   UNL     1      60.910  66.089  72.708  0.00  0.00    +0.000 C 
ENDROOT
TORSDOF 0
ENDMDL
