MODEL 1
REMARK VINA RESULT:    -3.816      0.000      0.000
REMARK INTER + INTRA:          -3.816
REMARK INTER:                  -3.816
REMARK INTRA:                   0.000
REMARK UNBOUND:                 0.000
ROOT
REMARK  Name = diiodohydroxypropane
REMARK                            x       y       z     vdW  Elec       q    Type
REMARK                         _______ _______ _______ _____ _____    ______ ____
ATOM      1  O   UNL     1      61.341  63.072  65.945  0.00  0.00    +0.000 OA
ATOM      2  C   UNL     1      61.487  62.321  66.253  0.00  0.00    +0.000 C 
ATOM      3  C   UNL     1      61.252  62.137  67.021  0.00  0.00    +0.000 C 
ATOM      4  I   UNL     1      60.871  62.704  67.483  0.00  0.00    +0.000 I 
ATOM      5  C   UNL     1      61.869  61.753  65.791  0.00  0.00    +0.000 C 
ATOM      6  I   UNL     1      62.104  61.938  65.021  0.00  0.00    +0.000 I 
ENDROOT
TORSDOF 0
ENDMDL
MODEL 2
REMARK VINA RESULT:    -3.790      0.639      1.952
REMARK INTER + INTRA:          -3.790
REMARK INTER:                  -3.790
REMARK INTRA:                   0.000
REMARK UNBOUND:                 0.000
ROOT
REMARK  Name = diiodohydroxypropane
REMARK                            x       y       z     vdW  Elec       q    Type
REMARK                         _______ _______ _______ _____ _____    ______ ____
ATOM      1  O   UNL     1      60.740  61.973  65.949  0.00  0.00    +0.000 OA
ATOM      2  C   UNL     1      61.428  62.360  66.186  0.00  0.00    +0.000 C 
ATOM      3  C   UNL     1      62.091  62.361  65.697  0.00  0.00    +0.000 C 
ATOM      4  I   UNL     1      62.067  61.975  64.968  0.00  0.00    +0.000 I 
ATOM      5  C   UNL     1      61.453  62.747  66.916  0.00  0.00    +0.000 C 
ATOM      6  I   UNL     1      60.790  62.746  67.406  0.00  0.00    +0.000 I 
ENDROOT
TORSDOF 0
ENDMDL
MODEL 3
REMARK VINA RESULT:    -3.467      2.675      3.624
REMARK INTER + INTRA:          -3.467
REMARK INTER:                  -3.467
REMARK INTRA:                   0.000
REMARK UNBOUND:                 0.000
ROOT
REMARK  Name = diiodohydroxypropane
REMARK                            x       y       z     vdW  Elec       q    Type
REMARK                         _______ _______ _______ _____ _____    ______ ____
ATOM      1  O   UNL     1      60.798  63.162  69.375  0.00  0.00    +0.000 OA
ATOM      2  C   UNL     1      60.570  62.374  69.283  0.00  0.00    +0.000 C 
ATOM      3  C   UNL     1      60.398  62.079  68.534  0.00  0.00    +0.000 C 
ATOM      4  I   UNL     1      60.454  62.570  67.874  0.00  0.00    +0.000 I 
ATOM      5  C   UNL     1      60.515  61.882  69.944  0.00  0.00    +0.000 C 
ATOM      6  I   UNL     1      60.687  62.177  70.695  0.00  0.00    +0.000 I 
ENDROOT
TORSDOF 0
ENDMDL
MODEL 4
REMARK VINA RESULT:    -3.429      2.754      3.338
REMARK INTER + INTRA:          -3.429
REMARK INTER:                  -3.429
REMARK INTRA:                   0.000
REMARK UNBOUND:                 0.000
ROOT
REMARK  Name = diiodohydroxypropane
REMARK                            x       y       z     vdW  Elec       q    Type
REMARK                         _______ _______ _______ _____ _____    ______ ____
ATOM      1  O   UNL     1      60.564  63.190  69.464  0.00  0.00    +0.000 OA
ATOM      2  C   UNL     1      60.559  62.368  69.398  0.00  0.00    +0.000 C 
ATOM      3  C   UNL     1      60.614  61.899  70.073  0.00  0.00    +0.000 C 
ATOM      4  I   UNL     1      60.675  62.251  70.817  0.00  0.00    +0.000 I 
ATOM      5  C   UNL     1      60.498  62.015  68.654  0.00  0.00    +0.000 C 
ATOM      6  I   UNL     1      60.442  62.484  67.978  0.00  0.00    +0.000 I 
ENDROOT
TORSDOF 0
ENDMDL
MODEL 5
REMARK VINA RESULT:    -3.337     15.221     15.344
REMARK INTER + INTRA:          -3.337
REMARK INTER:                  -3.337
REMARK INTRA:                   0.000
REMARK UNBOUND:                 0.000
ROOT
REMARK  Name = diiodohydroxypropane
REMARK                            x       y       z     vdW  Elec       q    Type
REMARK                         _______ _______ _______ _____ _____    ______ ____
ATOM      1  O   UNL     1      58.490  76.210  70.731  0.00  0.00    +0.000 OA
ATOM      2  C   UNL     1      57.741  76.367  71.039  0.00  0.00    +0.000 C 
ATOM      3  C   UNL     1      57.564  76.164  71.818  0.00  0.00    +0.000 C 
ATOM      4  I   UNL     1      58.136  75.805  72.291  0.00  0.00    +0.000 I 
ATOM      5  C   UNL     1      57.168  76.726  70.566  0.00  0.00    +0.000 C 
ATOM      6  I   UNL     1      57.345  76.929  69.786  0.00  0.00    +0.000 I 
ENDROOT
TORSDOF 0
ENDMDL
MODEL 6
REMARK VINA RESULT:    -3.309      6.406      6.779
REMARK INTER + INTRA:          -3.309
REMARK INTER:                  -3.309
REMARK INTRA:                   0.000
REMARK UNBOUND:                 0.000
ROOT
REMARK  Name = diiodohydroxypropane
REMARK                            x       y       z     vdW  Elec       q    Type
REMARK                         _______ _______ _______ _____ _____    ______ ____
ATOM      1  O   UNL     1      65.010  65.836  71.066  0.00  0.00    +0.000 OA
ATOM      2  C   UNL     1      65.017  66.127  70.294  0.00  0.00    +0.000 C 
ATOM      3  C   UNL     1      64.627  65.718  69.695  0.00  0.00    +0.000 C 
ATOM      4  I   UNL     1      64.228  65.017  69.866  0.00  0.00    +0.000 I 
ATOM      5  C   UNL     1      65.416  66.829  70.123  0.00  0.00    +0.000 C 
ATOM      6  I   UNL     1      65.808  67.239  70.722  0.00  0.00    +0.000 I 
ENDROOT
TORSDOF 0
ENDMDL
MODEL 7
REMARK VINA RESULT:    -3.274      6.383      6.730
REMARK INTER + INTRA:          -3.274
REMARK INTER:                  -3.274
REMARK INTRA:                   0.000
REMARK UNBOUND:                 0.000
ROOT
REMARK  Name = diiodohydroxypropane
REMARK                            x       y       z     vdW  Elec       q    Type
REMARK                         _______ _______ _______ _____ _____    ______ ____
ATOM      1  O   UNL     1      65.130  66.343  69.594  0.00  0.00    +0.000 OA
ATOM      2  C   UNL     1      65.014  66.116  70.378  0.00  0.00    +0.000 C 
ATOM      3  C   UNL     1      65.346  66.558  70.989  0.00  0.00    +0.000 C 
ATOM      4  I   UNL     1      65.795  67.228  70.818  0.00  0.00    +0.000 I 
ATOM      5  C   UNL     1      64.564  65.445  70.551  0.00  0.00    +0.000 C 
ATOM      6  I   UNL     1      64.232  65.003  69.939  0.00  0.00    +0.000 I 
ENDROOT
TORSDOF 0
ENDMDL
MODEL 8
REMARK VINA RESULT:    -3.075     12.833     12.929
REMARK INTER + INTRA:          -3.075
REMARK INTER:                  -3.075
REMARK INTRA:                   0.000
REMARK UNBOUND:                 0.000
ROOT
REMARK  Name = diiodohydroxypropane
REMARK                            x       y       z     vdW  Elec       q    Type
REMARK                         _______ _______ _______ _____ _____    ______ ____
ATOM      1  O   UNL     1      64.282  60.488  53.027  0.00  0.00    +0.000 OA
ATOM      2  C   UNL     1      63.877  60.631  53.732  0.00  0.00    +0.000 C 
ATOM      3  C   UNL     1      63.905  61.377  54.080  0.00  0.00    +0.000 C 
ATOM      4  I   UNL     1      64.338  61.983  53.725  0.00  0.00    +0.000 I 
ATOM      5  C   UNL     1      63.444  60.025  54.087  0.00  0.00    +0.000 C 
ATOM      6  I   UNL     1      63.416  59.278  53.739  0.00  0.00    +0.000 I 
ENDROOT
TORSDOF 0
ENDMDL
MODEL 9
REMARK VINA RESULT:    -2.955     15.839     16.354
REMARK INTER + INTRA:          -2.955
REMARK INTER:                  -2.955
REMARK INTRA:                   0.000
REMARK UNBOUND:                 0.000
ROOT
REMARK  Name = diiodohydroxypropane
REMARK                            x       y       z     vdW  Elec       q    Type
REMARK                         _______ _______ _______ _____ _____    ______ ____
ATOM      1  O   UNL     1      58.257  76.995  73.222  0.00  0.00    +0.000 OA
ATOM      2  C   UNL     1      58.858  77.039  72.659  0.00  0.00    +0.000 C 
ATOM      3  C   UNL     1      58.941  76.442  72.097  0.00  0.00    +0.000 C 
ATOM      4  I   UNL     1      58.422  75.800  72.097  0.00  0.00    +0.000 I 
ATOM      5  C   UNL     1      59.377  77.681  72.659  0.00  0.00    +0.000 C 
ATOM      6  I   UNL     1      59.294  78.278  73.222  0.00  0.00    +0.000 I 
ENDROOT
TORSDOF 0
ENDMDL
