MODEL 1
REMARK VINA RESULT:   -12.314      0.000      0.000
REMARK INTER + INTRA:         -12.314
REMARK INTER:                 -12.314
REMARK INTRA:                   0.000
REMARK UNBOUND:                 0.000
ROOT
REMARK  Name = dilazep
REMARK                            x       y       z     vdW  Elec       q    Type
REMARK                         _______ _______ _______ _____ _____    ______ ____
ATOM      1  C   UNL     1      64.250  59.287  53.131  0.00  0.00    +0.000 C 
ATOM      2  O   UNL     1      63.885  60.023  53.055  0.00  0.00    +0.000 OA
ATOM      3  C   UNL     1      63.391  60.173  52.411  0.00  0.00    +0.000 A 
ATOM      4  C   UNL     1      63.026  60.909  52.335  0.00  0.00    +0.000 A 
ATOM      5  C   UNL     1      62.533  61.060  51.692  0.00  0.00    +0.000 A 
ATOM      6  C   UNL     1      62.405  60.475  51.124  0.00  0.00    +0.000 A 
ATOM      7  C   UNL     1      62.770  59.740  51.200  0.00  0.00    +0.000 A 
ATOM      8  O   UNL     1      62.642  59.155  50.632  0.00  0.00    +0.000 OA
ATOM      9  C   UNL     1      63.008  58.419  50.708  0.00  0.00    +0.000 C 
ATOM     10  C   UNL     1      63.264  59.589  51.844  0.00  0.00    +0.000 A 
ATOM     11  O   UNL     1      63.629  58.853  51.920  0.00  0.00    +0.000 OA
ATOM     12  C   UNL     1      63.501  58.268  51.352  0.00  0.00    +0.000 C 
ATOM     13  C   UNL     1      62.167  61.796  51.615  0.00  0.00    +0.000 C 
ATOM     14  O   UNL     1      61.673  61.947  50.971  0.00  0.00    +0.000 OA
ATOM     15  O   UNL     1      62.295  62.381  52.182  0.00  0.00    +0.000 OA
ATOM     16  C   UNL     1      61.930  63.116  52.107  0.00  0.00    +0.000 C 
ATOM     17  C   UNL     1      62.057  63.701  52.674  0.00  0.00    +0.000 C 
ATOM     18  C   UNL     1      61.692  64.437  52.598  0.00  0.00    +0.000 C 
ATOM     19  N   UNL     1      61.820  65.022  53.165  0.00  0.00    +0.000 NA
ATOM     20  C   UNL     1      62.322  64.815  53.786  0.00  0.00    +0.000 C 
ATOM     21  C   UNL     1      62.557  65.271  54.432  0.00  0.00    +0.000 C 
ATOM     22  C   UNL     1      62.348  66.048  54.617  0.00  0.00    +0.000 C 
ATOM     23  N   UNL     1      61.852  66.559  54.201  0.00  0.00    +0.000 NA
ATOM     24  C   UNL     1      61.752  67.308  54.532  0.00  0.00    +0.000 C 
ATOM     25  C   UNL     1      61.267  67.862  54.160  0.00  0.00    +0.000 C 
ATOM     26  C   UNL     1      61.167  68.612  54.491  0.00  0.00    +0.000 C 
ATOM     27  O   UNL     1      60.682  69.165  54.119  0.00  0.00    +0.000 OA
ATOM     28  C   UNL     1      60.582  69.915  54.450  0.00  0.00    +0.000 C 
ATOM     29  O   UNL     1      60.967  70.110  55.153  0.00  0.00    +0.000 OA
ATOM     30  C   UNL     1      60.097  70.468  54.078  0.00  0.00    +0.000 A 
ATOM     31  C   UNL     1      59.998  71.217  54.409  0.00  0.00    +0.000 A 
ATOM     32  C   UNL     1      59.512  71.772  54.037  0.00  0.00    +0.000 A 
ATOM     33  O   UNL     1      59.413  72.520  54.368  0.00  0.00    +0.000 OA
ATOM     34  C   UNL     1      58.928  73.075  53.996  0.00  0.00    +0.000 C 
ATOM     35  C   UNL     1      59.127  71.577  53.334  0.00  0.00    +0.000 A 
ATOM     36  O   UNL     1      58.643  72.130  52.962  0.00  0.00    +0.000 OA
ATOM     37  C   UNL     1      58.543  72.880  53.293  0.00  0.00    +0.000 C 
ATOM     38  C   UNL     1      59.228  70.827  53.003  0.00  0.00    +0.000 A 
ATOM     39  O   UNL     1      58.843  70.632  52.300  0.00  0.00    +0.000 OA
ATOM     40  C   UNL     1      58.942  69.884  51.968  0.00  0.00    +0.000 C 
ATOM     41  C   UNL     1      59.712  70.273  53.375  0.00  0.00    +0.000 A 
ATOM     42  C   UNL     1      61.443  66.421  53.499  0.00  0.00    +0.000 C 
ATOM     43  C   UNL     1      61.428  65.737  53.037  0.00  0.00    +0.000 C 
ENDROOT
TORSDOF 0
ENDMDL
MODEL 2
REMARK VINA RESULT:   -12.138      1.378      2.330
REMARK INTER + INTRA:         -12.138
REMARK INTER:                 -12.138
REMARK INTRA:                   0.000
REMARK UNBOUND:                 0.000
ROOT
REMARK  Name = dilazep
REMARK                            x       y       z     vdW  Elec       q    Type
REMARK                         _______ _______ _______ _____ _____    ______ ____
ATOM      1  C   UNL     1      63.874  60.377  51.250  0.00  0.00    +0.000 C 
ATOM      2  O   UNL     1      63.560  61.092  51.513  0.00  0.00    +0.000 OA
ATOM      3  C   UNL     1      63.405  61.203  52.316  0.00  0.00    +0.000 A 
ATOM      4  C   UNL     1      63.090  61.919  52.580  0.00  0.00    +0.000 A 
ATOM      5  C   UNL     1      62.936  62.031  53.382  0.00  0.00    +0.000 A 
ATOM      6  C   UNL     1      63.096  61.426  53.921  0.00  0.00    +0.000 A 
ATOM      7  C   UNL     1      63.411  60.711  53.658  0.00  0.00    +0.000 A 
ATOM      8  O   UNL     1      63.572  60.107  54.196  0.00  0.00    +0.000 OA
ATOM      9  C   UNL     1      63.887  59.392  53.932  0.00  0.00    +0.000 C 
ATOM     10  C   UNL     1      63.565  60.600  52.855  0.00  0.00    +0.000 A 
ATOM     11  O   UNL     1      63.880  59.884  52.591  0.00  0.00    +0.000 OA
ATOM     12  C   UNL     1      64.041  59.280  53.129  0.00  0.00    +0.000 C 
ATOM     13  C   UNL     1      62.621  62.746  53.647  0.00  0.00    +0.000 C 
ATOM     14  O   UNL     1      62.466  62.857  54.450  0.00  0.00    +0.000 OA
ATOM     15  O   UNL     1      62.460  63.350  53.109  0.00  0.00    +0.000 OA
ATOM     16  C   UNL     1      62.146  64.065  53.372  0.00  0.00    +0.000 C 
ATOM     17  C   UNL     1      61.985  64.669  52.834  0.00  0.00    +0.000 C 
ATOM     18  C   UNL     1      61.670  65.385  53.098  0.00  0.00    +0.000 C 
ATOM     19  N   UNL     1      61.510  65.988  52.559  0.00  0.00    +0.000 NA
ATOM     20  C   UNL     1      61.684  65.820  51.770  0.00  0.00    +0.000 C 
ATOM     21  C   UNL     1      61.588  66.303  51.108  0.00  0.00    +0.000 C 
ATOM     22  C   UNL     1      61.293  67.073  51.071  0.00  0.00    +0.000 C 
ATOM     23  N   UNL     1      61.023  67.550  51.687  0.00  0.00    +0.000 NA
ATOM     24  C   UNL     1      60.760  68.301  51.469  0.00  0.00    +0.000 C 
ATOM     25  C   UNL     1      60.478  68.822  52.043  0.00  0.00    +0.000 C 
ATOM     26  C   UNL     1      60.216  69.574  51.825  0.00  0.00    +0.000 C 
ATOM     27  O   UNL     1      59.934  70.094  52.399  0.00  0.00    +0.000 OA
ATOM     28  C   UNL     1      59.672  70.846  52.180  0.00  0.00    +0.000 C 
ATOM     29  O   UNL     1      59.691  71.076  51.388  0.00  0.00    +0.000 OA
ATOM     30  C   UNL     1      59.390  71.367  52.755  0.00  0.00    +0.000 A 
ATOM     31  C   UNL     1      59.128  72.118  52.536  0.00  0.00    +0.000 A 
ATOM     32  C   UNL     1      58.845  72.639  53.111  0.00  0.00    +0.000 A 
ATOM     33  O   UNL     1      58.583  73.390  52.892  0.00  0.00    +0.000 OA
ATOM     34  C   UNL     1      58.301  73.912  53.467  0.00  0.00    +0.000 C 
ATOM     35  C   UNL     1      58.825  72.409  53.903  0.00  0.00    +0.000 A 
ATOM     36  O   UNL     1      58.543  72.930  54.476  0.00  0.00    +0.000 OA
ATOM     37  C   UNL     1      58.281  73.682  54.259  0.00  0.00    +0.000 C 
ATOM     38  C   UNL     1      59.088  71.658  54.120  0.00  0.00    +0.000 A 
ATOM     39  O   UNL     1      59.068  71.428  54.912  0.00  0.00    +0.000 OA
ATOM     40  C   UNL     1      59.330  70.677  55.131  0.00  0.00    +0.000 C 
ATOM     41  C   UNL     1      59.370  71.137  53.547  0.00  0.00    +0.000 A 
ATOM     42  C   UNL     1      60.979  67.376  52.492  0.00  0.00    +0.000 C 
ATOM     43  C   UNL     1      61.196  66.680  52.881  0.00  0.00    +0.000 C 
ENDROOT
TORSDOF 0
ENDMDL
MODEL 3
REMARK VINA RESULT:   -11.999      0.978     10.111
REMARK INTER + INTRA:         -11.999
REMARK INTER:                 -11.999
REMARK INTRA:                   0.000
REMARK UNBOUND:                 0.000
ROOT
REMARK  Name = dilazep
REMARK                            x       y       z     vdW  Elec       q    Type
REMARK                         _______ _______ _______ _____ _____    ______ ____
ATOM      1  C   UNL     1      59.747  71.838  54.874  0.00  0.00    +0.000 C 
ATOM      2  O   UNL     1      59.922  71.093  54.567  0.00  0.00    +0.000 OA
ATOM      3  C   UNL     1      59.776  70.930  53.771  0.00  0.00    +0.000 A 
ATOM      4  C   UNL     1      59.951  70.184  53.464  0.00  0.00    +0.000 A 
ATOM      5  C   UNL     1      59.806  70.022  52.668  0.00  0.00    +0.000 A 
ATOM      6  C   UNL     1      59.486  70.605  52.180  0.00  0.00    +0.000 A 
ATOM      7  C   UNL     1      59.311  71.350  52.486  0.00  0.00    +0.000 A 
ATOM      8  O   UNL     1      58.992  71.933  51.999  0.00  0.00    +0.000 OA
ATOM      9  C   UNL     1      58.817  72.679  52.306  0.00  0.00    +0.000 C 
ATOM     10  C   UNL     1      59.457  71.512  53.283  0.00  0.00    +0.000 A 
ATOM     11  O   UNL     1      59.282  72.258  53.590  0.00  0.00    +0.000 OA
ATOM     12  C   UNL     1      58.962  72.841  53.102  0.00  0.00    +0.000 C 
ATOM     13  C   UNL     1      59.981  69.276  52.361  0.00  0.00    +0.000 C 
ATOM     14  O   UNL     1      59.836  69.114  51.564  0.00  0.00    +0.000 OA
ATOM     15  O   UNL     1      60.301  68.693  52.848  0.00  0.00    +0.000 OA
ATOM     16  C   UNL     1      60.476  67.948  52.542  0.00  0.00    +0.000 C 
ATOM     17  C   UNL     1      60.796  67.365  53.030  0.00  0.00    +0.000 C 
ATOM     18  C   UNL     1      60.971  66.620  52.723  0.00  0.00    +0.000 C 
ATOM     19  N   UNL     1      61.290  66.038  53.211  0.00  0.00    +0.000 NA
ATOM     20  C   UNL     1      61.414  66.256  53.997  0.00  0.00    +0.000 C 
ATOM     21  C   UNL     1      61.722  65.805  54.615  0.00  0.00    +0.000 C 
ATOM     22  C   UNL     1      61.983  65.022  54.599  0.00  0.00    +0.000 C 
ATOM     23  N   UNL     1      62.000  64.498  53.962  0.00  0.00    +0.000 NA
ATOM     24  C   UNL     1      62.296  63.745  54.126  0.00  0.00    +0.000 C 
ATOM     25  C   UNL     1      62.337  63.180  53.527  0.00  0.00    +0.000 C 
ATOM     26  C   UNL     1      62.633  62.426  53.691  0.00  0.00    +0.000 C 
ATOM     27  O   UNL     1      62.674  61.861  53.092  0.00  0.00    +0.000 OA
ATOM     28  C   UNL     1      62.969  61.108  53.256  0.00  0.00    +0.000 C 
ATOM     29  O   UNL     1      63.224  60.921  54.019  0.00  0.00    +0.000 OA
ATOM     30  C   UNL     1      63.010  60.542  52.657  0.00  0.00    +0.000 A 
ATOM     31  C   UNL     1      63.306  59.790  52.822  0.00  0.00    +0.000 A 
ATOM     32  C   UNL     1      63.347  59.223  52.222  0.00  0.00    +0.000 A 
ATOM     33  O   UNL     1      63.643  58.471  52.387  0.00  0.00    +0.000 OA
ATOM     34  C   UNL     1      63.684  57.904  51.787  0.00  0.00    +0.000 C 
ATOM     35  C   UNL     1      63.092  59.409  51.460  0.00  0.00    +0.000 A 
ATOM     36  O   UNL     1      63.134  58.843  50.862  0.00  0.00    +0.000 OA
ATOM     37  C   UNL     1      63.429  58.090  51.025  0.00  0.00    +0.000 C 
ATOM     38  C   UNL     1      62.797  60.162  51.297  0.00  0.00    +0.000 A 
ATOM     39  O   UNL     1      62.542  60.349  50.535  0.00  0.00    +0.000 OA
ATOM     40  C   UNL     1      62.246  61.101  50.371  0.00  0.00    +0.000 C 
ATOM     41  C   UNL     1      62.756  60.728  51.895  0.00  0.00    +0.000 A 
ATOM     42  C   UNL     1      61.761  64.627  53.184  0.00  0.00    +0.000 C 
ATOM     43  C   UNL     1      61.445  65.312  52.849  0.00  0.00    +0.000 C 
ENDROOT
TORSDOF 0
ENDMDL
MODEL 4
REMARK VINA RESULT:   -11.940      1.649     10.543
REMARK INTER + INTRA:         -11.940
REMARK INTER:                 -11.940
REMARK INTRA:                   0.000
REMARK UNBOUND:                 0.000
ROOT
REMARK  Name = dilazep
REMARK                            x       y       z     vdW  Elec       q    Type
REMARK                         _______ _______ _______ _____ _____    ______ ____
ATOM      1  C   UNL     1      58.993  74.756  56.345  0.00  0.00    +0.000 C 
ATOM      2  O   UNL     1      59.164  74.037  55.981  0.00  0.00    +0.000 OA
ATOM      3  C   UNL     1      58.791  73.833  55.273  0.00  0.00    +0.000 A 
ATOM      4  C   UNL     1      58.962  73.113  54.909  0.00  0.00    +0.000 A 
ATOM      5  C   UNL     1      58.589  72.910  54.202  0.00  0.00    +0.000 A 
ATOM      6  C   UNL     1      58.044  73.426  53.860  0.00  0.00    +0.000 A 
ATOM      7  C   UNL     1      57.873  74.146  54.223  0.00  0.00    +0.000 A 
ATOM      8  O   UNL     1      57.328  74.662  53.882  0.00  0.00    +0.000 OA
ATOM      9  C   UNL     1      57.156  75.383  54.246  0.00  0.00    +0.000 C 
ATOM     10  C   UNL     1      58.246  74.349  54.931  0.00  0.00    +0.000 A 
ATOM     11  O   UNL     1      58.075  75.069  55.295  0.00  0.00    +0.000 OA
ATOM     12  C   UNL     1      57.530  75.586  54.954  0.00  0.00    +0.000 C 
ATOM     13  C   UNL     1      58.760  72.189  53.837  0.00  0.00    +0.000 C 
ATOM     14  O   UNL     1      58.387  71.986  53.129  0.00  0.00    +0.000 OA
ATOM     15  O   UNL     1      59.305  71.673  54.179  0.00  0.00    +0.000 OA
ATOM     16  C   UNL     1      59.476  70.953  53.815  0.00  0.00    +0.000 C 
ATOM     17  C   UNL     1      60.021  70.437  54.156  0.00  0.00    +0.000 C 
ATOM     18  C   UNL     1      60.193  69.717  53.792  0.00  0.00    +0.000 C 
ATOM     19  N   UNL     1      60.737  69.201  54.134  0.00  0.00    +0.000 NA
ATOM     20  C   UNL     1      61.079  69.456  54.840  0.00  0.00    +0.000 C 
ATOM     21  C   UNL     1      61.635  69.072  55.312  0.00  0.00    +0.000 C 
ATOM     22  C   UNL     1      61.989  68.335  55.193  0.00  0.00    +0.000 C 
ATOM     23  N   UNL     1      61.872  67.803  54.575  0.00  0.00    +0.000 NA
ATOM     24  C   UNL     1      62.312  67.106  54.615  0.00  0.00    +0.000 C 
ATOM     25  C   UNL     1      62.236  66.536  54.023  0.00  0.00    +0.000 C 
ATOM     26  C   UNL     1      62.677  65.839  54.063  0.00  0.00    +0.000 C 
ATOM     27  O   UNL     1      62.601  65.269  53.472  0.00  0.00    +0.000 OA
ATOM     28  C   UNL     1      63.041  64.572  53.512  0.00  0.00    +0.000 C 
ATOM     29  O   UNL     1      63.557  64.445  54.143  0.00  0.00    +0.000 OA
ATOM     30  C   UNL     1      62.965  64.002  52.920  0.00  0.00    +0.000 A 
ATOM     31  C   UNL     1      63.406  63.306  52.961  0.00  0.00    +0.000 A 
ATOM     32  C   UNL     1      63.330  62.735  52.369  0.00  0.00    +0.000 A 
ATOM     33  O   UNL     1      63.770  62.039  52.409  0.00  0.00    +0.000 OA
ATOM     34  C   UNL     1      63.695  61.468  51.817  0.00  0.00    +0.000 C 
ATOM     35  C   UNL     1      62.814  62.862  51.737  0.00  0.00    +0.000 A 
ATOM     36  O   UNL     1      62.739  62.292  51.146  0.00  0.00    +0.000 OA
ATOM     37  C   UNL     1      63.179  61.595  51.186  0.00  0.00    +0.000 C 
ATOM     38  C   UNL     1      62.374  63.559  51.698  0.00  0.00    +0.000 A 
ATOM     39  O   UNL     1      61.859  63.685  51.067  0.00  0.00    +0.000 OA
ATOM     40  C   UNL     1      61.418  64.381  51.026  0.00  0.00    +0.000 C 
ATOM     41  C   UNL     1      62.450  64.129  52.289  0.00  0.00    +0.000 A 
ATOM     42  C   UNL     1      61.374  67.874  53.922  0.00  0.00    +0.000 C 
ATOM     43  C   UNL     1      60.868  68.496  53.725  0.00  0.00    +0.000 C 
ENDROOT
TORSDOF 0
ENDMDL
MODEL 5
REMARK VINA RESULT:   -11.684      1.579     10.479
REMARK INTER + INTRA:         -11.684
REMARK INTER:                 -11.684
REMARK INTRA:                   0.000
REMARK UNBOUND:                 0.000
ROOT
REMARK  Name = dilazep
REMARK                            x       y       z     vdW  Elec       q    Type
REMARK                         _______ _______ _______ _____ _____    ______ ____
ATOM      1  C   UNL     1      58.392  74.034  52.389  0.00  0.00    +0.000 C 
ATOM      2  O   UNL     1      58.694  73.279  52.528  0.00  0.00    +0.000 OA
ATOM      3  C   UNL     1      58.772  73.002  53.302  0.00  0.00    +0.000 A 
ATOM      4  C   UNL     1      59.074  72.247  53.440  0.00  0.00    +0.000 A 
ATOM      5  C   UNL     1      59.152  71.970  54.213  0.00  0.00    +0.000 A 
ATOM      6  C   UNL     1      58.929  72.449  54.848  0.00  0.00    +0.000 A 
ATOM      7  C   UNL     1      58.628  73.203  54.709  0.00  0.00    +0.000 A 
ATOM      8  O   UNL     1      58.405  73.682  55.342  0.00  0.00    +0.000 OA
ATOM      9  C   UNL     1      58.103  74.438  55.204  0.00  0.00    +0.000 C 
ATOM     10  C   UNL     1      58.549  73.480  53.935  0.00  0.00    +0.000 A 
ATOM     11  O   UNL     1      58.248  74.236  53.796  0.00  0.00    +0.000 OA
ATOM     12  C   UNL     1      58.025  74.714  54.430  0.00  0.00    +0.000 C 
ATOM     13  C   UNL     1      59.454  71.215  54.353  0.00  0.00    +0.000 C 
ATOM     14  O   UNL     1      59.532  70.938  55.127  0.00  0.00    +0.000 OA
ATOM     15  O   UNL     1      59.677  70.736  53.720  0.00  0.00    +0.000 OA
ATOM     16  C   UNL     1      59.978  69.981  53.858  0.00  0.00    +0.000 C 
ATOM     17  C   UNL     1      60.201  69.503  53.225  0.00  0.00    +0.000 C 
ATOM     18  C   UNL     1      60.503  68.747  53.364  0.00  0.00    +0.000 C 
ATOM     19  N   UNL     1      60.725  68.269  52.730  0.00  0.00    +0.000 NA
ATOM     20  C   UNL     1      60.625  68.598  51.980  0.00  0.00    +0.000 C 
ATOM     21  C   UNL     1      60.793  68.264  51.245  0.00  0.00    +0.000 C 
ATOM     22  C   UNL     1      61.104  67.518  51.078  0.00  0.00    +0.000 C 
ATOM     23  N   UNL     1      61.323  66.923  51.605  0.00  0.00    +0.000 NA
ATOM     24  C   UNL     1      61.620  66.233  51.262  0.00  0.00    +0.000 C 
ATOM     25  C   UNL     1      61.855  65.603  51.740  0.00  0.00    +0.000 C 
ATOM     26  C   UNL     1      62.151  64.913  51.397  0.00  0.00    +0.000 C 
ATOM     27  O   UNL     1      62.386  64.284  51.875  0.00  0.00    +0.000 OA
ATOM     28  C   UNL     1      62.683  63.594  51.532  0.00  0.00    +0.000 C 
ATOM     29  O   UNL     1      62.744  63.534  50.712  0.00  0.00    +0.000 OA
ATOM     30  C   UNL     1      62.918  62.964  52.011  0.00  0.00    +0.000 A 
ATOM     31  C   UNL     1      63.214  62.275  51.668  0.00  0.00    +0.000 A 
ATOM     32  C   UNL     1      63.449  61.645  52.146  0.00  0.00    +0.000 A 
ATOM     33  O   UNL     1      63.745  60.956  51.803  0.00  0.00    +0.000 OA
ATOM     34  C   UNL     1      63.981  60.325  52.281  0.00  0.00    +0.000 C 
ATOM     35  C   UNL     1      63.389  61.704  52.967  0.00  0.00    +0.000 A 
ATOM     36  O   UNL     1      63.624  61.075  53.444  0.00  0.00    +0.000 OA
ATOM     37  C   UNL     1      63.920  60.385  53.102  0.00  0.00    +0.000 C 
ATOM     38  C   UNL     1      63.093  62.395  53.309  0.00  0.00    +0.000 A 
ATOM     39  O   UNL     1      63.032  62.454  54.129  0.00  0.00    +0.000 OA
ATOM     40  C   UNL     1      62.736  63.144  54.473  0.00  0.00    +0.000 C 
ATOM     41  C   UNL     1      62.857  63.024  52.831  0.00  0.00    +0.000 A 
ATOM     42  C   UNL     1      61.286  66.925  52.428  0.00  0.00    +0.000 C 
ATOM     43  C   UNL     1      61.020  67.525  52.930  0.00  0.00    +0.000 C 
ENDROOT
TORSDOF 0
ENDMDL
MODEL 6
REMARK VINA RESULT:   -11.010      2.734     10.537
REMARK INTER + INTRA:         -11.010
REMARK INTER:                 -11.010
REMARK INTRA:                   0.000
REMARK UNBOUND:                 0.000
ROOT
REMARK  Name = dilazep
REMARK                            x       y       z     vdW  Elec       q    Type
REMARK                         _______ _______ _______ _____ _____    ______ ____
ATOM      1  C   UNL     1      58.341  74.057  52.870  0.00  0.00    +0.000 C 
ATOM      2  O   UNL     1      58.707  73.324  52.775  0.00  0.00    +0.000 OA
ATOM      3  C   UNL     1      58.836  72.840  53.431  0.00  0.00    +0.000 A 
ATOM      4  C   UNL     1      59.202  72.106  53.335  0.00  0.00    +0.000 A 
ATOM      5  C   UNL     1      59.331  71.622  53.990  0.00  0.00    +0.000 A 
ATOM      6  C   UNL     1      59.095  71.871  54.741  0.00  0.00    +0.000 A 
ATOM      7  C   UNL     1      58.729  72.604  54.836  0.00  0.00    +0.000 A 
ATOM      8  O   UNL     1      58.492  72.853  55.585  0.00  0.00    +0.000 OA
ATOM      9  C   UNL     1      58.126  73.586  55.681  0.00  0.00    +0.000 C 
ATOM     10  C   UNL     1      58.600  73.088  54.180  0.00  0.00    +0.000 A 
ATOM     11  O   UNL     1      58.234  73.822  54.276  0.00  0.00    +0.000 OA
ATOM     12  C   UNL     1      57.997  74.071  55.025  0.00  0.00    +0.000 C 
ATOM     13  C   UNL     1      59.697  70.888  53.895  0.00  0.00    +0.000 C 
ATOM     14  O   UNL     1      59.827  70.404  54.551  0.00  0.00    +0.000 OA
ATOM     15  O   UNL     1      59.934  70.639  53.146  0.00  0.00    +0.000 OA
ATOM     16  C   UNL     1      60.300  69.907  53.050  0.00  0.00    +0.000 C 
ATOM     17  C   UNL     1      60.537  69.657  52.301  0.00  0.00    +0.000 C 
ATOM     18  C   UNL     1      60.903  68.924  52.205  0.00  0.00    +0.000 C 
ATOM     19  N   UNL     1      61.139  68.676  51.456  0.00  0.00    +0.000 NA
ATOM     20  C   UNL     1      60.984  69.201  50.838  0.00  0.00    +0.000 C 
ATOM     21  C   UNL     1      61.151  69.115  50.035  0.00  0.00    +0.000 C 
ATOM     22  C   UNL     1      61.515  68.481  49.650  0.00  0.00    +0.000 C 
ATOM     23  N   UNL     1      61.801  67.779  49.974  0.00  0.00    +0.000 NA
ATOM     24  C   UNL     1      62.138  67.249  49.438  0.00  0.00    +0.000 C 
ATOM     25  C   UNL     1      62.441  66.530  49.705  0.00  0.00    +0.000 C 
ATOM     26  C   UNL     1      62.778  66.000  49.169  0.00  0.00    +0.000 C 
ATOM     27  O   UNL     1      63.081  65.281  49.436  0.00  0.00    +0.000 OA
ATOM     28  C   UNL     1      63.418  64.751  48.900  0.00  0.00    +0.000 C 
ATOM     29  O   UNL     1      63.453  64.942  48.098  0.00  0.00    +0.000 OA
ATOM     30  C   UNL     1      63.721  64.032  49.167  0.00  0.00    +0.000 A 
ATOM     31  C   UNL     1      64.058  63.503  48.632  0.00  0.00    +0.000 A 
ATOM     32  C   UNL     1      64.361  62.783  48.898  0.00  0.00    +0.000 A 
ATOM     33  O   UNL     1      64.698  62.254  48.363  0.00  0.00    +0.000 OA
ATOM     34  C   UNL     1      65.001  61.534  48.629  0.00  0.00    +0.000 C 
ATOM     35  C   UNL     1      64.326  62.593  49.700  0.00  0.00    +0.000 A 
ATOM     36  O   UNL     1      64.629  61.873  49.967  0.00  0.00    +0.000 OA
ATOM     37  C   UNL     1      64.967  61.344  49.431  0.00  0.00    +0.000 C 
ATOM     38  C   UNL     1      63.989  63.122  50.236  0.00  0.00    +0.000 A 
ATOM     39  O   UNL     1      63.954  62.932  51.037  0.00  0.00    +0.000 OA
ATOM     40  C   UNL     1      63.617  63.461  51.573  0.00  0.00    +0.000 C 
ATOM     41  C   UNL     1      63.686  63.841  49.969  0.00  0.00    +0.000 A 
ATOM     42  C   UNL     1      61.794  67.535  50.762  0.00  0.00    +0.000 C 
ATOM     43  C   UNL     1      61.499  67.934  51.422  0.00  0.00    +0.000 C 
ENDROOT
TORSDOF 0
ENDMDL
MODEL 7
REMARK VINA RESULT:   -11.009     17.409     19.040
REMARK INTER + INTRA:         -11.009
REMARK INTER:                 -11.009
REMARK INTRA:                   0.000
REMARK UNBOUND:                 0.000
ROOT
REMARK  Name = dilazep
REMARK                            x       y       z     vdW  Elec       q    Type
REMARK                         _______ _______ _______ _____ _____    ______ ____
ATOM      1  C   UNL     1      60.487  82.252  57.650  0.00  0.00    +0.000 C 
ATOM      2  O   UNL     1      61.274  82.154  57.425  0.00  0.00    +0.000 OA
ATOM      3  C   UNL     1      61.850  82.000  57.996  0.00  0.00    +0.000 A 
ATOM      4  C   UNL     1      62.638  81.901  57.771  0.00  0.00    +0.000 A 
ATOM      5  C   UNL     1      63.213  81.748  58.341  0.00  0.00    +0.000 A 
ATOM      6  C   UNL     1      63.001  81.695  59.137  0.00  0.00    +0.000 A 
ATOM      7  C   UNL     1      62.214  81.794  59.362  0.00  0.00    +0.000 A 
ATOM      8  O   UNL     1      62.002  81.740  60.157  0.00  0.00    +0.000 OA
ATOM      9  C   UNL     1      61.214  81.839  60.383  0.00  0.00    +0.000 C 
ATOM     10  C   UNL     1      61.638  81.947  58.791  0.00  0.00    +0.000 A 
ATOM     11  O   UNL     1      60.851  82.046  59.016  0.00  0.00    +0.000 OA
ATOM     12  C   UNL     1      60.638  81.992  59.811  0.00  0.00    +0.000 C 
ATOM     13  C   UNL     1      64.001  81.649  58.117  0.00  0.00    +0.000 C 
ATOM     14  O   UNL     1      64.577  81.496  58.689  0.00  0.00    +0.000 OA
ATOM     15  O   UNL     1      64.214  81.703  57.322  0.00  0.00    +0.000 OA
ATOM     16  C   UNL     1      65.000  81.604  57.097  0.00  0.00    +0.000 C 
ATOM     17  C   UNL     1      65.213  81.658  56.302  0.00  0.00    +0.000 C 
ATOM     18  C   UNL     1      66.001  81.559  56.077  0.00  0.00    +0.000 C 
ATOM     19  N   UNL     1      66.212  81.612  55.282  0.00  0.00    +0.000 NA
ATOM     20  C   UNL     1      65.595  81.767  54.756  0.00  0.00    +0.000 C 
ATOM     21  C   UNL     1      65.626  81.852  53.936  0.00  0.00    +0.000 C 
ATOM     22  C   UNL     1      66.283  81.803  53.439  0.00  0.00    +0.000 C 
ATOM     23  N   UNL     1      67.070  81.657  53.639  0.00  0.00    +0.000 NA
ATOM     24  C   UNL     1      67.603  81.643  53.009  0.00  0.00    +0.000 C 
ATOM     25  C   UNL     1      68.403  81.502  53.149  0.00  0.00    +0.000 C 
ATOM     26  C   UNL     1      68.936  81.487  52.519  0.00  0.00    +0.000 C 
ATOM     27  O   UNL     1      69.736  81.346  52.659  0.00  0.00    +0.000 OA
ATOM     28  C   UNL     1      70.269  81.331  52.028  0.00  0.00    +0.000 C 
ATOM     29  O   UNL     1      70.001  81.458  51.259  0.00  0.00    +0.000 OA
ATOM     30  C   UNL     1      71.070  81.190  52.169  0.00  0.00    +0.000 A 
ATOM     31  C   UNL     1      71.602  81.175  51.539  0.00  0.00    +0.000 A 
ATOM     32  C   UNL     1      72.403  81.034  51.679  0.00  0.00    +0.000 A 
ATOM     33  O   UNL     1      72.935  81.020  51.049  0.00  0.00    +0.000 OA
ATOM     34  C   UNL     1      73.736  80.878  51.189  0.00  0.00    +0.000 C 
ATOM     35  C   UNL     1      72.671  80.908  52.449  0.00  0.00    +0.000 A 
ATOM     36  O   UNL     1      73.471  80.767  52.588  0.00  0.00    +0.000 OA
ATOM     37  C   UNL     1      74.004  80.752  51.959  0.00  0.00    +0.000 C 
ATOM     38  C   UNL     1      72.138  80.923  53.078  0.00  0.00    +0.000 A 
ATOM     39  O   UNL     1      72.406  80.796  53.848  0.00  0.00    +0.000 OA
ATOM     40  C   UNL     1      71.874  80.811  54.479  0.00  0.00    +0.000 C 
ATOM     41  C   UNL     1      71.338  81.064  52.939  0.00  0.00    +0.000 A 
ATOM     42  C   UNL     1      67.395  81.525  54.385  0.00  0.00    +0.000 C 
ATOM     43  C   UNL     1      67.013  81.505  55.117  0.00  0.00    +0.000 C 
ENDROOT
TORSDOF 0
ENDMDL
MODEL 8
REMARK VINA RESULT:   -10.874      2.402     10.160
REMARK INTER + INTRA:         -10.874
REMARK INTER:                 -10.874
REMARK INTRA:                   0.000
REMARK UNBOUND:                 0.000
ROOT
REMARK  Name = dilazep
REMARK                            x       y       z     vdW  Elec       q    Type
REMARK                         _______ _______ _______ _____ _____    ______ ____
ATOM      1  C   UNL     1      57.743  70.984  55.315  0.00  0.00    +0.000 C 
ATOM      2  O   UNL     1      58.240  70.514  54.855  0.00  0.00    +0.000 OA
ATOM      3  C   UNL     1      58.662  70.850  54.229  0.00  0.00    +0.000 A 
ATOM      4  C   UNL     1      59.160  70.381  53.769  0.00  0.00    +0.000 A 
ATOM      5  C   UNL     1      59.581  70.716  53.144  0.00  0.00    +0.000 A 
ATOM      6  C   UNL     1      59.504  71.521  52.979  0.00  0.00    +0.000 A 
ATOM      7  C   UNL     1      59.006  71.990  53.440  0.00  0.00    +0.000 A 
ATOM      8  O   UNL     1      58.929  72.795  53.276  0.00  0.00    +0.000 OA
ATOM      9  C   UNL     1      58.431  73.265  53.736  0.00  0.00    +0.000 C 
ATOM     10  C   UNL     1      58.585  71.654  54.065  0.00  0.00    +0.000 A 
ATOM     11  O   UNL     1      58.087  72.124  54.526  0.00  0.00    +0.000 OA
ATOM     12  C   UNL     1      58.009  72.929  54.362  0.00  0.00    +0.000 C 
ATOM     13  C   UNL     1      60.079  70.247  52.683  0.00  0.00    +0.000 C 
ATOM     14  O   UNL     1      60.500  70.583  52.057  0.00  0.00    +0.000 OA
ATOM     15  O   UNL     1      60.156  69.442  52.846  0.00  0.00    +0.000 OA
ATOM     16  C   UNL     1      60.654  68.973  52.386  0.00  0.00    +0.000 C 
ATOM     17  C   UNL     1      60.731  68.168  52.550  0.00  0.00    +0.000 C 
ATOM     18  C   UNL     1      61.229  67.698  52.089  0.00  0.00    +0.000 C 
ATOM     19  N   UNL     1      61.306  66.895  52.254  0.00  0.00    +0.000 NA
ATOM     20  C   UNL     1      60.862  66.614  52.890  0.00  0.00    +0.000 C 
ATOM     21  C   UNL     1      60.818  65.847  53.190  0.00  0.00    +0.000 C 
ATOM     22  C   UNL     1      61.210  65.169  52.927  0.00  0.00    +0.000 C 
ATOM     23  N   UNL     1      61.740  65.093  52.300  0.00  0.00    +0.000 NA
ATOM     24  C   UNL     1      62.040  64.334  52.176  0.00  0.00    +0.000 C 
ATOM     25  C   UNL     1      62.575  64.197  51.563  0.00  0.00    +0.000 C 
ATOM     26  C   UNL     1      62.875  63.438  51.439  0.00  0.00    +0.000 C 
ATOM     27  O   UNL     1      63.409  63.301  50.826  0.00  0.00    +0.000 OA
ATOM     28  C   UNL     1      63.709  62.542  50.702  0.00  0.00    +0.000 C 
ATOM     29  O   UNL     1      63.474  61.921  51.191  0.00  0.00    +0.000 OA
ATOM     30  C   UNL     1      64.244  62.406  50.089  0.00  0.00    +0.000 A 
ATOM     31  C   UNL     1      64.543  61.647  49.966  0.00  0.00    +0.000 A 
ATOM     32  C   UNL     1      65.078  61.510  49.352  0.00  0.00    +0.000 A 
ATOM     33  O   UNL     1      65.378  60.751  49.229  0.00  0.00    +0.000 OA
ATOM     34  C   UNL     1      65.913  60.614  48.615  0.00  0.00    +0.000 C 
ATOM     35  C   UNL     1      65.314  62.131  48.863  0.00  0.00    +0.000 A 
ATOM     36  O   UNL     1      65.848  61.994  48.251  0.00  0.00    +0.000 OA
ATOM     37  C   UNL     1      66.148  61.236  48.126  0.00  0.00    +0.000 C 
ATOM     38  C   UNL     1      65.014  62.890  48.988  0.00  0.00    +0.000 A 
ATOM     39  O   UNL     1      65.249  63.511  48.499  0.00  0.00    +0.000 OA
ATOM     40  C   UNL     1      64.950  64.270  48.622  0.00  0.00    +0.000 C 
ATOM     41  C   UNL     1      64.479  63.027  49.600  0.00  0.00    +0.000 A 
ATOM     42  C   UNL     1      62.011  65.673  51.781  0.00  0.00    +0.000 C 
ATOM     43  C   UNL     1      61.818  66.476  51.760  0.00  0.00    +0.000 C 
ENDROOT
TORSDOF 0
ENDMDL
MODEL 9
REMARK VINA RESULT:   -10.834      1.752      2.230
REMARK INTER + INTRA:         -10.834
REMARK INTER:                 -10.834
REMARK INTRA:                   0.000
REMARK UNBOUND:                 0.000
ROOT
REMARK  Name = dilazep
REMARK                            x       y       z     vdW  Elec       q    Type
REMARK                         _______ _______ _______ _____ _____    ______ ____
ATOM      1  C   UNL     1      63.654  60.187  54.468  0.00  0.00    +0.000 C 
ATOM      2  O   UNL     1      63.368  60.863  54.092  0.00  0.00    +0.000 OA
ATOM      3  C   UNL     1      63.197  60.843  53.284  0.00  0.00    +0.000 A 
ATOM      4  C   UNL     1      62.911  61.519  52.907  0.00  0.00    +0.000 A 
ATOM      5  C   UNL     1      62.740  61.500  52.101  0.00  0.00    +0.000 A 
ATOM      6  C   UNL     1      62.855  60.804  51.671  0.00  0.00    +0.000 A 
ATOM      7  C   UNL     1      63.140  60.129  52.048  0.00  0.00    +0.000 A 
ATOM      8  O   UNL     1      63.255  59.434  51.619  0.00  0.00    +0.000 OA
ATOM      9  C   UNL     1      63.541  58.758  51.996  0.00  0.00    +0.000 C 
ATOM     10  C   UNL     1      63.312  60.149  52.855  0.00  0.00    +0.000 A 
ATOM     11  O   UNL     1      63.597  59.472  53.232  0.00  0.00    +0.000 OA
ATOM     12  C   UNL     1      63.712  58.777  52.803  0.00  0.00    +0.000 C 
ATOM     13  C   UNL     1      62.454  62.175  51.723  0.00  0.00    +0.000 C 
ATOM     14  O   UNL     1      62.283  62.156  50.915  0.00  0.00    +0.000 OA
ATOM     15  O   UNL     1      62.340  62.870  52.151  0.00  0.00    +0.000 OA
ATOM     16  C   UNL     1      62.054  63.546  51.775  0.00  0.00    +0.000 C 
ATOM     17  C   UNL     1      61.939  64.241  52.203  0.00  0.00    +0.000 C 
ATOM     18  C   UNL     1      61.653  64.917  51.826  0.00  0.00    +0.000 C 
ATOM     19  N   UNL     1      61.539  65.611  52.255  0.00  0.00    +0.000 NA
ATOM     20  C   UNL     1      61.727  65.572  53.058  0.00  0.00    +0.000 C 
ATOM     21  C   UNL     1      61.674  66.165  53.629  0.00  0.00    +0.000 C 
ATOM     22  C   UNL     1      61.419  66.945  53.538  0.00  0.00    +0.000 C 
ATOM     23  N   UNL     1      61.156  67.323  52.854  0.00  0.00    +0.000 NA
ATOM     24  C   UNL     1      60.938  68.115  52.944  0.00  0.00    +0.000 C 
ATOM     25  C   UNL     1      60.667  68.544  52.294  0.00  0.00    +0.000 C 
ATOM     26  C   UNL     1      60.449  69.335  52.385  0.00  0.00    +0.000 C 
ATOM     27  O   UNL     1      60.177  69.764  51.735  0.00  0.00    +0.000 OA
ATOM     28  C   UNL     1      59.959  70.555  51.825  0.00  0.00    +0.000 C 
ATOM     29  O   UNL     1      60.013  70.916  52.565  0.00  0.00    +0.000 OA
ATOM     30  C   UNL     1      59.688  70.985  51.175  0.00  0.00    +0.000 A 
ATOM     31  C   UNL     1      59.470  71.775  51.266  0.00  0.00    +0.000 A 
ATOM     32  C   UNL     1      59.199  72.205  50.615  0.00  0.00    +0.000 A 
ATOM     33  O   UNL     1      58.981  72.995  50.706  0.00  0.00    +0.000 OA
ATOM     34  C   UNL     1      58.709  73.425  50.056  0.00  0.00    +0.000 C 
ATOM     35  C   UNL     1      59.145  71.844  49.875  0.00  0.00    +0.000 A 
ATOM     36  O   UNL     1      58.873  72.274  49.226  0.00  0.00    +0.000 OA
ATOM     37  C   UNL     1      58.655  73.064  49.316  0.00  0.00    +0.000 C 
ATOM     38  C   UNL     1      59.363  71.053  49.786  0.00  0.00    +0.000 A 
ATOM     39  O   UNL     1      59.309  70.692  49.046  0.00  0.00    +0.000 OA
ATOM     40  C   UNL     1      59.527  69.902  48.955  0.00  0.00    +0.000 C 
ATOM     41  C   UNL     1      59.634  70.624  50.435  0.00  0.00    +0.000 A 
ATOM     42  C   UNL     1      61.081  67.017  52.092  0.00  0.00    +0.000 C 
ATOM     43  C   UNL     1      61.252  66.254  51.825  0.00  0.00    +0.000 C 
ENDROOT
TORSDOF 0
ENDMDL
