MODEL 1
REMARK VINA RESULT:   -12.067      0.000      0.000
REMARK INTER + INTRA:         -12.067
REMARK INTER:                 -12.067
REMARK INTRA:                   0.000
REMARK UNBOUND:                 0.000
ROOT
REMARK  Name = diltiazem
REMARK                            x       y       z     vdW  Elec       q    Type
REMARK                         _______ _______ _______ _____ _____    ______ ____
ATOM      1  C   UNL     1      65.792  66.943  71.169  0.00  0.00    +0.000 C 
ATOM      2  O   UNL     1      65.427  66.224  70.989  0.00  0.00    +0.000 OA
ATOM      3  C   UNL     1      64.632  66.108  71.175  0.00  0.00    +0.000 A 
ATOM      4  C   UNL     1      64.268  65.390  70.995  0.00  0.00    +0.000 A 
ATOM      5  C   UNL     1      63.472  65.274  71.182  0.00  0.00    +0.000 A 
ATOM      6  C   UNL     1      63.041  65.874  71.547  0.00  0.00    +0.000 A 
ATOM      7  C   UNL     1      63.406  66.592  71.727  0.00  0.00    +0.000 A 
ATOM      8  C   UNL     1      64.201  66.709  71.541  0.00  0.00    +0.000 A 
ATOM      9  C   UNL     1      62.247  65.757  71.733  0.00  0.00    +0.000 C 
ATOM     10  S   UNL     1      61.935  65.020  71.530  0.00  0.00    +0.000 S 
ATOM     11  C   UNL     1      61.169  64.737  71.641  0.00  0.00    +0.000 A 
ATOM     12  C   UNL     1      61.088  63.967  71.358  0.00  0.00    +0.000 A 
ATOM     13  C   UNL     1      60.362  63.580  71.415  0.00  0.00    +0.000 A 
ATOM     14  C   UNL     1      59.717  63.963  71.757  0.00  0.00    +0.000 A 
ATOM     15  C   UNL     1      59.797  64.733  72.041  0.00  0.00    +0.000 A 
ATOM     16  C   UNL     1      60.524  65.121  71.983  0.00  0.00    +0.000 A 
ATOM     17  N   UNL     1      60.485  65.882  72.298  0.00  0.00    +0.000 N 
ATOM     18  C   UNL     1      59.752  66.107  72.602  0.00  0.00    +0.000 C 
ATOM     19  C   UNL     1      59.117  65.582  72.579  0.00  0.00    +0.000 C 
ATOM     20  N   UNL     1      58.383  65.807  72.883  0.00  0.00    +0.000 NA
ATOM     21  C   UNL     1      57.748  65.281  72.859  0.00  0.00    +0.000 C 
ATOM     22  C   UNL     1      58.286  66.558  73.211  0.00  0.00    +0.000 C 
ATOM     23  C   UNL     1      61.083  66.448  72.349  0.00  0.00    +0.000 C 
ATOM     24  O   UNL     1      60.869  67.164  72.698  0.00  0.00    +0.000 OA
ATOM     25  C   UNL     1      61.867  66.393  72.098  0.00  0.00    +0.000 C 
ATOM     26  O   UNL     1      62.333  67.061  72.228  0.00  0.00    +0.000 OA
ATOM     27  C   UNL     1      62.007  67.727  72.589  0.00  0.00    +0.000 C 
ATOM     28  C   UNL     1      61.214  67.725  72.820  0.00  0.00    +0.000 C 
ATOM     29  O   UNL     1      62.472  68.395  72.720  0.00  0.00    +0.000 OA
ENDROOT
TORSDOF 0
ENDMDL
MODEL 2
REMARK VINA RESULT:   -11.975      3.251      4.465
REMARK INTER + INTRA:         -11.975
REMARK INTER:                 -11.975
REMARK INTRA:                   0.000
REMARK UNBOUND:                 0.000
ROOT
REMARK  Name = diltiazem
REMARK                            x       y       z     vdW  Elec       q    Type
REMARK                         _______ _______ _______ _____ _____    ______ ____
ATOM      1  C   UNL     1      61.313  61.293  66.865  0.00  0.00    +0.000 C 
ATOM      2  O   UNL     1      61.146  62.088  66.719  0.00  0.00    +0.000 OA
ATOM      3  C   UNL     1      60.927  62.584  67.340  0.00  0.00    +0.000 A 
ATOM      4  C   UNL     1      60.760  63.379  67.194  0.00  0.00    +0.000 A 
ATOM      5  C   UNL     1      60.541  63.875  67.816  0.00  0.00    +0.000 A 
ATOM      6  C   UNL     1      60.488  63.577  68.584  0.00  0.00    +0.000 A 
ATOM      7  C   UNL     1      60.654  62.782  68.729  0.00  0.00    +0.000 A 
ATOM      8  C   UNL     1      60.874  62.286  68.108  0.00  0.00    +0.000 A 
ATOM      9  C   UNL     1      60.268  64.073  69.204  0.00  0.00    +0.000 C 
ATOM     10  S   UNL     1      60.114  64.858  68.999  0.00  0.00    +0.000 S 
ATOM     11  C   UNL     1      59.885  65.481  69.487  0.00  0.00    +0.000 A 
ATOM     12  C   UNL     1      59.788  66.180  69.058  0.00  0.00    +0.000 A 
ATOM     13  C   UNL     1      59.559  66.872  69.443  0.00  0.00    +0.000 A 
ATOM     14  C   UNL     1      59.429  66.867  70.258  0.00  0.00    +0.000 A 
ATOM     15  C   UNL     1      59.526  66.169  70.687  0.00  0.00    +0.000 A 
ATOM     16  C   UNL     1      59.755  65.476  70.301  0.00  0.00    +0.000 A 
ATOM     17  N   UNL     1      59.820  64.846  70.829  0.00  0.00    +0.000 N 
ATOM     18  C   UNL     1      59.651  65.019  71.618  0.00  0.00    +0.000 C 
ATOM     19  C   UNL     1      59.432  65.785  71.834  0.00  0.00    +0.000 C 
ATOM     20  N   UNL     1      59.263  65.959  72.623  0.00  0.00    +0.000 NA
ATOM     21  C   UNL     1      59.045  66.724  72.839  0.00  0.00    +0.000 C 
ATOM     22  C   UNL     1      59.312  65.366  73.195  0.00  0.00    +0.000 C 
ATOM     23  C   UNL     1      60.033  64.064  70.672  0.00  0.00    +0.000 C 
ATOM     24  O   UNL     1      60.048  63.560  71.325  0.00  0.00    +0.000 OA
ATOM     25  C   UNL     1      60.232  63.720  69.950  0.00  0.00    +0.000 C 
ATOM     26  O   UNL     1      60.420  62.917  69.975  0.00  0.00    +0.000 OA
ATOM     27  C   UNL     1      60.401  62.512  70.692  0.00  0.00    +0.000 C 
ATOM     28  C   UNL     1      60.194  62.908  71.385  0.00  0.00    +0.000 C 
ATOM     29  O   UNL     1      60.589  61.709  70.717  0.00  0.00    +0.000 OA
ENDROOT
TORSDOF 0
ENDMDL
MODEL 3
REMARK VINA RESULT:   -11.970      2.250      3.251
REMARK INTER + INTRA:         -11.970
REMARK INTER:                 -11.970
REMARK INTRA:                   0.000
REMARK UNBOUND:                 0.000
ROOT
REMARK  Name = diltiazem
REMARK                            x       y       z     vdW  Elec       q    Type
REMARK                         _______ _______ _______ _____ _____    ______ ____
ATOM      1  C   UNL     1      62.771  68.681  72.819  0.00  0.00    +0.000 C 
ATOM      2  O   UNL     1      62.736  67.958  73.216  0.00  0.00    +0.000 OA
ATOM      3  C   UNL     1      62.500  67.278  72.814  0.00  0.00    +0.000 A 
ATOM      4  C   UNL     1      62.465  66.555  73.211  0.00  0.00    +0.000 A 
ATOM      5  C   UNL     1      62.229  65.875  72.808  0.00  0.00    +0.000 A 
ATOM      6  C   UNL     1      62.028  65.916  72.009  0.00  0.00    +0.000 A 
ATOM      7  C   UNL     1      62.063  66.639  71.612  0.00  0.00    +0.000 A 
ATOM      8  C   UNL     1      62.299  67.319  72.015  0.00  0.00    +0.000 A 
ATOM      9  C   UNL     1      61.792  65.236  71.607  0.00  0.00    +0.000 C 
ATOM     10  S   UNL     1      61.776  64.542  72.055  0.00  0.00    +0.000 S 
ATOM     11  C   UNL     1      61.567  63.782  71.816  0.00  0.00    +0.000 A 
ATOM     12  C   UNL     1      61.626  63.243  72.439  0.00  0.00    +0.000 A 
ATOM     13  C   UNL     1      61.442  62.449  72.317  0.00  0.00    +0.000 A 
ATOM     14  C   UNL     1      61.198  62.192  71.572  0.00  0.00    +0.000 A 
ATOM     15  C   UNL     1      61.138  62.729  70.949  0.00  0.00    +0.000 A 
ATOM     16  C   UNL     1      61.323  63.525  71.071  0.00  0.00    +0.000 A 
ATOM     17  N   UNL     1      61.227  63.965  70.381  0.00  0.00    +0.000 N 
ATOM     18  C   UNL     1      60.973  63.543  69.719  0.00  0.00    +0.000 C 
ATOM     19  C   UNL     1      60.833  62.733  69.776  0.00  0.00    +0.000 C 
ATOM     20  N   UNL     1      60.578  62.310  69.113  0.00  0.00    +0.000 NA
ATOM     21  C   UNL     1      60.437  61.500  69.170  0.00  0.00    +0.000 C 
ATOM     22  C   UNL     1      60.465  62.700  68.395  0.00  0.00    +0.000 C 
ATOM     23  C   UNL     1      61.352  64.772  70.265  0.00  0.00    +0.000 C 
ATOM     24  O   UNL     1      61.207  65.051  69.502  0.00  0.00    +0.000 OA
ATOM     25  C   UNL     1      61.603  65.338  70.810  0.00  0.00    +0.000 C 
ATOM     26  O   UNL     1      61.676  66.107  70.521  0.00  0.00    +0.000 OA
ATOM     27  C   UNL     1      61.501  66.269  69.732  0.00  0.00    +0.000 C 
ATOM     28  C   UNL     1      61.253  65.662  69.230  0.00  0.00    +0.000 C 
ATOM     29  O   UNL     1      61.573  67.038  69.442  0.00  0.00    +0.000 OA
ENDROOT
TORSDOF 0
ENDMDL
MODEL 4
REMARK VINA RESULT:   -11.814      1.638      2.743
REMARK INTER + INTRA:         -11.814
REMARK INTER:                 -11.814
REMARK INTRA:                   0.000
REMARK UNBOUND:                 0.000
ROOT
REMARK  Name = diltiazem
REMARK                            x       y       z     vdW  Elec       q    Type
REMARK                         _______ _______ _______ _____ _____    ______ ____
ATOM      1  C   UNL     1      66.874  67.271  70.631  0.00  0.00    +0.000 C 
ATOM      2  O   UNL     1      66.310  67.619  71.122  0.00  0.00    +0.000 OA
ATOM      3  C   UNL     1      65.579  67.253  71.234  0.00  0.00    +0.000 A 
ATOM      4  C   UNL     1      65.015  67.600  71.725  0.00  0.00    +0.000 A 
ATOM      5  C   UNL     1      64.284  67.234  71.837  0.00  0.00    +0.000 A 
ATOM      6  C   UNL     1      64.117  66.520  71.457  0.00  0.00    +0.000 A 
ATOM      7  C   UNL     1      64.682  66.174  70.966  0.00  0.00    +0.000 A 
ATOM      8  C   UNL     1      65.412  66.539  70.855  0.00  0.00    +0.000 A 
ATOM      9  C   UNL     1      63.387  66.155  71.569  0.00  0.00    +0.000 C 
ATOM     10  S   UNL     1      62.862  66.548  72.071  0.00  0.00    +0.000 S 
ATOM     11  C   UNL     1      62.099  66.328  72.291  0.00  0.00    +0.000 A 
ATOM     12  C   UNL     1      61.762  66.879  72.805  0.00  0.00    +0.000 A 
ATOM     13  C   UNL     1      60.999  66.762  73.093  0.00  0.00    +0.000 A 
ATOM     14  C   UNL     1      60.570  66.094  72.867  0.00  0.00    +0.000 A 
ATOM     15  C   UNL     1      60.906  65.543  72.353  0.00  0.00    +0.000 A 
ATOM     16  C   UNL     1      61.671  65.660  72.065  0.00  0.00    +0.000 A 
ATOM     17  N   UNL     1      61.899  65.047  71.563  0.00  0.00    +0.000 N 
ATOM     18  C   UNL     1      61.341  64.452  71.446  0.00  0.00    +0.000 C 
ATOM     19  C   UNL     1      60.608  64.495  71.821  0.00  0.00    +0.000 C 
ATOM     20  N   UNL     1      60.048  63.899  71.704  0.00  0.00    +0.000 NA
ATOM     21  C   UNL     1      59.315  63.942  72.079  0.00  0.00    +0.000 C 
ATOM     22  C   UNL     1      60.223  63.261  71.211  0.00  0.00    +0.000 C 
ATOM     23  C   UNL     1      62.615  64.951  71.162  0.00  0.00    +0.000 C 
ATOM     24  O   UNL     1      62.675  64.273  70.697  0.00  0.00    +0.000 OA
ATOM     25  C   UNL     1      63.276  65.444  71.165  0.00  0.00    +0.000 C 
ATOM     26  O   UNL     1      63.911  65.193  70.702  0.00  0.00    +0.000 OA
ATOM     27  C   UNL     1      63.858  64.490  70.275  0.00  0.00    +0.000 C 
ATOM     28  C   UNL     1      63.169  64.036  70.310  0.00  0.00    +0.000 C 
ATOM     29  O   UNL     1      64.493  64.239  69.812  0.00  0.00    +0.000 OA
ENDROOT
TORSDOF 0
ENDMDL
MODEL 5
REMARK VINA RESULT:   -10.196     25.182     26.756
REMARK INTER + INTRA:         -10.196
REMARK INTER:                 -10.196
REMARK INTRA:                   0.000
REMARK UNBOUND:                 0.000
ROOT
REMARK  Name = diltiazem
REMARK                            x       y       z     vdW  Elec       q    Type
REMARK                         _______ _______ _______ _____ _____    ______ ____
ATOM      1  C   UNL     1      72.774  78.891  48.222  0.00  0.00    +0.000 C 
ATOM      2  O   UNL     1      71.951  78.848  48.272  0.00  0.00    +0.000 OA
ATOM      3  C   UNL     1      71.560  79.182  48.917  0.00  0.00    +0.000 A 
ATOM      4  C   UNL     1      70.737  79.140  48.966  0.00  0.00    +0.000 A 
ATOM      5  C   UNL     1      70.346  79.474  49.612  0.00  0.00    +0.000 A 
ATOM      6  C   UNL     1      70.776  79.850  50.207  0.00  0.00    +0.000 A 
ATOM      7  C   UNL     1      71.598  79.892  50.156  0.00  0.00    +0.000 A 
ATOM      8  C   UNL     1      71.990  79.558  49.512  0.00  0.00    +0.000 A 
ATOM      9  C   UNL     1      70.384  80.183  50.851  0.00  0.00    +0.000 C 
ATOM     10  S   UNL     1      69.562  80.111  50.848  0.00  0.00    +0.000 S 
ATOM     11  C   UNL     1      69.020  80.383  51.406  0.00  0.00    +0.000 A 
ATOM     12  C   UNL     1      68.246  80.194  51.191  0.00  0.00    +0.000 A 
ATOM     13  C   UNL     1      67.617  80.416  51.676  0.00  0.00    +0.000 A 
ATOM     14  C   UNL     1      67.762  80.828  52.376  0.00  0.00    +0.000 A 
ATOM     15  C   UNL     1      68.535  81.017  52.592  0.00  0.00    +0.000 A 
ATOM     16  C   UNL     1      69.165  80.794  52.106  0.00  0.00    +0.000 A 
ATOM     17  N   UNL     1      69.887  81.036  52.421  0.00  0.00    +0.000 N 
ATOM     18  C   UNL     1      69.848  81.441  53.139  0.00  0.00    +0.000 C 
ATOM     19  C   UNL     1      69.117  81.581  53.494  0.00  0.00    +0.000 C 
ATOM     20  N   UNL     1      69.078  81.986  54.212  0.00  0.00    +0.000 NA
ATOM     21  C   UNL     1      68.347  82.126  54.567  0.00  0.00    +0.000 C 
ATOM     22  C   UNL     1      69.770  82.252  54.574  0.00  0.00    +0.000 C 
ATOM     23  C   UNL     1      70.645  80.925  52.113  0.00  0.00    +0.000 C 
ATOM     24  O   UNL     1      71.263  81.234  52.564  0.00  0.00    +0.000 OA
ATOM     25  C   UNL     1      70.866  80.546  51.415  0.00  0.00    +0.000 C 
ATOM     26  O   UNL     1      71.676  80.526  51.259  0.00  0.00    +0.000 OA
ATOM     27  C   UNL     1      72.206  80.873  51.787  0.00  0.00    +0.000 C 
ATOM     28  C   UNL     1      71.927  81.239  52.472  0.00  0.00    +0.000 C 
ATOM     29  O   UNL     1      73.016  80.853  51.631  0.00  0.00    +0.000 OA
ENDROOT
TORSDOF 0
ENDMDL
MODEL 6
REMARK VINA RESULT:    -9.994     17.530     18.376
REMARK INTER + INTRA:          -9.994
REMARK INTER:                  -9.994
REMARK INTRA:                   0.000
REMARK UNBOUND:                 0.000
ROOT
REMARK  Name = diltiazem
REMARK                            x       y       z     vdW  Elec       q    Type
REMARK                         _______ _______ _______ _____ _____    ______ ____
ATOM      1  C   UNL     1      61.705  62.478  52.808  0.00  0.00    +0.000 C 
ATOM      2  O   UNL     1      62.033  62.780  53.503  0.00  0.00    +0.000 OA
ATOM      3  C   UNL     1      61.996  63.589  53.658  0.00  0.00    +0.000 A 
ATOM      4  C   UNL     1      62.323  63.890  54.353  0.00  0.00    +0.000 A 
ATOM      5  C   UNL     1      62.286  64.700  54.508  0.00  0.00    +0.000 A 
ATOM      6  C   UNL     1      61.922  65.208  53.969  0.00  0.00    +0.000 A 
ATOM      7  C   UNL     1      61.595  64.906  53.275  0.00  0.00    +0.000 A 
ATOM      8  C   UNL     1      61.632  64.097  53.120  0.00  0.00    +0.000 A 
ATOM      9  C   UNL     1      61.886  66.017  54.125  0.00  0.00    +0.000 C 
ATOM     10  S   UNL     1      62.230  66.261  54.835  0.00  0.00    +0.000 S 
ATOM     11  C   UNL     1      62.283  67.023  55.144  0.00  0.00    +0.000 A 
ATOM     12  C   UNL     1      62.672  67.027  55.872  0.00  0.00    +0.000 A 
ATOM     13  C   UNL     1      62.784  67.736  56.277  0.00  0.00    +0.000 A 
ATOM     14  C   UNL     1      62.506  68.443  55.955  0.00  0.00    +0.000 A 
ATOM     15  C   UNL     1      62.117  68.441  55.228  0.00  0.00    +0.000 A 
ATOM     16  C   UNL     1      62.005  67.730  54.822  0.00  0.00    +0.000 A 
ATOM     17  N   UNL     1      61.606  67.850  54.111  0.00  0.00    +0.000 N 
ATOM     18  C   UNL     1      61.399  68.630  53.942  0.00  0.00    +0.000 C 
ATOM     19  C   UNL     1      61.594  69.232  54.471  0.00  0.00    +0.000 C 
ATOM     20  N   UNL     1      61.387  70.013  54.303  0.00  0.00    +0.000 NA
ATOM     21  C   UNL     1      61.582  70.615  54.832  0.00  0.00    +0.000 C 
ATOM     22  C   UNL     1      60.986  70.192  53.604  0.00  0.00    +0.000 C 
ATOM     23  C   UNL     1      61.385  67.291  53.545  0.00  0.00    +0.000 C 
ATOM     24  O   UNL     1      60.988  67.587  52.885  0.00  0.00    +0.000 OA
ATOM     25  C   UNL     1      61.510  66.476  53.551  0.00  0.00    +0.000 C 
ATOM     26  O   UNL     1      61.220  66.064  52.897  0.00  0.00    +0.000 OA
ATOM     27  C   UNL     1      60.836  66.470  52.292  0.00  0.00    +0.000 C 
ATOM     28  C   UNL     1      60.739  67.288  52.339  0.00  0.00    +0.000 C 
ATOM     29  O   UNL     1      60.546  66.059  51.638  0.00  0.00    +0.000 OA
ENDROOT
TORSDOF 0
ENDMDL
MODEL 7
REMARK VINA RESULT:    -9.861     18.351     19.234
REMARK INTER + INTRA:          -9.861
REMARK INTER:                  -9.861
REMARK INTRA:                   0.000
REMARK UNBOUND:                 0.000
ROOT
REMARK  Name = diltiazem
REMARK                            x       y       z     vdW  Elec       q    Type
REMARK                         _______ _______ _______ _____ _____    ______ ____
ATOM      1  C   UNL     1      62.744  68.564  57.536  0.00  0.00    +0.000 C 
ATOM      2  O   UNL     1      62.680  69.165  56.974  0.00  0.00    +0.000 OA
ATOM      3  C   UNL     1      62.551  68.976  56.182  0.00  0.00    +0.000 A 
ATOM      4  C   UNL     1      62.487  69.577  55.620  0.00  0.00    +0.000 A 
ATOM      5  C   UNL     1      62.359  69.387  54.827  0.00  0.00    +0.000 A 
ATOM      6  C   UNL     1      62.295  68.598  54.595  0.00  0.00    +0.000 A 
ATOM      7  C   UNL     1      62.359  67.998  55.158  0.00  0.00    +0.000 A 
ATOM      8  C   UNL     1      62.487  68.187  55.950  0.00  0.00    +0.000 A 
ATOM      9  C   UNL     1      62.167  68.410  53.803  0.00  0.00    +0.000 C 
ATOM     10  S   UNL     1      62.111  69.052  53.286  0.00  0.00    +0.000 S 
ATOM     11  C   UNL     1      61.986  69.046  52.472  0.00  0.00    +0.000 A 
ATOM     12  C   UNL     1      61.966  69.812  52.164  0.00  0.00    +0.000 A 
ATOM     13  C   UNL     1      61.847  69.930  51.357  0.00  0.00    +0.000 A 
ATOM     14  C   UNL     1      61.747  69.282  50.856  0.00  0.00    +0.000 A 
ATOM     15  C   UNL     1      61.766  68.516  51.163  0.00  0.00    +0.000 A 
ATOM     16  C   UNL     1      61.885  68.398  51.971  0.00  0.00    +0.000 A 
ATOM     17  N   UNL     1      61.885  67.596  52.161  0.00  0.00    +0.000 N 
ATOM     18  C   UNL     1      61.770  67.078  51.530  0.00  0.00    +0.000 C 
ATOM     19  C   UNL     1      61.664  67.374  50.768  0.00  0.00    +0.000 C 
ATOM     20  N   UNL     1      61.548  66.856  50.135  0.00  0.00    +0.000 NA
ATOM     21  C   UNL     1      61.442  67.152  49.373  0.00  0.00    +0.000 C 
ATOM     22  C   UNL     1      61.539  66.041  50.266  0.00  0.00    +0.000 C 
ATOM     23  C   UNL     1      61.986  67.243  52.900  0.00  0.00    +0.000 C 
ATOM     24  O   UNL     1      61.957  66.419  52.910  0.00  0.00    +0.000 OA
ATOM     25  C   UNL     1      62.111  67.605  53.631  0.00  0.00    +0.000 C 
ATOM     26  O   UNL     1      62.191  67.095  54.274  0.00  0.00    +0.000 OA
ATOM     27  C   UNL     1      62.144  66.280  54.162  0.00  0.00    +0.000 C 
ATOM     28  C   UNL     1      62.017  65.973  53.406  0.00  0.00    +0.000 C 
ATOM     29  O   UNL     1      62.224  65.770  54.806  0.00  0.00    +0.000 OA
ENDROOT
TORSDOF 0
ENDMDL
MODEL 8
REMARK VINA RESULT:    -9.855     18.440     19.481
REMARK INTER + INTRA:          -9.855
REMARK INTER:                  -9.855
REMARK INTRA:                   0.000
REMARK UNBOUND:                 0.000
ROOT
REMARK  Name = diltiazem
REMARK                            x       y       z     vdW  Elec       q    Type
REMARK                         _______ _______ _______ _____ _____    ______ ____
ATOM      1  C   UNL     1      62.801  66.201  54.396  0.00  0.00    +0.000 C 
ATOM      2  O   UNL     1      62.165  65.842  54.012  0.00  0.00    +0.000 OA
ATOM      3  C   UNL     1      62.197  65.040  53.822  0.00  0.00    +0.000 A 
ATOM      4  C   UNL     1      61.562  64.681  53.438  0.00  0.00    +0.000 A 
ATOM      5  C   UNL     1      61.595  63.879  53.248  0.00  0.00    +0.000 A 
ATOM      6  C   UNL     1      62.262  63.435  53.443  0.00  0.00    +0.000 A 
ATOM      7  C   UNL     1      62.897  63.795  53.828  0.00  0.00    +0.000 A 
ATOM      8  C   UNL     1      62.865  64.597  54.017  0.00  0.00    +0.000 A 
ATOM      9  C   UNL     1      62.294  62.634  53.254  0.00  0.00    +0.000 C 
ATOM     10  S   UNL     1      61.630  62.329  52.870  0.00  0.00    +0.000 S 
ATOM     11  C   UNL     1      61.494  61.558  52.611  0.00  0.00    +0.000 A 
ATOM     12  C   UNL     1      60.755  61.486  52.252  0.00  0.00    +0.000 A 
ATOM     13  C   UNL     1      60.510  60.758  51.954  0.00  0.00    +0.000 A 
ATOM     14  C   UNL     1      61.004  60.100  52.014  0.00  0.00    +0.000 A 
ATOM     15  C   UNL     1      61.743  60.171  52.373  0.00  0.00    +0.000 A 
ATOM     16  C   UNL     1      61.988  60.900  52.672  0.00  0.00    +0.000 A 
ATOM     17  N   UNL     1      62.741  60.851  53.006  0.00  0.00    +0.000 N 
ATOM     18  C   UNL     1      63.096  60.107  52.980  0.00  0.00    +0.000 C 
ATOM     19  C   UNL     1      62.699  59.472  52.635  0.00  0.00    +0.000 C 
ATOM     20  N   UNL     1      63.055  58.727  52.610  0.00  0.00    +0.000 NA
ATOM     21  C   UNL     1      62.657  58.092  52.265  0.00  0.00    +0.000 C 
ATOM     22  C   UNL     1      63.808  58.619  52.929  0.00  0.00    +0.000 C 
ATOM     23  C   UNL     1      63.185  61.448  53.363  0.00  0.00    +0.000 C 
ATOM     24  O   UNL     1      63.926  61.222  53.646  0.00  0.00    +0.000 OA
ATOM     25  C   UNL     1      62.986  62.241  53.473  0.00  0.00    +0.000 C 
ATOM     26  O   UNL     1      63.555  62.703  53.853  0.00  0.00    +0.000 OA
ATOM     27  C   UNL     1      64.266  62.364  54.094  0.00  0.00    +0.000 C 
ATOM     28  C   UNL     1      64.411  61.564  53.957  0.00  0.00    +0.000 C 
ATOM     29  O   UNL     1      64.835  62.827  54.474  0.00  0.00    +0.000 OA
ENDROOT
TORSDOF 0
ENDMDL
MODEL 9
REMARK VINA RESULT:    -9.794     18.875     19.956
REMARK INTER + INTRA:          -9.794
REMARK INTER:                  -9.794
REMARK INTRA:                   0.000
REMARK UNBOUND:                 0.000
ROOT
REMARK  Name = diltiazem
REMARK                            x       y       z     vdW  Elec       q    Type
REMARK                         _______ _______ _______ _____ _____    ______ ____
ATOM      1  C   UNL     1      62.373  57.128  51.465  0.00  0.00    +0.000 C 
ATOM      2  O   UNL     1      63.029  57.457  51.842  0.00  0.00    +0.000 OA
ATOM      3  C   UNL     1      63.006  58.242  52.097  0.00  0.00    +0.000 A 
ATOM      4  C   UNL     1      63.661  58.572  52.475  0.00  0.00    +0.000 A 
ATOM      5  C   UNL     1      63.638  59.356  52.729  0.00  0.00    +0.000 A 
ATOM      6  C   UNL     1      62.961  59.811  52.607  0.00  0.00    +0.000 A 
ATOM      7  C   UNL     1      62.306  59.480  52.230  0.00  0.00    +0.000 A 
ATOM      8  C   UNL     1      62.328  58.696  51.975  0.00  0.00    +0.000 A 
ATOM      9  C   UNL     1      62.938  60.594  52.862  0.00  0.00    +0.000 C 
ATOM     10  S   UNL     1      63.622  60.871  53.233  0.00  0.00    +0.000 S 
ATOM     11  C   UNL     1      63.771  61.618  53.545  0.00  0.00    +0.000 A 
ATOM     12  C   UNL     1      64.529  61.665  53.869  0.00  0.00    +0.000 A 
ATOM     13  C   UNL     1      64.789  62.368  54.212  0.00  0.00    +0.000 A 
ATOM     14  C   UNL     1      64.292  63.026  54.231  0.00  0.00    +0.000 A 
ATOM     15  C   UNL     1      63.534  62.981  53.908  0.00  0.00    +0.000 A 
ATOM     16  C   UNL     1      63.274  62.276  53.565  0.00  0.00    +0.000 A 
ATOM     17  N   UNL     1      62.505  62.349  53.277  0.00  0.00    +0.000 N 
ATOM     18  C   UNL     1      62.150  63.087  53.381  0.00  0.00    +0.000 C 
ATOM     19  C   UNL     1      62.565  63.694  53.754  0.00  0.00    +0.000 C 
ATOM     20  N   UNL     1      62.211  64.432  53.859  0.00  0.00    +0.000 NA
ATOM     21  C   UNL     1      62.626  65.039  54.232  0.00  0.00    +0.000 C 
ATOM     22  C   UNL     1      61.442  64.562  53.590  0.00  0.00    +0.000 C 
ATOM     23  C   UNL     1      62.042  61.780  52.897  0.00  0.00    +0.000 C 
ATOM     24  O   UNL     1      61.287  62.025  52.673  0.00  0.00    +0.000 OA
ATOM     25  C   UNL     1      62.235  61.000  52.713  0.00  0.00    +0.000 C 
ATOM     26  O   UNL     1      61.647  60.567  52.328  0.00  0.00    +0.000 OA
ATOM     27  C   UNL     1      60.923  60.920  52.153  0.00  0.00    +0.000 C 
ATOM     28  C   UNL     1      60.786  61.707  52.362  0.00  0.00    +0.000 C 
ATOM     29  O   UNL     1      60.336  60.488  51.768  0.00  0.00    +0.000 OA
ENDROOT
TORSDOF 0
ENDMDL
