MODEL 1
REMARK VINA RESULT:   -13.809      0.000      0.000
REMARK INTER + INTRA:         -13.809
REMARK INTER:                 -13.809
REMARK INTRA:                   0.000
REMARK UNBOUND:                 0.000
ROOT
REMARK  Name = dimethisterone
REMARK                            x       y       z     vdW  Elec       q    Type
REMARK                         _______ _______ _______ _____ _____    ______ ____
ATOM      1  C   UNL     1      60.131  63.796  70.274  0.00  0.00    +0.000 C 
ATOM      2  C   UNL     1      60.343  63.529  69.523  0.00  0.00    +0.000 C 
ATOM      3  C   UNL     1      60.555  63.261  68.772  0.00  0.00    +0.000 C 
ATOM      4  C   UNL     1      60.768  62.994  68.021  0.00  0.00    +0.000 C 
ATOM      5  O   UNL     1      61.429  63.472  68.132  0.00  0.00    +0.000 OA
ATOM      6  C   UNL     1      60.061  62.570  68.067  0.00  0.00    +0.000 C 
ATOM      7  C   UNL     1      59.975  62.141  67.367  0.00  0.00    +0.000 C 
ATOM      8  C   UNL     1      60.628  62.299  66.889  0.00  0.00    +0.000 C 
ATOM      9  C   UNL     1      60.840  62.031  66.138  0.00  0.00    +0.000 C 
ATOM     10  C   UNL     1      60.350  61.504  65.734  0.00  0.00    +0.000 C 
ATOM     11  C   UNL     1      60.563  61.237  64.983  0.00  0.00    +0.000 C 
ATOM     12  C   UNL     1      60.073  60.710  64.580  0.00  0.00    +0.000 C 
ATOM     13  C   UNL     1      61.265  61.496  64.637  0.00  0.00    +0.000 C 
ATOM     14  C   UNL     1      61.477  61.228  63.885  0.00  0.00    +0.000 C 
ATOM     15  C   UNL     1      62.179  61.487  63.538  0.00  0.00    +0.000 C 
ATOM     16  O   UNL     1      62.391  61.220  62.788  0.00  0.00    +0.000 OA
ATOM     17  C   UNL     1      62.669  62.014  63.942  0.00  0.00    +0.000 C 
ATOM     18  C   UNL     1      62.456  62.282  64.693  0.00  0.00    +0.000 C 
ATOM     19  C   UNL     1      61.755  62.023  65.040  0.00  0.00    +0.000 C 
ATOM     20  C   UNL     1      62.245  62.550  65.444  0.00  0.00    +0.000 C 
ATOM     21  C   UNL     1      61.542  62.290  65.791  0.00  0.00    +0.000 C 
ATOM     22  C   UNL     1      62.033  62.817  66.195  0.00  0.00    +0.000 C 
ATOM     23  C   UNL     1      61.820  63.085  66.946  0.00  0.00    +0.000 C 
ATOM     24  C   UNL     1      61.118  62.825  67.293  0.00  0.00    +0.000 C 
ATOM     25  C   UNL     1      61.550  63.350  67.761  0.00  0.00    +0.000 C 
ENDROOT
TORSDOF 0
ENDMDL
MODEL 2
REMARK VINA RESULT:   -13.243      4.734      6.314
REMARK INTER + INTRA:         -13.243
REMARK INTER:                 -13.243
REMARK INTRA:                   0.000
REMARK UNBOUND:                 0.000
ROOT
REMARK  Name = dimethisterone
REMARK                            x       y       z     vdW  Elec       q    Type
REMARK                         _______ _______ _______ _____ _____    ______ ____
ATOM      1  C   UNL     1      58.631  67.628  72.113  0.00  0.00    +0.000 C 
ATOM      2  C   UNL     1      58.999  66.890  72.089  0.00  0.00    +0.000 C 
ATOM      3  C   UNL     1      59.368  66.153  72.066  0.00  0.00    +0.000 C 
ATOM      4  C   UNL     1      59.736  65.415  72.043  0.00  0.00    +0.000 C 
ATOM      5  O   UNL     1      60.009  65.623  72.792  0.00  0.00    +0.000 OA
ATOM      6  C   UNL     1      59.386  65.360  71.297  0.00  0.00    +0.000 C 
ATOM      7  C   UNL     1      59.595  64.632  70.970  0.00  0.00    +0.000 C 
ATOM      8  C   UNL     1      60.074  64.237  71.512  0.00  0.00    +0.000 C 
ATOM      9  C   UNL     1      60.442  63.499  71.489  0.00  0.00    +0.000 C 
ATOM     10  C   UNL     1      60.356  63.015  70.826  0.00  0.00    +0.000 C 
ATOM     11  C   UNL     1      60.724  62.277  70.803  0.00  0.00    +0.000 C 
ATOM     12  C   UNL     1      60.637  61.794  70.140  0.00  0.00    +0.000 C 
ATOM     13  C   UNL     1      61.179  62.024  71.442  0.00  0.00    +0.000 C 
ATOM     14  C   UNL     1      61.548  61.285  71.418  0.00  0.00    +0.000 C 
ATOM     15  C   UNL     1      62.003  61.031  72.058  0.00  0.00    +0.000 C 
ATOM     16  O   UNL     1      62.371  60.294  72.034  0.00  0.00    +0.000 OA
ATOM     17  C   UNL     1      62.090  61.515  72.720  0.00  0.00    +0.000 C 
ATOM     18  C   UNL     1      61.722  62.253  72.744  0.00  0.00    +0.000 C 
ATOM     19  C   UNL     1      61.267  62.507  72.105  0.00  0.00    +0.000 C 
ATOM     20  C   UNL     1      61.354  62.991  72.768  0.00  0.00    +0.000 C 
ATOM     21  C   UNL     1      60.898  63.245  72.128  0.00  0.00    +0.000 C 
ATOM     22  C   UNL     1      60.986  63.728  72.791  0.00  0.00    +0.000 C 
ATOM     23  C   UNL     1      60.617  64.466  72.815  0.00  0.00    +0.000 C 
ATOM     24  C   UNL     1      60.161  64.720  72.175  0.00  0.00    +0.000 C 
ATOM     25  C   UNL     1      60.199  65.261  72.798  0.00  0.00    +0.000 C 
ENDROOT
TORSDOF 0
ENDMDL
MODEL 3
REMARK VINA RESULT:   -13.134      1.344      5.029
REMARK INTER + INTRA:         -13.134
REMARK INTER:                 -13.134
REMARK INTRA:                   0.000
REMARK UNBOUND:                 0.000
ROOT
REMARK  Name = dimethisterone
REMARK                            x       y       z     vdW  Elec       q    Type
REMARK                         _______ _______ _______ _____ _____    ______ ____
ATOM      1  C   UNL     1      61.726  61.926  64.630  0.00  0.00    +0.000 C 
ATOM      2  C   UNL     1      61.529  62.136  65.402  0.00  0.00    +0.000 C 
ATOM      3  C   UNL     1      61.331  62.346  66.175  0.00  0.00    +0.000 C 
ATOM      4  C   UNL     1      61.134  62.556  66.948  0.00  0.00    +0.000 C 
ATOM      5  O   UNL     1      61.071  63.316  66.634  0.00  0.00    +0.000 OA
ATOM      6  C   UNL     1      61.239  61.752  67.102  0.00  0.00    +0.000 C 
ATOM      7  C   UNL     1      61.093  61.624  67.904  0.00  0.00    +0.000 C 
ATOM      8  C   UNL     1      60.898  62.349  68.246  0.00  0.00    +0.000 C 
ATOM      9  C   UNL     1      60.701  62.559  69.019  0.00  0.00    +0.000 C 
ATOM     10  C   UNL     1      60.675  61.984  69.610  0.00  0.00    +0.000 C 
ATOM     11  C   UNL     1      60.478  62.194  70.382  0.00  0.00    +0.000 C 
ATOM     12  C   UNL     1      60.452  61.618  70.973  0.00  0.00    +0.000 C 
ATOM     13  C   UNL     1      60.306  62.980  70.564  0.00  0.00    +0.000 C 
ATOM     14  C   UNL     1      60.109  63.190  71.339  0.00  0.00    +0.000 C 
ATOM     15  C   UNL     1      59.938  63.976  71.520  0.00  0.00    +0.000 C 
ATOM     16  O   UNL     1      59.740  64.186  72.293  0.00  0.00    +0.000 OA
ATOM     17  C   UNL     1      59.963  64.552  70.930  0.00  0.00    +0.000 C 
ATOM     18  C   UNL     1      60.160  64.341  70.158  0.00  0.00    +0.000 C 
ATOM     19  C   UNL     1      60.332  63.556  69.974  0.00  0.00    +0.000 C 
ATOM     20  C   UNL     1      60.358  64.132  69.384  0.00  0.00    +0.000 C 
ATOM     21  C   UNL     1      60.529  63.346  69.202  0.00  0.00    +0.000 C 
ATOM     22  C   UNL     1      60.555  63.922  68.612  0.00  0.00    +0.000 C 
ATOM     23  C   UNL     1      60.752  63.711  67.839  0.00  0.00    +0.000 C 
ATOM     24  C   UNL     1      60.924  62.925  67.656  0.00  0.00    +0.000 C 
ATOM     25  C   UNL     1      60.971  63.438  67.011  0.00  0.00    +0.000 C 
ENDROOT
TORSDOF 0
ENDMDL
MODEL 4
REMARK VINA RESULT:   -12.989      5.162      6.771
REMARK INTER + INTRA:         -12.989
REMARK INTER:                 -12.989
REMARK INTRA:                   0.000
REMARK UNBOUND:                 0.000
ROOT
REMARK  Name = dimethisterone
REMARK                            x       y       z     vdW  Elec       q    Type
REMARK                         _______ _______ _______ _____ _____    ______ ____
ATOM      1  C   UNL     1      66.484  67.778  69.848  0.00  0.00    +0.000 C 
ATOM      2  C   UNL     1      65.881  67.254  70.053  0.00  0.00    +0.000 C 
ATOM      3  C   UNL     1      65.277  66.730  70.257  0.00  0.00    +0.000 C 
ATOM      4  C   UNL     1      64.674  66.206  70.462  0.00  0.00    +0.000 C 
ATOM      5  O   UNL     1      64.928  65.789  69.799  0.00  0.00    +0.000 OA
ATOM      6  C   UNL     1      64.545  66.734  71.084  0.00  0.00    +0.000 C 
ATOM      7  C   UNL     1      63.915  66.448  71.534  0.00  0.00    +0.000 C 
ATOM      8  C   UNL     1      63.654  65.745  71.191  0.00  0.00    +0.000 C 
ATOM      9  C   UNL     1      63.051  65.221  71.396  0.00  0.00    +0.000 C 
ATOM     10  C   UNL     1      62.581  65.370  72.058  0.00  0.00    +0.000 C 
ATOM     11  C   UNL     1      61.978  64.846  72.262  0.00  0.00    +0.000 C 
ATOM     12  C   UNL     1      61.509  64.996  72.925  0.00  0.00    +0.000 C 
ATOM     13  C   UNL     1      61.844  64.173  71.805  0.00  0.00    +0.000 C 
ATOM     14  C   UNL     1      61.240  63.649  72.010  0.00  0.00    +0.000 C 
ATOM     15  C   UNL     1      61.106  62.976  71.553  0.00  0.00    +0.000 C 
ATOM     16  O   UNL     1      60.502  62.453  71.757  0.00  0.00    +0.000 OA
ATOM     17  C   UNL     1      61.575  62.827  70.891  0.00  0.00    +0.000 C 
ATOM     18  C   UNL     1      62.178  63.350  70.686  0.00  0.00    +0.000 C 
ATOM     19  C   UNL     1      62.313  64.024  71.143  0.00  0.00    +0.000 C 
ATOM     20  C   UNL     1      62.782  63.874  70.481  0.00  0.00    +0.000 C 
ATOM     21  C   UNL     1      62.916  64.548  70.938  0.00  0.00    +0.000 C 
ATOM     22  C   UNL     1      63.385  64.398  70.276  0.00  0.00    +0.000 C 
ATOM     23  C   UNL     1      63.988  64.922  70.071  0.00  0.00    +0.000 C 
ATOM     24  C   UNL     1      64.123  65.595  70.529  0.00  0.00    +0.000 C 
ATOM     25  C   UNL     1      64.634  65.519  69.885  0.00  0.00    +0.000 C 
ENDROOT
TORSDOF 0
ENDMDL
MODEL 5
REMARK VINA RESULT:   -12.760      4.934      6.660
REMARK INTER + INTRA:         -12.760
REMARK INTER:                 -12.760
REMARK INTRA:                   0.000
REMARK UNBOUND:                 0.000
ROOT
REMARK  Name = dimethisterone
REMARK                            x       y       z     vdW  Elec       q    Type
REMARK                         _______ _______ _______ _____ _____    ______ ____
ATOM      1  C   UNL     1      60.308  62.375  71.354  0.00  0.00    +0.000 C 
ATOM      2  C   UNL     1      60.908  62.927  71.232  0.00  0.00    +0.000 C 
ATOM      3  C   UNL     1      61.508  63.480  71.111  0.00  0.00    +0.000 C 
ATOM      4  C   UNL     1      62.108  64.033  70.990  0.00  0.00    +0.000 C 
ATOM      5  O   UNL     1      62.207  63.640  70.272  0.00  0.00    +0.000 OA
ATOM      6  C   UNL     1      61.884  64.311  71.734  0.00  0.00    +0.000 C 
ATOM      7  C   UNL     1      62.366  64.954  71.922  0.00  0.00    +0.000 C 
ATOM      8  C   UNL     1      62.888  65.073  71.295  0.00  0.00    +0.000 C 
ATOM      9  C   UNL     1      63.489  65.625  71.174  0.00  0.00    +0.000 C 
ATOM     10  C   UNL     1      63.648  66.195  71.750  0.00  0.00    +0.000 C 
ATOM     11  C   UNL     1      64.248  66.747  71.628  0.00  0.00    +0.000 C 
ATOM     12  C   UNL     1      64.408  67.316  72.204  0.00  0.00    +0.000 C 
ATOM     13  C   UNL     1      64.689  66.731  70.931  0.00  0.00    +0.000 C 
ATOM     14  C   UNL     1      65.290  67.285  70.810  0.00  0.00    +0.000 C 
ATOM     15  C   UNL     1      65.730  67.268  70.113  0.00  0.00    +0.000 C 
ATOM     16  O   UNL     1      66.330  67.821  69.992  0.00  0.00    +0.000 OA
ATOM     17  C   UNL     1      65.571  66.699  69.537  0.00  0.00    +0.000 C 
ATOM     18  C   UNL     1      64.971  66.147  69.659  0.00  0.00    +0.000 C 
ATOM     19  C   UNL     1      64.530  66.162  70.355  0.00  0.00    +0.000 C 
ATOM     20  C   UNL     1      64.371  65.593  69.779  0.00  0.00    +0.000 C 
ATOM     21  C   UNL     1      63.930  65.609  70.476  0.00  0.00    +0.000 C 
ATOM     22  C   UNL     1      63.771  65.041  69.900  0.00  0.00    +0.000 C 
ATOM     23  C   UNL     1      63.170  64.488  70.022  0.00  0.00    +0.000 C 
ATOM     24  C   UNL     1      62.729  64.504  70.719  0.00  0.00    +0.000 C 
ATOM     25  C   UNL     1      62.508  63.906  70.195  0.00  0.00    +0.000 C 
ENDROOT
TORSDOF 0
ENDMDL
MODEL 6
REMARK VINA RESULT:   -12.216      5.365      7.727
REMARK INTER + INTRA:         -12.216
REMARK INTER:                 -12.216
REMARK INTRA:                   0.000
REMARK UNBOUND:                 0.000
ROOT
REMARK  Name = dimethisterone
REMARK                            x       y       z     vdW  Elec       q    Type
REMARK                         _______ _______ _______ _____ _____    ______ ____
ATOM      1  C   UNL     1      60.767  61.565  70.981  0.00  0.00    +0.000 C 
ATOM      2  C   UNL     1      61.039  62.316  71.187  0.00  0.00    +0.000 C 
ATOM      3  C   UNL     1      61.310  63.068  71.392  0.00  0.00    +0.000 C 
ATOM      4  C   UNL     1      61.582  63.819  71.598  0.00  0.00    +0.000 C 
ATOM      5  O   UNL     1      60.885  63.857  72.037  0.00  0.00    +0.000 OA
ATOM      6  C   UNL     1      62.223  63.625  71.116  0.00  0.00    +0.000 C 
ATOM      7  C   UNL     1      62.744  64.264  71.115  0.00  0.00    +0.000 C 
ATOM      8  C   UNL     1      62.426  64.853  71.597  0.00  0.00    +0.000 C 
ATOM      9  C   UNL     1      62.698  65.604  71.803  0.00  0.00    +0.000 C 
ATOM     10  C   UNL     1      63.416  65.880  71.504  0.00  0.00    +0.000 C 
ATOM     11  C   UNL     1      63.688  66.631  71.710  0.00  0.00    +0.000 C 
ATOM     12  C   UNL     1      64.406  66.906  71.412  0.00  0.00    +0.000 C 
ATOM     13  C   UNL     1      63.241  67.107  72.214  0.00  0.00    +0.000 C 
ATOM     14  C   UNL     1      63.513  67.859  72.420  0.00  0.00    +0.000 C 
ATOM     15  C   UNL     1      63.066  68.335  72.924  0.00  0.00    +0.000 C 
ATOM     16  O   UNL     1      63.337  69.086  73.130  0.00  0.00    +0.000 OA
ATOM     17  C   UNL     1      62.348  68.060  73.222  0.00  0.00    +0.000 C 
ATOM     18  C   UNL     1      62.076  67.309  73.017  0.00  0.00    +0.000 C 
ATOM     19  C   UNL     1      62.522  66.832  72.513  0.00  0.00    +0.000 C 
ATOM     20  C   UNL     1      61.804  66.558  72.811  0.00  0.00    +0.000 C 
ATOM     21  C   UNL     1      62.251  66.081  72.307  0.00  0.00    +0.000 C 
ATOM     22  C   UNL     1      61.533  65.806  72.606  0.00  0.00    +0.000 C 
ATOM     23  C   UNL     1      61.261  65.055  72.400  0.00  0.00    +0.000 C 
ATOM     24  C   UNL     1      61.708  64.578  71.895  0.00  0.00    +0.000 C 
ATOM     25  C   UNL     1      61.004  64.231  72.150  0.00  0.00    +0.000 C 
ENDROOT
TORSDOF 0
ENDMDL
MODEL 7
REMARK VINA RESULT:   -12.142      5.277      7.547
REMARK INTER + INTRA:         -12.142
REMARK INTER:                 -12.142
REMARK INTRA:                   0.000
REMARK UNBOUND:                 0.000
ROOT
REMARK  Name = dimethisterone
REMARK                            x       y       z     vdW  Elec       q    Type
REMARK                         _______ _______ _______ _____ _____    ______ ____
ATOM      1  C   UNL     1      60.385  64.991  69.212  0.00  0.00    +0.000 C 
ATOM      2  C   UNL     1      61.123  65.223  69.497  0.00  0.00    +0.000 C 
ATOM      3  C   UNL     1      61.862  65.455  69.782  0.00  0.00    +0.000 C 
ATOM      4  C   UNL     1      62.600  65.687  70.067  0.00  0.00    +0.000 C 
ATOM      5  O   UNL     1      62.388  65.244  70.729  0.00  0.00    +0.000 OA
ATOM      6  C   UNL     1      62.659  66.082  69.345  0.00  0.00    +0.000 C 
ATOM      7  C   UNL     1      63.389  66.465  69.322  0.00  0.00    +0.000 C 
ATOM      8  C   UNL     1      63.782  66.308  70.029  0.00  0.00    +0.000 C 
ATOM      9  C   UNL     1      64.520  66.540  70.314  0.00  0.00    +0.000 C 
ATOM     10  C   UNL     1      65.008  67.020  69.854  0.00  0.00    +0.000 C 
ATOM     11  C   UNL     1      65.747  67.252  70.139  0.00  0.00    +0.000 C 
ATOM     12  C   UNL     1      66.234  67.733  69.678  0.00  0.00    +0.000 C 
ATOM     13  C   UNL     1      65.997  67.003  70.884  0.00  0.00    +0.000 C 
ATOM     14  C   UNL     1      66.737  67.236  71.169  0.00  0.00    +0.000 C 
ATOM     15  C   UNL     1      66.988  66.987  71.914  0.00  0.00    +0.000 C 
ATOM     16  O   UNL     1      67.726  67.219  72.199  0.00  0.00    +0.000 OA
ATOM     17  C   UNL     1      66.501  66.506  72.375  0.00  0.00    +0.000 C 
ATOM     18  C   UNL     1      65.762  66.275  72.090  0.00  0.00    +0.000 C 
ATOM     19  C   UNL     1      65.510  66.523  71.345  0.00  0.00    +0.000 C 
ATOM     20  C   UNL     1      65.023  66.042  71.806  0.00  0.00    +0.000 C 
ATOM     21  C   UNL     1      64.772  66.291  71.060  0.00  0.00    +0.000 C 
ATOM     22  C   UNL     1      64.285  65.810  71.521  0.00  0.00    +0.000 C 
ATOM     23  C   UNL     1      63.546  65.578  71.236  0.00  0.00    +0.000 C 
ATOM     24  C   UNL     1      63.295  65.827  70.490  0.00  0.00    +0.000 C 
ATOM     25  C   UNL     1      62.750  65.349  70.886  0.00  0.00    +0.000 C 
ENDROOT
TORSDOF 0
ENDMDL
MODEL 8
REMARK VINA RESULT:   -11.785      5.197      6.790
REMARK INTER + INTRA:         -11.785
REMARK INTER:                 -11.785
REMARK INTRA:                   0.000
REMARK UNBOUND:                 0.000
ROOT
REMARK  Name = dimethisterone
REMARK                            x       y       z     vdW  Elec       q    Type
REMARK                         _______ _______ _______ _____ _____    ______ ____
ATOM      1  C   UNL     1      62.332  60.148  72.096  0.00  0.00    +0.000 C 
ATOM      2  C   UNL     1      62.021  60.906  72.000  0.00  0.00    +0.000 C 
ATOM      3  C   UNL     1      61.709  61.664  71.904  0.00  0.00    +0.000 C 
ATOM      4  C   UNL     1      61.397  62.421  71.808  0.00  0.00    +0.000 C 
ATOM      5  O   UNL     1      61.209  62.154  71.051  0.00  0.00    +0.000 OA
ATOM      6  C   UNL     1      61.651  62.531  72.586  0.00  0.00    +0.000 C 
ATOM      7  C   UNL     1      61.457  63.300  72.812  0.00  0.00    +0.000 C 
ATOM      8  C   UNL     1      61.083  63.666  72.174  0.00  0.00    +0.000 C 
ATOM      9  C   UNL     1      60.771  64.424  72.078  0.00  0.00    +0.000 C 
ATOM     10  C   UNL     1      60.808  64.967  72.698  0.00  0.00    +0.000 C 
ATOM     11  C   UNL     1      60.496  65.725  72.602  0.00  0.00    +0.000 C 
ATOM     12  C   UNL     1      60.533  66.267  73.222  0.00  0.00    +0.000 C 
ATOM     13  C   UNL     1      60.148  65.939  71.886  0.00  0.00    +0.000 C 
ATOM     14  C   UNL     1      59.836  66.698  71.790  0.00  0.00    +0.000 C 
ATOM     15  C   UNL     1      59.488  66.912  71.074  0.00  0.00    +0.000 C 
ATOM     16  O   UNL     1      59.176  67.670  70.978  0.00  0.00    +0.000 OA
ATOM     17  C   UNL     1      59.451  66.369  70.454  0.00  0.00    +0.000 C 
ATOM     18  C   UNL     1      59.762  65.612  70.550  0.00  0.00    +0.000 C 
ATOM     19  C   UNL     1      60.111  65.396  71.265  0.00  0.00    +0.000 C 
ATOM     20  C   UNL     1      60.074  64.854  70.645  0.00  0.00    +0.000 C 
ATOM     21  C   UNL     1      60.423  64.639  71.362  0.00  0.00    +0.000 C 
ATOM     22  C   UNL     1      60.386  64.096  70.741  0.00  0.00    +0.000 C 
ATOM     23  C   UNL     1      60.697  63.339  70.838  0.00  0.00    +0.000 C 
ATOM     24  C   UNL     1      61.046  63.124  71.554  0.00  0.00    +0.000 C 
ATOM     25  C   UNL     1      61.049  62.525  70.986  0.00  0.00    +0.000 C 
ENDROOT
TORSDOF 0
ENDMDL
