MODEL 1
REMARK VINA RESULT:   -11.991      0.000      0.000
REMARK INTER + INTRA:         -11.991
REMARK INTER:                 -11.991
REMARK INTRA:                   0.000
REMARK UNBOUND:                 0.000
ROOT
REMARK  Name = dimepheptanol
REMARK                            x       y       z     vdW  Elec       q    Type
REMARK                         _______ _______ _______ _____ _____    ______ ____
ATOM      1  C   UNL     1      61.621  61.221  71.569  0.00  0.00    +0.000 C 
ATOM      2  C   UNL     1      61.384  62.007  71.483  0.00  0.00    +0.000 C 
ATOM      3  C   UNL     1      61.093  62.272  70.759  0.00  0.00    +0.000 C 
ATOM      4  O   UNL     1      61.038  61.753  70.120  0.00  0.00    +0.000 OA
ATOM      5  C   UNL     1      60.855  63.059  70.673  0.00  0.00    +0.000 C 
ATOM      6  C   UNL     1      60.618  63.844  70.587  0.00  0.00    +0.000 C 
ATOM      7  C   UNL     1      60.327  64.110  69.862  0.00  0.00    +0.000 C 
ATOM      8  C   UNL     1      60.181  63.803  69.111  0.00  0.00    +0.000 C 
ATOM      9  N   UNL     1      60.090  64.895  69.777  0.00  0.00    +0.000 NA
ATOM     10  C   UNL     1      59.799  65.161  69.053  0.00  0.00    +0.000 C 
ATOM     11  C   UNL     1      60.145  65.415  70.416  0.00  0.00    +0.000 C 
ATOM     12  C   UNL     1      61.055  63.205  71.459  0.00  0.00    +0.000 A 
ATOM     13  C   UNL     1      60.950  63.958  71.779  0.00  0.00    +0.000 A 
ATOM     14  C   UNL     1      61.150  64.105  72.566  0.00  0.00    +0.000 A 
ATOM     15  C   UNL     1      61.455  63.498  73.033  0.00  0.00    +0.000 A 
ATOM     16  C   UNL     1      61.560  62.744  72.715  0.00  0.00    +0.000 A 
ATOM     17  C   UNL     1      61.360  62.598  71.928  0.00  0.00    +0.000 A 
ATOM     18  C   UNL     1      60.655  62.912  69.886  0.00  0.00    +0.000 A 
ATOM     19  C   UNL     1      60.761  62.158  69.567  0.00  0.00    +0.000 A 
ATOM     20  C   UNL     1      60.561  62.012  68.780  0.00  0.00    +0.000 A 
ATOM     21  C   UNL     1      60.255  62.619  68.312  0.00  0.00    +0.000 A 
ATOM     22  C   UNL     1      60.150  63.373  68.631  0.00  0.00    +0.000 A 
ATOM     23  C   UNL     1      60.350  63.519  69.418  0.00  0.00    +0.000 A 
ENDROOT
TORSDOF 0
ENDMDL
MODEL 2
REMARK VINA RESULT:   -11.584      1.219      2.934
REMARK INTER + INTRA:         -11.584
REMARK INTER:                 -11.584
REMARK INTRA:                   0.000
REMARK UNBOUND:                 0.000
ROOT
REMARK  Name = dimepheptanol
REMARK                            x       y       z     vdW  Elec       q    Type
REMARK                         _______ _______ _______ _____ _____    ______ ____
ATOM      1  C   UNL     1      60.141  61.277  70.601  0.00  0.00    +0.000 C 
ATOM      2  C   UNL     1      60.530  61.934  70.287  0.00  0.00    +0.000 C 
ATOM      3  C   UNL     1      60.875  62.487  70.790  0.00  0.00    +0.000 C 
ATOM      4  O   UNL     1      60.833  62.386  71.608  0.00  0.00    +0.000 OA
ATOM      5  C   UNL     1      61.264  63.145  70.476  0.00  0.00    +0.000 C 
ATOM      6  C   UNL     1      61.653  63.801  70.162  0.00  0.00    +0.000 C 
ATOM      7  C   UNL     1      61.999  64.355  70.666  0.00  0.00    +0.000 C 
ATOM      8  C   UNL     1      62.089  64.474  71.478  0.00  0.00    +0.000 C 
ATOM      9  N   UNL     1      62.387  65.012  70.352  0.00  0.00    +0.000 NA
ATOM     10  C   UNL     1      62.733  65.566  70.855  0.00  0.00    +0.000 C 
ATOM     11  C   UNL     1      62.429  65.113  69.534  0.00  0.00    +0.000 C 
ATOM     12  C   UNL     1      61.089  62.884  69.714  0.00  0.00    +0.000 A 
ATOM     13  C   UNL     1      61.338  63.321  69.061  0.00  0.00    +0.000 A 
ATOM     14  C   UNL     1      61.163  63.060  68.298  0.00  0.00    +0.000 A 
ATOM     15  C   UNL     1      60.739  62.362  68.189  0.00  0.00    +0.000 A 
ATOM     16  C   UNL     1      60.490  61.923  68.842  0.00  0.00    +0.000 A 
ATOM     17  C   UNL     1      60.665  62.184  69.605  0.00  0.00    +0.000 A 
ATOM     18  C   UNL     1      61.440  63.406  71.240  0.00  0.00    +0.000 A 
ATOM     19  C   UNL     1      61.190  62.968  71.893  0.00  0.00    +0.000 A 
ATOM     20  C   UNL     1      61.366  63.229  72.655  0.00  0.00    +0.000 A 
ATOM     21  C   UNL     1      61.790  63.929  72.765  0.00  0.00    +0.000 A 
ATOM     22  C   UNL     1      62.039  64.366  72.111  0.00  0.00    +0.000 A 
ATOM     23  C   UNL     1      61.863  64.105  71.349  0.00  0.00    +0.000 A 
ENDROOT
TORSDOF 0
ENDMDL
MODEL 3
REMARK VINA RESULT:   -11.545      0.976      2.218
REMARK INTER + INTRA:         -11.545
REMARK INTER:                 -11.545
REMARK INTRA:                   0.000
REMARK UNBOUND:                 0.000
ROOT
REMARK  Name = dimepheptanol
REMARK                            x       y       z     vdW  Elec       q    Type
REMARK                         _______ _______ _______ _____ _____    ______ ____
ATOM      1  C   UNL     1      61.094  64.592  72.913  0.00  0.00    +0.000 C 
ATOM      2  C   UNL     1      61.069  64.044  72.297  0.00  0.00    +0.000 C 
ATOM      3  C   UNL     1      60.777  64.268  71.559  0.00  0.00    +0.000 C 
ATOM      4  O   UNL     1      60.508  65.038  71.436  0.00  0.00    +0.000 OA
ATOM      5  C   UNL     1      60.752  63.719  70.941  0.00  0.00    +0.000 C 
ATOM      6  C   UNL     1      60.728  63.172  70.325  0.00  0.00    +0.000 C 
ATOM      7  C   UNL     1      60.435  63.396  69.586  0.00  0.00    +0.000 C 
ATOM      8  C   UNL     1      60.123  64.071  69.229  0.00  0.00    +0.000 C 
ATOM      9  N   UNL     1      60.411  62.848  68.970  0.00  0.00    +0.000 NA
ATOM     10  C   UNL     1      60.118  63.071  68.232  0.00  0.00    +0.000 C 
ATOM     11  C   UNL     1      60.679  62.078  69.092  0.00  0.00    +0.000 C 
ATOM     12  C   UNL     1      61.076  63.146  71.437  0.00  0.00    +0.000 A 
ATOM     13  C   UNL     1      61.216  62.385  71.152  0.00  0.00    +0.000 A 
ATOM     14  C   UNL     1      61.540  61.811  71.649  0.00  0.00    +0.000 A 
ATOM     15  C   UNL     1      61.723  61.999  72.431  0.00  0.00    +0.000 A 
ATOM     16  C   UNL     1      61.582  62.760  72.717  0.00  0.00    +0.000 A 
ATOM     17  C   UNL     1      61.259  63.334  72.220  0.00  0.00    +0.000 A 
ATOM     18  C   UNL     1      60.428  64.294  70.444  0.00  0.00    +0.000 A 
ATOM     19  C   UNL     1      60.288  65.055  70.731  0.00  0.00    +0.000 A 
ATOM     20  C   UNL     1      59.964  65.629  70.234  0.00  0.00    +0.000 A 
ATOM     21  C   UNL     1      59.781  65.441  69.451  0.00  0.00    +0.000 A 
ATOM     22  C   UNL     1      59.922  64.680  69.166  0.00  0.00    +0.000 A 
ATOM     23  C   UNL     1      60.245  64.107  69.663  0.00  0.00    +0.000 A 
ENDROOT
TORSDOF 0
ENDMDL
MODEL 4
REMARK VINA RESULT:   -11.374      0.834      2.653
REMARK INTER + INTRA:         -11.374
REMARK INTER:                 -11.374
REMARK INTRA:                   0.000
REMARK UNBOUND:                 0.000
ROOT
REMARK  Name = dimepheptanol
REMARK                            x       y       z     vdW  Elec       q    Type
REMARK                         _______ _______ _______ _____ _____    ______ ____
ATOM      1  C   UNL     1      61.127  61.370  71.362  0.00  0.00    +0.000 C 
ATOM      2  C   UNL     1      60.870  62.004  70.900  0.00  0.00    +0.000 C 
ATOM      3  C   UNL     1      60.719  62.734  71.251  0.00  0.00    +0.000 C 
ATOM      4  O   UNL     1      60.825  62.833  72.063  0.00  0.00    +0.000 OA
ATOM      5  C   UNL     1      60.461  63.369  70.789  0.00  0.00    +0.000 C 
ATOM      6  C   UNL     1      60.203  64.002  70.328  0.00  0.00    +0.000 C 
ATOM      7  C   UNL     1      60.052  64.733  70.679  0.00  0.00    +0.000 C 
ATOM      8  C   UNL     1      60.080  65.069  71.432  0.00  0.00    +0.000 C 
ATOM      9  N   UNL     1      59.794  65.367  70.218  0.00  0.00    +0.000 NA
ATOM     10  C   UNL     1      59.643  66.097  70.569  0.00  0.00    +0.000 C 
ATOM     11  C   UNL     1      59.688  65.269  69.406  0.00  0.00    +0.000 C 
ATOM     12  C   UNL     1      60.486  62.891  70.118  0.00  0.00    +0.000 A 
ATOM     13  C   UNL     1      60.276  63.200  69.383  0.00  0.00    +0.000 A 
ATOM     14  C   UNL     1      60.302  62.721  68.711  0.00  0.00    +0.000 A 
ATOM     15  C   UNL     1      60.538  61.934  68.775  0.00  0.00    +0.000 A 
ATOM     16  C   UNL     1      60.748  61.624  69.511  0.00  0.00    +0.000 A 
ATOM     17  C   UNL     1      60.723  62.102  70.182  0.00  0.00    +0.000 A 
ATOM     18  C   UNL     1      60.435  63.848  71.462  0.00  0.00    +0.000 A 
ATOM     19  C   UNL     1      60.645  63.538  72.197  0.00  0.00    +0.000 A 
ATOM     20  C   UNL     1      60.619  64.016  72.868  0.00  0.00    +0.000 A 
ATOM     21  C   UNL     1      60.383  64.805  72.805  0.00  0.00    +0.000 A 
ATOM     22  C   UNL     1      60.173  65.114  72.069  0.00  0.00    +0.000 A 
ATOM     23  C   UNL     1      60.199  64.635  71.398  0.00  0.00    +0.000 A 
ENDROOT
TORSDOF 0
ENDMDL
MODEL 5
REMARK VINA RESULT:   -11.258      2.615      3.305
REMARK INTER + INTRA:         -11.258
REMARK INTER:                 -11.258
REMARK INTRA:                   0.000
REMARK UNBOUND:                 0.000
ROOT
REMARK  Name = dimepheptanol
REMARK                            x       y       z     vdW  Elec       q    Type
REMARK                         _______ _______ _______ _____ _____    ______ ____
ATOM      1  C   UNL     1      61.692  62.746  70.582  0.00  0.00    +0.000 C 
ATOM      2  C   UNL     1      61.792  63.421  71.045  0.00  0.00    +0.000 C 
ATOM      3  C   UNL     1      62.407  63.945  70.883  0.00  0.00    +0.000 C 
ATOM      4  O   UNL     1      62.923  63.795  70.256  0.00  0.00    +0.000 OA
ATOM      5  C   UNL     1      62.508  64.621  71.347  0.00  0.00    +0.000 C 
ATOM      6  C   UNL     1      62.608  65.296  71.810  0.00  0.00    +0.000 C 
ATOM      7  C   UNL     1      63.224  65.820  71.647  0.00  0.00    +0.000 C 
ATOM      8  C   UNL     1      63.842  65.891  71.104  0.00  0.00    +0.000 C 
ATOM      9  N   UNL     1      63.324  66.495  72.110  0.00  0.00    +0.000 NA
ATOM     10  C   UNL     1      63.939  67.019  71.947  0.00  0.00    +0.000 C 
ATOM     11  C   UNL     1      62.809  66.645  72.737  0.00  0.00    +0.000 C 
ATOM     12  C   UNL     1      61.856  64.405  71.802  0.00  0.00    +0.000 A 
ATOM     13  C   UNL     1      61.616  64.881  72.431  0.00  0.00    +0.000 A 
ATOM     14  C   UNL     1      60.963  64.665  72.887  0.00  0.00    +0.000 A 
ATOM     15  C   UNL     1      60.550  63.973  72.714  0.00  0.00    +0.000 A 
ATOM     16  C   UNL     1      60.789  63.496  72.084  0.00  0.00    +0.000 A 
ATOM     17  C   UNL     1      61.442  63.712  71.628  0.00  0.00    +0.000 A 
ATOM     18  C   UNL     1      63.161  64.837  70.890  0.00  0.00    +0.000 A 
ATOM     19  C   UNL     1      63.400  64.360  70.261  0.00  0.00    +0.000 A 
ATOM     20  C   UNL     1      64.053  64.576  69.805  0.00  0.00    +0.000 A 
ATOM     21  C   UNL     1      64.467  65.269  69.979  0.00  0.00    +0.000 A 
ATOM     22  C   UNL     1      64.227  65.745  70.608  0.00  0.00    +0.000 A 
ATOM     23  C   UNL     1      63.574  65.529  71.064  0.00  0.00    +0.000 A 
ENDROOT
TORSDOF 0
ENDMDL
MODEL 6
REMARK VINA RESULT:   -11.181      2.497      3.863
REMARK INTER + INTRA:         -11.181
REMARK INTER:                 -11.181
REMARK INTRA:                   0.000
REMARK UNBOUND:                 0.000
ROOT
REMARK  Name = dimepheptanol
REMARK                            x       y       z     vdW  Elec       q    Type
REMARK                         _______ _______ _______ _____ _____    ______ ____
ATOM      1  C   UNL     1      60.346  64.658  73.175  0.00  0.00    +0.000 C 
ATOM      2  C   UNL     1      60.922  64.456  72.619  0.00  0.00    +0.000 C 
ATOM      3  C   UNL     1      61.536  64.980  72.454  0.00  0.00    +0.000 C 
ATOM      4  O   UNL     1      61.576  65.706  72.844  0.00  0.00    +0.000 OA
ATOM      5  C   UNL     1      62.113  64.778  71.898  0.00  0.00    +0.000 C 
ATOM      6  C   UNL     1      62.688  64.576  71.342  0.00  0.00    +0.000 C 
ATOM      7  C   UNL     1      63.303  65.101  71.177  0.00  0.00    +0.000 C 
ATOM      8  C   UNL     1      63.553  65.850  71.419  0.00  0.00    +0.000 C 
ATOM      9  N   UNL     1      63.879  64.900  70.621  0.00  0.00    +0.000 NA
ATOM     10  C   UNL     1      64.493  65.424  70.456  0.00  0.00    +0.000 C 
ATOM     11  C   UNL     1      63.839  64.173  70.231  0.00  0.00    +0.000 C 
ATOM     12  C   UNL     1      61.735  64.057  71.768  0.00  0.00    +0.000 A 
ATOM     13  C   UNL     1      62.044  63.521  71.223  0.00  0.00    +0.000 A 
ATOM     14  C   UNL     1      61.666  62.799  71.093  0.00  0.00    +0.000 A 
ATOM     15  C   UNL     1      60.980  62.613  71.510  0.00  0.00    +0.000 A 
ATOM     16  C   UNL     1      60.670  63.149  72.056  0.00  0.00    +0.000 A 
ATOM     17  C   UNL     1      61.047  63.870  72.185  0.00  0.00    +0.000 A 
ATOM     18  C   UNL     1      62.491  65.501  72.027  0.00  0.00    +0.000 A 
ATOM     19  C   UNL     1      62.181  66.036  72.573  0.00  0.00    +0.000 A 
ATOM     20  C   UNL     1      62.559  66.758  72.703  0.00  0.00    +0.000 A 
ATOM     21  C   UNL     1      63.247  66.945  72.286  0.00  0.00    +0.000 A 
ATOM     22  C   UNL     1      63.555  66.409  71.740  0.00  0.00    +0.000 A 
ATOM     23  C   UNL     1      63.178  65.687  71.611  0.00  0.00    +0.000 A 
ENDROOT
TORSDOF 0
ENDMDL
MODEL 7
REMARK VINA RESULT:   -11.121      3.548      4.475
REMARK INTER + INTRA:         -11.121
REMARK INTER:                 -11.121
REMARK INTRA:                   0.000
REMARK UNBOUND:                 0.000
ROOT
REMARK  Name = dimepheptanol
REMARK                            x       y       z     vdW  Elec       q    Type
REMARK                         _______ _______ _______ _____ _____    ______ ____
ATOM      1  C   UNL     1      64.627  64.641  70.142  0.00  0.00    +0.000 C 
ATOM      2  C   UNL     1      64.396  65.286  70.601  0.00  0.00    +0.000 C 
ATOM      3  C   UNL     1      63.684  65.263  71.016  0.00  0.00    +0.000 C 
ATOM      4  O   UNL     1      63.202  64.594  70.973  0.00  0.00    +0.000 OA
ATOM      5  C   UNL     1      63.452  65.909  71.475  0.00  0.00    +0.000 C 
ATOM      6  C   UNL     1      63.221  66.555  71.934  0.00  0.00    +0.000 C 
ATOM      7  C   UNL     1      62.508  66.531  72.349  0.00  0.00    +0.000 C 
ATOM      8  C   UNL     1      61.882  66.006  72.463  0.00  0.00    +0.000 C 
ATOM      9  N   UNL     1      62.276  67.177  72.807  0.00  0.00    +0.000 NA
ATOM     10  C   UNL     1      61.565  67.154  73.222  0.00  0.00    +0.000 C 
ATOM     11  C   UNL     1      62.758  67.845  72.850  0.00  0.00    +0.000 C 
ATOM     12  C   UNL     1      64.140  66.308  71.261  0.00  0.00    +0.000 A 
ATOM     13  C   UNL     1      64.285  67.067  71.550  0.00  0.00    +0.000 A 
ATOM     14  C   UNL     1      64.974  67.467  71.335  0.00  0.00    +0.000 A 
ATOM     15  C   UNL     1      65.519  67.107  70.831  0.00  0.00    +0.000 A 
ATOM     16  C   UNL     1      65.375  66.348  70.541  0.00  0.00    +0.000 A 
ATOM     17  C   UNL     1      64.686  65.949  70.756  0.00  0.00    +0.000 A 
ATOM     18  C   UNL     1      62.762  65.510  71.690  0.00  0.00    +0.000 A 
ATOM     19  C   UNL     1      62.618  64.750  71.400  0.00  0.00    +0.000 A 
ATOM     20  C   UNL     1      61.929  64.351  71.614  0.00  0.00    +0.000 A 
ATOM     21  C   UNL     1      61.384  64.711  72.119  0.00  0.00    +0.000 A 
ATOM     22  C   UNL     1      61.528  65.469  72.409  0.00  0.00    +0.000 A 
ATOM     23  C   UNL     1      62.218  65.869  72.194  0.00  0.00    +0.000 A 
ENDROOT
TORSDOF 0
ENDMDL
MODEL 8
REMARK VINA RESULT:   -11.065      1.559      2.392
REMARK INTER + INTRA:         -11.065
REMARK INTER:                 -11.065
REMARK INTRA:                   0.000
REMARK UNBOUND:                 0.000
ROOT
REMARK  Name = dimepheptanol
REMARK                            x       y       z     vdW  Elec       q    Type
REMARK                         _______ _______ _______ _____ _____    ______ ____
ATOM      1  C   UNL     1      62.055  64.215  72.549  0.00  0.00    +0.000 C 
ATOM      2  C   UNL     1      62.069  64.196  71.724  0.00  0.00    +0.000 C 
ATOM      3  C   UNL     1      61.660  63.607  71.318  0.00  0.00    +0.000 C 
ATOM      4  O   UNL     1      61.236  63.035  71.735  0.00  0.00    +0.000 OA
ATOM      5  C   UNL     1      61.675  63.589  70.492  0.00  0.00    +0.000 C 
ATOM      6  C   UNL     1      61.689  63.570  69.667  0.00  0.00    +0.000 C 
ATOM      7  C   UNL     1      61.280  62.980  69.261  0.00  0.00    +0.000 C 
ATOM      8  C   UNL     1      60.806  62.328  69.439  0.00  0.00    +0.000 C 
ATOM      9  N   UNL     1      61.294  62.962  68.436  0.00  0.00    +0.000 NA
ATOM     10  C   UNL     1      60.885  62.373  68.030  0.00  0.00    +0.000 C 
ATOM     11  C   UNL     1      61.718  63.534  68.019  0.00  0.00    +0.000 C 
ATOM     12  C   UNL     1      62.155  64.258  70.486  0.00  0.00    +0.000 A 
ATOM     13  C   UNL     1      62.408  64.578  69.769  0.00  0.00    +0.000 A 
ATOM     14  C   UNL     1      62.889  65.248  69.762  0.00  0.00    +0.000 A 
ATOM     15  C   UNL     1      63.117  65.599  70.473  0.00  0.00    +0.000 A 
ATOM     16  C   UNL     1      62.864  65.280  71.191  0.00  0.00    +0.000 A 
ATOM     17  C   UNL     1      62.383  64.610  71.197  0.00  0.00    +0.000 A 
ATOM     18  C   UNL     1      61.193  62.918  70.498  0.00  0.00    +0.000 A 
ATOM     19  C   UNL     1      60.940  62.599  71.216  0.00  0.00    +0.000 A 
ATOM     20  C   UNL     1      60.459  61.929  71.223  0.00  0.00    +0.000 A 
ATOM     21  C   UNL     1      60.231  61.577  70.511  0.00  0.00    +0.000 A 
ATOM     22  C   UNL     1      60.485  61.897  69.794  0.00  0.00    +0.000 A 
ATOM     23  C   UNL     1      60.965  62.567  69.788  0.00  0.00    +0.000 A 
ENDROOT
TORSDOF 0
ENDMDL
MODEL 9
REMARK VINA RESULT:   -11.010      1.278      2.827
REMARK INTER + INTRA:         -11.010
REMARK INTER:                 -11.010
REMARK INTRA:                   0.000
REMARK UNBOUND:                 0.000
ROOT
REMARK  Name = dimepheptanol
REMARK                            x       y       z     vdW  Elec       q    Type
REMARK                         _______ _______ _______ _____ _____    ______ ____
ATOM      1  C   UNL     1      60.543  63.246  68.241  0.00  0.00    +0.000 C 
ATOM      2  C   UNL     1      60.435  63.324  69.055  0.00  0.00    +0.000 C 
ATOM      3  C   UNL     1      60.215  64.052  69.374  0.00  0.00    +0.000 C 
ATOM      4  O   UNL     1      60.102  64.703  68.880  0.00  0.00    +0.000 OA
ATOM      5  C   UNL     1      60.107  64.130  70.189  0.00  0.00    +0.000 C 
ATOM      6  C   UNL     1      59.999  64.207  71.004  0.00  0.00    +0.000 C 
ATOM      7  C   UNL     1      59.779  64.936  71.322  0.00  0.00    +0.000 C 
ATOM      8  C   UNL     1      59.614  65.698  71.053  0.00  0.00    +0.000 C 
ATOM      9  N   UNL     1      59.671  65.014  72.137  0.00  0.00    +0.000 NA
ATOM     10  C   UNL     1      59.451  65.741  72.455  0.00  0.00    +0.000 C 
ATOM     11  C   UNL     1      59.784  64.363  72.631  0.00  0.00    +0.000 C 
ATOM     12  C   UNL     1      60.299  63.335  70.291  0.00  0.00    +0.000 A 
ATOM     13  C   UNL     1      60.301  63.004  71.046  0.00  0.00    +0.000 A 
ATOM     14  C   UNL     1      60.493  62.208  71.148  0.00  0.00    +0.000 A 
ATOM     15  C   UNL     1      60.683  61.743  70.494  0.00  0.00    +0.000 A 
ATOM     16  C   UNL     1      60.680  62.073  69.737  0.00  0.00    +0.000 A 
ATOM     17  C   UNL     1      60.488  62.869  69.636  0.00  0.00    +0.000 A 
ATOM     18  C   UNL     1      59.915  64.927  70.088  0.00  0.00    +0.000 A 
ATOM     19  C   UNL     1      59.913  65.257  69.332  0.00  0.00    +0.000 A 
ATOM     20  C   UNL     1      59.721  66.053  69.230  0.00  0.00    +0.000 A 
ATOM     21  C   UNL     1      59.531  66.518  69.885  0.00  0.00    +0.000 A 
ATOM     22  C   UNL     1      59.534  66.187  70.640  0.00  0.00    +0.000 A 
ATOM     23  C   UNL     1      59.726  65.391  70.742  0.00  0.00    +0.000 A 
ENDROOT
TORSDOF 0
ENDMDL
