MODEL 1
REMARK VINA RESULT:    -3.494      0.000      0.000
REMARK INTER + INTRA:          -3.494
REMARK INTER:                  -3.494
REMARK INTRA:                   0.000
REMARK UNBOUND:                 0.000
ROOT
REMARK  Name = dimercaprol
REMARK                            x       y       z     vdW  Elec       q    Type
REMARK                         _______ _______ _______ _____ _____    ______ ____
ATOM      1  O   UNL     1      62.327  61.593  63.572  0.00  0.00    +0.000 OA
ATOM      2  C   UNL     1      62.420  62.065  64.242  0.00  0.00    +0.000 C 
ATOM      3  C   UNL     1      61.867  62.028  64.852  0.00  0.00    +0.000 C 
ATOM      4  S   UNL     1      61.220  61.520  64.793  0.00  0.00    +0.000 S 
ATOM      5  C   UNL     1      61.960  62.501  65.523  0.00  0.00    +0.000 C 
ATOM      6  S   UNL     1      61.407  62.464  66.133  0.00  0.00    +0.000 S 
ENDROOT
TORSDOF 0
ENDMDL
MODEL 2
REMARK VINA RESULT:    -3.266      1.650      1.999
REMARK INTER + INTRA:          -3.266
REMARK INTER:                  -3.266
REMARK INTRA:                   0.000
REMARK UNBOUND:                 0.000
ROOT
REMARK  Name = dimercaprol
REMARK                            x       y       z     vdW  Elec       q    Type
REMARK                         _______ _______ _______ _____ _____    ______ ____
ATOM      1  O   UNL     1      61.051  62.616  66.803  0.00  0.00    +0.000 OA
ATOM      2  C   UNL     1      61.662  62.730  66.261  0.00  0.00    +0.000 C 
ATOM      3  C   UNL     1      61.680  62.293  65.562  0.00  0.00    +0.000 C 
ATOM      4  S   UNL     1      61.087  61.741  65.404  0.00  0.00    +0.000 S 
ATOM      5  C   UNL     1      62.291  62.408  65.019  0.00  0.00    +0.000 C 
ATOM      6  S   UNL     1      62.309  61.971  64.320  0.00  0.00    +0.000 S 
ENDROOT
TORSDOF 0
ENDMDL
MODEL 3
REMARK VINA RESULT:    -3.192     16.982     17.136
REMARK INTER + INTRA:          -3.192
REMARK INTER:                  -3.192
REMARK INTRA:                   0.000
REMARK UNBOUND:                 0.000
ROOT
REMARK  Name = dimercaprol
REMARK                            x       y       z     vdW  Elec       q    Type
REMARK                         _______ _______ _______ _____ _____    ______ ____
ATOM      1  O   UNL     1      66.348  76.619  60.427  0.00  0.00    +0.000 OA
ATOM      2  C   UNL     1      65.753  77.050  60.052  0.00  0.00    +0.000 C 
ATOM      3  C   UNL     1      65.917  77.794  59.738  0.00  0.00    +0.000 C 
ATOM      4  S   UNL     1      66.678  78.108  59.798  0.00  0.00    +0.000 S 
ATOM      5  C   UNL     1      65.321  78.225  59.363  0.00  0.00    +0.000 C 
ATOM      6  S   UNL     1      65.486  78.969  59.048  0.00  0.00    +0.000 S 
ENDROOT
TORSDOF 0
ENDMDL
MODEL 4
REMARK VINA RESULT:    -3.012      2.702      2.939
REMARK INTER + INTRA:          -3.012
REMARK INTER:                  -3.012
REMARK INTRA:                   0.000
REMARK UNBOUND:                 0.000
ROOT
REMARK  Name = dimercaprol
REMARK                            x       y       z     vdW  Elec       q    Type
REMARK                         _______ _______ _______ _____ _____    ______ ____
ATOM      1  O   UNL     1      59.279  61.881  65.954  0.00  0.00    +0.000 OA
ATOM      2  C   UNL     1      59.391  62.286  66.664  0.00  0.00    +0.000 C 
ATOM      3  C   UNL     1      60.144  62.544  66.877  0.00  0.00    +0.000 C 
ATOM      4  S   UNL     1      60.787  62.398  66.381  0.00  0.00    +0.000 S 
ATOM      5  C   UNL     1      60.256  62.950  67.587  0.00  0.00    +0.000 C 
ATOM      6  S   UNL     1      61.009  63.208  67.801  0.00  0.00    +0.000 S 
ENDROOT
TORSDOF 0
ENDMDL
MODEL 5
REMARK VINA RESULT:    -2.892     24.704     24.950
REMARK INTER + INTRA:          -2.892
REMARK INTER:                  -2.892
REMARK INTRA:                   0.000
REMARK UNBOUND:                 0.000
ROOT
REMARK  Name = dimercaprol
REMARK                            x       y       z     vdW  Elec       q    Type
REMARK                         _______ _______ _______ _____ _____    ______ ____
ATOM      1  O   UNL     1      69.986  78.493  49.639  0.00  0.00    +0.000 OA
ATOM      2  C   UNL     1      70.697  78.365  49.241  0.00  0.00    +0.000 C 
ATOM      3  C   UNL     1      71.267  78.959  49.216  0.00  0.00    +0.000 C 
ATOM      4  S   UNL     1      71.129  79.682  49.588  0.00  0.00    +0.000 S 
ATOM      5  C   UNL     1      71.979  78.831  48.817  0.00  0.00    +0.000 C 
ATOM      6  S   UNL     1      72.551  79.425  48.792  0.00  0.00    +0.000 S 
ENDROOT
TORSDOF 0
ENDMDL
MODEL 6
REMARK VINA RESULT:    -2.890      7.849      8.309
REMARK INTER + INTRA:          -2.890
REMARK INTER:                  -2.890
REMARK INTRA:                   0.000
REMARK UNBOUND:                 0.000
ROOT
REMARK  Name = dimercaprol
REMARK                            x       y       z     vdW  Elec       q    Type
REMARK                         _______ _______ _______ _____ _____    ______ ____
ATOM      1  O   UNL     1      66.268  67.916  69.985  0.00  0.00    +0.000 OA
ATOM      2  C   UNL     1      65.769  67.278  69.826  0.00  0.00    +0.000 C 
ATOM      3  C   UNL     1      65.475  66.821  70.445  0.00  0.00    +0.000 C 
ATOM      4  S   UNL     1      65.677  67.001  71.225  0.00  0.00    +0.000 S 
ATOM      5  C   UNL     1      64.976  66.183  70.286  0.00  0.00    +0.000 C 
ATOM      6  S   UNL     1      64.680  65.725  70.906  0.00  0.00    +0.000 S 
ENDROOT
TORSDOF 0
ENDMDL
MODEL 7
REMARK VINA RESULT:    -2.833     11.262     11.489
REMARK INTER + INTRA:          -2.833
REMARK INTER:                  -2.833
REMARK INTRA:                   0.000
REMARK UNBOUND:                 0.000
ROOT
REMARK  Name = dimercaprol
REMARK                            x       y       z     vdW  Elec       q    Type
REMARK                         _______ _______ _______ _____ _____    ______ ____
ATOM      1  O   UNL     1      65.176  62.580  53.808  0.00  0.00    +0.000 OA
ATOM      2  C   UNL     1      64.634  62.074  54.168  0.00  0.00    +0.000 C 
ATOM      3  C   UNL     1      64.283  61.468  53.733  0.00  0.00    +0.000 C 
ATOM      4  S   UNL     1      64.475  61.367  52.937  0.00  0.00    +0.000 S 
ATOM      5  C   UNL     1      63.740  60.961  54.094  0.00  0.00    +0.000 C 
ATOM      6  S   UNL     1      63.390  60.354  53.658  0.00  0.00    +0.000 S 
ENDROOT
TORSDOF 0
ENDMDL
MODEL 8
REMARK VINA RESULT:    -2.816     11.337     11.510
REMARK INTER + INTRA:          -2.816
REMARK INTER:                  -2.816
REMARK INTRA:                   0.000
REMARK UNBOUND:                 0.000
ROOT
REMARK  Name = dimercaprol
REMARK                            x       y       z     vdW  Elec       q    Type
REMARK                         _______ _______ _______ _____ _____    ______ ____
ATOM      1  O   UNL     1      63.487  60.340  53.682  0.00  0.00    +0.000 OA
ATOM      2  C   UNL     1      63.825  60.970  54.093  0.00  0.00    +0.000 C 
ATOM      3  C   UNL     1      64.263  61.539  53.689  0.00  0.00    +0.000 C 
ATOM      4  S   UNL     1      64.364  61.479  52.873  0.00  0.00    +0.000 S 
ATOM      5  C   UNL     1      64.601  62.170  54.101  0.00  0.00    +0.000 C 
ATOM      6  S   UNL     1      65.039  62.739  53.697  0.00  0.00    +0.000 S 
ENDROOT
TORSDOF 0
ENDMDL
MODEL 9
REMARK VINA RESULT:    -2.602      8.950      9.143
REMARK INTER + INTRA:          -2.602
REMARK INTER:                  -2.602
REMARK INTRA:                   0.000
REMARK UNBOUND:                 0.000
ROOT
REMARK  Name = dimercaprol
REMARK                            x       y       z     vdW  Elec       q    Type
REMARK                         _______ _______ _______ _____ _____    ______ ____
ATOM      1  O   UNL     1      60.161  67.985  70.931  0.00  0.00    +0.000 OA
ATOM      2  C   UNL     1      60.409  67.554  71.589  0.00  0.00    +0.000 C 
ATOM      3  C   UNL     1      59.854  67.188  72.076  0.00  0.00    +0.000 C 
ATOM      4  S   UNL     1      59.049  67.253  71.907  0.00  0.00    +0.000 S 
ATOM      5  C   UNL     1      60.103  66.757  72.735  0.00  0.00    +0.000 C 
ATOM      6  S   UNL     1      59.547  66.391  73.223  0.00  0.00    +0.000 S 
ENDROOT
TORSDOF 0
ENDMDL
