MODEL 1
REMARK VINA RESULT:   -12.146      0.000      0.000
REMARK INTER + INTRA:         -12.146
REMARK INTER:                 -12.146
REMARK INTRA:                   0.000
REMARK UNBOUND:                 0.000
ROOT
REMARK  Name = dimyristoylphosphatidylglycerol
REMARK                            x       y       z     vdW  Elec       q    Type
REMARK                         _______ _______ _______ _____ _____    ______ ____
ATOM      1  C   UNL     1      57.695  78.491  49.091  0.00  0.00    +0.000 C 
ATOM      2  C   UNL     1      57.783  77.694  48.902  0.00  0.00    +0.000 C 
ATOM      3  C   UNL     1      58.108  77.172  49.452  0.00  0.00    +0.000 C 
ATOM      4  C   UNL     1      58.197  76.374  49.263  0.00  0.00    +0.000 C 
ATOM      5  C   UNL     1      58.521  75.853  49.813  0.00  0.00    +0.000 C 
ATOM      6  C   UNL     1      58.609  75.055  49.624  0.00  0.00    +0.000 C 
ATOM      7  C   UNL     1      58.934  74.533  50.175  0.00  0.00    +0.000 C 
ATOM      8  C   UNL     1      59.023  73.736  49.986  0.00  0.00    +0.000 C 
ATOM      9  C   UNL     1      59.347  73.214  50.536  0.00  0.00    +0.000 C 
ATOM     10  C   UNL     1      59.436  72.416  50.347  0.00  0.00    +0.000 C 
ATOM     11  C   UNL     1      59.761  71.894  50.898  0.00  0.00    +0.000 C 
ATOM     12  C   UNL     1      59.849  71.097  50.708  0.00  0.00    +0.000 C 
ATOM     13  C   UNL     1      60.174  70.575  51.259  0.00  0.00    +0.000 C 
ATOM     14  C   UNL     1      60.262  69.778  51.070  0.00  0.00    +0.000 C 
ATOM     15  O   UNL     1      60.025  69.501  50.329  0.00  0.00    +0.000 OA
ATOM     16  O   UNL     1      60.587  69.256  51.620  0.00  0.00    +0.000 OA
ATOM     17  C   UNL     1      60.675  68.458  51.431  0.00  0.00    +0.000 C 
ATOM     18  C   UNL     1      61.000  67.936  51.982  0.00  0.00    +0.000 C 
ATOM     19  C   UNL     1      61.237  68.213  52.722  0.00  0.00    +0.000 C 
ATOM     20  O   UNL     1      61.561  67.692  53.273  0.00  0.00    +0.000 OA
ATOM     21  P   UNL     1      61.798  67.969  54.013  0.00  0.00    +0.000 P 
ATOM     22  O   UNL     1      62.037  67.208  54.222  0.00  0.00    +0.000 OA
ATOM     23  O   UNL     1      61.559  68.731  53.805  0.00  0.00    +0.000 OA
ATOM     24  O   UNL     1      62.035  68.246  54.754  0.00  0.00    +0.000 OA
ATOM     25  C   UNL     1      61.946  69.044  54.943  0.00  0.00    +0.000 C 
ATOM     26  C   UNL     1      62.183  69.320  55.683  0.00  0.00    +0.000 C 
ATOM     27  O   UNL     1      62.095  70.119  55.873  0.00  0.00    +0.000 OA
ATOM     28  C   UNL     1      62.508  68.800  56.234  0.00  0.00    +0.000 C 
ATOM     29  O   UNL     1      62.744  69.077  56.974  0.00  0.00    +0.000 OA
ATOM     30  O   UNL     1      61.088  67.139  51.792  0.00  0.00    +0.000 OA
ATOM     31  C   UNL     1      61.413  66.618  52.343  0.00  0.00    +0.000 C 
ATOM     32  O   UNL     1      61.649  66.895  53.083  0.00  0.00    +0.000 OA
ATOM     33  C   UNL     1      61.501  65.819  52.154  0.00  0.00    +0.000 C 
ATOM     34  C   UNL     1      61.826  65.297  52.704  0.00  0.00    +0.000 C 
ATOM     35  C   UNL     1      61.914  64.500  52.515  0.00  0.00    +0.000 C 
ATOM     36  C   UNL     1      62.239  63.979  53.065  0.00  0.00    +0.000 C 
ATOM     37  C   UNL     1      62.328  63.181  52.877  0.00  0.00    +0.000 C 
ATOM     38  C   UNL     1      62.652  62.660  53.427  0.00  0.00    +0.000 C 
ATOM     39  C   UNL     1      62.741  61.861  53.238  0.00  0.00    +0.000 C 
ATOM     40  C   UNL     1      63.065  61.340  53.788  0.00  0.00    +0.000 C 
ATOM     41  C   UNL     1      63.154  60.542  53.599  0.00  0.00    +0.000 C 
ATOM     42  C   UNL     1      63.478  60.021  54.150  0.00  0.00    +0.000 C 
ATOM     43  C   UNL     1      63.567  59.222  53.961  0.00  0.00    +0.000 C 
ATOM     44  C   UNL     1      63.892  58.701  54.511  0.00  0.00    +0.000 C 
ATOM     45  C   UNL     1      63.980  57.903  54.322  0.00  0.00    +0.000 C 
ENDROOT
TORSDOF 0
ENDMDL
MODEL 2
REMARK VINA RESULT:   -12.045      3.157     10.713
REMARK INTER + INTRA:         -12.045
REMARK INTER:                 -12.045
REMARK INTRA:                   0.000
REMARK UNBOUND:                 0.000
ROOT
REMARK  Name = dimyristoylphosphatidylglycerol
REMARK                            x       y       z     vdW  Elec       q    Type
REMARK                         _______ _______ _______ _____ _____    ______ ____
ATOM      1  C   UNL     1      64.213  58.118  48.975  0.00  0.00    +0.000 C 
ATOM      2  C   UNL     1      63.770  58.805  48.869  0.00  0.00    +0.000 C 
ATOM      3  C   UNL     1      63.770  59.390  49.450  0.00  0.00    +0.000 C 
ATOM      4  C   UNL     1      63.326  60.078  49.345  0.00  0.00    +0.000 C 
ATOM      5  C   UNL     1      63.327  60.663  49.926  0.00  0.00    +0.000 C 
ATOM      6  C   UNL     1      62.884  61.350  49.820  0.00  0.00    +0.000 C 
ATOM      7  C   UNL     1      62.885  61.936  50.401  0.00  0.00    +0.000 C 
ATOM      8  C   UNL     1      62.441  62.623  50.296  0.00  0.00    +0.000 C 
ATOM      9  C   UNL     1      62.442  63.209  50.877  0.00  0.00    +0.000 C 
ATOM     10  C   UNL     1      61.998  63.896  50.771  0.00  0.00    +0.000 C 
ATOM     11  C   UNL     1      61.999  64.482  51.352  0.00  0.00    +0.000 C 
ATOM     12  C   UNL     1      61.556  65.168  51.246  0.00  0.00    +0.000 C 
ATOM     13  C   UNL     1      61.556  65.754  51.828  0.00  0.00    +0.000 C 
ATOM     14  C   UNL     1      61.113  66.441  51.722  0.00  0.00    +0.000 C 
ATOM     15  O   UNL     1      60.668  66.543  51.035  0.00  0.00    +0.000 OA
ATOM     16  O   UNL     1      61.113  67.027  52.303  0.00  0.00    +0.000 OA
ATOM     17  C   UNL     1      60.670  67.714  52.197  0.00  0.00    +0.000 C 
ATOM     18  C   UNL     1      60.671  68.300  52.778  0.00  0.00    +0.000 C 
ATOM     19  C   UNL     1      61.116  68.198  53.466  0.00  0.00    +0.000 C 
ATOM     20  O   UNL     1      61.117  68.783  54.047  0.00  0.00    +0.000 OA
ATOM     21  P   UNL     1      61.562  68.681  54.734  0.00  0.00    +0.000 P 
ATOM     22  O   UNL     1      61.306  69.416  55.009  0.00  0.00    +0.000 OA
ATOM     23  O   UNL     1      61.818  67.946  54.460  0.00  0.00    +0.000 OA
ATOM     24  O   UNL     1      62.007  68.579  55.422  0.00  0.00    +0.000 OA
ATOM     25  C   UNL     1      62.450  67.892  55.527  0.00  0.00    +0.000 C 
ATOM     26  C   UNL     1      62.895  67.790  56.214  0.00  0.00    +0.000 C 
ATOM     27  O   UNL     1      63.340  67.102  56.321  0.00  0.00    +0.000 OA
ATOM     28  C   UNL     1      62.897  68.375  56.796  0.00  0.00    +0.000 C 
ATOM     29  O   UNL     1      63.342  68.273  57.483  0.00  0.00    +0.000 OA
ATOM     30  O   UNL     1      60.227  68.987  52.673  0.00  0.00    +0.000 OA
ATOM     31  C   UNL     1      60.228  69.572  53.253  0.00  0.00    +0.000 C 
ATOM     32  O   UNL     1      60.673  69.470  53.941  0.00  0.00    +0.000 OA
ATOM     33  C   UNL     1      59.784  70.259  53.148  0.00  0.00    +0.000 C 
ATOM     34  C   UNL     1      59.785  70.845  53.729  0.00  0.00    +0.000 C 
ATOM     35  C   UNL     1      59.342  71.532  53.624  0.00  0.00    +0.000 C 
ATOM     36  C   UNL     1      59.342  72.117  54.204  0.00  0.00    +0.000 C 
ATOM     37  C   UNL     1      58.899  72.805  54.099  0.00  0.00    +0.000 C 
ATOM     38  C   UNL     1      58.900  73.390  54.680  0.00  0.00    +0.000 C 
ATOM     39  C   UNL     1      58.456  74.078  54.574  0.00  0.00    +0.000 C 
ATOM     40  C   UNL     1      58.457  74.663  55.155  0.00  0.00    +0.000 C 
ATOM     41  C   UNL     1      58.013  75.351  55.050  0.00  0.00    +0.000 C 
ATOM     42  C   UNL     1      58.014  75.936  55.631  0.00  0.00    +0.000 C 
ATOM     43  C   UNL     1      57.570  76.623  55.525  0.00  0.00    +0.000 C 
ATOM     44  C   UNL     1      57.571  77.208  56.106  0.00  0.00    +0.000 C 
ATOM     45  C   UNL     1      57.128  77.896  56.001  0.00  0.00    +0.000 C 
ENDROOT
TORSDOF 0
ENDMDL
MODEL 3
REMARK VINA RESULT:   -11.570     20.567     21.133
REMARK INTER + INTRA:         -11.570
REMARK INTER:                 -11.570
REMARK INTRA:                   0.000
REMARK UNBOUND:                 0.000
ROOT
REMARK  Name = dimyristoylphosphatidylglycerol
REMARK                            x       y       z     vdW  Elec       q    Type
REMARK                         _______ _______ _______ _____ _____    ______ ____
ATOM      1  C   UNL     1      80.917  76.990  49.798  0.00  0.00    +0.000 C 
ATOM      2  C   UNL     1      80.925  76.678  50.561  0.00  0.00    +0.000 C 
ATOM      3  C   UNL     1      80.990  75.863  50.674  0.00  0.00    +0.000 C 
ATOM      4  C   UNL     1      80.997  75.550  51.437  0.00  0.00    +0.000 C 
ATOM      5  C   UNL     1      81.063  74.736  51.550  0.00  0.00    +0.000 C 
ATOM      6  C   UNL     1      81.070  74.424  52.313  0.00  0.00    +0.000 C 
ATOM      7  C   UNL     1      81.136  73.610  52.426  0.00  0.00    +0.000 C 
ATOM      8  C   UNL     1      81.143  73.298  53.189  0.00  0.00    +0.000 C 
ATOM      9  C   UNL     1      81.208  72.483  53.302  0.00  0.00    +0.000 C 
ATOM     10  C   UNL     1      81.216  72.171  54.065  0.00  0.00    +0.000 C 
ATOM     11  C   UNL     1      81.281  71.356  54.178  0.00  0.00    +0.000 C 
ATOM     12  C   UNL     1      81.288  71.044  54.941  0.00  0.00    +0.000 C 
ATOM     13  C   UNL     1      81.354  70.229  55.054  0.00  0.00    +0.000 C 
ATOM     14  C   UNL     1      81.361  69.918  55.817  0.00  0.00    +0.000 C 
ATOM     15  O   UNL     1      81.303  70.420  56.468  0.00  0.00    +0.000 OA
ATOM     16  O   UNL     1      81.427  69.103  55.930  0.00  0.00    +0.000 OA
ATOM     17  C   UNL     1      81.434  68.791  56.693  0.00  0.00    +0.000 C 
ATOM     18  C   UNL     1      81.499  67.976  56.806  0.00  0.00    +0.000 C 
ATOM     19  C   UNL     1      81.558  67.473  56.154  0.00  0.00    +0.000 C 
ATOM     20  O   UNL     1      81.623  66.659  56.266  0.00  0.00    +0.000 OA
ATOM     21  P   UNL     1      81.682  66.156  55.614  0.00  0.00    +0.000 P 
ATOM     22  O   UNL     1      81.724  65.505  56.120  0.00  0.00    +0.000 OA
ATOM     23  O   UNL     1      81.640  66.806  55.108  0.00  0.00    +0.000 OA
ATOM     24  O   UNL     1      81.740  65.653  54.963  0.00  0.00    +0.000 OA
ATOM     25  C   UNL     1      81.733  65.965  54.200  0.00  0.00    +0.000 C 
ATOM     26  C   UNL     1      81.791  65.462  53.548  0.00  0.00    +0.000 C 
ATOM     27  O   UNL     1      81.784  65.774  52.784  0.00  0.00    +0.000 OA
ATOM     28  C   UNL     1      81.857  64.648  53.660  0.00  0.00    +0.000 C 
ATOM     29  O   UNL     1      81.915  64.145  53.008  0.00  0.00    +0.000 OA
ATOM     30  O   UNL     1      81.507  67.664  57.569  0.00  0.00    +0.000 OA
ATOM     31  C   UNL     1      81.572  66.850  57.681  0.00  0.00    +0.000 C 
ATOM     32  O   UNL     1      81.630  66.347  57.029  0.00  0.00    +0.000 OA
ATOM     33  C   UNL     1      81.579  66.537  58.445  0.00  0.00    +0.000 C 
ATOM     34  C   UNL     1      81.645  65.723  58.557  0.00  0.00    +0.000 C 
ATOM     35  C   UNL     1      81.652  65.411  59.321  0.00  0.00    +0.000 C 
ATOM     36  C   UNL     1      81.717  64.597  59.433  0.00  0.00    +0.000 C 
ATOM     37  C   UNL     1      81.725  64.284  60.196  0.00  0.00    +0.000 C 
ATOM     38  C   UNL     1      81.790  63.470  60.309  0.00  0.00    +0.000 C 
ATOM     39  C   UNL     1      81.797  63.157  61.072  0.00  0.00    +0.000 C 
ATOM     40  C   UNL     1      81.863  62.343  61.185  0.00  0.00    +0.000 C 
ATOM     41  C   UNL     1      81.870  62.031  61.948  0.00  0.00    +0.000 C 
ATOM     42  C   UNL     1      81.936  61.217  62.061  0.00  0.00    +0.000 C 
ATOM     43  C   UNL     1      81.943  60.904  62.824  0.00  0.00    +0.000 C 
ATOM     44  C   UNL     1      82.008  60.090  62.937  0.00  0.00    +0.000 C 
ATOM     45  C   UNL     1      82.016  59.777  63.700  0.00  0.00    +0.000 C 
ENDROOT
TORSDOF 0
ENDMDL
MODEL 4
REMARK VINA RESULT:   -11.122     18.646     20.107
REMARK INTER + INTRA:         -11.122
REMARK INTER:                 -11.122
REMARK INTRA:                   0.000
REMARK UNBOUND:                 0.000
ROOT
REMARK  Name = dimyristoylphosphatidylglycerol
REMARK                            x       y       z     vdW  Elec       q    Type
REMARK                         _______ _______ _______ _____ _____    ______ ____
ATOM      1  C   UNL     1      80.912  79.255  53.869  0.00  0.00    +0.000 C 
ATOM      2  C   UNL     1      81.242  78.557  53.580  0.00  0.00    +0.000 C 
ATOM      3  C   UNL     1      80.971  77.827  53.853  0.00  0.00    +0.000 C 
ATOM      4  C   UNL     1      81.302  77.129  53.564  0.00  0.00    +0.000 C 
ATOM      5  C   UNL     1      81.031  76.400  53.837  0.00  0.00    +0.000 C 
ATOM      6  C   UNL     1      81.362  75.702  53.548  0.00  0.00    +0.000 C 
ATOM      7  C   UNL     1      81.090  74.972  53.821  0.00  0.00    +0.000 C 
ATOM      8  C   UNL     1      81.421  74.274  53.532  0.00  0.00    +0.000 C 
ATOM      9  C   UNL     1      81.150  73.544  53.805  0.00  0.00    +0.000 C 
ATOM     10  C   UNL     1      81.481  72.847  53.517  0.00  0.00    +0.000 C 
ATOM     11  C   UNL     1      81.210  72.117  53.790  0.00  0.00    +0.000 C 
ATOM     12  C   UNL     1      81.540  71.419  53.501  0.00  0.00    +0.000 C 
ATOM     13  C   UNL     1      81.269  70.689  53.774  0.00  0.00    +0.000 C 
ATOM     14  C   UNL     1      81.600  69.991  53.485  0.00  0.00    +0.000 C 
ATOM     15  O   UNL     1      82.203  70.023  52.923  0.00  0.00    +0.000 OA
ATOM     16  O   UNL     1      81.329  69.261  53.758  0.00  0.00    +0.000 OA
ATOM     17  C   UNL     1      81.659  68.564  53.469  0.00  0.00    +0.000 C 
ATOM     18  C   UNL     1      81.388  67.834  53.742  0.00  0.00    +0.000 C 
ATOM     19  C   UNL     1      80.785  67.802  54.305  0.00  0.00    +0.000 C 
ATOM     20  O   UNL     1      80.514  67.073  54.578  0.00  0.00    +0.000 OA
ATOM     21  P   UNL     1      79.911  67.042  55.141  0.00  0.00    +0.000 P 
ATOM     22  O   UNL     1      79.945  66.218  55.132  0.00  0.00    +0.000 OA
ATOM     23  O   UNL     1      79.876  67.866  55.150  0.00  0.00    +0.000 OA
ATOM     24  O   UNL     1      79.308  67.010  55.703  0.00  0.00    +0.000 OA
ATOM     25  C   UNL     1      78.977  67.708  55.992  0.00  0.00    +0.000 C 
ATOM     26  C   UNL     1      78.374  67.677  56.554  0.00  0.00    +0.000 C 
ATOM     27  O   UNL     1      78.043  68.375  56.844  0.00  0.00    +0.000 OA
ATOM     28  C   UNL     1      78.102  66.948  56.828  0.00  0.00    +0.000 C 
ATOM     29  O   UNL     1      77.500  66.916  57.391  0.00  0.00    +0.000 OA
ATOM     30  O   UNL     1      81.719  67.136  53.454  0.00  0.00    +0.000 OA
ATOM     31  C   UNL     1      81.448  66.407  53.727  0.00  0.00    +0.000 C 
ATOM     32  O   UNL     1      80.845  66.376  54.289  0.00  0.00    +0.000 OA
ATOM     33  C   UNL     1      81.779  65.708  53.438  0.00  0.00    +0.000 C 
ATOM     34  C   UNL     1      81.507  64.978  53.711  0.00  0.00    +0.000 C 
ATOM     35  C   UNL     1      81.838  64.281  53.422  0.00  0.00    +0.000 C 
ATOM     36  C   UNL     1      81.567  63.552  53.695  0.00  0.00    +0.000 C 
ATOM     37  C   UNL     1      81.898  62.853  53.406  0.00  0.00    +0.000 C 
ATOM     38  C   UNL     1      81.627  62.124  53.679  0.00  0.00    +0.000 C 
ATOM     39  C   UNL     1      81.957  61.425  53.390  0.00  0.00    +0.000 C 
ATOM     40  C   UNL     1      81.686  60.696  53.663  0.00  0.00    +0.000 C 
ATOM     41  C   UNL     1      82.017  59.998  53.375  0.00  0.00    +0.000 C 
ATOM     42  C   UNL     1      81.746  59.269  53.648  0.00  0.00    +0.000 C 
ATOM     43  C   UNL     1      82.076  58.570  53.359  0.00  0.00    +0.000 C 
ATOM     44  C   UNL     1      81.805  57.841  53.632  0.00  0.00    +0.000 C 
ATOM     45  C   UNL     1      82.136  57.142  53.343  0.00  0.00    +0.000 C 
ENDROOT
TORSDOF 0
ENDMDL
MODEL 5
REMARK VINA RESULT:   -10.844      1.510     11.202
REMARK INTER + INTRA:         -10.844
REMARK INTER:                 -10.844
REMARK INTRA:                   0.000
REMARK UNBOUND:                 0.000
ROOT
REMARK  Name = dimyristoylphosphatidylglycerol
REMARK                            x       y       z     vdW  Elec       q    Type
REMARK                         _______ _______ _______ _____ _____    ______ ____
ATOM      1  C   UNL     1      63.124  57.513  51.830  0.00  0.00    +0.000 C 
ATOM      2  C   UNL     1      62.834  58.137  51.377  0.00  0.00    +0.000 C 
ATOM      3  C   UNL     1      62.821  58.902  51.686  0.00  0.00    +0.000 C 
ATOM      4  C   UNL     1      62.530  59.527  51.233  0.00  0.00    +0.000 C 
ATOM      5  C   UNL     1      62.517  60.291  51.542  0.00  0.00    +0.000 C 
ATOM      6  C   UNL     1      62.227  60.915  51.089  0.00  0.00    +0.000 C 
ATOM      7  C   UNL     1      62.214  61.680  51.398  0.00  0.00    +0.000 C 
ATOM      8  C   UNL     1      61.924  62.304  50.945  0.00  0.00    +0.000 C 
ATOM      9  C   UNL     1      61.911  63.069  51.254  0.00  0.00    +0.000 C 
ATOM     10  C   UNL     1      61.621  63.693  50.801  0.00  0.00    +0.000 C 
ATOM     11  C   UNL     1      61.608  64.458  51.110  0.00  0.00    +0.000 C 
ATOM     12  C   UNL     1      61.318  65.082  50.657  0.00  0.00    +0.000 C 
ATOM     13  C   UNL     1      61.305  65.847  50.966  0.00  0.00    +0.000 C 
ATOM     14  C   UNL     1      61.015  66.471  50.513  0.00  0.00    +0.000 C 
ATOM     15  O   UNL     1      60.738  66.331  49.748  0.00  0.00    +0.000 OA
ATOM     16  O   UNL     1      61.002  67.236  50.822  0.00  0.00    +0.000 OA
ATOM     17  C   UNL     1      60.712  67.860  50.369  0.00  0.00    +0.000 C 
ATOM     18  C   UNL     1      60.698  68.625  50.678  0.00  0.00    +0.000 C 
ATOM     19  C   UNL     1      60.976  68.765  51.443  0.00  0.00    +0.000 C 
ATOM     20  O   UNL     1      60.963  69.529  51.753  0.00  0.00    +0.000 OA
ATOM     21  P   UNL     1      61.240  69.668  52.518  0.00  0.00    +0.000 P 
ATOM     22  O   UNL     1      61.065  70.470  52.435  0.00  0.00    +0.000 OA
ATOM     23  O   UNL     1      61.415  68.866  52.601  0.00  0.00    +0.000 OA
ATOM     24  O   UNL     1      61.517  69.808  53.282  0.00  0.00    +0.000 OA
ATOM     25  C   UNL     1      61.807  69.184  53.736  0.00  0.00    +0.000 C 
ATOM     26  C   UNL     1      62.085  69.324  54.500  0.00  0.00    +0.000 C 
ATOM     27  O   UNL     1      62.375  68.699  54.955  0.00  0.00    +0.000 OA
ATOM     28  C   UNL     1      62.072  70.088  54.811  0.00  0.00    +0.000 C 
ATOM     29  O   UNL     1      62.349  70.227  55.575  0.00  0.00    +0.000 OA
ATOM     30  O   UNL     1      60.409  69.249  50.225  0.00  0.00    +0.000 OA
ATOM     31  C   UNL     1      60.396  70.013  50.534  0.00  0.00    +0.000 C 
ATOM     32  O   UNL     1      60.673  70.153  51.299  0.00  0.00    +0.000 OA
ATOM     33  C   UNL     1      60.105  70.638  50.081  0.00  0.00    +0.000 C 
ATOM     34  C   UNL     1      60.092  71.403  50.390  0.00  0.00    +0.000 C 
ATOM     35  C   UNL     1      59.802  72.027  49.937  0.00  0.00    +0.000 C 
ATOM     36  C   UNL     1      59.789  72.791  50.246  0.00  0.00    +0.000 C 
ATOM     37  C   UNL     1      59.499  73.416  49.793  0.00  0.00    +0.000 C 
ATOM     38  C   UNL     1      59.486  74.180  50.102  0.00  0.00    +0.000 C 
ATOM     39  C   UNL     1      59.196  74.805  49.649  0.00  0.00    +0.000 C 
ATOM     40  C   UNL     1      59.183  75.569  49.958  0.00  0.00    +0.000 C 
ATOM     41  C   UNL     1      58.893  76.194  49.505  0.00  0.00    +0.000 C 
ATOM     42  C   UNL     1      58.880  76.958  49.814  0.00  0.00    +0.000 C 
ATOM     43  C   UNL     1      58.590  77.583  49.361  0.00  0.00    +0.000 C 
ATOM     44  C   UNL     1      58.577  78.347  49.670  0.00  0.00    +0.000 C 
ATOM     45  C   UNL     1      58.286  78.972  49.217  0.00  0.00    +0.000 C 
ENDROOT
TORSDOF 0
ENDMDL
MODEL 6
REMARK VINA RESULT:   -10.785     20.322     23.941
REMARK INTER + INTRA:         -10.785
REMARK INTER:                 -10.785
REMARK INTRA:                   0.000
REMARK UNBOUND:                 0.000
ROOT
REMARK  Name = dimyristoylphosphatidylglycerol
REMARK                            x       y       z     vdW  Elec       q    Type
REMARK                         _______ _______ _______ _____ _____    ______ ____
ATOM      1  C   UNL     1      82.252  58.091  65.147  0.00  0.00    +0.000 C 
ATOM      2  C   UNL     1      82.249  58.902  64.995  0.00  0.00    +0.000 C 
ATOM      3  C   UNL     1      82.169  59.178  64.222  0.00  0.00    +0.000 C 
ATOM      4  C   UNL     1      82.166  59.989  64.070  0.00  0.00    +0.000 C 
ATOM      5  C   UNL     1      82.085  60.264  63.297  0.00  0.00    +0.000 C 
ATOM      6  C   UNL     1      82.083  61.074  63.146  0.00  0.00    +0.000 C 
ATOM      7  C   UNL     1      82.002  61.350  62.372  0.00  0.00    +0.000 C 
ATOM      8  C   UNL     1      81.999  62.160  62.221  0.00  0.00    +0.000 C 
ATOM      9  C   UNL     1      81.919  62.436  61.447  0.00  0.00    +0.000 C 
ATOM     10  C   UNL     1      81.916  63.247  61.296  0.00  0.00    +0.000 C 
ATOM     11  C   UNL     1      81.835  63.523  60.523  0.00  0.00    +0.000 C 
ATOM     12  C   UNL     1      81.833  64.333  60.371  0.00  0.00    +0.000 C 
ATOM     13  C   UNL     1      81.752  64.609  59.598  0.00  0.00    +0.000 C 
ATOM     14  C   UNL     1      81.749  65.419  59.447  0.00  0.00    +0.000 C 
ATOM     15  O   UNL     1      81.828  65.955  60.069  0.00  0.00    +0.000 OA
ATOM     16  O   UNL     1      81.669  65.695  58.673  0.00  0.00    +0.000 OA
ATOM     17  C   UNL     1      81.666  66.505  58.522  0.00  0.00    +0.000 C 
ATOM     18  C   UNL     1      81.585  66.781  57.748  0.00  0.00    +0.000 C 
ATOM     19  C   UNL     1      81.507  66.245  57.126  0.00  0.00    +0.000 C 
ATOM     20  O   UNL     1      81.426  66.520  56.352  0.00  0.00    +0.000 OA
ATOM     21  P   UNL     1      81.348  65.984  55.730  0.00  0.00    +0.000 P 
ATOM     22  O   UNL     1      81.300  66.611  55.196  0.00  0.00    +0.000 OA
ATOM     23  O   UNL     1      81.396  65.357  56.264  0.00  0.00    +0.000 OA
ATOM     24  O   UNL     1      81.269  65.448  55.108  0.00  0.00    +0.000 OA
ATOM     25  C   UNL     1      81.272  64.638  55.259  0.00  0.00    +0.000 C 
ATOM     26  C   UNL     1      81.193  64.102  54.636  0.00  0.00    +0.000 C 
ATOM     27  O   UNL     1      81.196  63.290  54.788  0.00  0.00    +0.000 OA
ATOM     28  C   UNL     1      81.113  64.376  53.863  0.00  0.00    +0.000 C 
ATOM     29  O   UNL     1      81.034  63.840  53.241  0.00  0.00    +0.000 OA
ATOM     30  O   UNL     1      81.583  67.591  57.597  0.00  0.00    +0.000 OA
ATOM     31  C   UNL     1      81.502  67.867  56.824  0.00  0.00    +0.000 C 
ATOM     32  O   UNL     1      81.424  67.331  56.202  0.00  0.00    +0.000 OA
ATOM     33  C   UNL     1      81.499  68.678  56.672  0.00  0.00    +0.000 C 
ATOM     34  C   UNL     1      81.419  68.954  55.899  0.00  0.00    +0.000 C 
ATOM     35  C   UNL     1      81.416  69.764  55.747  0.00  0.00    +0.000 C 
ATOM     36  C   UNL     1      81.335  70.039  54.975  0.00  0.00    +0.000 C 
ATOM     37  C   UNL     1      81.333  70.850  54.823  0.00  0.00    +0.000 C 
ATOM     38  C   UNL     1      81.252  71.125  54.050  0.00  0.00    +0.000 C 
ATOM     39  C   UNL     1      81.249  71.936  53.898  0.00  0.00    +0.000 C 
ATOM     40  C   UNL     1      81.169  72.211  53.125  0.00  0.00    +0.000 C 
ATOM     41  C   UNL     1      81.166  73.023  52.973  0.00  0.00    +0.000 C 
ATOM     42  C   UNL     1      81.085  73.298  52.200  0.00  0.00    +0.000 C 
ATOM     43  C   UNL     1      81.083  74.109  52.048  0.00  0.00    +0.000 C 
ATOM     44  C   UNL     1      81.002  74.384  51.275  0.00  0.00    +0.000 C 
ATOM     45  C   UNL     1      80.999  75.195  51.123  0.00  0.00    +0.000 C 
ENDROOT
TORSDOF 0
ENDMDL
MODEL 7
REMARK VINA RESULT:    -9.216     20.580     23.328
REMARK INTER + INTRA:          -9.216
REMARK INTER:                  -9.216
REMARK INTRA:                   0.000
REMARK UNBOUND:                 0.000
ROOT
REMARK  Name = dimyristoylphosphatidylglycerol
REMARK                            x       y       z     vdW  Elec       q    Type
REMARK                         _______ _______ _______ _____ _____    ______ ____
ATOM      1  C   UNL     1      82.252  58.289  54.586  0.00  0.00    +0.000 C 
ATOM      2  C   UNL     1      82.237  58.921  54.057  0.00  0.00    +0.000 C 
ATOM      3  C   UNL     1      82.172  59.694  54.339  0.00  0.00    +0.000 C 
ATOM      4  C   UNL     1      82.157  60.327  53.809  0.00  0.00    +0.000 C 
ATOM      5  C   UNL     1      82.092  61.099  54.091  0.00  0.00    +0.000 C 
ATOM      6  C   UNL     1      82.077  61.731  53.562  0.00  0.00    +0.000 C 
ATOM      7  C   UNL     1      82.012  62.504  53.843  0.00  0.00    +0.000 C 
ATOM      8  C   UNL     1      81.997  63.136  53.314  0.00  0.00    +0.000 C 
ATOM      9  C   UNL     1      81.931  63.909  53.596  0.00  0.00    +0.000 C 
ATOM     10  C   UNL     1      81.917  64.541  53.067  0.00  0.00    +0.000 C 
ATOM     11  C   UNL     1      81.851  65.314  53.348  0.00  0.00    +0.000 C 
ATOM     12  C   UNL     1      81.837  65.946  52.819  0.00  0.00    +0.000 C 
ATOM     13  C   UNL     1      81.771  66.719  53.100  0.00  0.00    +0.000 C 
ATOM     14  C   UNL     1      81.757  67.352  52.571  0.00  0.00    +0.000 C 
ATOM     15  O   UNL     1      81.808  67.212  51.760  0.00  0.00    +0.000 OA
ATOM     16  O   UNL     1      81.691  68.125  52.853  0.00  0.00    +0.000 OA
ATOM     17  C   UNL     1      81.677  68.757  52.324  0.00  0.00    +0.000 C 
ATOM     18  C   UNL     1      81.611  69.530  52.605  0.00  0.00    +0.000 C 
ATOM     19  C   UNL     1      81.560  69.670  53.417  0.00  0.00    +0.000 C 
ATOM     20  O   UNL     1      81.494  70.442  53.699  0.00  0.00    +0.000 OA
ATOM     21  P   UNL     1      81.443  70.582  54.510  0.00  0.00    +0.000 P 
ATOM     22  O   UNL     1      81.397  71.393  54.367  0.00  0.00    +0.000 OA
ATOM     23  O   UNL     1      81.490  69.771  54.653  0.00  0.00    +0.000 OA
ATOM     24  O   UNL     1      81.392  70.722  55.322  0.00  0.00    +0.000 OA
ATOM     25  C   UNL     1      81.407  70.090  55.851  0.00  0.00    +0.000 C 
ATOM     26  C   UNL     1      81.356  70.230  56.662  0.00  0.00    +0.000 C 
ATOM     27  O   UNL     1      81.370  69.597  57.192  0.00  0.00    +0.000 OA
ATOM     28  C   UNL     1      81.290  71.002  56.945  0.00  0.00    +0.000 C 
ATOM     29  O   UNL     1      81.239  71.142  57.756  0.00  0.00    +0.000 OA
ATOM     30  O   UNL     1      81.597  70.162  52.076  0.00  0.00    +0.000 OA
ATOM     31  C   UNL     1      81.531  70.934  52.358  0.00  0.00    +0.000 C 
ATOM     32  O   UNL     1      81.480  71.074  53.169  0.00  0.00    +0.000 OA
ATOM     33  C   UNL     1      81.517  71.567  51.829  0.00  0.00    +0.000 C 
ATOM     34  C   UNL     1      81.451  72.340  52.110  0.00  0.00    +0.000 C 
ATOM     35  C   UNL     1      81.437  72.972  51.581  0.00  0.00    +0.000 C 
ATOM     36  C   UNL     1      81.371  73.744  51.862  0.00  0.00    +0.000 C 
ATOM     37  C   UNL     1      81.356  74.377  51.333  0.00  0.00    +0.000 C 
ATOM     38  C   UNL     1      81.291  75.149  51.615  0.00  0.00    +0.000 C 
ATOM     39  C   UNL     1      81.276  75.782  51.086  0.00  0.00    +0.000 C 
ATOM     40  C   UNL     1      81.211  76.554  51.367  0.00  0.00    +0.000 C 
ATOM     41  C   UNL     1      81.196  77.187  50.838  0.00  0.00    +0.000 C 
ATOM     42  C   UNL     1      81.131  77.959  51.119  0.00  0.00    +0.000 C 
ATOM     43  C   UNL     1      81.116  78.592  50.590  0.00  0.00    +0.000 C 
ATOM     44  C   UNL     1      81.051  79.364  50.872  0.00  0.00    +0.000 C 
ATOM     45  C   UNL     1      81.036  79.997  50.343  0.00  0.00    +0.000 C 
ENDROOT
TORSDOF 0
ENDMDL
