MODEL 1
REMARK VINA RESULT:   -14.246      0.000      0.000
REMARK INTER + INTRA:         -14.246
REMARK INTER:                 -14.246
REMARK INTRA:                   0.000
REMARK UNBOUND:                 0.000
ROOT
REMARK  Name = diosmin
REMARK                            x       y       z     vdW  Elec       q    Type
REMARK                         _______ _______ _______ _____ _____    ______ ____
ATOM      1  C   UNL     1      58.519  70.855  52.258  0.00  0.00    +0.000 C 
ATOM      2  O   UNL     1      58.931  71.197  52.885  0.00  0.00    +0.000 OA
ATOM      3  C   UNL     1      59.468  70.747  53.320  0.00  0.00    +0.000 A 
ATOM      4  C   UNL     1      59.879  71.089  53.948  0.00  0.00    +0.000 A 
ATOM      5  O   UNL     1      59.754  71.881  54.141  0.00  0.00    +0.000 OA
ATOM      6  C   UNL     1      60.416  70.639  54.383  0.00  0.00    +0.000 A 
ATOM      7  C   UNL     1      60.542  69.846  54.191  0.00  0.00    +0.000 A 
ATOM      8  C   UNL     1      60.130  69.504  53.563  0.00  0.00    +0.000 A 
ATOM      9  C   UNL     1      59.593  69.955  53.127  0.00  0.00    +0.000 A 
ATOM     10  C   UNL     1      61.079  69.395  54.626  0.00  0.00    +0.000 A 
ATOM     11  C   UNL     1      61.491  69.738  55.254  0.00  0.00    +0.000 A 
ATOM     12  C   UNL     1      62.028  69.288  55.689  0.00  0.00    +0.000 A 
ATOM     13  O   UNL     1      62.439  69.630  56.317  0.00  0.00    +0.000 OA
ATOM     14  C   UNL     1      62.153  68.496  55.497  0.00  0.00    +0.000 A 
ATOM     15  C   UNL     1      62.690  68.045  55.931  0.00  0.00    +0.000 A 
ATOM     16  O   UNL     1      63.102  68.387  56.559  0.00  0.00    +0.000 OA
ATOM     17  C   UNL     1      62.815  67.253  55.739  0.00  0.00    +0.000 A 
ATOM     18  C   UNL     1      62.403  66.911  55.110  0.00  0.00    +0.000 A 
ATOM     19  O   UNL     1      62.529  66.118  54.918  0.00  0.00    +0.000 OA
ATOM     20  C   UNL     1      62.118  65.776  54.290  0.00  0.00    +0.000 C 
ATOM     21  O   UNL     1      62.242  64.984  54.097  0.00  0.00    +0.000 OA
ATOM     22  C   UNL     1      61.831  64.643  53.470  0.00  0.00    +0.000 C 
ATOM     23  C   UNL     1      61.957  63.850  53.277  0.00  0.00    +0.000 C 
ATOM     24  O   UNL     1      62.494  63.400  53.712  0.00  0.00    +0.000 OA
ATOM     25  C   UNL     1      62.619  62.607  53.519  0.00  0.00    +0.000 C 
ATOM     26  O   UNL     1      63.156  62.157  53.955  0.00  0.00    +0.000 OA
ATOM     27  C   UNL     1      63.282  61.364  53.762  0.00  0.00    +0.000 C 
ATOM     28  C   UNL     1      63.819  60.914  54.197  0.00  0.00    +0.000 C 
ATOM     29  C   UNL     1      62.870  61.022  53.134  0.00  0.00    +0.000 C 
ATOM     30  O   UNL     1      62.995  60.230  52.942  0.00  0.00    +0.000 OA
ATOM     31  C   UNL     1      62.333  61.473  52.699  0.00  0.00    +0.000 C 
ATOM     32  O   UNL     1      61.921  61.131  52.071  0.00  0.00    +0.000 OA
ATOM     33  C   UNL     1      62.207  62.265  52.892  0.00  0.00    +0.000 C 
ATOM     34  O   UNL     1      61.670  62.716  52.457  0.00  0.00    +0.000 OA
ATOM     35  C   UNL     1      61.294  65.092  53.034  0.00  0.00    +0.000 C 
ATOM     36  O   UNL     1      60.883  64.750  52.407  0.00  0.00    +0.000 OA
ATOM     37  C   UNL     1      61.169  65.885  53.227  0.00  0.00    +0.000 C 
ATOM     38  O   UNL     1      60.632  66.335  52.792  0.00  0.00    +0.000 OA
ATOM     39  C   UNL     1      61.580  66.227  53.855  0.00  0.00    +0.000 C 
ATOM     40  O   UNL     1      61.455  67.019  54.048  0.00  0.00    +0.000 OA
ATOM     41  C   UNL     1      61.867  67.361  54.676  0.00  0.00    +0.000 A 
ATOM     42  C   UNL     1      61.741  68.154  54.868  0.00  0.00    +0.000 A 
ATOM     43  O   UNL     1      61.204  68.604  54.433  0.00  0.00    +0.000 OA
ENDROOT
TORSDOF 0
ENDMDL
MODEL 2
REMARK VINA RESULT:   -13.811      1.837      2.628
REMARK INTER + INTRA:         -13.811
REMARK INTER:                 -13.811
REMARK INTRA:                   0.000
REMARK UNBOUND:                 0.000
ROOT
REMARK  Name = diosmin
REMARK                            x       y       z     vdW  Elec       q    Type
REMARK                         _______ _______ _______ _____ _____    ______ ____
ATOM      1  C   UNL     1      61.606  69.042  49.319  0.00  0.00    +0.000 C 
ATOM      2  O   UNL     1      61.518  69.407  50.053  0.00  0.00    +0.000 OA
ATOM      3  C   UNL     1      61.582  68.964  50.745  0.00  0.00    +0.000 A 
ATOM      4  C   UNL     1      61.493  69.329  51.480  0.00  0.00    +0.000 A 
ATOM      5  O   UNL     1      61.340  70.138  51.521  0.00  0.00    +0.000 OA
ATOM      6  C   UNL     1      61.557  68.886  52.171  0.00  0.00    +0.000 A 
ATOM      7  C   UNL     1      61.711  68.076  52.130  0.00  0.00    +0.000 A 
ATOM      8  C   UNL     1      61.799  67.710  51.396  0.00  0.00    +0.000 A 
ATOM      9  C   UNL     1      61.735  68.154  50.703  0.00  0.00    +0.000 A 
ATOM     10  C   UNL     1      61.775  67.631  52.822  0.00  0.00    +0.000 A 
ATOM     11  C   UNL     1      61.686  67.997  53.557  0.00  0.00    +0.000 A 
ATOM     12  C   UNL     1      61.750  67.553  54.249  0.00  0.00    +0.000 A 
ATOM     13  O   UNL     1      61.662  67.919  54.983  0.00  0.00    +0.000 OA
ATOM     14  C   UNL     1      61.903  66.744  54.207  0.00  0.00    +0.000 A 
ATOM     15  C   UNL     1      61.968  66.300  54.900  0.00  0.00    +0.000 A 
ATOM     16  O   UNL     1      61.879  66.665  55.634  0.00  0.00    +0.000 OA
ATOM     17  C   UNL     1      62.121  65.491  54.858  0.00  0.00    +0.000 A 
ATOM     18  C   UNL     1      62.210  65.125  54.123  0.00  0.00    +0.000 A 
ATOM     19  O   UNL     1      62.363  64.315  54.082  0.00  0.00    +0.000 OA
ATOM     20  C   UNL     1      62.452  63.949  53.347  0.00  0.00    +0.000 C 
ATOM     21  O   UNL     1      62.605  63.140  53.305  0.00  0.00    +0.000 OA
ATOM     22  C   UNL     1      62.693  62.775  52.571  0.00  0.00    +0.000 C 
ATOM     23  C   UNL     1      62.846  61.964  52.529  0.00  0.00    +0.000 C 
ATOM     24  O   UNL     1      62.911  61.521  53.222  0.00  0.00    +0.000 OA
ATOM     25  C   UNL     1      63.064  60.711  53.180  0.00  0.00    +0.000 C 
ATOM     26  O   UNL     1      63.128  60.267  53.872  0.00  0.00    +0.000 OA
ATOM     27  C   UNL     1      63.281  59.457  53.830  0.00  0.00    +0.000 C 
ATOM     28  C   UNL     1      63.345  59.014  54.523  0.00  0.00    +0.000 C 
ATOM     29  C   UNL     1      63.370  59.091  53.096  0.00  0.00    +0.000 C 
ATOM     30  O   UNL     1      63.523  58.283  53.054  0.00  0.00    +0.000 OA
ATOM     31  C   UNL     1      63.306  59.536  52.404  0.00  0.00    +0.000 C 
ATOM     32  O   UNL     1      63.394  59.170  51.669  0.00  0.00    +0.000 OA
ATOM     33  C   UNL     1      63.153  60.345  52.446  0.00  0.00    +0.000 C 
ATOM     34  O   UNL     1      63.088  60.790  51.753  0.00  0.00    +0.000 OA
ATOM     35  C   UNL     1      62.629  63.218  51.879  0.00  0.00    +0.000 C 
ATOM     36  O   UNL     1      62.718  62.852  51.145  0.00  0.00    +0.000 OA
ATOM     37  C   UNL     1      62.476  64.028  51.921  0.00  0.00    +0.000 C 
ATOM     38  O   UNL     1      62.412  64.472  51.228  0.00  0.00    +0.000 OA
ATOM     39  C   UNL     1      62.387  64.393  52.654  0.00  0.00    +0.000 C 
ATOM     40  O   UNL     1      62.234  65.203  52.697  0.00  0.00    +0.000 OA
ATOM     41  C   UNL     1      62.145  65.568  53.431  0.00  0.00    +0.000 A 
ATOM     42  C   UNL     1      61.992  66.378  53.472  0.00  0.00    +0.000 A 
ATOM     43  O   UNL     1      61.928  66.822  52.781  0.00  0.00    +0.000 OA
ENDROOT
TORSDOF 0
ENDMDL
MODEL 3
REMARK VINA RESULT:   -13.772      1.706      7.531
REMARK INTER + INTRA:         -13.772
REMARK INTER:                 -13.772
REMARK INTRA:                   0.000
REMARK UNBOUND:                 0.000
ROOT
REMARK  Name = diosmin
REMARK                            x       y       z     vdW  Elec       q    Type
REMARK                         _______ _______ _______ _____ _____    ______ ____
ATOM      1  C   UNL     1      59.554  59.140  51.098  0.00  0.00    +0.000 C 
ATOM      2  O   UNL     1      60.219  58.816  51.461  0.00  0.00    +0.000 OA
ATOM      3  C   UNL     1      60.770  59.308  51.829  0.00  0.00    +0.000 A 
ATOM      4  C   UNL     1      61.436  58.983  52.193  0.00  0.00    +0.000 A 
ATOM      5  O   UNL     1      61.551  58.167  52.188  0.00  0.00    +0.000 OA
ATOM      6  C   UNL     1      61.985  59.475  52.561  0.00  0.00    +0.000 A 
ATOM      7  C   UNL     1      61.870  60.293  52.566  0.00  0.00    +0.000 A 
ATOM      8  C   UNL     1      61.204  60.617  52.202  0.00  0.00    +0.000 A 
ATOM      9  C   UNL     1      60.654  60.124  51.834  0.00  0.00    +0.000 A 
ATOM     10  C   UNL     1      62.420  60.786  52.934  0.00  0.00    +0.000 A 
ATOM     11  C   UNL     1      63.087  60.461  53.298  0.00  0.00    +0.000 A 
ATOM     12  C   UNL     1      63.636  60.953  53.665  0.00  0.00    +0.000 A 
ATOM     13  O   UNL     1      64.302  60.629  54.029  0.00  0.00    +0.000 OA
ATOM     14  C   UNL     1      63.521  61.769  53.670  0.00  0.00    +0.000 A 
ATOM     15  C   UNL     1      64.071  62.262  54.038  0.00  0.00    +0.000 A 
ATOM     16  O   UNL     1      64.736  61.938  54.402  0.00  0.00    +0.000 OA
ATOM     17  C   UNL     1      63.955  63.078  54.043  0.00  0.00    +0.000 A 
ATOM     18  C   UNL     1      63.288  63.403  53.679  0.00  0.00    +0.000 A 
ATOM     19  O   UNL     1      63.173  64.220  53.685  0.00  0.00    +0.000 OA
ATOM     20  C   UNL     1      62.508  64.545  53.321  0.00  0.00    +0.000 C 
ATOM     21  O   UNL     1      62.391  65.361  53.326  0.00  0.00    +0.000 OA
ATOM     22  C   UNL     1      61.726  65.685  52.963  0.00  0.00    +0.000 C 
ATOM     23  C   UNL     1      61.610  66.503  52.967  0.00  0.00    +0.000 C 
ATOM     24  O   UNL     1      62.161  66.995  53.336  0.00  0.00    +0.000 OA
ATOM     25  C   UNL     1      62.045  67.812  53.340  0.00  0.00    +0.000 C 
ATOM     26  O   UNL     1      62.595  68.304  53.709  0.00  0.00    +0.000 OA
ATOM     27  C   UNL     1      62.479  69.122  53.713  0.00  0.00    +0.000 C 
ATOM     28  C   UNL     1      63.030  69.613  54.082  0.00  0.00    +0.000 C 
ATOM     29  C   UNL     1      61.813  69.446  53.350  0.00  0.00    +0.000 C 
ATOM     30  O   UNL     1      61.698  70.262  53.355  0.00  0.00    +0.000 OA
ATOM     31  C   UNL     1      61.263  68.953  52.982  0.00  0.00    +0.000 C 
ATOM     32  O   UNL     1      60.597  69.278  52.618  0.00  0.00    +0.000 OA
ATOM     33  C   UNL     1      61.379  68.137  52.977  0.00  0.00    +0.000 C 
ATOM     34  O   UNL     1      60.829  67.644  52.609  0.00  0.00    +0.000 OA
ATOM     35  C   UNL     1      61.176  65.194  52.595  0.00  0.00    +0.000 C 
ATOM     36  O   UNL     1      60.510  65.518  52.231  0.00  0.00    +0.000 OA
ATOM     37  C   UNL     1      61.292  64.376  52.590  0.00  0.00    +0.000 C 
ATOM     38  O   UNL     1      60.741  63.884  52.222  0.00  0.00    +0.000 OA
ATOM     39  C   UNL     1      61.957  64.052  52.953  0.00  0.00    +0.000 C 
ATOM     40  O   UNL     1      62.073  63.236  52.948  0.00  0.00    +0.000 OA
ATOM     41  C   UNL     1      62.739  62.911  53.312  0.00  0.00    +0.000 A 
ATOM     42  C   UNL     1      62.854  62.094  53.307  0.00  0.00    +0.000 A 
ATOM     43  O   UNL     1      62.304  61.602  52.939  0.00  0.00    +0.000 OA
ENDROOT
TORSDOF 0
ENDMDL
MODEL 4
REMARK VINA RESULT:   -13.466      1.698      3.627
REMARK INTER + INTRA:         -13.466
REMARK INTER:                 -13.466
REMARK INTRA:                   0.000
REMARK UNBOUND:                 0.000
ROOT
REMARK  Name = diosmin
REMARK                            x       y       z     vdW  Elec       q    Type
REMARK                         _______ _______ _______ _____ _____    ______ ____
ATOM      1  C   UNL     1      63.015  68.392  57.116  0.00  0.00    +0.000 C 
ATOM      2  O   UNL     1      62.629  68.796  56.511  0.00  0.00    +0.000 OA
ATOM      3  C   UNL     1      62.419  68.401  55.818  0.00  0.00    +0.000 A 
ATOM      4  C   UNL     1      62.033  68.806  55.212  0.00  0.00    +0.000 A 
ATOM      5  O   UNL     1      61.857  69.607  55.298  0.00  0.00    +0.000 OA
ATOM      6  C   UNL     1      61.823  68.410  54.520  0.00  0.00    +0.000 A 
ATOM      7  C   UNL     1      61.999  67.609  54.433  0.00  0.00    +0.000 A 
ATOM      8  C   UNL     1      62.385  67.203  55.039  0.00  0.00    +0.000 A 
ATOM      9  C   UNL     1      62.595  67.600  55.732  0.00  0.00    +0.000 A 
ATOM     10  C   UNL     1      61.789  67.212  53.740  0.00  0.00    +0.000 A 
ATOM     11  C   UNL     1      61.403  67.617  53.134  0.00  0.00    +0.000 A 
ATOM     12  C   UNL     1      61.193  67.221  52.442  0.00  0.00    +0.000 A 
ATOM     13  O   UNL     1      60.807  67.627  51.835  0.00  0.00    +0.000 OA
ATOM     14  C   UNL     1      61.369  66.421  52.355  0.00  0.00    +0.000 A 
ATOM     15  C   UNL     1      61.159  66.024  51.663  0.00  0.00    +0.000 A 
ATOM     16  O   UNL     1      60.774  66.429  51.056  0.00  0.00    +0.000 OA
ATOM     17  C   UNL     1      61.335  65.223  51.576  0.00  0.00    +0.000 A 
ATOM     18  C   UNL     1      61.722  64.817  52.183  0.00  0.00    +0.000 A 
ATOM     19  O   UNL     1      61.897  64.016  52.096  0.00  0.00    +0.000 OA
ATOM     20  C   UNL     1      62.283  63.611  52.702  0.00  0.00    +0.000 C 
ATOM     21  O   UNL     1      62.459  62.809  52.617  0.00  0.00    +0.000 OA
ATOM     22  C   UNL     1      62.845  62.405  53.222  0.00  0.00    +0.000 C 
ATOM     23  C   UNL     1      63.021  61.603  53.136  0.00  0.00    +0.000 C 
ATOM     24  O   UNL     1      62.811  61.207  52.443  0.00  0.00    +0.000 OA
ATOM     25  C   UNL     1      62.987  60.405  52.357  0.00  0.00    +0.000 C 
ATOM     26  O   UNL     1      62.777  60.010  51.664  0.00  0.00    +0.000 OA
ATOM     27  C   UNL     1      62.953  59.207  51.578  0.00  0.00    +0.000 C 
ATOM     28  C   UNL     1      62.743  58.812  50.885  0.00  0.00    +0.000 C 
ATOM     29  C   UNL     1      63.339  58.802  52.184  0.00  0.00    +0.000 C 
ATOM     30  O   UNL     1      63.515  58.001  52.098  0.00  0.00    +0.000 OA
ATOM     31  C   UNL     1      63.549  59.199  52.877  0.00  0.00    +0.000 C 
ATOM     32  O   UNL     1      63.935  58.793  53.483  0.00  0.00    +0.000 OA
ATOM     33  C   UNL     1      63.373  60.000  52.963  0.00  0.00    +0.000 C 
ATOM     34  O   UNL     1      63.583  60.397  53.655  0.00  0.00    +0.000 OA
ATOM     35  C   UNL     1      63.055  62.800  53.915  0.00  0.00    +0.000 C 
ATOM     36  O   UNL     1      63.441  62.395  54.521  0.00  0.00    +0.000 OA
ATOM     37  C   UNL     1      62.879  63.602  54.001  0.00  0.00    +0.000 C 
ATOM     38  O   UNL     1      63.089  63.998  54.694  0.00  0.00    +0.000 OA
ATOM     39  C   UNL     1      62.493  64.007  53.396  0.00  0.00    +0.000 C 
ATOM     40  O   UNL     1      62.317  64.808  53.481  0.00  0.00    +0.000 OA
ATOM     41  C   UNL     1      61.931  65.213  52.875  0.00  0.00    +0.000 A 
ATOM     42  C   UNL     1      61.755  66.015  52.962  0.00  0.00    +0.000 A 
ATOM     43  O   UNL     1      61.965  66.411  53.654  0.00  0.00    +0.000 OA
ENDROOT
TORSDOF 0
ENDMDL
MODEL 5
REMARK VINA RESULT:   -12.777      2.184      7.857
REMARK INTER + INTRA:         -12.777
REMARK INTER:                 -12.777
REMARK INTRA:                   0.000
REMARK UNBOUND:                 0.000
ROOT
REMARK  Name = diosmin
REMARK                            x       y       z     vdW  Elec       q    Type
REMARK                         _______ _______ _______ _____ _____    ______ ____
ATOM      1  C   UNL     1      60.342  65.492  50.474  0.00  0.00    +0.000 C 
ATOM      2  O   UNL     1      60.943  65.255  50.985  0.00  0.00    +0.000 OA
ATOM      3  C   UNL     1      61.153  65.731  51.625  0.00  0.00    +0.000 A 
ATOM      4  C   UNL     1      61.755  65.494  52.136  0.00  0.00    +0.000 A 
ATOM      5  O   UNL     1      62.148  64.780  52.008  0.00  0.00    +0.000 OA
ATOM      6  C   UNL     1      61.964  65.971  52.775  0.00  0.00    +0.000 A 
ATOM      7  C   UNL     1      61.572  66.685  52.904  0.00  0.00    +0.000 A 
ATOM      8  C   UNL     1      60.970  66.922  52.392  0.00  0.00    +0.000 A 
ATOM      9  C   UNL     1      60.760  66.445  51.752  0.00  0.00    +0.000 A 
ATOM     10  C   UNL     1      61.781  67.163  53.544  0.00  0.00    +0.000 A 
ATOM     11  C   UNL     1      62.384  66.925  54.056  0.00  0.00    +0.000 A 
ATOM     12  C   UNL     1      62.593  67.402  54.695  0.00  0.00    +0.000 A 
ATOM     13  O   UNL     1      63.195  67.165  55.207  0.00  0.00    +0.000 OA
ATOM     14  C   UNL     1      62.200  68.116  54.824  0.00  0.00    +0.000 A 
ATOM     15  C   UNL     1      62.409  68.593  55.463  0.00  0.00    +0.000 A 
ATOM     16  O   UNL     1      63.011  68.356  55.975  0.00  0.00    +0.000 OA
ATOM     17  C   UNL     1      62.017  69.307  55.591  0.00  0.00    +0.000 A 
ATOM     18  C   UNL     1      61.414  69.544  55.079  0.00  0.00    +0.000 A 
ATOM     19  O   UNL     1      61.022  70.258  55.208  0.00  0.00    +0.000 OA
ATOM     20  C   UNL     1      60.420  70.496  54.696  0.00  0.00    +0.000 C 
ATOM     21  O   UNL     1      60.027  71.210  54.824  0.00  0.00    +0.000 OA
ATOM     22  C   UNL     1      59.425  71.446  54.313  0.00  0.00    +0.000 C 
ATOM     23  C   UNL     1      59.032  72.161  54.441  0.00  0.00    +0.000 C 
ATOM     24  O   UNL     1      59.242  72.638  55.081  0.00  0.00    +0.000 OA
ATOM     25  C   UNL     1      58.849  73.352  55.209  0.00  0.00    +0.000 C 
ATOM     26  O   UNL     1      59.058  73.829  55.848  0.00  0.00    +0.000 OA
ATOM     27  C   UNL     1      58.665  74.543  55.977  0.00  0.00    +0.000 C 
ATOM     28  C   UNL     1      58.875  75.020  56.616  0.00  0.00    +0.000 C 
ATOM     29  C   UNL     1      58.063  74.780  55.465  0.00  0.00    +0.000 C 
ATOM     30  O   UNL     1      57.671  75.494  55.593  0.00  0.00    +0.000 OA
ATOM     31  C   UNL     1      57.854  74.303  54.825  0.00  0.00    +0.000 C 
ATOM     32  O   UNL     1      57.251  74.540  54.313  0.00  0.00    +0.000 OA
ATOM     33  C   UNL     1      58.246  73.589  54.697  0.00  0.00    +0.000 C 
ATOM     34  O   UNL     1      58.037  73.112  54.057  0.00  0.00    +0.000 OA
ATOM     35  C   UNL     1      59.215  70.970  53.673  0.00  0.00    +0.000 C 
ATOM     36  O   UNL     1      58.613  71.207  53.161  0.00  0.00    +0.000 OA
ATOM     37  C   UNL     1      59.609  70.255  53.545  0.00  0.00    +0.000 C 
ATOM     38  O   UNL     1      59.399  69.779  52.905  0.00  0.00    +0.000 OA
ATOM     39  C   UNL     1      60.210  70.018  54.056  0.00  0.00    +0.000 C 
ATOM     40  O   UNL     1      60.603  69.305  53.928  0.00  0.00    +0.000 OA
ATOM     41  C   UNL     1      61.205  69.067  54.440  0.00  0.00    +0.000 A 
ATOM     42  C   UNL     1      61.598  68.353  54.311  0.00  0.00    +0.000 A 
ATOM     43  O   UNL     1      61.388  67.876  53.672  0.00  0.00    +0.000 OA
ENDROOT
TORSDOF 0
ENDMDL
MODEL 6
REMARK VINA RESULT:   -12.771      1.568      8.008
REMARK INTER + INTRA:         -12.771
REMARK INTER:                 -12.771
REMARK INTRA:                   0.000
REMARK UNBOUND:                 0.000
ROOT
REMARK  Name = diosmin
REMARK                            x       y       z     vdW  Elec       q    Type
REMARK                         _______ _______ _______ _____ _____    ______ ____
ATOM      1  C   UNL     1      63.500  58.628  54.847  0.00  0.00    +0.000 C 
ATOM      2  O   UNL     1      63.500  58.486  54.036  0.00  0.00    +0.000 OA
ATOM      3  C   UNL     1      63.376  59.108  53.508  0.00  0.00    +0.000 A 
ATOM      4  C   UNL     1      63.376  58.966  52.695  0.00  0.00    +0.000 A 
ATOM      5  O   UNL     1      63.501  58.203  52.410  0.00  0.00    +0.000 OA
ATOM      6  C   UNL     1      63.251  59.588  52.169  0.00  0.00    +0.000 A 
ATOM      7  C   UNL     1      63.126  60.353  52.454  0.00  0.00    +0.000 A 
ATOM      8  C   UNL     1      63.126  60.494  53.267  0.00  0.00    +0.000 A 
ATOM      9  C   UNL     1      63.251  59.871  53.795  0.00  0.00    +0.000 A 
ATOM     10  C   UNL     1      63.001  60.976  51.927  0.00  0.00    +0.000 A 
ATOM     11  C   UNL     1      63.002  60.834  51.114  0.00  0.00    +0.000 A 
ATOM     12  C   UNL     1      62.877  61.456  50.587  0.00  0.00    +0.000 A 
ATOM     13  O   UNL     1      62.877  61.314  49.774  0.00  0.00    +0.000 OA
ATOM     14  C   UNL     1      62.752  62.219  50.873  0.00  0.00    +0.000 A 
ATOM     15  C   UNL     1      62.627  62.842  50.346  0.00  0.00    +0.000 A 
ATOM     16  O   UNL     1      62.628  62.701  49.533  0.00  0.00    +0.000 OA
ATOM     17  C   UNL     1      62.503  63.605  50.631  0.00  0.00    +0.000 A 
ATOM     18  C   UNL     1      62.502  63.747  51.445  0.00  0.00    +0.000 A 
ATOM     19  O   UNL     1      62.378  64.511  51.730  0.00  0.00    +0.000 OA
ATOM     20  C   UNL     1      62.377  64.653  52.543  0.00  0.00    +0.000 C 
ATOM     21  O   UNL     1      62.253  65.416  52.829  0.00  0.00    +0.000 OA
ATOM     22  C   UNL     1      62.252  65.557  53.641  0.00  0.00    +0.000 C 
ATOM     23  C   UNL     1      62.127  66.322  53.927  0.00  0.00    +0.000 C 
ATOM     24  O   UNL     1      62.003  66.944  53.400  0.00  0.00    +0.000 OA
ATOM     25  C   UNL     1      61.878  67.708  53.686  0.00  0.00    +0.000 C 
ATOM     26  O   UNL     1      61.753  68.330  53.158  0.00  0.00    +0.000 OA
ATOM     27  C   UNL     1      61.628  69.094  53.444  0.00  0.00    +0.000 C 
ATOM     28  C   UNL     1      61.504  69.716  52.917  0.00  0.00    +0.000 C 
ATOM     29  C   UNL     1      61.628  69.236  54.257  0.00  0.00    +0.000 C 
ATOM     30  O   UNL     1      61.503  69.999  54.542  0.00  0.00    +0.000 OA
ATOM     31  C   UNL     1      61.753  68.613  54.784  0.00  0.00    +0.000 C 
ATOM     32  O   UNL     1      61.753  68.754  55.598  0.00  0.00    +0.000 OA
ATOM     33  C   UNL     1      61.878  67.849  54.498  0.00  0.00    +0.000 C 
ATOM     34  O   UNL     1      62.003  67.227  55.025  0.00  0.00    +0.000 OA
ATOM     35  C   UNL     1      62.377  64.936  54.168  0.00  0.00    +0.000 C 
ATOM     36  O   UNL     1      62.377  65.077  54.981  0.00  0.00    +0.000 OA
ATOM     37  C   UNL     1      62.502  64.171  53.882  0.00  0.00    +0.000 C 
ATOM     38  O   UNL     1      62.627  63.549  54.410  0.00  0.00    +0.000 OA
ATOM     39  C   UNL     1      62.502  64.030  53.070  0.00  0.00    +0.000 C 
ATOM     40  O   UNL     1      62.627  63.266  52.784  0.00  0.00    +0.000 OA
ATOM     41  C   UNL     1      62.627  63.125  51.971  0.00  0.00    +0.000 A 
ATOM     42  C   UNL     1      62.752  62.361  51.686  0.00  0.00    +0.000 A 
ATOM     43  O   UNL     1      62.877  61.739  52.213  0.00  0.00    +0.000 OA
ENDROOT
TORSDOF 0
ENDMDL
MODEL 7
REMARK VINA RESULT:   -11.985      1.964      7.234
REMARK INTER + INTRA:         -11.985
REMARK INTER:                 -11.985
REMARK INTRA:                   0.000
REMARK UNBOUND:                 0.000
ROOT
REMARK  Name = diosmin
REMARK                            x       y       z     vdW  Elec       q    Type
REMARK                         _______ _______ _______ _____ _____    ______ ____
ATOM      1  C   UNL     1      61.542  62.936  52.548  0.00  0.00    +0.000 C 
ATOM      2  O   UNL     1      61.859  63.127  53.285  0.00  0.00    +0.000 OA
ATOM      3  C   UNL     1      61.866  63.911  53.540  0.00  0.00    +0.000 A 
ATOM      4  C   UNL     1      62.183  64.103  54.278  0.00  0.00    +0.000 A 
ATOM      5  O   UNL     1      62.493  63.510  54.759  0.00  0.00    +0.000 OA
ATOM      6  C   UNL     1      62.189  64.887  54.532  0.00  0.00    +0.000 A 
ATOM      7  C   UNL     1      61.879  65.480  54.051  0.00  0.00    +0.000 A 
ATOM      8  C   UNL     1      61.562  65.289  53.313  0.00  0.00    +0.000 A 
ATOM      9  C   UNL     1      61.555  64.504  53.058  0.00  0.00    +0.000 A 
ATOM     10  C   UNL     1      61.885  66.265  54.305  0.00  0.00    +0.000 A 
ATOM     11  C   UNL     1      62.202  66.457  55.043  0.00  0.00    +0.000 A 
ATOM     12  C   UNL     1      62.209  67.241  55.298  0.00  0.00    +0.000 A 
ATOM     13  O   UNL     1      62.526  67.432  56.035  0.00  0.00    +0.000 OA
ATOM     14  C   UNL     1      61.899  67.834  54.816  0.00  0.00    +0.000 A 
ATOM     15  C   UNL     1      61.905  68.619  55.071  0.00  0.00    +0.000 A 
ATOM     16  O   UNL     1      62.222  68.810  55.808  0.00  0.00    +0.000 OA
ATOM     17  C   UNL     1      61.595  69.212  54.589  0.00  0.00    +0.000 A 
ATOM     18  C   UNL     1      61.278  69.020  53.851  0.00  0.00    +0.000 A 
ATOM     19  O   UNL     1      60.968  69.614  53.369  0.00  0.00    +0.000 OA
ATOM     20  C   UNL     1      60.651  69.422  52.632  0.00  0.00    +0.000 C 
ATOM     21  O   UNL     1      60.340  70.015  52.149  0.00  0.00    +0.000 OA
ATOM     22  C   UNL     1      60.024  69.824  51.413  0.00  0.00    +0.000 C 
ATOM     23  C   UNL     1      59.713  70.417  50.930  0.00  0.00    +0.000 C 
ATOM     24  O   UNL     1      59.720  71.201  51.186  0.00  0.00    +0.000 OA
ATOM     25  C   UNL     1      59.409  71.795  50.703  0.00  0.00    +0.000 C 
ATOM     26  O   UNL     1      59.416  72.579  50.959  0.00  0.00    +0.000 OA
ATOM     27  C   UNL     1      59.106  73.173  50.476  0.00  0.00    +0.000 C 
ATOM     28  C   UNL     1      59.112  73.957  50.732  0.00  0.00    +0.000 C 
ATOM     29  C   UNL     1      58.789  72.981  49.739  0.00  0.00    +0.000 C 
ATOM     30  O   UNL     1      58.479  73.574  49.257  0.00  0.00    +0.000 OA
ATOM     31  C   UNL     1      58.782  72.196  49.484  0.00  0.00    +0.000 C 
ATOM     32  O   UNL     1      58.465  72.005  48.746  0.00  0.00    +0.000 OA
ATOM     33  C   UNL     1      59.092  71.604  49.966  0.00  0.00    +0.000 C 
ATOM     34  O   UNL     1      59.086  70.819  49.711  0.00  0.00    +0.000 OA
ATOM     35  C   UNL     1      60.017  69.039  51.158  0.00  0.00    +0.000 C 
ATOM     36  O   UNL     1      59.700  68.848  50.420  0.00  0.00    +0.000 OA
ATOM     37  C   UNL     1      60.327  68.446  51.640  0.00  0.00    +0.000 C 
ATOM     38  O   UNL     1      60.321  67.662  51.385  0.00  0.00    +0.000 OA
ATOM     39  C   UNL     1      60.644  68.637  52.377  0.00  0.00    +0.000 C 
ATOM     40  O   UNL     1      60.954  68.044  52.859  0.00  0.00    +0.000 OA
ATOM     41  C   UNL     1      61.271  68.236  53.596  0.00  0.00    +0.000 A 
ATOM     42  C   UNL     1      61.582  67.642  54.078  0.00  0.00    +0.000 A 
ATOM     43  O   UNL     1      61.575  66.858  53.824  0.00  0.00    +0.000 OA
ENDROOT
TORSDOF 0
ENDMDL
MODEL 8
REMARK VINA RESULT:   -11.504      1.625      7.622
REMARK INTER + INTRA:         -11.504
REMARK INTER:                 -11.504
REMARK INTRA:                   0.000
REMARK UNBOUND:                 0.000
ROOT
REMARK  Name = diosmin
REMARK                            x       y       z     vdW  Elec       q    Type
REMARK                         _______ _______ _______ _____ _____    ______ ____
ATOM      1  C   UNL     1      64.366  61.185  54.118  0.00  0.00    +0.000 C 
ATOM      2  O   UNL     1      64.211  61.014  53.327  0.00  0.00    +0.000 OA
ATOM      3  C   UNL     1      63.823  61.567  52.853  0.00  0.00    +0.000 A 
ATOM      4  C   UNL     1      63.668  61.396  52.061  0.00  0.00    +0.000 A 
ATOM      5  O   UNL     1      63.901  60.673  51.742  0.00  0.00    +0.000 OA
ATOM      6  C   UNL     1      63.280  61.949  51.589  0.00  0.00    +0.000 A 
ATOM      7  C   UNL     1      63.046  62.674  51.908  0.00  0.00    +0.000 A 
ATOM      8  C   UNL     1      63.201  62.844  52.700  0.00  0.00    +0.000 A 
ATOM      9  C   UNL     1      63.590  62.291  53.173  0.00  0.00    +0.000 A 
ATOM     10  C   UNL     1      62.658  63.228  51.435  0.00  0.00    +0.000 A 
ATOM     11  C   UNL     1      62.503  63.057  50.642  0.00  0.00    +0.000 A 
ATOM     12  C   UNL     1      62.115  63.610  50.170  0.00  0.00    +0.000 A 
ATOM     13  O   UNL     1      61.960  63.439  49.377  0.00  0.00    +0.000 OA
ATOM     14  C   UNL     1      61.881  64.333  50.488  0.00  0.00    +0.000 A 
ATOM     15  C   UNL     1      61.493  64.887  50.016  0.00  0.00    +0.000 A 
ATOM     16  O   UNL     1      61.338  64.717  49.224  0.00  0.00    +0.000 OA
ATOM     17  C   UNL     1      61.259  65.611  50.335  0.00  0.00    +0.000 A 
ATOM     18  C   UNL     1      61.414  65.782  51.128  0.00  0.00    +0.000 A 
ATOM     19  O   UNL     1      61.181  66.506  51.447  0.00  0.00    +0.000 OA
ATOM     20  C   UNL     1      61.335  66.677  52.239  0.00  0.00    +0.000 C 
ATOM     21  O   UNL     1      61.102  67.400  52.559  0.00  0.00    +0.000 OA
ATOM     22  C   UNL     1      61.257  67.571  53.350  0.00  0.00    +0.000 C 
ATOM     23  C   UNL     1      61.023  68.295  53.670  0.00  0.00    +0.000 C 
ATOM     24  O   UNL     1      60.635  68.848  53.196  0.00  0.00    +0.000 OA
ATOM     25  C   UNL     1      60.401  69.573  53.516  0.00  0.00    +0.000 C 
ATOM     26  O   UNL     1      60.013  70.126  53.043  0.00  0.00    +0.000 OA
ATOM     27  C   UNL     1      59.780  70.850  53.362  0.00  0.00    +0.000 C 
ATOM     28  C   UNL     1      59.391  71.403  52.889  0.00  0.00    +0.000 C 
ATOM     29  C   UNL     1      59.934  71.021  54.154  0.00  0.00    +0.000 C 
ATOM     30  O   UNL     1      59.701  71.744  54.473  0.00  0.00    +0.000 OA
ATOM     31  C   UNL     1      60.323  70.467  54.627  0.00  0.00    +0.000 C 
ATOM     32  O   UNL     1      60.478  70.638  55.420  0.00  0.00    +0.000 OA
ATOM     33  C   UNL     1      60.556  69.743  54.308  0.00  0.00    +0.000 C 
ATOM     34  O   UNL     1      60.945  69.189  54.781  0.00  0.00    +0.000 OA
ATOM     35  C   UNL     1      61.645  67.018  53.823  0.00  0.00    +0.000 C 
ATOM     36  O   UNL     1      61.800  67.189  54.615  0.00  0.00    +0.000 OA
ATOM     37  C   UNL     1      61.879  66.293  53.503  0.00  0.00    +0.000 C 
ATOM     38  O   UNL     1      62.267  65.741  53.977  0.00  0.00    +0.000 OA
ATOM     39  C   UNL     1      61.724  66.123  52.712  0.00  0.00    +0.000 C 
ATOM     40  O   UNL     1      61.957  65.399  52.392  0.00  0.00    +0.000 OA
ATOM     41  C   UNL     1      61.802  65.229  51.600  0.00  0.00    +0.000 A 
ATOM     42  C   UNL     1      62.036  64.504  51.282  0.00  0.00    +0.000 A 
ATOM     43  O   UNL     1      62.424  63.951  51.754  0.00  0.00    +0.000 OA
ENDROOT
TORSDOF 0
ENDMDL
