MODEL 1
REMARK VINA RESULT:   -11.304      0.000      0.000
REMARK INTER + INTRA:         -11.304
REMARK INTER:                 -11.304
REMARK INTRA:                   0.000
REMARK UNBOUND:                 0.000
ROOT
REMARK  Name = diphenhydramine
REMARK                            x       y       z     vdW  Elec       q    Type
REMARK                         _______ _______ _______ _____ _____    ______ ____
ATOM      1  C   UNL     1      62.068  64.172  69.233  0.00  0.00    +0.000 C 
ATOM      2  N   UNL     1      61.588  63.780  68.689  0.00  0.00    +0.000 NA
ATOM      3  C   UNL     1      60.788  63.659  68.855  0.00  0.00    +0.000 C 
ATOM      4  C   UNL     1      61.907  63.507  67.979  0.00  0.00    +0.000 C 
ATOM      5  C   UNL     1      61.427  63.115  67.435  0.00  0.00    +0.000 C 
ATOM      6  O   UNL     1      61.745  62.842  66.724  0.00  0.00    +0.000 OA
ATOM      7  C   UNL     1      61.265  62.449  66.180  0.00  0.00    +0.000 C 
ATOM      8  C   UNL     1      61.583  62.177  65.470  0.00  0.00    +0.000 A 
ATOM      9  C   UNL     1      61.103  61.784  64.926  0.00  0.00    +0.000 A 
ATOM     10  C   UNL     1      61.422  61.511  64.216  0.00  0.00    +0.000 A 
ATOM     11  C   UNL     1      62.221  61.631  64.049  0.00  0.00    +0.000 A 
ATOM     12  C   UNL     1      62.702  62.024  64.593  0.00  0.00    +0.000 A 
ATOM     13  C   UNL     1      62.382  62.297  65.303  0.00  0.00    +0.000 A 
ATOM     14  C   UNL     1      60.465  62.329  66.347  0.00  0.00    +0.000 A 
ATOM     15  C   UNL     1      60.147  62.602  67.057  0.00  0.00    +0.000 A 
ATOM     16  C   UNL     1      59.348  62.482  67.224  0.00  0.00    +0.000 A 
ATOM     17  C   UNL     1      58.867  62.089  66.680  0.00  0.00    +0.000 A 
ATOM     18  C   UNL     1      59.186  61.817  65.970  0.00  0.00    +0.000 A 
ATOM     19  C   UNL     1      59.985  61.937  65.803  0.00  0.00    +0.000 A 
ENDROOT
TORSDOF 0
ENDMDL
MODEL 2
REMARK VINA RESULT:    -9.949      3.214      5.104
REMARK INTER + INTRA:          -9.949
REMARK INTER:                  -9.949
REMARK INTRA:                   0.000
REMARK UNBOUND:                 0.000
ROOT
REMARK  Name = diphenhydramine
REMARK                            x       y       z     vdW  Elec       q    Type
REMARK                         _______ _______ _______ _____ _____    ______ ____
ATOM      1  C   UNL     1      59.702  66.743  69.922  0.00  0.00    +0.000 C 
ATOM      2  N   UNL     1      59.855  65.939  69.819  0.00  0.00    +0.000 NA
ATOM      3  C   UNL     1      59.700  65.579  69.092  0.00  0.00    +0.000 C 
ATOM      4  C   UNL     1      60.162  65.494  70.442  0.00  0.00    +0.000 C 
ATOM      5  C   UNL     1      60.314  64.690  70.339  0.00  0.00    +0.000 C 
ATOM      6  O   UNL     1      60.621  64.245  70.962  0.00  0.00    +0.000 OA
ATOM      7  C   UNL     1      60.774  63.440  70.859  0.00  0.00    +0.000 C 
ATOM      8  C   UNL     1      61.081  62.996  71.482  0.00  0.00    +0.000 A 
ATOM      9  C   UNL     1      61.233  62.192  71.379  0.00  0.00    +0.000 A 
ATOM     10  C   UNL     1      61.541  61.747  72.002  0.00  0.00    +0.000 A 
ATOM     11  C   UNL     1      61.695  62.106  72.728  0.00  0.00    +0.000 A 
ATOM     12  C   UNL     1      61.543  62.911  72.832  0.00  0.00    +0.000 A 
ATOM     13  C   UNL     1      61.236  63.355  72.208  0.00  0.00    +0.000 A 
ATOM     14  C   UNL     1      60.619  63.081  70.132  0.00  0.00    +0.000 A 
ATOM     15  C   UNL     1      60.312  63.526  69.509  0.00  0.00    +0.000 A 
ATOM     16  C   UNL     1      60.158  63.167  68.783  0.00  0.00    +0.000 A 
ATOM     17  C   UNL     1      60.310  62.362  68.679  0.00  0.00    +0.000 A 
ATOM     18  C   UNL     1      60.617  61.918  69.303  0.00  0.00    +0.000 A 
ATOM     19  C   UNL     1      60.772  62.277  70.029  0.00  0.00    +0.000 A 
ENDROOT
TORSDOF 0
ENDMDL
MODEL 3
REMARK VINA RESULT:    -9.836      1.841      3.256
REMARK INTER + INTRA:          -9.836
REMARK INTER:                  -9.836
REMARK INTRA:                   0.000
REMARK UNBOUND:                 0.000
ROOT
REMARK  Name = diphenhydramine
REMARK                            x       y       z     vdW  Elec       q    Type
REMARK                         _______ _______ _______ _____ _____    ______ ____
ATOM      1  C   UNL     1      63.552  65.412  70.240  0.00  0.00    +0.000 C 
ATOM      2  N   UNL     1      63.015  64.786  70.245  0.00  0.00    +0.000 NA
ATOM      3  C   UNL     1      62.852  64.388  70.950  0.00  0.00    +0.000 C 
ATOM      4  C   UNL     1      62.640  64.557  69.547  0.00  0.00    +0.000 C 
ATOM      5  C   UNL     1      62.103  63.932  69.553  0.00  0.00    +0.000 C 
ATOM      6  O   UNL     1      61.728  63.703  68.854  0.00  0.00    +0.000 OA
ATOM      7  C   UNL     1      61.191  63.077  68.859  0.00  0.00    +0.000 C 
ATOM      8  C   UNL     1      60.816  62.848  68.161  0.00  0.00    +0.000 A 
ATOM      9  C   UNL     1      60.279  62.222  68.167  0.00  0.00    +0.000 A 
ATOM     10  C   UNL     1      59.905  61.993  67.469  0.00  0.00    +0.000 A 
ATOM     11  C   UNL     1      60.067  62.391  66.764  0.00  0.00    +0.000 A 
ATOM     12  C   UNL     1      60.605  63.017  66.758  0.00  0.00    +0.000 A 
ATOM     13  C   UNL     1      60.979  63.245  67.457  0.00  0.00    +0.000 A 
ATOM     14  C   UNL     1      61.028  62.679  69.565  0.00  0.00    +0.000 A 
ATOM     15  C   UNL     1      61.403  62.908  70.263  0.00  0.00    +0.000 A 
ATOM     16  C   UNL     1      61.240  62.511  70.968  0.00  0.00    +0.000 A 
ATOM     17  C   UNL     1      60.702  61.884  70.974  0.00  0.00    +0.000 A 
ATOM     18  C   UNL     1      60.328  61.656  70.275  0.00  0.00    +0.000 A 
ATOM     19  C   UNL     1      60.491  62.053  69.570  0.00  0.00    +0.000 A 
ENDROOT
TORSDOF 0
ENDMDL
MODEL 4
REMARK VINA RESULT:    -9.765      3.024      4.893
REMARK INTER + INTRA:          -9.765
REMARK INTER:                  -9.765
REMARK INTRA:                   0.000
REMARK UNBOUND:                 0.000
ROOT
REMARK  Name = diphenhydramine
REMARK                            x       y       z     vdW  Elec       q    Type
REMARK                         _______ _______ _______ _____ _____    ______ ____
ATOM      1  C   UNL     1      59.364  66.359  72.204  0.00  0.00    +0.000 C 
ATOM      2  N   UNL     1      59.730  65.623  72.122  0.00  0.00    +0.000 NA
ATOM      3  C   UNL     1      60.097  65.270  72.772  0.00  0.00    +0.000 C 
ATOM      4  C   UNL     1      59.728  65.241  71.392  0.00  0.00    +0.000 C 
ATOM      5  C   UNL     1      60.094  64.506  71.310  0.00  0.00    +0.000 C 
ATOM      6  O   UNL     1      60.093  64.123  70.579  0.00  0.00    +0.000 OA
ATOM      7  C   UNL     1      60.458  63.387  70.497  0.00  0.00    +0.000 C 
ATOM      8  C   UNL     1      60.457  63.005  69.767  0.00  0.00    +0.000 A 
ATOM      9  C   UNL     1      60.822  62.270  69.686  0.00  0.00    +0.000 A 
ATOM     10  C   UNL     1      60.821  61.887  68.955  0.00  0.00    +0.000 A 
ATOM     11  C   UNL     1      60.454  62.239  68.305  0.00  0.00    +0.000 A 
ATOM     12  C   UNL     1      60.088  62.975  68.387  0.00  0.00    +0.000 A 
ATOM     13  C   UNL     1      60.090  63.357  69.118  0.00  0.00    +0.000 A 
ATOM     14  C   UNL     1      60.825  63.034  71.148  0.00  0.00    +0.000 A 
ATOM     15  C   UNL     1      60.826  63.418  71.878  0.00  0.00    +0.000 A 
ATOM     16  C   UNL     1      61.193  63.065  72.528  0.00  0.00    +0.000 A 
ATOM     17  C   UNL     1      61.559  62.330  72.447  0.00  0.00    +0.000 A 
ATOM     18  C   UNL     1      61.557  61.947  71.716  0.00  0.00    +0.000 A 
ATOM     19  C   UNL     1      61.190  62.300  71.066  0.00  0.00    +0.000 A 
ENDROOT
TORSDOF 0
ENDMDL
MODEL 5
REMARK VINA RESULT:    -9.472      2.582      5.345
REMARK INTER + INTRA:          -9.472
REMARK INTER:                  -9.472
REMARK INTRA:                   0.000
REMARK UNBOUND:                 0.000
ROOT
REMARK  Name = diphenhydramine
REMARK                            x       y       z     vdW  Elec       q    Type
REMARK                         _______ _______ _______ _____ _____    ______ ____
ATOM      1  C   UNL     1      60.474  62.002  67.269  0.00  0.00    +0.000 C 
ATOM      2  N   UNL     1      60.402  62.501  67.923  0.00  0.00    +0.000 NA
ATOM      3  C   UNL     1      60.049  63.243  67.838  0.00  0.00    +0.000 C 
ATOM      4  C   UNL     1      60.683  62.260  68.659  0.00  0.00    +0.000 C 
ATOM      5  C   UNL     1      60.612  62.758  69.312  0.00  0.00    +0.000 C 
ATOM      6  O   UNL     1      60.892  62.517  70.049  0.00  0.00    +0.000 OA
ATOM      7  C   UNL     1      60.821  63.016  70.702  0.00  0.00    +0.000 C 
ATOM      8  C   UNL     1      61.102  62.775  71.439  0.00  0.00    +0.000 A 
ATOM      9  C   UNL     1      61.030  63.274  72.091  0.00  0.00    +0.000 A 
ATOM     10  C   UNL     1      61.311  63.033  72.829  0.00  0.00    +0.000 A 
ATOM     11  C   UNL     1      61.664  62.291  72.913  0.00  0.00    +0.000 A 
ATOM     12  C   UNL     1      61.736  61.792  72.260  0.00  0.00    +0.000 A 
ATOM     13  C   UNL     1      61.455  62.034  71.523  0.00  0.00    +0.000 A 
ATOM     14  C   UNL     1      60.468  63.758  70.618  0.00  0.00    +0.000 A 
ATOM     15  C   UNL     1      60.187  63.999  69.881  0.00  0.00    +0.000 A 
ATOM     16  C   UNL     1      59.834  64.740  69.796  0.00  0.00    +0.000 A 
ATOM     17  C   UNL     1      59.763  65.240  70.450  0.00  0.00    +0.000 A 
ATOM     18  C   UNL     1      60.044  64.998  71.186  0.00  0.00    +0.000 A 
ATOM     19  C   UNL     1      60.397  64.257  71.270  0.00  0.00    +0.000 A 
ENDROOT
TORSDOF 0
ENDMDL
MODEL 6
REMARK VINA RESULT:    -9.326      5.363      6.606
REMARK INTER + INTRA:          -9.326
REMARK INTER:                  -9.326
REMARK INTRA:                   0.000
REMARK UNBOUND:                 0.000
ROOT
REMARK  Name = diphenhydramine
REMARK                            x       y       z     vdW  Elec       q    Type
REMARK                         _______ _______ _______ _____ _____    ______ ____
ATOM      1  C   UNL     1      62.850  68.210  73.077  0.00  0.00    +0.000 C 
ATOM      2  N   UNL     1      63.004  67.558  72.595  0.00  0.00    +0.000 NA
ATOM      3  C   UNL     1      63.604  67.596  72.029  0.00  0.00    +0.000 C 
ATOM      4  C   UNL     1      62.560  66.868  72.678  0.00  0.00    +0.000 C 
ATOM      5  C   UNL     1      62.714  66.218  72.196  0.00  0.00    +0.000 C 
ATOM      6  O   UNL     1      62.270  65.527  72.279  0.00  0.00    +0.000 OA
ATOM      7  C   UNL     1      62.424  64.875  71.797  0.00  0.00    +0.000 C 
ATOM      8  C   UNL     1      61.980  64.186  71.880  0.00  0.00    +0.000 A 
ATOM      9  C   UNL     1      62.134  63.535  71.399  0.00  0.00    +0.000 A 
ATOM     10  C   UNL     1      61.690  62.845  71.481  0.00  0.00    +0.000 A 
ATOM     11  C   UNL     1      61.090  62.806  72.047  0.00  0.00    +0.000 A 
ATOM     12  C   UNL     1      60.935  63.458  72.529  0.00  0.00    +0.000 A 
ATOM     13  C   UNL     1      61.380  64.148  72.446  0.00  0.00    +0.000 A 
ATOM     14  C   UNL     1      63.024  64.914  71.231  0.00  0.00    +0.000 A 
ATOM     15  C   UNL     1      63.469  65.604  71.149  0.00  0.00    +0.000 A 
ATOM     16  C   UNL     1      64.069  65.642  70.583  0.00  0.00    +0.000 A 
ATOM     17  C   UNL     1      64.224  64.991  70.101  0.00  0.00    +0.000 A 
ATOM     18  C   UNL     1      63.779  64.301  70.184  0.00  0.00    +0.000 A 
ATOM     19  C   UNL     1      63.179  64.263  70.750  0.00  0.00    +0.000 A 
ENDROOT
TORSDOF 0
ENDMDL
MODEL 7
REMARK VINA RESULT:    -9.250      4.520      5.869
REMARK INTER + INTRA:          -9.250
REMARK INTER:                  -9.250
REMARK INTRA:                   0.000
REMARK UNBOUND:                 0.000
ROOT
REMARK  Name = diphenhydramine
REMARK                            x       y       z     vdW  Elec       q    Type
REMARK                         _______ _______ _______ _____ _____    ______ ____
ATOM      1  C   UNL     1      64.644  65.714  70.780  0.00  0.00    +0.000 C 
ATOM      2  N   UNL     1      63.919  65.542  71.136  0.00  0.00    +0.000 NA
ATOM      3  C   UNL     1      63.610  66.050  71.709  0.00  0.00    +0.000 C 
ATOM      4  C   UNL     1      63.504  64.863  70.920  0.00  0.00    +0.000 C 
ATOM      5  C   UNL     1      62.781  64.692  71.275  0.00  0.00    +0.000 C 
ATOM      6  O   UNL     1      62.365  64.012  71.060  0.00  0.00    +0.000 OA
ATOM      7  C   UNL     1      61.641  63.840  71.415  0.00  0.00    +0.000 C 
ATOM      8  C   UNL     1      61.226  63.161  71.199  0.00  0.00    +0.000 A 
ATOM      9  C   UNL     1      60.502  62.989  71.555  0.00  0.00    +0.000 A 
ATOM     10  C   UNL     1      60.086  62.310  71.339  0.00  0.00    +0.000 A 
ATOM     11  C   UNL     1      60.395  61.802  70.767  0.00  0.00    +0.000 A 
ATOM     12  C   UNL     1      61.120  61.974  70.410  0.00  0.00    +0.000 A 
ATOM     13  C   UNL     1      61.535  62.653  70.627  0.00  0.00    +0.000 A 
ATOM     14  C   UNL     1      61.331  64.348  71.988  0.00  0.00    +0.000 A 
ATOM     15  C   UNL     1      61.747  65.028  72.204  0.00  0.00    +0.000 A 
ATOM     16  C   UNL     1      61.438  65.535  72.776  0.00  0.00    +0.000 A 
ATOM     17  C   UNL     1      60.713  65.364  73.132  0.00  0.00    +0.000 A 
ATOM     18  C   UNL     1      60.298  64.684  72.915  0.00  0.00    +0.000 A 
ATOM     19  C   UNL     1      60.607  64.176  72.343  0.00  0.00    +0.000 A 
ENDROOT
TORSDOF 0
ENDMDL
MODEL 8
REMARK VINA RESULT:    -9.124      6.673      7.747
REMARK INTER + INTRA:          -9.124
REMARK INTER:                  -9.124
REMARK INTRA:                   0.000
REMARK UNBOUND:                 0.000
ROOT
REMARK  Name = diphenhydramine
REMARK                            x       y       z     vdW  Elec       q    Type
REMARK                         _______ _______ _______ _____ _____    ______ ____
ATOM      1  C   UNL     1      57.494  66.774  73.222  0.00  0.00    +0.000 C 
ATOM      2  N   UNL     1      58.199  66.364  73.096  0.00  0.00    +0.000 NA
ATOM      3  C   UNL     1      58.189  65.541  73.017  0.00  0.00    +0.000 C 
ATOM      4  C   UNL     1      58.912  66.774  73.048  0.00  0.00    +0.000 C 
ATOM      5  C   UNL     1      59.616  66.363  72.921  0.00  0.00    +0.000 C 
ATOM      6  O   UNL     1      60.331  66.773  72.873  0.00  0.00    +0.000 OA
ATOM      7  C   UNL     1      61.035  66.363  72.747  0.00  0.00    +0.000 C 
ATOM      8  C   UNL     1      61.749  66.773  72.699  0.00  0.00    +0.000 A 
ATOM      9  C   UNL     1      62.453  66.363  72.573  0.00  0.00    +0.000 A 
ATOM     10  C   UNL     1      63.167  66.773  72.525  0.00  0.00    +0.000 A 
ATOM     11  C   UNL     1      63.177  67.594  72.603  0.00  0.00    +0.000 A 
ATOM     12  C   UNL     1      62.472  68.005  72.730  0.00  0.00    +0.000 A 
ATOM     13  C   UNL     1      61.759  67.594  72.778  0.00  0.00    +0.000 A 
ATOM     14  C   UNL     1      61.026  65.541  72.668  0.00  0.00    +0.000 A 
ATOM     15  C   UNL     1      60.311  65.131  72.716  0.00  0.00    +0.000 A 
ATOM     16  C   UNL     1      60.301  64.310  72.638  0.00  0.00    +0.000 A 
ATOM     17  C   UNL     1      61.006  63.899  72.511  0.00  0.00    +0.000 A 
ATOM     18  C   UNL     1      61.720  64.310  72.464  0.00  0.00    +0.000 A 
ATOM     19  C   UNL     1      61.729  65.131  72.542  0.00  0.00    +0.000 A 
ENDROOT
TORSDOF 0
ENDMDL
MODEL 9
REMARK VINA RESULT:    -9.116      5.448      7.010
REMARK INTER + INTRA:          -9.116
REMARK INTER:                  -9.116
REMARK INTRA:                   0.000
REMARK UNBOUND:                 0.000
ROOT
REMARK  Name = diphenhydramine
REMARK                            x       y       z     vdW  Elec       q    Type
REMARK                         _______ _______ _______ _____ _____    ______ ____
ATOM      1  C   UNL     1      61.248  66.926  73.210  0.00  0.00    +0.000 C 
ATOM      2  N   UNL     1      61.746  66.546  72.673  0.00  0.00    +0.000 NA
ATOM      3  C   UNL     1      61.546  65.799  72.383  0.00  0.00    +0.000 C 
ATOM      4  C   UNL     1      62.443  66.911  72.426  0.00  0.00    +0.000 C 
ATOM      5  C   UNL     1      62.940  66.531  71.890  0.00  0.00    +0.000 C 
ATOM      6  O   UNL     1      63.638  66.896  71.642  0.00  0.00    +0.000 OA
ATOM      7  C   UNL     1      64.135  66.516  71.105  0.00  0.00    +0.000 C 
ATOM      8  C   UNL     1      64.832  66.881  70.858  0.00  0.00    +0.000 A 
ATOM      9  C   UNL     1      65.329  66.501  70.322  0.00  0.00    +0.000 A 
ATOM     10  C   UNL     1      66.027  66.866  70.074  0.00  0.00    +0.000 A 
ATOM     11  C   UNL     1      66.226  67.612  70.364  0.00  0.00    +0.000 A 
ATOM     12  C   UNL     1      65.729  67.993  70.902  0.00  0.00    +0.000 A 
ATOM     13  C   UNL     1      65.032  67.627  71.148  0.00  0.00    +0.000 A 
ATOM     14  C   UNL     1      63.936  65.769  70.815  0.00  0.00    +0.000 A 
ATOM     15  C   UNL     1      63.238  65.404  71.062  0.00  0.00    +0.000 A 
ATOM     16  C   UNL     1      63.038  64.658  70.772  0.00  0.00    +0.000 A 
ATOM     17  C   UNL     1      63.536  64.277  70.235  0.00  0.00    +0.000 A 
ATOM     18  C   UNL     1      64.233  64.643  69.988  0.00  0.00    +0.000 A 
ATOM     19  C   UNL     1      64.433  65.389  70.278  0.00  0.00    +0.000 A 
ENDROOT
TORSDOF 0
ENDMDL
