MODEL 1
REMARK VINA RESULT:   -17.489      0.000      0.000
REMARK INTER + INTRA:         -17.489
REMARK INTER:                 -17.489
REMARK INTRA:                   0.000
REMARK UNBOUND:                 0.000
ROOT
REMARK  Name = dirithromycin
REMARK                            x       y       z     vdW  Elec       q    Type
REMARK                         _______ _______ _______ _____ _____    ______ ____
ATOM      1  C   UNL     1      62.216  65.720  55.429  0.00  0.00    +0.000 C 
ATOM      2  C   UNL     1      62.077  65.300  54.733  0.00  0.00    +0.000 C 
ATOM      3  C   UNL     1      61.997  65.702  54.017  0.00  0.00    +0.000 C 
ATOM      4  O   UNL     1      62.136  66.123  54.713  0.00  0.00    +0.000 OA
ATOM      5  C   UNL     1      62.196  66.945  54.694  0.00  0.00    +0.000 C 
ATOM      6  O   UNL     1      62.335  67.365  55.389  0.00  0.00    +0.000 OA
ATOM      7  C   UNL     1      62.116  67.348  53.978  0.00  0.00    +0.000 C 
ATOM      8  C   UNL     1      62.239  68.019  54.441  0.00  0.00    +0.000 C 
ATOM      9  C   UNL     1      61.977  66.927  53.281  0.00  0.00    +0.000 C 
ATOM     10  O   UNL     1      62.037  67.750  53.262  0.00  0.00    +0.000 OA
ATOM     11  C   UNL     1      62.176  68.170  53.958  0.00  0.00    +0.000 C 
ATOM     12  C   UNL     1      62.256  67.767  54.674  0.00  0.00    +0.000 C 
ATOM     13  C   UNL     1      62.395  68.188  55.370  0.00  0.00    +0.000 C 
ATOM     14  C   UNL     1      62.382  67.418  55.667  0.00  0.00    +0.000 C 
ATOM     15  O   UNL     1      62.530  68.341  56.170  0.00  0.00    +0.000 OA
ATOM     16  C   UNL     1      62.565  67.718  56.709  0.00  0.00    +0.000 C 
ATOM     17  C   UNL     1      62.455  69.010  55.351  0.00  0.00    +0.000 C 
ATOM     18  O   UNL     1      62.594  69.431  56.047  0.00  0.00    +0.000 OA
ATOM     19  C   UNL     1      62.375  69.413  54.634  0.00  0.00    +0.000 C 
ATOM     20  C   UNL     1      62.435  70.236  54.615  0.00  0.00    +0.000 C 
ATOM     21  O   UNL     1      62.236  68.993  53.939  0.00  0.00    +0.000 OA
ATOM     22  C   UNL     1      61.897  67.329  52.566  0.00  0.00    +0.000 C 
ATOM     23  C   UNL     1      61.957  68.152  52.546  0.00  0.00    +0.000 C 
ATOM     24  C   UNL     1      61.758  66.910  51.870  0.00  0.00    +0.000 C 
ATOM     25  O   UNL     1      61.678  67.312  51.154  0.00  0.00    +0.000 OA
ATOM     26  C   UNL     1      61.738  68.134  51.135  0.00  0.00    +0.000 C 
ATOM     27  O   UNL     1      61.877  68.555  51.831  0.00  0.00    +0.000 OA
ATOM     28  C   UNL     1      61.937  69.377  51.811  0.00  0.00    +0.000 C 
ATOM     29  C   UNL     1      62.076  69.798  52.507  0.00  0.00    +0.000 C 
ATOM     30  C   UNL     1      61.857  69.780  51.094  0.00  0.00    +0.000 C 
ATOM     31  C   UNL     1      61.718  69.360  50.399  0.00  0.00    +0.000 C 
ATOM     32  C   UNL     1      61.658  68.537  50.418  0.00  0.00    +0.000 C 
ATOM     33  O   UNL     1      61.519  68.117  49.723  0.00  0.00    +0.000 OA
ATOM     34  N   UNL     1      61.638  69.762  49.683  0.00  0.00    +0.000 NA
ATOM     35  C   UNL     1      61.499  69.341  48.986  0.00  0.00    +0.000 C 
ATOM     36  C   UNL     1      61.698  70.584  49.663  0.00  0.00    +0.000 C 
ATOM     37  C   UNL     1      61.698  66.087  51.890  0.00  0.00    +0.000 C 
ATOM     38  C   UNL     1      61.663  66.711  51.350  0.00  0.00    +0.000 C 
ATOM     39  O   UNL     1      61.584  66.219  51.083  0.00  0.00    +0.000 OA
ATOM     40  C   UNL     1      61.559  65.667  51.193  0.00  0.00    +0.000 C 
ATOM     41  C   UNL     1      61.499  64.843  51.213  0.00  0.00    +0.000 C 
ATOM     42  C   UNL     1      61.360  64.424  50.517  0.00  0.00    +0.000 C 
ATOM     43  C   UNL     1      61.579  64.441  51.928  0.00  0.00    +0.000 C 
ATOM     44  N   UNL     1      61.519  63.619  51.949  0.00  0.00    +0.000 NA
ATOM     45  C   UNL     1      61.599  63.217  52.664  0.00  0.00    +0.000 C 
ATOM     46  C   UNL     1      61.539  62.395  52.684  0.00  0.00    +0.000 C 
ATOM     47  O   UNL     1      61.400  61.974  51.988  0.00  0.00    +0.000 OA
ATOM     48  C   UNL     1      61.340  61.152  52.007  0.00  0.00    +0.000 C 
ATOM     49  C   UNL     1      61.201  60.731  51.311  0.00  0.00    +0.000 C 
ATOM     50  O   UNL     1      61.141  59.909  51.331  0.00  0.00    +0.000 OA
ATOM     51  C   UNL     1      61.002  59.488  50.635  0.00  0.00    +0.000 C 
ATOM     52  O   UNL     1      61.738  63.637  53.360  0.00  0.00    +0.000 OA
ATOM     53  C   UNL     1      61.798  64.460  53.341  0.00  0.00    +0.000 C 
ATOM     54  C   UNL     1      61.718  64.862  52.625  0.00  0.00    +0.000 C 
ATOM     55  C   UNL     1      61.778  65.685  52.605  0.00  0.00    +0.000 C 
ATOM     56  C   UNL     1      61.937  64.881  54.037  0.00  0.00    +0.000 C 
ATOM     57  C   UNL     1      61.954  64.188  54.486  0.00  0.00    +0.000 C 
ATOM     58  O   UNL     1      62.061  64.862  54.853  0.00  0.00    +0.000 OA
ENDROOT
TORSDOF 0
ENDMDL
MODEL 2
REMARK VINA RESULT:   -15.970      1.664      2.060
REMARK INTER + INTRA:         -15.970
REMARK INTER:                 -15.970
REMARK INTRA:                   0.000
REMARK UNBOUND:                 0.000
ROOT
REMARK  Name = dirithromycin
REMARK                            x       y       z     vdW  Elec       q    Type
REMARK                         _______ _______ _______ _____ _____    ______ ____
ATOM      1  C   UNL     1      62.374  67.287  55.239  0.00  0.00    +0.000 C 
ATOM      2  C   UNL     1      62.377  66.587  54.805  0.00  0.00    +0.000 C 
ATOM      3  C   UNL     1      62.004  66.556  54.069  0.00  0.00    +0.000 C 
ATOM      4  O   UNL     1      62.001  67.257  54.504  0.00  0.00    +0.000 OA
ATOM      5  C   UNL     1      61.626  67.928  54.205  0.00  0.00    +0.000 C 
ATOM      6  O   UNL     1      61.623  68.628  54.640  0.00  0.00    +0.000 OA
ATOM      7  C   UNL     1      61.253  67.898  53.470  0.00  0.00    +0.000 C 
ATOM      8  C   UNL     1      61.075  68.688  53.624  0.00  0.00    +0.000 C 
ATOM      9  C   UNL     1      61.255  67.196  53.034  0.00  0.00    +0.000 C 
ATOM     10  O   UNL     1      60.879  67.868  52.735  0.00  0.00    +0.000 OA
ATOM     11  C   UNL     1      60.877  68.568  53.169  0.00  0.00    +0.000 C 
ATOM     12  C   UNL     1      61.251  68.598  53.906  0.00  0.00    +0.000 C 
ATOM     13  C   UNL     1      61.248  69.299  54.341  0.00  0.00    +0.000 C 
ATOM     14  C   UNL     1      61.674  68.813  54.853  0.00  0.00    +0.000 C 
ATOM     15  O   UNL     1      61.393  69.831  54.954  0.00  0.00    +0.000 OA
ATOM     16  C   UNL     1      61.819  69.589  55.618  0.00  0.00    +0.000 C 
ATOM     17  C   UNL     1      60.873  69.970  54.041  0.00  0.00    +0.000 C 
ATOM     18  O   UNL     1      60.870  70.671  54.476  0.00  0.00    +0.000 OA
ATOM     19  C   UNL     1      60.499  69.939  53.305  0.00  0.00    +0.000 C 
ATOM     20  C   UNL     1      60.124  70.611  53.006  0.00  0.00    +0.000 C 
ATOM     21  O   UNL     1      60.502  69.239  52.870  0.00  0.00    +0.000 OA
ATOM     22  C   UNL     1      60.882  67.166  52.300  0.00  0.00    +0.000 C 
ATOM     23  C   UNL     1      60.506  67.838  51.999  0.00  0.00    +0.000 C 
ATOM     24  C   UNL     1      60.884  66.466  51.864  0.00  0.00    +0.000 C 
ATOM     25  O   UNL     1      60.511  66.436  51.129  0.00  0.00    +0.000 OA
ATOM     26  C   UNL     1      60.136  67.106  50.829  0.00  0.00    +0.000 C 
ATOM     27  O   UNL     1      60.133  67.807  51.264  0.00  0.00    +0.000 OA
ATOM     28  C   UNL     1      59.758  68.478  50.965  0.00  0.00    +0.000 C 
ATOM     29  C   UNL     1      59.755  69.179  51.400  0.00  0.00    +0.000 C 
ATOM     30  C   UNL     1      59.385  68.447  50.229  0.00  0.00    +0.000 C 
ATOM     31  C   UNL     1      59.387  67.747  49.794  0.00  0.00    +0.000 C 
ATOM     32  C   UNL     1      59.762  67.076  50.093  0.00  0.00    +0.000 C 
ATOM     33  O   UNL     1      59.765  66.376  49.658  0.00  0.00    +0.000 OA
ATOM     34  N   UNL     1      59.014  67.717  49.059  0.00  0.00    +0.000 NA
ATOM     35  C   UNL     1      59.016  67.016  48.623  0.00  0.00    +0.000 C 
ATOM     36  C   UNL     1      58.638  68.387  48.758  0.00  0.00    +0.000 C 
ATOM     37  C   UNL     1      61.260  65.796  52.164  0.00  0.00    +0.000 C 
ATOM     38  C   UNL     1      60.834  66.038  51.499  0.00  0.00    +0.000 C 
ATOM     39  O   UNL     1      60.984  65.496  51.446  0.00  0.00    +0.000 OA
ATOM     40  C   UNL     1      61.262  65.095  51.728  0.00  0.00    +0.000 C 
ATOM     41  C   UNL     1      61.638  64.423  52.028  0.00  0.00    +0.000 C 
ATOM     42  C   UNL     1      61.640  63.723  51.593  0.00  0.00    +0.000 C 
ATOM     43  C   UNL     1      62.011  64.454  52.763  0.00  0.00    +0.000 C 
ATOM     44  N   UNL     1      62.386  63.783  53.063  0.00  0.00    +0.000 NA
ATOM     45  C   UNL     1      62.759  63.814  53.798  0.00  0.00    +0.000 C 
ATOM     46  C   UNL     1      63.134  63.143  54.098  0.00  0.00    +0.000 C 
ATOM     47  O   UNL     1      63.137  62.442  53.663  0.00  0.00    +0.000 OA
ATOM     48  C   UNL     1      63.512  61.772  53.962  0.00  0.00    +0.000 C 
ATOM     49  C   UNL     1      63.515  61.071  53.527  0.00  0.00    +0.000 C 
ATOM     50  O   UNL     1      63.890  60.400  53.826  0.00  0.00    +0.000 OA
ATOM     51  C   UNL     1      63.893  59.699  53.391  0.00  0.00    +0.000 C 
ATOM     52  O   UNL     1      62.757  64.514  54.233  0.00  0.00    +0.000 OA
ATOM     53  C   UNL     1      62.381  65.185  53.934  0.00  0.00    +0.000 C 
ATOM     54  C   UNL     1      62.008  65.155  53.199  0.00  0.00    +0.000 C 
ATOM     55  C   UNL     1      61.632  65.826  52.898  0.00  0.00    +0.000 C 
ATOM     56  C   UNL     1      62.379  65.886  54.369  0.00  0.00    +0.000 C 
ATOM     57  C   UNL     1      62.811  65.540  54.982  0.00  0.00    +0.000 C 
ATOM     58  O   UNL     1      62.606  66.284  55.055  0.00  0.00    +0.000 OA
ENDROOT
TORSDOF 0
ENDMDL
MODEL 3
REMARK VINA RESULT:   -15.019      2.691      5.910
REMARK INTER + INTRA:         -15.019
REMARK INTER:                 -15.019
REMARK INTRA:                   0.000
REMARK UNBOUND:                 0.000
ROOT
REMARK  Name = dirithromycin
REMARK                            x       y       z     vdW  Elec       q    Type
REMARK                         _______ _______ _______ _____ _____    ______ ____
ATOM      1  C   UNL     1      61.469  69.500  55.357  0.00  0.00    +0.000 C 
ATOM      2  C   UNL     1      61.005  69.923  54.823  0.00  0.00    +0.000 C 
ATOM      3  C   UNL     1      60.813  69.594  54.092  0.00  0.00    +0.000 C 
ATOM      4  O   UNL     1      61.277  69.170  54.625  0.00  0.00    +0.000 OA
ATOM      5  C   UNL     1      61.550  68.417  54.428  0.00  0.00    +0.000 C 
ATOM      6  O   UNL     1      62.014  67.993  54.962  0.00  0.00    +0.000 OA
ATOM      7  C   UNL     1      61.357  68.087  53.697  0.00  0.00    +0.000 C 
ATOM      8  C   UNL     1      61.800  67.446  53.966  0.00  0.00    +0.000 C 
ATOM      9  C   UNL     1      60.892  68.511  53.162  0.00  0.00    +0.000 C 
ATOM     10  O   UNL     1      61.165  67.758  52.965  0.00  0.00    +0.000 OA
ATOM     11  C   UNL     1      61.629  67.334  53.499  0.00  0.00    +0.000 C 
ATOM     12  C   UNL     1      61.822  67.664  54.231  0.00  0.00    +0.000 C 
ATOM     13  C   UNL     1      62.286  67.240  54.765  0.00  0.00    +0.000 C 
ATOM     14  C   UNL     1      62.160  67.929  55.200  0.00  0.00    +0.000 C 
ATOM     15  O   UNL     1      62.707  67.055  55.450  0.00  0.00    +0.000 OA
ATOM     16  C   UNL     1      62.742  67.597  56.071  0.00  0.00    +0.000 C 
ATOM     17  C   UNL     1      62.559  66.487  54.568  0.00  0.00    +0.000 C 
ATOM     18  O   UNL     1      63.023  66.062  55.101  0.00  0.00    +0.000 OA
ATOM     19  C   UNL     1      62.366  66.157  53.835  0.00  0.00    +0.000 C 
ATOM     20  C   UNL     1      62.639  65.403  53.638  0.00  0.00    +0.000 C 
ATOM     21  O   UNL     1      61.902  66.581  53.302  0.00  0.00    +0.000 OA
ATOM     22  C   UNL     1      60.700  68.182  52.432  0.00  0.00    +0.000 C 
ATOM     23  C   UNL     1      60.973  67.428  52.234  0.00  0.00    +0.000 C 
ATOM     24  C   UNL     1      60.236  68.605  51.897  0.00  0.00    +0.000 C 
ATOM     25  O   UNL     1      60.044  68.276  51.166  0.00  0.00    +0.000 OA
ATOM     26  C   UNL     1      60.316  67.523  50.969  0.00  0.00    +0.000 C 
ATOM     27  O   UNL     1      60.781  67.099  51.502  0.00  0.00    +0.000 OA
ATOM     28  C   UNL     1      61.053  66.346  51.305  0.00  0.00    +0.000 C 
ATOM     29  C   UNL     1      61.518  65.922  51.839  0.00  0.00    +0.000 C 
ATOM     30  C   UNL     1      60.860  66.016  50.573  0.00  0.00    +0.000 C 
ATOM     31  C   UNL     1      60.396  66.440  50.039  0.00  0.00    +0.000 C 
ATOM     32  C   UNL     1      60.123  67.193  50.236  0.00  0.00    +0.000 C 
ATOM     33  O   UNL     1      59.659  67.617  49.703  0.00  0.00    +0.000 OA
ATOM     34  N   UNL     1      60.204  66.110  49.308  0.00  0.00    +0.000 NA
ATOM     35  C   UNL     1      59.739  66.534  48.773  0.00  0.00    +0.000 C 
ATOM     36  C   UNL     1      60.476  65.357  49.110  0.00  0.00    +0.000 C 
ATOM     37  C   UNL     1      59.964  69.358  52.095  0.00  0.00    +0.000 C 
ATOM     38  C   UNL     1      59.929  68.816  51.474  0.00  0.00    +0.000 C 
ATOM     39  O   UNL     1      59.637  69.282  51.340  0.00  0.00    +0.000 OA
ATOM     40  C   UNL     1      59.499  69.783  51.561  0.00  0.00    +0.000 C 
ATOM     41  C   UNL     1      59.226  70.536  51.758  0.00  0.00    +0.000 C 
ATOM     42  C   UNL     1      58.762  70.960  51.224  0.00  0.00    +0.000 C 
ATOM     43  C   UNL     1      59.418  70.866  52.489  0.00  0.00    +0.000 C 
ATOM     44  N   UNL     1      59.146  71.619  52.687  0.00  0.00    +0.000 NA
ATOM     45  C   UNL     1      59.339  71.948  53.419  0.00  0.00    +0.000 C 
ATOM     46  C   UNL     1      59.066  72.701  53.616  0.00  0.00    +0.000 C 
ATOM     47  O   UNL     1      58.602  73.125  53.082  0.00  0.00    +0.000 OA
ATOM     48  C   UNL     1      58.330  73.878  53.279  0.00  0.00    +0.000 C 
ATOM     49  C   UNL     1      57.865  74.302  52.745  0.00  0.00    +0.000 C 
ATOM     50  O   UNL     1      57.593  75.055  52.943  0.00  0.00    +0.000 OA
ATOM     51  C   UNL     1      57.128  75.480  52.409  0.00  0.00    +0.000 C 
ATOM     52  O   UNL     1      59.803  71.525  53.952  0.00  0.00    +0.000 OA
ATOM     53  C   UNL     1      60.076  70.771  53.755  0.00  0.00    +0.000 C 
ATOM     54  C   UNL     1      59.883  70.442  53.024  0.00  0.00    +0.000 C 
ATOM     55  C   UNL     1      60.156  69.688  52.826  0.00  0.00    +0.000 C 
ATOM     56  C   UNL     1      60.540  70.347  54.289  0.00  0.00    +0.000 C 
ATOM     57  C   UNL     1      60.510  70.957  54.844  0.00  0.00    +0.000 C 
ATOM     58  O   UNL     1      60.910  70.319  55.026  0.00  0.00    +0.000 OA
ENDROOT
TORSDOF 0
ENDMDL
MODEL 4
REMARK VINA RESULT:   -14.693      2.005      5.793
REMARK INTER + INTRA:         -14.693
REMARK INTER:                 -14.693
REMARK INTRA:                   0.000
REMARK UNBOUND:                 0.000
ROOT
REMARK  Name = dirithromycin
REMARK                            x       y       z     vdW  Elec       q    Type
REMARK                         _______ _______ _______ _____ _____    ______ ____
ATOM      1  C   UNL     1      60.167  65.520  50.647  0.00  0.00    +0.000 C 
ATOM      2  C   UNL     1      60.049  66.335  50.681  0.00  0.00    +0.000 C 
ATOM      3  C   UNL     1      60.313  66.764  51.335  0.00  0.00    +0.000 C 
ATOM      4  O   UNL     1      60.431  65.949  51.301  0.00  0.00    +0.000 OA
ATOM      5  C   UNL     1      60.814  65.561  51.921  0.00  0.00    +0.000 C 
ATOM      6  O   UNL     1      60.933  64.746  51.887  0.00  0.00    +0.000 OA
ATOM      7  C   UNL     1      61.078  65.989  52.575  0.00  0.00    +0.000 C 
ATOM      8  C   UNL     1      61.338  65.254  52.843  0.00  0.00    +0.000 C 
ATOM      9  C   UNL     1      60.959  66.806  52.609  0.00  0.00    +0.000 C 
ATOM     10  O   UNL     1      61.342  66.418  53.228  0.00  0.00    +0.000 OA
ATOM     11  C   UNL     1      61.460  65.603  53.195  0.00  0.00    +0.000 C 
ATOM     12  C   UNL     1      61.196  65.174  52.540  0.00  0.00    +0.000 C 
ATOM     13  C   UNL     1      61.315  64.358  52.507  0.00  0.00    +0.000 C 
ATOM     14  C   UNL     1      60.927  64.476  51.789  0.00  0.00    +0.000 C 
ATOM     15  O   UNL     1      61.299  63.583  52.224  0.00  0.00    +0.000 OA
ATOM     16  C   UNL     1      60.952  63.418  51.494  0.00  0.00    +0.000 C 
ATOM     17  C   UNL     1      61.697  63.971  53.126  0.00  0.00    +0.000 C 
ATOM     18  O   UNL     1      61.816  63.155  53.093  0.00  0.00    +0.000 OA
ATOM     19  C   UNL     1      61.962  64.400  53.781  0.00  0.00    +0.000 C 
ATOM     20  C   UNL     1      62.344  64.012  54.401  0.00  0.00    +0.000 C 
ATOM     21  O   UNL     1      61.843  65.215  53.815  0.00  0.00    +0.000 OA
ATOM     22  C   UNL     1      61.223  67.234  53.262  0.00  0.00    +0.000 C 
ATOM     23  C   UNL     1      61.606  66.846  53.882  0.00  0.00    +0.000 C 
ATOM     24  C   UNL     1      61.105  68.049  53.296  0.00  0.00    +0.000 C 
ATOM     25  O   UNL     1      61.368  68.478  53.950  0.00  0.00    +0.000 OA
ATOM     26  C   UNL     1      61.751  68.091  54.569  0.00  0.00    +0.000 C 
ATOM     27  O   UNL     1      61.870  67.275  54.536  0.00  0.00    +0.000 OA
ATOM     28  C   UNL     1      62.252  66.888  55.155  0.00  0.00    +0.000 C 
ATOM     29  C   UNL     1      62.371  66.072  55.122  0.00  0.00    +0.000 C 
ATOM     30  C   UNL     1      62.516  67.317  55.810  0.00  0.00    +0.000 C 
ATOM     31  C   UNL     1      62.398  68.132  55.843  0.00  0.00    +0.000 C 
ATOM     32  C   UNL     1      62.015  68.520  55.224  0.00  0.00    +0.000 C 
ATOM     33  O   UNL     1      61.896  69.335  55.257  0.00  0.00    +0.000 OA
ATOM     34  N   UNL     1      62.661  68.560  56.497  0.00  0.00    +0.000 NA
ATOM     35  C   UNL     1      62.543  69.377  56.531  0.00  0.00    +0.000 C 
ATOM     36  C   UNL     1      63.044  68.174  57.117  0.00  0.00    +0.000 C 
ATOM     37  C   UNL     1      60.722  68.436  52.676  0.00  0.00    +0.000 C 
ATOM     38  C   UNL     1      61.069  68.601  53.406  0.00  0.00    +0.000 C 
ATOM     39  O   UNL     1      60.871  69.077  53.175  0.00  0.00    +0.000 OA
ATOM     40  C   UNL     1      60.603  69.252  52.710  0.00  0.00    +0.000 C 
ATOM     41  C   UNL     1      60.220  69.640  52.089  0.00  0.00    +0.000 C 
ATOM     42  C   UNL     1      60.102  70.455  52.124  0.00  0.00    +0.000 C 
ATOM     43  C   UNL     1      59.957  69.212  51.436  0.00  0.00    +0.000 C 
ATOM     44  N   UNL     1      59.574  69.598  50.816  0.00  0.00    +0.000 NA
ATOM     45  C   UNL     1      59.310  69.170  50.163  0.00  0.00    +0.000 C 
ATOM     46  C   UNL     1      58.928  69.557  49.543  0.00  0.00    +0.000 C 
ATOM     47  O   UNL     1      58.809  70.373  49.576  0.00  0.00    +0.000 OA
ATOM     48  C   UNL     1      58.427  70.760  48.957  0.00  0.00    +0.000 C 
ATOM     49  C   UNL     1      58.308  71.576  48.990  0.00  0.00    +0.000 C 
ATOM     50  O   UNL     1      57.926  71.963  48.371  0.00  0.00    +0.000 OA
ATOM     51  C   UNL     1      57.807  72.779  48.404  0.00  0.00    +0.000 C 
ATOM     52  O   UNL     1      59.429  68.355  50.129  0.00  0.00    +0.000 OA
ATOM     53  C   UNL     1      59.812  67.967  50.749  0.00  0.00    +0.000 C 
ATOM     54  C   UNL     1      60.075  68.395  51.402  0.00  0.00    +0.000 C 
ATOM     55  C   UNL     1      60.458  68.008  52.023  0.00  0.00    +0.000 C 
ATOM     56  C   UNL     1      59.931  67.151  50.715  0.00  0.00    +0.000 C 
ATOM     57  C   UNL     1      59.561  67.099  49.979  0.00  0.00    +0.000 C 
ATOM     58  O   UNL     1      59.833  66.446  50.297  0.00  0.00    +0.000 OA
ENDROOT
TORSDOF 0
ENDMDL
MODEL 5
REMARK VINA RESULT:   -14.677      2.029      7.217
REMARK INTER + INTRA:         -14.677
REMARK INTER:                 -14.677
REMARK INTRA:                   0.000
REMARK UNBOUND:                 0.000
ROOT
REMARK  Name = dirithromycin
REMARK                            x       y       z     vdW  Elec       q    Type
REMARK                         _______ _______ _______ _____ _____    ______ ____
ATOM      1  C   UNL     1      61.375  64.904  50.210  0.00  0.00    +0.000 C 
ATOM      2  C   UNL     1      61.584  65.016  51.000  0.00  0.00    +0.000 C 
ATOM      3  C   UNL     1      61.818  64.372  51.460  0.00  0.00    +0.000 C 
ATOM      4  O   UNL     1      61.609  64.260  50.670  0.00  0.00    +0.000 OA
ATOM      5  C   UNL     1      61.634  63.504  50.339  0.00  0.00    +0.000 C 
ATOM      6  O   UNL     1      61.425  63.392  49.549  0.00  0.00    +0.000 OA
ATOM      7  C   UNL     1      61.868  62.861  50.799  0.00  0.00    +0.000 C 
ATOM      8  C   UNL     1      61.738  62.430  50.108  0.00  0.00    +0.000 C 
ATOM      9  C   UNL     1      62.077  62.973  51.590  0.00  0.00    +0.000 C 
ATOM     10  O   UNL     1      62.102  62.217  51.259  0.00  0.00    +0.000 OA
ATOM     11  C   UNL     1      61.894  62.105  50.469  0.00  0.00    +0.000 C 
ATOM     12  C   UNL     1      61.659  62.749  50.009  0.00  0.00    +0.000 C 
ATOM     13  C   UNL     1      61.450  62.637  49.218  0.00  0.00    +0.000 C 
ATOM     14  C   UNL     1      61.339  63.452  49.283  0.00  0.00    +0.000 C 
ATOM     15  O   UNL     1      61.203  62.808  48.451  0.00  0.00    +0.000 OA
ATOM     16  C   UNL     1      61.019  63.584  48.240  0.00  0.00    +0.000 C 
ATOM     17  C   UNL     1      61.475  61.882  48.888  0.00  0.00    +0.000 C 
ATOM     18  O   UNL     1      61.266  61.769  48.098  0.00  0.00    +0.000 OA
ATOM     19  C   UNL     1      61.710  61.237  49.349  0.00  0.00    +0.000 C 
ATOM     20  C   UNL     1      61.735  60.482  49.018  0.00  0.00    +0.000 C 
ATOM     21  O   UNL     1      61.918  61.350  50.138  0.00  0.00    +0.000 OA
ATOM     22  C   UNL     1      62.311  62.330  52.049  0.00  0.00    +0.000 C 
ATOM     23  C   UNL     1      62.336  61.574  51.719  0.00  0.00    +0.000 C 
ATOM     24  C   UNL     1      62.520  62.441  52.839  0.00  0.00    +0.000 C 
ATOM     25  O   UNL     1      62.754  61.797  53.299  0.00  0.00    +0.000 OA
ATOM     26  C   UNL     1      62.779  61.043  52.969  0.00  0.00    +0.000 C 
ATOM     27  O   UNL     1      62.571  60.930  52.179  0.00  0.00    +0.000 OA
ATOM     28  C   UNL     1      62.596  60.175  51.849  0.00  0.00    +0.000 C 
ATOM     29  C   UNL     1      62.387  60.062  51.058  0.00  0.00    +0.000 C 
ATOM     30  C   UNL     1      62.830  59.531  52.309  0.00  0.00    +0.000 C 
ATOM     31  C   UNL     1      63.039  59.643  53.099  0.00  0.00    +0.000 C 
ATOM     32  C   UNL     1      63.014  60.398  53.430  0.00  0.00    +0.000 C 
ATOM     33  O   UNL     1      63.223  60.510  54.219  0.00  0.00    +0.000 OA
ATOM     34  N   UNL     1      63.273  58.999  53.559  0.00  0.00    +0.000 NA
ATOM     35  C   UNL     1      63.482  59.111  54.349  0.00  0.00    +0.000 C 
ATOM     36  C   UNL     1      63.298  58.243  53.229  0.00  0.00    +0.000 C 
ATOM     37  C   UNL     1      62.495  63.197  53.169  0.00  0.00    +0.000 C 
ATOM     38  C   UNL     1      62.679  62.420  53.380  0.00  0.00    +0.000 C 
ATOM     39  O   UNL     1      62.751  62.763  53.823  0.00  0.00    +0.000 OA
ATOM     40  C   UNL     1      62.704  63.309  53.960  0.00  0.00    +0.000 C 
ATOM     41  C   UNL     1      62.679  64.065  54.290  0.00  0.00    +0.000 C 
ATOM     42  C   UNL     1      62.888  64.176  55.080  0.00  0.00    +0.000 C 
ATOM     43  C   UNL     1      62.445  64.708  53.831  0.00  0.00    +0.000 C 
ATOM     44  N   UNL     1      62.420  65.464  54.160  0.00  0.00    +0.000 NA
ATOM     45  C   UNL     1      62.185  66.107  53.701  0.00  0.00    +0.000 C 
ATOM     46  C   UNL     1      62.160  66.862  54.031  0.00  0.00    +0.000 C 
ATOM     47  O   UNL     1      62.369  66.975  54.821  0.00  0.00    +0.000 OA
ATOM     48  C   UNL     1      62.344  67.730  55.151  0.00  0.00    +0.000 C 
ATOM     49  C   UNL     1      62.553  67.842  55.942  0.00  0.00    +0.000 C 
ATOM     50  O   UNL     1      62.528  68.597  56.272  0.00  0.00    +0.000 OA
ATOM     51  C   UNL     1      62.737  68.710  57.062  0.00  0.00    +0.000 C 
ATOM     52  O   UNL     1      61.977  65.995  52.911  0.00  0.00    +0.000 OA
ATOM     53  C   UNL     1      62.002  65.240  52.580  0.00  0.00    +0.000 C 
ATOM     54  C   UNL     1      62.236  64.596  53.040  0.00  0.00    +0.000 C 
ATOM     55  C   UNL     1      62.261  63.840  52.710  0.00  0.00    +0.000 C 
ATOM     56  C   UNL     1      61.793  65.127  51.790  0.00  0.00    +0.000 C 
ATOM     57  C   UNL     1      61.636  65.931  51.688  0.00  0.00    +0.000 C 
ATOM     58  O   UNL     1      61.536  65.461  51.080  0.00  0.00    +0.000 OA
ENDROOT
TORSDOF 0
ENDMDL
