MODEL 1
REMARK VINA RESULT:   -16.561      0.000      0.000
REMARK INTER + INTRA:         -16.561
REMARK INTER:                 -16.561
REMARK INTRA:                   0.000
REMARK UNBOUND:                 0.000
ROOT
REMARK  Name = dirlotapide
REMARK                            x       y       z     vdW  Elec       q    Type
REMARK                         _______ _______ _______ _____ _____    ______ ____
ATOM      1  C   UNL     1      62.889  60.255  52.575  0.00  0.00    +0.000 C 
ATOM      2  N   UNL     1      62.333  60.369  51.976  0.00  0.00    +0.000 N 
ATOM      3  C   UNL     1      62.115  59.737  51.491  0.00  0.00    +0.000 C 
ATOM      4  C   UNL     1      62.453  58.994  51.605  0.00  0.00    +0.000 A 
ATOM      5  C   UNL     1      63.009  58.881  52.204  0.00  0.00    +0.000 A 
ATOM      6  C   UNL     1      63.347  58.137  52.318  0.00  0.00    +0.000 A 
ATOM      7  C   UNL     1      63.129  57.506  51.833  0.00  0.00    +0.000 A 
ATOM      8  C   UNL     1      62.573  57.620  51.234  0.00  0.00    +0.000 A 
ATOM      9  C   UNL     1      62.235  58.363  51.120  0.00  0.00    +0.000 A 
ATOM     10  C   UNL     1      61.994  61.113  51.863  0.00  0.00    +0.000 C 
ATOM     11  O   UNL     1      61.438  61.225  51.263  0.00  0.00    +0.000 OA
ATOM     12  C   UNL     1      62.212  61.743  52.347  0.00  0.00    +0.000 C 
ATOM     13  N   UNL     1      61.874  62.487  52.233  0.00  0.00    +0.000 NA
ATOM     14  C   UNL     1      62.092  63.118  52.719  0.00  0.00    +0.000 C 
ATOM     15  O   UNL     1      62.648  63.005  53.317  0.00  0.00    +0.000 OA
ATOM     16  C   UNL     1      61.754  63.862  52.605  0.00  0.00    +0.000 A 
ATOM     17  C   UNL     1      61.916  64.541  53.043  0.00  0.00    +0.000 A 
ATOM     18  C   UNL     1      61.457  65.156  52.742  0.00  0.00    +0.000 A 
ATOM     19  C   UNL     1      61.010  64.857  52.116  0.00  0.00    +0.000 A 
ATOM     20  C   UNL     1      60.494  65.352  51.705  0.00  0.00    +0.000 A 
ATOM     21  C   UNL     1      60.424  66.145  51.919  0.00  0.00    +0.000 A 
ATOM     22  C   UNL     1      60.871  66.444  52.544  0.00  0.00    +0.000 A 
ATOM     23  N   UNL     1      60.802  67.237  52.759  0.00  0.00    +0.000 NA
ATOM     24  C   UNL     1      61.249  67.536  53.385  0.00  0.00    +0.000 C 
ATOM     25  O   UNL     1      61.179  68.330  53.599  0.00  0.00    +0.000 OA
ATOM     26  C   UNL     1      61.765  67.042  53.796  0.00  0.00    +0.000 A 
ATOM     27  C   UNL     1      62.211  67.341  54.422  0.00  0.00    +0.000 A 
ATOM     28  C   UNL     1      62.728  66.847  54.834  0.00  0.00    +0.000 A 
ATOM     29  C   UNL     1      62.797  66.053  54.619  0.00  0.00    +0.000 A 
ATOM     30  C   UNL     1      62.350  65.754  53.993  0.00  0.00    +0.000 A 
ATOM     31  C   UNL     1      61.834  66.249  53.582  0.00  0.00    +0.000 A 
ATOM     32  C   UNL     1      62.142  68.134  54.636  0.00  0.00    +0.000 A 
ATOM     33  C   UNL     1      61.626  68.629  54.224  0.00  0.00    +0.000 A 
ATOM     34  C   UNL     1      61.557  69.423  54.439  0.00  0.00    +0.000 A 
ATOM     35  C   UNL     1      62.003  69.722  55.065  0.00  0.00    +0.000 A 
ATOM     36  C   UNL     1      62.519  69.227  55.476  0.00  0.00    +0.000 A 
ATOM     37  C   UNL     1      62.589  68.433  55.262  0.00  0.00    +0.000 A 
ATOM     38  C   UNL     1      61.933  70.516  55.278  0.00  0.00    +0.000 C 
ATOM     39  F   UNL     1      61.864  71.309  55.493  0.00  0.00    +0.000 F 
ATOM     40  F   UNL     1      62.490  70.403  55.878  0.00  0.00    +0.000 F 
ATOM     41  F   UNL     1      61.378  70.628  54.680  0.00  0.00    +0.000 F 
ATOM     42  C   UNL     1      61.387  65.950  52.956  0.00  0.00    +0.000 A 
ATOM     43  N   UNL     1      61.193  64.057  52.031  0.00  0.00    +0.000 N 
ATOM     44  C   UNL     1      60.873  63.543  51.471  0.00  0.00    +0.000 C 
ATOM     45  C   UNL     1      62.768  61.631  52.946  0.00  0.00    +0.000 A 
ATOM     46  C   UNL     1      62.986  62.261  53.431  0.00  0.00    +0.000 A 
ATOM     47  C   UNL     1      63.542  62.149  54.030  0.00  0.00    +0.000 A 
ATOM     48  C   UNL     1      63.880  61.405  54.144  0.00  0.00    +0.000 A 
ATOM     49  C   UNL     1      63.662  60.773  53.659  0.00  0.00    +0.000 A 
ATOM     50  C   UNL     1      63.106  60.887  53.060  0.00  0.00    +0.000 A 
ENDROOT
TORSDOF 0
ENDMDL
MODEL 2
REMARK VINA RESULT:   -15.941      2.402      3.287
REMARK INTER + INTRA:         -15.941
REMARK INTER:                 -15.941
REMARK INTRA:                   0.000
REMARK UNBOUND:                 0.000
ROOT
REMARK  Name = dirlotapide
REMARK                            x       y       z     vdW  Elec       q    Type
REMARK                         _______ _______ _______ _____ _____    ______ ____
ATOM      1  C   UNL     1      63.240  61.298  52.683  0.00  0.00    +0.000 C 
ATOM      2  N   UNL     1      63.092  61.508  53.466  0.00  0.00    +0.000 N 
ATOM      3  C   UNL     1      63.171  60.945  54.066  0.00  0.00    +0.000 C 
ATOM      4  C   UNL     1      63.397  60.174  53.880  0.00  0.00    +0.000 A 
ATOM      5  C   UNL     1      63.545  59.965  53.096  0.00  0.00    +0.000 A 
ATOM      6  C   UNL     1      63.772  59.194  52.910  0.00  0.00    +0.000 A 
ATOM      7  C   UNL     1      63.850  58.631  53.509  0.00  0.00    +0.000 A 
ATOM      8  C   UNL     1      63.702  58.841  54.293  0.00  0.00    +0.000 A 
ATOM      9  C   UNL     1      63.475  59.612  54.479  0.00  0.00    +0.000 A 
ATOM     10  C   UNL     1      62.866  62.279  53.652  0.00  0.00    +0.000 C 
ATOM     11  O   UNL     1      62.718  62.488  54.436  0.00  0.00    +0.000 OA
ATOM     12  C   UNL     1      62.788  62.841  53.053  0.00  0.00    +0.000 C 
ATOM     13  N   UNL     1      62.561  63.612  53.239  0.00  0.00    +0.000 NA
ATOM     14  C   UNL     1      62.483  64.175  52.640  0.00  0.00    +0.000 C 
ATOM     15  O   UNL     1      62.631  63.965  51.856  0.00  0.00    +0.000 OA
ATOM     16  C   UNL     1      62.256  64.946  52.825  0.00  0.00    +0.000 A 
ATOM     17  C   UNL     1      62.156  65.565  52.289  0.00  0.00    +0.000 A 
ATOM     18  C   UNL     1      61.928  66.235  52.712  0.00  0.00    +0.000 A 
ATOM     19  C   UNL     1      61.888  66.031  53.510  0.00  0.00    +0.000 A 
ATOM     20  C   UNL     1      61.671  66.598  54.069  0.00  0.00    +0.000 A 
ATOM     21  C   UNL     1      61.496  67.367  53.831  0.00  0.00    +0.000 A 
ATOM     22  C   UNL     1      61.536  67.571  53.033  0.00  0.00    +0.000 A 
ATOM     23  N   UNL     1      61.360  68.340  52.793  0.00  0.00    +0.000 NA
ATOM     24  C   UNL     1      61.401  68.544  51.995  0.00  0.00    +0.000 C 
ATOM     25  O   UNL     1      61.225  69.314  51.757  0.00  0.00    +0.000 OA
ATOM     26  C   UNL     1      61.617  67.978  51.436  0.00  0.00    +0.000 A 
ATOM     27  C   UNL     1      61.657  68.182  50.637  0.00  0.00    +0.000 A 
ATOM     28  C   UNL     1      61.873  67.616  50.077  0.00  0.00    +0.000 A 
ATOM     29  C   UNL     1      62.049  66.846  50.316  0.00  0.00    +0.000 A 
ATOM     30  C   UNL     1      62.009  66.642  51.115  0.00  0.00    +0.000 A 
ATOM     31  C   UNL     1      61.793  67.209  51.674  0.00  0.00    +0.000 A 
ATOM     32  C   UNL     1      61.481  68.951  50.398  0.00  0.00    +0.000 A 
ATOM     33  C   UNL     1      61.265  69.518  50.959  0.00  0.00    +0.000 A 
ATOM     34  C   UNL     1      61.089  70.288  50.719  0.00  0.00    +0.000 A 
ATOM     35  C   UNL     1      61.130  70.491  49.921  0.00  0.00    +0.000 A 
ATOM     36  C   UNL     1      61.346  69.926  49.362  0.00  0.00    +0.000 A 
ATOM     37  C   UNL     1      61.522  69.155  49.600  0.00  0.00    +0.000 A 
ATOM     38  C   UNL     1      60.953  71.262  49.683  0.00  0.00    +0.000 C 
ATOM     39  F   UNL     1      60.778  72.031  49.444  0.00  0.00    +0.000 F 
ATOM     40  F   UNL     1      61.102  71.052  48.898  0.00  0.00    +0.000 F 
ATOM     41  F   UNL     1      60.805  71.470  50.466  0.00  0.00    +0.000 F 
ATOM     42  C   UNL     1      61.752  67.005  52.473  0.00  0.00    +0.000 A 
ATOM     43  N   UNL     1      62.091  65.235  53.581  0.00  0.00    +0.000 N 
ATOM     44  C   UNL     1      62.122  64.803  54.282  0.00  0.00    +0.000 C 
ATOM     45  C   UNL     1      62.936  62.632  52.269  0.00  0.00    +0.000 A 
ATOM     46  C   UNL     1      62.858  63.194  51.670  0.00  0.00    +0.000 A 
ATOM     47  C   UNL     1      63.006  62.985  50.886  0.00  0.00    +0.000 A 
ATOM     48  C   UNL     1      63.232  62.214  50.701  0.00  0.00    +0.000 A 
ATOM     49  C   UNL     1      63.310  61.651  51.300  0.00  0.00    +0.000 A 
ATOM     50  C   UNL     1      63.162  61.861  52.084  0.00  0.00    +0.000 A 
ENDROOT
TORSDOF 0
ENDMDL
MODEL 3
REMARK VINA RESULT:   -15.627      3.283      7.903
REMARK INTER + INTRA:         -15.627
REMARK INTER:                 -15.627
REMARK INTRA:                   0.000
REMARK UNBOUND:                 0.000
ROOT
REMARK  Name = dirlotapide
REMARK                            x       y       z     vdW  Elec       q    Type
REMARK                         _______ _______ _______ _____ _____    ______ ____
ATOM      1  C   UNL     1      61.205  68.598  54.261  0.00  0.00    +0.000 C 
ATOM      2  N   UNL     1      60.760  68.558  53.567  0.00  0.00    +0.000 N 
ATOM      3  C   UNL     1      60.364  69.229  53.292  0.00  0.00    +0.000 C 
ATOM      4  C   UNL     1      60.414  69.938  53.711  0.00  0.00    +0.000 A 
ATOM      5  C   UNL     1      60.860  69.976  54.405  0.00  0.00    +0.000 A 
ATOM      6  C   UNL     1      60.910  70.685  54.824  0.00  0.00    +0.000 A 
ATOM      7  C   UNL     1      60.515  71.356  54.549  0.00  0.00    +0.000 A 
ATOM      8  C   UNL     1      60.070  71.317  53.856  0.00  0.00    +0.000 A 
ATOM      9  C   UNL     1      60.020  70.608  53.437  0.00  0.00    +0.000 A 
ATOM     10  C   UNL     1      60.709  67.849  53.148  0.00  0.00    +0.000 C 
ATOM     11  O   UNL     1      60.264  67.811  52.455  0.00  0.00    +0.000 OA
ATOM     12  C   UNL     1      61.104  67.180  53.423  0.00  0.00    +0.000 C 
ATOM     13  N   UNL     1      61.054  66.471  53.004  0.00  0.00    +0.000 NA
ATOM     14  C   UNL     1      61.449  65.800  53.279  0.00  0.00    +0.000 C 
ATOM     15  O   UNL     1      61.894  65.839  53.972  0.00  0.00    +0.000 OA
ATOM     16  C   UNL     1      61.399  65.091  52.860  0.00  0.00    +0.000 A 
ATOM     17  C   UNL     1      61.762  64.379  53.065  0.00  0.00    +0.000 A 
ATOM     18  C   UNL     1      61.564  63.818  52.495  0.00  0.00    +0.000 A 
ATOM     19  C   UNL     1      61.079  64.183  51.936  0.00  0.00    +0.000 A 
ATOM     20  C   UNL     1      60.794  63.751  51.293  0.00  0.00    +0.000 A 
ATOM     21  C   UNL     1      60.992  62.955  51.210  0.00  0.00    +0.000 A 
ATOM     22  C   UNL     1      61.477  62.590  51.769  0.00  0.00    +0.000 A 
ATOM     23  N   UNL     1      61.677  61.794  51.686  0.00  0.00    +0.000 NA
ATOM     24  C   UNL     1      62.162  61.430  52.245  0.00  0.00    +0.000 C 
ATOM     25  O   UNL     1      62.361  60.633  52.161  0.00  0.00    +0.000 OA
ATOM     26  C   UNL     1      62.448  61.861  52.887  0.00  0.00    +0.000 A 
ATOM     27  C   UNL     1      62.933  61.497  53.446  0.00  0.00    +0.000 A 
ATOM     28  C   UNL     1      63.219  61.928  54.088  0.00  0.00    +0.000 A 
ATOM     29  C   UNL     1      63.020  62.725  54.171  0.00  0.00    +0.000 A 
ATOM     30  C   UNL     1      62.534  63.089  53.612  0.00  0.00    +0.000 A 
ATOM     31  C   UNL     1      62.249  62.657  52.970  0.00  0.00    +0.000 A 
ATOM     32  C   UNL     1      63.132  60.701  53.363  0.00  0.00    +0.000 A 
ATOM     33  C   UNL     1      62.846  60.269  52.720  0.00  0.00    +0.000 A 
ATOM     34  C   UNL     1      63.045  59.472  52.638  0.00  0.00    +0.000 A 
ATOM     35  C   UNL     1      63.530  59.108  53.196  0.00  0.00    +0.000 A 
ATOM     36  C   UNL     1      63.816  59.539  53.838  0.00  0.00    +0.000 A 
ATOM     37  C   UNL     1      63.617  60.336  53.922  0.00  0.00    +0.000 A 
ATOM     38  C   UNL     1      63.729  58.311  53.113  0.00  0.00    +0.000 C 
ATOM     39  F   UNL     1      63.928  57.515  53.030  0.00  0.00    +0.000 F 
ATOM     40  F   UNL     1      64.175  58.350  53.807  0.00  0.00    +0.000 F 
ATOM     41  F   UNL     1      63.284  58.273  52.420  0.00  0.00    +0.000 F 
ATOM     42  C   UNL     1      61.764  63.021  52.411  0.00  0.00    +0.000 A 
ATOM     43  N   UNL     1      60.977  64.969  52.161  0.00  0.00    +0.000 N 
ATOM     44  C   UNL     1      60.532  65.535  51.759  0.00  0.00    +0.000 C 
ATOM     45  C   UNL     1      61.550  67.218  54.116  0.00  0.00    +0.000 A 
ATOM     46  C   UNL     1      61.944  66.548  54.391  0.00  0.00    +0.000 A 
ATOM     47  C   UNL     1      62.390  66.586  55.085  0.00  0.00    +0.000 A 
ATOM     48  C   UNL     1      62.440  67.295  55.504  0.00  0.00    +0.000 A 
ATOM     49  C   UNL     1      62.045  67.966  55.229  0.00  0.00    +0.000 A 
ATOM     50  C   UNL     1      61.600  67.927  54.535  0.00  0.00    +0.000 A 
ENDROOT
TORSDOF 0
ENDMDL
MODEL 4
REMARK VINA RESULT:   -15.429      2.815      3.400
REMARK INTER + INTRA:         -15.429
REMARK INTER:                 -15.429
REMARK INTRA:                   0.000
REMARK UNBOUND:                 0.000
ROOT
REMARK  Name = dirlotapide
REMARK                            x       y       z     vdW  Elec       q    Type
REMARK                         _______ _______ _______ _____ _____    ______ ____
ATOM      1  C   UNL     1      63.113  61.474  53.167  0.00  0.00    +0.000 C 
ATOM      2  N   UNL     1      63.257  61.232  52.392  0.00  0.00    +0.000 N 
ATOM      3  C   UNL     1      63.474  60.450  52.238  0.00  0.00    +0.000 C 
ATOM      4  C   UNL     1      63.548  59.912  52.859  0.00  0.00    +0.000 A 
ATOM      5  C   UNL     1      63.404  60.155  53.634  0.00  0.00    +0.000 A 
ATOM      6  C   UNL     1      63.478  59.617  54.255  0.00  0.00    +0.000 A 
ATOM      7  C   UNL     1      63.695  58.836  54.101  0.00  0.00    +0.000 A 
ATOM      8  C   UNL     1      63.839  58.594  53.325  0.00  0.00    +0.000 A 
ATOM      9  C   UNL     1      63.765  59.132  52.704  0.00  0.00    +0.000 A 
ATOM     10  C   UNL     1      63.183  61.770  51.771  0.00  0.00    +0.000 C 
ATOM     11  O   UNL     1      63.327  61.526  50.996  0.00  0.00    +0.000 OA
ATOM     12  C   UNL     1      62.966  62.550  51.925  0.00  0.00    +0.000 C 
ATOM     13  N   UNL     1      62.892  63.088  51.304  0.00  0.00    +0.000 NA
ATOM     14  C   UNL     1      62.675  63.869  51.459  0.00  0.00    +0.000 C 
ATOM     15  O   UNL     1      62.531  64.111  52.234  0.00  0.00    +0.000 OA
ATOM     16  C   UNL     1      62.601  64.407  50.838  0.00  0.00    +0.000 A 
ATOM     17  C   UNL     1      62.389  65.201  50.906  0.00  0.00    +0.000 A 
ATOM     18  C   UNL     1      62.383  65.530  50.150  0.00  0.00    +0.000 A 
ATOM     19  C   UNL     1      62.592  64.939  49.614  0.00  0.00    +0.000 A 
ATOM     20  C   UNL     1      62.632  65.111  48.807  0.00  0.00    +0.000 A 
ATOM     21  C   UNL     1      62.464  65.871  48.538  0.00  0.00    +0.000 A 
ATOM     22  C   UNL     1      62.256  66.462  49.075  0.00  0.00    +0.000 A 
ATOM     23  N   UNL     1      62.088  67.224  48.806  0.00  0.00    +0.000 NA
ATOM     24  C   UNL     1      61.879  67.815  49.343  0.00  0.00    +0.000 C 
ATOM     25  O   UNL     1      61.711  68.576  49.072  0.00  0.00    +0.000 OA
ATOM     26  C   UNL     1      61.839  67.644  50.148  0.00  0.00    +0.000 A 
ATOM     27  C   UNL     1      61.630  68.235  50.685  0.00  0.00    +0.000 A 
ATOM     28  C   UNL     1      61.590  68.065  51.491  0.00  0.00    +0.000 A 
ATOM     29  C   UNL     1      61.758  67.303  51.760  0.00  0.00    +0.000 A 
ATOM     30  C   UNL     1      61.966  66.712  51.224  0.00  0.00    +0.000 A 
ATOM     31  C   UNL     1      62.007  66.883  50.418  0.00  0.00    +0.000 A 
ATOM     32  C   UNL     1      61.462  68.996  50.416  0.00  0.00    +0.000 A 
ATOM     33  C   UNL     1      61.503  69.167  49.609  0.00  0.00    +0.000 A 
ATOM     34  C   UNL     1      61.335  69.928  49.340  0.00  0.00    +0.000 A 
ATOM     35  C   UNL     1      61.126  70.519  49.877  0.00  0.00    +0.000 A 
ATOM     36  C   UNL     1      61.086  70.349  50.683  0.00  0.00    +0.000 A 
ATOM     37  C   UNL     1      61.254  69.587  50.953  0.00  0.00    +0.000 A 
ATOM     38  C   UNL     1      60.958  71.281  49.607  0.00  0.00    +0.000 C 
ATOM     39  F   UNL     1      60.790  72.042  49.338  0.00  0.00    +0.000 F 
ATOM     40  F   UNL     1      60.814  71.523  50.383  0.00  0.00    +0.000 F 
ATOM     41  F   UNL     1      61.102  71.038  48.832  0.00  0.00    +0.000 F 
ATOM     42  C   UNL     1      62.215  66.292  49.881  0.00  0.00    +0.000 A 
ATOM     43  N   UNL     1      62.726  64.245  50.038  0.00  0.00    +0.000 N 
ATOM     44  C   UNL     1      62.947  63.517  49.720  0.00  0.00    +0.000 C 
ATOM     45  C   UNL     1      62.822  62.793  52.701  0.00  0.00    +0.000 A 
ATOM     46  C   UNL     1      62.605  63.573  52.855  0.00  0.00    +0.000 A 
ATOM     47  C   UNL     1      62.461  63.817  53.630  0.00  0.00    +0.000 A 
ATOM     48  C   UNL     1      62.534  63.278  54.251  0.00  0.00    +0.000 A 
ATOM     49  C   UNL     1      62.752  62.497  54.097  0.00  0.00    +0.000 A 
ATOM     50  C   UNL     1      62.896  62.255  53.322  0.00  0.00    +0.000 A 
ENDROOT
TORSDOF 0
ENDMDL
MODEL 5
REMARK VINA RESULT:   -15.214      1.256      2.143
REMARK INTER + INTRA:         -15.214
REMARK INTER:                 -15.214
REMARK INTRA:                   0.000
REMARK UNBOUND:                 0.000
ROOT
REMARK  Name = dirlotapide
REMARK                            x       y       z     vdW  Elec       q    Type
REMARK                         _______ _______ _______ _____ _____    ______ ____
ATOM      1  C   UNL     1      62.871  60.640  50.966  0.00  0.00    +0.000 C 
ATOM      2  N   UNL     1      62.940  60.408  51.754  0.00  0.00    +0.000 N 
ATOM      3  C   UNL     1      63.114  59.622  51.938  0.00  0.00    +0.000 C 
ATOM      4  C   UNL     1      63.219  59.070  51.334  0.00  0.00    +0.000 A 
ATOM      5  C   UNL     1      63.150  59.304  50.546  0.00  0.00    +0.000 A 
ATOM      6  C   UNL     1      63.255  58.752  49.941  0.00  0.00    +0.000 A 
ATOM      7  C   UNL     1      63.429  57.966  50.125  0.00  0.00    +0.000 A 
ATOM      8  C   UNL     1      63.498  57.734  50.914  0.00  0.00    +0.000 A 
ATOM      9  C   UNL     1      63.393  58.285  51.518  0.00  0.00    +0.000 A 
ATOM     10  C   UNL     1      62.835  60.959  52.358  0.00  0.00    +0.000 C 
ATOM     11  O   UNL     1      62.904  60.725  53.147  0.00  0.00    +0.000 OA
ATOM     12  C   UNL     1      62.661  61.744  52.174  0.00  0.00    +0.000 C 
ATOM     13  N   UNL     1      62.556  62.296  52.778  0.00  0.00    +0.000 NA
ATOM     14  C   UNL     1      62.382  63.082  52.594  0.00  0.00    +0.000 C 
ATOM     15  O   UNL     1      62.313  63.314  51.806  0.00  0.00    +0.000 OA
ATOM     16  C   UNL     1      62.277  63.633  53.199  0.00  0.00    +0.000 A 
ATOM     17  C   UNL     1      62.102  64.433  53.100  0.00  0.00    +0.000 A 
ATOM     18  C   UNL     1      62.046  64.776  53.848  0.00  0.00    +0.000 A 
ATOM     19  C   UNL     1      62.186  64.188  54.409  0.00  0.00    +0.000 A 
ATOM     20  C   UNL     1      62.165  64.373  55.213  0.00  0.00    +0.000 A 
ATOM     21  C   UNL     1      62.005  65.144  55.456  0.00  0.00    +0.000 A 
ATOM     22  C   UNL     1      61.864  65.732  54.894  0.00  0.00    +0.000 A 
ATOM     23  N   UNL     1      61.703  66.504  55.136  0.00  0.00    +0.000 NA
ATOM     24  C   UNL     1      61.563  67.092  54.575  0.00  0.00    +0.000 C 
ATOM     25  O   UNL     1      61.402  67.864  54.818  0.00  0.00    +0.000 OA
ATOM     26  C   UNL     1      61.584  66.908  53.771  0.00  0.00    +0.000 A 
ATOM     27  C   UNL     1      61.443  67.496  53.210  0.00  0.00    +0.000 A 
ATOM     28  C   UNL     1      61.464  67.313  52.406  0.00  0.00    +0.000 A 
ATOM     29  C   UNL     1      61.625  66.540  52.163  0.00  0.00    +0.000 A 
ATOM     30  C   UNL     1      61.765  65.952  52.725  0.00  0.00    +0.000 A 
ATOM     31  C   UNL     1      61.744  66.137  53.529  0.00  0.00    +0.000 A 
ATOM     32  C   UNL     1      61.282  68.268  53.452  0.00  0.00    +0.000 A 
ATOM     33  C   UNL     1      61.261  68.452  54.257  0.00  0.00    +0.000 A 
ATOM     34  C   UNL     1      61.100  69.224  54.499  0.00  0.00    +0.000 A 
ATOM     35  C   UNL     1      60.960  69.812  53.937  0.00  0.00    +0.000 A 
ATOM     36  C   UNL     1      60.981  69.628  53.134  0.00  0.00    +0.000 A 
ATOM     37  C   UNL     1      61.142  68.856  52.891  0.00  0.00    +0.000 A 
ATOM     38  C   UNL     1      60.799  70.584  54.181  0.00  0.00    +0.000 C 
ATOM     39  F   UNL     1      60.638  71.356  54.422  0.00  0.00    +0.000 F 
ATOM     40  F   UNL     1      60.730  70.817  53.391  0.00  0.00    +0.000 F 
ATOM     41  F   UNL     1      60.868  70.350  54.968  0.00  0.00    +0.000 F 
ATOM     42  C   UNL     1      61.885  65.549  54.090  0.00  0.00    +0.000 A 
ATOM     43  N   UNL     1      62.329  63.482  54.008  0.00  0.00    +0.000 N 
ATOM     44  C   UNL     1      62.495  62.752  54.355  0.00  0.00    +0.000 C 
ATOM     45  C   UNL     1      62.592  61.978  51.386  0.00  0.00    +0.000 A 
ATOM     46  C   UNL     1      62.418  62.762  51.202  0.00  0.00    +0.000 A 
ATOM     47  C   UNL     1      62.349  62.996  50.413  0.00  0.00    +0.000 A 
ATOM     48  C   UNL     1      62.454  62.445  49.809  0.00  0.00    +0.000 A 
ATOM     49  C   UNL     1      62.628  61.659  49.993  0.00  0.00    +0.000 A 
ATOM     50  C   UNL     1      62.697  61.426  50.782  0.00  0.00    +0.000 A 
ENDROOT
TORSDOF 0
ENDMDL
MODEL 6
REMARK VINA RESULT:   -15.175      1.908      3.599
REMARK INTER + INTRA:         -15.175
REMARK INTER:                 -15.175
REMARK INTRA:                   0.000
REMARK UNBOUND:                 0.000
ROOT
REMARK  Name = dirlotapide
REMARK                            x       y       z     vdW  Elec       q    Type
REMARK                         _______ _______ _______ _____ _____    ______ ____
ATOM      1  C   UNL     1      62.804  63.060  52.283  0.00  0.00    +0.000 C 
ATOM      2  N   UNL     1      63.267  63.124  52.963  0.00  0.00    +0.000 N 
ATOM      3  C   UNL     1      63.757  62.498  53.188  0.00  0.00    +0.000 C 
ATOM      4  C   UNL     1      63.783  61.810  52.734  0.00  0.00    +0.000 A 
ATOM      5  C   UNL     1      63.320  61.748  52.054  0.00  0.00    +0.000 A 
ATOM      6  C   UNL     1      63.347  61.060  51.599  0.00  0.00    +0.000 A 
ATOM      7  C   UNL     1      63.836  60.434  51.825  0.00  0.00    +0.000 A 
ATOM      8  C   UNL     1      64.299  60.498  52.505  0.00  0.00    +0.000 A 
ATOM      9  C   UNL     1      64.273  61.186  52.959  0.00  0.00    +0.000 A 
ATOM     10  C   UNL     1      63.240  63.812  53.417  0.00  0.00    +0.000 C 
ATOM     11  O   UNL     1      63.704  63.875  54.097  0.00  0.00    +0.000 OA
ATOM     12  C   UNL     1      62.751  64.436  53.192  0.00  0.00    +0.000 C 
ATOM     13  N   UNL     1      62.725  65.124  53.646  0.00  0.00    +0.000 NA
ATOM     14  C   UNL     1      62.235  65.749  53.421  0.00  0.00    +0.000 C 
ATOM     15  O   UNL     1      61.772  65.685  52.741  0.00  0.00    +0.000 OA
ATOM     16  C   UNL     1      62.208  66.437  53.875  0.00  0.00    +0.000 A 
ATOM     17  C   UNL     1      61.748  67.104  53.719  0.00  0.00    +0.000 A 
ATOM     18  C   UNL     1      61.893  67.657  54.313  0.00  0.00    +0.000 A 
ATOM     19  C   UNL     1      62.443  67.333  54.836  0.00  0.00    +0.000 A 
ATOM     20  C   UNL     1      62.694  67.768  55.490  0.00  0.00    +0.000 A 
ATOM     21  C   UNL     1      62.397  68.525  55.623  0.00  0.00    +0.000 A 
ATOM     22  C   UNL     1      61.847  68.849  55.100  0.00  0.00    +0.000 A 
ATOM     23  N   UNL     1      61.549  69.607  55.232  0.00  0.00    +0.000 NA
ATOM     24  C   UNL     1      60.999  69.931  54.709  0.00  0.00    +0.000 C 
ATOM     25  O   UNL     1      60.701  70.689  54.842  0.00  0.00    +0.000 OA
ATOM     26  C   UNL     1      60.747  69.497  54.054  0.00  0.00    +0.000 A 
ATOM     27  C   UNL     1      60.197  69.821  53.532  0.00  0.00    +0.000 A 
ATOM     28  C   UNL     1      59.945  69.388  52.877  0.00  0.00    +0.000 A 
ATOM     29  C   UNL     1      60.243  68.629  52.745  0.00  0.00    +0.000 A 
ATOM     30  C   UNL     1      60.793  68.305  53.267  0.00  0.00    +0.000 A 
ATOM     31  C   UNL     1      61.045  68.740  53.922  0.00  0.00    +0.000 A 
ATOM     32  C   UNL     1      59.899  70.579  53.663  0.00  0.00    +0.000 A 
ATOM     33  C   UNL     1      60.151  71.013  54.319  0.00  0.00    +0.000 A 
ATOM     34  C   UNL     1      59.853  71.771  54.450  0.00  0.00    +0.000 A 
ATOM     35  C   UNL     1      59.303  72.095  53.928  0.00  0.00    +0.000 A 
ATOM     36  C   UNL     1      59.051  71.661  53.273  0.00  0.00    +0.000 A 
ATOM     37  C   UNL     1      59.349  70.903  53.141  0.00  0.00    +0.000 A 
ATOM     38  C   UNL     1      59.005  72.853  54.061  0.00  0.00    +0.000 C 
ATOM     39  F   UNL     1      58.707  73.611  54.192  0.00  0.00    +0.000 F 
ATOM     40  F   UNL     1      58.542  72.789  53.380  0.00  0.00    +0.000 F 
ATOM     41  F   UNL     1      59.468  72.916  54.740  0.00  0.00    +0.000 F 
ATOM     42  C   UNL     1      61.594  68.416  54.445  0.00  0.00    +0.000 A 
ATOM     43  N   UNL     1      62.638  66.579  54.565  0.00  0.00    +0.000 N 
ATOM     44  C   UNL     1      63.169  66.059  54.922  0.00  0.00    +0.000 C 
ATOM     45  C   UNL     1      62.288  64.373  52.512  0.00  0.00    +0.000 A 
ATOM     46  C   UNL     1      61.799  64.997  52.286  0.00  0.00    +0.000 A 
ATOM     47  C   UNL     1      61.335  64.934  51.606  0.00  0.00    +0.000 A 
ATOM     48  C   UNL     1      61.362  64.246  51.152  0.00  0.00    +0.000 A 
ATOM     49  C   UNL     1      61.852  63.621  51.377  0.00  0.00    +0.000 A 
ATOM     50  C   UNL     1      62.314  63.685  52.057  0.00  0.00    +0.000 A 
ENDROOT
TORSDOF 0
ENDMDL
MODEL 7
REMARK VINA RESULT:   -14.928      3.165      8.213
REMARK INTER + INTRA:         -14.928
REMARK INTER:                 -14.928
REMARK INTRA:                   0.000
REMARK UNBOUND:                 0.000
ROOT
REMARK  Name = dirlotapide
REMARK                            x       y       z     vdW  Elec       q    Type
REMARK                         _______ _______ _______ _____ _____    ______ ____
ATOM      1  C   UNL     1      59.829  70.831  53.720  0.00  0.00    +0.000 C 
ATOM      2  N   UNL     1      59.535  70.711  52.959  0.00  0.00    +0.000 N 
ATOM      3  C   UNL     1      59.088  71.301  52.592  0.00  0.00    +0.000 C 
ATOM      4  C   UNL     1      58.935  72.008  52.988  0.00  0.00    +0.000 A 
ATOM      5  C   UNL     1      59.229  72.127  53.750  0.00  0.00    +0.000 A 
ATOM      6  C   UNL     1      59.076  72.834  54.145  0.00  0.00    +0.000 A 
ATOM      7  C   UNL     1      58.629  73.424  53.779  0.00  0.00    +0.000 A 
ATOM      8  C   UNL     1      58.335  73.304  53.017  0.00  0.00    +0.000 A 
ATOM      9  C   UNL     1      58.488  72.597  52.622  0.00  0.00    +0.000 A 
ATOM     10  C   UNL     1      59.688  70.004  52.563  0.00  0.00    +0.000 C 
ATOM     11  O   UNL     1      59.394  69.886  51.801  0.00  0.00    +0.000 OA
ATOM     12  C   UNL     1      60.135  69.415  52.929  0.00  0.00    +0.000 C 
ATOM     13  N   UNL     1      60.288  68.708  52.534  0.00  0.00    +0.000 NA
ATOM     14  C   UNL     1      60.735  68.118  52.900  0.00  0.00    +0.000 C 
ATOM     15  O   UNL     1      61.029  68.237  53.662  0.00  0.00    +0.000 OA
ATOM     16  C   UNL     1      60.888  67.411  52.505  0.00  0.00    +0.000 A 
ATOM     17  C   UNL     1      61.324  66.775  52.799  0.00  0.00    +0.000 A 
ATOM     18  C   UNL     1      61.337  66.186  52.221  0.00  0.00    +0.000 A 
ATOM     19  C   UNL     1      60.910  66.458  51.570  0.00  0.00    +0.000 A 
ATOM     20  C   UNL     1      60.829  65.980  50.902  0.00  0.00    +0.000 A 
ATOM     21  C   UNL     1      61.175  65.232  50.885  0.00  0.00    +0.000 A 
ATOM     22  C   UNL     1      61.603  64.961  51.536  0.00  0.00    +0.000 A 
ATOM     23  N   UNL     1      61.949  64.212  51.520  0.00  0.00    +0.000 NA
ATOM     24  C   UNL     1      62.377  63.941  52.171  0.00  0.00    +0.000 C 
ATOM     25  O   UNL     1      62.723  63.192  52.154  0.00  0.00    +0.000 OA
ATOM     26  C   UNL     1      62.458  64.418  52.839  0.00  0.00    +0.000 A 
ATOM     27  C   UNL     1      62.885  64.146  53.490  0.00  0.00    +0.000 A 
ATOM     28  C   UNL     1      62.967  64.623  54.158  0.00  0.00    +0.000 A 
ATOM     29  C   UNL     1      62.620  65.372  54.175  0.00  0.00    +0.000 A 
ATOM     30  C   UNL     1      62.193  65.644  53.524  0.00  0.00    +0.000 A 
ATOM     31  C   UNL     1      62.112  65.166  52.856  0.00  0.00    +0.000 A 
ATOM     32  C   UNL     1      63.232  63.398  53.474  0.00  0.00    +0.000 A 
ATOM     33  C   UNL     1      63.151  62.921  52.805  0.00  0.00    +0.000 A 
ATOM     34  C   UNL     1      63.497  62.172  52.789  0.00  0.00    +0.000 A 
ATOM     35  C   UNL     1      63.925  61.901  53.440  0.00  0.00    +0.000 A 
ATOM     36  C   UNL     1      64.006  62.378  54.107  0.00  0.00    +0.000 A 
ATOM     37  C   UNL     1      63.660  63.127  54.125  0.00  0.00    +0.000 A 
ATOM     38  C   UNL     1      64.271  61.152  53.422  0.00  0.00    +0.000 C 
ATOM     39  F   UNL     1      64.618  60.404  53.406  0.00  0.00    +0.000 F 
ATOM     40  F   UNL     1      64.565  61.271  54.185  0.00  0.00    +0.000 F 
ATOM     41  F   UNL     1      63.978  61.034  52.661  0.00  0.00    +0.000 F 
ATOM     42  C   UNL     1      61.684  65.437  52.205  0.00  0.00    +0.000 A 
ATOM     43  N   UNL     1      60.632  67.214  51.745  0.00  0.00    +0.000 N 
ATOM     44  C   UNL     1      60.179  67.691  51.248  0.00  0.00    +0.000 C 
ATOM     45  C   UNL     1      60.429  69.533  53.691  0.00  0.00    +0.000 A 
ATOM     46  C   UNL     1      60.876  68.945  54.057  0.00  0.00    +0.000 A 
ATOM     47  C   UNL     1      61.170  69.063  54.819  0.00  0.00    +0.000 A 
ATOM     48  C   UNL     1      61.017  69.771  55.215  0.00  0.00    +0.000 A 
ATOM     49  C   UNL     1      60.569  70.360  54.848  0.00  0.00    +0.000 A 
ATOM     50  C   UNL     1      60.276  70.241  54.087  0.00  0.00    +0.000 A 
ENDROOT
TORSDOF 0
ENDMDL
MODEL 8
REMARK VINA RESULT:   -14.837      2.733      4.654
REMARK INTER + INTRA:         -14.837
REMARK INTER:                 -14.837
REMARK INTRA:                   0.000
REMARK UNBOUND:                 0.000
ROOT
REMARK  Name = dirlotapide
REMARK                            x       y       z     vdW  Elec       q    Type
REMARK                         _______ _______ _______ _____ _____    ______ ____
ATOM      1  C   UNL     1      62.403  64.622  53.796  0.00  0.00    +0.000 C 
ATOM      2  N   UNL     1      62.354  64.645  52.973  0.00  0.00    +0.000 N 
ATOM      3  C   UNL     1      62.615  64.001  52.527  0.00  0.00    +0.000 C 
ATOM      4  C   UNL     1      62.923  63.335  52.904  0.00  0.00    +0.000 A 
ATOM      5  C   UNL     1      62.971  63.314  53.728  0.00  0.00    +0.000 A 
ATOM      6  C   UNL     1      63.279  62.648  54.106  0.00  0.00    +0.000 A 
ATOM      7  C   UNL     1      63.540  62.004  53.660  0.00  0.00    +0.000 A 
ATOM      8  C   UNL     1      63.492  62.027  52.837  0.00  0.00    +0.000 A 
ATOM      9  C   UNL     1      63.183  62.692  52.459  0.00  0.00    +0.000 A 
ATOM     10  C   UNL     1      62.046  65.311  52.595  0.00  0.00    +0.000 C 
ATOM     11  O   UNL     1      61.998  65.332  51.771  0.00  0.00    +0.000 OA
ATOM     12  C   UNL     1      61.786  65.954  53.040  0.00  0.00    +0.000 C 
ATOM     13  N   UNL     1      61.478  66.619  52.663  0.00  0.00    +0.000 NA
ATOM     14  C   UNL     1      61.217  67.263  53.109  0.00  0.00    +0.000 C 
ATOM     15  O   UNL     1      61.265  67.241  53.932  0.00  0.00    +0.000 OA
ATOM     16  C   UNL     1      60.909  67.929  52.731  0.00  0.00    +0.000 A 
ATOM     17  C   UNL     1      60.628  68.610  53.101  0.00  0.00    +0.000 A 
ATOM     18  C   UNL     1      60.373  69.132  52.516  0.00  0.00    +0.000 A 
ATOM     19  C   UNL     1      60.496  68.773  51.783  0.00  0.00    +0.000 A 
ATOM     20  C   UNL     1      60.290  69.171  51.090  0.00  0.00    +0.000 A 
ATOM     21  C   UNL     1      59.962  69.926  51.129  0.00  0.00    +0.000 A 
ATOM     22  C   UNL     1      59.839  70.285  51.862  0.00  0.00    +0.000 A 
ATOM     23  N   UNL     1      59.511  71.040  51.902  0.00  0.00    +0.000 NA
ATOM     24  C   UNL     1      59.389  71.399  52.635  0.00  0.00    +0.000 C 
ATOM     25  O   UNL     1      59.060  72.155  52.673  0.00  0.00    +0.000 OA
ATOM     26  C   UNL     1      59.594  71.003  53.327  0.00  0.00    +0.000 A 
ATOM     27  C   UNL     1      59.472  71.361  54.060  0.00  0.00    +0.000 A 
ATOM     28  C   UNL     1      59.677  70.965  54.754  0.00  0.00    +0.000 A 
ATOM     29  C   UNL     1      60.006  70.209  54.714  0.00  0.00    +0.000 A 
ATOM     30  C   UNL     1      60.128  69.850  53.981  0.00  0.00    +0.000 A 
ATOM     31  C   UNL     1      59.922  70.247  53.288  0.00  0.00    +0.000 A 
ATOM     32  C   UNL     1      59.143  72.117  54.100  0.00  0.00    +0.000 A 
ATOM     33  C   UNL     1      58.938  72.514  53.406  0.00  0.00    +0.000 A 
ATOM     34  C   UNL     1      58.609  73.270  53.446  0.00  0.00    +0.000 A 
ATOM     35  C   UNL     1      58.487  73.629  54.178  0.00  0.00    +0.000 A 
ATOM     36  C   UNL     1      58.692  73.232  54.871  0.00  0.00    +0.000 A 
ATOM     37  C   UNL     1      59.021  72.476  54.833  0.00  0.00    +0.000 A 
ATOM     38  C   UNL     1      58.158  74.385  54.217  0.00  0.00    +0.000 C 
ATOM     39  F   UNL     1      57.830  75.141  54.257  0.00  0.00    +0.000 F 
ATOM     40  F   UNL     1      58.206  74.363  55.041  0.00  0.00    +0.000 F 
ATOM     41  F   UNL     1      58.110  74.407  53.394  0.00  0.00    +0.000 F 
ATOM     42  C   UNL     1      60.045  69.888  52.556  0.00  0.00    +0.000 A 
ATOM     43  N   UNL     1      60.827  68.030  51.916  0.00  0.00    +0.000 N 
ATOM     44  C   UNL     1      61.039  67.483  51.336  0.00  0.00    +0.000 C 
ATOM     45  C   UNL     1      61.834  65.932  53.864  0.00  0.00    +0.000 A 
ATOM     46  C   UNL     1      61.574  66.575  54.310  0.00  0.00    +0.000 A 
ATOM     47  C   UNL     1      61.621  66.554  55.133  0.00  0.00    +0.000 A 
ATOM     48  C   UNL     1      61.930  65.888  55.511  0.00  0.00    +0.000 A 
ATOM     49  C   UNL     1      62.190  65.244  55.065  0.00  0.00    +0.000 A 
ATOM     50  C   UNL     1      62.142  65.267  54.242  0.00  0.00    +0.000 A 
ENDROOT
TORSDOF 0
ENDMDL
MODEL 9
REMARK VINA RESULT:   -14.829      3.856      7.851
REMARK INTER + INTRA:         -14.829
REMARK INTER:                 -14.829
REMARK INTRA:                   0.000
REMARK UNBOUND:                 0.000
ROOT
REMARK  Name = dirlotapide
REMARK                            x       y       z     vdW  Elec       q    Type
REMARK                         _______ _______ _______ _____ _____    ______ ____
ATOM      1  C   UNL     1      61.318  68.490  50.879  0.00  0.00    +0.000 C 
ATOM      2  N   UNL     1      61.446  68.263  50.096  0.00  0.00    +0.000 N 
ATOM      3  C   UNL     1      61.340  68.810  49.486  0.00  0.00    +0.000 C 
ATOM      4  C   UNL     1      61.105  69.581  49.659  0.00  0.00    +0.000 A 
ATOM      5  C   UNL     1      60.977  69.807  50.443  0.00  0.00    +0.000 A 
ATOM      6  C   UNL     1      60.743  70.579  50.616  0.00  0.00    +0.000 A 
ATOM      7  C   UNL     1      60.636  71.125  50.006  0.00  0.00    +0.000 A 
ATOM      8  C   UNL     1      60.765  70.898  49.224  0.00  0.00    +0.000 A 
ATOM      9  C   UNL     1      60.999  70.126  49.050  0.00  0.00    +0.000 A 
ATOM     10  C   UNL     1      61.681  67.492  49.923  0.00  0.00    +0.000 C 
ATOM     11  O   UNL     1      61.809  67.266  49.139  0.00  0.00    +0.000 OA
ATOM     12  C   UNL     1      61.787  66.946  50.532  0.00  0.00    +0.000 C 
ATOM     13  N   UNL     1      62.021  66.175  50.359  0.00  0.00    +0.000 NA
ATOM     14  C   UNL     1      62.128  65.629  50.969  0.00  0.00    +0.000 C 
ATOM     15  O   UNL     1      61.999  65.855  51.751  0.00  0.00    +0.000 OA
ATOM     16  C   UNL     1      62.362  64.857  50.795  0.00  0.00    +0.000 A 
ATOM     17  C   UNL     1      62.490  64.254  51.343  0.00  0.00    +0.000 A 
ATOM     18  C   UNL     1      62.716  63.578  50.930  0.00  0.00    +0.000 A 
ATOM     19  C   UNL     1      62.729  63.762  50.126  0.00  0.00    +0.000 A 
ATOM     20  C   UNL     1      62.939  63.185  49.574  0.00  0.00    +0.000 A 
ATOM     21  C   UNL     1      63.135  62.425  49.826  0.00  0.00    +0.000 A 
ATOM     22  C   UNL     1      63.122  62.241  50.630  0.00  0.00    +0.000 A 
ATOM     23  N   UNL     1      63.319  61.481  50.882  0.00  0.00    +0.000 NA
ATOM     24  C   UNL     1      63.306  61.296  51.686  0.00  0.00    +0.000 C 
ATOM     25  O   UNL     1      63.503  60.535  51.938  0.00  0.00    +0.000 OA
ATOM     26  C   UNL     1      63.097  61.872  52.238  0.00  0.00    +0.000 A 
ATOM     27  C   UNL     1      63.084  61.687  53.042  0.00  0.00    +0.000 A 
ATOM     28  C   UNL     1      62.875  62.263  53.594  0.00  0.00    +0.000 A 
ATOM     29  C   UNL     1      62.678  63.024  53.342  0.00  0.00    +0.000 A 
ATOM     30  C   UNL     1      62.691  63.209  52.538  0.00  0.00    +0.000 A 
ATOM     31  C   UNL     1      62.900  62.632  51.986  0.00  0.00    +0.000 A 
ATOM     32  C   UNL     1      63.281  60.927  53.294  0.00  0.00    +0.000 A 
ATOM     33  C   UNL     1      63.491  60.351  52.742  0.00  0.00    +0.000 A 
ATOM     34  C   UNL     1      63.687  59.590  52.994  0.00  0.00    +0.000 A 
ATOM     35  C   UNL     1      63.674  59.406  53.798  0.00  0.00    +0.000 A 
ATOM     36  C   UNL     1      63.465  59.982  54.350  0.00  0.00    +0.000 A 
ATOM     37  C   UNL     1      63.268  60.743  54.098  0.00  0.00    +0.000 A 
ATOM     38  C   UNL     1      63.871  58.645  54.049  0.00  0.00    +0.000 C 
ATOM     39  F   UNL     1      64.068  57.885  54.302  0.00  0.00    +0.000 F 
ATOM     40  F   UNL     1      63.743  58.871  54.833  0.00  0.00    +0.000 F 
ATOM     41  F   UNL     1      63.999  58.419  53.267  0.00  0.00    +0.000 F 
ATOM     42  C   UNL     1      62.913  62.816  51.182  0.00  0.00    +0.000 A 
ATOM     43  N   UNL     1      62.510  64.552  50.042  0.00  0.00    +0.000 N 
ATOM     44  C   UNL     1      62.450  64.966  49.332  0.00  0.00    +0.000 C 
ATOM     45  C   UNL     1      61.659  67.172  51.315  0.00  0.00    +0.000 A 
ATOM     46  C   UNL     1      61.765  66.627  51.925  0.00  0.00    +0.000 A 
ATOM     47  C   UNL     1      61.637  66.852  52.708  0.00  0.00    +0.000 A 
ATOM     48  C   UNL     1      61.402  67.624  52.881  0.00  0.00    +0.000 A 
ATOM     49  C   UNL     1      61.296  68.170  52.271  0.00  0.00    +0.000 A 
ATOM     50  C   UNL     1      61.424  67.944  51.489  0.00  0.00    +0.000 A 
ENDROOT
TORSDOF 0
ENDMDL
