MODEL 1
REMARK VINA RESULT:   -11.408      0.000      0.000
REMARK INTER + INTRA:         -11.408
REMARK INTER:                 -11.408
REMARK INTRA:                   0.000
REMARK UNBOUND:                 0.000
ROOT
REMARK  Name = diseptal B
REMARK                            x       y       z     vdW  Elec       q    Type
REMARK                         _______ _______ _______ _____ _____    ______ ____
ATOM      1  C   UNL     1      62.591  64.583  70.033  0.00  0.00    +0.000 C 
ATOM      2  N   UNL     1      61.831  64.267  70.066  0.00  0.00    +0.000 NA
ATOM      3  S   UNL     1      61.529  63.850  69.420  0.00  0.00    +0.000 S 
ATOM      4  O   UNL     1      62.234  63.975  69.010  0.00  0.00    +0.000 OA
ATOM      5  O   UNL     1      60.824  63.726  69.830  0.00  0.00    +0.000 OA
ATOM      6  C   UNL     1      61.228  63.434  68.776  0.00  0.00    +0.000 A 
ATOM      7  C   UNL     1      60.466  63.117  68.809  0.00  0.00    +0.000 A 
ATOM      8  C   UNL     1      60.164  62.701  68.164  0.00  0.00    +0.000 A 
ATOM      9  C   UNL     1      60.624  62.600  67.486  0.00  0.00    +0.000 A 
ATOM     10  N   UNL     1      60.323  62.184  66.841  0.00  0.00    +0.000 NA
ATOM     11  S   UNL     1      60.782  62.083  66.163  0.00  0.00    +0.000 S 
ATOM     12  O   UNL     1      61.396  62.506  66.516  0.00  0.00    +0.000 OA
ATOM     13  O   UNL     1      60.169  61.659  65.809  0.00  0.00    +0.000 OA
ATOM     14  C   UNL     1      61.242  61.982  65.486  0.00  0.00    +0.000 A 
ATOM     15  C   UNL     1      60.940  61.565  64.841  0.00  0.00    +0.000 A 
ATOM     16  C   UNL     1      61.400  61.465  64.163  0.00  0.00    +0.000 A 
ATOM     17  C   UNL     1      62.162  61.781  64.130  0.00  0.00    +0.000 A 
ATOM     18  N   UNL     1      62.621  61.680  63.453  0.00  0.00    +0.000 NA
ATOM     19  C   UNL     1      62.464  62.198  64.776  0.00  0.00    +0.000 A 
ATOM     20  C   UNL     1      62.003  62.298  65.453  0.00  0.00    +0.000 A 
ATOM     21  C   UNL     1      61.385  62.916  67.453  0.00  0.00    +0.000 A 
ATOM     22  C   UNL     1      61.687  63.333  68.098  0.00  0.00    +0.000 A 
ENDROOT
TORSDOF 0
ENDMDL
MODEL 2
REMARK VINA RESULT:   -10.607      1.197      4.445
REMARK INTER + INTRA:         -10.607
REMARK INTER:                 -10.607
REMARK INTRA:                   0.000
REMARK UNBOUND:                 0.000
ROOT
REMARK  Name = diseptal B
REMARK                            x       y       z     vdW  Elec       q    Type
REMARK                         _______ _______ _______ _____ _____    ______ ____
ATOM      1  C   UNL     1      62.754  61.727  63.504  0.00  0.00    +0.000 C 
ATOM      2  N   UNL     1      61.977  61.484  63.636  0.00  0.00    +0.000 NA
ATOM      3  S   UNL     1      61.603  61.669  64.349  0.00  0.00    +0.000 S 
ATOM      4  O   UNL     1      62.284  62.055  64.607  0.00  0.00    +0.000 OA
ATOM      5  O   UNL     1      60.921  61.282  64.091  0.00  0.00    +0.000 OA
ATOM      6  C   UNL     1      61.229  61.852  65.060  0.00  0.00    +0.000 A 
ATOM      7  C   UNL     1      60.451  61.610  65.193  0.00  0.00    +0.000 A 
ATOM      8  C   UNL     1      60.078  61.793  65.905  0.00  0.00    +0.000 A 
ATOM      9  C   UNL     1      60.482  62.220  66.485  0.00  0.00    +0.000 A 
ATOM     10  N   UNL     1      60.108  62.404  67.197  0.00  0.00    +0.000 NA
ATOM     11  S   UNL     1      60.511  62.831  67.776  0.00  0.00    +0.000 S 
ATOM     12  O   UNL     1      61.176  62.865  67.289  0.00  0.00    +0.000 OA
ATOM     13  O   UNL     1      59.847  62.797  68.265  0.00  0.00    +0.000 OA
ATOM     14  C   UNL     1      60.914  63.257  68.355  0.00  0.00    +0.000 A 
ATOM     15  C   UNL     1      60.540  63.441  69.068  0.00  0.00    +0.000 A 
ATOM     16  C   UNL     1      60.944  63.868  69.648  0.00  0.00    +0.000 A 
ATOM     17  C   UNL     1      61.722  64.111  69.516  0.00  0.00    +0.000 A 
ATOM     18  N   UNL     1      62.125  64.537  70.094  0.00  0.00    +0.000 NA
ATOM     19  C   UNL     1      62.096  63.927  68.803  0.00  0.00    +0.000 A 
ATOM     20  C   UNL     1      61.692  63.500  68.223  0.00  0.00    +0.000 A 
ATOM     21  C   UNL     1      61.259  62.463  66.352  0.00  0.00    +0.000 A 
ATOM     22  C   UNL     1      61.632  62.279  65.640  0.00  0.00    +0.000 A 
ENDROOT
TORSDOF 0
ENDMDL
MODEL 3
REMARK VINA RESULT:   -10.198      2.769      6.032
REMARK INTER + INTRA:         -10.198
REMARK INTER:                 -10.198
REMARK INTRA:                   0.000
REMARK UNBOUND:                 0.000
ROOT
REMARK  Name = diseptal B
REMARK                            x       y       z     vdW  Elec       q    Type
REMARK                         _______ _______ _______ _____ _____    ______ ____
ATOM      1  C   UNL     1      61.296  63.204  68.060  0.00  0.00    +0.000 C 
ATOM      2  N   UNL     1      61.193  63.149  68.876  0.00  0.00    +0.000 NA
ATOM      3  S   UNL     1      61.669  63.594  69.383  0.00  0.00    +0.000 S 
ATOM      4  O   UNL     1      62.062  63.915  68.733  0.00  0.00    +0.000 OA
ATOM      5  O   UNL     1      61.276  63.274  70.034  0.00  0.00    +0.000 OA
ATOM      6  C   UNL     1      62.144  64.039  69.889  0.00  0.00    +0.000 A 
ATOM      7  C   UNL     1      62.041  63.984  70.706  0.00  0.00    +0.000 A 
ATOM      8  C   UNL     1      62.516  64.429  71.213  0.00  0.00    +0.000 A 
ATOM      9  C   UNL     1      63.094  64.929  70.902  0.00  0.00    +0.000 A 
ATOM     10  N   UNL     1      63.569  65.375  71.409  0.00  0.00    +0.000 NA
ATOM     11  S   UNL     1      64.147  65.875  71.099  0.00  0.00    +0.000 S 
ATOM     12  O   UNL     1      63.933  65.650  70.335  0.00  0.00    +0.000 OA
ATOM     13  O   UNL     1      64.363  66.101  71.863  0.00  0.00    +0.000 OA
ATOM     14  C   UNL     1      64.725  66.374  70.789  0.00  0.00    +0.000 A 
ATOM     15  C   UNL     1      65.201  66.820  71.297  0.00  0.00    +0.000 A 
ATOM     16  C   UNL     1      65.779  67.320  70.986  0.00  0.00    +0.000 A 
ATOM     17  C   UNL     1      65.883  67.375  70.169  0.00  0.00    +0.000 A 
ATOM     18  N   UNL     1      66.461  67.875  69.859  0.00  0.00    +0.000 NA
ATOM     19  C   UNL     1      65.407  66.930  69.662  0.00  0.00    +0.000 A 
ATOM     20  C   UNL     1      64.829  66.430  69.973  0.00  0.00    +0.000 A 
ATOM     21  C   UNL     1      63.197  64.984  70.086  0.00  0.00    +0.000 A 
ATOM     22  C   UNL     1      62.722  64.539  69.580  0.00  0.00    +0.000 A 
ENDROOT
TORSDOF 0
ENDMDL
MODEL 4
REMARK VINA RESULT:   -10.156      2.011      2.825
REMARK INTER + INTRA:         -10.156
REMARK INTER:                 -10.156
REMARK INTRA:                   0.000
REMARK UNBOUND:                 0.000
ROOT
REMARK  Name = diseptal B
REMARK                            x       y       z     vdW  Elec       q    Type
REMARK                         _______ _______ _______ _____ _____    ______ ____
ATOM      1  C   UNL     1      62.081  65.121  72.700  0.00  0.00    +0.000 C 
ATOM      2  N   UNL     1      61.587  64.477  72.845  0.00  0.00    +0.000 NA
ATOM      3  S   UNL     1      61.340  63.997  72.220  0.00  0.00    +0.000 S 
ATOM      4  O   UNL     1      61.768  64.466  71.692  0.00  0.00    +0.000 OA
ATOM      5  O   UNL     1      60.913  63.529  72.748  0.00  0.00    +0.000 OA
ATOM      6  C   UNL     1      61.094  63.519  71.596  0.00  0.00    +0.000 A 
ATOM      7  C   UNL     1      60.600  62.873  71.741  0.00  0.00    +0.000 A 
ATOM      8  C   UNL     1      60.353  62.394  71.116  0.00  0.00    +0.000 A 
ATOM      9  C   UNL     1      60.600  62.561  70.346  0.00  0.00    +0.000 A 
ATOM     10  N   UNL     1      60.353  62.082  69.722  0.00  0.00    +0.000 NA
ATOM     11  S   UNL     1      60.599  62.248  68.952  0.00  0.00    +0.000 S 
ATOM     12  O   UNL     1      61.027  62.896  69.228  0.00  0.00    +0.000 OA
ATOM     13  O   UNL     1      60.172  61.599  68.674  0.00  0.00    +0.000 OA
ATOM     14  C   UNL     1      60.846  62.414  68.183  0.00  0.00    +0.000 A 
ATOM     15  C   UNL     1      60.599  61.934  67.558  0.00  0.00    +0.000 A 
ATOM     16  C   UNL     1      60.846  62.101  66.788  0.00  0.00    +0.000 A 
ATOM     17  C   UNL     1      61.340  62.746  66.643  0.00  0.00    +0.000 A 
ATOM     18  N   UNL     1      61.586  62.912  65.874  0.00  0.00    +0.000 NA
ATOM     19  C   UNL     1      61.587  63.225  67.268  0.00  0.00    +0.000 A 
ATOM     20  C   UNL     1      61.340  63.059  68.038  0.00  0.00    +0.000 A 
ATOM     21  C   UNL     1      61.093  63.205  70.201  0.00  0.00    +0.000 A 
ATOM     22  C   UNL     1      61.340  63.684  70.826  0.00  0.00    +0.000 A 
ENDROOT
TORSDOF 0
ENDMDL
MODEL 5
REMARK VINA RESULT:    -9.877      2.025      3.132
REMARK INTER + INTRA:          -9.877
REMARK INTER:                  -9.877
REMARK INTRA:                   0.000
REMARK UNBOUND:                 0.000
ROOT
REMARK  Name = diseptal B
REMARK                            x       y       z     vdW  Elec       q    Type
REMARK                         _______ _______ _______ _____ _____    ______ ____
ATOM      1  C   UNL     1      64.983  66.075  69.842  0.00  0.00    +0.000 C 
ATOM      2  N   UNL     1      64.576  65.772  70.491  0.00  0.00    +0.000 NA
ATOM      3  S   UNL     1      63.932  65.267  70.377  0.00  0.00    +0.000 S 
ATOM      4  O   UNL     1      64.032  65.325  69.560  0.00  0.00    +0.000 OA
ATOM      5  O   UNL     1      63.833  65.209  71.194  0.00  0.00    +0.000 OA
ATOM      6  C   UNL     1      63.291  64.763  70.263  0.00  0.00    +0.000 A 
ATOM      7  C   UNL     1      62.883  64.460  70.914  0.00  0.00    +0.000 A 
ATOM      8  C   UNL     1      62.240  63.955  70.799  0.00  0.00    +0.000 A 
ATOM      9  C   UNL     1      62.005  63.753  70.034  0.00  0.00    +0.000 A 
ATOM     10  N   UNL     1      61.363  63.249  69.920  0.00  0.00    +0.000 NA
ATOM     11  S   UNL     1      61.127  63.046  69.156  0.00  0.00    +0.000 S 
ATOM     12  O   UNL     1      61.733  63.512  68.846  0.00  0.00    +0.000 OA
ATOM     13  O   UNL     1      60.521  62.580  69.465  0.00  0.00    +0.000 OA
ATOM     14  C   UNL     1      60.893  62.845  68.392  0.00  0.00    +0.000 A 
ATOM     15  C   UNL     1      60.249  62.340  68.277  0.00  0.00    +0.000 A 
ATOM     16  C   UNL     1      60.015  62.138  67.512  0.00  0.00    +0.000 A 
ATOM     17  C   UNL     1      60.422  62.441  66.862  0.00  0.00    +0.000 A 
ATOM     18  N   UNL     1      60.187  62.239  66.097  0.00  0.00    +0.000 NA
ATOM     19  C   UNL     1      61.065  62.946  66.976  0.00  0.00    +0.000 A 
ATOM     20  C   UNL     1      61.300  63.147  67.741  0.00  0.00    +0.000 A 
ATOM     21  C   UNL     1      62.412  64.056  69.384  0.00  0.00    +0.000 A 
ATOM     22  C   UNL     1      63.055  64.561  69.499  0.00  0.00    +0.000 A 
ENDROOT
TORSDOF 0
ENDMDL
MODEL 6
REMARK VINA RESULT:    -9.873      2.145      5.744
REMARK INTER + INTRA:          -9.873
REMARK INTER:                  -9.873
REMARK INTRA:                   0.000
REMARK UNBOUND:                 0.000
ROOT
REMARK  Name = diseptal B
REMARK                            x       y       z     vdW  Elec       q    Type
REMARK                         _______ _______ _______ _____ _____    ______ ____
ATOM      1  C   UNL     1      61.164  62.595  67.003  0.00  0.00    +0.000 C 
ATOM      2  N   UNL     1      60.790  62.098  67.544  0.00  0.00    +0.000 NA
ATOM      3  S   UNL     1      60.782  62.293  68.347  0.00  0.00    +0.000 S 
ATOM      4  O   UNL     1      61.210  62.979  68.184  0.00  0.00    +0.000 OA
ATOM      5  O   UNL     1      60.355  61.606  68.510  0.00  0.00    +0.000 OA
ATOM      6  C   UNL     1      60.774  62.488  69.148  0.00  0.00    +0.000 A 
ATOM      7  C   UNL     1      60.400  61.990  69.690  0.00  0.00    +0.000 A 
ATOM      8  C   UNL     1      60.392  62.185  70.492  0.00  0.00    +0.000 A 
ATOM      9  C   UNL     1      60.759  62.877  70.751  0.00  0.00    +0.000 A 
ATOM     10  N   UNL     1      60.751  63.072  71.552  0.00  0.00    +0.000 NA
ATOM     11  S   UNL     1      61.117  63.764  71.813  0.00  0.00    +0.000 S 
ATOM     12  O   UNL     1      61.338  63.939  71.038  0.00  0.00    +0.000 OA
ATOM     13  O   UNL     1      60.897  63.590  72.589  0.00  0.00    +0.000 OA
ATOM     14  C   UNL     1      61.483  64.456  72.072  0.00  0.00    +0.000 A 
ATOM     15  C   UNL     1      61.475  64.651  72.875  0.00  0.00    +0.000 A 
ATOM     16  C   UNL     1      61.842  65.343  73.134  0.00  0.00    +0.000 A 
ATOM     17  C   UNL     1      62.216  65.841  72.593  0.00  0.00    +0.000 A 
ATOM     18  N   UNL     1      62.583  66.532  72.852  0.00  0.00    +0.000 NA
ATOM     19  C   UNL     1      62.224  65.645  71.790  0.00  0.00    +0.000 A 
ATOM     20  C   UNL     1      61.858  64.953  71.531  0.00  0.00    +0.000 A 
ATOM     21  C   UNL     1      61.133  63.374  70.210  0.00  0.00    +0.000 A 
ATOM     22  C   UNL     1      61.141  63.179  69.408  0.00  0.00    +0.000 A 
ENDROOT
TORSDOF 0
ENDMDL
MODEL 7
REMARK VINA RESULT:    -9.718      5.181      6.414
REMARK INTER + INTRA:          -9.718
REMARK INTER:                  -9.718
REMARK INTRA:                   0.000
REMARK UNBOUND:                 0.000
ROOT
REMARK  Name = diseptal B
REMARK                            x       y       z     vdW  Elec       q    Type
REMARK                         _______ _______ _______ _____ _____    ______ ____
ATOM      1  C   UNL     1      65.908  67.152  70.463  0.00  0.00    +0.000 C 
ATOM      2  N   UNL     1      65.473  67.530  71.052  0.00  0.00    +0.000 NA
ATOM      3  S   UNL     1      64.806  67.163  71.372  0.00  0.00    +0.000 S 
ATOM      4  O   UNL     1      64.925  66.514  70.877  0.00  0.00    +0.000 OA
ATOM      5  O   UNL     1      64.686  67.811  71.868  0.00  0.00    +0.000 OA
ATOM      6  C   UNL     1      64.140  66.796  71.692  0.00  0.00    +0.000 A 
ATOM      7  C   UNL     1      63.703  67.175  72.281  0.00  0.00    +0.000 A 
ATOM      8  C   UNL     1      63.037  66.808  72.601  0.00  0.00    +0.000 A 
ATOM      9  C   UNL     1      62.808  66.063  72.331  0.00  0.00    +0.000 A 
ATOM     10  N   UNL     1      62.141  65.697  72.651  0.00  0.00    +0.000 NA
ATOM     11  S   UNL     1      61.911  64.952  72.382  0.00  0.00    +0.000 S 
ATOM     12  O   UNL     1      62.547  64.944  71.857  0.00  0.00    +0.000 OA
ATOM     13  O   UNL     1      61.274  64.958  72.907  0.00  0.00    +0.000 OA
ATOM     14  C   UNL     1      61.681  64.207  72.113  0.00  0.00    +0.000 A 
ATOM     15  C   UNL     1      61.014  63.840  72.433  0.00  0.00    +0.000 A 
ATOM     16  C   UNL     1      60.785  63.095  72.163  0.00  0.00    +0.000 A 
ATOM     17  C   UNL     1      61.220  62.716  71.574  0.00  0.00    +0.000 A 
ATOM     18  N   UNL     1      60.991  61.971  71.305  0.00  0.00    +0.000 NA
ATOM     19  C   UNL     1      61.888  63.083  71.254  0.00  0.00    +0.000 A 
ATOM     20  C   UNL     1      62.117  63.828  71.524  0.00  0.00    +0.000 A 
ATOM     21  C   UNL     1      63.243  65.685  71.743  0.00  0.00    +0.000 A 
ATOM     22  C   UNL     1      63.910  66.052  71.423  0.00  0.00    +0.000 A 
ENDROOT
TORSDOF 0
ENDMDL
MODEL 8
REMARK VINA RESULT:    -9.600      4.411      5.904
REMARK INTER + INTRA:          -9.600
REMARK INTER:                  -9.600
REMARK INTRA:                   0.000
REMARK UNBOUND:                 0.000
ROOT
REMARK  Name = diseptal B
REMARK                            x       y       z     vdW  Elec       q    Type
REMARK                         _______ _______ _______ _____ _____    ______ ____
ATOM      1  C   UNL     1      65.825  67.872  71.169  0.00  0.00    +0.000 C 
ATOM      2  N   UNL     1      65.819  67.478  70.445  0.00  0.00    +0.000 NA
ATOM      3  S   UNL     1      65.305  66.842  70.326  0.00  0.00    +0.000 S 
ATOM      4  O   UNL     1      65.017  66.931  71.093  0.00  0.00    +0.000 OA
ATOM      5  O   UNL     1      65.594  66.752  69.558  0.00  0.00    +0.000 OA
ATOM      6  C   UNL     1      64.793  66.208  70.207  0.00  0.00    +0.000 A 
ATOM      7  C   UNL     1      64.786  65.812  69.482  0.00  0.00    +0.000 A 
ATOM      8  C   UNL     1      64.273  65.177  69.363  0.00  0.00    +0.000 A 
ATOM      9  C   UNL     1      63.767  64.938  69.969  0.00  0.00    +0.000 A 
ATOM     10  N   UNL     1      63.254  64.303  69.850  0.00  0.00    +0.000 NA
ATOM     11  S   UNL     1      62.747  64.062  70.455  0.00  0.00    +0.000 S 
ATOM     12  O   UNL     1      63.046  64.656  70.942  0.00  0.00    +0.000 OA
ATOM     13  O   UNL     1      62.447  63.467  69.968  0.00  0.00    +0.000 OA
ATOM     14  C   UNL     1      62.241  63.822  71.059  0.00  0.00    +0.000 A 
ATOM     15  C   UNL     1      61.727  63.187  70.940  0.00  0.00    +0.000 A 
ATOM     16  C   UNL     1      61.221  62.947  71.546  0.00  0.00    +0.000 A 
ATOM     17  C   UNL     1      61.227  63.342  72.271  0.00  0.00    +0.000 A 
ATOM     18  N   UNL     1      60.720  63.102  72.876  0.00  0.00    +0.000 NA
ATOM     19  C   UNL     1      61.740  63.978  72.390  0.00  0.00    +0.000 A 
ATOM     20  C   UNL     1      62.247  64.217  71.784  0.00  0.00    +0.000 A 
ATOM     21  C   UNL     1      63.773  65.332  70.693  0.00  0.00    +0.000 A 
ATOM     22  C   UNL     1      64.286  65.967  70.812  0.00  0.00    +0.000 A 
ENDROOT
TORSDOF 0
ENDMDL
MODEL 9
REMARK VINA RESULT:    -9.384      4.611      5.299
REMARK INTER + INTRA:          -9.384
REMARK INTER:                  -9.384
REMARK INTRA:                   0.000
REMARK UNBOUND:                 0.000
ROOT
REMARK  Name = diseptal B
REMARK                            x       y       z     vdW  Elec       q    Type
REMARK                         _______ _______ _______ _____ _____    ______ ____
ATOM      1  C   UNL     1      58.509  66.293  72.541  0.00  0.00    +0.000 C 
ATOM      2  N   UNL     1      58.567  65.480  72.416  0.00  0.00    +0.000 NA
ATOM      3  S   UNL     1      59.250  65.162  72.079  0.00  0.00    +0.000 S 
ATOM      4  O   UNL     1      59.578  65.917  72.029  0.00  0.00    +0.000 OA
ATOM      5  O   UNL     1      58.923  64.406  72.128  0.00  0.00    +0.000 OA
ATOM      6  C   UNL     1      59.932  64.844  71.743  0.00  0.00    +0.000 A 
ATOM      7  C   UNL     1      59.990  64.030  71.617  0.00  0.00    +0.000 A 
ATOM      8  C   UNL     1      60.673  63.712  71.280  0.00  0.00    +0.000 A 
ATOM      9  C   UNL     1      61.298  64.208  71.069  0.00  0.00    +0.000 A 
ATOM     10  N   UNL     1      61.980  63.890  70.733  0.00  0.00    +0.000 NA
ATOM     11  S   UNL     1      62.606  64.385  70.521  0.00  0.00    +0.000 S 
ATOM     12  O   UNL     1      62.179  65.038  70.788  0.00  0.00    +0.000 OA
ATOM     13  O   UNL     1      63.034  63.732  70.254  0.00  0.00    +0.000 OA
ATOM     14  C   UNL     1      63.230  64.880  70.310  0.00  0.00    +0.000 A 
ATOM     15  C   UNL     1      63.914  64.562  69.973  0.00  0.00    +0.000 A 
ATOM     16  C   UNL     1      64.538  65.058  69.762  0.00  0.00    +0.000 A 
ATOM     17  C   UNL     1      64.481  65.872  69.887  0.00  0.00    +0.000 A 
ATOM     18  N   UNL     1      65.106  66.367  69.677  0.00  0.00    +0.000 NA
ATOM     19  C   UNL     1      63.798  66.190  70.225  0.00  0.00    +0.000 A 
ATOM     20  C   UNL     1      63.173  65.694  70.436  0.00  0.00    +0.000 A 
ATOM     21  C   UNL     1      61.240  65.021  71.195  0.00  0.00    +0.000 A 
ATOM     22  C   UNL     1      60.557  65.339  71.531  0.00  0.00    +0.000 A 
ENDROOT
TORSDOF 0
ENDMDL
