MODEL 1
REMARK VINA RESULT:   -11.729      0.000      0.000
REMARK INTER + INTRA:         -11.729
REMARK INTER:                 -11.729
REMARK INTRA:                   0.000
REMARK UNBOUND:                 0.000
ROOT
REMARK  Name = ditazole
REMARK                            x       y       z     vdW  Elec       q    Type
REMARK                         _______ _______ _______ _____ _____    ______ ____
ATOM      1  O   UNL     1      59.353  67.245  68.733  0.00  0.00    +0.000 OA
ATOM      2  C   UNL     1      59.640  67.009  69.470  0.00  0.00    +0.000 C 
ATOM      3  C   UNL     1      59.827  66.217  69.604  0.00  0.00    +0.000 C 
ATOM      4  N   UNL     1      60.114  65.981  70.341  0.00  0.00    +0.000 N 
ATOM      5  C   UNL     1      60.213  66.537  70.943  0.00  0.00    +0.000 C 
ATOM      6  C   UNL     1      60.500  66.301  71.680  0.00  0.00    +0.000 C 
ATOM      7  O   UNL     1      60.599  66.856  72.281  0.00  0.00    +0.000 OA
ATOM      8  C   UNL     1      60.301  65.189  70.477  0.00  0.00    +0.000 A 
ATOM      9  N   UNL     1      60.231  64.574  69.931  0.00  0.00    +0.000 NA
ATOM     10  C   UNL     1      60.478  63.878  70.298  0.00  0.00    +0.000 A 
ATOM     11  C   UNL     1      60.701  64.062  71.071  0.00  0.00    +0.000 A 
ATOM     12  O   UNL     1      60.592  64.872  71.181  0.00  0.00    +0.000 OA
ATOM     13  C   UNL     1      60.984  63.530  71.634  0.00  0.00    +0.000 A 
ATOM     14  C   UNL     1      61.065  62.732  71.444  0.00  0.00    +0.000 A 
ATOM     15  C   UNL     1      61.347  62.200  72.006  0.00  0.00    +0.000 A 
ATOM     16  C   UNL     1      61.549  62.466  72.761  0.00  0.00    +0.000 A 
ATOM     17  C   UNL     1      61.468  63.264  72.951  0.00  0.00    +0.000 A 
ATOM     18  C   UNL     1      61.186  63.797  72.389  0.00  0.00    +0.000 A 
ATOM     19  C   UNL     1      60.499  63.129  69.953  0.00  0.00    +0.000 A 
ATOM     20  C   UNL     1      60.258  63.028  69.170  0.00  0.00    +0.000 A 
ATOM     21  C   UNL     1      60.279  62.278  68.826  0.00  0.00    +0.000 A 
ATOM     22  C   UNL     1      60.540  61.631  69.263  0.00  0.00    +0.000 A 
ATOM     23  C   UNL     1      60.782  61.731  70.046  0.00  0.00    +0.000 A 
ATOM     24  C   UNL     1      60.761  62.481  70.391  0.00  0.00    +0.000 A 
ENDROOT
TORSDOF 0
ENDMDL
MODEL 2
REMARK VINA RESULT:   -11.676      0.615      2.547
REMARK INTER + INTRA:         -11.676
REMARK INTER:                 -11.676
REMARK INTRA:                   0.000
REMARK UNBOUND:                 0.000
ROOT
REMARK  Name = ditazole
REMARK                            x       y       z     vdW  Elec       q    Type
REMARK                         _______ _______ _______ _____ _____    ______ ____
ATOM      1  O   UNL     1      60.252  67.605  72.420  0.00  0.00    +0.000 OA
ATOM      2  C   UNL     1      60.118  67.206  71.711  0.00  0.00    +0.000 C 
ATOM      3  C   UNL     1      60.292  66.401  71.651  0.00  0.00    +0.000 C 
ATOM      4  N   UNL     1      60.158  66.002  70.942  0.00  0.00    +0.000 N 
ATOM      5  C   UNL     1      59.850  66.408  70.292  0.00  0.00    +0.000 C 
ATOM      6  C   UNL     1      59.717  66.009  69.582  0.00  0.00    +0.000 C 
ATOM      7  O   UNL     1      59.409  66.414  68.933  0.00  0.00    +0.000 OA
ATOM      8  C   UNL     1      60.331  65.198  70.881  0.00  0.00    +0.000 A 
ATOM      9  N   UNL     1      60.640  64.722  71.481  0.00  0.00    +0.000 NA
ATOM     10  C   UNL     1      60.726  63.959  71.182  0.00  0.00    +0.000 A 
ATOM     11  C   UNL     1      60.471  63.962  70.397  0.00  0.00    +0.000 A 
ATOM     12  O   UNL     1      60.227  64.728  70.212  0.00  0.00    +0.000 OA
ATOM     13  C   UNL     1      60.462  63.314  69.887  0.00  0.00    +0.000 A 
ATOM     14  C   UNL     1      60.724  62.578  70.151  0.00  0.00    +0.000 A 
ATOM     15  C   UNL     1      60.714  61.929  69.641  0.00  0.00    +0.000 A 
ATOM     16  C   UNL     1      60.443  62.017  68.867  0.00  0.00    +0.000 A 
ATOM     17  C   UNL     1      60.181  62.753  68.603  0.00  0.00    +0.000 A 
ATOM     18  C   UNL     1      60.190  63.401  69.113  0.00  0.00    +0.000 A 
ATOM     19  C   UNL     1      61.016  63.306  71.594  0.00  0.00    +0.000 A 
ATOM     20  C   UNL     1      61.251  63.386  72.381  0.00  0.00    +0.000 A 
ATOM     21  C   UNL     1      61.541  62.733  72.793  0.00  0.00    +0.000 A 
ATOM     22  C   UNL     1      61.596  62.000  72.419  0.00  0.00    +0.000 A 
ATOM     23  C   UNL     1      61.361  61.919  71.633  0.00  0.00    +0.000 A 
ATOM     24  C   UNL     1      61.071  62.573  71.220  0.00  0.00    +0.000 A 
ENDROOT
TORSDOF 0
ENDMDL
MODEL 3
REMARK VINA RESULT:   -11.516      2.299      3.630
REMARK INTER + INTRA:         -11.516
REMARK INTER:                 -11.516
REMARK INTRA:                   0.000
REMARK UNBOUND:                 0.000
ROOT
REMARK  Name = ditazole
REMARK                            x       y       z     vdW  Elec       q    Type
REMARK                         _______ _______ _______ _____ _____    ______ ____
ATOM      1  O   UNL     1      61.621  63.129  66.241  0.00  0.00    +0.000 OA
ATOM      2  C   UNL     1      61.365  62.858  66.976  0.00  0.00    +0.000 C 
ATOM      3  C   UNL     1      61.605  63.244  67.665  0.00  0.00    +0.000 C 
ATOM      4  N   UNL     1      61.349  62.973  68.400  0.00  0.00    +0.000 N 
ATOM      5  C   UNL     1      60.853  62.314  68.448  0.00  0.00    +0.000 C 
ATOM      6  C   UNL     1      60.597  62.043  69.183  0.00  0.00    +0.000 C 
ATOM      7  O   UNL     1      60.102  61.386  69.230  0.00  0.00    +0.000 OA
ATOM      8  C   UNL     1      61.589  63.358  69.089  0.00  0.00    +0.000 A 
ATOM      9  N   UNL     1      62.081  64.020  69.128  0.00  0.00    +0.000 NA
ATOM     10  C   UNL     1      62.175  64.221  69.922  0.00  0.00    +0.000 A 
ATOM     11  C   UNL     1      61.741  63.685  70.375  0.00  0.00    +0.000 A 
ATOM     12  O   UNL     1      61.379  63.152  69.859  0.00  0.00    +0.000 OA
ATOM     13  C   UNL     1      61.680  63.681  71.197  0.00  0.00    +0.000 A 
ATOM     14  C   UNL     1      62.075  64.252  71.642  0.00  0.00    +0.000 A 
ATOM     15  C   UNL     1      62.014  64.249  72.465  0.00  0.00    +0.000 A 
ATOM     16  C   UNL     1      61.557  63.675  72.843  0.00  0.00    +0.000 A 
ATOM     17  C   UNL     1      61.162  63.105  72.397  0.00  0.00    +0.000 A 
ATOM     18  C   UNL     1      61.223  63.107  71.575  0.00  0.00    +0.000 A 
ATOM     19  C   UNL     1      62.624  64.848  70.214  0.00  0.00    +0.000 A 
ATOM     20  C   UNL     1      63.031  65.342  69.692  0.00  0.00    +0.000 A 
ATOM     21  C   UNL     1      63.480  65.970  69.984  0.00  0.00    +0.000 A 
ATOM     22  C   UNL     1      63.522  66.104  70.796  0.00  0.00    +0.000 A 
ATOM     23  C   UNL     1      63.116  65.611  71.318  0.00  0.00    +0.000 A 
ATOM     24  C   UNL     1      62.666  64.983  71.026  0.00  0.00    +0.000 A 
ENDROOT
TORSDOF 0
ENDMDL
MODEL 4
REMARK VINA RESULT:   -11.317      1.495      2.956
REMARK INTER + INTRA:         -11.317
REMARK INTER:                 -11.317
REMARK INTRA:                   0.000
REMARK UNBOUND:                 0.000
ROOT
REMARK  Name = ditazole
REMARK                            x       y       z     vdW  Elec       q    Type
REMARK                         _______ _______ _______ _____ _____    ______ ____
ATOM      1  O   UNL     1      60.717  61.987  67.228  0.00  0.00    +0.000 OA
ATOM      2  C   UNL     1      60.517  62.643  67.687  0.00  0.00    +0.000 C 
ATOM      3  C   UNL     1      60.670  62.641  68.498  0.00  0.00    +0.000 C 
ATOM      4  N   UNL     1      60.471  63.297  68.956  0.00  0.00    +0.000 N 
ATOM      5  C   UNL     1      60.118  63.955  68.604  0.00  0.00    +0.000 C 
ATOM      6  C   UNL     1      59.918  64.611  69.062  0.00  0.00    +0.000 C 
ATOM      7  O   UNL     1      59.566  65.268  68.710  0.00  0.00    +0.000 OA
ATOM      8  C   UNL     1      60.623  63.296  69.767  0.00  0.00    +0.000 A 
ATOM      9  N   UNL     1      60.971  62.681  70.194  0.00  0.00    +0.000 NA
ATOM     10  C   UNL     1      61.018  62.914  70.984  0.00  0.00    +0.000 A 
ATOM     11  C   UNL     1      60.699  63.673  71.046  0.00  0.00    +0.000 A 
ATOM     12  O   UNL     1      60.455  63.908  70.293  0.00  0.00    +0.000 OA
ATOM     13  C   UNL     1      60.635  64.117  71.737  0.00  0.00    +0.000 A 
ATOM     14  C   UNL     1      60.904  63.808  72.453  0.00  0.00    +0.000 A 
ATOM     15  C   UNL     1      60.841  64.252  73.145  0.00  0.00    +0.000 A 
ATOM     16  C   UNL     1      60.508  65.007  73.121  0.00  0.00    +0.000 A 
ATOM     17  C   UNL     1      60.239  65.316  72.405  0.00  0.00    +0.000 A 
ATOM     18  C   UNL     1      60.302  64.872  71.713  0.00  0.00    +0.000 A 
ATOM     19  C   UNL     1      61.329  62.468  71.603  0.00  0.00    +0.000 A 
ATOM     20  C   UNL     1      61.630  61.713  71.458  0.00  0.00    +0.000 A 
ATOM     21  C   UNL     1      61.941  61.266  72.078  0.00  0.00    +0.000 A 
ATOM     22  C   UNL     1      61.951  61.574  72.843  0.00  0.00    +0.000 A 
ATOM     23  C   UNL     1      61.650  62.328  72.989  0.00  0.00    +0.000 A 
ATOM     24  C   UNL     1      61.339  62.775  72.369  0.00  0.00    +0.000 A 
ENDROOT
TORSDOF 0
ENDMDL
MODEL 5
REMARK VINA RESULT:   -11.187      2.156      2.529
REMARK INTER + INTRA:         -11.187
REMARK INTER:                 -11.187
REMARK INTRA:                   0.000
REMARK UNBOUND:                 0.000
ROOT
REMARK  Name = ditazole
REMARK                            x       y       z     vdW  Elec       q    Type
REMARK                         _______ _______ _______ _____ _____    ______ ____
ATOM      1  O   UNL     1      64.136  66.540  69.103  0.00  0.00    +0.000 OA
ATOM      2  C   UNL     1      63.771  66.099  69.696  0.00  0.00    +0.000 C 
ATOM      3  C   UNL     1      63.273  65.472  69.496  0.00  0.00    +0.000 C 
ATOM      4  N   UNL     1      62.907  65.031  70.089  0.00  0.00    +0.000 N 
ATOM      5  C   UNL     1      63.040  65.216  70.883  0.00  0.00    +0.000 C 
ATOM      6  C   UNL     1      62.674  64.774  71.476  0.00  0.00    +0.000 C 
ATOM      7  O   UNL     1      62.806  64.959  72.268  0.00  0.00    +0.000 OA
ATOM      8  C   UNL     1      62.409  64.404  69.890  0.00  0.00    +0.000 A 
ATOM      9  N   UNL     1      62.226  64.155  69.124  0.00  0.00    +0.000 NA
ATOM     10  C   UNL     1      61.711  63.513  69.182  0.00  0.00    +0.000 A 
ATOM     11  C   UNL     1      61.576  63.365  69.982  0.00  0.00    +0.000 A 
ATOM     12  O   UNL     1      62.008  63.915  70.419  0.00  0.00    +0.000 OA
ATOM     13  C   UNL     1      61.094  62.771  70.291  0.00  0.00    +0.000 A 
ATOM     14  C   UNL     1      60.694  62.259  69.784  0.00  0.00    +0.000 A 
ATOM     15  C   UNL     1      60.212  61.665  70.092  0.00  0.00    +0.000 A 
ATOM     16  C   UNL     1      60.130  61.583  70.909  0.00  0.00    +0.000 A 
ATOM     17  C   UNL     1      60.530  62.095  71.416  0.00  0.00    +0.000 A 
ATOM     18  C   UNL     1      61.012  62.689  71.108  0.00  0.00    +0.000 A 
ATOM     19  C   UNL     1      61.387  63.093  68.550  0.00  0.00    +0.000 A 
ATOM     20  C   UNL     1      61.573  63.306  67.775  0.00  0.00    +0.000 A 
ATOM     21  C   UNL     1      61.249  62.886  67.142  0.00  0.00    +0.000 A 
ATOM     22  C   UNL     1      60.740  62.253  67.286  0.00  0.00    +0.000 A 
ATOM     23  C   UNL     1      60.554  62.040  68.061  0.00  0.00    +0.000 A 
ATOM     24  C   UNL     1      60.878  62.461  68.693  0.00  0.00    +0.000 A 
ENDROOT
TORSDOF 0
ENDMDL
MODEL 6
REMARK VINA RESULT:   -10.940      2.889      4.035
REMARK INTER + INTRA:         -10.940
REMARK INTER:                 -10.940
REMARK INTRA:                   0.000
REMARK UNBOUND:                 0.000
ROOT
REMARK  Name = ditazole
REMARK                            x       y       z     vdW  Elec       q    Type
REMARK                         _______ _______ _______ _____ _____    ______ ____
ATOM      1  O   UNL     1      61.787  63.124  67.297  0.00  0.00    +0.000 OA
ATOM      2  C   UNL     1      61.529  63.307  68.059  0.00  0.00    +0.000 C 
ATOM      3  C   UNL     1      61.971  63.818  68.532  0.00  0.00    +0.000 C 
ATOM      4  N   UNL     1      61.712  64.001  69.294  0.00  0.00    +0.000 N 
ATOM      5  C   UNL     1      61.012  63.672  69.582  0.00  0.00    +0.000 C 
ATOM      6  C   UNL     1      60.753  63.854  70.344  0.00  0.00    +0.000 C 
ATOM      7  O   UNL     1      60.054  63.525  70.632  0.00  0.00    +0.000 OA
ATOM      8  C   UNL     1      62.153  64.512  69.768  0.00  0.00    +0.000 A 
ATOM      9  N   UNL     1      62.860  64.881  69.556  0.00  0.00    +0.000 NA
ATOM     10  C   UNL     1      63.108  65.341  70.194  0.00  0.00    +0.000 A 
ATOM     11  C   UNL     1      62.556  65.257  70.801  0.00  0.00    +0.000 A 
ATOM     12  O   UNL     1      61.965  64.744  70.537  0.00  0.00    +0.000 OA
ATOM     13  C   UNL     1      62.587  65.621  71.540  0.00  0.00    +0.000 A 
ATOM     14  C   UNL     1      63.214  66.122  71.727  0.00  0.00    +0.000 A 
ATOM     15  C   UNL     1      63.247  66.486  72.466  0.00  0.00    +0.000 A 
ATOM     16  C   UNL     1      62.650  66.348  73.020  0.00  0.00    +0.000 A 
ATOM     17  C   UNL     1      62.023  65.847  72.833  0.00  0.00    +0.000 A 
ATOM     18  C   UNL     1      61.991  65.483  72.094  0.00  0.00    +0.000 A 
ATOM     19  C   UNL     1      63.790  65.805  70.221  0.00  0.00    +0.000 A 
ATOM     20  C   UNL     1      64.294  65.835  69.569  0.00  0.00    +0.000 A 
ATOM     21  C   UNL     1      64.977  66.299  69.596  0.00  0.00    +0.000 A 
ATOM     22  C   UNL     1      65.154  66.731  70.275  0.00  0.00    +0.000 A 
ATOM     23  C   UNL     1      64.650  66.701  70.928  0.00  0.00    +0.000 A 
ATOM     24  C   UNL     1      63.968  66.237  70.900  0.00  0.00    +0.000 A 
ENDROOT
TORSDOF 0
ENDMDL
MODEL 7
REMARK VINA RESULT:   -10.778      2.111      2.898
REMARK INTER + INTRA:         -10.778
REMARK INTER:                 -10.778
REMARK INTRA:                   0.000
REMARK UNBOUND:                 0.000
ROOT
REMARK  Name = ditazole
REMARK                            x       y       z     vdW  Elec       q    Type
REMARK                         _______ _______ _______ _____ _____    ______ ____
ATOM      1  O   UNL     1      65.129  65.507  71.013  0.00  0.00    +0.000 OA
ATOM      2  C   UNL     1      64.434  65.843  71.303  0.00  0.00    +0.000 C 
ATOM      3  C   UNL     1      63.739  65.398  71.323  0.00  0.00    +0.000 C 
ATOM      4  N   UNL     1      63.044  65.733  71.614  0.00  0.00    +0.000 N 
ATOM      5  C   UNL     1      63.043  66.513  71.885  0.00  0.00    +0.000 C 
ATOM      6  C   UNL     1      62.347  66.848  72.175  0.00  0.00    +0.000 C 
ATOM      7  O   UNL     1      62.347  67.627  72.445  0.00  0.00    +0.000 OA
ATOM      8  C   UNL     1      62.349  65.289  71.635  0.00  0.00    +0.000 A 
ATOM      9  N   UNL     1      62.266  64.507  71.385  0.00  0.00    +0.000 NA
ATOM     10  C   UNL     1      61.481  64.283  71.504  0.00  0.00    +0.000 A 
ATOM     11  C   UNL     1      61.078  64.926  71.828  0.00  0.00    +0.000 A 
ATOM     12  O   UNL     1      61.615  65.548  71.908  0.00  0.00    +0.000 OA
ATOM     13  C   UNL     1      60.280  64.945  72.035  0.00  0.00    +0.000 A 
ATOM     14  C   UNL     1      59.809  64.278  71.922  0.00  0.00    +0.000 A 
ATOM     15  C   UNL     1      59.011  64.297  72.128  0.00  0.00    +0.000 A 
ATOM     16  C   UNL     1      58.683  64.983  72.448  0.00  0.00    +0.000 A 
ATOM     17  C   UNL     1      59.155  65.650  72.561  0.00  0.00    +0.000 A 
ATOM     18  C   UNL     1      59.953  65.632  72.355  0.00  0.00    +0.000 A 
ATOM     19  C   UNL     1      61.155  63.546  71.330  0.00  0.00    +0.000 A 
ATOM     20  C   UNL     1      61.627  62.952  71.006  0.00  0.00    +0.000 A 
ATOM     21  C   UNL     1      61.301  62.214  70.832  0.00  0.00    +0.000 A 
ATOM     22  C   UNL     1      60.504  62.070  70.982  0.00  0.00    +0.000 A 
ATOM     23  C   UNL     1      60.031  62.663  71.306  0.00  0.00    +0.000 A 
ATOM     24  C   UNL     1      60.357  63.401  71.480  0.00  0.00    +0.000 A 
ENDROOT
TORSDOF 0
ENDMDL
MODEL 8
REMARK VINA RESULT:   -10.685      3.089      4.922
REMARK INTER + INTRA:         -10.685
REMARK INTER:                 -10.685
REMARK INTRA:                   0.000
REMARK UNBOUND:                 0.000
ROOT
REMARK  Name = ditazole
REMARK                            x       y       z     vdW  Elec       q    Type
REMARK                         _______ _______ _______ _____ _____    ______ ____
ATOM      1  O   UNL     1      59.684  64.236  70.796  0.00  0.00    +0.000 OA
ATOM      2  C   UNL     1      60.474  64.280  70.562  0.00  0.00    +0.000 C 
ATOM      3  C   UNL     1      60.965  64.865  70.876  0.00  0.00    +0.000 C 
ATOM      4  N   UNL     1      61.755  64.909  70.642  0.00  0.00    +0.000 N 
ATOM      5  C   UNL     1      62.054  64.368  70.095  0.00  0.00    +0.000 C 
ATOM      6  C   UNL     1      62.844  64.411  69.861  0.00  0.00    +0.000 C 
ATOM      7  O   UNL     1      63.143  63.871  69.315  0.00  0.00    +0.000 OA
ATOM      8  C   UNL     1      62.246  65.493  70.954  0.00  0.00    +0.000 A 
ATOM      9  N   UNL     1      62.025  66.069  71.503  0.00  0.00    +0.000 NA
ATOM     10  C   UNL     1      62.686  66.537  71.661  0.00  0.00    +0.000 A 
ATOM     11  C   UNL     1      63.316  66.250  71.211  0.00  0.00    +0.000 A 
ATOM     12  O   UNL     1      63.043  65.605  70.774  0.00  0.00    +0.000 OA
ATOM     13  C   UNL     1      64.082  66.554  71.199  0.00  0.00    +0.000 A 
ATOM     14  C   UNL     1      64.275  67.205  71.667  0.00  0.00    +0.000 A 
ATOM     15  C   UNL     1      65.041  67.509  71.656  0.00  0.00    +0.000 A 
ATOM     16  C   UNL     1      65.616  67.163  71.175  0.00  0.00    +0.000 A 
ATOM     17  C   UNL     1      65.422  66.512  70.707  0.00  0.00    +0.000 A 
ATOM     18  C   UNL     1      64.656  66.208  70.718  0.00  0.00    +0.000 A 
ATOM     19  C   UNL     1      62.714  67.178  72.179  0.00  0.00    +0.000 A 
ATOM     20  C   UNL     1      62.037  67.403  72.594  0.00  0.00    +0.000 A 
ATOM     21  C   UNL     1      62.065  68.045  73.112  0.00  0.00    +0.000 A 
ATOM     22  C   UNL     1      62.768  68.461  73.214  0.00  0.00    +0.000 A 
ATOM     23  C   UNL     1      63.445  68.238  72.799  0.00  0.00    +0.000 A 
ATOM     24  C   UNL     1      63.418  67.596  72.281  0.00  0.00    +0.000 A 
ENDROOT
TORSDOF 0
ENDMDL
MODEL 9
REMARK VINA RESULT:   -10.214      1.942      3.595
REMARK INTER + INTRA:         -10.214
REMARK INTER:                 -10.214
REMARK INTRA:                   0.000
REMARK UNBOUND:                 0.000
ROOT
REMARK  Name = ditazole
REMARK                            x       y       z     vdW  Elec       q    Type
REMARK                         _______ _______ _______ _____ _____    ______ ____
ATOM      1  O   UNL     1      60.138  62.476  68.402  0.00  0.00    +0.000 OA
ATOM      2  C   UNL     1      60.776  62.916  68.683  0.00  0.00    +0.000 C 
ATOM      3  C   UNL     1      60.692  63.371  69.367  0.00  0.00    +0.000 C 
ATOM      4  N   UNL     1      61.331  63.812  69.648  0.00  0.00    +0.000 N 
ATOM      5  C   UNL     1      62.052  63.797  69.247  0.00  0.00    +0.000 C 
ATOM      6  C   UNL     1      62.690  64.237  69.529  0.00  0.00    +0.000 C 
ATOM      7  O   UNL     1      63.410  64.222  69.128  0.00  0.00    +0.000 OA
ATOM      8  C   UNL     1      61.249  64.267  70.331  0.00  0.00    +0.000 A 
ATOM      9  N   UNL     1      60.565  64.336  70.788  0.00  0.00    +0.000 NA
ATOM     10  C   UNL     1      60.729  64.845  71.417  0.00  0.00    +0.000 A 
ATOM     11  C   UNL     1      61.513  65.091  71.348  0.00  0.00    +0.000 A 
ATOM     12  O   UNL     1      61.834  64.734  70.677  0.00  0.00    +0.000 OA
ATOM     13  C   UNL     1      61.908  65.604  71.859  0.00  0.00    +0.000 A 
ATOM     14  C   UNL     1      61.514  65.920  72.511  0.00  0.00    +0.000 A 
ATOM     15  C   UNL     1      61.907  66.432  73.023  0.00  0.00    +0.000 A 
ATOM     16  C   UNL     1      62.697  66.629  72.884  0.00  0.00    +0.000 A 
ATOM     17  C   UNL     1      63.090  66.313  72.232  0.00  0.00    +0.000 A 
ATOM     18  C   UNL     1      62.697  65.800  71.720  0.00  0.00    +0.000 A 
ATOM     19  C   UNL     1      60.201  65.069  72.009  0.00  0.00    +0.000 A 
ATOM     20  C   UNL     1      59.429  64.777  72.007  0.00  0.00    +0.000 A 
ATOM     21  C   UNL     1      58.901  65.002  72.600  0.00  0.00    +0.000 A 
ATOM     22  C   UNL     1      59.145  65.517  73.195  0.00  0.00    +0.000 A 
ATOM     23  C   UNL     1      59.916  65.809  73.199  0.00  0.00    +0.000 A 
ATOM     24  C   UNL     1      60.445  65.585  72.605  0.00  0.00    +0.000 A 
ENDROOT
TORSDOF 0
ENDMDL
