MODEL 1
REMARK VINA RESULT:   -10.571      0.000      0.000
REMARK INTER + INTRA:         -10.571
REMARK INTER:                 -10.571
REMARK INTRA:                   0.000
REMARK UNBOUND:                 0.000
ROOT
REMARK  Name = dithranol
REMARK                            x       y       z     vdW  Elec       q    Type
REMARK                         _______ _______ _______ _____ _____    ______ ____
ATOM      1  O   UNL     1      61.198  63.173  67.321  0.00  0.00    +0.000 OA
ATOM      2  C   UNL     1      60.577  62.755  66.973  0.00  0.00    +0.000 A 
ATOM      3  C   UNL     1      59.844  62.717  67.351  0.00  0.00    +0.000 A 
ATOM      4  C   UNL     1      59.223  62.299  67.003  0.00  0.00    +0.000 A 
ATOM      5  C   UNL     1      59.334  61.920  66.279  0.00  0.00    +0.000 A 
ATOM      6  C   UNL     1      60.067  61.959  65.902  0.00  0.00    +0.000 A 
ATOM      7  C   UNL     1      60.688  62.376  66.250  0.00  0.00    +0.000 A 
ATOM      8  C   UNL     1      61.421  62.414  65.872  0.00  0.00    +0.000 C 
ATOM      9  O   UNL     1      62.043  62.832  66.220  0.00  0.00    +0.000 OA
ATOM     10  C   UNL     1      61.533  62.035  65.149  0.00  0.00    +0.000 A 
ATOM     11  C   UNL     1      62.265  62.073  64.772  0.00  0.00    +0.000 A 
ATOM     12  O   UNL     1      62.887  62.491  65.120  0.00  0.00    +0.000 OA
ATOM     13  C   UNL     1      62.378  61.694  64.048  0.00  0.00    +0.000 A 
ATOM     14  C   UNL     1      61.757  61.277  63.700  0.00  0.00    +0.000 A 
ATOM     15  C   UNL     1      61.023  61.238  64.077  0.00  0.00    +0.000 A 
ATOM     16  C   UNL     1      60.912  61.618  64.801  0.00  0.00    +0.000 A 
ATOM     17  C   UNL     1      60.179  61.579  65.178  0.00  0.00    +0.000 C 
ENDROOT
TORSDOF 0
ENDMDL
MODEL 2
REMARK VINA RESULT:   -10.560      0.055      2.773
REMARK INTER + INTRA:         -10.560
REMARK INTER:                 -10.560
REMARK INTRA:                   0.000
REMARK UNBOUND:                 0.000
ROOT
REMARK  Name = dithranol
REMARK                            x       y       z     vdW  Elec       q    Type
REMARK                         _______ _______ _______ _____ _____    ______ ____
ATOM      1  O   UNL     1      62.890  62.410  65.091  0.00  0.00    +0.000 OA
ATOM      2  C   UNL     1      62.258  62.010  64.741  0.00  0.00    +0.000 A 
ATOM      3  C   UNL     1      62.360  61.634  64.014  0.00  0.00    +0.000 A 
ATOM      4  C   UNL     1      61.728  61.235  63.664  0.00  0.00    +0.000 A 
ATOM      5  C   UNL     1      60.994  61.213  64.041  0.00  0.00    +0.000 A 
ATOM      6  C   UNL     1      60.893  61.590  64.768  0.00  0.00    +0.000 A 
ATOM      7  C   UNL     1      61.525  61.989  65.118  0.00  0.00    +0.000 A 
ATOM      8  C   UNL     1      61.423  62.365  65.845  0.00  0.00    +0.000 C 
ATOM      9  O   UNL     1      62.055  62.765  66.195  0.00  0.00    +0.000 OA
ATOM     10  C   UNL     1      60.690  62.343  66.222  0.00  0.00    +0.000 A 
ATOM     11  C   UNL     1      60.588  62.720  66.948  0.00  0.00    +0.000 A 
ATOM     12  O   UNL     1      61.221  63.119  67.298  0.00  0.00    +0.000 OA
ATOM     13  C   UNL     1      59.855  62.698  67.326  0.00  0.00    +0.000 A 
ATOM     14  C   UNL     1      59.223  62.299  66.976  0.00  0.00    +0.000 A 
ATOM     15  C   UNL     1      59.325  61.922  66.249  0.00  0.00    +0.000 A 
ATOM     16  C   UNL     1      60.058  61.944  65.872  0.00  0.00    +0.000 A 
ATOM     17  C   UNL     1      60.159  61.567  65.145  0.00  0.00    +0.000 C 
ENDROOT
TORSDOF 0
ENDMDL
MODEL 3
REMARK VINA RESULT:    -9.252      3.712      5.577
REMARK INTER + INTRA:          -9.252
REMARK INTER:                  -9.252
REMARK INTRA:                   0.000
REMARK UNBOUND:                 0.000
ROOT
REMARK  Name = dithranol
REMARK                            x       y       z     vdW  Elec       q    Type
REMARK                         _______ _______ _______ _____ _____    ______ ____
ATOM      1  O   UNL     1      61.593  63.796  68.710  0.00  0.00    +0.000 OA
ATOM      2  C   UNL     1      61.200  63.118  68.970  0.00  0.00    +0.000 A 
ATOM      3  C   UNL     1      60.841  62.614  68.424  0.00  0.00    +0.000 A 
ATOM      4  C   UNL     1      60.449  61.937  68.684  0.00  0.00    +0.000 A 
ATOM      5  C   UNL     1      60.416  61.763  69.491  0.00  0.00    +0.000 A 
ATOM      6  C   UNL     1      60.775  62.267  70.036  0.00  0.00    +0.000 A 
ATOM      7  C   UNL     1      61.167  62.945  69.776  0.00  0.00    +0.000 A 
ATOM      8  C   UNL     1      61.526  63.448  70.322  0.00  0.00    +0.000 C 
ATOM      9  O   UNL     1      61.919  64.126  70.061  0.00  0.00    +0.000 OA
ATOM     10  C   UNL     1      61.493  63.275  71.127  0.00  0.00    +0.000 A 
ATOM     11  C   UNL     1      61.852  63.779  71.672  0.00  0.00    +0.000 A 
ATOM     12  O   UNL     1      62.245  64.457  71.412  0.00  0.00    +0.000 OA
ATOM     13  C   UNL     1      61.819  63.606  72.478  0.00  0.00    +0.000 A 
ATOM     14  C   UNL     1      61.427  62.928  72.739  0.00  0.00    +0.000 A 
ATOM     15  C   UNL     1      61.067  62.424  72.193  0.00  0.00    +0.000 A 
ATOM     16  C   UNL     1      61.101  62.598  71.387  0.00  0.00    +0.000 A 
ATOM     17  C   UNL     1      60.742  62.094  70.842  0.00  0.00    +0.000 C 
ENDROOT
TORSDOF 0
ENDMDL
MODEL 4
REMARK VINA RESULT:    -9.189      3.872      5.301
REMARK INTER + INTRA:          -9.189
REMARK INTER:                  -9.189
REMARK INTRA:                   0.000
REMARK UNBOUND:                 0.000
ROOT
REMARK  Name = dithranol
REMARK                            x       y       z     vdW  Elec       q    Type
REMARK                         _______ _______ _______ _____ _____    ______ ____
ATOM      1  O   UNL     1      62.337  64.610  71.403  0.00  0.00    +0.000 OA
ATOM      2  C   UNL     1      61.934  63.973  71.740  0.00  0.00    +0.000 A 
ATOM      3  C   UNL     1      61.917  63.884  72.560  0.00  0.00    +0.000 A 
ATOM      4  C   UNL     1      61.514  63.247  72.897  0.00  0.00    +0.000 A 
ATOM      5  C   UNL     1      61.129  62.700  72.413  0.00  0.00    +0.000 A 
ATOM      6  C   UNL     1      61.147  62.790  71.594  0.00  0.00    +0.000 A 
ATOM      7  C   UNL     1      61.550  63.427  71.257  0.00  0.00    +0.000 A 
ATOM      8  C   UNL     1      61.567  63.516  70.437  0.00  0.00    +0.000 C 
ATOM      9  O   UNL     1      61.970  64.153  70.100  0.00  0.00    +0.000 OA
ATOM     10  C   UNL     1      61.183  62.970  69.954  0.00  0.00    +0.000 A 
ATOM     11  C   UNL     1      61.200  63.059  69.135  0.00  0.00    +0.000 A 
ATOM     12  O   UNL     1      61.603  63.697  68.797  0.00  0.00    +0.000 OA
ATOM     13  C   UNL     1      60.816  62.513  68.651  0.00  0.00    +0.000 A 
ATOM     14  C   UNL     1      60.413  61.876  68.987  0.00  0.00    +0.000 A 
ATOM     15  C   UNL     1      60.395  61.786  69.808  0.00  0.00    +0.000 A 
ATOM     16  C   UNL     1      60.780  62.333  70.290  0.00  0.00    +0.000 A 
ATOM     17  C   UNL     1      60.762  62.243  71.110  0.00  0.00    +0.000 C 
ENDROOT
TORSDOF 0
ENDMDL
MODEL 5
REMARK VINA RESULT:    -8.927      6.298      7.489
REMARK INTER + INTRA:          -8.927
REMARK INTER:                  -8.927
REMARK INTRA:                   0.000
REMARK UNBOUND:                 0.000
ROOT
REMARK  Name = dithranol
REMARK                            x       y       z     vdW  Elec       q    Type
REMARK                         _______ _______ _______ _____ _____    ______ ____
ATOM      1  O   UNL     1      62.938  65.221  71.761  0.00  0.00    +0.000 OA
ATOM      2  C   UNL     1      63.237  65.071  71.005  0.00  0.00    +0.000 A 
ATOM      3  C   UNL     1      62.928  64.452  70.556  0.00  0.00    +0.000 A 
ATOM      4  C   UNL     1      63.226  64.302  69.801  0.00  0.00    +0.000 A 
ATOM      5  C   UNL     1      63.833  64.772  69.496  0.00  0.00    +0.000 A 
ATOM      6  C   UNL     1      64.141  65.391  69.947  0.00  0.00    +0.000 A 
ATOM      7  C   UNL     1      63.843  65.540  70.701  0.00  0.00    +0.000 A 
ATOM      8  C   UNL     1      64.152  66.159  71.151  0.00  0.00    +0.000 C 
ATOM      9  O   UNL     1      63.853  66.309  71.906  0.00  0.00    +0.000 OA
ATOM     10  C   UNL     1      64.758  66.628  70.847  0.00  0.00    +0.000 A 
ATOM     11  C   UNL     1      65.066  67.247  71.297  0.00  0.00    +0.000 A 
ATOM     12  O   UNL     1      64.767  67.397  72.052  0.00  0.00    +0.000 OA
ATOM     13  C   UNL     1      65.673  67.716  70.993  0.00  0.00    +0.000 A 
ATOM     14  C   UNL     1      65.971  67.567  70.238  0.00  0.00    +0.000 A 
ATOM     15  C   UNL     1      65.662  66.947  69.788  0.00  0.00    +0.000 A 
ATOM     16  C   UNL     1      65.056  66.479  70.093  0.00  0.00    +0.000 A 
ATOM     17  C   UNL     1      64.748  65.860  69.642  0.00  0.00    +0.000 C 
ENDROOT
TORSDOF 0
ENDMDL
MODEL 6
REMARK VINA RESULT:    -8.927      6.321      7.582
REMARK INTER + INTRA:          -8.927
REMARK INTER:                  -8.927
REMARK INTRA:                   0.000
REMARK UNBOUND:                 0.000
ROOT
REMARK  Name = dithranol
REMARK                            x       y       z     vdW  Elec       q    Type
REMARK                         _______ _______ _______ _____ _____    ______ ____
ATOM      1  O   UNL     1      64.749  67.414  72.074  0.00  0.00    +0.000 OA
ATOM      2  C   UNL     1      65.054  67.236  71.327  0.00  0.00    +0.000 A 
ATOM      3  C   UNL     1      65.658  67.698  71.008  0.00  0.00    +0.000 A 
ATOM      4  C   UNL     1      65.963  67.520  70.262  0.00  0.00    +0.000 A 
ATOM      5  C   UNL     1      65.662  66.880  69.835  0.00  0.00    +0.000 A 
ATOM      6  C   UNL     1      65.058  66.419  70.156  0.00  0.00    +0.000 A 
ATOM      7  C   UNL     1      64.753  66.597  70.902  0.00  0.00    +0.000 A 
ATOM      8  C   UNL     1      64.149  66.135  71.221  0.00  0.00    +0.000 C 
ATOM      9  O   UNL     1      63.844  66.313  71.968  0.00  0.00    +0.000 OA
ATOM     10  C   UNL     1      63.849  65.496  70.795  0.00  0.00    +0.000 A 
ATOM     11  C   UNL     1      63.244  65.035  71.114  0.00  0.00    +0.000 A 
ATOM     12  O   UNL     1      62.940  65.213  71.861  0.00  0.00    +0.000 OA
ATOM     13  C   UNL     1      62.944  64.395  70.688  0.00  0.00    +0.000 A 
ATOM     14  C   UNL     1      63.248  64.218  69.942  0.00  0.00    +0.000 A 
ATOM     15  C   UNL     1      63.853  64.680  69.622  0.00  0.00    +0.000 A 
ATOM     16  C   UNL     1      64.153  65.319  70.049  0.00  0.00    +0.000 A 
ATOM     17  C   UNL     1      64.757  65.780  69.729  0.00  0.00    +0.000 C 
ENDROOT
TORSDOF 0
ENDMDL
MODEL 7
REMARK VINA RESULT:    -8.917      5.420      6.900
REMARK INTER + INTRA:          -8.917
REMARK INTER:                  -8.917
REMARK INTRA:                   0.000
REMARK UNBOUND:                 0.000
ROOT
REMARK  Name = dithranol
REMARK                            x       y       z     vdW  Elec       q    Type
REMARK                         _______ _______ _______ _____ _____    ______ ____
ATOM      1  O   UNL     1      60.220  62.219  70.223  0.00  0.00    +0.000 OA
ATOM      2  C   UNL     1      60.713  62.143  70.881  0.00  0.00    +0.000 A 
ATOM      3  C   UNL     1      61.152  61.453  70.990  0.00  0.00    +0.000 A 
ATOM      4  C   UNL     1      61.644  61.377  71.647  0.00  0.00    +0.000 A 
ATOM      5  C   UNL     1      61.697  61.991  72.197  0.00  0.00    +0.000 A 
ATOM      6  C   UNL     1      61.257  62.680  72.088  0.00  0.00    +0.000 A 
ATOM      7  C   UNL     1      60.765  62.756  71.430  0.00  0.00    +0.000 A 
ATOM      8  C   UNL     1      60.325  63.446  71.322  0.00  0.00    +0.000 C 
ATOM      9  O   UNL     1      59.833  63.522  70.663  0.00  0.00    +0.000 OA
ATOM     10  C   UNL     1      60.378  64.059  71.870  0.00  0.00    +0.000 A 
ATOM     11  C   UNL     1      59.938  64.748  71.762  0.00  0.00    +0.000 A 
ATOM     12  O   UNL     1      59.446  64.825  71.103  0.00  0.00    +0.000 OA
ATOM     13  C   UNL     1      59.990  65.362  72.311  0.00  0.00    +0.000 A 
ATOM     14  C   UNL     1      60.482  65.286  72.969  0.00  0.00    +0.000 A 
ATOM     15  C   UNL     1      60.922  64.596  73.078  0.00  0.00    +0.000 A 
ATOM     16  C   UNL     1      60.870  63.983  72.528  0.00  0.00    +0.000 A 
ATOM     17  C   UNL     1      61.310  63.294  72.638  0.00  0.00    +0.000 C 
ENDROOT
TORSDOF 0
ENDMDL
MODEL 8
REMARK VINA RESULT:    -8.594      5.599      6.797
REMARK INTER + INTRA:          -8.594
REMARK INTER:                  -8.594
REMARK INTRA:                   0.000
REMARK UNBOUND:                 0.000
ROOT
REMARK  Name = dithranol
REMARK                            x       y       z     vdW  Elec       q    Type
REMARK                         _______ _______ _______ _____ _____    ______ ____
ATOM      1  O   UNL     1      59.339  65.364  70.836  0.00  0.00    +0.000 OA
ATOM      2  C   UNL     1      59.594  65.324  71.621  0.00  0.00    +0.000 A 
ATOM      3  C   UNL     1      59.390  65.922  72.151  0.00  0.00    +0.000 A 
ATOM      4  C   UNL     1      59.645  65.882  72.935  0.00  0.00    +0.000 A 
ATOM      5  C   UNL     1      60.105  65.244  73.187  0.00  0.00    +0.000 A 
ATOM      6  C   UNL     1      60.309  64.648  72.656  0.00  0.00    +0.000 A 
ATOM      7  C   UNL     1      60.053  64.688  71.872  0.00  0.00    +0.000 A 
ATOM      8  C   UNL     1      60.258  64.090  71.341  0.00  0.00    +0.000 C 
ATOM      9  O   UNL     1      60.002  64.130  70.557  0.00  0.00    +0.000 OA
ATOM     10  C   UNL     1      60.717  63.453  71.593  0.00  0.00    +0.000 A 
ATOM     11  C   UNL     1      60.921  62.856  71.062  0.00  0.00    +0.000 A 
ATOM     12  O   UNL     1      60.665  62.896  70.278  0.00  0.00    +0.000 OA
ATOM     13  C   UNL     1      61.381  62.219  71.314  0.00  0.00    +0.000 A 
ATOM     14  C   UNL     1      61.636  62.179  72.097  0.00  0.00    +0.000 A 
ATOM     15  C   UNL     1      61.432  62.776  72.629  0.00  0.00    +0.000 A 
ATOM     16  C   UNL     1      60.972  63.413  72.377  0.00  0.00    +0.000 A 
ATOM     17  C   UNL     1      60.769  64.010  72.908  0.00  0.00    +0.000 C 
ENDROOT
TORSDOF 0
ENDMDL
MODEL 9
REMARK VINA RESULT:    -8.587      1.995      3.853
REMARK INTER + INTRA:          -8.587
REMARK INTER:                  -8.587
REMARK INTRA:                   0.000
REMARK UNBOUND:                 0.000
ROOT
REMARK  Name = dithranol
REMARK                            x       y       z     vdW  Elec       q    Type
REMARK                         _______ _______ _______ _____ _____    ______ ____
ATOM      1  O   UNL     1      61.415  63.484  66.772  0.00  0.00    +0.000 OA
ATOM      2  C   UNL     1      60.851  62.915  66.973  0.00  0.00    +0.000 A 
ATOM      3  C   UNL     1      60.386  62.570  66.385  0.00  0.00    +0.000 A 
ATOM      4  C   UNL     1      59.822  62.001  66.586  0.00  0.00    +0.000 A 
ATOM      5  C   UNL     1      59.724  61.778  67.375  0.00  0.00    +0.000 A 
ATOM      6  C   UNL     1      60.190  62.124  67.962  0.00  0.00    +0.000 A 
ATOM      7  C   UNL     1      60.753  62.692  67.761  0.00  0.00    +0.000 A 
ATOM      8  C   UNL     1      61.218  63.037  68.349  0.00  0.00    +0.000 C 
ATOM      9  O   UNL     1      61.782  63.606  68.147  0.00  0.00    +0.000 OA
ATOM     10  C   UNL     1      61.120  62.815  69.136  0.00  0.00    +0.000 A 
ATOM     11  C   UNL     1      61.585  63.160  69.723  0.00  0.00    +0.000 A 
ATOM     12  O   UNL     1      62.149  63.729  69.522  0.00  0.00    +0.000 OA
ATOM     13  C   UNL     1      61.487  62.937  70.512  0.00  0.00    +0.000 A 
ATOM     14  C   UNL     1      60.924  62.369  70.713  0.00  0.00    +0.000 A 
ATOM     15  C   UNL     1      60.458  62.023  70.125  0.00  0.00    +0.000 A 
ATOM     16  C   UNL     1      60.557  62.247  69.337  0.00  0.00    +0.000 A 
ATOM     17  C   UNL     1      60.091  61.901  68.751  0.00  0.00    +0.000 C 
ENDROOT
TORSDOF 0
ENDMDL
