MODEL 1
REMARK VINA RESULT:   -13.022      0.000      0.000
REMARK INTER + INTRA:         -13.022
REMARK INTER:                 -13.022
REMARK INTRA:                   0.000
REMARK UNBOUND:                 0.000
ROOT
REMARK  Name = docusate sodium
REMARK                            x       y       z     vdW  Elec       q    Type
REMARK                         _______ _______ _______ _____ _____    ______ ____
ATOM      1  C   UNL     1      60.930  60.280  62.328  0.00  0.00    +0.000 C 
ATOM      2  C   UNL     1      60.696  60.382  63.112  0.00  0.00    +0.000 C 
ATOM      3  C   UNL     1      61.085  60.930  63.592  0.00  0.00    +0.000 C 
ATOM      4  C   UNL     1      60.850  61.031  64.376  0.00  0.00    +0.000 C 
ATOM      5  C   UNL     1      61.240  61.579  64.855  0.00  0.00    +0.000 C 
ATOM      6  C   UNL     1      61.863  62.025  64.549  0.00  0.00    +0.000 C 
ATOM      7  C   UNL     1      62.252  62.573  65.028  0.00  0.00    +0.000 C 
ATOM      8  C   UNL     1      61.006  61.681  65.639  0.00  0.00    +0.000 C 
ATOM      9  O   UNL     1      61.395  62.229  66.118  0.00  0.00    +0.000 OA
ATOM     10  C   UNL     1      61.161  62.330  66.902  0.00  0.00    +0.000 C 
ATOM     11  O   UNL     1      60.537  61.884  67.209  0.00  0.00    +0.000 OA
ATOM     12  C   UNL     1      61.550  62.878  67.382  0.00  0.00    +0.000 C 
ATOM     13  C   UNL     1      61.315  62.979  68.166  0.00  0.00    +0.000 C 
ATOM     14  C   UNL     1      61.704  63.527  68.645  0.00  0.00    +0.000 C 
ATOM     15  O   UNL     1      62.327  63.973  68.340  0.00  0.00    +0.000 OA
ATOM     16  O   UNL     1      61.470  63.629  69.430  0.00  0.00    +0.000 OA
ATOM     17  C   UNL     1      61.859  64.176  69.908  0.00  0.00    +0.000 C 
ATOM     18  C   UNL     1      61.625  64.279  70.693  0.00  0.00    +0.000 C 
ATOM     19  C   UNL     1      61.002  63.832  70.999  0.00  0.00    +0.000 C 
ATOM     20  C   UNL     1      60.768  63.934  71.784  0.00  0.00    +0.000 C 
ATOM     21  C   UNL     1      62.014  64.826  71.172  0.00  0.00    +0.000 C 
ATOM     22  C   UNL     1      61.780  64.928  71.956  0.00  0.00    +0.000 C 
ATOM     23  C   UNL     1      62.169  65.475  72.435  0.00  0.00    +0.000 C 
ATOM     24  C   UNL     1      61.935  65.577  73.220  0.00  0.00    +0.000 C 
ATOM     25  S   UNL     1      60.692  62.533  68.472  0.00  0.00    +0.000 S 
ATOM     26  O   UNL     1      60.781  62.908  69.202  0.00  0.00    +0.000 OA
ATOM     27  O   UNL     1      60.603  62.158  67.743  0.00  0.00    +0.000 OA
ATOM     28  O   UNL     1      60.069  62.087  68.778  0.00  0.00    +0.000 OA
ENDROOT
TORSDOF 0
ENDMDL
MODEL 2
REMARK VINA RESULT:   -10.136     14.000     15.703
REMARK INTER + INTRA:         -10.136
REMARK INTER:                 -10.136
REMARK INTRA:                   0.000
REMARK UNBOUND:                 0.000
ROOT
REMARK  Name = docusate sodium
REMARK                            x       y       z     vdW  Elec       q    Type
REMARK                         _______ _______ _______ _____ _____    ______ ____
ATOM      1  C   UNL     1      62.025  68.757  55.310  0.00  0.00    +0.000 C 
ATOM      2  C   UNL     1      62.384  68.015  55.278  0.00  0.00    +0.000 C 
ATOM      3  C   UNL     1      62.036  67.406  54.842  0.00  0.00    +0.000 C 
ATOM      4  C   UNL     1      62.395  66.665  54.811  0.00  0.00    +0.000 C 
ATOM      5  C   UNL     1      62.047  66.056  54.374  0.00  0.00    +0.000 C 
ATOM      6  C   UNL     1      61.341  66.191  53.970  0.00  0.00    +0.000 C 
ATOM      7  C   UNL     1      60.994  65.582  53.534  0.00  0.00    +0.000 C 
ATOM      8  C   UNL     1      62.406  65.314  54.343  0.00  0.00    +0.000 C 
ATOM      9  O   UNL     1      62.058  64.706  53.907  0.00  0.00    +0.000 OA
ATOM     10  C   UNL     1      62.417  63.964  53.875  0.00  0.00    +0.000 C 
ATOM     11  O   UNL     1      63.124  63.829  54.280  0.00  0.00    +0.000 OA
ATOM     12  C   UNL     1      62.070  63.356  53.439  0.00  0.00    +0.000 C 
ATOM     13  C   UNL     1      62.429  62.614  53.408  0.00  0.00    +0.000 C 
ATOM     14  C   UNL     1      62.081  62.006  52.972  0.00  0.00    +0.000 C 
ATOM     15  O   UNL     1      61.375  62.139  52.567  0.00  0.00    +0.000 OA
ATOM     16  O   UNL     1      62.440  61.263  52.940  0.00  0.00    +0.000 OA
ATOM     17  C   UNL     1      62.093  60.655  52.505  0.00  0.00    +0.000 C 
ATOM     18  C   UNL     1      62.451  59.913  52.472  0.00  0.00    +0.000 C 
ATOM     19  C   UNL     1      63.158  59.779  52.877  0.00  0.00    +0.000 C 
ATOM     20  C   UNL     1      63.517  59.036  52.845  0.00  0.00    +0.000 C 
ATOM     21  C   UNL     1      62.103  59.305  52.037  0.00  0.00    +0.000 C 
ATOM     22  C   UNL     1      62.462  58.563  52.005  0.00  0.00    +0.000 C 
ATOM     23  C   UNL     1      62.115  57.955  51.569  0.00  0.00    +0.000 C 
ATOM     24  C   UNL     1      62.474  57.213  51.538  0.00  0.00    +0.000 C 
ATOM     25  S   UNL     1      63.136  62.479  53.812  0.00  0.00    +0.000 S 
ATOM     26  O   UNL     1      63.142  61.699  53.542  0.00  0.00    +0.000 OA
ATOM     27  O   UNL     1      63.129  63.259  54.082  0.00  0.00    +0.000 OA
ATOM     28  O   UNL     1      63.842  62.345  54.217  0.00  0.00    +0.000 OA
ENDROOT
TORSDOF 0
ENDMDL
MODEL 3
REMARK VINA RESULT:   -10.048     14.277     14.545
REMARK INTER + INTRA:         -10.048
REMARK INTER:                 -10.048
REMARK INTRA:                   0.000
REMARK UNBOUND:                 0.000
ROOT
REMARK  Name = docusate sodium
REMARK                            x       y       z     vdW  Elec       q    Type
REMARK                         _______ _______ _______ _____ _____    ______ ____
ATOM      1  C   UNL     1      63.853  58.705  53.238  0.00  0.00    +0.000 C 
ATOM      2  C   UNL     1      63.383  59.380  53.169  0.00  0.00    +0.000 C 
ATOM      3  C   UNL     1      63.662  60.108  53.440  0.00  0.00    +0.000 C 
ATOM      4  C   UNL     1      63.193  60.782  53.370  0.00  0.00    +0.000 C 
ATOM      5  C   UNL     1      63.473  61.510  53.641  0.00  0.00    +0.000 C 
ATOM      6  C   UNL     1      64.222  61.562  53.982  0.00  0.00    +0.000 C 
ATOM      7  C   UNL     1      64.501  62.290  54.253  0.00  0.00    +0.000 C 
ATOM      8  C   UNL     1      63.003  62.184  53.572  0.00  0.00    +0.000 C 
ATOM      9  O   UNL     1      63.282  62.912  53.843  0.00  0.00    +0.000 OA
ATOM     10  C   UNL     1      62.812  63.585  53.773  0.00  0.00    +0.000 C 
ATOM     11  O   UNL     1      62.063  63.533  53.432  0.00  0.00    +0.000 OA
ATOM     12  C   UNL     1      63.092  64.313  54.044  0.00  0.00    +0.000 C 
ATOM     13  C   UNL     1      62.622  64.987  53.974  0.00  0.00    +0.000 C 
ATOM     14  C   UNL     1      62.901  65.715  54.245  0.00  0.00    +0.000 C 
ATOM     15  O   UNL     1      63.651  65.768  54.586  0.00  0.00    +0.000 OA
ATOM     16  O   UNL     1      62.431  66.390  54.175  0.00  0.00    +0.000 OA
ATOM     17  C   UNL     1      62.711  67.117  54.446  0.00  0.00    +0.000 C 
ATOM     18  C   UNL     1      62.241  67.792  54.377  0.00  0.00    +0.000 C 
ATOM     19  C   UNL     1      61.492  67.739  54.036  0.00  0.00    +0.000 C 
ATOM     20  C   UNL     1      61.022  68.413  53.966  0.00  0.00    +0.000 C 
ATOM     21  C   UNL     1      62.521  68.519  54.648  0.00  0.00    +0.000 C 
ATOM     22  C   UNL     1      62.051  69.193  54.578  0.00  0.00    +0.000 C 
ATOM     23  C   UNL     1      62.331  69.920  54.849  0.00  0.00    +0.000 C 
ATOM     24  C   UNL     1      61.861  70.595  54.780  0.00  0.00    +0.000 C 
ATOM     25  S   UNL     1      61.872  64.935  53.633  0.00  0.00    +0.000 S 
ATOM     26  O   UNL     1      61.762  65.744  53.749  0.00  0.00    +0.000 OA
ATOM     27  O   UNL     1      61.982  64.126  53.517  0.00  0.00    +0.000 OA
ATOM     28  O   UNL     1      61.123  64.882  53.292  0.00  0.00    +0.000 OA
ENDROOT
TORSDOF 0
ENDMDL
