MODEL 1
REMARK VINA RESULT:   -14.589      0.000      0.000
REMARK INTER + INTRA:         -14.589
REMARK INTER:                 -14.589
REMARK INTRA:                   0.000
REMARK UNBOUND:                 0.000
ROOT
REMARK  Name = domperidone
REMARK                            x       y       z     vdW  Elec       q    Type
REMARK                         _______ _______ _______ _____ _____    ______ ____
ATOM      1 CL   UNL     1      62.488  61.624  63.807  0.00  0.00    +0.000 Cl
ATOM      2  C   UNL     1      62.027  61.818  64.463  0.00  0.00    +0.000 A 
ATOM      3  C   UNL     1      61.238  61.580  64.497  0.00  0.00    +0.000 A 
ATOM      4  C   UNL     1      60.776  61.773  65.152  0.00  0.00    +0.000 A 
ATOM      5  C   UNL     1      61.104  62.203  65.776  0.00  0.00    +0.000 A 
ATOM      6  C   UNL     1      61.894  62.440  65.743  0.00  0.00    +0.000 A 
ATOM      7  C   UNL     1      62.355  62.247  65.086  0.00  0.00    +0.000 A 
ATOM      8  N   UNL     1      60.519  62.311  66.347  0.00  0.00    +0.000 N 
ATOM      9  C   UNL     1      60.607  62.712  67.062  0.00  0.00    +0.000 C 
ATOM     10  C   UNL     1      59.969  62.776  67.581  0.00  0.00    +0.000 C 
ATOM     11  C   UNL     1      60.058  63.177  68.297  0.00  0.00    +0.000 C 
ATOM     12  N   UNL     1      60.785  63.514  68.493  0.00  0.00    +0.000 NA
ATOM     13  C   UNL     1      60.874  63.915  69.209  0.00  0.00    +0.000 C 
ATOM     14  C   UNL     1      61.601  64.252  69.406  0.00  0.00    +0.000 C 
ATOM     15  C   UNL     1      61.690  64.653  70.121  0.00  0.00    +0.000 C 
ATOM     16  N   UNL     1      62.416  64.990  70.318  0.00  0.00    +0.000 N 
ATOM     17  C   UNL     1      63.101  64.971  69.857  0.00  0.00    +0.000 A 
ATOM     18  O   UNL     1      63.178  64.611  69.118  0.00  0.00    +0.000 OA
ATOM     19  N   UNL     1      63.694  65.374  70.264  0.00  0.00    +0.000 NA
ATOM     20  C   UNL     1      63.376  65.642  70.976  0.00  0.00    +0.000 A 
ATOM     21  C   UNL     1      62.587  65.405  71.009  0.00  0.00    +0.000 A 
ATOM     22  C   UNL     1      62.126  65.598  71.666  0.00  0.00    +0.000 A 
ATOM     23  C   UNL     1      62.454  66.027  72.289  0.00  0.00    +0.000 A 
ATOM     24  C   UNL     1      63.243  66.265  72.255  0.00  0.00    +0.000 A 
ATOM     25  C   UNL     1      63.705  66.072  71.600  0.00  0.00    +0.000 A 
ATOM     26  C   UNL     1      61.423  63.450  67.975  0.00  0.00    +0.000 C 
ATOM     27  C   UNL     1      61.335  63.049  67.259  0.00  0.00    +0.000 C 
ATOM     28  C   UNL     1      59.829  61.948  66.076  0.00  0.00    +0.000 A 
ATOM     29  O   UNL     1      59.106  61.922  66.475  0.00  0.00    +0.000 OA
ATOM     30  N   UNL     1      59.988  61.615  65.339  0.00  0.00    +0.000 NA
ENDROOT
TORSDOF 0
ENDMDL
MODEL 2
REMARK VINA RESULT:   -14.195      2.301      6.115
REMARK INTER + INTRA:         -14.195
REMARK INTER:                 -14.195
REMARK INTRA:                   0.000
REMARK UNBOUND:                 0.000
ROOT
REMARK  Name = domperidone
REMARK                            x       y       z     vdW  Elec       q    Type
REMARK                         _______ _______ _______ _____ _____    ______ ____
ATOM      1 CL   UNL     1      63.169  66.005  72.054  0.00  0.00    +0.000 Cl
ATOM      2  C   UNL     1      62.686  65.401  71.768  0.00  0.00    +0.000 A 
ATOM      3  C   UNL     1      62.154  65.024  72.274  0.00  0.00    +0.000 A 
ATOM      4  C   UNL     1      61.670  64.420  71.989  0.00  0.00    +0.000 A 
ATOM      5  C   UNL     1      61.718  64.193  71.197  0.00  0.00    +0.000 A 
ATOM      6  C   UNL     1      62.250  64.569  70.691  0.00  0.00    +0.000 A 
ATOM      7  C   UNL     1      62.733  65.173  70.977  0.00  0.00    +0.000 A 
ATOM      8  N   UNL     1      61.175  63.584  71.074  0.00  0.00    +0.000 N 
ATOM      9  C   UNL     1      61.039  63.192  70.360  0.00  0.00    +0.000 C 
ATOM     10  C   UNL     1      60.475  62.591  70.320  0.00  0.00    +0.000 C 
ATOM     11  C   UNL     1      60.340  62.200  69.607  0.00  0.00    +0.000 C 
ATOM     12  N   UNL     1      60.767  62.410  68.933  0.00  0.00    +0.000 NA
ATOM     13  C   UNL     1      60.632  62.018  68.220  0.00  0.00    +0.000 C 
ATOM     14  C   UNL     1      61.059  62.228  67.547  0.00  0.00    +0.000 C 
ATOM     15  C   UNL     1      60.924  61.837  66.833  0.00  0.00    +0.000 C 
ATOM     16  N   UNL     1      61.351  62.046  66.160  0.00  0.00    +0.000 N 
ATOM     17  C   UNL     1      61.930  62.633  66.116  0.00  0.00    +0.000 A 
ATOM     18  O   UNL     1      62.182  63.113  66.737  0.00  0.00    +0.000 OA
ATOM     19  N   UNL     1      62.212  62.656  65.341  0.00  0.00    +0.000 NA
ATOM     20  C   UNL     1      61.808  62.083  64.906  0.00  0.00    +0.000 A 
ATOM     21  C   UNL     1      61.276  61.706  65.412  0.00  0.00    +0.000 A 
ATOM     22  C   UNL     1      60.793  61.102  65.126  0.00  0.00    +0.000 A 
ATOM     23  C   UNL     1      60.840  60.875  64.335  0.00  0.00    +0.000 A 
ATOM     24  C   UNL     1      61.372  61.251  63.829  0.00  0.00    +0.000 A 
ATOM     25  C   UNL     1      61.856  61.855  64.114  0.00  0.00    +0.000 A 
ATOM     26  C   UNL     1      61.331  63.011  68.974  0.00  0.00    +0.000 C 
ATOM     27  C   UNL     1      61.467  63.402  69.687  0.00  0.00    +0.000 C 
ATOM     28  C   UNL     1      60.792  63.435  71.789  0.00  0.00    +0.000 A 
ATOM     29  O   UNL     1      60.205  62.869  71.917  0.00  0.00    +0.000 OA
ATOM     30  N   UNL     1      61.097  63.952  72.355  0.00  0.00    +0.000 NA
ENDROOT
TORSDOF 0
ENDMDL
