MODEL 1
REMARK VINA RESULT:    -7.029      0.000      0.000
REMARK INTER + INTRA:          -7.029
REMARK INTER:                  -7.029
REMARK INTRA:                   0.000
REMARK UNBOUND:                 0.000
ROOT
REMARK  Name = dopamine
REMARK                            x       y       z     vdW  Elec       q    Type
REMARK                         _______ _______ _______ _____ _____    ______ ____
ATOM      1  N   UNL     1      61.618  62.967  67.377  0.00  0.00    +0.000 NA
ATOM      2  C   UNL     1      61.410  62.554  66.694  0.00  0.00    +0.000 C 
ATOM      3  C   UNL     1      61.930  62.527  66.053  0.00  0.00    +0.000 C 
ATOM      4  C   UNL     1      61.723  62.115  65.370  0.00  0.00    +0.000 A 
ATOM      5  C   UNL     1      62.242  62.088  64.730  0.00  0.00    +0.000 A 
ATOM      6  C   UNL     1      62.035  61.675  64.047  0.00  0.00    +0.000 A 
ATOM      7  O   UNL     1      62.554  61.649  63.407  0.00  0.00    +0.000 OA
ATOM      8  C   UNL     1      61.308  61.289  64.004  0.00  0.00    +0.000 A 
ATOM      9  O   UNL     1      61.100  60.875  63.320  0.00  0.00    +0.000 OA
ATOM     10  C   UNL     1      60.787  61.315  64.644  0.00  0.00    +0.000 A 
ATOM     11  C   UNL     1      60.995  61.728  65.327  0.00  0.00    +0.000 A 
ENDROOT
TORSDOF 0
ENDMDL
MODEL 2
REMARK VINA RESULT:    -6.405      2.202      2.908
REMARK INTER + INTRA:          -6.405
REMARK INTER:                  -6.405
REMARK INTRA:                   0.000
REMARK UNBOUND:                 0.000
ROOT
REMARK  Name = dopamine
REMARK                            x       y       z     vdW  Elec       q    Type
REMARK                         _______ _______ _______ _____ _____    ______ ____
ATOM      1  N   UNL     1      62.665  61.625  63.457  0.00  0.00    +0.000 NA
ATOM      2  C   UNL     1      62.379  61.854  64.196  0.00  0.00    +0.000 C 
ATOM      3  C   UNL     1      61.592  61.708  64.398  0.00  0.00    +0.000 C 
ATOM      4  C   UNL     1      61.306  61.937  65.136  0.00  0.00    +0.000 A 
ATOM      5  C   UNL     1      60.520  61.791  65.338  0.00  0.00    +0.000 A 
ATOM      6  C   UNL     1      60.234  62.021  66.077  0.00  0.00    +0.000 A 
ATOM      7  O   UNL     1      59.448  61.875  66.278  0.00  0.00    +0.000 OA
ATOM      8  C   UNL     1      60.734  62.395  66.614  0.00  0.00    +0.000 A 
ATOM      9  O   UNL     1      60.448  62.625  67.354  0.00  0.00    +0.000 OA
ATOM     10  C   UNL     1      61.521  62.542  66.414  0.00  0.00    +0.000 A 
ATOM     11  C   UNL     1      61.807  62.312  65.675  0.00  0.00    +0.000 A 
ENDROOT
TORSDOF 0
ENDMDL
MODEL 3
REMARK VINA RESULT:    -5.846      6.530      7.203
REMARK INTER + INTRA:          -5.846
REMARK INTER:                  -5.846
REMARK INTRA:                   0.000
REMARK UNBOUND:                 0.000
ROOT
REMARK  Name = dopamine
REMARK                            x       y       z     vdW  Elec       q    Type
REMARK                         _______ _______ _______ _____ _____    ______ ____
ATOM      1  N   UNL     1      60.129  65.321  73.072  0.00  0.00    +0.000 NA
ATOM      2  C   UNL     1      60.492  64.613  72.852  0.00  0.00    +0.000 C 
ATOM      3  C   UNL     1      60.164  64.150  72.252  0.00  0.00    +0.000 C 
ATOM      4  C   UNL     1      60.526  63.444  72.031  0.00  0.00    +0.000 A 
ATOM      5  C   UNL     1      60.199  62.981  71.432  0.00  0.00    +0.000 A 
ATOM      6  C   UNL     1      60.562  62.274  71.212  0.00  0.00    +0.000 A 
ATOM      7  O   UNL     1      60.234  61.812  70.613  0.00  0.00    +0.000 OA
ATOM      8  C   UNL     1      61.252  62.029  71.591  0.00  0.00    +0.000 A 
ATOM      9  O   UNL     1      61.615  61.321  71.370  0.00  0.00    +0.000 OA
ATOM     10  C   UNL     1      61.580  62.491  72.190  0.00  0.00    +0.000 A 
ATOM     11  C   UNL     1      61.217  63.199  72.411  0.00  0.00    +0.000 A 
ENDROOT
TORSDOF 0
ENDMDL
MODEL 4
REMARK VINA RESULT:    -5.828      2.030      2.850
REMARK INTER + INTRA:          -5.828
REMARK INTER:                  -5.828
REMARK INTRA:                   0.000
REMARK UNBOUND:                 0.000
ROOT
REMARK  Name = dopamine
REMARK                            x       y       z     vdW  Elec       q    Type
REMARK                         _______ _______ _______ _____ _____    ______ ____
ATOM      1  N   UNL     1      60.523  62.077  69.874  0.00  0.00    +0.000 NA
ATOM      2  C   UNL     1      60.728  62.073  69.075  0.00  0.00    +0.000 C 
ATOM      3  C   UNL     1      60.139  62.114  68.498  0.00  0.00    +0.000 C 
ATOM      4  C   UNL     1      60.343  62.110  67.700  0.00  0.00    +0.000 A 
ATOM      5  C   UNL     1      59.756  62.151  67.122  0.00  0.00    +0.000 A 
ATOM      6  C   UNL     1      59.960  62.147  66.323  0.00  0.00    +0.000 A 
ATOM      7  O   UNL     1      59.372  62.187  65.747  0.00  0.00    +0.000 OA
ATOM      8  C   UNL     1      60.753  62.102  66.101  0.00  0.00    +0.000 A 
ATOM      9  O   UNL     1      60.958  62.098  65.301  0.00  0.00    +0.000 OA
ATOM     10  C   UNL     1      61.342  62.061  66.678  0.00  0.00    +0.000 A 
ATOM     11  C   UNL     1      61.137  62.065  67.477  0.00  0.00    +0.000 A 
ENDROOT
TORSDOF 0
ENDMDL
MODEL 5
REMARK VINA RESULT:    -5.813      7.271      8.335
REMARK INTER + INTRA:          -5.813
REMARK INTER:                  -5.813
REMARK INTRA:                   0.000
REMARK UNBOUND:                 0.000
ROOT
REMARK  Name = dopamine
REMARK                            x       y       z     vdW  Elec       q    Type
REMARK                         _______ _______ _______ _____ _____    ______ ____
ATOM      1  N   UNL     1      62.985  65.302  69.734  0.00  0.00    +0.000 NA
ATOM      2  C   UNL     1      63.640  65.601  70.137  0.00  0.00    +0.000 C 
ATOM      3  C   UNL     1      64.152  66.128  69.761  0.00  0.00    +0.000 C 
ATOM      4  C   UNL     1      64.806  66.426  70.164  0.00  0.00    +0.000 A 
ATOM      5  C   UNL     1      65.318  66.953  69.788  0.00  0.00    +0.000 A 
ATOM      6  C   UNL     1      65.972  67.251  70.192  0.00  0.00    +0.000 A 
ATOM      7  O   UNL     1      66.483  67.777  69.816  0.00  0.00    +0.000 OA
ATOM      8  C   UNL     1      66.115  67.024  70.972  0.00  0.00    +0.000 A 
ATOM      9  O   UNL     1      66.770  67.323  71.376  0.00  0.00    +0.000 OA
ATOM     10  C   UNL     1      65.603  66.498  71.349  0.00  0.00    +0.000 A 
ATOM     11  C   UNL     1      64.949  66.199  70.945  0.00  0.00    +0.000 A 
ENDROOT
TORSDOF 0
ENDMDL
MODEL 6
REMARK VINA RESULT:    -5.733      4.793      5.499
REMARK INTER + INTRA:          -5.733
REMARK INTER:                  -5.733
REMARK INTRA:                   0.000
REMARK UNBOUND:                 0.000
ROOT
REMARK  Name = dopamine
REMARK                            x       y       z     vdW  Elec       q    Type
REMARK                         _______ _______ _______ _____ _____    ______ ____
ATOM      1  N   UNL     1      61.639  62.667  72.871  0.00  0.00    +0.000 NA
ATOM      2  C   UNL     1      61.337  62.402  72.151  0.00  0.00    +0.000 C 
ATOM      3  C   UNL     1      61.383  62.882  71.481  0.00  0.00    +0.000 C 
ATOM      4  C   UNL     1      61.081  62.617  70.762  0.00  0.00    +0.000 A 
ATOM      5  C   UNL     1      61.127  63.097  70.092  0.00  0.00    +0.000 A 
ATOM      6  C   UNL     1      60.825  62.831  69.372  0.00  0.00    +0.000 A 
ATOM      7  O   UNL     1      60.871  63.311  68.704  0.00  0.00    +0.000 OA
ATOM      8  C   UNL     1      60.477  62.086  69.321  0.00  0.00    +0.000 A 
ATOM      9  O   UNL     1      60.174  61.820  68.600  0.00  0.00    +0.000 OA
ATOM     10  C   UNL     1      60.430  61.605  69.990  0.00  0.00    +0.000 A 
ATOM     11  C   UNL     1      60.733  61.870  70.710  0.00  0.00    +0.000 A 
ENDROOT
TORSDOF 0
ENDMDL
MODEL 7
REMARK VINA RESULT:    -5.702      5.931      7.056
REMARK INTER + INTRA:          -5.702
REMARK INTER:                  -5.702
REMARK INTRA:                   0.000
REMARK UNBOUND:                 0.000
ROOT
REMARK  Name = dopamine
REMARK                            x       y       z     vdW  Elec       q    Type
REMARK                         _______ _______ _______ _____ _____    ______ ____
ATOM      1  N   UNL     1      60.335  61.765  69.082  0.00  0.00    +0.000 NA
ATOM      2  C   UNL     1      60.498  62.293  69.694  0.00  0.00    +0.000 C 
ATOM      3  C   UNL     1      60.798  62.014  70.411  0.00  0.00    +0.000 C 
ATOM      4  C   UNL     1      60.961  62.541  71.023  0.00  0.00    +0.000 A 
ATOM      5  C   UNL     1      61.260  62.263  71.740  0.00  0.00    +0.000 A 
ATOM      6  C   UNL     1      61.423  62.791  72.352  0.00  0.00    +0.000 A 
ATOM      7  O   UNL     1      61.722  62.512  73.068  0.00  0.00    +0.000 OA
ATOM      8  C   UNL     1      61.287  63.597  72.248  0.00  0.00    +0.000 A 
ATOM      9  O   UNL     1      61.450  64.126  72.862  0.00  0.00    +0.000 OA
ATOM     10  C   UNL     1      60.987  63.877  71.532  0.00  0.00    +0.000 A 
ATOM     11  C   UNL     1      60.824  63.349  70.919  0.00  0.00    +0.000 A 
ENDROOT
TORSDOF 0
ENDMDL
MODEL 8
REMARK VINA RESULT:    -5.662      6.713      7.554
REMARK INTER + INTRA:          -5.662
REMARK INTER:                  -5.662
REMARK INTRA:                   0.000
REMARK UNBOUND:                 0.000
ROOT
REMARK  Name = dopamine
REMARK                            x       y       z     vdW  Elec       q    Type
REMARK                         _______ _______ _______ _____ _____    ______ ____
ATOM      1  N   UNL     1      66.220  67.773  69.825  0.00  0.00    +0.000 NA
ATOM      2  C   UNL     1      65.666  67.284  70.191  0.00  0.00    +0.000 C 
ATOM      3  C   UNL     1      65.399  66.603  69.808  0.00  0.00    +0.000 C 
ATOM      4  C   UNL     1      64.846  66.114  70.175  0.00  0.00    +0.000 A 
ATOM      5  C   UNL     1      64.579  65.433  69.792  0.00  0.00    +0.000 A 
ATOM      6  C   UNL     1      64.025  64.944  70.159  0.00  0.00    +0.000 A 
ATOM      7  O   UNL     1      63.758  64.264  69.776  0.00  0.00    +0.000 OA
ATOM      8  C   UNL     1      63.738  65.135  70.908  0.00  0.00    +0.000 A 
ATOM      9  O   UNL     1      63.183  64.645  71.275  0.00  0.00    +0.000 OA
ATOM     10  C   UNL     1      64.004  65.816  71.291  0.00  0.00    +0.000 A 
ATOM     11  C   UNL     1      64.558  66.305  70.925  0.00  0.00    +0.000 A 
ENDROOT
TORSDOF 0
ENDMDL
MODEL 9
REMARK VINA RESULT:    -5.515      4.673      5.663
REMARK INTER + INTRA:          -5.515
REMARK INTER:                  -5.515
REMARK INTRA:                   0.000
REMARK UNBOUND:                 0.000
ROOT
REMARK  Name = dopamine
REMARK                            x       y       z     vdW  Elec       q    Type
REMARK                         _______ _______ _______ _____ _____    ______ ____
ATOM      1  N   UNL     1      59.947  62.342  67.473  0.00  0.00    +0.000 NA
ATOM      2  C   UNL     1      60.130  62.180  68.261  0.00  0.00    +0.000 C 
ATOM      3  C   UNL     1      60.608  62.699  68.689  0.00  0.00    +0.000 C 
ATOM      4  C   UNL     1      60.791  62.536  69.476  0.00  0.00    +0.000 A 
ATOM      5  C   UNL     1      61.269  63.054  69.905  0.00  0.00    +0.000 A 
ATOM      6  C   UNL     1      61.452  62.891  70.692  0.00  0.00    +0.000 A 
ATOM      7  O   UNL     1      61.930  63.409  71.120  0.00  0.00    +0.000 OA
ATOM      8  C   UNL     1      61.157  62.210  71.052  0.00  0.00    +0.000 A 
ATOM      9  O   UNL     1      61.341  62.047  71.840  0.00  0.00    +0.000 OA
ATOM     10  C   UNL     1      60.679  61.691  70.624  0.00  0.00    +0.000 A 
ATOM     11  C   UNL     1      60.496  61.854  69.836  0.00  0.00    +0.000 A 
ENDROOT
TORSDOF 0
ENDMDL
