MODEL 1
REMARK VINA RESULT:   -11.966      0.000      0.000
REMARK INTER + INTRA:         -11.966
REMARK INTER:                 -11.966
REMARK INTRA:                   0.000
REMARK UNBOUND:                 0.000
ROOT
REMARK  Name = doripenem
REMARK                            x       y       z     vdW  Elec       q    Type
REMARK                         _______ _______ _______ _____ _____    ______ ____
ATOM      1  C   UNL     1      59.371  65.932  71.528  0.00  0.00    +0.000 C 
ATOM      2  C   UNL     1      59.639  65.593  70.825  0.00  0.00    +0.000 C 
ATOM      3  O   UNL     1      59.703  66.054  70.143  0.00  0.00    +0.000 OA
ATOM      4  C   UNL     1      59.844  64.795  70.803  0.00  0.00    +0.000 C 
ATOM      5  C   UNL     1      60.124  64.280  70.223  0.00  0.00    +0.000 C 
ATOM      6  C   UNL     1      60.388  63.980  69.501  0.00  0.00    +0.000 C 
ATOM      7  C   UNL     1      60.466  64.405  68.799  0.00  0.00    +0.000 C 
ATOM      8  C   UNL     1      60.561  63.180  69.605  0.00  0.00    +0.000 C 
ATOM      9  S   UNL     1      60.841  62.665  69.025  0.00  0.00    +0.000 S 
ATOM     10  C   UNL     1      60.973  62.941  68.258  0.00  0.00    +0.000 C 
ATOM     11  C   UNL     1      60.851  63.711  67.992  0.00  0.00    +0.000 C 
ATOM     12  N   UNL     1      61.053  63.740  67.192  0.00  0.00    +0.000 NA
ATOM     13  C   UNL     1      61.300  62.987  66.965  0.00  0.00    +0.000 C 
ATOM     14  C   UNL     1      61.552  62.767  66.210  0.00  0.00    +0.000 C 
ATOM     15  N   UNL     1      61.785  61.988  66.064  0.00  0.00    +0.000 NA
ATOM     16  S   UNL     1      62.037  61.768  65.311  0.00  0.00    +0.000 S 
ATOM     17  N   UNL     1      62.290  61.548  64.556  0.00  0.00    +0.000 NA
ATOM     18  O   UNL     1      62.160  60.997  65.577  0.00  0.00    +0.000 OA
ATOM     19  O   UNL     1      61.915  62.539  65.044  0.00  0.00    +0.000 OA
ATOM     20  C   UNL     1      61.251  62.492  67.623  0.00  0.00    +0.000 C 
ATOM     21  C   UNL     1      60.404  62.985  70.391  0.00  0.00    +0.000 C 
ATOM     22  N   UNL     1      60.134  63.665  70.773  0.00  0.00    +0.000 N 
ATOM     23  C   UNL     1      59.853  64.180  71.353  0.00  0.00    +0.000 C 
ATOM     24  O   UNL     1      59.662  64.110  72.152  0.00  0.00    +0.000 OA
ATOM     25  C   UNL     1      60.499  62.241  70.735  0.00  0.00    +0.000 C 
ATOM     26  O   UNL     1      60.319  62.129  71.532  0.00  0.00    +0.000 OA
ATOM     27  O   UNL     1      60.776  61.610  70.281  0.00  0.00    +0.000 OA
ENDROOT
TORSDOF 0
ENDMDL
MODEL 2
REMARK VINA RESULT:   -11.287      3.931      4.531
REMARK INTER + INTRA:         -11.287
REMARK INTER:                 -11.287
REMARK INTRA:                   0.000
REMARK UNBOUND:                 0.000
ROOT
REMARK  Name = doripenem
REMARK                            x       y       z     vdW  Elec       q    Type
REMARK                         _______ _______ _______ _____ _____    ______ ____
ATOM      1  C   UNL     1      66.134  67.768  70.599  0.00  0.00    +0.000 C 
ATOM      2  C   UNL     1      65.612  67.195  70.315  0.00  0.00    +0.000 C 
ATOM      3  O   UNL     1      65.718  66.879  69.560  0.00  0.00    +0.000 OA
ATOM      4  C   UNL     1      64.986  66.938  70.785  0.00  0.00    +0.000 C 
ATOM      5  C   UNL     1      64.373  66.394  70.693  0.00  0.00    +0.000 C 
ATOM      6  C   UNL     1      63.874  65.819  70.372  0.00  0.00    +0.000 C 
ATOM      7  C   UNL     1      63.946  65.479  69.625  0.00  0.00    +0.000 C 
ATOM      8  C   UNL     1      63.292  65.646  70.931  0.00  0.00    +0.000 C 
ATOM      9  S   UNL     1      62.679  65.101  70.840  0.00  0.00    +0.000 S 
ATOM     10  C   UNL     1      62.611  64.672  70.138  0.00  0.00    +0.000 C 
ATOM     11  C   UNL     1      63.110  64.728  69.484  0.00  0.00    +0.000 C 
ATOM     12  N   UNL     1      62.838  64.202  68.909  0.00  0.00    +0.000 NA
ATOM     13  C   UNL     1      62.171  63.821  69.209  0.00  0.00    +0.000 C 
ATOM     14  C   UNL     1      61.722  63.250  68.817  0.00  0.00    +0.000 C 
ATOM     15  N   UNL     1      61.065  62.915  69.187  0.00  0.00    +0.000 NA
ATOM     16  S   UNL     1      60.617  62.345  68.796  0.00  0.00    +0.000 S 
ATOM     17  N   UNL     1      60.168  61.773  68.404  0.00  0.00    +0.000 NA
ATOM     18  O   UNL     1      60.117  62.288  69.451  0.00  0.00    +0.000 OA
ATOM     19  O   UNL     1      61.116  62.400  68.142  0.00  0.00    +0.000 OA
ATOM     20  C   UNL     1      62.030  64.111  69.968  0.00  0.00    +0.000 C 
ATOM     21  C   UNL     1      63.431  66.113  71.597  0.00  0.00    +0.000 C 
ATOM     22  N   UNL     1      64.099  66.575  71.450  0.00  0.00    +0.000 N 
ATOM     23  C   UNL     1      64.712  67.119  71.542  0.00  0.00    +0.000 C 
ATOM     24  O   UNL     1      64.951  67.632  72.141  0.00  0.00    +0.000 OA
ATOM     25  C   UNL     1      62.981  66.116  72.289  0.00  0.00    +0.000 C 
ATOM     26  O   UNL     1      63.187  66.615  72.912  0.00  0.00    +0.000 OA
ATOM     27  O   UNL     1      62.324  65.621  72.356  0.00  0.00    +0.000 OA
ENDROOT
TORSDOF 0
ENDMDL
MODEL 3
REMARK VINA RESULT:   -11.139      3.002      3.228
REMARK INTER + INTRA:         -11.139
REMARK INTER:                 -11.139
REMARK INTRA:                   0.000
REMARK UNBOUND:                 0.000
ROOT
REMARK  Name = doripenem
REMARK                            x       y       z     vdW  Elec       q    Type
REMARK                         _______ _______ _______ _____ _____    ______ ____
ATOM      1  C   UNL     1      62.350  67.702  72.646  0.00  0.00    +0.000 C 
ATOM      2  C   UNL     1      62.112  67.198  72.038  0.00  0.00    +0.000 C 
ATOM      3  O   UNL     1      61.330  67.208  71.776  0.00  0.00    +0.000 OA
ATOM      4  C   UNL     1      62.656  66.684  71.692  0.00  0.00    +0.000 C 
ATOM      5  C   UNL     1      62.624  66.119  71.092  0.00  0.00    +0.000 C 
ATOM      6  C   UNL     1      62.346  65.631  70.487  0.00  0.00    +0.000 C 
ATOM      7  C   UNL     1      61.575  65.610  70.197  0.00  0.00    +0.000 C 
ATOM      8  C   UNL     1      62.976  65.167  70.223  0.00  0.00    +0.000 C 
ATOM      9  S   UNL     1      62.945  64.602  69.623  0.00  0.00    +0.000 S 
ATOM     10  C   UNL     1      62.234  64.460  69.228  0.00  0.00    +0.000 C 
ATOM     11  C   UNL     1      61.515  64.837  69.371  0.00  0.00    +0.000 C 
ATOM     12  N   UNL     1      60.955  64.526  68.852  0.00  0.00    +0.000 NA
ATOM     13  C   UNL     1      61.328  63.955  68.388  0.00  0.00    +0.000 C 
ATOM     14  C   UNL     1      60.973  63.504  67.794  0.00  0.00    +0.000 C 
ATOM     15  N   UNL     1      61.418  62.952  67.373  0.00  0.00    +0.000 NA
ATOM     16  S   UNL     1      61.064  62.501  66.781  0.00  0.00    +0.000 S 
ATOM     17  N   UNL     1      60.708  62.050  66.188  0.00  0.00    +0.000 NA
ATOM     18  O   UNL     1      61.783  62.123  66.637  0.00  0.00    +0.000 OA
ATOM     19  O   UNL     1      60.344  62.879  66.924  0.00  0.00    +0.000 OA
ATOM     20  C   UNL     1      62.119  63.914  68.620  0.00  0.00    +0.000 C 
ATOM     21  C   UNL     1      63.643  65.369  70.665  0.00  0.00    +0.000 C 
ATOM     22  N   UNL     1      63.426  65.957  71.202  0.00  0.00    +0.000 N 
ATOM     23  C   UNL     1      63.458  66.522  71.802  0.00  0.00    +0.000 C 
ATOM     24  O   UNL     1      64.046  66.807  72.303  0.00  0.00    +0.000 OA
ATOM     25  C   UNL     1      64.396  65.040  70.584  0.00  0.00    +0.000 C 
ATOM     26  O   UNL     1      65.013  65.298  71.067  0.00  0.00    +0.000 OA
ATOM     27  O   UNL     1      64.531  64.453  70.020  0.00  0.00    +0.000 OA
ENDROOT
TORSDOF 0
ENDMDL
MODEL 4
REMARK VINA RESULT:   -10.266      4.763      6.556
REMARK INTER + INTRA:         -10.266
REMARK INTER:                 -10.266
REMARK INTRA:                   0.000
REMARK UNBOUND:                 0.000
ROOT
REMARK  Name = doripenem
REMARK                            x       y       z     vdW  Elec       q    Type
REMARK                         _______ _______ _______ _____ _____    ______ ____
ATOM      1  C   UNL     1      65.646  66.499  70.988  0.00  0.00    +0.000 C 
ATOM      2  C   UNL     1      64.861  66.283  71.121  0.00  0.00    +0.000 C 
ATOM      3  O   UNL     1      64.573  65.568  70.826  0.00  0.00    +0.000 OA
ATOM      4  C   UNL     1      64.363  66.782  71.548  0.00  0.00    +0.000 C 
ATOM      5  C   UNL     1      63.573  66.756  71.784  0.00  0.00    +0.000 C 
ATOM      6  C   UNL     1      62.794  66.503  71.894  0.00  0.00    +0.000 C 
ATOM      7  C   UNL     1      62.469  65.799  71.617  0.00  0.00    +0.000 C 
ATOM      8  C   UNL     1      62.399  67.081  72.332  0.00  0.00    +0.000 C 
ATOM      9  S   UNL     1      61.609  67.054  72.568  0.00  0.00    +0.000 S 
ATOM     10  C   UNL     1      61.140  66.406  72.366  0.00  0.00    +0.000 C 
ATOM     11  C   UNL     1      61.383  65.747  71.933  0.00  0.00    +0.000 C 
ATOM     12  N   UNL     1      60.739  65.236  71.861  0.00  0.00    +0.000 NA
ATOM     13  C   UNL     1      60.098  65.580  72.250  0.00  0.00    +0.000 C 
ATOM     14  C   UNL     1      59.341  65.257  72.316  0.00  0.00    +0.000 C 
ATOM     15  N   UNL     1      58.752  65.666  72.723  0.00  0.00    +0.000 NA
ATOM     16  S   UNL     1      57.996  65.344  72.789  0.00  0.00    +0.000 S 
ATOM     17  N   UNL     1      57.239  65.021  72.854  0.00  0.00    +0.000 NA
ATOM     18  O   UNL     1      57.752  66.003  73.222  0.00  0.00    +0.000 OA
ATOM     19  O   UNL     1      58.239  64.685  72.356  0.00  0.00    +0.000 OA
ATOM     20  C   UNL     1      60.345  66.302  72.562  0.00  0.00    +0.000 C 
ATOM     21  C   UNL     1      62.932  67.690  72.491  0.00  0.00    +0.000 C 
ATOM     22  N   UNL     1      63.658  67.489  72.153  0.00  0.00    +0.000 N 
ATOM     23  C   UNL     1      64.448  67.515  71.917  0.00  0.00    +0.000 C 
ATOM     24  O   UNL     1      65.066  68.052  72.011  0.00  0.00    +0.000 OA
ATOM     25  C   UNL     1      62.769  68.379  72.915  0.00  0.00    +0.000 C 
ATOM     26  O   UNL     1      63.361  68.941  73.031  0.00  0.00    +0.000 OA
ATOM     27  O   UNL     1      62.014  68.504  73.222  0.00  0.00    +0.000 OA
ENDROOT
TORSDOF 0
ENDMDL
MODEL 5
REMARK VINA RESULT:    -9.589     24.670     26.748
REMARK INTER + INTRA:          -9.589
REMARK INTER:                  -9.589
REMARK INTRA:                   0.000
REMARK UNBOUND:                 0.000
ROOT
REMARK  Name = doripenem
REMARK                            x       y       z     vdW  Elec       q    Type
REMARK                         _______ _______ _______ _____ _____    ______ ____
ATOM      1  C   UNL     1      71.535  78.588  48.098  0.00  0.00    +0.000 C 
ATOM      2  C   UNL     1      71.063  78.855  48.719  0.00  0.00    +0.000 C 
ATOM      3  O   UNL     1      70.272  78.623  48.766  0.00  0.00    +0.000 OA
ATOM      4  C   UNL     1      71.380  79.354  49.294  0.00  0.00    +0.000 C 
ATOM      5  C   UNL     1      71.090  79.721  49.973  0.00  0.00    +0.000 C 
ATOM      6  C   UNL     1      70.584  79.966  50.578  0.00  0.00    +0.000 C 
ATOM      7  C   UNL     1      69.791  79.757  50.661  0.00  0.00    +0.000 C 
ATOM      8  C   UNL     1      71.013  80.456  51.085  0.00  0.00    +0.000 C 
ATOM      9  S   UNL     1      70.722  80.823  51.764  0.00  0.00    +0.000 S 
ATOM     10  C   UNL     1      69.935  80.713  51.988  0.00  0.00    +0.000 C 
ATOM     11  C   UNL     1      69.378  80.254  51.590  0.00  0.00    +0.000 C 
ATOM     12  N   UNL     1      68.665  80.300  52.005  0.00  0.00    +0.000 NA
ATOM     13  C   UNL     1      68.784  80.787  52.660  0.00  0.00    +0.000 C 
ATOM     14  C   UNL     1      68.217  80.985  53.226  0.00  0.00    +0.000 C 
ATOM     15  N   UNL     1      68.417  81.481  53.855  0.00  0.00    +0.000 NA
ATOM     16  S   UNL     1      67.851  81.679  54.421  0.00  0.00    +0.000 S 
ATOM     17  N   UNL     1      67.284  81.876  54.987  0.00  0.00    +0.000 NA
ATOM     18  O   UNL     1      68.409  82.138  54.819  0.00  0.00    +0.000 OA
ATOM     19  O   UNL     1      67.293  81.220  54.023  0.00  0.00    +0.000 OA
ATOM     20  C   UNL     1      69.569  81.043  52.650  0.00  0.00    +0.000 C 
ATOM     21  C   UNL     1      71.782  80.514  50.794  0.00  0.00    +0.000 C 
ATOM     22  N   UNL     1      71.830  80.060  50.106  0.00  0.00    +0.000 N 
ATOM     23  C   UNL     1      72.120  79.693  49.427  0.00  0.00    +0.000 C 
ATOM     24  O   UNL     1      72.849  79.673  49.042  0.00  0.00    +0.000 OA
ATOM     25  C   UNL     1      72.396  80.950  51.131  0.00  0.00    +0.000 C 
ATOM     26  O   UNL     1      73.141  80.956  50.776  0.00  0.00    +0.000 OA
ATOM     27  O   UNL     1      72.265  81.379  51.823  0.00  0.00    +0.000 OA
ENDROOT
TORSDOF 0
ENDMDL
MODEL 6
REMARK VINA RESULT:    -9.491     15.061     15.980
REMARK INTER + INTRA:          -9.491
REMARK INTER:                  -9.491
REMARK INTRA:                   0.000
REMARK UNBOUND:                 0.000
ROOT
REMARK  Name = doripenem
REMARK                            x       y       z     vdW  Elec       q    Type
REMARK                         _______ _______ _______ _____ _____    ______ ____
ATOM      1  C   UNL     1      61.474  59.766  52.217  0.00  0.00    +0.000 C 
ATOM      2  C   UNL     1      61.459  60.564  52.426  0.00  0.00    +0.000 C 
ATOM      3  O   UNL     1      60.795  61.023  52.253  0.00  0.00    +0.000 OA
ATOM      4  C   UNL     1      62.106  60.903  52.808  0.00  0.00    +0.000 C 
ATOM      5  C   UNL     1      62.287  61.656  53.093  0.00  0.00    +0.000 C 
ATOM      6  C   UNL     1      62.231  62.457  53.285  0.00  0.00    +0.000 C 
ATOM      7  C   UNL     1      61.588  62.949  53.130  0.00  0.00    +0.000 C 
ATOM      8  C   UNL     1      62.933  62.678  53.659  0.00  0.00    +0.000 C 
ATOM      9  S   UNL     1      63.113  63.431  53.944  0.00  0.00    +0.000 S 
ATOM     10  C   UNL     1      62.566  64.044  53.865  0.00  0.00    +0.000 C 
ATOM     11  C   UNL     1      61.822  63.987  53.516  0.00  0.00    +0.000 C 
ATOM     12  N   UNL     1      61.463  64.730  53.556  0.00  0.00    +0.000 NA
ATOM     13  C   UNL     1      61.988  65.245  53.931  0.00  0.00    +0.000 C 
ATOM     14  C   UNL     1      61.853  66.044  54.087  0.00  0.00    +0.000 C 
ATOM     15  N   UNL     1      62.432  66.493  54.468  0.00  0.00    +0.000 NA
ATOM     16  S   UNL     1      62.298  67.291  54.624  0.00  0.00    +0.000 S 
ATOM     17  N   UNL     1      62.164  68.090  54.781  0.00  0.00    +0.000 NA
ATOM     18  O   UNL     1      63.044  67.348  54.974  0.00  0.00    +0.000 OA
ATOM     19  O   UNL     1      61.553  67.235  54.275  0.00  0.00    +0.000 OA
ATOM     20  C   UNL     1      62.669  64.821  54.122  0.00  0.00    +0.000 C 
ATOM     21  C   UNL     1      63.421  62.015  53.698  0.00  0.00    +0.000 C 
ATOM     22  N   UNL     1      63.022  61.383  53.348  0.00  0.00    +0.000 N 
ATOM     23  C   UNL     1      62.841  60.630  53.063  0.00  0.00    +0.000 C 
ATOM     24  O   UNL     1      63.233  59.905  53.043  0.00  0.00    +0.000 OA
ATOM     25  C   UNL     1      64.177  61.987  54.030  0.00  0.00    +0.000 C 
ATOM     26  O   UNL     1      64.602  61.281  54.029  0.00  0.00    +0.000 OA
ATOM     27  O   UNL     1      64.506  62.667  54.361  0.00  0.00    +0.000 OA
ENDROOT
TORSDOF 0
ENDMDL
MODEL 7
REMARK VINA RESULT:    -9.404     14.267     15.287
REMARK INTER + INTRA:          -9.404
REMARK INTER:                  -9.404
REMARK INTRA:                   0.000
REMARK UNBOUND:                 0.000
ROOT
REMARK  Name = doripenem
REMARK                            x       y       z     vdW  Elec       q    Type
REMARK                         _______ _______ _______ _____ _____    ______ ____
ATOM      1  C   UNL     1      60.366  70.584  53.637  0.00  0.00    +0.000 C 
ATOM      2  C   UNL     1      60.541  69.782  53.558  0.00  0.00    +0.000 C 
ATOM      3  O   UNL     1      60.225  69.350  52.930  0.00  0.00    +0.000 OA
ATOM      4  C   UNL     1      61.032  69.411  54.107  0.00  0.00    +0.000 C 
ATOM      5  C   UNL     1      61.321  68.645  54.207  0.00  0.00    +0.000 C 
ATOM      6  C   UNL     1      61.471  67.841  54.092  0.00  0.00    +0.000 C 
ATOM      7  C   UNL     1      61.176  67.375  53.479  0.00  0.00    +0.000 C 
ATOM      8  C   UNL     1      61.970  67.586  54.699  0.00  0.00    +0.000 C 
ATOM      9  S   UNL     1      62.259  66.820  54.798  0.00  0.00    +0.000 S 
ATOM     10  C   UNL     1      62.052  66.228  54.261  0.00  0.00    +0.000 C 
ATOM     11  C   UNL     1      61.565  66.319  53.603  0.00  0.00    +0.000 C 
ATOM     12  N   UNL     1      61.508  65.589  53.223  0.00  0.00    +0.000 NA
ATOM     13  C   UNL     1      61.962  65.046  53.648  0.00  0.00    +0.000 C 
ATOM     14  C   UNL     1      62.061  64.248  53.463  0.00  0.00    +0.000 C 
ATOM     15  N   UNL     1      62.533  63.769  53.942  0.00  0.00    +0.000 NA
ATOM     16  S   UNL     1      62.633  62.972  53.758  0.00  0.00    +0.000 S 
ATOM     17  N   UNL     1      62.732  62.174  53.573  0.00  0.00    +0.000 NA
ATOM     18  O   UNL     1      63.121  62.880  54.417  0.00  0.00    +0.000 OA
ATOM     19  O   UNL     1      62.145  63.063  53.099  0.00  0.00    +0.000 OA
ATOM     20  C   UNL     1      62.298  65.441  54.290  0.00  0.00    +0.000 C 
ATOM     21  C   UNL     1      62.127  68.231  55.188  0.00  0.00    +0.000 C 
ATOM     22  N   UNL     1      61.727  68.886  54.884  0.00  0.00    +0.000 N 
ATOM     23  C   UNL     1      61.437  69.652  54.784  0.00  0.00    +0.000 C 
ATOM     24  O   UNL     1      61.519  70.363  55.192  0.00  0.00    +0.000 OA
ATOM     25  C   UNL     1      62.602  68.224  55.863  0.00  0.00    +0.000 C 
ATOM     26  O   UNL     1      62.710  68.915  56.299  0.00  0.00    +0.000 OA
ATOM     27  O   UNL     1      62.969  67.524  56.100  0.00  0.00    +0.000 OA
ENDROOT
TORSDOF 0
ENDMDL
MODEL 8
REMARK VINA RESULT:    -9.318     14.399     15.556
REMARK INTER + INTRA:          -9.318
REMARK INTER:                  -9.318
REMARK INTRA:                   0.000
REMARK UNBOUND:                 0.000
ROOT
REMARK  Name = doripenem
REMARK                            x       y       z     vdW  Elec       q    Type
REMARK                         _______ _______ _______ _____ _____    ______ ____
ATOM      1  C   UNL     1      62.402  69.198  55.976  0.00  0.00    +0.000 C 
ATOM      2  C   UNL     1      62.378  68.414  55.721  0.00  0.00    +0.000 C 
ATOM      3  O   UNL     1      62.716  67.819  56.182  0.00  0.00    +0.000 OA
ATOM      4  C   UNL     1      62.016  68.225  55.004  0.00  0.00    +0.000 C 
ATOM      5  C   UNL     1      61.889  67.528  54.582  0.00  0.00    +0.000 C 
ATOM      6  C   UNL     1      61.887  66.732  54.362  0.00  0.00    +0.000 C 
ATOM      7  C   UNL     1      62.213  66.109  54.793  0.00  0.00    +0.000 C 
ATOM      8  C   UNL     1      61.500  66.669  53.635  0.00  0.00    +0.000 C 
ATOM      9  S   UNL     1      61.373  65.972  53.213  0.00  0.00    +0.000 S 
ATOM     10  C   UNL     1      61.643  65.253  53.514  0.00  0.00    +0.000 C 
ATOM     11  C   UNL     1      62.046  65.145  54.224  0.00  0.00    +0.000 C 
ATOM     12  N   UNL     1      62.209  64.340  54.306  0.00  0.00    +0.000 NA
ATOM     13  C   UNL     1      61.906  63.951  53.645  0.00  0.00    +0.000 C 
ATOM     14  C   UNL     1      61.947  63.139  53.499  0.00  0.00    +0.000 C 
ATOM     15  N   UNL     1      61.617  62.827  52.810  0.00  0.00    +0.000 NA
ATOM     16  S   UNL     1      61.657  62.017  52.664  0.00  0.00    +0.000 S 
ATOM     17  N   UNL     1      61.698  61.205  52.518  0.00  0.00    +0.000 NA
ATOM     18  O   UNL     1      61.254  62.125  51.952  0.00  0.00    +0.000 OA
ATOM     19  O   UNL     1      62.061  61.908  53.375  0.00  0.00    +0.000 OA
ATOM     20  C   UNL     1      61.556  64.514  53.155  0.00  0.00    +0.000 C 
ATOM     21  C   UNL     1      61.264  67.425  53.406  0.00  0.00    +0.000 C 
ATOM     22  N   UNL     1      61.504  67.956  53.991  0.00  0.00    +0.000 N 
ATOM     23  C   UNL     1      61.632  68.653  54.414  0.00  0.00    +0.000 C 
ATOM     24  O   UNL     1      61.450  69.448  54.295  0.00  0.00    +0.000 OA
ATOM     25  C   UNL     1      60.859  67.618  52.713  0.00  0.00    +0.000 C 
ATOM     26  O   UNL     1      60.658  68.402  52.557  0.00  0.00    +0.000 OA
ATOM     27  O   UNL     1      60.655  67.025  52.177  0.00  0.00    +0.000 OA
ENDROOT
TORSDOF 0
ENDMDL
