MODEL 1
REMARK VINA RESULT:   -15.435      0.000      0.000
REMARK INTER + INTRA:         -15.435
REMARK INTER:                 -15.435
REMARK INTRA:                   0.000
REMARK UNBOUND:                 0.000
ROOT
REMARK  Name = doxazosin
REMARK                            x       y       z     vdW  Elec       q    Type
REMARK                         _______ _______ _______ _____ _____    ______ ____
ATOM      1  C   UNL     1      65.048  66.496  69.855  0.00  0.00    +0.000 C 
ATOM      2  O   UNL     1      64.679  66.562  70.590  0.00  0.00    +0.000 OA
ATOM      3  C   UNL     1      63.985  66.143  70.741  0.00  0.00    +0.000 A 
ATOM      4  C   UNL     1      63.615  66.208  71.476  0.00  0.00    +0.000 A 
ATOM      5  O   UNL     1      63.941  66.693  72.060  0.00  0.00    +0.000 OA
ATOM      6  C   UNL     1      64.635  67.112  71.908  0.00  0.00    +0.000 C 
ATOM      7  C   UNL     1      62.922  65.789  71.627  0.00  0.00    +0.000 A 
ATOM      8  C   UNL     1      62.597  65.304  71.044  0.00  0.00    +0.000 A 
ATOM      9  C   UNL     1      61.902  64.885  71.196  0.00  0.00    +0.000 A 
ATOM     10  N   UNL     1      61.534  64.950  71.930  0.00  0.00    +0.000 NA
ATOM     11  N   UNL     1      61.578  64.401  70.612  0.00  0.00    +0.000 NA
ATOM     12  C   UNL     1      61.947  64.335  69.877  0.00  0.00    +0.000 A 
ATOM     13  N   UNL     1      62.641  64.754  69.726  0.00  0.00    +0.000 NA
ATOM     14  C   UNL     1      62.967  65.239  70.309  0.00  0.00    +0.000 A 
ATOM     15  C   UNL     1      63.660  65.658  70.158  0.00  0.00    +0.000 A 
ATOM     16  N   UNL     1      61.623  63.851  69.293  0.00  0.00    +0.000 N 
ATOM     17  C   UNL     1      60.928  63.431  69.445  0.00  0.00    +0.000 C 
ATOM     18  C   UNL     1      60.603  62.947  68.862  0.00  0.00    +0.000 C 
ATOM     19  N   UNL     1      60.972  62.881  68.127  0.00  0.00    +0.000 N 
ATOM     20  C   UNL     1      61.667  63.301  67.975  0.00  0.00    +0.000 C 
ATOM     21  C   UNL     1      61.992  63.785  68.559  0.00  0.00    +0.000 C 
ATOM     22  C   UNL     1      60.648  62.397  67.544  0.00  0.00    +0.000 C 
ATOM     23  O   UNL     1      59.954  61.978  67.695  0.00  0.00    +0.000 OA
ATOM     24  C   UNL     1      61.017  62.332  66.809  0.00  0.00    +0.000 C 
ATOM     25  C   UNL     1      61.712  62.751  66.658  0.00  0.00    +0.000 C 
ATOM     26  O   UNL     1      62.081  62.686  65.923  0.00  0.00    +0.000 OA
ATOM     27  C   UNL     1      61.757  62.201  65.339  0.00  0.00    +0.000 A 
ATOM     28  C   UNL     1      61.062  61.781  65.490  0.00  0.00    +0.000 A 
ATOM     29  O   UNL     1      60.693  61.847  66.225  0.00  0.00    +0.000 OA
ATOM     30  C   UNL     1      60.737  61.297  64.907  0.00  0.00    +0.000 A 
ATOM     31  C   UNL     1      61.106  61.232  64.173  0.00  0.00    +0.000 A 
ATOM     32  C   UNL     1      61.801  61.652  64.021  0.00  0.00    +0.000 A 
ATOM     33  C   UNL     1      62.126  62.136  64.604  0.00  0.00    +0.000 A 
ENDROOT
TORSDOF 0
ENDMDL
MODEL 2
REMARK VINA RESULT:   -14.816      1.154      6.255
REMARK INTER + INTRA:         -14.816
REMARK INTER:                 -14.816
REMARK INTRA:                   0.000
REMARK UNBOUND:                 0.000
ROOT
REMARK  Name = doxazosin
REMARK                            x       y       z     vdW  Elec       q    Type
REMARK                         _______ _______ _______ _____ _____    ______ ____
ATOM      1  C   UNL     1      62.757  62.001  64.608  0.00  0.00    +0.000 C 
ATOM      2  O   UNL     1      61.982  61.725  64.553  0.00  0.00    +0.000 OA
ATOM      3  C   UNL     1      61.441  61.892  65.153  0.00  0.00    +0.000 A 
ATOM      4  C   UNL     1      60.666  61.616  65.100  0.00  0.00    +0.000 A 
ATOM      5  O   UNL     1      60.431  61.173  64.444  0.00  0.00    +0.000 OA
ATOM      6  C   UNL     1      60.971  61.005  63.844  0.00  0.00    +0.000 C 
ATOM      7  C   UNL     1      60.126  61.784  65.699  0.00  0.00    +0.000 A 
ATOM      8  C   UNL     1      60.361  62.227  66.354  0.00  0.00    +0.000 A 
ATOM      9  C   UNL     1      59.820  62.394  66.955  0.00  0.00    +0.000 A 
ATOM     10  N   UNL     1      59.045  62.118  66.900  0.00  0.00    +0.000 NA
ATOM     11  N   UNL     1      60.056  62.838  67.610  0.00  0.00    +0.000 NA
ATOM     12  C   UNL     1      60.831  63.114  67.664  0.00  0.00    +0.000 A 
ATOM     13  N   UNL     1      61.371  62.946  67.064  0.00  0.00    +0.000 NA
ATOM     14  C   UNL     1      61.137  62.503  66.409  0.00  0.00    +0.000 A 
ATOM     15  C   UNL     1      61.677  62.336  65.809  0.00  0.00    +0.000 A 
ATOM     16  N   UNL     1      61.067  63.557  68.319  0.00  0.00    +0.000 N 
ATOM     17  C   UNL     1      60.526  63.725  68.920  0.00  0.00    +0.000 C 
ATOM     18  C   UNL     1      60.761  64.168  69.574  0.00  0.00    +0.000 C 
ATOM     19  N   UNL     1      61.536  64.444  69.629  0.00  0.00    +0.000 N 
ATOM     20  C   UNL     1      62.078  64.276  69.028  0.00  0.00    +0.000 C 
ATOM     21  C   UNL     1      61.842  63.833  68.373  0.00  0.00    +0.000 C 
ATOM     22  C   UNL     1      61.772  64.887  70.283  0.00  0.00    +0.000 C 
ATOM     23  O   UNL     1      61.231  65.055  70.884  0.00  0.00    +0.000 OA
ATOM     24  C   UNL     1      62.546  65.163  70.338  0.00  0.00    +0.000 C 
ATOM     25  C   UNL     1      63.088  64.995  69.736  0.00  0.00    +0.000 C 
ATOM     26  O   UNL     1      63.863  65.272  69.791  0.00  0.00    +0.000 OA
ATOM     27  C   UNL     1      64.099  65.715  70.446  0.00  0.00    +0.000 A 
ATOM     28  C   UNL     1      63.558  65.883  71.047  0.00  0.00    +0.000 A 
ATOM     29  O   UNL     1      62.782  65.607  70.992  0.00  0.00    +0.000 OA
ATOM     30  C   UNL     1      63.793  66.326  71.701  0.00  0.00    +0.000 A 
ATOM     31  C   UNL     1      64.568  66.602  71.756  0.00  0.00    +0.000 A 
ATOM     32  C   UNL     1      65.109  66.434  71.155  0.00  0.00    +0.000 A 
ATOM     33  C   UNL     1      64.874  65.991  70.501  0.00  0.00    +0.000 A 
ENDROOT
TORSDOF 0
ENDMDL
MODEL 3
REMARK VINA RESULT:   -13.889      2.549      2.633
REMARK INTER + INTRA:         -13.889
REMARK INTER:                 -13.889
REMARK INTRA:                   0.000
REMARK UNBOUND:                 0.000
ROOT
REMARK  Name = doxazosin
REMARK                            x       y       z     vdW  Elec       q    Type
REMARK                         _______ _______ _______ _____ _____    ______ ____
ATOM      1  C   UNL     1      59.842  67.674  69.808  0.00  0.00    +0.000 C 
ATOM      2  O   UNL     1      59.620  67.398  70.553  0.00  0.00    +0.000 OA
ATOM      3  C   UNL     1      59.647  66.590  70.718  0.00  0.00    +0.000 A 
ATOM      4  C   UNL     1      59.425  66.313  71.463  0.00  0.00    +0.000 A 
ATOM      5  O   UNL     1      59.176  66.845  72.043  0.00  0.00    +0.000 OA
ATOM      6  C   UNL     1      59.149  67.653  71.878  0.00  0.00    +0.000 C 
ATOM      7  C   UNL     1      59.452  65.506  71.627  0.00  0.00    +0.000 A 
ATOM      8  C   UNL     1      59.700  64.974  71.047  0.00  0.00    +0.000 A 
ATOM      9  C   UNL     1      59.727  64.166  71.212  0.00  0.00    +0.000 A 
ATOM     10  N   UNL     1      59.505  63.890  71.956  0.00  0.00    +0.000 NA
ATOM     11  N   UNL     1      59.976  63.636  70.631  0.00  0.00    +0.000 NA
ATOM     12  C   UNL     1      60.198  63.912  69.887  0.00  0.00    +0.000 A 
ATOM     13  N   UNL     1      60.171  64.720  69.723  0.00  0.00    +0.000 NA
ATOM     14  C   UNL     1      59.923  65.252  70.302  0.00  0.00    +0.000 A 
ATOM     15  C   UNL     1      59.896  66.059  70.138  0.00  0.00    +0.000 A 
ATOM     16  N   UNL     1      60.447  63.381  69.306  0.00  0.00    +0.000 N 
ATOM     17  C   UNL     1      60.474  62.572  69.471  0.00  0.00    +0.000 C 
ATOM     18  C   UNL     1      60.723  62.042  68.892  0.00  0.00    +0.000 C 
ATOM     19  N   UNL     1      60.945  62.318  68.146  0.00  0.00    +0.000 N 
ATOM     20  C   UNL     1      60.918  63.127  67.982  0.00  0.00    +0.000 C 
ATOM     21  C   UNL     1      60.669  63.658  68.562  0.00  0.00    +0.000 C 
ATOM     22  C   UNL     1      61.194  61.787  67.567  0.00  0.00    +0.000 C 
ATOM     23  O   UNL     1      61.220  60.979  67.731  0.00  0.00    +0.000 OA
ATOM     24  C   UNL     1      61.416  62.064  66.822  0.00  0.00    +0.000 C 
ATOM     25  C   UNL     1      61.389  62.873  66.658  0.00  0.00    +0.000 C 
ATOM     26  O   UNL     1      61.611  63.149  65.912  0.00  0.00    +0.000 OA
ATOM     27  C   UNL     1      61.860  62.618  65.332  0.00  0.00    +0.000 A 
ATOM     28  C   UNL     1      61.887  61.809  65.496  0.00  0.00    +0.000 A 
ATOM     29  O   UNL     1      61.665  61.533  66.242  0.00  0.00    +0.000 OA
ATOM     30  C   UNL     1      62.136  61.278  64.917  0.00  0.00    +0.000 A 
ATOM     31  C   UNL     1      62.357  61.555  64.172  0.00  0.00    +0.000 A 
ATOM     32  C   UNL     1      62.331  62.364  64.008  0.00  0.00    +0.000 A 
ATOM     33  C   UNL     1      62.082  62.894  64.587  0.00  0.00    +0.000 A 
ENDROOT
TORSDOF 0
ENDMDL
