MODEL 1
REMARK VINA RESULT:   -12.424      0.000      0.000
REMARK INTER + INTRA:         -12.424
REMARK INTER:                 -12.424
REMARK INTRA:                   0.000
REMARK UNBOUND:                 0.000
ROOT
REMARK  Name = dronabinol
REMARK                            x       y       z     vdW  Elec       q    Type
REMARK                         _______ _______ _______ _____ _____    ______ ____
ATOM      1  C   UNL     1      66.379  67.947  69.825  0.00  0.00    +0.000 C 
ATOM      2  C   UNL     1      65.763  67.546  70.200  0.00  0.00    +0.000 C 
ATOM      3  C   UNL     1      65.504  66.820  69.908  0.00  0.00    +0.000 C 
ATOM      4  C   UNL     1      64.888  66.420  70.283  0.00  0.00    +0.000 C 
ATOM      5  C   UNL     1      64.628  65.693  69.991  0.00  0.00    +0.000 C 
ATOM      6  C   UNL     1      64.013  65.294  70.366  0.00  0.00    +0.000 A 
ATOM      7  C   UNL     1      63.753  64.567  70.074  0.00  0.00    +0.000 A 
ATOM      8  C   UNL     1      63.138  64.167  70.449  0.00  0.00    +0.000 A 
ATOM      9  O   UNL     1      62.878  63.440  70.157  0.00  0.00    +0.000 OA
ATOM     10  C   UNL     1      62.780  64.494  71.118  0.00  0.00    +0.000 A 
ATOM     11  C   UNL     1      62.164  64.094  71.494  0.00  0.00    +0.000 C 
ATOM     12  C   UNL     1      61.905  63.367  71.201  0.00  0.00    +0.000 C 
ATOM     13  C   UNL     1      61.289  62.967  71.577  0.00  0.00    +0.000 C 
ATOM     14  C   UNL     1      61.030  62.241  71.285  0.00  0.00    +0.000 C 
ATOM     15  C   UNL     1      60.932  63.294  72.245  0.00  0.00    +0.000 C 
ATOM     16  C   UNL     1      61.191  64.021  72.538  0.00  0.00    +0.000 C 
ATOM     17  C   UNL     1      61.807  64.420  72.162  0.00  0.00    +0.000 C 
ATOM     18  C   UNL     1      62.066  65.147  72.455  0.00  0.00    +0.000 C 
ATOM     19  C   UNL     1      61.467  64.979  72.997  0.00  0.00    +0.000 C 
ATOM     20  C   UNL     1      62.117  65.816  72.936  0.00  0.00    +0.000 C 
ATOM     21  O   UNL     1      62.682  65.547  72.079  0.00  0.00    +0.000 OA
ATOM     22  C   UNL     1      63.039  65.220  71.410  0.00  0.00    +0.000 A 
ATOM     23  C   UNL     1      63.655  65.621  71.035  0.00  0.00    +0.000 A 
ENDROOT
TORSDOF 0
ENDMDL
MODEL 2
REMARK VINA RESULT:   -12.170      3.672      4.691
REMARK INTER + INTRA:         -12.170
REMARK INTER:                 -12.170
REMARK INTRA:                   0.000
REMARK UNBOUND:                 0.000
ROOT
REMARK  Name = dronabinol
REMARK                            x       y       z     vdW  Elec       q    Type
REMARK                         _______ _______ _______ _____ _____    ______ ____
ATOM      1  C   UNL     1      62.044  61.477  64.797  0.00  0.00    +0.000 C 
ATOM      2  C   UNL     1      61.823  61.561  65.588  0.00  0.00    +0.000 C 
ATOM      3  C   UNL     1      61.604  62.300  65.879  0.00  0.00    +0.000 C 
ATOM      4  C   UNL     1      61.384  62.384  66.669  0.00  0.00    +0.000 C 
ATOM      5  C   UNL     1      61.165  63.124  66.961  0.00  0.00    +0.000 C 
ATOM      6  C   UNL     1      60.944  63.208  67.750  0.00  0.00    +0.000 A 
ATOM      7  C   UNL     1      60.725  63.948  68.042  0.00  0.00    +0.000 A 
ATOM      8  C   UNL     1      60.504  64.031  68.832  0.00  0.00    +0.000 A 
ATOM      9  O   UNL     1      60.285  64.771  69.124  0.00  0.00    +0.000 OA
ATOM     10  C   UNL     1      60.503  63.374  69.332  0.00  0.00    +0.000 A 
ATOM     11  C   UNL     1      60.282  63.458  70.123  0.00  0.00    +0.000 C 
ATOM     12  C   UNL     1      60.063  64.197  70.414  0.00  0.00    +0.000 C 
ATOM     13  C   UNL     1      59.842  64.282  71.205  0.00  0.00    +0.000 C 
ATOM     14  C   UNL     1      59.623  65.021  71.496  0.00  0.00    +0.000 C 
ATOM     15  C   UNL     1      59.840  63.625  71.704  0.00  0.00    +0.000 C 
ATOM     16  C   UNL     1      60.059  62.884  71.413  0.00  0.00    +0.000 C 
ATOM     17  C   UNL     1      60.280  62.801  70.622  0.00  0.00    +0.000 C 
ATOM     18  C   UNL     1      60.499  62.060  70.331  0.00  0.00    +0.000 C 
ATOM     19  C   UNL     1      60.334  61.863  71.115  0.00  0.00    +0.000 C 
ATOM     20  C   UNL     1      60.660  61.252  70.312  0.00  0.00    +0.000 C 
ATOM     21  O   UNL     1      60.719  61.977  69.540  0.00  0.00    +0.000 OA
ATOM     22  C   UNL     1      60.721  62.634  69.041  0.00  0.00    +0.000 A 
ATOM     23  C   UNL     1      60.942  62.550  68.250  0.00  0.00    +0.000 A 
ENDROOT
TORSDOF 0
ENDMDL
MODEL 3
REMARK VINA RESULT:   -12.114      3.378      4.548
REMARK INTER + INTRA:         -12.114
REMARK INTER:                 -12.114
REMARK INTRA:                   0.000
REMARK UNBOUND:                 0.000
ROOT
REMARK  Name = dronabinol
REMARK                            x       y       z     vdW  Elec       q    Type
REMARK                         _______ _______ _______ _____ _____    ______ ____
ATOM      1  C   UNL     1      59.495  62.012  65.578  0.00  0.00    +0.000 C 
ATOM      2  C   UNL     1      59.598  62.354  66.322  0.00  0.00    +0.000 C 
ATOM      3  C   UNL     1      59.946  61.921  66.931  0.00  0.00    +0.000 C 
ATOM      4  C   UNL     1      60.048  62.263  67.674  0.00  0.00    +0.000 C 
ATOM      5  C   UNL     1      60.396  61.830  68.284  0.00  0.00    +0.000 C 
ATOM      6  C   UNL     1      60.498  62.171  69.027  0.00  0.00    +0.000 A 
ATOM      7  C   UNL     1      60.846  61.738  69.637  0.00  0.00    +0.000 A 
ATOM      8  C   UNL     1      60.948  62.080  70.380  0.00  0.00    +0.000 A 
ATOM      9  O   UNL     1      61.296  61.647  70.990  0.00  0.00    +0.000 OA
ATOM     10  C   UNL     1      60.701  62.857  70.515  0.00  0.00    +0.000 A 
ATOM     11  C   UNL     1      60.803  63.198  71.259  0.00  0.00    +0.000 C 
ATOM     12  C   UNL     1      61.151  62.765  71.868  0.00  0.00    +0.000 C 
ATOM     13  C   UNL     1      61.253  63.107  72.612  0.00  0.00    +0.000 C 
ATOM     14  C   UNL     1      61.601  62.674  73.221  0.00  0.00    +0.000 C 
ATOM     15  C   UNL     1      61.007  63.883  72.747  0.00  0.00    +0.000 C 
ATOM     16  C   UNL     1      60.659  64.317  72.137  0.00  0.00    +0.000 C 
ATOM     17  C   UNL     1      60.557  63.974  71.393  0.00  0.00    +0.000 C 
ATOM     18  C   UNL     1      60.208  64.408  70.784  0.00  0.00    +0.000 C 
ATOM     19  C   UNL     1      60.187  64.969  71.389  0.00  0.00    +0.000 C 
ATOM     20  C   UNL     1      59.853  65.036  70.385  0.00  0.00    +0.000 C 
ATOM     21  O   UNL     1      60.107  64.066  70.040  0.00  0.00    +0.000 OA
ATOM     22  C   UNL     1      60.353  63.290  69.906  0.00  0.00    +0.000 A 
ATOM     23  C   UNL     1      60.251  62.948  69.162  0.00  0.00    +0.000 A 
ENDROOT
TORSDOF 0
ENDMDL
MODEL 4
REMARK VINA RESULT:   -11.445      0.934      4.579
REMARK INTER + INTRA:         -11.445
REMARK INTER:                 -11.445
REMARK INTRA:                   0.000
REMARK UNBOUND:                 0.000
ROOT
REMARK  Name = dronabinol
REMARK                            x       y       z     vdW  Elec       q    Type
REMARK                         _______ _______ _______ _____ _____    ______ ____
ATOM      1  C   UNL     1      60.155  61.471  70.965  0.00  0.00    +0.000 C 
ATOM      2  C   UNL     1      60.757  62.022  70.838  0.00  0.00    +0.000 C 
ATOM      3  C   UNL     1      60.839  62.667  71.345  0.00  0.00    +0.000 C 
ATOM      4  C   UNL     1      61.440  63.217  71.219  0.00  0.00    +0.000 C 
ATOM      5  C   UNL     1      61.523  63.862  71.726  0.00  0.00    +0.000 C 
ATOM      6  C   UNL     1      62.123  64.413  71.600  0.00  0.00    +0.000 A 
ATOM      7  C   UNL     1      62.206  65.058  72.107  0.00  0.00    +0.000 A 
ATOM      8  C   UNL     1      62.807  65.608  71.980  0.00  0.00    +0.000 A 
ATOM      9  O   UNL     1      62.890  66.254  72.488  0.00  0.00    +0.000 OA
ATOM     10  C   UNL     1      63.326  65.514  71.345  0.00  0.00    +0.000 A 
ATOM     11  C   UNL     1      63.928  66.065  71.219  0.00  0.00    +0.000 C 
ATOM     12  C   UNL     1      64.010  66.709  71.726  0.00  0.00    +0.000 C 
ATOM     13  C   UNL     1      64.611  67.260  71.600  0.00  0.00    +0.000 C 
ATOM     14  C   UNL     1      64.694  67.905  72.107  0.00  0.00    +0.000 C 
ATOM     15  C   UNL     1      65.130  67.166  70.965  0.00  0.00    +0.000 C 
ATOM     16  C   UNL     1      65.048  66.520  70.457  0.00  0.00    +0.000 C 
ATOM     17  C   UNL     1      64.447  65.970  70.585  0.00  0.00    +0.000 C 
ATOM     18  C   UNL     1      64.364  65.324  70.076  0.00  0.00    +0.000 C 
ATOM     19  C   UNL     1      65.016  65.696  69.732  0.00  0.00    +0.000 C 
ATOM     20  C   UNL     1      64.508  64.808  69.449  0.00  0.00    +0.000 C 
ATOM     21  O   UNL     1      63.763  64.774  70.204  0.00  0.00    +0.000 OA
ATOM     22  C   UNL     1      63.244  64.869  70.838  0.00  0.00    +0.000 A 
ATOM     23  C   UNL     1      62.643  64.318  70.964  0.00  0.00    +0.000 A 
ENDROOT
TORSDOF 0
ENDMDL
MODEL 5
REMARK VINA RESULT:   -10.952      3.270      4.698
REMARK INTER + INTRA:         -10.952
REMARK INTER:                 -10.952
REMARK INTRA:                   0.000
REMARK UNBOUND:                 0.000
ROOT
REMARK  Name = dronabinol
REMARK                            x       y       z     vdW  Elec       q    Type
REMARK                         _______ _______ _______ _____ _____    ______ ____
ATOM      1  C   UNL     1      62.305  60.339  72.126  0.00  0.00    +0.000 C 
ATOM      2  C   UNL     1      61.982  61.021  71.791  0.00  0.00    +0.000 C 
ATOM      3  C   UNL     1      61.764  61.654  72.272  0.00  0.00    +0.000 C 
ATOM      4  C   UNL     1      61.441  62.334  71.937  0.00  0.00    +0.000 C 
ATOM      5  C   UNL     1      61.222  62.968  72.417  0.00  0.00    +0.000 C 
ATOM      6  C   UNL     1      60.900  63.649  72.082  0.00  0.00    +0.000 A 
ATOM      7  C   UNL     1      60.681  64.283  72.563  0.00  0.00    +0.000 A 
ATOM      8  C   UNL     1      60.359  64.963  72.228  0.00  0.00    +0.000 A 
ATOM      9  O   UNL     1      60.140  65.597  72.709  0.00  0.00    +0.000 OA
ATOM     10  C   UNL     1      60.255  65.011  71.410  0.00  0.00    +0.000 A 
ATOM     11  C   UNL     1      59.932  65.693  71.074  0.00  0.00    +0.000 C 
ATOM     12  C   UNL     1      59.714  66.326  71.555  0.00  0.00    +0.000 C 
ATOM     13  C   UNL     1      59.391  67.007  71.220  0.00  0.00    +0.000 C 
ATOM     14  C   UNL     1      59.172  67.640  71.701  0.00  0.00    +0.000 C 
ATOM     15  C   UNL     1      59.287  67.055  70.403  0.00  0.00    +0.000 C 
ATOM     16  C   UNL     1      59.506  66.421  69.921  0.00  0.00    +0.000 C 
ATOM     17  C   UNL     1      59.829  65.741  70.257  0.00  0.00    +0.000 C 
ATOM     18  C   UNL     1      60.048  65.107  69.775  0.00  0.00    +0.000 C 
ATOM     19  C   UNL     1      59.767  65.632  69.204  0.00  0.00    +0.000 C 
ATOM     20  C   UNL     1      60.169  64.656  69.096  0.00  0.00    +0.000 C 
ATOM     21  O   UNL     1      60.370  64.426  70.112  0.00  0.00    +0.000 OA
ATOM     22  C   UNL     1      60.474  64.378  70.929  0.00  0.00    +0.000 A 
ATOM     23  C   UNL     1      60.796  63.697  71.264  0.00  0.00    +0.000 A 
ENDROOT
TORSDOF 0
ENDMDL
MODEL 6
REMARK VINA RESULT:   -10.749      2.135      4.746
REMARK INTER + INTRA:         -10.749
REMARK INTER:                 -10.749
REMARK INTRA:                   0.000
REMARK UNBOUND:                 0.000
ROOT
REMARK  Name = dronabinol
REMARK                            x       y       z     vdW  Elec       q    Type
REMARK                         _______ _______ _______ _____ _____    ______ ____
ATOM      1  C   UNL     1      58.465  66.739  73.220  0.00  0.00    +0.000 C 
ATOM      2  C   UNL     1      59.150  66.634  72.772  0.00  0.00    +0.000 C 
ATOM      3  C   UNL     1      59.864  66.955  73.029  0.00  0.00    +0.000 C 
ATOM      4  C   UNL     1      60.549  66.850  72.581  0.00  0.00    +0.000 C 
ATOM      5  C   UNL     1      61.264  67.171  72.837  0.00  0.00    +0.000 C 
ATOM      6  C   UNL     1      61.948  67.066  72.390  0.00  0.00    +0.000 A 
ATOM      7  C   UNL     1      62.664  67.387  72.646  0.00  0.00    +0.000 A 
ATOM      8  C   UNL     1      63.348  67.282  72.199  0.00  0.00    +0.000 A 
ATOM      9  O   UNL     1      64.063  67.603  72.455  0.00  0.00    +0.000 OA
ATOM     10  C   UNL     1      63.317  66.854  71.493  0.00  0.00    +0.000 A 
ATOM     11  C   UNL     1      64.002  66.748  71.045  0.00  0.00    +0.000 C 
ATOM     12  C   UNL     1      64.717  67.070  71.302  0.00  0.00    +0.000 C 
ATOM     13  C   UNL     1      65.402  66.964  70.854  0.00  0.00    +0.000 C 
ATOM     14  C   UNL     1      66.116  67.286  71.110  0.00  0.00    +0.000 C 
ATOM     15  C   UNL     1      65.372  66.537  70.149  0.00  0.00    +0.000 C 
ATOM     16  C   UNL     1      64.656  66.215  69.892  0.00  0.00    +0.000 C 
ATOM     17  C   UNL     1      63.972  66.321  70.340  0.00  0.00    +0.000 C 
ATOM     18  C   UNL     1      63.257  65.999  70.083  0.00  0.00    +0.000 C 
ATOM     19  C   UNL     1      63.753  65.752  69.472  0.00  0.00    +0.000 C 
ATOM     20  C   UNL     1      62.714  65.591  69.614  0.00  0.00    +0.000 C 
ATOM     21  O   UNL     1      62.572  66.105  70.531  0.00  0.00    +0.000 OA
ATOM     22  C   UNL     1      62.603  66.532  71.236  0.00  0.00    +0.000 A 
ATOM     23  C   UNL     1      61.918  66.638  71.684  0.00  0.00    +0.000 A 
ENDROOT
TORSDOF 0
ENDMDL
MODEL 7
REMARK VINA RESULT:   -10.162     24.017     27.179
REMARK INTER + INTRA:         -10.162
REMARK INTER:                 -10.162
REMARK INTRA:                   0.000
REMARK UNBOUND:                 0.000
ROOT
REMARK  Name = dronabinol
REMARK                            x       y       z     vdW  Elec       q    Type
REMARK                         _______ _______ _______ _____ _____    ______ ____
ATOM      1  C   UNL     1      68.441  80.757  54.506  0.00  0.00    +0.000 C 
ATOM      2  C   UNL     1      68.765  80.498  53.792  0.00  0.00    +0.000 C 
ATOM      3  C   UNL     1      69.383  80.917  53.443  0.00  0.00    +0.000 C 
ATOM      4  C   UNL     1      69.706  80.658  52.730  0.00  0.00    +0.000 C 
ATOM      5  C   UNL     1      70.326  81.077  52.381  0.00  0.00    +0.000 C 
ATOM      6  C   UNL     1      70.649  80.818  51.668  0.00  0.00    +0.000 A 
ATOM      7  C   UNL     1      71.268  81.237  51.319  0.00  0.00    +0.000 A 
ATOM      8  C   UNL     1      71.591  80.978  50.606  0.00  0.00    +0.000 A 
ATOM      9  O   UNL     1      72.210  81.397  50.256  0.00  0.00    +0.000 OA
ATOM     10  C   UNL     1      71.294  80.300  50.240  0.00  0.00    +0.000 A 
ATOM     11  C   UNL     1      71.618  80.041  49.527  0.00  0.00    +0.000 C 
ATOM     12  C   UNL     1      72.237  80.460  49.178  0.00  0.00    +0.000 C 
ATOM     13  C   UNL     1      72.560  80.201  48.464  0.00  0.00    +0.000 C 
ATOM     14  C   UNL     1      73.179  80.620  48.116  0.00  0.00    +0.000 C 
ATOM     15  C   UNL     1      72.264  79.523  48.099  0.00  0.00    +0.000 C 
ATOM     16  C   UNL     1      71.644  79.103  48.448  0.00  0.00    +0.000 C 
ATOM     17  C   UNL     1      71.322  79.363  49.162  0.00  0.00    +0.000 C 
ATOM     18  C   UNL     1      70.702  78.943  49.511  0.00  0.00    +0.000 C 
ATOM     19  C   UNL     1      70.825  78.484  48.836  0.00  0.00    +0.000 C 
ATOM     20  C   UNL     1      70.125  78.365  49.625  0.00  0.00    +0.000 C 
ATOM     21  O   UNL     1      70.379  79.203  50.224  0.00  0.00    +0.000 OA
ATOM     22  C   UNL     1      70.676  79.881  50.589  0.00  0.00    +0.000 A 
ATOM     23  C   UNL     1      70.352  80.140  51.303  0.00  0.00    +0.000 A 
ENDROOT
TORSDOF 0
ENDMDL
MODEL 8
REMARK VINA RESULT:   -10.091     24.265     25.700
REMARK INTER + INTRA:         -10.091
REMARK INTER:                 -10.091
REMARK INTRA:                   0.000
REMARK UNBOUND:                 0.000
ROOT
REMARK  Name = dronabinol
REMARK                            x       y       z     vdW  Elec       q    Type
REMARK                         _______ _______ _______ _____ _____    ______ ____
ATOM      1  C   UNL     1      72.098  78.880  48.104  0.00  0.00    +0.000 C 
ATOM      2  C   UNL     1      71.887  79.144  48.856  0.00  0.00    +0.000 C 
ATOM      3  C   UNL     1      71.094  79.275  49.041  0.00  0.00    +0.000 C 
ATOM      4  C   UNL     1      70.884  79.539  49.792  0.00  0.00    +0.000 C 
ATOM      5  C   UNL     1      70.090  79.670  49.977  0.00  0.00    +0.000 C 
ATOM      6  C   UNL     1      69.879  79.934  50.729  0.00  0.00    +0.000 A 
ATOM      7  C   UNL     1      69.086  80.065  50.914  0.00  0.00    +0.000 A 
ATOM      8  C   UNL     1      68.875  80.330  51.666  0.00  0.00    +0.000 A 
ATOM      9  O   UNL     1      68.082  80.461  51.851  0.00  0.00    +0.000 OA
ATOM     10  C   UNL     1      69.459  80.463  52.235  0.00  0.00    +0.000 A 
ATOM     11  C   UNL     1      69.247  80.728  52.988  0.00  0.00    +0.000 C 
ATOM     12  C   UNL     1      68.455  80.859  53.172  0.00  0.00    +0.000 C 
ATOM     13  C   UNL     1      68.243  81.123  53.924  0.00  0.00    +0.000 C 
ATOM     14  C   UNL     1      67.450  81.254  54.108  0.00  0.00    +0.000 C 
ATOM     15  C   UNL     1      68.826  81.257  54.493  0.00  0.00    +0.000 C 
ATOM     16  C   UNL     1      69.620  81.126  54.309  0.00  0.00    +0.000 C 
ATOM     17  C   UNL     1      69.830  80.861  53.556  0.00  0.00    +0.000 C 
ATOM     18  C   UNL     1      70.624  80.730  53.372  0.00  0.00    +0.000 C 
ATOM     19  C   UNL     1      70.698  80.980  54.155  0.00  0.00    +0.000 C 
ATOM     20  C   UNL     1      71.443  80.686  53.460  0.00  0.00    +0.000 C 
ATOM     21  O   UNL     1      70.834  80.466  52.619  0.00  0.00    +0.000 OA
ATOM     22  C   UNL     1      70.251  80.333  52.051  0.00  0.00    +0.000 A 
ATOM     23  C   UNL     1      70.463  80.068  51.298  0.00  0.00    +0.000 A 
ENDROOT
TORSDOF 0
ENDMDL
MODEL 9
REMARK VINA RESULT:    -9.759      2.680      3.484
REMARK INTER + INTRA:          -9.759
REMARK INTER:                  -9.759
REMARK INTRA:                   0.000
REMARK UNBOUND:                 0.000
ROOT
REMARK  Name = dronabinol
REMARK                            x       y       z     vdW  Elec       q    Type
REMARK                         _______ _______ _______ _____ _____    ______ ____
ATOM      1  C   UNL     1      60.447  68.383  70.684  0.00  0.00    +0.000 C 
ATOM      2  C   UNL     1      60.475  67.562  70.604  0.00  0.00    +0.000 C 
ATOM      3  C   UNL     1      60.830  67.102  71.188  0.00  0.00    +0.000 C 
ATOM      4  C   UNL     1      60.858  66.282  71.108  0.00  0.00    +0.000 C 
ATOM      5  C   UNL     1      61.214  65.822  71.693  0.00  0.00    +0.000 C 
ATOM      6  C   UNL     1      61.241  65.002  71.613  0.00  0.00    +0.000 A 
ATOM      7  C   UNL     1      61.597  64.541  72.197  0.00  0.00    +0.000 A 
ATOM      8  C   UNL     1      61.624  63.721  72.117  0.00  0.00    +0.000 A 
ATOM      9  O   UNL     1      61.981  63.260  72.702  0.00  0.00    +0.000 OA
ATOM     10  C   UNL     1      61.295  63.360  71.451  0.00  0.00    +0.000 A 
ATOM     11  C   UNL     1      61.323  62.539  71.372  0.00  0.00    +0.000 C 
ATOM     12  C   UNL     1      61.679  62.079  71.956  0.00  0.00    +0.000 C 
ATOM     13  C   UNL     1      61.706  61.258  71.876  0.00  0.00    +0.000 C 
ATOM     14  C   UNL     1      62.062  60.798  72.460  0.00  0.00    +0.000 C 
ATOM     15  C   UNL     1      61.377  60.898  71.211  0.00  0.00    +0.000 C 
ATOM     16  C   UNL     1      61.020  61.358  70.626  0.00  0.00    +0.000 C 
ATOM     17  C   UNL     1      60.994  62.178  70.706  0.00  0.00    +0.000 C 
ATOM     18  C   UNL     1      60.637  62.639  70.121  0.00  0.00    +0.000 C 
ATOM     19  C   UNL     1      60.527  61.887  69.799  0.00  0.00    +0.000 C 
ATOM     20  C   UNL     1      60.243  62.838  69.424  0.00  0.00    +0.000 C 
ATOM     21  O   UNL     1      60.610  63.459  70.202  0.00  0.00    +0.000 OA
ATOM     22  C   UNL     1      60.939  63.820  70.867  0.00  0.00    +0.000 A 
ATOM     23  C   UNL     1      60.912  64.641  70.947  0.00  0.00    +0.000 A 
ENDROOT
TORSDOF 0
ENDMDL
