MODEL 1
REMARK VINA RESULT:   -14.161      0.000      0.000
REMARK INTER + INTRA:         -14.161
REMARK INTER:                 -14.161
REMARK INTRA:                   0.000
REMARK UNBOUND:                 0.000
ROOT
REMARK  Name = droprenilamine
REMARK                            x       y       z     vdW  Elec       q    Type
REMARK                         _______ _______ _______ _____ _____    ______ ____
ATOM      1  C   UNL     1      61.263  62.198  67.489  0.00  0.00    +0.000 C 
ATOM      2  C   UNL     1      61.193  62.975  67.216  0.00  0.00    +0.000 C 
ATOM      3  C   UNL     1      61.386  63.156  66.435  0.00  0.00    +0.000 C 
ATOM      4  C   UNL     1      61.649  62.563  65.926  0.00  0.00    +0.000 C 
ATOM      5  C   UNL     1      61.842  62.745  65.145  0.00  0.00    +0.000 C 
ATOM      6  C   UNL     1      62.104  62.152  64.636  0.00  0.00    +0.000 C 
ATOM      7  C   UNL     1      62.175  61.375  64.908  0.00  0.00    +0.000 C 
ATOM      8  C   UNL     1      61.982  61.194  65.689  0.00  0.00    +0.000 C 
ATOM      9  C   UNL     1      61.719  61.787  66.199  0.00  0.00    +0.000 C 
ATOM     10  N   UNL     1      60.930  63.568  67.725  0.00  0.00    +0.000 NA
ATOM     11  C   UNL     1      60.738  63.386  68.506  0.00  0.00    +0.000 C 
ATOM     12  C   UNL     1      60.475  63.980  69.016  0.00  0.00    +0.000 C 
ATOM     13  C   UNL     1      60.282  63.798  69.797  0.00  0.00    +0.000 C 
ATOM     14  C   UNL     1      60.019  64.391  70.306  0.00  0.00    +0.000 A 
ATOM     15  C   UNL     1      59.827  64.210  71.087  0.00  0.00    +0.000 A 
ATOM     16  C   UNL     1      59.564  64.803  71.596  0.00  0.00    +0.000 A 
ATOM     17  C   UNL     1      59.493  65.578  71.324  0.00  0.00    +0.000 A 
ATOM     18  C   UNL     1      59.686  65.761  70.542  0.00  0.00    +0.000 A 
ATOM     19  C   UNL     1      59.949  65.167  70.034  0.00  0.00    +0.000 A 
ATOM     20  C   UNL     1      60.352  63.022  70.070  0.00  0.00    +0.000 A 
ATOM     21  C   UNL     1      60.615  62.428  69.560  0.00  0.00    +0.000 A 
ATOM     22  C   UNL     1      60.686  61.653  69.832  0.00  0.00    +0.000 A 
ATOM     23  C   UNL     1      60.493  61.470  70.614  0.00  0.00    +0.000 A 
ATOM     24  C   UNL     1      60.230  62.064  71.123  0.00  0.00    +0.000 A 
ATOM     25  C   UNL     1      60.160  62.840  70.850  0.00  0.00    +0.000 A 
ENDROOT
TORSDOF 0
ENDMDL
MODEL 2
REMARK VINA RESULT:   -14.105      1.396      5.244
REMARK INTER + INTRA:         -14.105
REMARK INTER:                 -14.105
REMARK INTRA:                   0.000
REMARK UNBOUND:                 0.000
ROOT
REMARK  Name = droprenilamine
REMARK                            x       y       z     vdW  Elec       q    Type
REMARK                         _______ _______ _______ _____ _____    ______ ____
ATOM      1  C   UNL     1      60.828  63.427  68.903  0.00  0.00    +0.000 C 
ATOM      2  C   UNL     1      61.633  63.532  68.751  0.00  0.00    +0.000 C 
ATOM      3  C   UNL     1      62.119  63.875  69.323  0.00  0.00    +0.000 C 
ATOM      4  C   UNL     1      61.802  64.112  70.046  0.00  0.00    +0.000 C 
ATOM      5  C   UNL     1      62.288  64.455  70.618  0.00  0.00    +0.000 C 
ATOM      6  C   UNL     1      61.971  64.692  71.341  0.00  0.00    +0.000 C 
ATOM      7  C   UNL     1      61.166  64.586  71.493  0.00  0.00    +0.000 C 
ATOM      8  C   UNL     1      60.680  64.244  70.922  0.00  0.00    +0.000 C 
ATOM      9  C   UNL     1      60.997  64.007  70.198  0.00  0.00    +0.000 C 
ATOM     10  N   UNL     1      61.950  63.295  68.028  0.00  0.00    +0.000 NA
ATOM     11  C   UNL     1      61.465  62.953  67.456  0.00  0.00    +0.000 C 
ATOM     12  C   UNL     1      61.782  62.715  66.733  0.00  0.00    +0.000 C 
ATOM     13  C   UNL     1      61.296  62.373  66.160  0.00  0.00    +0.000 C 
ATOM     14  C   UNL     1      61.613  62.136  65.437  0.00  0.00    +0.000 A 
ATOM     15  C   UNL     1      61.127  61.793  64.866  0.00  0.00    +0.000 A 
ATOM     16  C   UNL     1      61.444  61.556  64.142  0.00  0.00    +0.000 A 
ATOM     17  C   UNL     1      62.249  61.661  63.990  0.00  0.00    +0.000 A 
ATOM     18  C   UNL     1      62.735  62.004  64.562  0.00  0.00    +0.000 A 
ATOM     19  C   UNL     1      62.417  62.241  65.286  0.00  0.00    +0.000 A 
ATOM     20  C   UNL     1      60.491  62.267  66.312  0.00  0.00    +0.000 A 
ATOM     21  C   UNL     1      60.174  62.505  67.036  0.00  0.00    +0.000 A 
ATOM     22  C   UNL     1      59.370  62.400  67.188  0.00  0.00    +0.000 A 
ATOM     23  C   UNL     1      58.883  62.057  66.616  0.00  0.00    +0.000 A 
ATOM     24  C   UNL     1      59.201  61.820  65.893  0.00  0.00    +0.000 A 
ATOM     25  C   UNL     1      60.005  61.925  65.741  0.00  0.00    +0.000 A 
ENDROOT
TORSDOF 0
ENDMDL
MODEL 3
REMARK VINA RESULT:   -14.012      3.487      4.933
REMARK INTER + INTRA:         -14.012
REMARK INTER:                 -14.012
REMARK INTRA:                   0.000
REMARK UNBOUND:                 0.000
ROOT
REMARK  Name = droprenilamine
REMARK                            x       y       z     vdW  Elec       q    Type
REMARK                         _______ _______ _______ _____ _____    ______ ____
ATOM      1  C   UNL     1      63.725  65.582  71.133  0.00  0.00    +0.000 C 
ATOM      2  C   UNL     1      63.790  65.428  70.324  0.00  0.00    +0.000 C 
ATOM      3  C   UNL     1      64.332  65.850  69.867  0.00  0.00    +0.000 C 
ATOM      4  C   UNL     1      64.808  66.425  70.216  0.00  0.00    +0.000 C 
ATOM      5  C   UNL     1      65.350  66.848  69.759  0.00  0.00    +0.000 C 
ATOM      6  C   UNL     1      65.825  67.423  70.109  0.00  0.00    +0.000 C 
ATOM      7  C   UNL     1      65.760  67.577  70.917  0.00  0.00    +0.000 C 
ATOM      8  C   UNL     1      65.219  67.155  71.375  0.00  0.00    +0.000 C 
ATOM      9  C   UNL     1      64.743  66.579  71.025  0.00  0.00    +0.000 C 
ATOM     10  N   UNL     1      63.315  64.852  69.975  0.00  0.00    +0.000 NA
ATOM     11  C   UNL     1      62.774  64.431  70.432  0.00  0.00    +0.000 C 
ATOM     12  C   UNL     1      62.297  63.855  70.083  0.00  0.00    +0.000 C 
ATOM     13  C   UNL     1      61.755  63.433  70.540  0.00  0.00    +0.000 C 
ATOM     14  C   UNL     1      61.280  62.857  70.191  0.00  0.00    +0.000 A 
ATOM     15  C   UNL     1      60.739  62.436  70.648  0.00  0.00    +0.000 A 
ATOM     16  C   UNL     1      60.262  61.860  70.299  0.00  0.00    +0.000 A 
ATOM     17  C   UNL     1      60.327  61.706  69.491  0.00  0.00    +0.000 A 
ATOM     18  C   UNL     1      60.869  62.128  69.032  0.00  0.00    +0.000 A 
ATOM     19  C   UNL     1      61.345  62.703  69.383  0.00  0.00    +0.000 A 
ATOM     20  C   UNL     1      61.690  63.587  71.349  0.00  0.00    +0.000 A 
ATOM     21  C   UNL     1      62.167  64.163  71.698  0.00  0.00    +0.000 A 
ATOM     22  C   UNL     1      62.101  64.317  72.506  0.00  0.00    +0.000 A 
ATOM     23  C   UNL     1      61.560  63.895  72.965  0.00  0.00    +0.000 A 
ATOM     24  C   UNL     1      61.084  63.319  72.614  0.00  0.00    +0.000 A 
ATOM     25  C   UNL     1      61.149  63.165  71.806  0.00  0.00    +0.000 A 
ENDROOT
TORSDOF 0
ENDMDL
MODEL 4
REMARK VINA RESULT:   -13.150      1.398      2.012
REMARK INTER + INTRA:         -13.150
REMARK INTER:                 -13.150
REMARK INTRA:                   0.000
REMARK UNBOUND:                 0.000
ROOT
REMARK  Name = droprenilamine
REMARK                            x       y       z     vdW  Elec       q    Type
REMARK                         _______ _______ _______ _____ _____    ______ ____
ATOM      1  C   UNL     1      61.887  62.945  67.237  0.00  0.00    +0.000 C 
ATOM      2  C   UNL     1      61.191  62.525  67.383  0.00  0.00    +0.000 C 
ATOM      3  C   UNL     1      60.844  62.082  66.779  0.00  0.00    +0.000 C 
ATOM      4  C   UNL     1      61.191  62.058  66.032  0.00  0.00    +0.000 C 
ATOM      5  C   UNL     1      60.844  61.614  65.429  0.00  0.00    +0.000 C 
ATOM      6  C   UNL     1      61.191  61.590  64.682  0.00  0.00    +0.000 C 
ATOM      7  C   UNL     1      61.887  62.011  64.536  0.00  0.00    +0.000 C 
ATOM      8  C   UNL     1      62.234  62.454  65.139  0.00  0.00    +0.000 C 
ATOM      9  C   UNL     1      61.887  62.478  65.887  0.00  0.00    +0.000 C 
ATOM     10  N   UNL     1      60.843  62.549  68.130  0.00  0.00    +0.000 NA
ATOM     11  C   UNL     1      61.191  62.992  68.732  0.00  0.00    +0.000 C 
ATOM     12  C   UNL     1      60.843  63.016  69.480  0.00  0.00    +0.000 C 
ATOM     13  C   UNL     1      61.190  63.460  70.083  0.00  0.00    +0.000 C 
ATOM     14  C   UNL     1      60.843  63.484  70.831  0.00  0.00    +0.000 A 
ATOM     15  C   UNL     1      61.190  63.927  71.433  0.00  0.00    +0.000 A 
ATOM     16  C   UNL     1      60.843  63.951  72.181  0.00  0.00    +0.000 A 
ATOM     17  C   UNL     1      60.148  63.531  72.326  0.00  0.00    +0.000 A 
ATOM     18  C   UNL     1      59.800  63.087  71.723  0.00  0.00    +0.000 A 
ATOM     19  C   UNL     1      60.148  63.064  70.976  0.00  0.00    +0.000 A 
ATOM     20  C   UNL     1      61.886  63.880  69.938  0.00  0.00    +0.000 A 
ATOM     21  C   UNL     1      62.234  63.856  69.190  0.00  0.00    +0.000 A 
ATOM     22  C   UNL     1      62.929  64.276  69.045  0.00  0.00    +0.000 A 
ATOM     23  C   UNL     1      63.277  64.720  69.648  0.00  0.00    +0.000 A 
ATOM     24  C   UNL     1      62.929  64.743  70.395  0.00  0.00    +0.000 A 
ATOM     25  C   UNL     1      62.233  64.323  70.540  0.00  0.00    +0.000 A 
ENDROOT
TORSDOF 0
ENDMDL
MODEL 5
REMARK VINA RESULT:   -13.003      3.518      4.300
REMARK INTER + INTRA:         -13.003
REMARK INTER:                 -13.003
REMARK INTRA:                   0.000
REMARK UNBOUND:                 0.000
ROOT
REMARK  Name = droprenilamine
REMARK                            x       y       z     vdW  Elec       q    Type
REMARK                         _______ _______ _______ _____ _____    ______ ____
ATOM      1  C   UNL     1      61.746  63.927  69.779  0.00  0.00    +0.000 C 
ATOM      2  C   UNL     1      62.229  64.012  69.114  0.00  0.00    +0.000 C 
ATOM      3  C   UNL     1      62.069  63.580  68.430  0.00  0.00    +0.000 C 
ATOM      4  C   UNL     1      61.427  63.063  68.409  0.00  0.00    +0.000 C 
ATOM      5  C   UNL     1      61.267  62.631  67.725  0.00  0.00    +0.000 C 
ATOM      6  C   UNL     1      60.625  62.114  67.704  0.00  0.00    +0.000 C 
ATOM      7  C   UNL     1      60.141  62.029  68.368  0.00  0.00    +0.000 C 
ATOM      8  C   UNL     1      60.301  62.461  69.052  0.00  0.00    +0.000 C 
ATOM      9  C   UNL     1      60.944  62.978  69.073  0.00  0.00    +0.000 C 
ATOM     10  N   UNL     1      62.871  64.529  69.135  0.00  0.00    +0.000 NA
ATOM     11  C   UNL     1      63.031  64.961  69.819  0.00  0.00    +0.000 C 
ATOM     12  C   UNL     1      63.674  65.478  69.841  0.00  0.00    +0.000 C 
ATOM     13  C   UNL     1      63.834  65.910  70.525  0.00  0.00    +0.000 C 
ATOM     14  C   UNL     1      64.476  66.427  70.546  0.00  0.00    +0.000 A 
ATOM     15  C   UNL     1      64.636  66.859  71.230  0.00  0.00    +0.000 A 
ATOM     16  C   UNL     1      65.278  67.376  71.251  0.00  0.00    +0.000 A 
ATOM     17  C   UNL     1      65.761  67.461  70.588  0.00  0.00    +0.000 A 
ATOM     18  C   UNL     1      65.601  67.029  69.902  0.00  0.00    +0.000 A 
ATOM     19  C   UNL     1      64.959  66.512  69.882  0.00  0.00    +0.000 A 
ATOM     20  C   UNL     1      63.351  65.825  71.189  0.00  0.00    +0.000 A 
ATOM     21  C   UNL     1      62.708  65.308  71.168  0.00  0.00    +0.000 A 
ATOM     22  C   UNL     1      62.226  65.223  71.831  0.00  0.00    +0.000 A 
ATOM     23  C   UNL     1      62.385  65.655  72.516  0.00  0.00    +0.000 A 
ATOM     24  C   UNL     1      63.028  66.172  72.537  0.00  0.00    +0.000 A 
ATOM     25  C   UNL     1      63.511  66.257  71.873  0.00  0.00    +0.000 A 
ENDROOT
TORSDOF 0
ENDMDL
MODEL 6
REMARK VINA RESULT:   -12.813      4.053      5.377
REMARK INTER + INTRA:         -12.813
REMARK INTER:                 -12.813
REMARK INTRA:                   0.000
REMARK UNBOUND:                 0.000
ROOT
REMARK  Name = droprenilamine
REMARK                            x       y       z     vdW  Elec       q    Type
REMARK                         _______ _______ _______ _____ _____    ______ ____
ATOM      1  C   UNL     1      64.168  66.284  70.254  0.00  0.00    +0.000 C 
ATOM      2  C   UNL     1      64.407  65.931  70.962  0.00  0.00    +0.000 C 
ATOM      3  C   UNL     1      65.133  66.134  71.298  0.00  0.00    +0.000 C 
ATOM      4  C   UNL     1      65.619  66.689  70.929  0.00  0.00    +0.000 C 
ATOM      5  C   UNL     1      66.344  66.892  71.266  0.00  0.00    +0.000 C 
ATOM      6  C   UNL     1      66.830  67.446  70.897  0.00  0.00    +0.000 C 
ATOM      7  C   UNL     1      66.591  67.799  70.189  0.00  0.00    +0.000 C 
ATOM      8  C   UNL     1      65.866  67.596  69.852  0.00  0.00    +0.000 C 
ATOM      9  C   UNL     1      65.379  67.041  70.222  0.00  0.00    +0.000 C 
ATOM     10  N   UNL     1      63.922  65.377  71.331  0.00  0.00    +0.000 NA
ATOM     11  C   UNL     1      63.197  65.174  70.994  0.00  0.00    +0.000 C 
ATOM     12  C   UNL     1      62.710  64.619  71.363  0.00  0.00    +0.000 C 
ATOM     13  C   UNL     1      61.985  64.416  71.027  0.00  0.00    +0.000 C 
ATOM     14  C   UNL     1      61.499  63.862  71.396  0.00  0.00    +0.000 A 
ATOM     15  C   UNL     1      60.774  63.659  71.059  0.00  0.00    +0.000 A 
ATOM     16  C   UNL     1      60.288  63.105  71.428  0.00  0.00    +0.000 A 
ATOM     17  C   UNL     1      60.527  62.753  72.135  0.00  0.00    +0.000 A 
ATOM     18  C   UNL     1      61.252  62.955  72.472  0.00  0.00    +0.000 A 
ATOM     19  C   UNL     1      61.738  63.510  72.102  0.00  0.00    +0.000 A 
ATOM     20  C   UNL     1      61.745  64.769  70.319  0.00  0.00    +0.000 A 
ATOM     21  C   UNL     1      62.232  65.324  69.950  0.00  0.00    +0.000 A 
ATOM     22  C   UNL     1      61.993  65.676  69.243  0.00  0.00    +0.000 A 
ATOM     23  C   UNL     1      61.267  65.473  68.905  0.00  0.00    +0.000 A 
ATOM     24  C   UNL     1      60.782  64.918  69.275  0.00  0.00    +0.000 A 
ATOM     25  C   UNL     1      61.021  64.566  69.982  0.00  0.00    +0.000 A 
ENDROOT
TORSDOF 0
ENDMDL
MODEL 7
REMARK VINA RESULT:   -12.583      2.450      4.743
REMARK INTER + INTRA:         -12.583
REMARK INTER:                 -12.583
REMARK INTRA:                   0.000
REMARK UNBOUND:                 0.000
ROOT
REMARK  Name = droprenilamine
REMARK                            x       y       z     vdW  Elec       q    Type
REMARK                         _______ _______ _______ _____ _____    ______ ____
ATOM      1  C   UNL     1      62.497  64.695  70.787  0.00  0.00    +0.000 C 
ATOM      2  C   UNL     1      62.659  65.068  70.068  0.00  0.00    +0.000 C 
ATOM      3  C   UNL     1      63.125  65.750  70.054  0.00  0.00    +0.000 C 
ATOM      4  C   UNL     1      63.427  66.058  70.756  0.00  0.00    +0.000 C 
ATOM      5  C   UNL     1      63.893  66.739  70.742  0.00  0.00    +0.000 C 
ATOM      6  C   UNL     1      64.195  67.047  71.444  0.00  0.00    +0.000 C 
ATOM      7  C   UNL     1      64.033  66.674  72.163  0.00  0.00    +0.000 C 
ATOM      8  C   UNL     1      63.568  65.993  72.177  0.00  0.00    +0.000 C 
ATOM      9  C   UNL     1      63.265  65.684  71.475  0.00  0.00    +0.000 C 
ATOM     10  N   UNL     1      62.357  64.760  69.366  0.00  0.00    +0.000 NA
ATOM     11  C   UNL     1      61.892  64.080  69.381  0.00  0.00    +0.000 C 
ATOM     12  C   UNL     1      61.589  63.771  68.678  0.00  0.00    +0.000 C 
ATOM     13  C   UNL     1      61.123  63.090  68.692  0.00  0.00    +0.000 C 
ATOM     14  C   UNL     1      60.820  62.782  67.990  0.00  0.00    +0.000 A 
ATOM     15  C   UNL     1      60.356  62.101  68.005  0.00  0.00    +0.000 A 
ATOM     16  C   UNL     1      60.052  61.793  67.302  0.00  0.00    +0.000 A 
ATOM     17  C   UNL     1      60.215  62.166  66.584  0.00  0.00    +0.000 A 
ATOM     18  C   UNL     1      60.680  62.847  66.569  0.00  0.00    +0.000 A 
ATOM     19  C   UNL     1      60.983  63.155  67.272  0.00  0.00    +0.000 A 
ATOM     20  C   UNL     1      60.961  62.716  69.411  0.00  0.00    +0.000 A 
ATOM     21  C   UNL     1      61.264  63.025  70.113  0.00  0.00    +0.000 A 
ATOM     22  C   UNL     1      61.101  62.652  70.831  0.00  0.00    +0.000 A 
ATOM     23  C   UNL     1      60.636  61.970  70.846  0.00  0.00    +0.000 A 
ATOM     24  C   UNL     1      60.333  61.663  70.143  0.00  0.00    +0.000 A 
ATOM     25  C   UNL     1      60.496  62.036  69.425  0.00  0.00    +0.000 A 
ENDROOT
TORSDOF 0
ENDMDL
MODEL 8
REMARK VINA RESULT:   -12.335      4.392      5.441
REMARK INTER + INTRA:         -12.335
REMARK INTER:                 -12.335
REMARK INTRA:                   0.000
REMARK UNBOUND:                 0.000
ROOT
REMARK  Name = droprenilamine
REMARK                            x       y       z     vdW  Elec       q    Type
REMARK                         _______ _______ _______ _____ _____    ______ ____
ATOM      1  C   UNL     1      63.372  65.817  71.848  0.00  0.00    +0.000 C 
ATOM      2  C   UNL     1      63.134  66.592  72.004  0.00  0.00    +0.000 C 
ATOM      3  C   UNL     1      63.676  67.211  71.940  0.00  0.00    +0.000 C 
ATOM      4  C   UNL     1      64.456  67.055  71.722  0.00  0.00    +0.000 C 
ATOM      5  C   UNL     1      64.999  67.673  71.658  0.00  0.00    +0.000 C 
ATOM      6  C   UNL     1      65.778  67.517  71.440  0.00  0.00    +0.000 C 
ATOM      7  C   UNL     1      66.016  66.742  71.285  0.00  0.00    +0.000 C 
ATOM      8  C   UNL     1      65.474  66.124  71.348  0.00  0.00    +0.000 C 
ATOM      9  C   UNL     1      64.694  66.279  71.566  0.00  0.00    +0.000 C 
ATOM     10  N   UNL     1      62.354  66.748  72.222  0.00  0.00    +0.000 NA
ATOM     11  C   UNL     1      61.812  66.130  72.285  0.00  0.00    +0.000 C 
ATOM     12  C   UNL     1      61.032  66.286  72.504  0.00  0.00    +0.000 C 
ATOM     13  C   UNL     1      60.489  65.668  72.567  0.00  0.00    +0.000 C 
ATOM     14  C   UNL     1      59.709  65.823  72.785  0.00  0.00    +0.000 A 
ATOM     15  C   UNL     1      59.167  65.205  72.849  0.00  0.00    +0.000 A 
ATOM     16  C   UNL     1      58.387  65.361  73.067  0.00  0.00    +0.000 A 
ATOM     17  C   UNL     1      58.149  66.135  73.222  0.00  0.00    +0.000 A 
ATOM     18  C   UNL     1      58.692  66.755  73.159  0.00  0.00    +0.000 A 
ATOM     19  C   UNL     1      59.471  66.598  72.941  0.00  0.00    +0.000 A 
ATOM     20  C   UNL     1      60.727  64.892  72.412  0.00  0.00    +0.000 A 
ATOM     21  C   UNL     1      61.507  64.737  72.193  0.00  0.00    +0.000 A 
ATOM     22  C   UNL     1      61.745  63.962  72.038  0.00  0.00    +0.000 A 
ATOM     23  C   UNL     1      61.202  63.343  72.101  0.00  0.00    +0.000 A 
ATOM     24  C   UNL     1      60.423  63.500  72.320  0.00  0.00    +0.000 A 
ATOM     25  C   UNL     1      60.185  64.274  72.475  0.00  0.00    +0.000 A 
ENDROOT
TORSDOF 0
ENDMDL
MODEL 9
REMARK VINA RESULT:   -11.926      3.951      6.272
REMARK INTER + INTRA:         -11.926
REMARK INTER:                 -11.926
REMARK INTRA:                   0.000
REMARK UNBOUND:                 0.000
ROOT
REMARK  Name = droprenilamine
REMARK                            x       y       z     vdW  Elec       q    Type
REMARK                         _______ _______ _______ _____ _____    ______ ____
ATOM      1  C   UNL     1      61.237  65.259  71.636  0.00  0.00    +0.000 C 
ATOM      2  C   UNL     1      61.358  65.866  72.183  0.00  0.00    +0.000 C 
ATOM      3  C   UNL     1      60.758  66.069  72.712  0.00  0.00    +0.000 C 
ATOM      4  C   UNL     1      60.038  65.668  72.694  0.00  0.00    +0.000 C 
ATOM      5  C   UNL     1      59.438  65.872  73.222  0.00  0.00    +0.000 C 
ATOM      6  C   UNL     1      58.718  65.471  73.204  0.00  0.00    +0.000 C 
ATOM      7  C   UNL     1      58.597  64.865  72.657  0.00  0.00    +0.000 C 
ATOM      8  C   UNL     1      59.196  64.661  72.128  0.00  0.00    +0.000 C 
ATOM      9  C   UNL     1      59.917  65.062  72.146  0.00  0.00    +0.000 C 
ATOM     10  N   UNL     1      62.078  66.267  72.201  0.00  0.00    +0.000 NA
ATOM     11  C   UNL     1      62.677  66.063  71.673  0.00  0.00    +0.000 C 
ATOM     12  C   UNL     1      63.398  66.464  71.691  0.00  0.00    +0.000 C 
ATOM     13  C   UNL     1      63.998  66.261  71.162  0.00  0.00    +0.000 C 
ATOM     14  C   UNL     1      64.718  66.662  71.180  0.00  0.00    +0.000 A 
ATOM     15  C   UNL     1      65.317  66.458  70.652  0.00  0.00    +0.000 A 
ATOM     16  C   UNL     1      66.038  66.859  70.669  0.00  0.00    +0.000 A 
ATOM     17  C   UNL     1      66.159  67.465  71.216  0.00  0.00    +0.000 A 
ATOM     18  C   UNL     1      65.559  67.669  71.746  0.00  0.00    +0.000 A 
ATOM     19  C   UNL     1      64.839  67.267  71.727  0.00  0.00    +0.000 A 
ATOM     20  C   UNL     1      63.877  65.654  70.614  0.00  0.00    +0.000 A 
ATOM     21  C   UNL     1      63.156  65.253  70.597  0.00  0.00    +0.000 A 
ATOM     22  C   UNL     1      63.035  64.647  70.050  0.00  0.00    +0.000 A 
ATOM     23  C   UNL     1      63.635  64.443  69.520  0.00  0.00    +0.000 A 
ATOM     24  C   UNL     1      64.355  64.845  69.539  0.00  0.00    +0.000 A 
ATOM     25  C   UNL     1      64.476  65.450  70.086  0.00  0.00    +0.000 A 
ENDROOT
TORSDOF 0
ENDMDL
