MODEL 1
REMARK VINA RESULT:   -15.008      0.000      0.000
REMARK INTER + INTRA:         -15.008
REMARK INTER:                 -15.008
REMARK INTRA:                   0.000
REMARK UNBOUND:                 0.000
ROOT
REMARK  Name = drospirenone
REMARK                            x       y       z     vdW  Elec       q    Type
REMARK                         _______ _______ _______ _____ _____    ______ ____
ATOM      1  C   UNL     1      62.290  62.317  65.045  0.00  0.00    +0.000 C 
ATOM      2  C   UNL     1      61.522  62.069  65.211  0.00  0.00    +0.000 C 
ATOM      3  C   UNL     1      62.049  62.546  65.628  0.00  0.00    +0.000 C 
ATOM      4  C   UNL     1      61.827  62.869  66.355  0.00  0.00    +0.000 C 
ATOM      5  C   UNL     1      61.079  62.713  66.664  0.00  0.00    +0.000 C 
ATOM      6  C   UNL     1      60.551  62.235  66.247  0.00  0.00    +0.000 C 
ATOM      7  C   UNL     1      59.803  62.079  66.556  0.00  0.00    +0.000 C 
ATOM      8  C   UNL     1      59.053  61.923  66.865  0.00  0.00    +0.000 C 
ATOM      9  C   UNL     1      59.581  62.401  67.282  0.00  0.00    +0.000 C 
ATOM     10  C   UNL     1      60.108  62.878  67.700  0.00  0.00    +0.000 C 
ATOM     11  C   UNL     1      59.887  63.200  68.427  0.00  0.00    +0.000 C 
ATOM     12  C   UNL     1      60.415  63.678  68.844  0.00  0.00    +0.000 C 
ATOM     13  O   UNL     1      60.193  64.000  69.571  0.00  0.00    +0.000 OA
ATOM     14  C   UNL     1      61.163  63.834  68.535  0.00  0.00    +0.000 C 
ATOM     15  C   UNL     1      61.384  63.512  67.808  0.00  0.00    +0.000 C 
ATOM     16  C   UNL     1      60.857  63.035  67.391  0.00  0.00    +0.000 C 
ATOM     17  C   UNL     1      61.606  63.190  67.081  0.00  0.00    +0.000 C 
ATOM     18  C   UNL     1      60.772  61.913  65.520  0.00  0.00    +0.000 C 
ATOM     19  C   UNL     1      60.373  61.426  64.987  0.00  0.00    +0.000 C 
ATOM     20  C   UNL     1      60.119  60.950  64.363  0.00  0.00    +0.000 C 
ATOM     21  C   UNL     1      60.875  61.280  64.349  0.00  0.00    +0.000 C 
ATOM     22  C   UNL     1      61.584  61.678  64.487  0.00  0.00    +0.000 C 
ATOM     23  C   UNL     1      62.294  62.076  64.625  0.00  0.00    +0.000 C 
ATOM     24  C   UNL     1      62.796  61.930  63.986  0.00  0.00    +0.000 C 
ATOM     25  C   UNL     1      62.397  61.443  63.454  0.00  0.00    +0.000 C 
ATOM     26  O   UNL     1      62.694  61.161  62.737  0.00  0.00    +0.000 OA
ATOM     27  O   UNL     1      61.648  61.287  63.763  0.00  0.00    +0.000 OA
ENDROOT
TORSDOF 0
ENDMDL
MODEL 2
REMARK VINA RESULT:   -14.222      0.490      4.029
REMARK INTER + INTRA:         -14.222
REMARK INTER:                 -14.222
REMARK INTRA:                   0.000
REMARK UNBOUND:                 0.000
ROOT
REMARK  Name = drospirenone
REMARK                            x       y       z     vdW  Elec       q    Type
REMARK                         _______ _______ _______ _____ _____    ______ ____
ATOM      1  C   UNL     1      61.501  63.180  67.470  0.00  0.00    +0.000 C 
ATOM      2  C   UNL     1      60.926  62.716  67.104  0.00  0.00    +0.000 C 
ATOM      3  C   UNL     1      61.679  62.951  66.866  0.00  0.00    +0.000 C 
ATOM      4  C   UNL     1      61.974  62.710  66.133  0.00  0.00    +0.000 C 
ATOM      5  C   UNL     1      61.514  62.236  65.640  0.00  0.00    +0.000 C 
ATOM      6  C   UNL     1      60.759  62.001  65.877  0.00  0.00    +0.000 C 
ATOM      7  C   UNL     1      60.300  61.527  65.384  0.00  0.00    +0.000 C 
ATOM      8  C   UNL     1      59.839  61.052  64.890  0.00  0.00    +0.000 C 
ATOM      9  C   UNL     1      60.594  61.287  64.652  0.00  0.00    +0.000 C 
ATOM     10  C   UNL     1      61.348  61.521  64.413  0.00  0.00    +0.000 C 
ATOM     11  C   UNL     1      61.642  61.281  63.680  0.00  0.00    +0.000 C 
ATOM     12  C   UNL     1      62.396  61.515  63.442  0.00  0.00    +0.000 C 
ATOM     13  O   UNL     1      62.691  61.275  62.709  0.00  0.00    +0.000 OA
ATOM     14  C   UNL     1      62.856  61.989  63.936  0.00  0.00    +0.000 C 
ATOM     15  C   UNL     1      62.562  62.230  64.669  0.00  0.00    +0.000 C 
ATOM     16  C   UNL     1      61.808  61.996  64.907  0.00  0.00    +0.000 C 
ATOM     17  C   UNL     1      62.268  62.470  65.401  0.00  0.00    +0.000 C 
ATOM     18  C   UNL     1      60.465  62.242  66.610  0.00  0.00    +0.000 C 
ATOM     19  C   UNL     1      59.748  62.098  66.990  0.00  0.00    +0.000 C 
ATOM     20  C   UNL     1      59.097  62.052  67.496  0.00  0.00    +0.000 C 
ATOM     21  C   UNL     1      59.764  62.484  67.720  0.00  0.00    +0.000 C 
ATOM     22  C   UNL     1      60.491  62.866  67.789  0.00  0.00    +0.000 C 
ATOM     23  C   UNL     1      61.220  63.248  67.859  0.00  0.00    +0.000 C 
ATOM     24  C   UNL     1      61.236  63.634  68.589  0.00  0.00    +0.000 C 
ATOM     25  C   UNL     1      60.518  63.491  68.969  0.00  0.00    +0.000 C 
ATOM     26  O   UNL     1      60.298  63.772  69.713  0.00  0.00    +0.000 OA
ATOM     27  O   UNL     1      60.059  63.016  68.476  0.00  0.00    +0.000 OA
ENDROOT
TORSDOF 0
ENDMDL
MODEL 3
REMARK VINA RESULT:   -13.828      4.843      7.037
REMARK INTER + INTRA:         -13.828
REMARK INTER:                 -13.828
REMARK INTRA:                   0.000
REMARK UNBOUND:                 0.000
ROOT
REMARK  Name = drospirenone
REMARK                            x       y       z     vdW  Elec       q    Type
REMARK                         _______ _______ _______ _____ _____    ______ ____
ATOM      1  C   UNL     1      60.397  65.130  72.825  0.00  0.00    +0.000 C 
ATOM      2  C   UNL     1      60.299  64.796  72.077  0.00  0.00    +0.000 C 
ATOM      3  C   UNL     1      60.660  64.516  72.763  0.00  0.00    +0.000 C 
ATOM      4  C   UNL     1      61.008  63.767  72.769  0.00  0.00    +0.000 C 
ATOM      5  C   UNL     1      60.994  63.301  72.090  0.00  0.00    +0.000 C 
ATOM      6  C   UNL     1      60.632  63.581  71.403  0.00  0.00    +0.000 C 
ATOM      7  C   UNL     1      60.618  63.114  70.724  0.00  0.00    +0.000 C 
ATOM      8  C   UNL     1      60.604  62.646  70.044  0.00  0.00    +0.000 C 
ATOM      9  C   UNL     1      60.966  62.366  70.731  0.00  0.00    +0.000 C 
ATOM     10  C   UNL     1      61.328  62.085  71.416  0.00  0.00    +0.000 C 
ATOM     11  C   UNL     1      61.676  61.337  71.423  0.00  0.00    +0.000 C 
ATOM     12  C   UNL     1      62.038  61.057  72.109  0.00  0.00    +0.000 C 
ATOM     13  O   UNL     1      62.386  60.308  72.116  0.00  0.00    +0.000 OA
ATOM     14  C   UNL     1      62.052  61.523  72.789  0.00  0.00    +0.000 C 
ATOM     15  C   UNL     1      61.704  62.272  72.782  0.00  0.00    +0.000 C 
ATOM     16  C   UNL     1      61.342  62.552  72.096  0.00  0.00    +0.000 C 
ATOM     17  C   UNL     1      61.356  63.020  72.776  0.00  0.00    +0.000 C 
ATOM     18  C   UNL     1      60.284  64.329  71.397  0.00  0.00    +0.000 C 
ATOM     19  C   UNL     1      59.890  64.749  70.807  0.00  0.00    +0.000 C 
ATOM     20  C   UNL     1      59.481  65.291  70.338  0.00  0.00    +0.000 C 
ATOM     21  C   UNL     1      59.661  65.477  71.121  0.00  0.00    +0.000 C 
ATOM     22  C   UNL     1      59.913  65.505  71.906  0.00  0.00    +0.000 C 
ATOM     23  C   UNL     1      60.165  65.534  72.692  0.00  0.00    +0.000 C 
ATOM     24  C   UNL     1      59.935  66.262  73.006  0.00  0.00    +0.000 C 
ATOM     25  C   UNL     1      59.542  66.682  72.416  0.00  0.00    +0.000 C 
ATOM     26  O   UNL     1      59.218  67.438  72.492  0.00  0.00    +0.000 OA
ATOM     27  O   UNL     1      59.528  66.215  71.737  0.00  0.00    +0.000 OA
ENDROOT
TORSDOF 0
ENDMDL
MODEL 4
REMARK VINA RESULT:   -13.794      4.834      6.366
REMARK INTER + INTRA:         -13.794
REMARK INTER:                 -13.794
REMARK INTRA:                   0.000
REMARK UNBOUND:                 0.000
ROOT
REMARK  Name = drospirenone
REMARK                            x       y       z     vdW  Elec       q    Type
REMARK                         _______ _______ _______ _____ _____    ______ ____
ATOM      1  C   UNL     1      61.516  62.547  72.685  0.00  0.00    +0.000 C 
ATOM      2  C   UNL     1      61.169  62.765  71.970  0.00  0.00    +0.000 C 
ATOM      3  C   UNL     1      61.236  63.156  72.692  0.00  0.00    +0.000 C 
ATOM      4  C   UNL     1      60.917  63.913  72.783  0.00  0.00    +0.000 C 
ATOM      5  C   UNL     1      60.532  64.276  72.152  0.00  0.00    +0.000 C 
ATOM      6  C   UNL     1      60.464  63.885  71.428  0.00  0.00    +0.000 C 
ATOM      7  C   UNL     1      60.079  64.248  70.797  0.00  0.00    +0.000 C 
ATOM      8  C   UNL     1      59.693  64.612  70.164  0.00  0.00    +0.000 C 
ATOM      9  C   UNL     1      59.760  65.003  70.887  0.00  0.00    +0.000 C 
ATOM     10  C   UNL     1      59.827  65.395  71.610  0.00  0.00    +0.000 C 
ATOM     11  C   UNL     1      59.508  66.151  71.701  0.00  0.00    +0.000 C 
ATOM     12  C   UNL     1      59.576  66.543  72.424  0.00  0.00    +0.000 C 
ATOM     13  O   UNL     1      59.257  67.299  72.515  0.00  0.00    +0.000 OA
ATOM     14  C   UNL     1      59.961  66.179  73.056  0.00  0.00    +0.000 C 
ATOM     15  C   UNL     1      60.280  65.423  72.965  0.00  0.00    +0.000 C 
ATOM     16  C   UNL     1      60.213  65.032  72.242  0.00  0.00    +0.000 C 
ATOM     17  C   UNL     1      60.599  64.668  72.874  0.00  0.00    +0.000 C 
ATOM     18  C   UNL     1      60.783  63.129  71.337  0.00  0.00    +0.000 C 
ATOM     19  C   UNL     1      60.802  62.611  70.696  0.00  0.00    +0.000 C 
ATOM     20  C   UNL     1      60.906  61.990  70.162  0.00  0.00    +0.000 C 
ATOM     21  C   UNL     1      61.199  61.927  70.930  0.00  0.00    +0.000 C 
ATOM     22  C   UNL     1      61.426  62.023  71.718  0.00  0.00    +0.000 C 
ATOM     23  C   UNL     1      61.653  62.118  72.506  0.00  0.00    +0.000 C 
ATOM     24  C   UNL     1      62.050  61.434  72.741  0.00  0.00    +0.000 C 
ATOM     25  C   UNL     1      62.069  60.917  72.099  0.00  0.00    +0.000 C 
ATOM     26  O   UNL     1      62.413  60.166  72.090  0.00  0.00    +0.000 OA
ATOM     27  O   UNL     1      61.683  61.280  71.467  0.00  0.00    +0.000 OA
ENDROOT
TORSDOF 0
ENDMDL
MODEL 5
REMARK VINA RESULT:   -13.721      5.419      7.438
REMARK INTER + INTRA:         -13.721
REMARK INTER:                 -13.721
REMARK INTRA:                   0.000
REMARK UNBOUND:                 0.000
ROOT
REMARK  Name = drospirenone
REMARK                            x       y       z     vdW  Elec       q    Type
REMARK                         _______ _______ _______ _____ _____    ______ ____
ATOM      1  C   UNL     1      62.519  65.633  72.311  0.00  0.00    +0.000 C 
ATOM      2  C   UNL     1      62.797  65.293  71.613  0.00  0.00    +0.000 C 
ATOM      3  C   UNL     1      63.043  65.953  72.042  0.00  0.00    +0.000 C 
ATOM      4  C   UNL     1      63.684  66.401  71.777  0.00  0.00    +0.000 C 
ATOM      5  C   UNL     1      64.076  66.190  71.084  0.00  0.00    +0.000 C 
ATOM      6  C   UNL     1      63.829  65.530  70.654  0.00  0.00    +0.000 C 
ATOM      7  C   UNL     1      64.222  65.318  69.960  0.00  0.00    +0.000 C 
ATOM      8  C   UNL     1      64.615  65.107  69.266  0.00  0.00    +0.000 C 
ATOM      9  C   UNL     1      64.861  65.766  69.696  0.00  0.00    +0.000 C 
ATOM     10  C   UNL     1      65.109  66.426  70.124  0.00  0.00    +0.000 C 
ATOM     11  C   UNL     1      65.749  66.875  69.859  0.00  0.00    +0.000 C 
ATOM     12  C   UNL     1      65.996  67.534  70.289  0.00  0.00    +0.000 C 
ATOM     13  O   UNL     1      66.637  67.983  70.024  0.00  0.00    +0.000 OA
ATOM     14  C   UNL     1      65.604  67.746  70.982  0.00  0.00    +0.000 C 
ATOM     15  C   UNL     1      64.963  67.297  71.248  0.00  0.00    +0.000 C 
ATOM     16  C   UNL     1      64.717  66.638  70.819  0.00  0.00    +0.000 C 
ATOM     17  C   UNL     1      64.323  66.849  71.512  0.00  0.00    +0.000 C 
ATOM     18  C   UNL     1      63.189  65.081  70.919  0.00  0.00    +0.000 C 
ATOM     19  C   UNL     1      62.823  64.408  70.614  0.00  0.00    +0.000 C 
ATOM     20  C   UNL     1      62.355  63.749  70.447  0.00  0.00    +0.000 C 
ATOM     21  C   UNL     1      62.204  64.203  71.120  0.00  0.00    +0.000 C 
ATOM     22  C   UNL     1      62.188  64.750  71.737  0.00  0.00    +0.000 C 
ATOM     23  C   UNL     1      62.171  65.297  72.354  0.00  0.00    +0.000 C 
ATOM     24  C   UNL     1      61.552  65.092  72.860  0.00  0.00    +0.000 C 
ATOM     25  C   UNL     1      61.187  64.419  72.555  0.00  0.00    +0.000 C 
ATOM     26  O   UNL     1      60.541  64.025  72.886  0.00  0.00    +0.000 OA
ATOM     27  O   UNL     1      61.579  64.207  71.862  0.00  0.00    +0.000 OA
ENDROOT
TORSDOF 0
ENDMDL
MODEL 6
REMARK VINA RESULT:   -13.500      5.686      7.165
REMARK INTER + INTRA:         -13.500
REMARK INTER:                 -13.500
REMARK INTRA:                   0.000
REMARK UNBOUND:                 0.000
ROOT
REMARK  Name = drospirenone
REMARK                            x       y       z     vdW  Elec       q    Type
REMARK                         _______ _______ _______ _____ _____    ______ ____
ATOM      1  C   UNL     1      64.617  65.834  70.258  0.00  0.00    +0.000 C 
ATOM      2  C   UNL     1      64.198  66.083  70.923  0.00  0.00    +0.000 C 
ATOM      3  C   UNL     1      64.128  65.415  70.445  0.00  0.00    +0.000 C 
ATOM      4  C   UNL     1      63.550  64.849  70.610  0.00  0.00    +0.000 C 
ATOM      5  C   UNL     1      63.043  64.952  71.251  0.00  0.00    +0.000 C 
ATOM      6  C   UNL     1      63.112  65.621  71.729  0.00  0.00    +0.000 C 
ATOM      7  C   UNL     1      62.605  65.724  72.371  0.00  0.00    +0.000 C 
ATOM      8  C   UNL     1      62.096  65.827  73.013  0.00  0.00    +0.000 C 
ATOM      9  C   UNL     1      62.027  65.159  72.535  0.00  0.00    +0.000 C 
ATOM     10  C   UNL     1      61.957  64.490  72.057  0.00  0.00    +0.000 C 
ATOM     11  C   UNL     1      61.379  63.924  72.221  0.00  0.00    +0.000 C 
ATOM     12  C   UNL     1      61.309  63.255  71.743  0.00  0.00    +0.000 C 
ATOM     13  O   UNL     1      60.731  62.689  71.907  0.00  0.00    +0.000 OA
ATOM     14  C   UNL     1      61.817  63.152  71.101  0.00  0.00    +0.000 C 
ATOM     15  C   UNL     1      62.395  63.718  70.937  0.00  0.00    +0.000 C 
ATOM     16  C   UNL     1      62.464  64.386  71.415  0.00  0.00    +0.000 C 
ATOM     17  C   UNL     1      62.973  64.283  70.773  0.00  0.00    +0.000 C 
ATOM     18  C   UNL     1      63.690  66.187  71.565  0.00  0.00    +0.000 C 
ATOM     19  C   UNL     1      63.889  66.896  71.936  0.00  0.00    +0.000 C 
ATOM     20  C   UNL     1      64.207  67.616  72.183  0.00  0.00    +0.000 C 
ATOM     21  C   UNL     1      64.519  67.232  71.523  0.00  0.00    +0.000 C 
ATOM     22  C   UNL     1      64.710  66.729  70.898  0.00  0.00    +0.000 C 
ATOM     23  C   UNL     1      64.902  66.227  70.272  0.00  0.00    +0.000 C 
ATOM     24  C   UNL     1      65.532  66.563  69.859  0.00  0.00    +0.000 C 
ATOM     25  C   UNL     1      65.731  67.272  70.230  0.00  0.00    +0.000 C 
ATOM     26  O   UNL     1      66.332  67.788  69.999  0.00  0.00    +0.000 OA
ATOM     27  O   UNL     1      65.223  67.375  70.871  0.00  0.00    +0.000 OA
ENDROOT
TORSDOF 0
ENDMDL
MODEL 7
REMARK VINA RESULT:   -13.456      2.778      6.063
REMARK INTER + INTRA:         -13.456
REMARK INTER:                 -13.456
REMARK INTRA:                   0.000
REMARK UNBOUND:                 0.000
ROOT
REMARK  Name = drospirenone
REMARK                            x       y       z     vdW  Elec       q    Type
REMARK                         _______ _______ _______ _____ _____    ______ ____
ATOM      1  C   UNL     1      61.717  65.090  70.929  0.00  0.00    +0.000 C 
ATOM      2  C   UNL     1      61.495  64.331  71.163  0.00  0.00    +0.000 C 
ATOM      3  C   UNL     1      61.505  64.701  70.426  0.00  0.00    +0.000 C 
ATOM      4  C   UNL     1      61.258  64.288  69.755  0.00  0.00    +0.000 C 
ATOM      5  C   UNL     1      61.003  63.507  69.821  0.00  0.00    +0.000 C 
ATOM      6  C   UNL     1      60.993  63.137  70.558  0.00  0.00    +0.000 C 
ATOM      7  C   UNL     1      60.738  62.356  70.624  0.00  0.00    +0.000 C 
ATOM      8  C   UNL     1      60.482  61.574  70.690  0.00  0.00    +0.000 C 
ATOM      9  C   UNL     1      60.492  61.944  69.953  0.00  0.00    +0.000 C 
ATOM     10  C   UNL     1      60.501  62.314  69.216  0.00  0.00    +0.000 C 
ATOM     11  C   UNL     1      60.255  61.902  68.544  0.00  0.00    +0.000 C 
ATOM     12  C   UNL     1      60.264  62.272  67.807  0.00  0.00    +0.000 C 
ATOM     13  O   UNL     1      60.018  61.860  67.135  0.00  0.00    +0.000 OA
ATOM     14  C   UNL     1      60.520  63.053  67.741  0.00  0.00    +0.000 C 
ATOM     15  C   UNL     1      60.766  63.465  68.413  0.00  0.00    +0.000 C 
ATOM     16  C   UNL     1      60.757  63.095  69.149  0.00  0.00    +0.000 C 
ATOM     17  C   UNL     1      61.012  63.877  69.084  0.00  0.00    +0.000 C 
ATOM     18  C   UNL     1      61.240  63.549  71.230  0.00  0.00    +0.000 C 
ATOM     19  C   UNL     1      61.291  63.330  72.023  0.00  0.00    +0.000 C 
ATOM     20  C   UNL     1      61.400  63.272  72.839  0.00  0.00    +0.000 C 
ATOM     21  C   UNL     1      61.578  63.977  72.448  0.00  0.00    +0.000 C 
ATOM     22  C   UNL     1      61.704  64.594  71.916  0.00  0.00    +0.000 C 
ATOM     23  C   UNL     1      61.831  65.213  71.384  0.00  0.00    +0.000 C 
ATOM     24  C   UNL     1      62.118  65.859  71.809  0.00  0.00    +0.000 C 
ATOM     25  C   UNL     1      62.169  65.641  72.603  0.00  0.00    +0.000 C 
ATOM     26  O   UNL     1      62.430  66.120  73.222  0.00  0.00    +0.000 OA
ATOM     27  O   UNL     1      61.913  64.860  72.669  0.00  0.00    +0.000 OA
ENDROOT
TORSDOF 0
ENDMDL
MODEL 8
REMARK VINA RESULT:   -13.366      2.931      5.077
REMARK INTER + INTRA:         -13.366
REMARK INTER:                 -13.366
REMARK INTRA:                   0.000
REMARK UNBOUND:                 0.000
ROOT
REMARK  Name = drospirenone
REMARK                            x       y       z     vdW  Elec       q    Type
REMARK                         _______ _______ _______ _____ _____    ______ ____
ATOM      1  C   UNL     1      61.140  63.544  69.084  0.00  0.00    +0.000 C 
ATOM      2  C   UNL     1      61.053  63.202  69.829  0.00  0.00    +0.000 C 
ATOM      3  C   UNL     1      61.339  63.937  69.590  0.00  0.00    +0.000 C 
ATOM      4  C   UNL     1      61.604  64.479  70.154  0.00  0.00    +0.000 C 
ATOM      5  C   UNL     1      61.583  64.285  70.955  0.00  0.00    +0.000 C 
ATOM      6  C   UNL     1      61.296  63.549  71.194  0.00  0.00    +0.000 C 
ATOM      7  C   UNL     1      61.274  63.355  71.995  0.00  0.00    +0.000 C 
ATOM      8  C   UNL     1      61.252  63.161  72.797  0.00  0.00    +0.000 C 
ATOM      9  C   UNL     1      61.539  63.896  72.558  0.00  0.00    +0.000 C 
ATOM     10  C   UNL     1      61.825  64.632  72.320  0.00  0.00    +0.000 C 
ATOM     11  C   UNL     1      62.091  65.174  72.883  0.00  0.00    +0.000 C 
ATOM     12  C   UNL     1      62.377  65.910  72.644  0.00  0.00    +0.000 C 
ATOM     13  O   UNL     1      62.643  66.452  73.207  0.00  0.00    +0.000 OA
ATOM     14  C   UNL     1      62.399  66.104  71.843  0.00  0.00    +0.000 C 
ATOM     15  C   UNL     1      62.134  65.562  71.279  0.00  0.00    +0.000 C 
ATOM     16  C   UNL     1      61.848  64.827  71.518  0.00  0.00    +0.000 C 
ATOM     17  C   UNL     1      61.869  65.020  70.717  0.00  0.00    +0.000 C 
ATOM     18  C   UNL     1      61.031  63.007  70.630  0.00  0.00    +0.000 C 
ATOM     19  C   UNL     1      60.721  62.246  70.700  0.00  0.00    +0.000 C 
ATOM     20  C   UNL     1      60.402  61.492  70.598  0.00  0.00    +0.000 C 
ATOM     21  C   UNL     1      60.551  61.969  69.942  0.00  0.00    +0.000 C 
ATOM     22  C   UNL     1      60.756  62.560  69.404  0.00  0.00    +0.000 C 
ATOM     23  C   UNL     1      60.961  63.150  68.865  0.00  0.00    +0.000 C 
ATOM     24  C   UNL     1      60.792  62.874  68.106  0.00  0.00    +0.000 C 
ATOM     25  C   UNL     1      60.482  62.113  68.176  0.00  0.00    +0.000 C 
ATOM     26  O   UNL     1      60.237  61.629  67.553  0.00  0.00    +0.000 OA
ATOM     27  O   UNL     1      60.460  61.918  68.977  0.00  0.00    +0.000 OA
ENDROOT
TORSDOF 0
ENDMDL
MODEL 9
REMARK VINA RESULT:   -12.561      5.321      7.370
REMARK INTER + INTRA:         -12.561
REMARK INTER:                 -12.561
REMARK INTRA:                   0.000
REMARK UNBOUND:                 0.000
ROOT
REMARK  Name = drospirenone
REMARK                            x       y       z     vdW  Elec       q    Type
REMARK                         _______ _______ _______ _____ _____    ______ ____
ATOM      1  C   UNL     1      62.304  66.017  72.798  0.00  0.00    +0.000 C 
ATOM      2  C   UNL     1      61.735  66.030  72.202  0.00  0.00    +0.000 C 
ATOM      3  C   UNL     1      62.110  65.409  72.593  0.00  0.00    +0.000 C 
ATOM      4  C   UNL     1      61.925  64.628  72.398  0.00  0.00    +0.000 C 
ATOM      5  C   UNL     1      61.366  64.470  71.813  0.00  0.00    +0.000 C 
ATOM      6  C   UNL     1      60.991  65.092  71.422  0.00  0.00    +0.000 C 
ATOM      7  C   UNL     1      60.432  64.934  70.837  0.00  0.00    +0.000 C 
ATOM      8  C   UNL     1      59.873  64.776  70.251  0.00  0.00    +0.000 C 
ATOM      9  C   UNL     1      60.248  64.154  70.642  0.00  0.00    +0.000 C 
ATOM     10  C   UNL     1      60.623  63.532  71.033  0.00  0.00    +0.000 C 
ATOM     11  C   UNL     1      60.438  62.751  70.838  0.00  0.00    +0.000 C 
ATOM     12  C   UNL     1      60.814  62.130  71.230  0.00  0.00    +0.000 C 
ATOM     13  O   UNL     1      60.629  61.349  71.035  0.00  0.00    +0.000 OA
ATOM     14  C   UNL     1      61.372  62.287  71.815  0.00  0.00    +0.000 C 
ATOM     15  C   UNL     1      61.557  63.068  72.009  0.00  0.00    +0.000 C 
ATOM     16  C   UNL     1      61.182  63.690  71.619  0.00  0.00    +0.000 C 
ATOM     17  C   UNL     1      61.741  63.848  72.204  0.00  0.00    +0.000 C 
ATOM     18  C   UNL     1      61.175  65.873  71.616  0.00  0.00    +0.000 C 
ATOM     19  C   UNL     1      60.898  66.594  71.328  0.00  0.00    +0.000 C 
ATOM     20  C   UNL     1      60.730  67.383  71.153  0.00  0.00    +0.000 C 
ATOM     21  C   UNL     1      61.285  67.198  71.734  0.00  0.00    +0.000 C 
ATOM     22  C   UNL     1      61.802  66.849  72.274  0.00  0.00    +0.000 C 
ATOM     23  C   UNL     1      62.320  66.501  72.815  0.00  0.00    +0.000 C 
ATOM     24  C   UNL     1      62.707  67.106  73.222  0.00  0.00    +0.000 C 
ATOM     25  C   UNL     1      62.430  67.826  72.934  0.00  0.00    +0.000 C 
ATOM     26  O   UNL     1      62.670  68.575  73.186  0.00  0.00    +0.000 OA
ATOM     27  O   UNL     1      61.871  67.669  72.348  0.00  0.00    +0.000 OA
ENDROOT
TORSDOF 0
ENDMDL
