MODEL 1
REMARK VINA RESULT:   -11.557      0.000      0.000
REMARK INTER + INTRA:         -11.557
REMARK INTER:                 -11.557
REMARK INTRA:                   0.000
REMARK UNBOUND:                 0.000
ROOT
REMARK  Name = duloxetine
REMARK                            x       y       z     vdW  Elec       q    Type
REMARK                         _______ _______ _______ _____ _____    ______ ____
ATOM      1  C   UNL     1      61.435  64.212  69.358  0.00  0.00    +0.000 C 
ATOM      2  N   UNL     1      61.803  64.004  68.650  0.00  0.00    +0.000 NA
ATOM      3  C   UNL     1      61.404  63.537  68.099  0.00  0.00    +0.000 C 
ATOM      4  C   UNL     1      61.772  63.328  67.391  0.00  0.00    +0.000 C 
ATOM      5  C   UNL     1      61.373  62.861  66.840  0.00  0.00    +0.000 C 
ATOM      6  O   UNL     1      61.741  62.653  66.133  0.00  0.00    +0.000 OA
ATOM      7  C   UNL     1      61.342  62.186  65.583  0.00  0.00    +0.000 A 
ATOM      8  C   UNL     1      60.574  61.927  65.741  0.00  0.00    +0.000 A 
ATOM      9  C   UNL     1      60.175  61.459  65.190  0.00  0.00    +0.000 A 
ATOM     10  C   UNL     1      60.543  61.251  64.481  0.00  0.00    +0.000 A 
ATOM     11  C   UNL     1      61.311  61.510  64.323  0.00  0.00    +0.000 A 
ATOM     12  C   UNL     1      61.710  61.977  64.874  0.00  0.00    +0.000 A 
ATOM     13  C   UNL     1      62.477  62.236  64.716  0.00  0.00    +0.000 A 
ATOM     14  C   UNL     1      62.845  62.028  64.007  0.00  0.00    +0.000 A 
ATOM     15  C   UNL     1      62.446  61.560  63.457  0.00  0.00    +0.000 A 
ATOM     16  C   UNL     1      61.678  61.301  63.615  0.00  0.00    +0.000 A 
ATOM     17  C   UNL     1      60.605  62.602  66.999  0.00  0.00    +0.000 A 
ATOM     18  C   UNL     1      60.140  62.134  66.504  0.00  0.00    +0.000 A 
ATOM     19  C   UNL     1      59.416  62.009  66.879  0.00  0.00    +0.000 A 
ATOM     20  C   UNL     1      59.434  62.399  67.605  0.00  0.00    +0.000 A 
ATOM     21  S   UNL     1      60.169  62.766  67.680  0.00  0.00    +0.000 S 
ENDROOT
TORSDOF 0
ENDMDL
MODEL 2
REMARK VINA RESULT:   -10.791      2.625      5.635
REMARK INTER + INTRA:         -10.791
REMARK INTER:                 -10.791
REMARK INTRA:                   0.000
REMARK UNBOUND:                 0.000
ROOT
REMARK  Name = duloxetine
REMARK                            x       y       z     vdW  Elec       q    Type
REMARK                         _______ _______ _______ _____ _____    ______ ____
ATOM      1  C   UNL     1      59.936  62.377  66.678  0.00  0.00    +0.000 C 
ATOM      2  N   UNL     1      60.235  62.033  67.365  0.00  0.00    +0.000 NA
ATOM      3  C   UNL     1      60.301  62.479  68.056  0.00  0.00    +0.000 C 
ATOM      4  C   UNL     1      60.600  62.135  68.743  0.00  0.00    +0.000 C 
ATOM      5  C   UNL     1      60.666  62.581  69.434  0.00  0.00    +0.000 C 
ATOM      6  O   UNL     1      60.965  62.237  70.121  0.00  0.00    +0.000 OA
ATOM      7  C   UNL     1      61.031  62.683  70.811  0.00  0.00    +0.000 A 
ATOM      8  C   UNL     1      60.797  63.476  70.814  0.00  0.00    +0.000 A 
ATOM      9  C   UNL     1      60.863  63.922  71.505  0.00  0.00    +0.000 A 
ATOM     10  C   UNL     1      61.163  63.578  72.193  0.00  0.00    +0.000 A 
ATOM     11  C   UNL     1      61.397  62.786  72.189  0.00  0.00    +0.000 A 
ATOM     12  C   UNL     1      61.331  62.339  71.499  0.00  0.00    +0.000 A 
ATOM     13  C   UNL     1      61.564  61.548  71.495  0.00  0.00    +0.000 A 
ATOM     14  C   UNL     1      61.864  61.203  72.183  0.00  0.00    +0.000 A 
ATOM     15  C   UNL     1      61.929  61.650  72.873  0.00  0.00    +0.000 A 
ATOM     16  C   UNL     1      61.696  62.442  72.876  0.00  0.00    +0.000 A 
ATOM     17  C   UNL     1      60.432  63.373  69.437  0.00  0.00    +0.000 A 
ATOM     18  C   UNL     1      60.466  63.885  70.082  0.00  0.00    +0.000 A 
ATOM     19  C   UNL     1      60.178  64.620  69.839  0.00  0.00    +0.000 A 
ATOM     20  C   UNL     1      59.968  64.561  69.044  0.00  0.00    +0.000 A 
ATOM     21  S   UNL     1      60.125  63.790  68.795  0.00  0.00    +0.000 S 
ENDROOT
TORSDOF 0
ENDMDL
MODEL 3
REMARK VINA RESULT:   -10.613      3.724      5.632
REMARK INTER + INTRA:         -10.613
REMARK INTER:                 -10.613
REMARK INTRA:                   0.000
REMARK UNBOUND:                 0.000
ROOT
REMARK  Name = duloxetine
REMARK                            x       y       z     vdW  Elec       q    Type
REMARK                         _______ _______ _______ _____ _____    ______ ____
ATOM      1  C   UNL     1      59.596  66.810  69.074  0.00  0.00    +0.000 C 
ATOM      2  N   UNL     1      59.873  66.432  69.752  0.00  0.00    +0.000 NA
ATOM      3  C   UNL     1      60.045  65.625  69.734  0.00  0.00    +0.000 C 
ATOM      4  C   UNL     1      60.323  65.247  70.412  0.00  0.00    +0.000 C 
ATOM      5  C   UNL     1      60.495  64.440  70.394  0.00  0.00    +0.000 C 
ATOM      6  O   UNL     1      60.772  64.062  71.073  0.00  0.00    +0.000 OA
ATOM      7  C   UNL     1      60.945  63.256  71.054  0.00  0.00    +0.000 A 
ATOM      8  C   UNL     1      60.840  62.827  70.356  0.00  0.00    +0.000 A 
ATOM      9  C   UNL     1      61.012  62.021  70.338  0.00  0.00    +0.000 A 
ATOM     10  C   UNL     1      61.290  61.642  71.016  0.00  0.00    +0.000 A 
ATOM     11  C   UNL     1      61.395  62.070  71.715  0.00  0.00    +0.000 A 
ATOM     12  C   UNL     1      61.222  62.877  71.733  0.00  0.00    +0.000 A 
ATOM     13  C   UNL     1      61.327  63.305  72.430  0.00  0.00    +0.000 A 
ATOM     14  C   UNL     1      61.605  62.927  73.109  0.00  0.00    +0.000 A 
ATOM     15  C   UNL     1      61.777  62.121  73.090  0.00  0.00    +0.000 A 
ATOM     16  C   UNL     1      61.672  61.692  72.393  0.00  0.00    +0.000 A 
ATOM     17  C   UNL     1      60.390  64.011  69.696  0.00  0.00    +0.000 A 
ATOM     18  C   UNL     1      60.539  63.207  69.595  0.00  0.00    +0.000 A 
ATOM     19  C   UNL     1      60.359  63.011  68.814  0.00  0.00    +0.000 A 
ATOM     20  C   UNL     1      60.099  63.695  68.433  0.00  0.00    +0.000 A 
ATOM     21  S   UNL     1      60.118  64.314  68.979  0.00  0.00    +0.000 S 
ENDROOT
TORSDOF 0
ENDMDL
MODEL 4
REMARK VINA RESULT:   -10.569      4.817      6.754
REMARK INTER + INTRA:         -10.569
REMARK INTER:                 -10.569
REMARK INTRA:                   0.000
REMARK UNBOUND:                 0.000
ROOT
REMARK  Name = duloxetine
REMARK                            x       y       z     vdW  Elec       q    Type
REMARK                         _______ _______ _______ _____ _____    ______ ____
ATOM      1  C   UNL     1      60.788  63.693  72.582  0.00  0.00    +0.000 C 
ATOM      2  N   UNL     1      61.382  64.263  72.634  0.00  0.00    +0.000 NA
ATOM      3  C   UNL     1      61.864  64.419  71.983  0.00  0.00    +0.000 C 
ATOM      4  C   UNL     1      62.457  64.989  72.036  0.00  0.00    +0.000 C 
ATOM      5  C   UNL     1      62.940  65.145  71.385  0.00  0.00    +0.000 C 
ATOM      6  O   UNL     1      63.533  65.715  71.438  0.00  0.00    +0.000 OA
ATOM      7  C   UNL     1      64.015  65.870  70.787  0.00  0.00    +0.000 A 
ATOM      8  C   UNL     1      63.903  65.455  70.082  0.00  0.00    +0.000 A 
ATOM      9  C   UNL     1      64.386  65.611  69.431  0.00  0.00    +0.000 A 
ATOM     10  C   UNL     1      64.979  66.181  69.484  0.00  0.00    +0.000 A 
ATOM     11  C   UNL     1      65.091  66.597  70.189  0.00  0.00    +0.000 A 
ATOM     12  C   UNL     1      64.609  66.441  70.840  0.00  0.00    +0.000 A 
ATOM     13  C   UNL     1      64.720  66.856  71.544  0.00  0.00    +0.000 A 
ATOM     14  C   UNL     1      65.314  67.427  71.597  0.00  0.00    +0.000 A 
ATOM     15  C   UNL     1      65.796  67.582  70.946  0.00  0.00    +0.000 A 
ATOM     16  C   UNL     1      65.684  67.167  70.242  0.00  0.00    +0.000 A 
ATOM     17  C   UNL     1      62.828  64.729  70.680  0.00  0.00    +0.000 A 
ATOM     18  C   UNL     1      63.265  64.825  69.988  0.00  0.00    +0.000 A 
ATOM     19  C   UNL     1      62.967  64.300  69.424  0.00  0.00    +0.000 A 
ATOM     20  C   UNL     1      62.346  63.881  69.770  0.00  0.00    +0.000 A 
ATOM     21  S   UNL     1      62.260  64.146  70.547  0.00  0.00    +0.000 S 
ENDROOT
TORSDOF 0
ENDMDL
MODEL 5
REMARK VINA RESULT:   -10.566      3.207      4.884
REMARK INTER + INTRA:         -10.566
REMARK INTER:                 -10.566
REMARK INTRA:                   0.000
REMARK UNBOUND:                 0.000
ROOT
REMARK  Name = duloxetine
REMARK                            x       y       z     vdW  Elec       q    Type
REMARK                         _______ _______ _______ _____ _____    ______ ____
ATOM      1  C   UNL     1      62.387  66.219  72.799  0.00  0.00    +0.000 C 
ATOM      2  N   UNL     1      62.155  65.978  72.045  0.00  0.00    +0.000 NA
ATOM      3  C   UNL     1      61.908  65.201  71.917  0.00  0.00    +0.000 C 
ATOM      4  C   UNL     1      61.676  64.960  71.164  0.00  0.00    +0.000 C 
ATOM      5  C   UNL     1      61.429  64.183  71.036  0.00  0.00    +0.000 C 
ATOM      6  O   UNL     1      61.198  63.942  70.283  0.00  0.00    +0.000 OA
ATOM      7  C   UNL     1      60.951  63.166  70.156  0.00  0.00    +0.000 A 
ATOM      8  C   UNL     1      60.935  62.629  70.784  0.00  0.00    +0.000 A 
ATOM      9  C   UNL     1      60.688  61.852  70.656  0.00  0.00    +0.000 A 
ATOM     10  C   UNL     1      60.456  61.611  69.902  0.00  0.00    +0.000 A 
ATOM     11  C   UNL     1      60.471  62.147  69.274  0.00  0.00    +0.000 A 
ATOM     12  C   UNL     1      60.719  62.924  69.402  0.00  0.00    +0.000 A 
ATOM     13  C   UNL     1      60.734  63.459  68.774  0.00  0.00    +0.000 A 
ATOM     14  C   UNL     1      60.502  63.218  68.019  0.00  0.00    +0.000 A 
ATOM     15  C   UNL     1      60.255  62.442  67.893  0.00  0.00    +0.000 A 
ATOM     16  C   UNL     1      60.240  61.906  68.520  0.00  0.00    +0.000 A 
ATOM     17  C   UNL     1      61.414  63.646  71.664  0.00  0.00    +0.000 A 
ATOM     18  C   UNL     1      61.181  62.857  71.621  0.00  0.00    +0.000 A 
ATOM     19  C   UNL     1      61.252  62.529  72.375  0.00  0.00    +0.000 A 
ATOM     20  C   UNL     1      61.528  63.117  72.884  0.00  0.00    +0.000 A 
ATOM     21  S   UNL     1      61.629  63.808  72.444  0.00  0.00    +0.000 S 
ENDROOT
TORSDOF 0
ENDMDL
MODEL 6
REMARK VINA RESULT:   -10.488      2.455      5.800
REMARK INTER + INTRA:         -10.488
REMARK INTER:                 -10.488
REMARK INTRA:                   0.000
REMARK UNBOUND:                 0.000
ROOT
REMARK  Name = duloxetine
REMARK                            x       y       z     vdW  Elec       q    Type
REMARK                         _______ _______ _______ _____ _____    ______ ____
ATOM      1  C   UNL     1      61.252  62.844  66.742  0.00  0.00    +0.000 C 
ATOM      2  N   UNL     1      61.469  63.344  67.360  0.00  0.00    +0.000 NA
ATOM      3  C   UNL     1      61.306  63.133  68.140  0.00  0.00    +0.000 C 
ATOM      4  C   UNL     1      61.524  63.633  68.758  0.00  0.00    +0.000 C 
ATOM      5  C   UNL     1      61.361  63.422  69.539  0.00  0.00    +0.000 C 
ATOM      6  O   UNL     1      61.578  63.922  70.156  0.00  0.00    +0.000 OA
ATOM      7  C   UNL     1      61.415  63.711  70.936  0.00  0.00    +0.000 A 
ATOM      8  C   UNL     1      61.033  62.997  71.099  0.00  0.00    +0.000 A 
ATOM      9  C   UNL     1      60.869  62.785  71.879  0.00  0.00    +0.000 A 
ATOM     10  C   UNL     1      61.087  63.286  72.498  0.00  0.00    +0.000 A 
ATOM     11  C   UNL     1      61.470  64.000  72.336  0.00  0.00    +0.000 A 
ATOM     12  C   UNL     1      61.633  64.212  71.555  0.00  0.00    +0.000 A 
ATOM     13  C   UNL     1      62.015  64.925  71.393  0.00  0.00    +0.000 A 
ATOM     14  C   UNL     1      62.233  65.426  72.011  0.00  0.00    +0.000 A 
ATOM     15  C   UNL     1      62.069  65.214  72.791  0.00  0.00    +0.000 A 
ATOM     16  C   UNL     1      61.688  64.501  72.953  0.00  0.00    +0.000 A 
ATOM     17  C   UNL     1      60.978  62.708  69.701  0.00  0.00    +0.000 A 
ATOM     18  C   UNL     1      60.780  62.425  70.449  0.00  0.00    +0.000 A 
ATOM     19  C   UNL     1      60.407  61.695  70.354  0.00  0.00    +0.000 A 
ATOM     20  C   UNL     1      60.375  61.528  69.547  0.00  0.00    +0.000 A 
ATOM     21  S   UNL     1      60.729  62.155  69.143  0.00  0.00    +0.000 S 
ENDROOT
TORSDOF 0
ENDMDL
MODEL 7
REMARK VINA RESULT:   -10.343      5.726      6.964
REMARK INTER + INTRA:         -10.343
REMARK INTER:                 -10.343
REMARK INTRA:                   0.000
REMARK UNBOUND:                 0.000
ROOT
REMARK  Name = duloxetine
REMARK                            x       y       z     vdW  Elec       q    Type
REMARK                         _______ _______ _______ _____ _____    ______ ____
ATOM      1  C   UNL     1      65.449  66.905  69.852  0.00  0.00    +0.000 C 
ATOM      2  N   UNL     1      65.023  66.201  69.893  0.00  0.00    +0.000 NA
ATOM      3  C   UNL     1      64.438  66.104  70.467  0.00  0.00    +0.000 C 
ATOM      4  C   UNL     1      64.012  65.399  70.508  0.00  0.00    +0.000 C 
ATOM      5  C   UNL     1      63.427  65.303  71.082  0.00  0.00    +0.000 C 
ATOM      6  O   UNL     1      63.002  64.598  71.123  0.00  0.00    +0.000 OA
ATOM      7  C   UNL     1      62.417  64.502  71.697  0.00  0.00    +0.000 A 
ATOM      8  C   UNL     1      62.259  65.112  72.230  0.00  0.00    +0.000 A 
ATOM      9  C   UNL     1      61.674  65.016  72.804  0.00  0.00    +0.000 A 
ATOM     10  C   UNL     1      61.247  64.311  72.846  0.00  0.00    +0.000 A 
ATOM     11  C   UNL     1      61.406  63.700  72.312  0.00  0.00    +0.000 A 
ATOM     12  C   UNL     1      61.991  63.797  71.738  0.00  0.00    +0.000 A 
ATOM     13  C   UNL     1      62.149  63.188  71.205  0.00  0.00    +0.000 A 
ATOM     14  C   UNL     1      61.723  62.482  71.246  0.00  0.00    +0.000 A 
ATOM     15  C   UNL     1      61.139  62.386  71.820  0.00  0.00    +0.000 A 
ATOM     16  C   UNL     1      60.980  62.996  72.353  0.00  0.00    +0.000 A 
ATOM     17  C   UNL     1      63.269  65.913  71.616  0.00  0.00    +0.000 A 
ATOM     18  C   UNL     1      62.704  65.896  72.215  0.00  0.00    +0.000 A 
ATOM     19  C   UNL     1      62.733  66.619  72.613  0.00  0.00    +0.000 A 
ATOM     20  C   UNL     1      63.317  67.082  72.258  0.00  0.00    +0.000 A 
ATOM     21  S   UNL     1      63.648  66.645  71.641  0.00  0.00    +0.000 S 
ENDROOT
TORSDOF 0
ENDMDL
MODEL 8
REMARK VINA RESULT:   -10.001      5.535      6.953
REMARK INTER + INTRA:         -10.001
REMARK INTER:                 -10.001
REMARK INTRA:                   0.000
REMARK UNBOUND:                 0.000
ROOT
REMARK  Name = duloxetine
REMARK                            x       y       z     vdW  Elec       q    Type
REMARK                         _______ _______ _______ _____ _____    ______ ____
ATOM      1  C   UNL     1      65.908  67.477  70.951  0.00  0.00    +0.000 C 
ATOM      2  N   UNL     1      65.228  67.277  71.371  0.00  0.00    +0.000 NA
ATOM      3  C   UNL     1      64.797  66.604  71.164  0.00  0.00    +0.000 C 
ATOM      4  C   UNL     1      64.117  66.403  71.585  0.00  0.00    +0.000 C 
ATOM      5  C   UNL     1      63.687  65.730  71.378  0.00  0.00    +0.000 C 
ATOM      6  O   UNL     1      63.007  65.529  71.798  0.00  0.00    +0.000 OA
ATOM      7  C   UNL     1      62.577  64.857  71.591  0.00  0.00    +0.000 A 
ATOM      8  C   UNL     1      62.828  64.384  70.962  0.00  0.00    +0.000 A 
ATOM      9  C   UNL     1      62.397  63.712  70.755  0.00  0.00    +0.000 A 
ATOM     10  C   UNL     1      61.717  63.510  71.175  0.00  0.00    +0.000 A 
ATOM     11  C   UNL     1      61.466  63.983  71.805  0.00  0.00    +0.000 A 
ATOM     12  C   UNL     1      61.896  64.656  72.012  0.00  0.00    +0.000 A 
ATOM     13  C   UNL     1      61.645  65.128  72.640  0.00  0.00    +0.000 A 
ATOM     14  C   UNL     1      60.964  64.927  73.062  0.00  0.00    +0.000 A 
ATOM     15  C   UNL     1      60.535  64.254  72.854  0.00  0.00    +0.000 A 
ATOM     16  C   UNL     1      60.786  63.782  72.225  0.00  0.00    +0.000 A 
ATOM     17  C   UNL     1      63.938  65.257  70.749  0.00  0.00    +0.000 A 
ATOM     18  C   UNL     1      63.566  64.573  70.480  0.00  0.00    +0.000 A 
ATOM     19  C   UNL     1      64.003  64.279  69.843  0.00  0.00    +0.000 A 
ATOM     20  C   UNL     1      64.644  64.784  69.720  0.00  0.00    +0.000 A 
ATOM     21  S   UNL     1      64.604  65.389  70.280  0.00  0.00    +0.000 S 
ENDROOT
TORSDOF 0
ENDMDL
MODEL 9
REMARK VINA RESULT:    -9.557     24.532     25.450
REMARK INTER + INTRA:          -9.557
REMARK INTER:                  -9.557
REMARK INTRA:                   0.000
REMARK UNBOUND:                 0.000
ROOT
REMARK  Name = duloxetine
REMARK                            x       y       z     vdW  Elec       q    Type
REMARK                         _______ _______ _______ _____ _____    ______ ____
ATOM      1  C   UNL     1      70.844  82.229  53.759  0.00  0.00    +0.000 C 
ATOM      2  N   UNL     1      71.306  81.915  53.153  0.00  0.00    +0.000 NA
ATOM      3  C   UNL     1      70.963  81.430  52.580  0.00  0.00    +0.000 C 
ATOM      4  C   UNL     1      71.425  81.116  51.974  0.00  0.00    +0.000 C 
ATOM      5  C   UNL     1      71.082  80.632  51.401  0.00  0.00    +0.000 C 
ATOM      6  O   UNL     1      71.544  80.318  50.795  0.00  0.00    +0.000 OA
ATOM      7  C   UNL     1      71.201  79.834  50.223  0.00  0.00    +0.000 A 
ATOM      8  C   UNL     1      70.394  79.663  50.256  0.00  0.00    +0.000 A 
ATOM      9  C   UNL     1      70.050  79.179  49.683  0.00  0.00    +0.000 A 
ATOM     10  C   UNL     1      70.513  78.864  49.077  0.00  0.00    +0.000 A 
ATOM     11  C   UNL     1      71.320  79.035  49.043  0.00  0.00    +0.000 A 
ATOM     12  C   UNL     1      71.664  79.519  49.616  0.00  0.00    +0.000 A 
ATOM     13  C   UNL     1      72.470  79.689  49.582  0.00  0.00    +0.000 A 
ATOM     14  C   UNL     1      72.934  79.375  48.976  0.00  0.00    +0.000 A 
ATOM     15  C   UNL     1      72.589  78.891  48.403  0.00  0.00    +0.000 A 
ATOM     16  C   UNL     1      71.783  78.721  48.437  0.00  0.00    +0.000 A 
ATOM     17  C   UNL     1      70.274  80.461  51.435  0.00  0.00    +0.000 A 
ATOM     18  C   UNL     1      69.857  79.989  50.904  0.00  0.00    +0.000 A 
ATOM     19  C   UNL     1      69.068  79.970  51.146  0.00  0.00    +0.000 A 
ATOM     20  C   UNL     1      68.999  80.431  51.827  0.00  0.00    +0.000 A 
ATOM     21  S   UNL     1      69.746  80.735  52.006  0.00  0.00    +0.000 S 
ENDROOT
TORSDOF 0
ENDMDL
