MODEL 1
REMARK VINA RESULT:   -13.543      0.000      0.000
REMARK INTER + INTRA:         -13.543
REMARK INTER:                 -13.543
REMARK INTRA:                   0.000
REMARK UNBOUND:                 0.000
ROOT
REMARK  Name = ebastine
REMARK                            x       y       z     vdW  Elec       q    Type
REMARK                         _______ _______ _______ _____ _____    ______ ____
ATOM      1  C   UNL     1      63.733  58.958  53.520  0.00  0.00    +0.000 C 
ATOM      2  C   UNL     1      63.430  59.722  53.445  0.00  0.00    +0.000 C 
ATOM      3  C   UNL     1      62.990  59.483  52.789  0.00  0.00    +0.000 C 
ATOM      4  C   UNL     1      63.871  59.962  54.100  0.00  0.00    +0.000 C 
ATOM      5  C   UNL     1      63.128  60.485  53.369  0.00  0.00    +0.000 A 
ATOM      6  C   UNL     1      63.357  61.074  53.899  0.00  0.00    +0.000 A 
ATOM      7  C   UNL     1      63.054  61.838  53.823  0.00  0.00    +0.000 A 
ATOM      8  C   UNL     1      62.522  62.012  53.219  0.00  0.00    +0.000 A 
ATOM      9  C   UNL     1      62.292  61.424  52.688  0.00  0.00    +0.000 A 
ATOM     10  C   UNL     1      62.594  60.660  52.764  0.00  0.00    +0.000 A 
ATOM     11  C   UNL     1      62.219  62.777  53.143  0.00  0.00    +0.000 C 
ATOM     12  O   UNL     1      61.686  62.951  52.537  0.00  0.00    +0.000 OA
ATOM     13  C   UNL     1      62.449  63.365  53.673  0.00  0.00    +0.000 C 
ATOM     14  C   UNL     1      62.146  64.129  53.597  0.00  0.00    +0.000 C 
ATOM     15  C   UNL     1      62.376  64.719  54.127  0.00  0.00    +0.000 C 
ATOM     16  N   UNL     1      62.073  65.482  54.052  0.00  0.00    +0.000 NA
ATOM     17  C   UNL     1      62.303  66.071  54.581  0.00  0.00    +0.000 C 
ATOM     18  C   UNL     1      62.000  66.835  54.506  0.00  0.00    +0.000 C 
ATOM     19  C   UNL     1      61.468  67.009  53.901  0.00  0.00    +0.000 C 
ATOM     20  C   UNL     1      61.237  66.420  53.371  0.00  0.00    +0.000 C 
ATOM     21  C   UNL     1      61.540  65.656  53.446  0.00  0.00    +0.000 C 
ATOM     22  O   UNL     1      61.164  67.774  53.826  0.00  0.00    +0.000 OA
ATOM     23  C   UNL     1      61.394  68.362  54.355  0.00  0.00    +0.000 C 
ATOM     24  C   UNL     1      61.091  69.126  54.280  0.00  0.00    +0.000 A 
ATOM     25  C   UNL     1      61.321  69.716  54.810  0.00  0.00    +0.000 A 
ATOM     26  C   UNL     1      61.019  70.478  54.735  0.00  0.00    +0.000 A 
ATOM     27  C   UNL     1      60.486  70.653  54.129  0.00  0.00    +0.000 A 
ATOM     28  C   UNL     1      60.256  70.064  53.600  0.00  0.00    +0.000 A 
ATOM     29  C   UNL     1      60.559  69.301  53.675  0.00  0.00    +0.000 A 
ATOM     30  C   UNL     1      61.927  68.188  54.961  0.00  0.00    +0.000 A 
ATOM     31  C   UNL     1      62.230  67.424  55.036  0.00  0.00    +0.000 A 
ATOM     32  C   UNL     1      62.763  67.249  55.641  0.00  0.00    +0.000 A 
ATOM     33  C   UNL     1      62.993  67.838  56.171  0.00  0.00    +0.000 A 
ATOM     34  C   UNL     1      62.690  68.603  56.096  0.00  0.00    +0.000 A 
ATOM     35  C   UNL     1      62.157  68.777  55.490  0.00  0.00    +0.000 A 
ENDROOT
TORSDOF 0
ENDMDL
MODEL 2
REMARK VINA RESULT:   -13.155      1.339      7.680
REMARK INTER + INTRA:         -13.155
REMARK INTER:                 -13.155
REMARK INTRA:                   0.000
REMARK UNBOUND:                 0.000
ROOT
REMARK  Name = ebastine
REMARK                            x       y       z     vdW  Elec       q    Type
REMARK                         _______ _______ _______ _____ _____    ______ ____
ATOM      1  C   UNL     1      62.355  70.596  54.483  0.00  0.00    +0.000 C 
ATOM      2  C   UNL     1      62.357  69.772  54.541  0.00  0.00    +0.000 C 
ATOM      3  C   UNL     1      61.900  69.820  55.226  0.00  0.00    +0.000 C 
ATOM      4  C   UNL     1      62.815  69.725  53.857  0.00  0.00    +0.000 C 
ATOM      5  C   UNL     1      62.359  68.950  54.600  0.00  0.00    +0.000 A 
ATOM      6  C   UNL     1      62.756  68.498  54.036  0.00  0.00    +0.000 A 
ATOM      7  C   UNL     1      62.759  67.675  54.095  0.00  0.00    +0.000 A 
ATOM      8  C   UNL     1      62.364  67.305  54.716  0.00  0.00    +0.000 A 
ATOM      9  C   UNL     1      61.966  67.757  55.281  0.00  0.00    +0.000 A 
ATOM     10  C   UNL     1      61.964  68.580  55.223  0.00  0.00    +0.000 A 
ATOM     11  C   UNL     1      62.366  66.481  54.775  0.00  0.00    +0.000 C 
ATOM     12  O   UNL     1      61.971  66.111  55.398  0.00  0.00    +0.000 OA
ATOM     13  C   UNL     1      62.763  66.029  54.211  0.00  0.00    +0.000 C 
ATOM     14  C   UNL     1      62.765  65.206  54.270  0.00  0.00    +0.000 C 
ATOM     15  C   UNL     1      63.163  64.753  53.705  0.00  0.00    +0.000 C 
ATOM     16  N   UNL     1      63.165  63.931  53.763  0.00  0.00    +0.000 NA
ATOM     17  C   UNL     1      63.562  63.478  53.200  0.00  0.00    +0.000 C 
ATOM     18  C   UNL     1      63.565  62.655  53.258  0.00  0.00    +0.000 C 
ATOM     19  C   UNL     1      63.170  62.285  53.880  0.00  0.00    +0.000 C 
ATOM     20  C   UNL     1      62.772  62.737  54.445  0.00  0.00    +0.000 C 
ATOM     21  C   UNL     1      62.770  63.560  54.386  0.00  0.00    +0.000 C 
ATOM     22  O   UNL     1      63.172  61.461  53.939  0.00  0.00    +0.000 OA
ATOM     23  C   UNL     1      63.569  61.009  53.375  0.00  0.00    +0.000 C 
ATOM     24  C   UNL     1      63.571  60.186  53.433  0.00  0.00    +0.000 A 
ATOM     25  C   UNL     1      63.969  59.733  52.869  0.00  0.00    +0.000 A 
ATOM     26  C   UNL     1      63.971  58.911  52.927  0.00  0.00    +0.000 A 
ATOM     27  C   UNL     1      63.576  58.540  53.550  0.00  0.00    +0.000 A 
ATOM     28  C   UNL     1      63.179  58.993  54.113  0.00  0.00    +0.000 A 
ATOM     29  C   UNL     1      63.176  59.815  54.055  0.00  0.00    +0.000 A 
ATOM     30  C   UNL     1      63.964  61.379  52.752  0.00  0.00    +0.000 A 
ATOM     31  C   UNL     1      63.962  62.203  52.694  0.00  0.00    +0.000 A 
ATOM     32  C   UNL     1      64.357  62.573  52.072  0.00  0.00    +0.000 A 
ATOM     33  C   UNL     1      64.755  62.121  51.507  0.00  0.00    +0.000 A 
ATOM     34  C   UNL     1      64.757  61.297  51.566  0.00  0.00    +0.000 A 
ATOM     35  C   UNL     1      64.361  60.927  52.189  0.00  0.00    +0.000 A 
ENDROOT
TORSDOF 0
ENDMDL
MODEL 3
REMARK VINA RESULT:   -12.825      1.274      7.828
REMARK INTER + INTRA:         -12.825
REMARK INTER:                 -12.825
REMARK INTRA:                   0.000
REMARK UNBOUND:                 0.000
ROOT
REMARK  Name = ebastine
REMARK                            x       y       z     vdW  Elec       q    Type
REMARK                         _______ _______ _______ _____ _____    ______ ____
ATOM      1  C   UNL     1      62.363  68.815  55.592  0.00  0.00    +0.000 C 
ATOM      2  C   UNL     1      62.250  68.106  55.184  0.00  0.00    +0.000 C 
ATOM      3  C   UNL     1      61.756  68.492  54.648  0.00  0.00    +0.000 C 
ATOM      4  C   UNL     1      62.744  67.719  55.720  0.00  0.00    +0.000 C 
ATOM      5  C   UNL     1      62.137  67.398  54.778  0.00  0.00    +0.000 A 
ATOM      6  C   UNL     1      62.509  66.709  55.038  0.00  0.00    +0.000 A 
ATOM      7  C   UNL     1      62.396  66.000  54.631  0.00  0.00    +0.000 A 
ATOM      8  C   UNL     1      61.912  65.980  53.964  0.00  0.00    +0.000 A 
ATOM      9  C   UNL     1      61.540  66.669  53.703  0.00  0.00    +0.000 A 
ATOM     10  C   UNL     1      61.652  67.378  54.110  0.00  0.00    +0.000 A 
ATOM     11  C   UNL     1      61.799  65.271  53.557  0.00  0.00    +0.000 C 
ATOM     12  O   UNL     1      61.314  65.252  52.889  0.00  0.00    +0.000 OA
ATOM     13  C   UNL     1      62.170  64.582  53.817  0.00  0.00    +0.000 C 
ATOM     14  C   UNL     1      62.057  63.874  53.410  0.00  0.00    +0.000 C 
ATOM     15  C   UNL     1      62.429  63.184  53.671  0.00  0.00    +0.000 C 
ATOM     16  N   UNL     1      62.316  62.476  53.264  0.00  0.00    +0.000 NA
ATOM     17  C   UNL     1      62.687  61.787  53.524  0.00  0.00    +0.000 C 
ATOM     18  C   UNL     1      62.575  61.078  53.118  0.00  0.00    +0.000 C 
ATOM     19  C   UNL     1      62.090  61.059  52.451  0.00  0.00    +0.000 C 
ATOM     20  C   UNL     1      61.719  61.748  52.189  0.00  0.00    +0.000 C 
ATOM     21  C   UNL     1      61.831  62.456  52.596  0.00  0.00    +0.000 C 
ATOM     22  O   UNL     1      61.977  60.349  52.043  0.00  0.00    +0.000 OA
ATOM     23  C   UNL     1      62.349  59.661  52.304  0.00  0.00    +0.000 C 
ATOM     24  C   UNL     1      62.236  58.952  51.897  0.00  0.00    +0.000 A 
ATOM     25  C   UNL     1      62.608  58.262  52.157  0.00  0.00    +0.000 A 
ATOM     26  C   UNL     1      62.495  57.555  51.751  0.00  0.00    +0.000 A 
ATOM     27  C   UNL     1      62.010  57.535  51.083  0.00  0.00    +0.000 A 
ATOM     28  C   UNL     1      61.639  58.224  50.823  0.00  0.00    +0.000 A 
ATOM     29  C   UNL     1      61.752  58.932  51.229  0.00  0.00    +0.000 A 
ATOM     30  C   UNL     1      62.833  59.680  52.971  0.00  0.00    +0.000 A 
ATOM     31  C   UNL     1      62.946  60.390  53.379  0.00  0.00    +0.000 A 
ATOM     32  C   UNL     1      63.431  60.409  54.046  0.00  0.00    +0.000 A 
ATOM     33  C   UNL     1      63.802  59.720  54.307  0.00  0.00    +0.000 A 
ATOM     34  C   UNL     1      63.690  59.011  53.899  0.00  0.00    +0.000 A 
ATOM     35  C   UNL     1      63.205  58.992  53.232  0.00  0.00    +0.000 A 
ENDROOT
TORSDOF 0
ENDMDL
MODEL 4
REMARK VINA RESULT:   -12.296     18.697     18.818
REMARK INTER + INTRA:         -12.296
REMARK INTER:                 -12.296
REMARK INTRA:                   0.000
REMARK UNBOUND:                 0.000
ROOT
REMARK  Name = ebastine
REMARK                            x       y       z     vdW  Elec       q    Type
REMARK                         _______ _______ _______ _____ _____    ______ ____
ATOM      1  C   UNL     1      80.830  58.647  52.823  0.00  0.00    +0.000 C 
ATOM      2  C   UNL     1      80.873  59.467  52.908  0.00  0.00    +0.000 C 
ATOM      3  C   UNL     1      81.045  59.542  52.105  0.00  0.00    +0.000 C 
ATOM      4  C   UNL     1      80.701  59.392  53.712  0.00  0.00    +0.000 C 
ATOM      5  C   UNL     1      80.916  60.285  52.994  0.00  0.00    +0.000 A 
ATOM      6  C   UNL     1      80.789  60.631  53.732  0.00  0.00    +0.000 A 
ATOM      7  C   UNL     1      80.832  61.450  53.818  0.00  0.00    +0.000 A 
ATOM      8  C   UNL     1      81.002  61.924  53.165  0.00  0.00    +0.000 A 
ATOM      9  C   UNL     1      81.130  61.580  52.426  0.00  0.00    +0.000 A 
ATOM     10  C   UNL     1      81.087  60.761  52.341  0.00  0.00    +0.000 A 
ATOM     11  C   UNL     1      81.045  62.745  53.251  0.00  0.00    +0.000 C 
ATOM     12  O   UNL     1      81.216  63.219  52.597  0.00  0.00    +0.000 OA
ATOM     13  C   UNL     1      80.918  63.089  53.989  0.00  0.00    +0.000 C 
ATOM     14  C   UNL     1      80.961  63.909  54.075  0.00  0.00    +0.000 C 
ATOM     15  C   UNL     1      80.833  64.254  54.814  0.00  0.00    +0.000 C 
ATOM     16  N   UNL     1      80.876  65.072  54.899  0.00  0.00    +0.000 NA
ATOM     17  C   UNL     1      80.749  65.418  55.637  0.00  0.00    +0.000 C 
ATOM     18  C   UNL     1      80.792  66.237  55.723  0.00  0.00    +0.000 C 
ATOM     19  C   UNL     1      80.962  66.711  55.070  0.00  0.00    +0.000 C 
ATOM     20  C   UNL     1      81.090  66.367  54.331  0.00  0.00    +0.000 C 
ATOM     21  C   UNL     1      81.047  65.547  54.246  0.00  0.00    +0.000 C 
ATOM     22  O   UNL     1      81.005  67.532  55.156  0.00  0.00    +0.000 OA
ATOM     23  C   UNL     1      80.878  67.876  55.894  0.00  0.00    +0.000 C 
ATOM     24  C   UNL     1      80.921  68.695  55.980  0.00  0.00    +0.000 A 
ATOM     25  C   UNL     1      80.793  69.041  56.719  0.00  0.00    +0.000 A 
ATOM     26  C   UNL     1      80.836  69.859  56.804  0.00  0.00    +0.000 A 
ATOM     27  C   UNL     1      81.007  70.334  56.151  0.00  0.00    +0.000 A 
ATOM     28  C   UNL     1      81.134  69.989  55.413  0.00  0.00    +0.000 A 
ATOM     29  C   UNL     1      81.091  69.170  55.327  0.00  0.00    +0.000 A 
ATOM     30  C   UNL     1      80.707  67.402  56.548  0.00  0.00    +0.000 A 
ATOM     31  C   UNL     1      80.664  66.581  56.462  0.00  0.00    +0.000 A 
ATOM     32  C   UNL     1      80.494  66.107  57.114  0.00  0.00    +0.000 A 
ATOM     33  C   UNL     1      80.366  66.452  57.853  0.00  0.00    +0.000 A 
ATOM     34  C   UNL     1      80.409  67.272  57.939  0.00  0.00    +0.000 A 
ATOM     35  C   UNL     1      80.580  67.746  57.286  0.00  0.00    +0.000 A 
ENDROOT
TORSDOF 0
ENDMDL
MODEL 5
REMARK VINA RESULT:   -12.020     18.550     20.210
REMARK INTER + INTRA:         -12.020
REMARK INTER:                 -12.020
REMARK INTRA:                   0.000
REMARK UNBOUND:                 0.000
ROOT
REMARK  Name = ebastine
REMARK                            x       y       z     vdW  Elec       q    Type
REMARK                         _______ _______ _______ _____ _____    ______ ____
ATOM      1  C   UNL     1      80.497  69.874  57.103  0.00  0.00    +0.000 C 
ATOM      2  C   UNL     1      80.596  69.234  56.590  0.00  0.00    +0.000 C 
ATOM      3  C   UNL     1      80.807  69.752  55.984  0.00  0.00    +0.000 C 
ATOM      4  C   UNL     1      80.385  68.716  57.197  0.00  0.00    +0.000 C 
ATOM      5  C   UNL     1      80.695  68.595  56.079  0.00  0.00    +0.000 A 
ATOM      6  C   UNL     1      80.562  67.827  56.348  0.00  0.00    +0.000 A 
ATOM      7  C   UNL     1      80.661  67.187  55.837  0.00  0.00    +0.000 A 
ATOM      8  C   UNL     1      80.893  67.316  55.056  0.00  0.00    +0.000 A 
ATOM      9  C   UNL     1      81.026  68.084  54.786  0.00  0.00    +0.000 A 
ATOM     10  C   UNL     1      80.927  68.724  55.297  0.00  0.00    +0.000 A 
ATOM     11  C   UNL     1      80.992  66.676  54.544  0.00  0.00    +0.000 C 
ATOM     12  O   UNL     1      81.224  66.805  53.762  0.00  0.00    +0.000 OA
ATOM     13  C   UNL     1      80.859  65.908  54.813  0.00  0.00    +0.000 C 
ATOM     14  C   UNL     1      80.958  65.268  54.302  0.00  0.00    +0.000 C 
ATOM     15  C   UNL     1      80.825  64.499  54.571  0.00  0.00    +0.000 C 
ATOM     16  N   UNL     1      80.924  63.861  54.060  0.00  0.00    +0.000 NA
ATOM     17  C   UNL     1      80.791  63.092  54.329  0.00  0.00    +0.000 C 
ATOM     18  C   UNL     1      80.890  62.453  53.817  0.00  0.00    +0.000 C 
ATOM     19  C   UNL     1      81.122  62.581  53.037  0.00  0.00    +0.000 C 
ATOM     20  C   UNL     1      81.255  63.350  52.767  0.00  0.00    +0.000 C 
ATOM     21  C   UNL     1      81.156  63.989  53.278  0.00  0.00    +0.000 C 
ATOM     22  O   UNL     1      81.221  61.941  52.525  0.00  0.00    +0.000 OA
ATOM     23  C   UNL     1      81.088  61.173  52.794  0.00  0.00    +0.000 C 
ATOM     24  C   UNL     1      81.187  60.534  52.282  0.00  0.00    +0.000 A 
ATOM     25  C   UNL     1      81.054  59.765  52.552  0.00  0.00    +0.000 A 
ATOM     26  C   UNL     1      81.152  59.126  52.041  0.00  0.00    +0.000 A 
ATOM     27  C   UNL     1      81.385  59.255  51.259  0.00  0.00    +0.000 A 
ATOM     28  C   UNL     1      81.517  60.023  50.990  0.00  0.00    +0.000 A 
ATOM     29  C   UNL     1      81.418  60.662  51.501  0.00  0.00    +0.000 A 
ATOM     30  C   UNL     1      80.856  61.044  53.575  0.00  0.00    +0.000 A 
ATOM     31  C   UNL     1      80.757  61.684  54.088  0.00  0.00    +0.000 A 
ATOM     32  C   UNL     1      80.525  61.556  54.868  0.00  0.00    +0.000 A 
ATOM     33  C   UNL     1      80.392  60.787  55.138  0.00  0.00    +0.000 A 
ATOM     34  C   UNL     1      80.491  60.147  54.626  0.00  0.00    +0.000 A 
ATOM     35  C   UNL     1      80.723  60.276  53.845  0.00  0.00    +0.000 A 
ENDROOT
TORSDOF 0
ENDMDL
MODEL 6
REMARK VINA RESULT:   -10.637     19.789     20.957
REMARK INTER + INTRA:         -10.637
REMARK INTER:                 -10.637
REMARK INTRA:                   0.000
REMARK UNBOUND:                 0.000
ROOT
REMARK  Name = ebastine
REMARK                            x       y       z     vdW  Elec       q    Type
REMARK                         _______ _______ _______ _____ _____    ______ ____
ATOM      1  C   UNL     1      81.164  68.118  56.841  0.00  0.00    +0.000 C 
ATOM      2  C   UNL     1      81.179  68.704  56.259  0.00  0.00    +0.000 C 
ATOM      3  C   UNL     1      81.239  68.123  55.676  0.00  0.00    +0.000 C 
ATOM      4  C   UNL     1      81.118  69.285  56.842  0.00  0.00    +0.000 C 
ATOM      5  C   UNL     1      81.193  69.288  55.678  0.00  0.00    +0.000 A 
ATOM      6  C   UNL     1      81.148  70.084  55.891  0.00  0.00    +0.000 A 
ATOM      7  C   UNL     1      81.162  70.669  55.310  0.00  0.00    +0.000 A 
ATOM      8  C   UNL     1      81.222  70.458  54.515  0.00  0.00    +0.000 A 
ATOM      9  C   UNL     1      81.267  69.663  54.300  0.00  0.00    +0.000 A 
ATOM     10  C   UNL     1      81.252  69.078  54.882  0.00  0.00    +0.000 A 
ATOM     11  C   UNL     1      81.236  71.044  53.933  0.00  0.00    +0.000 C 
ATOM     12  O   UNL     1      81.295  70.833  53.137  0.00  0.00    +0.000 OA
ATOM     13  C   UNL     1      81.191  71.839  54.147  0.00  0.00    +0.000 C 
ATOM     14  C   UNL     1      81.205  72.424  53.566  0.00  0.00    +0.000 C 
ATOM     15  C   UNL     1      81.160  73.220  53.780  0.00  0.00    +0.000 C 
ATOM     16  N   UNL     1      81.174  73.805  53.199  0.00  0.00    +0.000 NA
ATOM     17  C   UNL     1      81.129  74.600  53.412  0.00  0.00    +0.000 C 
ATOM     18  C   UNL     1      81.143  75.185  52.831  0.00  0.00    +0.000 C 
ATOM     19  C   UNL     1      81.202  74.975  52.036  0.00  0.00    +0.000 C 
ATOM     20  C   UNL     1      81.248  74.179  51.821  0.00  0.00    +0.000 C 
ATOM     21  C   UNL     1      81.233  73.594  52.403  0.00  0.00    +0.000 C 
ATOM     22  O   UNL     1      81.217  75.561  51.454  0.00  0.00    +0.000 OA
ATOM     23  C   UNL     1      81.172  76.356  51.668  0.00  0.00    +0.000 C 
ATOM     24  C   UNL     1      81.186  76.941  51.086  0.00  0.00    +0.000 A 
ATOM     25  C   UNL     1      81.141  77.737  51.301  0.00  0.00    +0.000 A 
ATOM     26  C   UNL     1      81.155  78.321  50.720  0.00  0.00    +0.000 A 
ATOM     27  C   UNL     1      81.214  78.111  49.924  0.00  0.00    +0.000 A 
ATOM     28  C   UNL     1      81.259  77.315  49.710  0.00  0.00    +0.000 A 
ATOM     29  C   UNL     1      81.245  76.731  50.291  0.00  0.00    +0.000 A 
ATOM     30  C   UNL     1      81.112  76.567  52.463  0.00  0.00    +0.000 A 
ATOM     31  C   UNL     1      81.098  75.981  53.046  0.00  0.00    +0.000 A 
ATOM     32  C   UNL     1      81.038  76.191  53.840  0.00  0.00    +0.000 A 
ATOM     33  C   UNL     1      80.993  76.987  54.055  0.00  0.00    +0.000 A 
ATOM     34  C   UNL     1      81.008  77.572  53.473  0.00  0.00    +0.000 A 
ATOM     35  C   UNL     1      81.067  77.361  52.678  0.00  0.00    +0.000 A 
ENDROOT
TORSDOF 0
ENDMDL
