MODEL 1
REMARK VINA RESULT:   -18.110      0.000      0.000
REMARK INTER + INTRA:         -18.110
REMARK INTER:                 -18.110
REMARK INTRA:                   0.000
REMARK UNBOUND:                 0.000
ROOT
REMARK  Name = ecamsule
REMARK                            x       y       z     vdW  Elec       q    Type
REMARK                         _______ _______ _______ _____ _____    ______ ____
ATOM      1  C   UNL     1      62.239  62.009  64.667  0.00  0.00    +0.000 C 
ATOM      2  C   UNL     1      61.611  62.015  65.203  0.00  0.00    +0.000 C 
ATOM      3  C   UNL     1      62.379  62.269  65.038  0.00  0.00    +0.000 C 
ATOM      4  C   UNL     1      61.674  62.435  65.940  0.00  0.00    +0.000 C 
ATOM      5  C   UNL     1      62.182  62.321  65.300  0.00  0.00    +0.000 C 
ATOM      6  C   UNL     1      61.937  61.868  64.654  0.00  0.00    +0.000 C 
ATOM      7  C   UNL     1      61.185  61.531  64.649  0.00  0.00    +0.000 C 
ATOM      8  C   UNL     1      60.941  61.079  64.004  0.00  0.00    +0.000 C 
ATOM      9  S   UNL     1      61.449  60.965  63.364  0.00  0.00    +0.000 S 
ATOM     10  O   UNL     1      61.957  60.850  62.724  0.00  0.00    +0.000 OA
ATOM     11  O   UNL     1      60.873  60.509  62.989  0.00  0.00    +0.000 OA
ATOM     12  O   UNL     1      62.024  61.421  63.740  0.00  0.00    +0.000 OA
ATOM     13  C   UNL     1      60.677  61.645  65.289  0.00  0.00    +0.000 C 
ATOM     14  O   UNL     1      59.924  61.307  65.284  0.00  0.00    +0.000 OA
ATOM     15  C   UNL     1      60.921  62.097  65.934  0.00  0.00    +0.000 C 
ATOM     16  C   UNL     1      60.413  62.212  66.574  0.00  0.00    +0.000 C 
ATOM     17  C   UNL     1      60.658  62.664  67.220  0.00  0.00    +0.000 A 
ATOM     18  C   UNL     1      61.411  63.002  67.225  0.00  0.00    +0.000 A 
ATOM     19  C   UNL     1      61.655  63.454  67.871  0.00  0.00    +0.000 A 
ATOM     20  C   UNL     1      61.148  63.568  68.510  0.00  0.00    +0.000 A 
ATOM     21  C   UNL     1      61.378  63.994  69.118  0.00  0.00    +0.000 C 
ATOM     22  C   UNL     1      60.921  64.138  69.772  0.00  0.00    +0.000 C 
ATOM     23  C   UNL     1      60.258  63.892  69.863  0.00  0.00    +0.000 C 
ATOM     24  C   UNL     1      59.814  64.053  70.538  0.00  0.00    +0.000 C 
ATOM     25  C   UNL     1      60.134  64.517  71.141  0.00  0.00    +0.000 C 
ATOM     26  C   UNL     1      60.898  64.818  71.069  0.00  0.00    +0.000 C 
ATOM     27  C   UNL     1      61.177  65.305  71.751  0.00  0.00    +0.000 C 
ATOM     28  S   UNL     1      60.914  65.581  72.489  0.00  0.00    +0.000 S 
ATOM     29  O   UNL     1      60.653  65.855  73.222  0.00  0.00    +0.000 OA
ATOM     30  O   UNL     1      60.192  65.199  72.375  0.00  0.00    +0.000 OA
ATOM     31  O   UNL     1      61.636  65.963  72.604  0.00  0.00    +0.000 OA
ATOM     32  C   UNL     1      61.305  64.694  70.496  0.00  0.00    +0.000 C 
ATOM     33  O   UNL     1      62.000  65.182  70.831  0.00  0.00    +0.000 OA
ATOM     34  C   UNL     1      60.753  64.375  70.357  0.00  0.00    +0.000 C 
ATOM     35  C   UNL     1      61.640  64.547  69.939  0.00  0.00    +0.000 C 
ATOM     36  C   UNL     1      61.513  64.356  69.686  0.00  0.00    +0.000 C 
ATOM     37  C   UNL     1      60.395  63.230  68.505  0.00  0.00    +0.000 A 
ATOM     38  C   UNL     1      60.150  62.778  67.860  0.00  0.00    +0.000 A 
ENDROOT
TORSDOF 0
ENDMDL
