MODEL 1
REMARK VINA RESULT:    -7.567      0.000      0.000
REMARK INTER + INTRA:          -7.567
REMARK INTER:                  -7.567
REMARK INTRA:                   0.000
REMARK UNBOUND:                 0.000
ROOT
REMARK  Name = echothiophate
REMARK                            x       y       z     vdW  Elec       q    Type
REMARK                         _______ _______ _______ _____ _____    ______ ____
ATOM      1  C   UNL     1      62.372  61.267  63.097  0.00  0.00    +0.000 C 
ATOM      2  C   UNL     1      62.458  61.625  63.836  0.00  0.00    +0.000 C 
ATOM      3  O   UNL     1      61.812  61.683  64.344  0.00  0.00    +0.000 OA
ATOM      4  P   UNL     1      61.897  62.041  65.082  0.00  0.00    +0.000 P 
ATOM      5  O   UNL     1      62.694  62.181  64.922  0.00  0.00    +0.000 OA
ATOM      6  O   UNL     1      61.100  61.902  65.244  0.00  0.00    +0.000 OA
ATOM      7  C   UNL     1      60.776  62.142  65.963  0.00  0.00    +0.000 C 
ATOM      8  C   UNL     1      59.980  62.002  66.123  0.00  0.00    +0.000 C 
ATOM      9  S   UNL     1      61.983  62.399  65.821  0.00  0.00    +0.000 S 
ATOM     10  C   UNL     1      61.337  62.457  66.329  0.00  0.00    +0.000 C 
ATOM     11  C   UNL     1      61.422  62.815  67.067  0.00  0.00    +0.000 C 
ATOM     12  N   UNL     1      60.775  62.873  67.575  0.00  0.00    +0.000 N 
ATOM     13  C   UNL     1      60.128  62.932  68.084  0.00  0.00    +0.000 C 
ATOM     14  C   UNL     1      61.248  63.253  68.134  0.00  0.00    +0.000 C 
ATOM     15  C   UNL     1      60.302  62.494  67.016  0.00  0.00    +0.000 C 
ENDROOT
TORSDOF 0
ENDMDL
MODEL 2
REMARK VINA RESULT:    -7.409      1.359      1.727
REMARK INTER + INTRA:          -7.409
REMARK INTER:                  -7.409
REMARK INTRA:                   0.000
REMARK UNBOUND:                 0.000
ROOT
REMARK  Name = echothiophate
REMARK                            x       y       z     vdW  Elec       q    Type
REMARK                         _______ _______ _______ _____ _____    ______ ____
ATOM      1  C   UNL     1      60.876  61.234  64.528  0.00  0.00    +0.000 C 
ATOM      2  C   UNL     1      61.164  61.802  65.054  0.00  0.00    +0.000 C 
ATOM      3  O   UNL     1      60.944  61.779  65.848  0.00  0.00    +0.000 OA
ATOM      4  P   UNL     1      61.231  62.346  66.373  0.00  0.00    +0.000 P 
ATOM      5  O   UNL     1      61.652  62.701  65.759  0.00  0.00    +0.000 OA
ATOM      6  O   UNL     1      60.811  61.991  66.988  0.00  0.00    +0.000 OA
ATOM      7  C   UNL     1      60.850  62.305  67.750  0.00  0.00    +0.000 C 
ATOM      8  C   UNL     1      60.430  61.950  68.364  0.00  0.00    +0.000 C 
ATOM      9  S   UNL     1      61.520  62.914  66.899  0.00  0.00    +0.000 S 
ATOM     10  C   UNL     1      61.300  62.890  67.692  0.00  0.00    +0.000 C 
ATOM     11  C   UNL     1      61.587  63.457  68.218  0.00  0.00    +0.000 C 
ATOM     12  N   UNL     1      61.367  63.433  69.013  0.00  0.00    +0.000 N 
ATOM     13  C   UNL     1      61.147  63.410  69.807  0.00  0.00    +0.000 C 
ATOM     14  C   UNL     1      61.827  64.102  69.160  0.00  0.00    +0.000 C 
ATOM     15  C   UNL     1      60.907  62.764  68.865  0.00  0.00    +0.000 C 
ENDROOT
TORSDOF 0
ENDMDL
MODEL 3
REMARK VINA RESULT:    -7.404      1.909      3.432
REMARK INTER + INTRA:          -7.404
REMARK INTER:                  -7.404
REMARK INTRA:                   0.000
REMARK UNBOUND:                 0.000
ROOT
REMARK  Name = echothiophate
REMARK                            x       y       z     vdW  Elec       q    Type
REMARK                         _______ _______ _______ _____ _____    ______ ____
ATOM      1  C   UNL     1      60.139  64.130  69.361  0.00  0.00    +0.000 C 
ATOM      2  C   UNL     1      60.654  63.868  68.772  0.00  0.00    +0.000 C 
ATOM      3  O   UNL     1      60.366  63.423  68.140  0.00  0.00    +0.000 OA
ATOM      4  P   UNL     1      60.881  63.161  67.552  0.00  0.00    +0.000 P 
ATOM      5  O   UNL     1      61.511  63.523  67.941  0.00  0.00    +0.000 OA
ATOM      6  O   UNL     1      60.251  62.798  67.161  0.00  0.00    +0.000 OA
ATOM      7  C   UNL     1      60.381  62.390  66.457  0.00  0.00    +0.000 C 
ATOM      8  C   UNL     1      59.752  62.028  66.067  0.00  0.00    +0.000 C 
ATOM      9  S   UNL     1      61.396  62.898  66.962  0.00  0.00    +0.000 S 
ATOM     10  C   UNL     1      61.108  62.454  66.331  0.00  0.00    +0.000 C 
ATOM     11  C   UNL     1      61.623  62.191  65.742  0.00  0.00    +0.000 C 
ATOM     12  N   UNL     1      61.334  61.746  65.110  0.00  0.00    +0.000 N 
ATOM     13  C   UNL     1      61.046  61.301  64.478  0.00  0.00    +0.000 C 
ATOM     14  C   UNL     1      62.095  61.701  64.795  0.00  0.00    +0.000 C 
ATOM     15  C   UNL     1      60.573  61.792  65.425  0.00  0.00    +0.000 C 
ENDROOT
TORSDOF 0
ENDMDL
MODEL 4
REMARK VINA RESULT:    -7.026      2.473      3.288
REMARK INTER + INTRA:          -7.026
REMARK INTER:                  -7.026
REMARK INTRA:                   0.000
REMARK UNBOUND:                 0.000
ROOT
REMARK  Name = echothiophate
REMARK                            x       y       z     vdW  Elec       q    Type
REMARK                         _______ _______ _______ _____ _____    ______ ____
ATOM      1  C   UNL     1      59.233  62.017  66.310  0.00  0.00    +0.000 C 
ATOM      2  C   UNL     1      59.856  62.473  66.602  0.00  0.00    +0.000 C 
ATOM      3  O   UNL     1      60.017  62.483  67.410  0.00  0.00    +0.000 OA
ATOM      4  P   UNL     1      60.640  62.939  67.702  0.00  0.00    +0.000 P 
ATOM      5  O   UNL     1      60.814  63.191  66.936  0.00  0.00    +0.000 OA
ATOM      6  O   UNL     1      60.466  62.688  68.468  0.00  0.00    +0.000 OA
ATOM      7  C   UNL     1      60.918  62.957  69.103  0.00  0.00    +0.000 C 
ATOM      8  C   UNL     1      60.744  62.706  69.869  0.00  0.00    +0.000 C 
ATOM      9  S   UNL     1      61.263  63.395  67.993  0.00  0.00    +0.000 S 
ATOM     10  C   UNL     1      61.423  63.406  68.801  0.00  0.00    +0.000 C 
ATOM     11  C   UNL     1      62.046  63.861  69.093  0.00  0.00    +0.000 C 
ATOM     12  N   UNL     1      62.207  63.872  69.902  0.00  0.00    +0.000 N 
ATOM     13  C   UNL     1      62.368  63.882  70.711  0.00  0.00    +0.000 C 
ATOM     14  C   UNL     1      62.833  64.392  69.771  0.00  0.00    +0.000 C 
ATOM     15  C   UNL     1      61.581  63.351  70.033  0.00  0.00    +0.000 C 
ENDROOT
TORSDOF 0
ENDMDL
MODEL 5
REMARK VINA RESULT:    -6.787      5.898      6.870
REMARK INTER + INTRA:          -6.787
REMARK INTER:                  -6.787
REMARK INTRA:                   0.000
REMARK UNBOUND:                 0.000
ROOT
REMARK  Name = echothiophate
REMARK                            x       y       z     vdW  Elec       q    Type
REMARK                         _______ _______ _______ _____ _____    ______ ____
ATOM      1  C   UNL     1      66.610  67.891  69.826  0.00  0.00    +0.000 C 
ATOM      2  C   UNL     1      65.996  67.567  70.274  0.00  0.00    +0.000 C 
ATOM      3  O   UNL     1      65.628  66.873  70.027  0.00  0.00    +0.000 OA
ATOM      4  P   UNL     1      65.015  66.549  70.474  0.00  0.00    +0.000 P 
ATOM      5  O   UNL     1      65.086  67.165  71.018  0.00  0.00    +0.000 OA
ATOM      6  O   UNL     1      64.943  65.932  69.931  0.00  0.00    +0.000 OA
ATOM      7  C   UNL     1      64.377  65.344  70.046  0.00  0.00    +0.000 C 
ATOM      8  C   UNL     1      64.306  64.728  69.503  0.00  0.00    +0.000 C 
ATOM      9  S   UNL     1      64.401  66.225  70.922  0.00  0.00    +0.000 S 
ATOM     10  C   UNL     1      64.034  65.530  70.675  0.00  0.00    +0.000 C 
ATOM     11  C   UNL     1      63.420  65.206  71.122  0.00  0.00    +0.000 C 
ATOM     12  N   UNL     1      63.052  64.511  70.875  0.00  0.00    +0.000 N 
ATOM     13  C   UNL     1      62.684  63.815  70.628  0.00  0.00    +0.000 C 
ATOM     14  C   UNL     1      62.557  64.539  71.534  0.00  0.00    +0.000 C 
ATOM     15  C   UNL     1      63.547  64.483  70.216  0.00  0.00    +0.000 C 
ENDROOT
TORSDOF 0
ENDMDL
MODEL 6
REMARK VINA RESULT:    -6.636      5.435      6.515
REMARK INTER + INTRA:          -6.636
REMARK INTER:                  -6.636
REMARK INTRA:                   0.000
REMARK UNBOUND:                 0.000
ROOT
REMARK  Name = echothiophate
REMARK                            x       y       z     vdW  Elec       q    Type
REMARK                         _______ _______ _______ _____ _____    ______ ____
ATOM      1  C   UNL     1      60.503  61.997  70.802  0.00  0.00    +0.000 C 
ATOM      2  C   UNL     1      60.505  62.810  70.658  0.00  0.00    +0.000 C 
ATOM      3  O   UNL     1      60.052  63.313  71.128  0.00  0.00    +0.000 OA
ATOM      4  P   UNL     1      60.054  64.125  70.985  0.00  0.00    +0.000 P 
ATOM      5  O   UNL     1      60.580  64.014  70.359  0.00  0.00    +0.000 OA
ATOM      6  O   UNL     1      59.528  64.238  71.611  0.00  0.00    +0.000 OA
ATOM      7  C   UNL     1      59.268  64.998  71.799  0.00  0.00    +0.000 C 
ATOM      8  C   UNL     1      58.743  65.110  72.424  0.00  0.00    +0.000 C 
ATOM      9  S   UNL     1      60.057  64.938  70.841  0.00  0.00    +0.000 S 
ATOM     10  C   UNL     1      59.603  65.441  71.311  0.00  0.00    +0.000 C 
ATOM     11  C   UNL     1      59.606  66.254  71.167  0.00  0.00    +0.000 C 
ATOM     12  N   UNL     1      59.152  66.757  71.637  0.00  0.00    +0.000 N 
ATOM     13  C   UNL     1      58.698  67.261  72.108  0.00  0.00    +0.000 C 
ATOM     14  C   UNL     1      59.417  67.405  71.200  0.00  0.00    +0.000 C 
ATOM     15  C   UNL     1      58.887  66.110  72.075  0.00  0.00    +0.000 C 
ENDROOT
TORSDOF 0
ENDMDL
MODEL 7
REMARK VINA RESULT:    -6.492      3.855      4.816
REMARK INTER + INTRA:          -6.492
REMARK INTER:                  -6.492
REMARK INTRA:                   0.000
REMARK UNBOUND:                 0.000
ROOT
REMARK  Name = echothiophate
REMARK                            x       y       z     vdW  Elec       q    Type
REMARK                         _______ _______ _______ _____ _____    ______ ____
ATOM      1  C   UNL     1      64.183  66.188  69.742  0.00  0.00    +0.000 C 
ATOM      2  C   UNL     1      63.708  65.599  70.072  0.00  0.00    +0.000 C 
ATOM      3  O   UNL     1      63.225  65.140  69.587  0.00  0.00    +0.000 OA
ATOM      4  P   UNL     1      62.750  64.551  69.916  0.00  0.00    +0.000 P 
ATOM      5  O   UNL     1      63.034  64.741  70.667  0.00  0.00    +0.000 OA
ATOM      6  O   UNL     1      62.465  64.360  69.165  0.00  0.00    +0.000 OA
ATOM      7  C   UNL     1      61.912  63.755  69.075  0.00  0.00    +0.000 C 
ATOM      8  C   UNL     1      61.628  63.564  68.326  0.00  0.00    +0.000 C 
ATOM      9  S   UNL     1      62.275  63.961  70.246  0.00  0.00    +0.000 S 
ATOM     10  C   UNL     1      61.792  63.502  69.761  0.00  0.00    +0.000 C 
ATOM     11  C   UNL     1      61.317  62.914  70.090  0.00  0.00    +0.000 C 
ATOM     12  N   UNL     1      60.833  62.454  69.604  0.00  0.00    +0.000 N 
ATOM     13  C   UNL     1      60.349  61.995  69.119  0.00  0.00    +0.000 C 
ATOM     14  C   UNL     1      60.564  62.039  70.265  0.00  0.00    +0.000 C 
ATOM     15  C   UNL     1      61.102  62.869  68.944  0.00  0.00    +0.000 C 
ENDROOT
TORSDOF 0
ENDMDL
MODEL 8
REMARK VINA RESULT:    -6.397      5.355      6.134
REMARK INTER + INTRA:          -6.397
REMARK INTER:                  -6.397
REMARK INTRA:                   0.000
REMARK UNBOUND:                 0.000
ROOT
REMARK  Name = echothiophate
REMARK                            x       y       z     vdW  Elec       q    Type
REMARK                         _______ _______ _______ _____ _____    ______ ____
ATOM      1  C   UNL     1      60.498  61.636  70.602  0.00  0.00    +0.000 C 
ATOM      2  C   UNL     1      60.699  62.334  70.995  0.00  0.00    +0.000 C 
ATOM      3  O   UNL     1      61.363  62.762  70.762  0.00  0.00    +0.000 OA
ATOM      4  P   UNL     1      61.565  63.458  71.154  0.00  0.00    +0.000 P 
ATOM      5  O   UNL     1      60.913  63.367  71.651  0.00  0.00    +0.000 OA
ATOM      6  O   UNL     1      62.217  63.551  70.658  0.00  0.00    +0.000 OA
ATOM      7  C   UNL     1      62.717  64.200  70.750  0.00  0.00    +0.000 C 
ATOM      8  C   UNL     1      63.369  64.292  70.254  0.00  0.00    +0.000 C 
ATOM      9  S   UNL     1      61.766  64.156  71.548  0.00  0.00    +0.000 S 
ATOM     10  C   UNL     1      62.430  64.584  71.314  0.00  0.00    +0.000 C 
ATOM     11  C   UNL     1      62.631  65.281  71.707  0.00  0.00    +0.000 C 
ATOM     12  N   UNL     1      63.297  65.709  71.474  0.00  0.00    +0.000 N 
ATOM     13  C   UNL     1      63.962  66.137  71.240  0.00  0.00    +0.000 C 
ATOM     14  C   UNL     1      63.144  66.267  72.062  0.00  0.00    +0.000 C 
ATOM     15  C   UNL     1      63.449  65.152  70.885  0.00  0.00    +0.000 C 
ENDROOT
TORSDOF 0
ENDMDL
MODEL 9
REMARK VINA RESULT:    -6.304      5.073      6.315
REMARK INTER + INTRA:          -6.304
REMARK INTER:                  -6.304
REMARK INTRA:                   0.000
REMARK UNBOUND:                 0.000
ROOT
REMARK  Name = echothiophate
REMARK                            x       y       z     vdW  Elec       q    Type
REMARK                         _______ _______ _______ _____ _____    ______ ____
ATOM      1  C   UNL     1      63.099  66.470  72.463  0.00  0.00    +0.000 C 
ATOM      2  C   UNL     1      62.786  66.003  71.858  0.00  0.00    +0.000 C 
ATOM      3  O   UNL     1      62.440  65.276  72.035  0.00  0.00    +0.000 OA
ATOM      4  P   UNL     1      62.127  64.809  71.432  0.00  0.00    +0.000 P 
ATOM      5  O   UNL     1      62.346  65.380  70.877  0.00  0.00    +0.000 OA
ATOM      6  O   UNL     1      61.908  64.238  71.985  0.00  0.00    +0.000 OA
ATOM      7  C   UNL     1      61.528  63.549  71.739  0.00  0.00    +0.000 C 
ATOM      8  C   UNL     1      61.309  62.979  72.292  0.00  0.00    +0.000 C 
ATOM      9  S   UNL     1      61.814  64.342  70.827  0.00  0.00    +0.000 S 
ATOM     10  C   UNL     1      61.468  63.616  71.004  0.00  0.00    +0.000 C 
ATOM     11  C   UNL     1      61.155  63.149  70.400  0.00  0.00    +0.000 C 
ATOM     12  N   UNL     1      60.809  62.422  70.578  0.00  0.00    +0.000 N 
ATOM     13  C   UNL     1      60.463  61.694  70.755  0.00  0.00    +0.000 C 
ATOM     14  C   UNL     1      60.648  62.303  69.778  0.00  0.00    +0.000 C 
ATOM     15  C   UNL     1      60.971  62.540  71.378  0.00  0.00    +0.000 C 
ENDROOT
TORSDOF 0
ENDMDL
