MODEL 1
REMARK VINA RESULT:    -8.069      0.000      0.000
REMARK INTER + INTRA:          -8.069
REMARK INTER:                  -8.069
REMARK INTRA:                   0.000
REMARK UNBOUND:                 0.000
ROOT
REMARK  Name = edaravone
REMARK                            x       y       z     vdW  Elec       q    Type
REMARK                         _______ _______ _______ _____ _____    ______ ____
ATOM      1  C   UNL     1      60.234  63.157  68.035  0.00  0.00    +0.000 C 
ATOM      2  C   UNL     1      60.250  62.768  67.306  0.00  0.00    +0.000 C 
ATOM      3  N   UNL     1      60.904  62.694  66.811  0.00  0.00    +0.000 NA
ATOM      4  N   UNL     1      60.672  62.265  66.145  0.00  0.00    +0.000 N 
ATOM      5  C   UNL     1      59.874  62.075  66.230  0.00  0.00    +0.000 C 
ATOM      6  O   UNL     1      59.417  61.648  65.691  0.00  0.00    +0.000 OA
ATOM      7  C   UNL     1      59.612  62.386  66.948  0.00  0.00    +0.000 C 
ATOM      8  C   UNL     1      61.154  62.062  65.506  0.00  0.00    +0.000 A 
ATOM      9  C   UNL     1      61.946  62.292  65.499  0.00  0.00    +0.000 A 
ATOM     10  C   UNL     1      62.428  62.089  64.860  0.00  0.00    +0.000 A 
ATOM     11  C   UNL     1      62.118  61.657  64.231  0.00  0.00    +0.000 A 
ATOM     12  C   UNL     1      61.325  61.427  64.238  0.00  0.00    +0.000 A 
ATOM     13  C   UNL     1      60.843  61.630  64.877  0.00  0.00    +0.000 A 
ENDROOT
TORSDOF 0
ENDMDL
MODEL 2
REMARK VINA RESULT:    -7.881      1.144      3.074
REMARK INTER + INTRA:          -7.881
REMARK INTER:                  -7.881
REMARK INTRA:                   0.000
REMARK UNBOUND:                 0.000
ROOT
REMARK  Name = edaravone
REMARK                            x       y       z     vdW  Elec       q    Type
REMARK                         _______ _______ _______ _____ _____    ______ ____
ATOM      1  C   UNL     1      62.071  61.347  63.489  0.00  0.00    +0.000 C 
ATOM      2  C   UNL     1      61.881  61.664  64.228  0.00  0.00    +0.000 C 
ATOM      3  N   UNL     1      61.139  61.650  64.585  0.00  0.00    +0.000 NA
ATOM      4  N   UNL     1      61.200  62.028  65.316  0.00  0.00    +0.000 N 
ATOM      5  C   UNL     1      61.981  62.276  65.410  0.00  0.00    +0.000 C 
ATOM      6  O   UNL     1      62.287  62.678  66.062  0.00  0.00    +0.000 OA
ATOM      7  C   UNL     1      62.403  62.051  64.737  0.00  0.00    +0.000 C 
ATOM      8  C   UNL     1      60.587  62.139  65.858  0.00  0.00    +0.000 A 
ATOM      9  C   UNL     1      59.831  61.859  65.687  0.00  0.00    +0.000 A 
ATOM     10  C   UNL     1      59.218  61.971  66.229  0.00  0.00    +0.000 A 
ATOM     11  C   UNL     1      59.363  62.361  66.940  0.00  0.00    +0.000 A 
ATOM     12  C   UNL     1      60.120  62.641  67.112  0.00  0.00    +0.000 A 
ATOM     13  C   UNL     1      60.733  62.529  66.570  0.00  0.00    +0.000 A 
ENDROOT
TORSDOF 0
ENDMDL
MODEL 3
REMARK VINA RESULT:    -6.951      3.480      5.465
REMARK INTER + INTRA:          -6.951
REMARK INTER:                  -6.951
REMARK INTRA:                   0.000
REMARK UNBOUND:                 0.000
ROOT
REMARK  Name = edaravone
REMARK                            x       y       z     vdW  Elec       q    Type
REMARK                         _______ _______ _______ _____ _____    ______ ____
ATOM      1  C   UNL     1      60.890  62.769  68.203  0.00  0.00    +0.000 C 
ATOM      2  C   UNL     1      60.834  62.606  69.011  0.00  0.00    +0.000 C 
ATOM      3  N   UNL     1      61.191  63.036  69.617  0.00  0.00    +0.000 NA
ATOM      4  N   UNL     1      60.990  62.681  70.334  0.00  0.00    +0.000 N 
ATOM      5  C   UNL     1      60.508  62.032  70.170  0.00  0.00    +0.000 C 
ATOM      6  O   UNL     1      60.179  61.518  70.727  0.00  0.00    +0.000 OA
ATOM      7  C   UNL     1      60.412  61.985  69.352  0.00  0.00    +0.000 C 
ATOM      8  C   UNL     1      61.228  62.931  71.084  0.00  0.00    +0.000 A 
ATOM      9  C   UNL     1      61.713  63.593  71.162  0.00  0.00    +0.000 A 
ATOM     10  C   UNL     1      61.951  63.844  71.911  0.00  0.00    +0.000 A 
ATOM     11  C   UNL     1      61.705  63.432  72.581  0.00  0.00    +0.000 A 
ATOM     12  C   UNL     1      61.219  62.769  72.503  0.00  0.00    +0.000 A 
ATOM     13  C   UNL     1      60.981  62.518  71.754  0.00  0.00    +0.000 A 
ENDROOT
TORSDOF 0
ENDMDL
MODEL 4
REMARK VINA RESULT:    -6.884      5.635      6.378
REMARK INTER + INTRA:          -6.884
REMARK INTER:                  -6.884
REMARK INTRA:                   0.000
REMARK UNBOUND:                 0.000
ROOT
REMARK  Name = edaravone
REMARK                            x       y       z     vdW  Elec       q    Type
REMARK                         _______ _______ _______ _____ _____    ______ ____
ATOM      1  C   UNL     1      58.994  65.383  72.107  0.00  0.00    +0.000 C 
ATOM      2  C   UNL     1      59.614  64.839  72.152  0.00  0.00    +0.000 C 
ATOM      3  N   UNL     1      59.662  64.125  71.742  0.00  0.00    +0.000 NA
ATOM      4  N   UNL     1      60.371  63.758  71.951  0.00  0.00    +0.000 N 
ATOM      5  C   UNL     1      60.761  64.246  72.490  0.00  0.00    +0.000 C 
ATOM      6  O   UNL     1      61.491  64.092  72.843  0.00  0.00    +0.000 OA
ATOM      7  C   UNL     1      60.293  64.914  72.615  0.00  0.00    +0.000 C 
ATOM      8  C   UNL     1      60.642  63.031  71.670  0.00  0.00    +0.000 A 
ATOM      9  C   UNL     1      60.190  62.604  71.129  0.00  0.00    +0.000 A 
ATOM     10  C   UNL     1      60.461  61.877  70.848  0.00  0.00    +0.000 A 
ATOM     11  C   UNL     1      61.184  61.579  71.107  0.00  0.00    +0.000 A 
ATOM     12  C   UNL     1      61.638  62.006  71.649  0.00  0.00    +0.000 A 
ATOM     13  C   UNL     1      61.366  62.733  71.930  0.00  0.00    +0.000 A 
ENDROOT
TORSDOF 0
ENDMDL
MODEL 5
REMARK VINA RESULT:    -6.847      6.631      7.732
REMARK INTER + INTRA:          -6.847
REMARK INTER:                  -6.847
REMARK INTRA:                   0.000
REMARK UNBOUND:                 0.000
ROOT
REMARK  Name = edaravone
REMARK                            x       y       z     vdW  Elec       q    Type
REMARK                         _______ _______ _______ _____ _____    ______ ____
ATOM      1  C   UNL     1      66.583  67.983  69.821  0.00  0.00    +0.000 C 
ATOM      2  C   UNL     1      66.023  67.507  70.198  0.00  0.00    +0.000 C 
ATOM      3  N   UNL     1      65.640  66.856  69.868  0.00  0.00    +0.000 NA
ATOM      4  N   UNL     1      65.129  66.546  70.437  0.00  0.00    +0.000 N 
ATOM      5  C   UNL     1      65.196  67.008  71.118  0.00  0.00    +0.000 C 
ATOM      6  O   UNL     1      64.782  66.894  71.824  0.00  0.00    +0.000 OA
ATOM      7  C   UNL     1      65.749  67.602  70.970  0.00  0.00    +0.000 C 
ATOM      8  C   UNL     1      64.636  65.891  70.342  0.00  0.00    +0.000 A 
ATOM      9  C   UNL     1      64.629  65.483  69.626  0.00  0.00    +0.000 A 
ATOM     10  C   UNL     1      64.136  64.827  69.531  0.00  0.00    +0.000 A 
ATOM     11  C   UNL     1      63.653  64.581  70.151  0.00  0.00    +0.000 A 
ATOM     12  C   UNL     1      63.660  64.990  70.868  0.00  0.00    +0.000 A 
ATOM     13  C   UNL     1      64.153  65.645  70.963  0.00  0.00    +0.000 A 
ENDROOT
TORSDOF 0
ENDMDL
MODEL 6
REMARK VINA RESULT:    -6.807      6.294      7.441
REMARK INTER + INTRA:          -6.807
REMARK INTER:                  -6.807
REMARK INTRA:                   0.000
REMARK UNBOUND:                 0.000
ROOT
REMARK  Name = edaravone
REMARK                            x       y       z     vdW  Elec       q    Type
REMARK                         _______ _______ _______ _____ _____    ______ ____
ATOM      1  C   UNL     1      62.847  64.626  71.353  0.00  0.00    +0.000 C 
ATOM      2  C   UNL     1      63.423  65.026  70.916  0.00  0.00    +0.000 C 
ATOM      3  N   UNL     1      63.871  65.666  71.178  0.00  0.00    +0.000 NA
ATOM      4  N   UNL     1      64.375  65.892  70.564  0.00  0.00    +0.000 N 
ATOM      5  C   UNL     1      64.238  65.390  69.924  0.00  0.00    +0.000 C 
ATOM      6  O   UNL     1      64.622  65.419  69.194  0.00  0.00    +0.000 OA
ATOM      7  C   UNL     1      63.648  64.855  70.141  0.00  0.00    +0.000 C 
ATOM      8  C   UNL     1      64.922  66.510  70.587  0.00  0.00    +0.000 A 
ATOM      9  C   UNL     1      64.998  66.966  71.270  0.00  0.00    +0.000 A 
ATOM     10  C   UNL     1      65.544  67.585  71.293  0.00  0.00    +0.000 A 
ATOM     11  C   UNL     1      66.013  67.746  70.634  0.00  0.00    +0.000 A 
ATOM     12  C   UNL     1      65.936  67.289  69.951  0.00  0.00    +0.000 A 
ATOM     13  C   UNL     1      65.390  66.671  69.928  0.00  0.00    +0.000 A 
ENDROOT
TORSDOF 0
ENDMDL
MODEL 7
REMARK VINA RESULT:    -6.658      2.255      3.174
REMARK INTER + INTRA:          -6.658
REMARK INTER:                  -6.658
REMARK INTRA:                   0.000
REMARK UNBOUND:                 0.000
ROOT
REMARK  Name = edaravone
REMARK                            x       y       z     vdW  Elec       q    Type
REMARK                         _______ _______ _______ _____ _____    ______ ____
ATOM      1  C   UNL     1      60.524  61.680  70.799  0.00  0.00    +0.000 C 
ATOM      2  C   UNL     1      60.700  62.097  70.108  0.00  0.00    +0.000 C 
ATOM      3  N   UNL     1      60.392  61.944  69.359  0.00  0.00    +0.000 NA
ATOM      4  N   UNL     1      60.716  62.492  68.834  0.00  0.00    +0.000 N 
ATOM      5  C   UNL     1      61.225  62.983  69.259  0.00  0.00    +0.000 C 
ATOM      6  O   UNL     1      61.666  63.608  68.951  0.00  0.00    +0.000 OA
ATOM      7  C   UNL     1      61.215  62.738  70.048  0.00  0.00    +0.000 C 
ATOM      8  C   UNL     1      60.560  62.540  68.025  0.00  0.00    +0.000 A 
ATOM      9  C   UNL     1      60.036  62.009  67.675  0.00  0.00    +0.000 A 
ATOM     10  C   UNL     1      59.879  62.057  66.866  0.00  0.00    +0.000 A 
ATOM     11  C   UNL     1      60.246  62.636  66.408  0.00  0.00    +0.000 A 
ATOM     12  C   UNL     1      60.771  63.169  66.759  0.00  0.00    +0.000 A 
ATOM     13  C   UNL     1      60.927  63.120  67.568  0.00  0.00    +0.000 A 
ENDROOT
TORSDOF 0
ENDMDL
MODEL 8
REMARK VINA RESULT:    -6.643      3.929      5.162
REMARK INTER + INTRA:          -6.643
REMARK INTER:                  -6.643
REMARK INTRA:                   0.000
REMARK UNBOUND:                 0.000
ROOT
REMARK  Name = edaravone
REMARK                            x       y       z     vdW  Elec       q    Type
REMARK                         _______ _______ _______ _____ _____    ______ ____
ATOM      1  C   UNL     1      61.626  62.934  73.106  0.00  0.00    +0.000 C 
ATOM      2  C   UNL     1      61.531  63.100  72.303  0.00  0.00    +0.000 C 
ATOM      3  N   UNL     1      61.223  62.587  71.736  0.00  0.00    +0.000 NA
ATOM      4  N   UNL     1      61.229  62.978  71.009  0.00  0.00    +0.000 N 
ATOM      5  C   UNL     1      61.540  63.732  71.128  0.00  0.00    +0.000 C 
ATOM      6  O   UNL     1      61.647  64.310  70.548  0.00  0.00    +0.000 OA
ATOM      7  C   UNL     1      61.727  63.808  71.928  0.00  0.00    +0.000 C 
ATOM      8  C   UNL     1      60.969  62.668  70.289  0.00  0.00    +0.000 A 
ATOM      9  C   UNL     1      60.669  61.901  70.256  0.00  0.00    +0.000 A 
ATOM     10  C   UNL     1      60.409  61.591  69.536  0.00  0.00    +0.000 A 
ATOM     11  C   UNL     1      60.449  62.049  68.852  0.00  0.00    +0.000 A 
ATOM     12  C   UNL     1      60.749  62.817  68.885  0.00  0.00    +0.000 A 
ATOM     13  C   UNL     1      61.009  63.127  69.605  0.00  0.00    +0.000 A 
ENDROOT
TORSDOF 0
ENDMDL
MODEL 9
REMARK VINA RESULT:    -6.620      5.834      6.769
REMARK INTER + INTRA:          -6.620
REMARK INTER:                  -6.620
REMARK INTRA:                   0.000
REMARK UNBOUND:                 0.000
ROOT
REMARK  Name = edaravone
REMARK                            x       y       z     vdW  Elec       q    Type
REMARK                         _______ _______ _______ _____ _____    ______ ____
ATOM      1  C   UNL     1      64.158  64.776  69.678  0.00  0.00    +0.000 C 
ATOM      2  C   UNL     1      63.652  64.778  70.332  0.00  0.00    +0.000 C 
ATOM      3  N   UNL     1      63.148  64.166  70.555  0.00  0.00    +0.000 NA
ATOM      4  N   UNL     1      62.747  64.402  71.237  0.00  0.00    +0.000 N 
ATOM      5  C   UNL     1      63.006  65.161  71.435  0.00  0.00    +0.000 C 
ATOM      6  O   UNL     1      62.749  65.608  72.079  0.00  0.00    +0.000 OA
ATOM      7  C   UNL     1      63.566  65.393  70.874  0.00  0.00    +0.000 C 
ATOM      8  C   UNL     1      62.187  63.958  71.650  0.00  0.00    +0.000 A 
ATOM      9  C   UNL     1      61.983  63.205  71.385  0.00  0.00    +0.000 A 
ATOM     10  C   UNL     1      61.423  62.760  71.798  0.00  0.00    +0.000 A 
ATOM     11  C   UNL     1      61.068  63.070  72.474  0.00  0.00    +0.000 A 
ATOM     12  C   UNL     1      61.272  63.825  72.739  0.00  0.00    +0.000 A 
ATOM     13  C   UNL     1      61.832  64.269  72.326  0.00  0.00    +0.000 A 
ENDROOT
TORSDOF 0
ENDMDL
