MODEL 1
REMARK VINA RESULT:   -15.939      0.000      0.000
REMARK INTER + INTRA:         -15.939
REMARK INTER:                 -15.939
REMARK INTRA:                   0.000
REMARK UNBOUND:                 0.000
ROOT
REMARK  Name = elexacaftor
REMARK                            x       y       z     vdW  Elec       q    Type
REMARK                         _______ _______ _______ _____ _____    ______ ____
ATOM      1  C   UNL     1      63.655  66.620  70.643  0.00  0.00    +0.000 C 
ATOM      2  C   UNL     1      63.248  66.108  70.139  0.00  0.00    +0.000 C 
ATOM      3  C   UNL     1      62.446  65.920  70.183  0.00  0.00    +0.000 C 
ATOM      4  N   UNL     1      62.274  65.390  69.575  0.00  0.00    +0.000 N 
ATOM      5  C   UNL     1      61.536  65.059  69.415  0.00  0.00    +0.000 A 
ATOM      6  C   UNL     1      60.886  65.251  69.885  0.00  0.00    +0.000 A 
ATOM      7  C   UNL     1      60.148  64.920  69.726  0.00  0.00    +0.000 A 
ATOM      8  C   UNL     1      60.059  64.396  69.095  0.00  0.00    +0.000 A 
ATOM      9  C   UNL     1      60.709  64.203  68.625  0.00  0.00    +0.000 A 
ATOM     10  N   UNL     1      61.448  64.534  68.784  0.00  0.00    +0.000 NA
ATOM     11  N   UNL     1      60.621  63.678  67.994  0.00  0.00    +0.000 N 
ATOM     12  C   UNL     1      59.920  63.305  67.768  0.00  0.00    +0.000 A 
ATOM     13  C   UNL     1      60.083  62.831  67.113  0.00  0.00    +0.000 A 
ATOM     14  C   UNL     1      60.885  62.911  66.934  0.00  0.00    +0.000 A 
ATOM     15  O   UNL     1      61.284  62.533  66.318  0.00  0.00    +0.000 OA
ATOM     16  C   UNL     1      60.877  62.022  65.815  0.00  0.00    +0.000 C 
ATOM     17  C   UNL     1      61.276  61.644  65.199  0.00  0.00    +0.000 C 
ATOM     18  C   UNL     1      60.577  61.272  64.974  0.00  0.00    +0.000 C 
ATOM     19  C   UNL     1      61.977  62.018  65.425  0.00  0.00    +0.000 C 
ATOM     20  C   UNL     1      61.676  61.267  64.584  0.00  0.00    +0.000 C 
ATOM     21  F   UNL     1      62.076  60.890  63.969  0.00  0.00    +0.000 F 
ATOM     22  F   UNL     1      60.975  60.894  64.358  0.00  0.00    +0.000 F 
ATOM     23  F   UNL     1      62.377  61.640  64.810  0.00  0.00    +0.000 F 
ATOM     24  N   UNL     1      61.217  63.435  67.478  0.00  0.00    +0.000 NA
ATOM     25  C   UNL     1      60.975  65.776  70.516  0.00  0.00    +0.000 C 
ATOM     26  O   UNL     1      60.326  65.969  70.986  0.00  0.00    +0.000 OA
ATOM     27  N   UNL     1      61.713  66.107  70.676  0.00  0.00    +0.000 NA
ATOM     28  S   UNL     1      61.802  66.632  71.306  0.00  0.00    +0.000 S 
ATOM     29  O   UNL     1      61.001  66.552  71.486  0.00  0.00    +0.000 OA
ATOM     30  O   UNL     1      62.603  66.712  71.128  0.00  0.00    +0.000 OA
ATOM     31  C   UNL     1      61.891  67.157  71.937  0.00  0.00    +0.000 A 
ATOM     32  C   UNL     1      62.591  67.530  72.163  0.00  0.00    +0.000 A 
ATOM     33  N   UNL     1      62.428  68.004  72.818  0.00  0.00    +0.000 N 
ATOM     34  C   UNL     1      62.970  68.475  73.222  0.00  0.00    +0.000 C 
ATOM     35  N   UNL     1      61.626  67.924  72.997  0.00  0.00    +0.000 NA
ATOM     36  C   UNL     1      61.294  67.401  72.453  0.00  0.00    +0.000 A 
ATOM     37  C   UNL     1      60.505  67.162  72.428  0.00  0.00    +0.000 C 
ATOM     38  C   UNL     1      62.971  65.251  69.155  0.00  0.00    +0.000 C 
ATOM     39  C   UNL     1      62.493  64.755  68.698  0.00  0.00    +0.000 C 
ATOM     40  C   UNL     1      63.566  65.006  68.639  0.00  0.00    +0.000 C 
ATOM     41  C   UNL     1      63.572  65.693  69.503  0.00  0.00    +0.000 C 
ENDROOT
TORSDOF 0
ENDMDL
MODEL 2
REMARK VINA RESULT:   -15.519      2.163      2.385
REMARK INTER + INTRA:         -15.519
REMARK INTER:                 -15.519
REMARK INTRA:                   0.000
REMARK UNBOUND:                 0.000
ROOT
REMARK  Name = elexacaftor
REMARK                            x       y       z     vdW  Elec       q    Type
REMARK                         _______ _______ _______ _____ _____    ______ ____
ATOM      1  C   UNL     1      59.605  67.276  70.137  0.00  0.00    +0.000 C 
ATOM      2  C   UNL     1      59.843  66.596  69.732  0.00  0.00    +0.000 C 
ATOM      3  C   UNL     1      59.815  65.825  70.023  0.00  0.00    +0.000 C 
ATOM      4  N   UNL     1      60.105  65.321  69.437  0.00  0.00    +0.000 N 
ATOM      5  C   UNL     1      60.175  64.501  69.494  0.00  0.00    +0.000 A 
ATOM      6  C   UNL     1      59.944  64.114  70.184  0.00  0.00    +0.000 A 
ATOM      7  C   UNL     1      60.014  63.294  70.241  0.00  0.00    +0.000 A 
ATOM      8  C   UNL     1      60.316  62.861  69.607  0.00  0.00    +0.000 A 
ATOM      9  C   UNL     1      60.547  63.248  68.916  0.00  0.00    +0.000 A 
ATOM     10  N   UNL     1      60.477  64.068  68.859  0.00  0.00    +0.000 NA
ATOM     11  N   UNL     1      60.849  62.816  68.282  0.00  0.00    +0.000 N 
ATOM     12  C   UNL     1      60.951  61.997  68.258  0.00  0.00    +0.000 A 
ATOM     13  C   UNL     1      61.266  61.800  67.522  0.00  0.00    +0.000 A 
ATOM     14  C   UNL     1      61.359  62.497  67.090  0.00  0.00    +0.000 A 
ATOM     15  O   UNL     1      61.658  62.557  66.323  0.00  0.00    +0.000 OA
ATOM     16  C   UNL     1      61.895  61.878  65.919  0.00  0.00    +0.000 C 
ATOM     17  C   UNL     1      62.194  61.937  65.152  0.00  0.00    +0.000 C 
ATOM     18  C   UNL     1      62.296  61.119  65.129  0.00  0.00    +0.000 C 
ATOM     19  C   UNL     1      62.092  62.755  65.176  0.00  0.00    +0.000 C 
ATOM     20  C   UNL     1      62.492  61.997  64.386  0.00  0.00    +0.000 C 
ATOM     21  F   UNL     1      62.791  62.056  63.619  0.00  0.00    +0.000 F 
ATOM     22  F   UNL     1      62.594  61.178  64.362  0.00  0.00    +0.000 F 
ATOM     23  F   UNL     1      62.390  62.815  64.409  0.00  0.00    +0.000 F 
ATOM     24  N   UNL     1      61.101  63.125  67.560  0.00  0.00    +0.000 NA
ATOM     25  C   UNL     1      59.643  64.547  70.818  0.00  0.00    +0.000 C 
ATOM     26  O   UNL     1      59.412  64.160  71.509  0.00  0.00    +0.000 OA
ATOM     27  N   UNL     1      59.573  65.367  70.762  0.00  0.00    +0.000 NA
ATOM     28  S   UNL     1      59.271  65.800  71.396  0.00  0.00    +0.000 S 
ATOM     29  O   UNL     1      59.178  65.103  71.828  0.00  0.00    +0.000 OA
ATOM     30  O   UNL     1      59.364  66.497  70.965  0.00  0.00    +0.000 OA
ATOM     31  C   UNL     1      58.970  66.233  72.030  0.00  0.00    +0.000 A 
ATOM     32  C   UNL     1      58.867  67.051  72.054  0.00  0.00    +0.000 A 
ATOM     33  N   UNL     1      58.552  67.248  72.790  0.00  0.00    +0.000 N 
ATOM     34  C   UNL     1      58.363  68.007  73.050  0.00  0.00    +0.000 C 
ATOM     35  N   UNL     1      58.459  66.551  73.222  0.00  0.00    +0.000 NA
ATOM     36  C   UNL     1      58.717  65.923  72.753  0.00  0.00    +0.000 A 
ATOM     37  C   UNL     1      58.722  65.127  72.967  0.00  0.00    +0.000 C 
ATOM     38  C   UNL     1      60.312  65.782  68.785  0.00  0.00    +0.000 C 
ATOM     39  C   UNL     1      60.527  65.058  68.451  0.00  0.00    +0.000 C 
ATOM     40  C   UNL     1      60.565  66.091  68.062  0.00  0.00    +0.000 C 
ATOM     41  C   UNL     1      60.151  66.570  68.967  0.00  0.00    +0.000 C 
ENDROOT
TORSDOF 0
ENDMDL
MODEL 3
REMARK VINA RESULT:   -14.280      3.491      7.330
REMARK INTER + INTRA:         -14.280
REMARK INTER:                 -14.280
REMARK INTRA:                   0.000
REMARK UNBOUND:                 0.000
ROOT
REMARK  Name = elexacaftor
REMARK                            x       y       z     vdW  Elec       q    Type
REMARK                         _______ _______ _______ _____ _____    ______ ____
ATOM      1  C   UNL     1      59.474  61.367  65.222  0.00  0.00    +0.000 C 
ATOM      2  C   UNL     1      59.646  61.786  65.913  0.00  0.00    +0.000 C 
ATOM      3  C   UNL     1      60.374  62.123  66.106  0.00  0.00    +0.000 C 
ATOM      4  N   UNL     1      60.299  62.487  66.843  0.00  0.00    +0.000 N 
ATOM      5  C   UNL     1      60.894  62.891  67.247  0.00  0.00    +0.000 A 
ATOM      6  C   UNL     1      61.645  62.960  66.915  0.00  0.00    +0.000 A 
ATOM      7  C   UNL     1      62.240  63.364  67.318  0.00  0.00    +0.000 A 
ATOM      8  C   UNL     1      62.083  63.701  68.055  0.00  0.00    +0.000 A 
ATOM      9  C   UNL     1      61.331  63.633  68.387  0.00  0.00    +0.000 A 
ATOM     10  N   UNL     1      60.736  63.228  67.984  0.00  0.00    +0.000 NA
ATOM     11  N   UNL     1      61.173  63.969  69.124  0.00  0.00    +0.000 N 
ATOM     12  C   UNL     1      61.709  64.389  69.591  0.00  0.00    +0.000 A 
ATOM     13  C   UNL     1      61.320  64.624  70.278  0.00  0.00    +0.000 A 
ATOM     14  C   UNL     1      60.542  64.351  70.237  0.00  0.00    +0.000 A 
ATOM     15  O   UNL     1      59.957  64.463  70.809  0.00  0.00    +0.000 OA
ATOM     16  C   UNL     1      60.130  64.882  71.498  0.00  0.00    +0.000 C 
ATOM     17  C   UNL     1      59.546  64.994  72.070  0.00  0.00    +0.000 C 
ATOM     18  C   UNL     1      60.082  65.412  72.536  0.00  0.00    +0.000 C 
ATOM     19  C   UNL     1      59.009  64.575  71.603  0.00  0.00    +0.000 C 
ATOM     20  C   UNL     1      58.961  65.106  72.641  0.00  0.00    +0.000 C 
ATOM     21  F   UNL     1      58.376  65.218  73.212  0.00  0.00    +0.000 F 
ATOM     22  F   UNL     1      59.498  65.525  73.108  0.00  0.00    +0.000 F 
ATOM     23  F   UNL     1      58.424  64.687  72.175  0.00  0.00    +0.000 F 
ATOM     24  N   UNL     1      60.451  63.946  69.523  0.00  0.00    +0.000 NA
ATOM     25  C   UNL     1      61.802  62.623  66.179  0.00  0.00    +0.000 C 
ATOM     26  O   UNL     1      62.554  62.691  65.846  0.00  0.00    +0.000 OA
ATOM     27  N   UNL     1      61.208  62.218  65.774  0.00  0.00    +0.000 NA
ATOM     28  S   UNL     1      61.366  61.881  65.038  0.00  0.00    +0.000 S 
ATOM     29  O   UNL     1      62.143  62.154  65.079  0.00  0.00    +0.000 OA
ATOM     30  O   UNL     1      60.588  61.608  64.996  0.00  0.00    +0.000 OA
ATOM     31  C   UNL     1      61.523  61.544  64.301  0.00  0.00    +0.000 A 
ATOM     32  C   UNL     1      60.987  61.126  63.835  0.00  0.00    +0.000 A 
ATOM     33  N   UNL     1      61.377  60.890  63.147  0.00  0.00    +0.000 N 
ATOM     34  C   UNL     1      61.047  60.457  62.527  0.00  0.00    +0.000 C 
ATOM     35  N   UNL     1      62.154  61.163  63.188  0.00  0.00    +0.000 NA
ATOM     36  C   UNL     1      62.245  61.567  63.901  0.00  0.00    +0.000 A 
ATOM     37  C   UNL     1      62.935  61.931  64.169  0.00  0.00    +0.000 C 
ATOM     38  C   UNL     1      59.524  62.374  67.104  0.00  0.00    +0.000 C 
ATOM     39  C   UNL     1      59.777  62.803  67.764  0.00  0.00    +0.000 C 
ATOM     40  C   UNL     1      58.803  62.352  67.505  0.00  0.00    +0.000 C 
ATOM     41  C   UNL     1      59.121  61.941  66.530  0.00  0.00    +0.000 C 
ENDROOT
TORSDOF 0
ENDMDL
MODEL 4
REMARK VINA RESULT:   -13.468     15.784     16.852
REMARK INTER + INTRA:         -13.468
REMARK INTER:                 -13.468
REMARK INTRA:                   0.000
REMARK UNBOUND:                 0.000
ROOT
REMARK  Name = elexacaftor
REMARK                            x       y       z     vdW  Elec       q    Type
REMARK                         _______ _______ _______ _____ _____    ______ ____
ATOM      1  C   UNL     1      64.572  61.532  53.891  0.00  0.00    +0.000 C 
ATOM      2  C   UNL     1      64.200  62.264  53.812  0.00  0.00    +0.000 C 
ATOM      3  C   UNL     1      63.434  62.391  53.533  0.00  0.00    +0.000 C 
ATOM      4  N   UNL     1      63.289  63.203  53.547  0.00  0.00    +0.000 N 
ATOM      5  C   UNL     1      62.589  63.574  53.314  0.00  0.00    +0.000 A 
ATOM      6  C   UNL     1      61.956  63.125  53.037  0.00  0.00    +0.000 A 
ATOM      7  C   UNL     1      61.258  63.496  52.804  0.00  0.00    +0.000 A 
ATOM      8  C   UNL     1      61.192  64.317  52.848  0.00  0.00    +0.000 A 
ATOM      9  C   UNL     1      61.826  64.767  53.125  0.00  0.00    +0.000 A 
ATOM     10  N   UNL     1      62.525  64.396  53.358  0.00  0.00    +0.000 NA
ATOM     11  N   UNL     1      61.761  65.588  53.170  0.00  0.00    +0.000 N 
ATOM     12  C   UNL     1      61.100  66.035  52.958  0.00  0.00    +0.000 A 
ATOM     13  C   UNL     1      61.276  66.829  53.091  0.00  0.00    +0.000 A 
ATOM     14  C   UNL     1      62.045  66.875  53.385  0.00  0.00    +0.000 A 
ATOM     15  O   UNL     1      62.445  67.566  53.595  0.00  0.00    +0.000 OA
ATOM     16  C   UNL     1      62.073  68.297  53.515  0.00  0.00    +0.000 C 
ATOM     17  C   UNL     1      62.472  68.989  53.724  0.00  0.00    +0.000 C 
ATOM     18  C   UNL     1      61.811  69.434  53.512  0.00  0.00    +0.000 C 
ATOM     19  C   UNL     1      63.132  68.542  53.936  0.00  0.00    +0.000 C 
ATOM     20  C   UNL     1      62.871  69.679  53.933  0.00  0.00    +0.000 C 
ATOM     21  F   UNL     1      63.271  70.370  54.142  0.00  0.00    +0.000 F 
ATOM     22  F   UNL     1      62.211  70.126  53.721  0.00  0.00    +0.000 F 
ATOM     23  F   UNL     1      63.532  69.233  54.145  0.00  0.00    +0.000 F 
ATOM     24  N   UNL     1      62.345  66.107  53.434  0.00  0.00    +0.000 NA
ATOM     25  C   UNL     1      62.021  62.304  52.992  0.00  0.00    +0.000 C 
ATOM     26  O   UNL     1      61.388  61.854  52.715  0.00  0.00    +0.000 OA
ATOM     27  N   UNL     1      62.720  61.932  53.225  0.00  0.00    +0.000 NA
ATOM     28  S   UNL     1      62.785  61.111  53.181  0.00  0.00    +0.000 S 
ATOM     29  O   UNL     1      62.016  61.066  52.886  0.00  0.00    +0.000 OA
ATOM     30  O   UNL     1      63.555  61.156  53.475  0.00  0.00    +0.000 OA
ATOM     31  C   UNL     1      62.851  60.290  53.137  0.00  0.00    +0.000 A 
ATOM     32  C   UNL     1      63.511  59.843  53.348  0.00  0.00    +0.000 A 
ATOM     33  N   UNL     1      63.335  59.049  53.215  0.00  0.00    +0.000 N 
ATOM     34  C   UNL     1      63.840  58.411  53.352  0.00  0.00    +0.000 C 
ATOM     35  N   UNL     1      62.566  59.003  52.921  0.00  0.00    +0.000 NA
ATOM     36  C   UNL     1      62.266  59.770  52.872  0.00  0.00    +0.000 A 
ATOM     37  C   UNL     1      61.514  59.981  52.606  0.00  0.00    +0.000 C 
ATOM     38  C   UNL     1      63.965  63.577  53.834  0.00  0.00    +0.000 C 
ATOM     39  C   UNL     1      63.524  64.267  53.725  0.00  0.00    +0.000 C 
ATOM     40  C   UNL     1      64.549  64.098  54.098  0.00  0.00    +0.000 C 
ATOM     41  C   UNL     1      64.528  62.998  53.998  0.00  0.00    +0.000 C 
ENDROOT
TORSDOF 0
ENDMDL
MODEL 5
REMARK VINA RESULT:   -13.160     14.739     15.932
REMARK INTER + INTRA:         -13.160
REMARK INTER:                 -13.160
REMARK INTRA:                   0.000
REMARK UNBOUND:                 0.000
ROOT
REMARK  Name = elexacaftor
REMARK                            x       y       z     vdW  Elec       q    Type
REMARK                         _______ _______ _______ _____ _____    ______ ____
ATOM      1  C   UNL     1      61.455  69.536  55.262  0.00  0.00    +0.000 C 
ATOM      2  C   UNL     1      61.634  68.798  54.940  0.00  0.00    +0.000 C 
ATOM      3  C   UNL     1      61.350  68.499  54.225  0.00  0.00    +0.000 C 
ATOM      4  N   UNL     1      61.670  67.745  54.120  0.00  0.00    +0.000 N 
ATOM      5  C   UNL     1      61.532  67.246  53.477  0.00  0.00    +0.000 A 
ATOM      6  C   UNL     1      61.035  67.488  52.865  0.00  0.00    +0.000 A 
ATOM      7  C   UNL     1      60.897  66.990  52.223  0.00  0.00    +0.000 A 
ATOM      8  C   UNL     1      61.256  66.248  52.193  0.00  0.00    +0.000 A 
ATOM      9  C   UNL     1      61.754  66.005  52.805  0.00  0.00    +0.000 A 
ATOM     10  N   UNL     1      61.892  66.504  53.447  0.00  0.00    +0.000 NA
ATOM     11  N   UNL     1      62.113  65.263  52.775  0.00  0.00    +0.000 N 
ATOM     12  C   UNL     1      62.028  64.707  52.171  0.00  0.00    +0.000 A 
ATOM     13  C   UNL     1      62.483  64.048  52.366  0.00  0.00    +0.000 A 
ATOM     14  C   UNL     1      62.850  64.195  53.090  0.00  0.00    +0.000 A 
ATOM     15  O   UNL     1      63.357  63.682  53.491  0.00  0.00    +0.000 OA
ATOM     16  C   UNL     1      63.536  62.944  53.169  0.00  0.00    +0.000 C 
ATOM     17  C   UNL     1      64.042  62.431  53.570  0.00  0.00    +0.000 C 
ATOM     18  C   UNL     1      63.957  61.876  52.967  0.00  0.00    +0.000 C 
ATOM     19  C   UNL     1      64.127  62.987  54.174  0.00  0.00    +0.000 C 
ATOM     20  C   UNL     1      64.549  61.918  53.971  0.00  0.00    +0.000 C 
ATOM     21  F   UNL     1      65.055  61.405  54.373  0.00  0.00    +0.000 F 
ATOM     22  F   UNL     1      64.463  61.362  53.367  0.00  0.00    +0.000 F 
ATOM     23  F   UNL     1      64.634  62.474  54.575  0.00  0.00    +0.000 F 
ATOM     24  N   UNL     1      62.621  64.947  53.343  0.00  0.00    +0.000 NA
ATOM     25  C   UNL     1      60.675  68.230  52.896  0.00  0.00    +0.000 C 
ATOM     26  O   UNL     1      60.178  68.473  52.284  0.00  0.00    +0.000 OA
ATOM     27  N   UNL     1      60.813  68.729  53.537  0.00  0.00    +0.000 NA
ATOM     28  S   UNL     1      60.453  69.471  53.568  0.00  0.00    +0.000 S 
ATOM     29  O   UNL     1      60.087  69.324  52.844  0.00  0.00    +0.000 OA
ATOM     30  O   UNL     1      60.820  69.620  54.292  0.00  0.00    +0.000 OA
ATOM     31  C   UNL     1      60.094  70.213  53.599  0.00  0.00    +0.000 A 
ATOM     32  C   UNL     1      60.179  70.769  54.202  0.00  0.00    +0.000 A 
ATOM     33  N   UNL     1      59.724  71.429  54.007  0.00  0.00    +0.000 N 
ATOM     34  C   UNL     1      59.648  72.116  54.457  0.00  0.00    +0.000 C 
ATOM     35  N   UNL     1      59.357  71.281  53.283  0.00  0.00    +0.000 NA
ATOM     36  C   UNL     1      59.585  70.530  53.030  0.00  0.00    +0.000 A 
ATOM     37  C   UNL     1      59.348  70.159  52.332  0.00  0.00    +0.000 C 
ATOM     38  C   UNL     1      62.151  67.579  54.769  0.00  0.00    +0.000 C 
ATOM     39  C   UNL     1      62.279  66.862  54.380  0.00  0.00    +0.000 C 
ATOM     40  C   UNL     1      62.659  67.262  55.336  0.00  0.00    +0.000 C 
ATOM     41  C   UNL     1      62.129  68.229  55.276  0.00  0.00    +0.000 C 
ENDROOT
TORSDOF 0
ENDMDL
MODEL 6
REMARK VINA RESULT:   -12.964     14.180     17.341
REMARK INTER + INTRA:         -12.964
REMARK INTER:                 -12.964
REMARK INTRA:                   0.000
REMARK UNBOUND:                 0.000
ROOT
REMARK  Name = elexacaftor
REMARK                            x       y       z     vdW  Elec       q    Type
REMARK                         _______ _______ _______ _____ _____    ______ ____
ATOM      1  C   UNL     1      63.573  61.286  52.942  0.00  0.00    +0.000 C 
ATOM      2  C   UNL     1      63.375  62.070  53.108  0.00  0.00    +0.000 C 
ATOM      3  C   UNL     1      62.947  62.577  52.616  0.00  0.00    +0.000 C 
ATOM      4  N   UNL     1      62.877  63.304  52.999  0.00  0.00    +0.000 N 
ATOM      5  C   UNL     1      62.491  63.971  52.705  0.00  0.00    +0.000 A 
ATOM      6  C   UNL     1      62.130  63.947  51.964  0.00  0.00    +0.000 A 
ATOM      7  C   UNL     1      61.744  64.613  51.670  0.00  0.00    +0.000 A 
ATOM      8  C   UNL     1      61.719  65.306  52.118  0.00  0.00    +0.000 A 
ATOM      9  C   UNL     1      62.080  65.331  52.859  0.00  0.00    +0.000 A 
ATOM     10  N   UNL     1      62.466  64.664  53.153  0.00  0.00    +0.000 NA
ATOM     11  N   UNL     1      62.055  66.023  53.307  0.00  0.00    +0.000 N 
ATOM     12  C   UNL     1      61.691  66.731  53.087  0.00  0.00    +0.000 A 
ATOM     13  C   UNL     1      61.800  67.275  53.697  0.00  0.00    +0.000 A 
ATOM     14  C   UNL     1      62.231  66.904  54.295  0.00  0.00    +0.000 A 
ATOM     15  O   UNL     1      62.465  67.247  55.009  0.00  0.00    +0.000 OA
ATOM     16  C   UNL     1      62.266  68.030  55.174  0.00  0.00    +0.000 C 
ATOM     17  C   UNL     1      62.499  68.373  55.887  0.00  0.00    +0.000 C 
ATOM     18  C   UNL     1      62.136  69.079  55.667  0.00  0.00    +0.000 C 
ATOM     19  C   UNL     1      62.863  67.665  56.108  0.00  0.00    +0.000 C 
ATOM     20  C   UNL     1      62.732  68.714  56.601  0.00  0.00    +0.000 C 
ATOM     21  F   UNL     1      62.966  69.057  57.315  0.00  0.00    +0.000 F 
ATOM     22  F   UNL     1      62.369  69.422  56.380  0.00  0.00    +0.000 F 
ATOM     23  F   UNL     1      63.096  68.008  56.822  0.00  0.00    +0.000 F 
ATOM     24  N   UNL     1      62.389  66.130  54.053  0.00  0.00    +0.000 NA
ATOM     25  C   UNL     1      62.155  63.254  51.517  0.00  0.00    +0.000 C 
ATOM     26  O   UNL     1      61.795  63.229  50.775  0.00  0.00    +0.000 OA
ATOM     27  N   UNL     1      62.541  62.587  51.810  0.00  0.00    +0.000 NA
ATOM     28  S   UNL     1      62.567  61.894  51.363  0.00  0.00    +0.000 S 
ATOM     29  O   UNL     1      62.135  62.264  50.765  0.00  0.00    +0.000 OA
ATOM     30  O   UNL     1      62.998  61.523  51.960  0.00  0.00    +0.000 OA
ATOM     31  C   UNL     1      62.592  61.201  50.915  0.00  0.00    +0.000 A 
ATOM     32  C   UNL     1      62.956  60.495  51.135  0.00  0.00    +0.000 A 
ATOM     33  N   UNL     1      62.846  59.951  50.525  0.00  0.00    +0.000 N 
ATOM     34  C   UNL     1      63.120  59.173  50.514  0.00  0.00    +0.000 C 
ATOM     35  N   UNL     1      62.415  60.321  49.927  0.00  0.00    +0.000 NA
ATOM     36  C   UNL     1      62.257  61.094  50.167  0.00  0.00    +0.000 A 
ATOM     37  C   UNL     1      61.840  61.661  49.738  0.00  0.00    +0.000 C 
ATOM     38  C   UNL     1      63.261  63.247  53.727  0.00  0.00    +0.000 C 
ATOM     39  C   UNL     1      63.023  64.033  53.816  0.00  0.00    +0.000 C 
ATOM     40  C   UNL     1      63.595  63.355  54.474  0.00  0.00    +0.000 C 
ATOM     41  C   UNL     1      63.569  62.485  53.795  0.00  0.00    +0.000 C 
ENDROOT
TORSDOF 0
ENDMDL
