MODEL 1
REMARK VINA RESULT:   -11.400      0.000      0.000
REMARK INTER + INTRA:         -11.400
REMARK INTER:                 -11.400
REMARK INTRA:                   0.000
REMARK UNBOUND:                 0.000
ROOT
REMARK  Name = emepronium
REMARK                            x       y       z     vdW  Elec       q    Type
REMARK                         _______ _______ _______ _____ _____    ______ ____
ATOM      1  C   UNL     1      61.504  64.139  69.406  0.00  0.00    +0.000 C 
ATOM      2  C   UNL     1      61.910  63.902  68.729  0.00  0.00    +0.000 C 
ATOM      3  N   UNL     1      61.512  63.498  68.129  0.00  0.00    +0.000 N 
ATOM      4  C   UNL     1      62.212  63.458  67.693  0.00  0.00    +0.000 C 
ATOM      5  C   UNL     1      60.813  63.539  68.565  0.00  0.00    +0.000 C 
ATOM      6  C   UNL     1      61.115  63.095  67.529  0.00  0.00    +0.000 C 
ATOM      7  C   UNL     1      60.311  62.929  67.608  0.00  0.00    +0.000 C 
ATOM      8  C   UNL     1      61.521  62.858  66.852  0.00  0.00    +0.000 C 
ATOM      9  C   UNL     1      61.124  62.454  66.253  0.00  0.00    +0.000 C 
ATOM     10  C   UNL     1      61.531  62.217  65.574  0.00  0.00    +0.000 A 
ATOM     11  C   UNL     1      61.132  61.813  64.975  0.00  0.00    +0.000 A 
ATOM     12  C   UNL     1      61.539  61.576  64.297  0.00  0.00    +0.000 A 
ATOM     13  C   UNL     1      62.344  61.743  64.219  0.00  0.00    +0.000 A 
ATOM     14  C   UNL     1      62.741  62.146  64.819  0.00  0.00    +0.000 A 
ATOM     15  C   UNL     1      62.334  62.383  65.497  0.00  0.00    +0.000 A 
ATOM     16  C   UNL     1      60.319  62.288  66.330  0.00  0.00    +0.000 A 
ATOM     17  C   UNL     1      59.913  62.525  67.008  0.00  0.00    +0.000 A 
ATOM     18  C   UNL     1      59.109  62.359  67.086  0.00  0.00    +0.000 A 
ATOM     19  C   UNL     1      58.711  61.955  66.486  0.00  0.00    +0.000 A 
ATOM     20  C   UNL     1      59.117  61.718  65.808  0.00  0.00    +0.000 A 
ATOM     21  C   UNL     1      59.922  61.884  65.731  0.00  0.00    +0.000 A 
ENDROOT
TORSDOF 0
ENDMDL
MODEL 2
REMARK VINA RESULT:   -11.202      2.818      4.789
REMARK INTER + INTRA:         -11.202
REMARK INTER:                 -11.202
REMARK INTRA:                   0.000
REMARK UNBOUND:                 0.000
ROOT
REMARK  Name = emepronium
REMARK                            x       y       z     vdW  Elec       q    Type
REMARK                         _______ _______ _______ _____ _____    ______ ____
ATOM      1  C   UNL     1      59.471  66.577  69.445  0.00  0.00    +0.000 C 
ATOM      2  C   UNL     1      59.774  66.192  70.109  0.00  0.00    +0.000 C 
ATOM      3  N   UNL     1      59.978  65.394  70.065  0.00  0.00    +0.000 N 
ATOM      4  C   UNL     1      60.209  65.410  70.857  0.00  0.00    +0.000 C 
ATOM      5  C   UNL     1      59.746  65.378  69.274  0.00  0.00    +0.000 C 
ATOM      6  C   UNL     1      60.182  64.596  70.022  0.00  0.00    +0.000 C 
ATOM      7  C   UNL     1      60.083  64.183  69.315  0.00  0.00    +0.000 C 
ATOM      8  C   UNL     1      60.485  64.211  70.686  0.00  0.00    +0.000 C 
ATOM      9  C   UNL     1      60.689  63.413  70.643  0.00  0.00    +0.000 C 
ATOM     10  C   UNL     1      60.992  63.028  71.308  0.00  0.00    +0.000 A 
ATOM     11  C   UNL     1      61.196  62.230  71.264  0.00  0.00    +0.000 A 
ATOM     12  C   UNL     1      61.499  61.845  71.928  0.00  0.00    +0.000 A 
ATOM     13  C   UNL     1      61.597  62.258  72.635  0.00  0.00    +0.000 A 
ATOM     14  C   UNL     1      61.393  63.056  72.678  0.00  0.00    +0.000 A 
ATOM     15  C   UNL     1      61.090  63.441  72.014  0.00  0.00    +0.000 A 
ATOM     16  C   UNL     1      60.590  63.000  69.936  0.00  0.00    +0.000 A 
ATOM     17  C   UNL     1      60.288  63.385  69.272  0.00  0.00    +0.000 A 
ATOM     18  C   UNL     1      60.189  62.972  68.564  0.00  0.00    +0.000 A 
ATOM     19  C   UNL     1      60.393  62.173  68.521  0.00  0.00    +0.000 A 
ATOM     20  C   UNL     1      60.696  61.788  69.185  0.00  0.00    +0.000 A 
ATOM     21  C   UNL     1      60.794  62.202  69.892  0.00  0.00    +0.000 A 
ENDROOT
TORSDOF 0
ENDMDL
MODEL 3
REMARK VINA RESULT:   -11.070      2.710      5.798
REMARK INTER + INTRA:         -11.070
REMARK INTER:                 -11.070
REMARK INTRA:                   0.000
REMARK UNBOUND:                 0.000
ROOT
REMARK  Name = emepronium
REMARK                            x       y       z     vdW  Elec       q    Type
REMARK                         _______ _______ _______ _____ _____    ______ ____
ATOM      1  C   UNL     1      60.537  62.003  68.023  0.00  0.00    +0.000 C 
ATOM      2  C   UNL     1      60.285  62.664  68.448  0.00  0.00    +0.000 C 
ATOM      3  N   UNL     1      60.459  62.728  69.253  0.00  0.00    +0.000 N 
ATOM      4  C   UNL     1      60.068  63.454  69.279  0.00  0.00    +0.000 C 
ATOM      5  C   UNL     1      60.850  62.002  69.226  0.00  0.00    +0.000 C 
ATOM      6  C   UNL     1      60.633  62.792  70.056  0.00  0.00    +0.000 C 
ATOM      7  C   UNL     1      61.059  62.196  70.434  0.00  0.00    +0.000 C 
ATOM      8  C   UNL     1      60.381  63.453  70.481  0.00  0.00    +0.000 C 
ATOM      9  C   UNL     1      60.555  63.517  71.285  0.00  0.00    +0.000 C 
ATOM     10  C   UNL     1      60.303  64.179  71.710  0.00  0.00    +0.000 A 
ATOM     11  C   UNL     1      60.478  64.242  72.514  0.00  0.00    +0.000 A 
ATOM     12  C   UNL     1      60.226  64.903  72.939  0.00  0.00    +0.000 A 
ATOM     13  C   UNL     1      59.800  65.500  72.560  0.00  0.00    +0.000 A 
ATOM     14  C   UNL     1      59.627  65.436  71.756  0.00  0.00    +0.000 A 
ATOM     15  C   UNL     1      59.878  64.775  71.331  0.00  0.00    +0.000 A 
ATOM     16  C   UNL     1      60.981  62.921  71.664  0.00  0.00    +0.000 A 
ATOM     17  C   UNL     1      61.233  62.260  71.239  0.00  0.00    +0.000 A 
ATOM     18  C   UNL     1      61.658  61.663  71.617  0.00  0.00    +0.000 A 
ATOM     19  C   UNL     1      61.832  61.728  72.422  0.00  0.00    +0.000 A 
ATOM     20  C   UNL     1      61.581  62.388  72.847  0.00  0.00    +0.000 A 
ATOM     21  C   UNL     1      61.155  62.985  72.467  0.00  0.00    +0.000 A 
ENDROOT
TORSDOF 0
ENDMDL
MODEL 4
REMARK VINA RESULT:   -10.946      2.901      5.047
REMARK INTER + INTRA:         -10.946
REMARK INTER:                 -10.946
REMARK INTRA:                   0.000
REMARK UNBOUND:                 0.000
ROOT
REMARK  Name = emepronium
REMARK                            x       y       z     vdW  Elec       q    Type
REMARK                         _______ _______ _______ _____ _____    ______ ____
ATOM      1  C   UNL     1      59.605  66.142  72.884  0.00  0.00    +0.000 C 
ATOM      2  C   UNL     1      59.555  65.847  72.115  0.00  0.00    +0.000 C 
ATOM      3  N   UNL     1      59.896  65.118  71.931  0.00  0.00    +0.000 N 
ATOM      4  C   UNL     1      59.642  65.198  71.149  0.00  0.00    +0.000 C 
ATOM      5  C   UNL     1      60.150  65.039  72.711  0.00  0.00    +0.000 C 
ATOM      6  C   UNL     1      60.237  64.390  71.745  0.00  0.00    +0.000 C 
ATOM      7  C   UNL     1      60.627  63.958  72.329  0.00  0.00    +0.000 C 
ATOM      8  C   UNL     1      60.187  64.095  70.976  0.00  0.00    +0.000 C 
ATOM      9  C   UNL     1      60.527  63.368  70.791  0.00  0.00    +0.000 C 
ATOM     10  C   UNL     1      60.478  63.072  70.021  0.00  0.00    +0.000 A 
ATOM     11  C   UNL     1      60.818  62.344  69.837  0.00  0.00    +0.000 A 
ATOM     12  C   UNL     1      60.769  62.049  69.068  0.00  0.00    +0.000 A 
ATOM     13  C   UNL     1      60.378  62.482  68.484  0.00  0.00    +0.000 A 
ATOM     14  C   UNL     1      60.038  63.210  68.669  0.00  0.00    +0.000 A 
ATOM     15  C   UNL     1      60.088  63.505  69.438  0.00  0.00    +0.000 A 
ATOM     16  C   UNL     1      60.918  62.934  71.374  0.00  0.00    +0.000 A 
ATOM     17  C   UNL     1      60.968  63.229  72.143  0.00  0.00    +0.000 A 
ATOM     18  C   UNL     1      61.358  62.796  72.727  0.00  0.00    +0.000 A 
ATOM     19  C   UNL     1      61.699  62.067  72.542  0.00  0.00    +0.000 A 
ATOM     20  C   UNL     1      61.649  61.772  71.773  0.00  0.00    +0.000 A 
ATOM     21  C   UNL     1      61.258  62.206  71.189  0.00  0.00    +0.000 A 
ENDROOT
TORSDOF 0
ENDMDL
MODEL 5
REMARK VINA RESULT:   -10.903      2.489      5.232
REMARK INTER + INTRA:         -10.903
REMARK INTER:                 -10.903
REMARK INTRA:                   0.000
REMARK UNBOUND:                 0.000
ROOT
REMARK  Name = emepronium
REMARK                            x       y       z     vdW  Elec       q    Type
REMARK                         _______ _______ _______ _____ _____    ______ ____
ATOM      1  C   UNL     1      60.123  62.734  67.421  0.00  0.00    +0.000 C 
ATOM      2  C   UNL     1      60.483  62.318  68.036  0.00  0.00    +0.000 C 
ATOM      3  N   UNL     1      60.486  62.633  68.799  0.00  0.00    +0.000 N 
ATOM      4  C   UNL     1      60.900  61.971  69.069  0.00  0.00    +0.000 C 
ATOM      5  C   UNL     1      60.073  63.293  68.529  0.00  0.00    +0.000 C 
ATOM      6  C   UNL     1      60.490  62.946  69.562  0.00  0.00    +0.000 C 
ATOM      7  C   UNL     1      60.134  63.675  69.709  0.00  0.00    +0.000 C 
ATOM      8  C   UNL     1      60.850  62.531  70.177  0.00  0.00    +0.000 C 
ATOM      9  C   UNL     1      60.854  62.844  70.939  0.00  0.00    +0.000 C 
ATOM     10  C   UNL     1      61.214  62.428  71.555  0.00  0.00    +0.000 A 
ATOM     11  C   UNL     1      61.218  62.743  72.318  0.00  0.00    +0.000 A 
ATOM     12  C   UNL     1      61.577  62.328  72.933  0.00  0.00    +0.000 A 
ATOM     13  C   UNL     1      61.934  61.598  72.786  0.00  0.00    +0.000 A 
ATOM     14  C   UNL     1      61.930  61.284  72.023  0.00  0.00    +0.000 A 
ATOM     15  C   UNL     1      61.570  61.700  71.408  0.00  0.00    +0.000 A 
ATOM     16  C   UNL     1      60.498  63.574  71.088  0.00  0.00    +0.000 A 
ATOM     17  C   UNL     1      60.138  63.989  70.473  0.00  0.00    +0.000 A 
ATOM     18  C   UNL     1      59.782  64.719  70.620  0.00  0.00    +0.000 A 
ATOM     19  C   UNL     1      59.786  65.033  71.383  0.00  0.00    +0.000 A 
ATOM     20  C   UNL     1      60.145  64.617  71.998  0.00  0.00    +0.000 A 
ATOM     21  C   UNL     1      60.501  63.888  71.850  0.00  0.00    +0.000 A 
ENDROOT
TORSDOF 0
ENDMDL
MODEL 6
REMARK VINA RESULT:   -10.896      2.821      4.806
REMARK INTER + INTRA:         -10.896
REMARK INTER:                 -10.896
REMARK INTRA:                   0.000
REMARK UNBOUND:                 0.000
ROOT
REMARK  Name = emepronium
REMARK                            x       y       z     vdW  Elec       q    Type
REMARK                         _______ _______ _______ _____ _____    ______ ____
ATOM      1  C   UNL     1      64.005  66.162  70.550  0.00  0.00    +0.000 C 
ATOM      2  C   UNL     1      63.586  65.668  70.039  0.00  0.00    +0.000 C 
ATOM      3  N   UNL     1      63.093  65.081  70.345  0.00  0.00    +0.000 N 
ATOM      4  C   UNL     1      62.894  64.850  69.578  0.00  0.00    +0.000 C 
ATOM      5  C   UNL     1      63.292  65.313  71.111  0.00  0.00    +0.000 C 
ATOM      6  C   UNL     1      62.600  64.495  70.650  0.00  0.00    +0.000 C 
ATOM      7  C   UNL     1      62.526  64.402  71.466  0.00  0.00    +0.000 C 
ATOM      8  C   UNL     1      62.181  64.001  70.139  0.00  0.00    +0.000 C 
ATOM      9  C   UNL     1      61.689  63.414  70.444  0.00  0.00    +0.000 C 
ATOM     10  C   UNL     1      61.269  62.920  69.933  0.00  0.00    +0.000 A 
ATOM     11  C   UNL     1      60.776  62.333  70.239  0.00  0.00    +0.000 A 
ATOM     12  C   UNL     1      60.357  61.839  69.728  0.00  0.00    +0.000 A 
ATOM     13  C   UNL     1      60.431  61.932  68.911  0.00  0.00    +0.000 A 
ATOM     14  C   UNL     1      60.924  62.519  68.606  0.00  0.00    +0.000 A 
ATOM     15  C   UNL     1      61.343  63.013  69.117  0.00  0.00    +0.000 A 
ATOM     16  C   UNL     1      61.614  63.321  71.261  0.00  0.00    +0.000 A 
ATOM     17  C   UNL     1      62.033  63.815  71.772  0.00  0.00    +0.000 A 
ATOM     18  C   UNL     1      61.959  63.723  72.588  0.00  0.00    +0.000 A 
ATOM     19  C   UNL     1      61.466  63.136  72.894  0.00  0.00    +0.000 A 
ATOM     20  C   UNL     1      61.047  62.642  72.383  0.00  0.00    +0.000 A 
ATOM     21  C   UNL     1      61.121  62.735  71.566  0.00  0.00    +0.000 A 
ENDROOT
TORSDOF 0
ENDMDL
MODEL 7
REMARK VINA RESULT:   -10.820      1.647      4.308
REMARK INTER + INTRA:         -10.820
REMARK INTER:                 -10.820
REMARK INTRA:                   0.000
REMARK UNBOUND:                 0.000
ROOT
REMARK  Name = emepronium
REMARK                            x       y       z     vdW  Elec       q    Type
REMARK                         _______ _______ _______ _____ _____    ______ ____
ATOM      1  C   UNL     1      60.032  62.348  66.517  0.00  0.00    +0.000 C 
ATOM      2  C   UNL     1      60.558  62.889  66.852  0.00  0.00    +0.000 C 
ATOM      3  N   UNL     1      60.719  62.858  67.661  0.00  0.00    +0.000 N 
ATOM      4  C   UNL     1      61.233  63.500  67.582  0.00  0.00    +0.000 C 
ATOM      5  C   UNL     1      60.207  62.218  67.740  0.00  0.00    +0.000 C 
ATOM      6  C   UNL     1      60.882  62.829  68.469  0.00  0.00    +0.000 C 
ATOM      7  C   UNL     1      60.519  62.258  68.941  0.00  0.00    +0.000 C 
ATOM      8  C   UNL     1      61.407  63.369  68.805  0.00  0.00    +0.000 C 
ATOM      9  C   UNL     1      61.569  63.339  69.612  0.00  0.00    +0.000 C 
ATOM     10  C   UNL     1      62.095  63.881  69.948  0.00  0.00    +0.000 A 
ATOM     11  C   UNL     1      62.257  63.850  70.757  0.00  0.00    +0.000 A 
ATOM     12  C   UNL     1      62.782  64.390  71.093  0.00  0.00    +0.000 A 
ATOM     13  C   UNL     1      63.146  64.961  70.620  0.00  0.00    +0.000 A 
ATOM     14  C   UNL     1      62.983  64.991  69.812  0.00  0.00    +0.000 A 
ATOM     15  C   UNL     1      62.458  64.450  69.476  0.00  0.00    +0.000 A 
ATOM     16  C   UNL     1      61.207  62.769  70.086  0.00  0.00    +0.000 A 
ATOM     17  C   UNL     1      60.681  62.228  69.750  0.00  0.00    +0.000 A 
ATOM     18  C   UNL     1      60.318  61.658  70.222  0.00  0.00    +0.000 A 
ATOM     19  C   UNL     1      60.481  61.628  71.031  0.00  0.00    +0.000 A 
ATOM     20  C   UNL     1      61.006  62.168  71.367  0.00  0.00    +0.000 A 
ATOM     21  C   UNL     1      61.369  62.739  70.894  0.00  0.00    +0.000 A 
ENDROOT
TORSDOF 0
ENDMDL
MODEL 8
REMARK VINA RESULT:   -10.779      5.256      6.672
REMARK INTER + INTRA:         -10.779
REMARK INTER:                 -10.779
REMARK INTRA:                   0.000
REMARK UNBOUND:                 0.000
ROOT
REMARK  Name = emepronium
REMARK                            x       y       z     vdW  Elec       q    Type
REMARK                         _______ _______ _______ _____ _____    ______ ____
ATOM      1  C   UNL     1      62.768  68.365  73.089  0.00  0.00    +0.000 C 
ATOM      2  C   UNL     1      62.343  67.665  73.186  0.00  0.00    +0.000 C 
ATOM      3  N   UNL     1      62.515  67.010  72.715  0.00  0.00    +0.000 N 
ATOM      4  C   UNL     1      61.925  66.579  73.099  0.00  0.00    +0.000 C 
ATOM      5  C   UNL     1      63.104  67.440  72.331  0.00  0.00    +0.000 C 
ATOM      6  C   UNL     1      62.686  66.354  72.244  0.00  0.00    +0.000 C 
ATOM      7  C   UNL     1      63.282  66.400  71.676  0.00  0.00    +0.000 C 
ATOM      8  C   UNL     1      62.261  65.654  72.342  0.00  0.00    +0.000 C 
ATOM      9  C   UNL     1      62.432  64.999  71.871  0.00  0.00    +0.000 C 
ATOM     10  C   UNL     1      62.007  64.298  71.968  0.00  0.00    +0.000 A 
ATOM     11  C   UNL     1      62.179  63.643  71.497  0.00  0.00    +0.000 A 
ATOM     12  C   UNL     1      61.754  62.942  71.594  0.00  0.00    +0.000 A 
ATOM     13  C   UNL     1      61.157  62.897  72.163  0.00  0.00    +0.000 A 
ATOM     14  C   UNL     1      60.986  63.553  72.633  0.00  0.00    +0.000 A 
ATOM     15  C   UNL     1      61.411  64.253  72.536  0.00  0.00    +0.000 A 
ATOM     16  C   UNL     1      63.029  65.043  71.302  0.00  0.00    +0.000 A 
ATOM     17  C   UNL     1      63.454  65.744  71.205  0.00  0.00    +0.000 A 
ATOM     18  C   UNL     1      64.050  65.789  70.637  0.00  0.00    +0.000 A 
ATOM     19  C   UNL     1      64.222  65.133  70.166  0.00  0.00    +0.000 A 
ATOM     20  C   UNL     1      63.797  64.433  70.263  0.00  0.00    +0.000 A 
ATOM     21  C   UNL     1      63.200  64.389  70.832  0.00  0.00    +0.000 A 
ENDROOT
TORSDOF 0
ENDMDL
MODEL 9
REMARK VINA RESULT:   -10.546      3.752      6.678
REMARK INTER + INTRA:         -10.546
REMARK INTER:                 -10.546
REMARK INTRA:                   0.000
REMARK UNBOUND:                 0.000
ROOT
REMARK  Name = emepronium
REMARK                            x       y       z     vdW  Elec       q    Type
REMARK                         _______ _______ _______ _____ _____    ______ ____
ATOM      1  C   UNL     1      61.742  63.493  69.565  0.00  0.00    +0.000 C 
ATOM      2  C   UNL     1      62.419  63.942  69.420  0.00  0.00    +0.000 C 
ATOM      3  N   UNL     1      62.663  64.508  69.969  0.00  0.00    +0.000 N 
ATOM      4  C   UNL     1      63.304  64.700  69.484  0.00  0.00    +0.000 C 
ATOM      5  C   UNL     1      62.023  64.317  70.452  0.00  0.00    +0.000 C 
ATOM      6  C   UNL     1      62.908  65.074  70.516  0.00  0.00    +0.000 C 
ATOM      7  C   UNL     1      62.475  65.191  71.208  0.00  0.00    +0.000 C 
ATOM      8  C   UNL     1      63.585  65.523  70.371  0.00  0.00    +0.000 C 
ATOM      9  C   UNL     1      63.829  66.089  70.919  0.00  0.00    +0.000 C 
ATOM     10  C   UNL     1      64.507  66.538  70.774  0.00  0.00    +0.000 A 
ATOM     11  C   UNL     1      64.751  67.105  71.322  0.00  0.00    +0.000 A 
ATOM     12  C   UNL     1      65.428  67.553  71.177  0.00  0.00    +0.000 A 
ATOM     13  C   UNL     1      65.860  67.436  70.484  0.00  0.00    +0.000 A 
ATOM     14  C   UNL     1      65.615  66.870  69.937  0.00  0.00    +0.000 A 
ATOM     15  C   UNL     1      64.939  66.421  70.081  0.00  0.00    +0.000 A 
ATOM     16  C   UNL     1      63.397  66.207  71.612  0.00  0.00    +0.000 A 
ATOM     17  C   UNL     1      62.720  65.758  71.757  0.00  0.00    +0.000 A 
ATOM     18  C   UNL     1      62.287  65.875  72.449  0.00  0.00    +0.000 A 
ATOM     19  C   UNL     1      62.532  66.442  72.997  0.00  0.00    +0.000 A 
ATOM     20  C   UNL     1      63.209  66.891  72.853  0.00  0.00    +0.000 A 
ATOM     21  C   UNL     1      63.641  66.773  72.159  0.00  0.00    +0.000 A 
ENDROOT
TORSDOF 0
ENDMDL
