MODEL 1
REMARK VINA RESULT:   -14.795      0.000      0.000
REMARK INTER + INTRA:         -14.795
REMARK INTER:                 -14.795
REMARK INTRA:                   0.000
REMARK UNBOUND:                 0.000
ROOT
REMARK  Name = emetine
REMARK                            x       y       z     vdW  Elec       q    Type
REMARK                         _______ _______ _______ _____ _____    ______ ____
ATOM      1  C   UNL     1      62.531  66.035  72.919  0.00  0.00    +0.000 C 
ATOM      2  C   UNL     1      61.890  65.527  73.025  0.00  0.00    +0.000 C 
ATOM      3  C   UNL     1      61.662  65.018  72.417  0.00  0.00    +0.000 C 
ATOM      4  C   UNL     1      61.021  64.510  72.523  0.00  0.00    +0.000 C 
ATOM      5  N   UNL     1      60.792  64.001  71.915  0.00  0.00    +0.000 NA
ATOM      6  C   UNL     1      60.152  63.493  72.021  0.00  0.00    +0.000 C 
ATOM      7  C   UNL     1      59.924  62.985  71.414  0.00  0.00    +0.000 C 
ATOM      8  C   UNL     1      60.337  62.984  70.699  0.00  0.00    +0.000 A 
ATOM      9  C   UNL     1      60.108  62.475  70.091  0.00  0.00    +0.000 A 
ATOM     10  C   UNL     1      60.521  62.474  69.377  0.00  0.00    +0.000 A 
ATOM     11  O   UNL     1      60.293  61.965  68.769  0.00  0.00    +0.000 OA
ATOM     12  C   UNL     1      60.705  61.964  68.055  0.00  0.00    +0.000 C 
ATOM     13  C   UNL     1      61.163  62.983  69.270  0.00  0.00    +0.000 A 
ATOM     14  O   UNL     1      61.575  62.982  68.557  0.00  0.00    +0.000 OA
ATOM     15  C   UNL     1      62.216  63.490  68.450  0.00  0.00    +0.000 C 
ATOM     16  C   UNL     1      61.390  63.491  69.879  0.00  0.00    +0.000 A 
ATOM     17  C   UNL     1      60.977  63.492  70.593  0.00  0.00    +0.000 A 
ATOM     18  C   UNL     1      61.206  64.000  71.200  0.00  0.00    +0.000 C 
ATOM     19  C   UNL     1      61.847  64.509  71.095  0.00  0.00    +0.000 C 
ATOM     20  C   UNL     1      62.075  65.018  71.702  0.00  0.00    +0.000 C 
ATOM     21  C   UNL     1      62.716  65.526  71.596  0.00  0.00    +0.000 C 
ATOM     22  C   UNL     1      63.129  65.526  70.882  0.00  0.00    +0.000 C 
ATOM     23  N   UNL     1      62.901  65.016  70.273  0.00  0.00    +0.000 NA
ATOM     24  C   UNL     1      63.313  65.016  69.560  0.00  0.00    +0.000 C 
ATOM     25  C   UNL     1      63.955  65.524  69.453  0.00  0.00    +0.000 C 
ATOM     26  C   UNL     1      64.183  66.033  70.062  0.00  0.00    +0.000 A 
ATOM     27  C   UNL     1      64.824  66.541  69.955  0.00  0.00    +0.000 A 
ATOM     28  C   UNL     1      65.052  67.050  70.563  0.00  0.00    +0.000 A 
ATOM     29  O   UNL     1      65.694  67.559  70.457  0.00  0.00    +0.000 OA
ATOM     30  C   UNL     1      66.106  67.558  69.742  0.00  0.00    +0.000 C 
ATOM     31  C   UNL     1      64.639  67.051  71.277  0.00  0.00    +0.000 A 
ATOM     32  O   UNL     1      64.868  67.560  71.885  0.00  0.00    +0.000 OA
ATOM     33  C   UNL     1      64.455  67.561  72.599  0.00  0.00    +0.000 C 
ATOM     34  C   UNL     1      63.998  66.543  71.384  0.00  0.00    +0.000 A 
ATOM     35  C   UNL     1      63.770  66.033  70.775  0.00  0.00    +0.000 A 
ENDROOT
TORSDOF 0
ENDMDL
MODEL 2
REMARK VINA RESULT:   -14.351      1.404      5.117
REMARK INTER + INTRA:         -14.351
REMARK INTER:                 -14.351
REMARK INTRA:                   0.000
REMARK UNBOUND:                 0.000
ROOT
REMARK  Name = emetine
REMARK                            x       y       z     vdW  Elec       q    Type
REMARK                         _______ _______ _______ _____ _____    ______ ____
ATOM      1  C   UNL     1      60.071  66.011  72.806  0.00  0.00    +0.000 C 
ATOM      2  C   UNL     1      60.454  66.712  73.005  0.00  0.00    +0.000 C 
ATOM      3  C   UNL     1      61.238  66.835  72.777  0.00  0.00    +0.000 C 
ATOM      4  C   UNL     1      61.621  67.536  72.976  0.00  0.00    +0.000 C 
ATOM      5  N   UNL     1      62.405  67.659  72.748  0.00  0.00    +0.000 NA
ATOM      6  C   UNL     1      62.789  68.360  72.947  0.00  0.00    +0.000 C 
ATOM      7  C   UNL     1      63.571  68.482  72.719  0.00  0.00    +0.000 C 
ATOM      8  C   UNL     1      63.971  67.900  72.290  0.00  0.00    +0.000 A 
ATOM      9  C   UNL     1      64.754  68.023  72.061  0.00  0.00    +0.000 A 
ATOM     10  C   UNL     1      65.154  67.442  71.632  0.00  0.00    +0.000 A 
ATOM     11  O   UNL     1      65.938  67.564  71.403  0.00  0.00    +0.000 OA
ATOM     12  C   UNL     1      66.337  66.983  70.975  0.00  0.00    +0.000 C 
ATOM     13  C   UNL     1      64.770  66.739  71.432  0.00  0.00    +0.000 A 
ATOM     14  O   UNL     1      65.169  66.159  71.004  0.00  0.00    +0.000 OA
ATOM     15  C   UNL     1      64.785  65.456  70.804  0.00  0.00    +0.000 C 
ATOM     16  C   UNL     1      63.987  66.618  71.661  0.00  0.00    +0.000 A 
ATOM     17  C   UNL     1      63.587  67.199  72.090  0.00  0.00    +0.000 A 
ATOM     18  C   UNL     1      62.805  67.077  72.319  0.00  0.00    +0.000 C 
ATOM     19  C   UNL     1      62.420  66.375  72.119  0.00  0.00    +0.000 C 
ATOM     20  C   UNL     1      61.638  66.253  72.348  0.00  0.00    +0.000 C 
ATOM     21  C   UNL     1      61.253  65.551  72.148  0.00  0.00    +0.000 C 
ATOM     22  C   UNL     1      61.652  64.970  71.719  0.00  0.00    +0.000 C 
ATOM     23  N   UNL     1      62.436  65.091  71.490  0.00  0.00    +0.000 NA
ATOM     24  C   UNL     1      62.835  64.511  71.062  0.00  0.00    +0.000 C 
ATOM     25  C   UNL     1      62.451  63.808  70.862  0.00  0.00    +0.000 C 
ATOM     26  C   UNL     1      61.668  63.687  71.091  0.00  0.00    +0.000 A 
ATOM     27  C   UNL     1      61.284  62.984  70.891  0.00  0.00    +0.000 A 
ATOM     28  C   UNL     1      60.501  62.863  71.120  0.00  0.00    +0.000 A 
ATOM     29  O   UNL     1      60.117  62.160  70.920  0.00  0.00    +0.000 OA
ATOM     30  C   UNL     1      60.516  61.580  70.491  0.00  0.00    +0.000 C 
ATOM     31  C   UNL     1      60.102  63.443  71.548  0.00  0.00    +0.000 A 
ATOM     32  O   UNL     1      59.318  63.322  71.777  0.00  0.00    +0.000 OA
ATOM     33  C   UNL     1      58.919  63.903  72.206  0.00  0.00    +0.000 C 
ATOM     34  C   UNL     1      60.485  64.146  71.748  0.00  0.00    +0.000 A 
ATOM     35  C   UNL     1      61.269  64.267  71.519  0.00  0.00    +0.000 A 
ENDROOT
TORSDOF 0
ENDMDL
MODEL 3
REMARK VINA RESULT:   -14.099      0.802      4.881
REMARK INTER + INTRA:         -14.099
REMARK INTER:                 -14.099
REMARK INTRA:                   0.000
REMARK UNBOUND:                 0.000
ROOT
REMARK  Name = emetine
REMARK                            x       y       z     vdW  Elec       q    Type
REMARK                         _______ _______ _______ _____ _____    ______ ____
ATOM      1  C   UNL     1      60.901  64.552  72.425  0.00  0.00    +0.000 C 
ATOM      2  C   UNL     1      61.290  65.141  72.851  0.00  0.00    +0.000 C 
ATOM      3  C   UNL     1      61.948  65.519  72.526  0.00  0.00    +0.000 C 
ATOM      4  C   UNL     1      62.338  66.108  72.951  0.00  0.00    +0.000 C 
ATOM      5  N   UNL     1      62.996  66.486  72.626  0.00  0.00    +0.000 NA
ATOM      6  C   UNL     1      63.385  67.075  73.051  0.00  0.00    +0.000 C 
ATOM      7  C   UNL     1      64.042  67.452  72.726  0.00  0.00    +0.000 C 
ATOM      8  C   UNL     1      64.310  67.240  71.974  0.00  0.00    +0.000 A 
ATOM      9  C   UNL     1      64.968  67.618  71.650  0.00  0.00    +0.000 A 
ATOM     10  C   UNL     1      65.236  67.406  70.899  0.00  0.00    +0.000 A 
ATOM     11  O   UNL     1      65.894  67.783  70.573  0.00  0.00    +0.000 OA
ATOM     12  C   UNL     1      66.161  67.571  69.823  0.00  0.00    +0.000 C 
ATOM     13  C   UNL     1      64.846  66.816  70.472  0.00  0.00    +0.000 A 
ATOM     14  O   UNL     1      65.113  66.604  69.722  0.00  0.00    +0.000 OA
ATOM     15  C   UNL     1      64.723  66.015  69.296  0.00  0.00    +0.000 C 
ATOM     16  C   UNL     1      64.188  66.439  70.798  0.00  0.00    +0.000 A 
ATOM     17  C   UNL     1      63.921  66.651  71.549  0.00  0.00    +0.000 A 
ATOM     18  C   UNL     1      63.264  66.274  71.874  0.00  0.00    +0.000 C 
ATOM     19  C   UNL     1      62.873  65.684  71.449  0.00  0.00    +0.000 C 
ATOM     20  C   UNL     1      62.216  65.307  71.774  0.00  0.00    +0.000 C 
ATOM     21  C   UNL     1      61.825  64.717  71.348  0.00  0.00    +0.000 C 
ATOM     22  C   UNL     1      62.093  64.505  70.597  0.00  0.00    +0.000 C 
ATOM     23  N   UNL     1      62.751  64.883  70.272  0.00  0.00    +0.000 NA
ATOM     24  C   UNL     1      63.018  64.671  69.522  0.00  0.00    +0.000 C 
ATOM     25  C   UNL     1      62.628  64.081  69.095  0.00  0.00    +0.000 C 
ATOM     26  C   UNL     1      61.971  63.705  69.421  0.00  0.00    +0.000 A 
ATOM     27  C   UNL     1      61.581  63.115  68.995  0.00  0.00    +0.000 A 
ATOM     28  C   UNL     1      60.923  62.738  69.321  0.00  0.00    +0.000 A 
ATOM     29  O   UNL     1      60.533  62.148  68.895  0.00  0.00    +0.000 OA
ATOM     30  C   UNL     1      60.801  61.936  68.143  0.00  0.00    +0.000 C 
ATOM     31  C   UNL     1      60.656  62.950  70.071  0.00  0.00    +0.000 A 
ATOM     32  O   UNL     1      59.998  62.572  70.397  0.00  0.00    +0.000 OA
ATOM     33  C   UNL     1      59.730  62.784  71.148  0.00  0.00    +0.000 C 
ATOM     34  C   UNL     1      61.046  63.539  70.497  0.00  0.00    +0.000 A 
ATOM     35  C   UNL     1      61.704  63.916  70.171  0.00  0.00    +0.000 A 
ENDROOT
TORSDOF 0
ENDMDL
MODEL 4
REMARK VINA RESULT:   -13.306      2.169      3.312
REMARK INTER + INTRA:         -13.306
REMARK INTER:                 -13.306
REMARK INTRA:                   0.000
REMARK UNBOUND:                 0.000
ROOT
REMARK  Name = emetine
REMARK                            x       y       z     vdW  Elec       q    Type
REMARK                         _______ _______ _______ _____ _____    ______ ____
ATOM      1  C   UNL     1      62.707  63.443  70.665  0.00  0.00    +0.000 C 
ATOM      2  C   UNL     1      61.952  63.144  70.806  0.00  0.00    +0.000 C 
ATOM      3  C   UNL     1      61.367  63.632  71.124  0.00  0.00    +0.000 C 
ATOM      4  C   UNL     1      60.612  63.332  71.265  0.00  0.00    +0.000 C 
ATOM      5  N   UNL     1      60.027  63.820  71.583  0.00  0.00    +0.000 NA
ATOM      6  C   UNL     1      59.272  63.521  71.724  0.00  0.00    +0.000 C 
ATOM      7  C   UNL     1      58.688  64.008  72.041  0.00  0.00    +0.000 C 
ATOM      8  C   UNL     1      58.859  64.796  72.218  0.00  0.00    +0.000 A 
ATOM      9  C   UNL     1      58.274  65.284  72.536  0.00  0.00    +0.000 A 
ATOM     10  C   UNL     1      58.445  66.071  72.712  0.00  0.00    +0.000 A 
ATOM     11  O   UNL     1      57.860  66.560  73.031  0.00  0.00    +0.000 OA
ATOM     12  C   UNL     1      58.031  67.346  73.207  0.00  0.00    +0.000 C 
ATOM     13  C   UNL     1      59.201  66.371  72.571  0.00  0.00    +0.000 A 
ATOM     14  O   UNL     1      59.372  67.158  72.747  0.00  0.00    +0.000 OA
ATOM     15  C   UNL     1      60.128  67.458  72.607  0.00  0.00    +0.000 C 
ATOM     16  C   UNL     1      59.785  65.883  72.253  0.00  0.00    +0.000 A 
ATOM     17  C   UNL     1      59.614  65.096  72.077  0.00  0.00    +0.000 A 
ATOM     18  C   UNL     1      60.198  64.608  71.759  0.00  0.00    +0.000 C 
ATOM     19  C   UNL     1      60.954  64.907  71.618  0.00  0.00    +0.000 C 
ATOM     20  C   UNL     1      61.538  64.420  71.300  0.00  0.00    +0.000 C 
ATOM     21  C   UNL     1      62.294  64.719  71.159  0.00  0.00    +0.000 C 
ATOM     22  C   UNL     1      62.466  65.507  71.335  0.00  0.00    +0.000 C 
ATOM     23  N   UNL     1      61.881  65.995  71.653  0.00  0.00    +0.000 NA
ATOM     24  C   UNL     1      62.052  66.782  71.830  0.00  0.00    +0.000 C 
ATOM     25  C   UNL     1      62.808  67.082  71.688  0.00  0.00    +0.000 C 
ATOM     26  C   UNL     1      63.392  66.593  71.371  0.00  0.00    +0.000 A 
ATOM     27  C   UNL     1      64.148  66.893  71.229  0.00  0.00    +0.000 A 
ATOM     28  C   UNL     1      64.732  66.405  70.912  0.00  0.00    +0.000 A 
ATOM     29  O   UNL     1      65.488  66.705  70.770  0.00  0.00    +0.000 OA
ATOM     30  C   UNL     1      65.659  67.493  70.947  0.00  0.00    +0.000 C 
ATOM     31  C   UNL     1      64.561  65.618  70.735  0.00  0.00    +0.000 A 
ATOM     32  O   UNL     1      65.146  65.130  70.417  0.00  0.00    +0.000 OA
ATOM     33  C   UNL     1      64.975  64.342  70.241  0.00  0.00    +0.000 C 
ATOM     34  C   UNL     1      63.806  65.318  70.876  0.00  0.00    +0.000 A 
ATOM     35  C   UNL     1      63.221  65.807  71.194  0.00  0.00    +0.000 A 
ENDROOT
TORSDOF 0
ENDMDL
MODEL 5
REMARK VINA RESULT:   -12.908      2.196      5.036
REMARK INTER + INTRA:         -12.908
REMARK INTER:                 -12.908
REMARK INTRA:                   0.000
REMARK UNBOUND:                 0.000
ROOT
REMARK  Name = emetine
REMARK                            x       y       z     vdW  Elec       q    Type
REMARK                         _______ _______ _______ _____ _____    ______ ____
ATOM      1  C   UNL     1      60.405  63.762  71.217  0.00  0.00    +0.000 C 
ATOM      2  C   UNL     1      61.120  63.477  70.924  0.00  0.00    +0.000 C 
ATOM      3  C   UNL     1      61.786  63.964  70.911  0.00  0.00    +0.000 C 
ATOM      4  C   UNL     1      62.501  63.679  70.617  0.00  0.00    +0.000 C 
ATOM      5  N   UNL     1      63.167  64.167  70.604  0.00  0.00    +0.000 NA
ATOM      6  C   UNL     1      63.882  63.882  70.311  0.00  0.00    +0.000 C 
ATOM      7  C   UNL     1      64.547  64.370  70.298  0.00  0.00    +0.000 C 
ATOM      8  C   UNL     1      64.495  65.144  70.580  0.00  0.00    +0.000 A 
ATOM      9  C   UNL     1      65.161  65.632  70.567  0.00  0.00    +0.000 A 
ATOM     10  C   UNL     1      65.109  66.406  70.848  0.00  0.00    +0.000 A 
ATOM     11  O   UNL     1      65.775  66.895  70.835  0.00  0.00    +0.000 OA
ATOM     12  C   UNL     1      65.724  67.668  71.116  0.00  0.00    +0.000 C 
ATOM     13  C   UNL     1      64.393  66.692  71.142  0.00  0.00    +0.000 A 
ATOM     14  O   UNL     1      64.342  67.466  71.422  0.00  0.00    +0.000 OA
ATOM     15  C   UNL     1      63.626  67.752  71.716  0.00  0.00    +0.000 C 
ATOM     16  C   UNL     1      63.728  66.204  71.154  0.00  0.00    +0.000 A 
ATOM     17  C   UNL     1      63.780  65.430  70.873  0.00  0.00    +0.000 A 
ATOM     18  C   UNL     1      63.115  64.942  70.886  0.00  0.00    +0.000 C 
ATOM     19  C   UNL     1      62.399  65.227  71.179  0.00  0.00    +0.000 C 
ATOM     20  C   UNL     1      61.734  64.739  71.192  0.00  0.00    +0.000 C 
ATOM     21  C   UNL     1      61.018  65.025  71.485  0.00  0.00    +0.000 C 
ATOM     22  C   UNL     1      60.966  65.799  71.766  0.00  0.00    +0.000 C 
ATOM     23  N   UNL     1      61.632  66.287  71.754  0.00  0.00    +0.000 NA
ATOM     24  C   UNL     1      61.581  67.060  72.034  0.00  0.00    +0.000 C 
ATOM     25  C   UNL     1      60.864  67.347  72.328  0.00  0.00    +0.000 C 
ATOM     26  C   UNL     1      60.200  66.858  72.341  0.00  0.00    +0.000 A 
ATOM     27  C   UNL     1      59.483  67.144  72.635  0.00  0.00    +0.000 A 
ATOM     28  C   UNL     1      58.818  66.655  72.647  0.00  0.00    +0.000 A 
ATOM     29  O   UNL     1      58.102  66.941  72.941  0.00  0.00    +0.000 OA
ATOM     30  C   UNL     1      58.051  67.715  73.222  0.00  0.00    +0.000 C 
ATOM     31  C   UNL     1      58.870  65.882  72.366  0.00  0.00    +0.000 A 
ATOM     32  O   UNL     1      58.204  65.393  72.379  0.00  0.00    +0.000 OA
ATOM     33  C   UNL     1      58.256  64.619  72.098  0.00  0.00    +0.000 C 
ATOM     34  C   UNL     1      59.585  65.596  72.073  0.00  0.00    +0.000 A 
ATOM     35  C   UNL     1      60.251  66.085  72.060  0.00  0.00    +0.000 A 
ENDROOT
TORSDOF 0
ENDMDL
MODEL 6
REMARK VINA RESULT:   -11.817      3.281      4.897
REMARK INTER + INTRA:         -11.817
REMARK INTER:                 -11.817
REMARK INTRA:                   0.000
REMARK UNBOUND:                 0.000
ROOT
REMARK  Name = emetine
REMARK                            x       y       z     vdW  Elec       q    Type
REMARK                         _______ _______ _______ _____ _____    ______ ____
ATOM      1  C   UNL     1      60.816  61.708  70.318  0.00  0.00    +0.000 C 
ATOM      2  C   UNL     1      60.631  61.964  71.079  0.00  0.00    +0.000 C 
ATOM      3  C   UNL     1      60.409  62.749  71.209  0.00  0.00    +0.000 C 
ATOM      4  C   UNL     1      60.224  63.005  71.970  0.00  0.00    +0.000 C 
ATOM      5  N   UNL     1      60.002  63.789  72.100  0.00  0.00    +0.000 NA
ATOM      6  C   UNL     1      59.817  64.045  72.861  0.00  0.00    +0.000 C 
ATOM      7  C   UNL     1      59.595  64.829  72.990  0.00  0.00    +0.000 C 
ATOM      8  C   UNL     1      59.558  65.357  72.356  0.00  0.00    +0.000 A 
ATOM      9  C   UNL     1      59.335  66.141  72.486  0.00  0.00    +0.000 A 
ATOM     10  C   UNL     1      59.298  66.669  71.853  0.00  0.00    +0.000 A 
ATOM     11  O   UNL     1      59.076  67.453  71.981  0.00  0.00    +0.000 OA
ATOM     12  C   UNL     1      59.039  67.980  71.349  0.00  0.00    +0.000 C 
ATOM     13  C   UNL     1      59.484  66.412  71.090  0.00  0.00    +0.000 A 
ATOM     14  O   UNL     1      59.447  66.939  70.458  0.00  0.00    +0.000 OA
ATOM     15  C   UNL     1      59.632  66.684  69.695  0.00  0.00    +0.000 C 
ATOM     16  C   UNL     1      59.706  65.628  70.962  0.00  0.00    +0.000 A 
ATOM     17  C   UNL     1      59.743  65.101  71.595  0.00  0.00    +0.000 A 
ATOM     18  C   UNL     1      59.965  64.317  71.466  0.00  0.00    +0.000 C 
ATOM     19  C   UNL     1      60.150  64.060  70.704  0.00  0.00    +0.000 C 
ATOM     20  C   UNL     1      60.372  63.277  70.575  0.00  0.00    +0.000 C 
ATOM     21  C   UNL     1      60.557  63.020  69.813  0.00  0.00    +0.000 C 
ATOM     22  C   UNL     1      60.520  63.547  69.180  0.00  0.00    +0.000 C 
ATOM     23  N   UNL     1      60.298  64.332  69.309  0.00  0.00    +0.000 NA
ATOM     24  C   UNL     1      60.261  64.859  68.676  0.00  0.00    +0.000 C 
ATOM     25  C   UNL     1      60.446  64.603  67.914  0.00  0.00    +0.000 C 
ATOM     26  C   UNL     1      60.668  63.819  67.785  0.00  0.00    +0.000 A 
ATOM     27  C   UNL     1      60.854  63.562  67.023  0.00  0.00    +0.000 A 
ATOM     28  C   UNL     1      61.076  62.778  66.895  0.00  0.00    +0.000 A 
ATOM     29  O   UNL     1      61.261  62.522  66.132  0.00  0.00    +0.000 OA
ATOM     30  C   UNL     1      61.224  63.050  65.499  0.00  0.00    +0.000 C 
ATOM     31  C   UNL     1      61.112  62.251  67.527  0.00  0.00    +0.000 A 
ATOM     32  O   UNL     1      61.335  61.467  67.398  0.00  0.00    +0.000 OA
ATOM     33  C   UNL     1      61.372  60.939  68.031  0.00  0.00    +0.000 C 
ATOM     34  C   UNL     1      60.927  62.507  68.289  0.00  0.00    +0.000 A 
ATOM     35  C   UNL     1      60.705  63.292  68.418  0.00  0.00    +0.000 A 
ENDROOT
TORSDOF 0
ENDMDL
