MODEL 1
REMARK VINA RESULT:   -18.827      0.000      0.000
REMARK INTER + INTRA:         -18.827
REMARK INTER:                 -18.827
REMARK INTRA:                   0.000
REMARK UNBOUND:                 0.000
ROOT
REMARK  Name = emodepside
REMARK                            x       y       z     vdW  Elec       q    Type
REMARK                         _______ _______ _______ _____ _____    ______ ____
ATOM      1  C   UNL     1      59.410  67.664  49.787  0.00  0.00    +0.000 C 
ATOM      2  C   UNL     1      59.316  67.142  49.154  0.00  0.00    +0.000 C 
ATOM      3  C   UNL     1      58.878  67.370  48.492  0.00  0.00    +0.000 C 
ATOM      4  C   UNL     1      59.660  66.392  49.183  0.00  0.00    +0.000 C 
ATOM      5  C   UNL     1      60.097  66.164  49.844  0.00  0.00    +0.000 C 
ATOM      6  N   UNL     1      60.441  65.415  49.872  0.00  0.00    +0.000 N 
ATOM      7  C   UNL     1      60.893  65.093  50.483  0.00  0.00    +0.000 C 
ATOM      8  C   UNL     1      60.234  65.057  49.159  0.00  0.00    +0.000 C 
ATOM      9  O   UNL     1      59.773  65.468  48.610  0.00  0.00    +0.000 OA
ATOM     10  C   UNL     1      60.486  64.289  48.993  0.00  0.00    +0.000 C 
ATOM     11  C   UNL     1      60.279  63.932  48.279  0.00  0.00    +0.000 C 
ATOM     12  O   UNL     1      60.946  63.879  49.541  0.00  0.00    +0.000 OA
ATOM     13  C   UNL     1      61.089  63.146  49.193  0.00  0.00    +0.000 C 
ATOM     14  O   UNL     1      60.783  62.976  48.446  0.00  0.00    +0.000 OA
ATOM     15  C   UNL     1      61.541  62.581  49.591  0.00  0.00    +0.000 C 
ATOM     16  C   UNL     1      61.685  61.847  49.243  0.00  0.00    +0.000 C 
ATOM     17  C   UNL     1      61.378  61.678  48.496  0.00  0.00    +0.000 C 
ATOM     18  C   UNL     1      61.522  60.944  48.147  0.00  0.00    +0.000 C 
ATOM     19  C   UNL     1      60.927  62.242  48.098  0.00  0.00    +0.000 C 
ATOM     20  N   UNL     1      61.848  62.750  50.338  0.00  0.00    +0.000 N 
ATOM     21  C   UNL     1      61.762  63.448  50.770  0.00  0.00    +0.000 C 
ATOM     22  C   UNL     1      62.259  62.070  50.559  0.00  0.00    +0.000 C 
ATOM     23  O   UNL     1      62.285  61.421  50.051  0.00  0.00    +0.000 OA
ATOM     24  C   UNL     1      62.644  62.039  51.288  0.00  0.00    +0.000 C 
ATOM     25  C   UNL     1      63.055  61.360  51.509  0.00  0.00    +0.000 C 
ATOM     26  C   UNL     1      63.081  60.710  51.001  0.00  0.00    +0.000 A 
ATOM     27  C   UNL     1      63.493  60.029  51.222  0.00  0.00    +0.000 A 
ATOM     28  C   UNL     1      63.519  59.380  50.714  0.00  0.00    +0.000 A 
ATOM     29  C   UNL     1      63.133  59.411  49.986  0.00  0.00    +0.000 A 
ATOM     30  C   UNL     1      62.722  60.090  49.765  0.00  0.00    +0.000 A 
ATOM     31  C   UNL     1      62.696  60.740  50.272  0.00  0.00    +0.000 A 
ATOM     32  N   UNL     1      63.159  58.761  49.478  0.00  0.00    +0.000 N 
ATOM     33  C   UNL     1      63.571  58.080  49.699  0.00  0.00    +0.000 C 
ATOM     34  C   UNL     1      63.597  57.431  49.191  0.00  0.00    +0.000 C 
ATOM     35  O   UNL     1      63.211  57.462  48.462  0.00  0.00    +0.000 OA
ATOM     36  C   UNL     1      62.800  58.141  48.241  0.00  0.00    +0.000 C 
ATOM     37  C   UNL     1      62.774  58.791  48.749  0.00  0.00    +0.000 C 
ATOM     38  O   UNL     1      62.618  62.689  51.796  0.00  0.00    +0.000 OA
ATOM     39  C   UNL     1      63.056  62.461  52.457  0.00  0.00    +0.000 C 
ATOM     40  O   UNL     1      63.399  61.712  52.486  0.00  0.00    +0.000 OA
ATOM     41  C   UNL     1      63.150  62.983  53.089  0.00  0.00    +0.000 C 
ATOM     42  C   UNL     1      63.587  62.754  53.750  0.00  0.00    +0.000 C 
ATOM     43  C   UNL     1      63.931  62.005  53.779  0.00  0.00    +0.000 C 
ATOM     44  C   UNL     1      64.368  61.777  54.440  0.00  0.00    +0.000 C 
ATOM     45  C   UNL     1      63.837  61.484  53.147  0.00  0.00    +0.000 C 
ATOM     46  N   UNL     1      62.806  63.732  53.061  0.00  0.00    +0.000 N 
ATOM     47  C   UNL     1      62.354  64.054  52.450  0.00  0.00    +0.000 C 
ATOM     48  C   UNL     1      63.013  64.090  53.775  0.00  0.00    +0.000 C 
ATOM     49  O   UNL     1      63.473  63.680  54.323  0.00  0.00    +0.000 OA
ATOM     50  C   UNL     1      62.761  64.857  53.940  0.00  0.00    +0.000 C 
ATOM     51  C   UNL     1      62.968  65.215  54.654  0.00  0.00    +0.000 C 
ATOM     52  O   UNL     1      62.301  65.268  53.392  0.00  0.00    +0.000 OA
ATOM     53  C   UNL     1      62.157  66.002  53.740  0.00  0.00    +0.000 C 
ATOM     54  O   UNL     1      62.464  66.170  54.487  0.00  0.00    +0.000 OA
ATOM     55  C   UNL     1      61.706  66.566  53.341  0.00  0.00    +0.000 C 
ATOM     56  C   UNL     1      61.562  67.299  53.690  0.00  0.00    +0.000 C 
ATOM     57  C   UNL     1      61.869  67.469  54.437  0.00  0.00    +0.000 C 
ATOM     58  C   UNL     1      61.725  68.203  54.786  0.00  0.00    +0.000 C 
ATOM     59  C   UNL     1      62.320  66.904  54.836  0.00  0.00    +0.000 C 
ATOM     60  N   UNL     1      61.399  66.396  52.595  0.00  0.00    +0.000 N 
ATOM     61  C   UNL     1      61.485  65.699  52.163  0.00  0.00    +0.000 C 
ATOM     62  C   UNL     1      60.988  67.077  52.374  0.00  0.00    +0.000 C 
ATOM     63  O   UNL     1      60.962  67.727  52.882  0.00  0.00    +0.000 OA
ATOM     64  C   UNL     1      60.603  67.107  51.645  0.00  0.00    +0.000 C 
ATOM     65  C   UNL     1      60.192  67.787  51.425  0.00  0.00    +0.000 C 
ATOM     66  C   UNL     1      60.166  68.437  51.932  0.00  0.00    +0.000 A 
ATOM     67  C   UNL     1      59.754  69.117  51.711  0.00  0.00    +0.000 A 
ATOM     68  C   UNL     1      59.728  69.767  52.219  0.00  0.00    +0.000 A 
ATOM     69  C   UNL     1      60.114  69.736  52.948  0.00  0.00    +0.000 A 
ATOM     70  C   UNL     1      60.525  69.056  53.168  0.00  0.00    +0.000 A 
ATOM     71  C   UNL     1      60.551  68.406  52.661  0.00  0.00    +0.000 A 
ATOM     72  N   UNL     1      60.088  70.386  53.456  0.00  0.00    +0.000 N 
ATOM     73  C   UNL     1      59.676  71.066  53.234  0.00  0.00    +0.000 C 
ATOM     74  C   UNL     1      59.650  71.716  53.742  0.00  0.00    +0.000 C 
ATOM     75  O   UNL     1      60.036  71.686  54.471  0.00  0.00    +0.000 OA
ATOM     76  C   UNL     1      60.447  71.005  54.692  0.00  0.00    +0.000 C 
ATOM     77  C   UNL     1      60.473  70.356  54.184  0.00  0.00    +0.000 C 
ATOM     78  O   UNL     1      60.629  66.457  51.137  0.00  0.00    +0.000 OA
ATOM     79  C   UNL     1      60.191  66.686  50.476  0.00  0.00    +0.000 C 
ATOM     80  O   UNL     1      59.848  67.435  50.448  0.00  0.00    +0.000 OA
ENDROOT
TORSDOF 0
ENDMDL
MODEL 2
REMARK VINA RESULT:   -18.812      0.032      8.663
REMARK INTER + INTRA:         -18.812
REMARK INTER:                 -18.812
REMARK INTRA:                   0.000
REMARK UNBOUND:                 0.000
ROOT
REMARK  Name = emodepside
REMARK                            x       y       z     vdW  Elec       q    Type
REMARK                         _______ _______ _______ _____ _____    ______ ____
ATOM      1  C   UNL     1      63.826  61.466  53.153  0.00  0.00    +0.000 C 
ATOM      2  C   UNL     1      63.919  61.989  53.784  0.00  0.00    +0.000 C 
ATOM      3  C   UNL     1      64.355  61.764  54.447  0.00  0.00    +0.000 C 
ATOM      4  C   UNL     1      63.574  62.739  53.752  0.00  0.00    +0.000 C 
ATOM      5  C   UNL     1      63.137  62.964  53.089  0.00  0.00    +0.000 C 
ATOM      6  N   UNL     1      62.794  63.714  53.058  0.00  0.00    +0.000 N 
ATOM      7  C   UNL     1      62.342  64.033  52.446  0.00  0.00    +0.000 C 
ATOM      8  C   UNL     1      63.000  64.074  53.770  0.00  0.00    +0.000 C 
ATOM      9  O   UNL     1      63.460  63.665  54.321  0.00  0.00    +0.000 OA
ATOM     10  C   UNL     1      62.747  64.842  53.934  0.00  0.00    +0.000 C 
ATOM     11  C   UNL     1      62.953  65.202  54.646  0.00  0.00    +0.000 C 
ATOM     12  O   UNL     1      62.287  65.250  53.383  0.00  0.00    +0.000 OA
ATOM     13  C   UNL     1      62.143  65.984  53.729  0.00  0.00    +0.000 C 
ATOM     14  O   UNL     1      62.448  66.157  54.476  0.00  0.00    +0.000 OA
ATOM     15  C   UNL     1      61.692  66.547  53.328  0.00  0.00    +0.000 C 
ATOM     16  C   UNL     1      61.546  67.283  53.674  0.00  0.00    +0.000 C 
ATOM     17  C   UNL     1      61.852  67.454  54.420  0.00  0.00    +0.000 C 
ATOM     18  C   UNL     1      61.707  68.189  54.766  0.00  0.00    +0.000 C 
ATOM     19  C   UNL     1      62.303  66.892  54.821  0.00  0.00    +0.000 C 
ATOM     20  N   UNL     1      61.386  66.376  52.581  0.00  0.00    +0.000 N 
ATOM     21  C   UNL     1      61.472  65.677  52.152  0.00  0.00    +0.000 C 
ATOM     22  C   UNL     1      60.974  67.054  52.357  0.00  0.00    +0.000 C 
ATOM     23  O   UNL     1      60.947  67.706  52.863  0.00  0.00    +0.000 OA
ATOM     24  C   UNL     1      60.590  67.083  51.628  0.00  0.00    +0.000 C 
ATOM     25  C   UNL     1      60.179  67.761  51.404  0.00  0.00    +0.000 C 
ATOM     26  C   UNL     1      60.152  68.413  51.910  0.00  0.00    +0.000 A 
ATOM     27  C   UNL     1      59.740  69.093  51.686  0.00  0.00    +0.000 A 
ATOM     28  C   UNL     1      59.713  69.744  52.191  0.00  0.00    +0.000 A 
ATOM     29  C   UNL     1      60.098  69.716  52.921  0.00  0.00    +0.000 A 
ATOM     30  C   UNL     1      60.509  69.037  53.145  0.00  0.00    +0.000 A 
ATOM     31  C   UNL     1      60.536  68.386  52.639  0.00  0.00    +0.000 A 
ATOM     32  N   UNL     1      60.071  70.367  53.426  0.00  0.00    +0.000 N 
ATOM     33  C   UNL     1      59.659  71.047  53.202  0.00  0.00    +0.000 C 
ATOM     34  C   UNL     1      59.632  71.698  53.708  0.00  0.00    +0.000 C 
ATOM     35  O   UNL     1      60.016  71.670  54.437  0.00  0.00    +0.000 OA
ATOM     36  C   UNL     1      60.428  70.991  54.661  0.00  0.00    +0.000 C 
ATOM     37  C   UNL     1      60.455  70.340  54.156  0.00  0.00    +0.000 C 
ATOM     38  O   UNL     1      60.617  66.431  51.122  0.00  0.00    +0.000 OA
ATOM     39  C   UNL     1      60.180  66.657  50.460  0.00  0.00    +0.000 C 
ATOM     40  O   UNL     1      59.836  67.405  50.428  0.00  0.00    +0.000 OA
ATOM     41  C   UNL     1      60.087  66.133  49.829  0.00  0.00    +0.000 C 
ATOM     42  C   UNL     1      59.650  66.359  49.167  0.00  0.00    +0.000 C 
ATOM     43  C   UNL     1      59.307  67.108  49.135  0.00  0.00    +0.000 C 
ATOM     44  C   UNL     1      58.870  67.334  48.473  0.00  0.00    +0.000 C 
ATOM     45  C   UNL     1      59.399  67.631  49.766  0.00  0.00    +0.000 C 
ATOM     46  N   UNL     1      60.431  65.384  49.861  0.00  0.00    +0.000 N 
ATOM     47  C   UNL     1      60.883  65.065  50.473  0.00  0.00    +0.000 C 
ATOM     48  C   UNL     1      60.225  65.023  49.148  0.00  0.00    +0.000 C 
ATOM     49  O   UNL     1      59.766  65.431  48.597  0.00  0.00    +0.000 OA
ATOM     50  C   UNL     1      60.478  64.256  48.985  0.00  0.00    +0.000 C 
ATOM     51  C   UNL     1      60.272  63.895  48.272  0.00  0.00    +0.000 C 
ATOM     52  O   UNL     1      60.937  63.848  49.536  0.00  0.00    +0.000 OA
ATOM     53  C   UNL     1      61.083  63.112  49.190  0.00  0.00    +0.000 C 
ATOM     54  O   UNL     1      60.776  62.941  48.443  0.00  0.00    +0.000 OA
ATOM     55  C   UNL     1      61.533  62.550  49.591  0.00  0.00    +0.000 C 
ATOM     56  C   UNL     1      61.678  61.815  49.245  0.00  0.00    +0.000 C 
ATOM     57  C   UNL     1      61.373  61.643  48.498  0.00  0.00    +0.000 C 
ATOM     58  C   UNL     1      61.517  60.908  48.152  0.00  0.00    +0.000 C 
ATOM     59  C   UNL     1      60.922  62.206  48.098  0.00  0.00    +0.000 C 
ATOM     60  N   UNL     1      61.839  62.722  50.337  0.00  0.00    +0.000 N 
ATOM     61  C   UNL     1      61.752  63.421  50.767  0.00  0.00    +0.000 C 
ATOM     62  C   UNL     1      62.251  62.042  50.561  0.00  0.00    +0.000 C 
ATOM     63  O   UNL     1      62.278  61.391  50.056  0.00  0.00    +0.000 OA
ATOM     64  C   UNL     1      62.635  62.015  51.291  0.00  0.00    +0.000 C 
ATOM     65  C   UNL     1      63.046  61.336  51.514  0.00  0.00    +0.000 C 
ATOM     66  C   UNL     1      63.073  60.684  51.009  0.00  0.00    +0.000 A 
ATOM     67  C   UNL     1      63.485  60.005  51.233  0.00  0.00    +0.000 A 
ATOM     68  C   UNL     1      63.512  59.354  50.728  0.00  0.00    +0.000 A 
ATOM     69  C   UNL     1      63.127  59.382  49.998  0.00  0.00    +0.000 A 
ATOM     70  C   UNL     1      62.716  60.061  49.774  0.00  0.00    +0.000 A 
ATOM     71  C   UNL     1      62.689  60.712  50.280  0.00  0.00    +0.000 A 
ATOM     72  N   UNL     1      63.154  58.730  49.492  0.00  0.00    +0.000 N 
ATOM     73  C   UNL     1      63.566  58.051  49.717  0.00  0.00    +0.000 C 
ATOM     74  C   UNL     1      63.593  57.400  49.211  0.00  0.00    +0.000 C 
ATOM     75  O   UNL     1      63.208  57.427  48.481  0.00  0.00    +0.000 OA
ATOM     76  C   UNL     1      62.797  58.107  48.258  0.00  0.00    +0.000 C 
ATOM     77  C   UNL     1      62.770  58.758  48.763  0.00  0.00    +0.000 C 
ATOM     78  O   UNL     1      62.608  62.666  51.796  0.00  0.00    +0.000 OA
ATOM     79  C   UNL     1      63.045  62.440  52.459  0.00  0.00    +0.000 C 
ATOM     80  O   UNL     1      63.389  61.692  52.490  0.00  0.00    +0.000 OA
ENDROOT
TORSDOF 0
ENDMDL
MODEL 3
REMARK VINA RESULT:   -18.419      1.387      7.696
REMARK INTER + INTRA:         -18.419
REMARK INTER:                 -18.419
REMARK INTRA:                   0.000
REMARK UNBOUND:                 0.000
ROOT
REMARK  Name = emodepside
REMARK                            x       y       z     vdW  Elec       q    Type
REMARK                         _______ _______ _______ _____ _____    ______ ____
ATOM      1  C   UNL     1      60.688  62.248  49.298  0.00  0.00    +0.000 C 
ATOM      2  C   UNL     1      60.261  62.755  48.807  0.00  0.00    +0.000 C 
ATOM      3  C   UNL     1      59.946  62.476  48.098  0.00  0.00    +0.000 C 
ATOM      4  C   UNL     1      60.148  63.543  49.027  0.00  0.00    +0.000 C 
ATOM      5  C   UNL     1      60.463  63.822  49.737  0.00  0.00    +0.000 C 
ATOM      6  N   UNL     1      60.350  64.610  49.956  0.00  0.00    +0.000 N 
ATOM      7  C   UNL     1      60.622  64.984  50.640  0.00  0.00    +0.000 C 
ATOM      8  C   UNL     1      59.908  64.941  49.345  0.00  0.00    +0.000 C 
ATOM      9  O   UNL     1      59.684  64.477  48.699  0.00  0.00    +0.000 OA
ATOM     10  C   UNL     1      59.688  65.736  49.377  0.00  0.00    +0.000 C 
ATOM     11  C   UNL     1      59.245  66.067  48.765  0.00  0.00    +0.000 C 
ATOM     12  O   UNL     1      59.911  66.199  50.022  0.00  0.00    +0.000 OA
ATOM     13  C   UNL     1      59.600  66.946  49.866  0.00  0.00    +0.000 C 
ATOM     14  O   UNL     1      59.171  67.079  49.173  0.00  0.00    +0.000 OA
ATOM     15  C   UNL     1      59.716  67.562  50.402  0.00  0.00    +0.000 C 
ATOM     16  C   UNL     1      59.405  68.310  50.246  0.00  0.00    +0.000 C 
ATOM     17  C   UNL     1      58.977  68.442  49.554  0.00  0.00    +0.000 C 
ATOM     18  C   UNL     1      58.665  69.190  49.398  0.00  0.00    +0.000 C 
ATOM     19  C   UNL     1      58.860  67.827  49.017  0.00  0.00    +0.000 C 
ATOM     20  N   UNL     1      60.144  67.431  51.095  0.00  0.00    +0.000 N 
ATOM     21  C   UNL     1      60.494  66.726  51.343  0.00  0.00    +0.000 C 
ATOM     22  C   UNL     1      60.147  68.156  51.487  0.00  0.00    +0.000 C 
ATOM     23  O   UNL     1      59.764  68.806  51.152  0.00  0.00    +0.000 OA
ATOM     24  C   UNL     1      60.531  68.233  52.213  0.00  0.00    +0.000 C 
ATOM     25  C   UNL     1      60.533  68.959  52.604  0.00  0.00    +0.000 C 
ATOM     26  C   UNL     1      60.151  69.609  52.269  0.00  0.00    +0.000 A 
ATOM     27  C   UNL     1      60.153  70.336  52.661  0.00  0.00    +0.000 A 
ATOM     28  C   UNL     1      59.771  70.986  52.326  0.00  0.00    +0.000 A 
ATOM     29  C   UNL     1      59.386  70.909  51.600  0.00  0.00    +0.000 A 
ATOM     30  C   UNL     1      59.384  70.183  51.209  0.00  0.00    +0.000 A 
ATOM     31  C   UNL     1      59.766  69.533  51.544  0.00  0.00    +0.000 A 
ATOM     32  N   UNL     1      59.004  71.559  51.266  0.00  0.00    +0.000 N 
ATOM     33  C   UNL     1      59.006  72.286  51.657  0.00  0.00    +0.000 C 
ATOM     34  C   UNL     1      58.623  72.936  51.323  0.00  0.00    +0.000 C 
ATOM     35  O   UNL     1      58.239  72.859  50.597  0.00  0.00    +0.000 OA
ATOM     36  C   UNL     1      58.237  72.133  50.206  0.00  0.00    +0.000 C 
ATOM     37  C   UNL     1      58.619  71.483  50.540  0.00  0.00    +0.000 C 
ATOM     38  O   UNL     1      60.914  67.583  52.547  0.00  0.00    +0.000 OA
ATOM     39  C   UNL     1      61.228  67.862  53.257  0.00  0.00    +0.000 C 
ATOM     40  O   UNL     1      61.116  68.649  53.477  0.00  0.00    +0.000 OA
ATOM     41  C   UNL     1      61.655  67.354  53.747  0.00  0.00    +0.000 C 
ATOM     42  C   UNL     1      61.970  67.634  54.456  0.00  0.00    +0.000 C 
ATOM     43  C   UNL     1      61.857  68.420  54.676  0.00  0.00    +0.000 C 
ATOM     44  C   UNL     1      62.172  68.700  55.385  0.00  0.00    +0.000 C 
ATOM     45  C   UNL     1      61.430  68.929  54.186  0.00  0.00    +0.000 C 
ATOM     46  N   UNL     1      61.768  66.567  53.527  0.00  0.00    +0.000 N 
ATOM     47  C   UNL     1      61.497  66.193  52.844  0.00  0.00    +0.000 C 
ATOM     48  C   UNL     1      62.211  66.235  54.139  0.00  0.00    +0.000 C 
ATOM     49  O   UNL     1      62.434  66.699  54.784  0.00  0.00    +0.000 OA
ATOM     50  C   UNL     1      62.430  65.441  54.107  0.00  0.00    +0.000 C 
ATOM     51  C   UNL     1      62.873  65.109  54.719  0.00  0.00    +0.000 C 
ATOM     52  O   UNL     1      62.207  64.978  53.462  0.00  0.00    +0.000 OA
ATOM     53  C   UNL     1      62.519  64.230  53.617  0.00  0.00    +0.000 C 
ATOM     54  O   UNL     1      62.947  64.099  54.311  0.00  0.00    +0.000 OA
ATOM     55  C   UNL     1      62.402  63.615  53.081  0.00  0.00    +0.000 C 
ATOM     56  C   UNL     1      62.713  62.867  53.237  0.00  0.00    +0.000 C 
ATOM     57  C   UNL     1      63.142  62.734  53.930  0.00  0.00    +0.000 C 
ATOM     58  C   UNL     1      63.454  61.987  54.087  0.00  0.00    +0.000 C 
ATOM     59  C   UNL     1      63.258  63.350  54.466  0.00  0.00    +0.000 C 
ATOM     60  N   UNL     1      61.974  63.746  52.388  0.00  0.00    +0.000 N 
ATOM     61  C   UNL     1      61.624  64.452  52.141  0.00  0.00    +0.000 C 
ATOM     62  C   UNL     1      61.972  63.020  51.997  0.00  0.00    +0.000 C 
ATOM     63  O   UNL     1      62.354  62.370  52.331  0.00  0.00    +0.000 OA
ATOM     64  C   UNL     1      61.587  62.944  51.271  0.00  0.00    +0.000 C 
ATOM     65  C   UNL     1      61.585  62.218  50.880  0.00  0.00    +0.000 C 
ATOM     66  C   UNL     1      61.968  61.568  51.215  0.00  0.00    +0.000 A 
ATOM     67  C   UNL     1      61.965  60.841  50.823  0.00  0.00    +0.000 A 
ATOM     68  C   UNL     1      62.348  60.191  51.157  0.00  0.00    +0.000 A 
ATOM     69  C   UNL     1      62.733  60.268  51.884  0.00  0.00    +0.000 A 
ATOM     70  C   UNL     1      62.734  60.994  52.275  0.00  0.00    +0.000 A 
ATOM     71  C   UNL     1      62.352  61.644  51.940  0.00  0.00    +0.000 A 
ATOM     72  N   UNL     1      63.115  59.618  52.218  0.00  0.00    +0.000 N 
ATOM     73  C   UNL     1      63.112  58.891  51.826  0.00  0.00    +0.000 C 
ATOM     74  C   UNL     1      63.495  58.241  52.161  0.00  0.00    +0.000 C 
ATOM     75  O   UNL     1      63.880  58.318  52.887  0.00  0.00    +0.000 OA
ATOM     76  C   UNL     1      63.881  59.044  53.278  0.00  0.00    +0.000 C 
ATOM     77  C   UNL     1      63.499  59.694  52.944  0.00  0.00    +0.000 C 
ATOM     78  O   UNL     1      61.205  63.594  50.937  0.00  0.00    +0.000 OA
ATOM     79  C   UNL     1      60.890  63.314  50.227  0.00  0.00    +0.000 C 
ATOM     80  O   UNL     1      61.003  62.527  50.008  0.00  0.00    +0.000 OA
ENDROOT
TORSDOF 0
ENDMDL
MODEL 4
REMARK VINA RESULT:   -18.409      1.390      4.324
REMARK INTER + INTRA:         -18.409
REMARK INTER:                 -18.409
REMARK INTRA:                   0.000
REMARK UNBOUND:                 0.000
ROOT
REMARK  Name = emodepside
REMARK                            x       y       z     vdW  Elec       q    Type
REMARK                         _______ _______ _______ _____ _____    ______ ____
ATOM      1  C   UNL     1      61.415  68.942  54.172  0.00  0.00    +0.000 C 
ATOM      2  C   UNL     1      61.843  68.438  54.665  0.00  0.00    +0.000 C 
ATOM      3  C   UNL     1      62.155  68.720  55.375  0.00  0.00    +0.000 C 
ATOM      4  C   UNL     1      61.959  67.649  54.448  0.00  0.00    +0.000 C 
ATOM      5  C   UNL     1      61.648  67.367  53.738  0.00  0.00    +0.000 C 
ATOM      6  N   UNL     1      61.765  66.580  53.521  0.00  0.00    +0.000 N 
ATOM      7  C   UNL     1      61.497  66.202  52.838  0.00  0.00    +0.000 C 
ATOM      8  C   UNL     1      62.207  66.252  54.135  0.00  0.00    +0.000 C 
ATOM      9  O   UNL     1      62.426  66.718  54.780  0.00  0.00    +0.000 OA
ATOM     10  C   UNL     1      62.430  65.458  54.105  0.00  0.00    +0.000 C 
ATOM     11  C   UNL     1      62.872  65.130  54.719  0.00  0.00    +0.000 C 
ATOM     12  O   UNL     1      62.211  64.992  53.461  0.00  0.00    +0.000 OA
ATOM     13  C   UNL     1      62.525  64.247  53.620  0.00  0.00    +0.000 C 
ATOM     14  O   UNL     1      62.952  64.118  54.314  0.00  0.00    +0.000 OA
ATOM     15  C   UNL     1      62.412  63.629  53.085  0.00  0.00    +0.000 C 
ATOM     16  C   UNL     1      62.726  62.883  53.243  0.00  0.00    +0.000 C 
ATOM     17  C   UNL     1      63.153  62.754  53.937  0.00  0.00    +0.000 C 
ATOM     18  C   UNL     1      63.468  62.009  54.097  0.00  0.00    +0.000 C 
ATOM     19  C   UNL     1      63.266  63.372  54.473  0.00  0.00    +0.000 C 
ATOM     20  N   UNL     1      61.985  63.757  52.390  0.00  0.00    +0.000 N 
ATOM     21  C   UNL     1      61.633  64.460  52.140  0.00  0.00    +0.000 C 
ATOM     22  C   UNL     1      61.987  63.030  52.001  0.00  0.00    +0.000 C 
ATOM     23  O   UNL     1      62.372  62.383  52.338  0.00  0.00    +0.000 OA
ATOM     24  C   UNL     1      61.605  62.950  51.274  0.00  0.00    +0.000 C 
ATOM     25  C   UNL     1      61.607  62.223  50.884  0.00  0.00    +0.000 C 
ATOM     26  C   UNL     1      61.991  61.576  51.222  0.00  0.00    +0.000 A 
ATOM     27  C   UNL     1      61.994  60.848  50.832  0.00  0.00    +0.000 A 
ATOM     28  C   UNL     1      62.378  60.200  51.169  0.00  0.00    +0.000 A 
ATOM     29  C   UNL     1      62.760  60.281  51.896  0.00  0.00    +0.000 A 
ATOM     30  C   UNL     1      62.758  61.007  52.286  0.00  0.00    +0.000 A 
ATOM     31  C   UNL     1      62.374  61.655  51.948  0.00  0.00    +0.000 A 
ATOM     32  N   UNL     1      63.144  59.633  52.234  0.00  0.00    +0.000 N 
ATOM     33  C   UNL     1      63.146  58.905  51.844  0.00  0.00    +0.000 C 
ATOM     34  C   UNL     1      63.530  58.258  52.181  0.00  0.00    +0.000 C 
ATOM     35  O   UNL     1      63.912  58.338  52.908  0.00  0.00    +0.000 OA
ATOM     36  C   UNL     1      63.910  59.065  53.297  0.00  0.00    +0.000 C 
ATOM     37  C   UNL     1      63.526  59.712  52.960  0.00  0.00    +0.000 C 
ATOM     38  O   UNL     1      61.221  63.597  50.936  0.00  0.00    +0.000 OA
ATOM     39  C   UNL     1      60.910  63.315  50.226  0.00  0.00    +0.000 C 
ATOM     40  O   UNL     1      61.026  62.528  50.009  0.00  0.00    +0.000 OA
ATOM     41  C   UNL     1      60.482  63.820  49.734  0.00  0.00    +0.000 C 
ATOM     42  C   UNL     1      60.171  63.537  49.024  0.00  0.00    +0.000 C 
ATOM     43  C   UNL     1      60.287  62.751  48.807  0.00  0.00    +0.000 C 
ATOM     44  C   UNL     1      59.976  62.468  48.098  0.00  0.00    +0.000 C 
ATOM     45  C   UNL     1      60.715  62.245  49.299  0.00  0.00    +0.000 C 
ATOM     46  N   UNL     1      60.365  64.607  49.951  0.00  0.00    +0.000 N 
ATOM     47  C   UNL     1      60.633  64.984  50.634  0.00  0.00    +0.000 C 
ATOM     48  C   UNL     1      59.923  64.936  49.337  0.00  0.00    +0.000 C 
ATOM     49  O   UNL     1      59.703  64.470  48.692  0.00  0.00    +0.000 OA
ATOM     50  C   UNL     1      59.700  65.729  49.367  0.00  0.00    +0.000 C 
ATOM     51  C   UNL     1      59.257  66.057  48.753  0.00  0.00    +0.000 C 
ATOM     52  O   UNL     1      59.919  66.195  50.011  0.00  0.00    +0.000 OA
ATOM     53  C   UNL     1      59.605  66.941  49.853  0.00  0.00    +0.000 C 
ATOM     54  O   UNL     1      59.178  67.069  49.158  0.00  0.00    +0.000 OA
ATOM     55  C   UNL     1      59.718  67.558  50.388  0.00  0.00    +0.000 C 
ATOM     56  C   UNL     1      59.404  68.304  50.229  0.00  0.00    +0.000 C 
ATOM     57  C   UNL     1      58.977  68.433  49.535  0.00  0.00    +0.000 C 
ATOM     58  C   UNL     1      58.662  69.179  49.375  0.00  0.00    +0.000 C 
ATOM     59  C   UNL     1      58.864  67.815  48.999  0.00  0.00    +0.000 C 
ATOM     60  N   UNL     1      60.145  67.430  51.082  0.00  0.00    +0.000 N 
ATOM     61  C   UNL     1      60.497  66.727  51.332  0.00  0.00    +0.000 C 
ATOM     62  C   UNL     1      60.142  68.158  51.472  0.00  0.00    +0.000 C 
ATOM     63  O   UNL     1      59.758  68.806  51.134  0.00  0.00    +0.000 OA
ATOM     64  C   UNL     1      60.525  68.237  52.198  0.00  0.00    +0.000 C 
ATOM     65  C   UNL     1      60.522  68.964  52.587  0.00  0.00    +0.000 C 
ATOM     66  C   UNL     1      60.138  69.612  52.250  0.00  0.00    +0.000 A 
ATOM     67  C   UNL     1      60.136  70.339  52.640  0.00  0.00    +0.000 A 
ATOM     68  C   UNL     1      59.752  70.987  52.303  0.00  0.00    +0.000 A 
ATOM     69  C   UNL     1      59.370  70.907  51.575  0.00  0.00    +0.000 A 
ATOM     70  C   UNL     1      59.372  70.180  51.186  0.00  0.00    +0.000 A 
ATOM     71  C   UNL     1      59.756  69.532  51.524  0.00  0.00    +0.000 A 
ATOM     72  N   UNL     1      58.986  71.555  51.238  0.00  0.00    +0.000 N 
ATOM     73  C   UNL     1      58.984  72.282  51.628  0.00  0.00    +0.000 C 
ATOM     74  C   UNL     1      58.600  72.929  51.291  0.00  0.00    +0.000 C 
ATOM     75  O   UNL     1      58.217  72.850  50.564  0.00  0.00    +0.000 OA
ATOM     76  C   UNL     1      58.220  72.122  50.175  0.00  0.00    +0.000 C 
ATOM     77  C   UNL     1      58.604  71.475  50.512  0.00  0.00    +0.000 C 
ATOM     78  O   UNL     1      60.909  67.590  52.536  0.00  0.00    +0.000 OA
ATOM     79  C   UNL     1      61.220  67.873  53.245  0.00  0.00    +0.000 C 
ATOM     80  O   UNL     1      61.104  68.659  53.462  0.00  0.00    +0.000 OA
ENDROOT
TORSDOF 0
ENDMDL
MODEL 5
REMARK VINA RESULT:   -17.149      2.049      4.404
REMARK INTER + INTRA:         -17.149
REMARK INTER:                 -17.149
REMARK INTRA:                   0.000
REMARK UNBOUND:                 0.000
ROOT
REMARK  Name = emodepside
REMARK                            x       y       z     vdW  Elec       q    Type
REMARK                         _______ _______ _______ _____ _____    ______ ____
ATOM      1  C   UNL     1      58.642  70.048  49.283  0.00  0.00    +0.000 C 
ATOM      2  C   UNL     1      58.812  69.349  48.877  0.00  0.00    +0.000 C 
ATOM      3  C   UNL     1      58.557  69.250  48.099  0.00  0.00    +0.000 C 
ATOM      4  C   UNL     1      59.239  68.749  49.251  0.00  0.00    +0.000 C 
ATOM      5  C   UNL     1      59.494  68.848  50.030  0.00  0.00    +0.000 C 
ATOM      6  N   UNL     1      59.921  68.248  50.403  0.00  0.00    +0.000 N 
ATOM      7  C   UNL     1      60.219  68.249  51.172  0.00  0.00    +0.000 C 
ATOM      8  C   UNL     1      59.984  67.649  49.840  0.00  0.00    +0.000 C 
ATOM      9  O   UNL     1      59.648  67.748  49.092  0.00  0.00    +0.000 OA
ATOM     10  C   UNL     1      60.383  66.951  50.024  0.00  0.00    +0.000 C 
ATOM     11  C   UNL     1      60.447  66.351  49.461  0.00  0.00    +0.000 C 
ATOM     12  O   UNL     1      60.719  66.852  50.771  0.00  0.00    +0.000 OA
ATOM     13  C   UNL     1      61.064  66.104  50.753  0.00  0.00    +0.000 C 
ATOM     14  O   UNL     1      61.015  65.643  50.070  0.00  0.00    +0.000 OA
ATOM     15  C   UNL     1      61.457  65.814  51.417  0.00  0.00    +0.000 C 
ATOM     16  C   UNL     1      61.802  65.065  51.400  0.00  0.00    +0.000 C 
ATOM     17  C   UNL     1      61.754  64.605  50.717  0.00  0.00    +0.000 C 
ATOM     18  C   UNL     1      62.098  63.856  50.699  0.00  0.00    +0.000 C 
ATOM     19  C   UNL     1      61.360  64.894  50.052  0.00  0.00    +0.000 C 
ATOM     20  N   UNL     1      61.506  66.274  52.101  0.00  0.00    +0.000 N 
ATOM     21  C   UNL     1      61.198  67.030  52.220  0.00  0.00    +0.000 C 
ATOM     22  C   UNL     1      61.930  65.814  52.638  0.00  0.00    +0.000 C 
ATOM     23  O   UNL     1      62.197  65.065  52.419  0.00  0.00    +0.000 OA
ATOM     24  C   UNL     1      62.088  66.103  53.395  0.00  0.00    +0.000 C 
ATOM     25  C   UNL     1      62.512  65.644  53.932  0.00  0.00    +0.000 C 
ATOM     26  C   UNL     1      62.779  64.894  53.713  0.00  0.00    +0.000 A 
ATOM     27  C   UNL     1      63.204  64.434  54.251  0.00  0.00    +0.000 A 
ATOM     28  C   UNL     1      63.471  63.685  54.032  0.00  0.00    +0.000 A 
ATOM     29  C   UNL     1      63.313  63.396  53.276  0.00  0.00    +0.000 A 
ATOM     30  C   UNL     1      62.889  63.855  52.738  0.00  0.00    +0.000 A 
ATOM     31  C   UNL     1      62.622  64.605  52.957  0.00  0.00    +0.000 A 
ATOM     32  N   UNL     1      63.580  62.647  53.057  0.00  0.00    +0.000 N 
ATOM     33  C   UNL     1      64.005  62.186  53.595  0.00  0.00    +0.000 C 
ATOM     34  C   UNL     1      64.272  61.437  53.376  0.00  0.00    +0.000 C 
ATOM     35  O   UNL     1      64.114  61.148  52.619  0.00  0.00    +0.000 OA
ATOM     36  C   UNL     1      63.690  61.608  52.082  0.00  0.00    +0.000 C 
ATOM     37  C   UNL     1      63.423  62.357  52.301  0.00  0.00    +0.000 C 
ATOM     38  O   UNL     1      61.821  66.852  53.614  0.00  0.00    +0.000 OA
ATOM     39  C   UNL     1      62.076  66.952  54.392  0.00  0.00    +0.000 C 
ATOM     40  O   UNL     1      62.502  66.352  54.766  0.00  0.00    +0.000 OA
ATOM     41  C   UNL     1      61.905  67.650  54.797  0.00  0.00    +0.000 C 
ATOM     42  C   UNL     1      62.160  67.748  55.575  0.00  0.00    +0.000 C 
ATOM     43  C   UNL     1      62.586  67.149  55.948  0.00  0.00    +0.000 C 
ATOM     44  C   UNL     1      62.842  67.247  56.726  0.00  0.00    +0.000 C 
ATOM     45  C   UNL     1      62.758  66.451  55.544  0.00  0.00    +0.000 C 
ATOM     46  N   UNL     1      61.479  68.249  54.423  0.00  0.00    +0.000 N 
ATOM     47  C   UNL     1      61.181  68.249  53.654  0.00  0.00    +0.000 C 
ATOM     48  C   UNL     1      61.415  68.849  54.986  0.00  0.00    +0.000 C 
ATOM     49  O   UNL     1      61.751  68.751  55.733  0.00  0.00    +0.000 OA
ATOM     50  C   UNL     1      61.016  69.547  54.803  0.00  0.00    +0.000 C 
ATOM     51  C   UNL     1      60.953  70.147  55.365  0.00  0.00    +0.000 C 
ATOM     52  O   UNL     1      60.680  69.645  54.055  0.00  0.00    +0.000 OA
ATOM     53  C   UNL     1      60.335  70.395  54.073  0.00  0.00    +0.000 C 
ATOM     54  O   UNL     1      60.384  70.855  54.757  0.00  0.00    +0.000 OA
ATOM     55  C   UNL     1      59.942  70.684  53.408  0.00  0.00    +0.000 C 
ATOM     56  C   UNL     1      59.597  71.433  53.427  0.00  0.00    +0.000 C 
ATOM     57  C   UNL     1      59.646  71.894  54.109  0.00  0.00    +0.000 C 
ATOM     58  C   UNL     1      59.301  72.643  54.128  0.00  0.00    +0.000 C 
ATOM     59  C   UNL     1      60.039  71.604  54.774  0.00  0.00    +0.000 C 
ATOM     60  N   UNL     1      59.893  70.224  52.725  0.00  0.00    +0.000 N 
ATOM     61  C   UNL     1      60.202  69.468  52.606  0.00  0.00    +0.000 C 
ATOM     62  C   UNL     1      59.469  70.684  52.187  0.00  0.00    +0.000 C 
ATOM     63  O   UNL     1      59.201  71.433  52.406  0.00  0.00    +0.000 OA
ATOM     64  C   UNL     1      59.312  70.394  51.431  0.00  0.00    +0.000 C 
ATOM     65  C   UNL     1      58.887  70.855  50.894  0.00  0.00    +0.000 C 
ATOM     66  C   UNL     1      58.620  71.604  51.113  0.00  0.00    +0.000 A 
ATOM     67  C   UNL     1      58.196  72.064  50.575  0.00  0.00    +0.000 A 
ATOM     68  C   UNL     1      57.929  72.813  50.794  0.00  0.00    +0.000 A 
ATOM     69  C   UNL     1      58.086  73.103  51.551  0.00  0.00    +0.000 A 
ATOM     70  C   UNL     1      58.510  72.642  52.088  0.00  0.00    +0.000 A 
ATOM     71  C   UNL     1      58.777  71.893  51.869  0.00  0.00    +0.000 A 
ATOM     72  N   UNL     1      57.819  73.852  51.770  0.00  0.00    +0.000 N 
ATOM     73  C   UNL     1      57.395  74.311  51.232  0.00  0.00    +0.000 C 
ATOM     74  C   UNL     1      57.128  75.061  51.451  0.00  0.00    +0.000 C 
ATOM     75  O   UNL     1      57.285  75.350  52.208  0.00  0.00    +0.000 OA
ATOM     76  C   UNL     1      57.709  74.890  52.745  0.00  0.00    +0.000 C 
ATOM     77  C   UNL     1      57.976  74.141  52.526  0.00  0.00    +0.000 C 
ATOM     78  O   UNL     1      59.579  69.645  51.212  0.00  0.00    +0.000 OA
ATOM     79  C   UNL     1      59.323  69.547  50.434  0.00  0.00    +0.000 C 
ATOM     80  O   UNL     1      58.897  70.146  50.061  0.00  0.00    +0.000 OA
ENDROOT
TORSDOF 0
ENDMDL
MODEL 6
REMARK VINA RESULT:   -17.125      1.905      5.320
REMARK INTER + INTRA:         -17.125
REMARK INTER:                 -17.125
REMARK INTRA:                   0.000
REMARK UNBOUND:                 0.000
ROOT
REMARK  Name = emodepside
REMARK                            x       y       z     vdW  Elec       q    Type
REMARK                         _______ _______ _______ _____ _____    ______ ____
ATOM      1  C   UNL     1      60.171  71.014  53.822  0.00  0.00    +0.000 C 
ATOM      2  C   UNL     1      60.573  70.600  54.413  0.00  0.00    +0.000 C 
ATOM      3  C   UNL     1      60.723  70.960  55.140  0.00  0.00    +0.000 C 
ATOM      4  C   UNL     1      60.824  69.825  54.276  0.00  0.00    +0.000 C 
ATOM      5  C   UNL     1      60.673  69.465  53.549  0.00  0.00    +0.000 C 
ATOM      6  N   UNL     1      60.925  68.691  53.413  0.00  0.00    +0.000 N 
ATOM      7  C   UNL     1      60.824  68.245  52.726  0.00  0.00    +0.000 C 
ATOM      8  C   UNL     1      61.297  68.461  54.112  0.00  0.00    +0.000 C 
ATOM      9  O   UNL     1      61.345  68.987  54.747  0.00  0.00    +0.000 OA
ATOM     10  C   UNL     1      61.622  67.705  54.177  0.00  0.00    +0.000 C 
ATOM     11  C   UNL     1      61.994  67.475  54.876  0.00  0.00    +0.000 C 
ATOM     12  O   UNL     1      61.574  67.180  53.543  0.00  0.00    +0.000 OA
ATOM     13  C   UNL     1      61.950  66.495  53.804  0.00  0.00    +0.000 C 
ATOM     14  O   UNL     1      62.269  66.463  54.565  0.00  0.00    +0.000 OA
ATOM     15  C   UNL     1      62.008  65.840  53.306  0.00  0.00    +0.000 C 
ATOM     16  C   UNL     1      62.385  65.154  53.568  0.00  0.00    +0.000 C 
ATOM     17  C   UNL     1      62.703  65.123  54.328  0.00  0.00    +0.000 C 
ATOM     18  C   UNL     1      63.080  64.437  54.590  0.00  0.00    +0.000 C 
ATOM     19  C   UNL     1      62.645  65.777  54.827  0.00  0.00    +0.000 C 
ATOM     20  N   UNL     1      61.690  65.870  52.545  0.00  0.00    +0.000 N 
ATOM     21  C   UNL     1      61.297  66.503  52.191  0.00  0.00    +0.000 C 
ATOM     22  C   UNL     1      61.850  65.131  52.217  0.00  0.00    +0.000 C 
ATOM     23  O   UNL     1      62.252  64.562  52.658  0.00  0.00    +0.000 OA
ATOM     24  C   UNL     1      61.608  64.960  51.447  0.00  0.00    +0.000 C 
ATOM     25  C   UNL     1      61.767  64.221  51.118  0.00  0.00    +0.000 C 
ATOM     26  C   UNL     1      62.170  63.652  51.559  0.00  0.00    +0.000 A 
ATOM     27  C   UNL     1      62.330  62.912  51.230  0.00  0.00    +0.000 A 
ATOM     28  C   UNL     1      62.733  62.343  51.671  0.00  0.00    +0.000 A 
ATOM     29  C   UNL     1      62.975  62.514  52.441  0.00  0.00    +0.000 A 
ATOM     30  C   UNL     1      62.815  63.253  52.770  0.00  0.00    +0.000 A 
ATOM     31  C   UNL     1      62.413  63.822  52.329  0.00  0.00    +0.000 A 
ATOM     32  N   UNL     1      63.377  61.945  52.882  0.00  0.00    +0.000 N 
ATOM     33  C   UNL     1      63.538  61.204  52.553  0.00  0.00    +0.000 C 
ATOM     34  C   UNL     1      63.940  60.635  52.994  0.00  0.00    +0.000 C 
ATOM     35  O   UNL     1      64.183  60.806  53.764  0.00  0.00    +0.000 OA
ATOM     36  C   UNL     1      64.023  61.545  54.093  0.00  0.00    +0.000 C 
ATOM     37  C   UNL     1      63.620  62.114  53.652  0.00  0.00    +0.000 C 
ATOM     38  O   UNL     1      61.205  65.530  51.005  0.00  0.00    +0.000 OA
ATOM     39  C   UNL     1      61.054  65.170  50.278  0.00  0.00    +0.000 C 
ATOM     40  O   UNL     1      61.305  64.396  50.142  0.00  0.00    +0.000 OA
ATOM     41  C   UNL     1      60.653  65.584  49.688  0.00  0.00    +0.000 C 
ATOM     42  C   UNL     1      60.503  65.224  48.962  0.00  0.00    +0.000 C 
ATOM     43  C   UNL     1      60.754  64.450  48.825  0.00  0.00    +0.000 C 
ATOM     44  C   UNL     1      60.604  64.090  48.098  0.00  0.00    +0.000 C 
ATOM     45  C   UNL     1      61.155  64.036  49.415  0.00  0.00    +0.000 C 
ATOM     46  N   UNL     1      60.402  66.358  49.825  0.00  0.00    +0.000 N 
ATOM     47  C   UNL     1      60.503  66.804  50.512  0.00  0.00    +0.000 C 
ATOM     48  C   UNL     1      60.030  66.589  49.126  0.00  0.00    +0.000 C 
ATOM     49  O   UNL     1      59.982  66.063  48.491  0.00  0.00    +0.000 OA
ATOM     50  C   UNL     1      59.705  67.344  49.061  0.00  0.00    +0.000 C 
ATOM     51  C   UNL     1      59.332  67.575  48.362  0.00  0.00    +0.000 C 
ATOM     52  O   UNL     1      59.753  67.869  49.695  0.00  0.00    +0.000 OA
ATOM     53  C   UNL     1      59.376  68.555  49.434  0.00  0.00    +0.000 C 
ATOM     54  O   UNL     1      59.058  68.585  48.673  0.00  0.00    +0.000 OA
ATOM     55  C   UNL     1      59.319  69.209  49.933  0.00  0.00    +0.000 C 
ATOM     56  C   UNL     1      58.942  69.895  49.670  0.00  0.00    +0.000 C 
ATOM     57  C   UNL     1      58.623  69.927  48.910  0.00  0.00    +0.000 C 
ATOM     58  C   UNL     1      58.247  70.612  48.647  0.00  0.00    +0.000 C 
ATOM     59  C   UNL     1      58.682  69.272  48.411  0.00  0.00    +0.000 C 
ATOM     60  N   UNL     1      59.637  69.178  50.693  0.00  0.00    +0.000 N 
ATOM     61  C   UNL     1      60.030  68.545  51.047  0.00  0.00    +0.000 C 
ATOM     62  C   UNL     1      59.477  69.919  51.022  0.00  0.00    +0.000 C 
ATOM     63  O   UNL     1      59.074  70.488  50.580  0.00  0.00    +0.000 OA
ATOM     64  C   UNL     1      59.719  70.088  51.791  0.00  0.00    +0.000 C 
ATOM     65  C   UNL     1      59.559  70.828  52.120  0.00  0.00    +0.000 C 
ATOM     66  C   UNL     1      59.157  71.397  51.678  0.00  0.00    +0.000 A 
ATOM     67  C   UNL     1      58.997  72.137  52.008  0.00  0.00    +0.000 A 
ATOM     68  C   UNL     1      58.594  72.706  51.567  0.00  0.00    +0.000 A 
ATOM     69  C   UNL     1      58.352  72.536  50.796  0.00  0.00    +0.000 A 
ATOM     70  C   UNL     1      58.512  71.796  50.468  0.00  0.00    +0.000 A 
ATOM     71  C   UNL     1      58.914  71.227  50.909  0.00  0.00    +0.000 A 
ATOM     72  N   UNL     1      57.949  73.105  50.355  0.00  0.00    +0.000 N 
ATOM     73  C   UNL     1      57.789  73.844  50.685  0.00  0.00    +0.000 C 
ATOM     74  C   UNL     1      57.387  74.414  50.244  0.00  0.00    +0.000 C 
ATOM     75  O   UNL     1      57.144  74.243  49.473  0.00  0.00    +0.000 OA
ATOM     76  C   UNL     1      57.304  73.504  49.145  0.00  0.00    +0.000 C 
ATOM     77  C   UNL     1      57.707  72.934  49.586  0.00  0.00    +0.000 C 
ATOM     78  O   UNL     1      60.122  69.519  52.232  0.00  0.00    +0.000 OA
ATOM     79  C   UNL     1      60.272  69.880  52.959  0.00  0.00    +0.000 C 
ATOM     80  O   UNL     1      60.021  70.653  53.096  0.00  0.00    +0.000 OA
ENDROOT
TORSDOF 0
ENDMDL
MODEL 7
REMARK VINA RESULT:   -17.060      1.367      2.710
REMARK INTER + INTRA:         -17.060
REMARK INTER:                 -17.060
REMARK INTRA:                   0.000
REMARK UNBOUND:                 0.000
ROOT
REMARK  Name = emodepside
REMARK                            x       y       z     vdW  Elec       q    Type
REMARK                         _______ _______ _______ _____ _____    ______ ____
ATOM      1  C   UNL     1      58.750  70.098  49.493  0.00  0.00    +0.000 C 
ATOM      2  C   UNL     1      58.777  69.572  48.857  0.00  0.00    +0.000 C 
ATOM      3  C   UNL     1      58.436  69.779  48.135  0.00  0.00    +0.000 C 
ATOM      4  C   UNL     1      59.147  68.839  48.944  0.00  0.00    +0.000 C 
ATOM      5  C   UNL     1      59.489  68.632  49.667  0.00  0.00    +0.000 C 
ATOM      6  N   UNL     1      59.858  67.899  49.753  0.00  0.00    +0.000 N 
ATOM      7  C   UNL     1      60.227  67.600  50.427  0.00  0.00    +0.000 C 
ATOM      8  C   UNL     1      59.779  67.532  49.019  0.00  0.00    +0.000 C 
ATOM      9  O   UNL     1      59.389  67.921  48.403  0.00  0.00    +0.000 OA
ATOM     10  C   UNL     1      60.089  66.777  48.899  0.00  0.00    +0.000 C 
ATOM     11  C   UNL     1      60.010  66.410  48.165  0.00  0.00    +0.000 C 
ATOM     12  O   UNL     1      60.478  66.389  49.514  0.00  0.00    +0.000 OA
ATOM     13  C   UNL     1      60.707  65.664  49.198  0.00  0.00    +0.000 C 
ATOM     14  O   UNL     1      60.526  65.479  48.414  0.00  0.00    +0.000 OA
ATOM     15  C   UNL     1      61.118  65.121  49.664  0.00  0.00    +0.000 C 
ATOM     16  C   UNL     1      61.347  64.394  49.348  0.00  0.00    +0.000 C 
ATOM     17  C   UNL     1      61.167  64.210  48.565  0.00  0.00    +0.000 C 
ATOM     18  C   UNL     1      61.396  63.484  48.248  0.00  0.00    +0.000 C 
ATOM     19  C   UNL     1      60.756  64.752  48.098  0.00  0.00    +0.000 C 
ATOM     20  N   UNL     1      61.299  65.304  50.448  0.00  0.00    +0.000 N 
ATOM     21  C   UNL     1      61.116  65.998  50.856  0.00  0.00    +0.000 C 
ATOM     22  C   UNL     1      61.703  64.645  50.735  0.00  0.00    +0.000 C 
ATOM     23  O   UNL     1      61.836  63.997  50.242  0.00  0.00    +0.000 OA
ATOM     24  C   UNL     1      61.973  64.632  51.514  0.00  0.00    +0.000 C 
ATOM     25  C   UNL     1      62.377  63.973  51.800  0.00  0.00    +0.000 C 
ATOM     26  C   UNL     1      62.510  63.325  51.308  0.00  0.00    +0.000 A 
ATOM     27  C   UNL     1      62.914  62.664  51.594  0.00  0.00    +0.000 A 
ATOM     28  C   UNL     1      63.047  62.016  51.102  0.00  0.00    +0.000 A 
ATOM     29  C   UNL     1      62.777  62.029  50.322  0.00  0.00    +0.000 A 
ATOM     30  C   UNL     1      62.373  62.688  50.036  0.00  0.00    +0.000 A 
ATOM     31  C   UNL     1      62.240  63.336  50.528  0.00  0.00    +0.000 A 
ATOM     32  N   UNL     1      62.910  61.381  49.829  0.00  0.00    +0.000 N 
ATOM     33  C   UNL     1      63.314  60.720  50.116  0.00  0.00    +0.000 C 
ATOM     34  C   UNL     1      63.447  60.072  49.623  0.00  0.00    +0.000 C 
ATOM     35  O   UNL     1      63.176  60.084  48.844  0.00  0.00    +0.000 OA
ATOM     36  C   UNL     1      62.773  60.744  48.557  0.00  0.00    +0.000 C 
ATOM     37  C   UNL     1      62.640  61.392  49.050  0.00  0.00    +0.000 C 
ATOM     38  O   UNL     1      61.840  65.280  52.007  0.00  0.00    +0.000 OA
ATOM     39  C   UNL     1      62.182  65.074  52.729  0.00  0.00    +0.000 C 
ATOM     40  O   UNL     1      62.551  64.342  52.816  0.00  0.00    +0.000 OA
ATOM     41  C   UNL     1      62.153  65.600  53.364  0.00  0.00    +0.000 C 
ATOM     42  C   UNL     1      62.495  65.392  54.086  0.00  0.00    +0.000 C 
ATOM     43  C   UNL     1      62.864  64.660  54.172  0.00  0.00    +0.000 C 
ATOM     44  C   UNL     1      63.206  64.453  54.894  0.00  0.00    +0.000 C 
ATOM     45  C   UNL     1      62.892  64.134  53.537  0.00  0.00    +0.000 C 
ATOM     46  N   UNL     1      61.784  66.332  53.277  0.00  0.00    +0.000 N 
ATOM     47  C   UNL     1      61.416  66.632  52.603  0.00  0.00    +0.000 C 
ATOM     48  C   UNL     1      61.863  66.700  54.012  0.00  0.00    +0.000 C 
ATOM     49  O   UNL     1      62.252  66.312  54.627  0.00  0.00    +0.000 OA
ATOM     50  C   UNL     1      61.553  67.454  54.131  0.00  0.00    +0.000 C 
ATOM     51  C   UNL     1      61.632  67.822  54.865  0.00  0.00    +0.000 C 
ATOM     52  O   UNL     1      61.164  67.842  53.516  0.00  0.00    +0.000 OA
ATOM     53  C   UNL     1      60.934  68.569  53.832  0.00  0.00    +0.000 C 
ATOM     54  O   UNL     1      61.116  68.752  54.616  0.00  0.00    +0.000 OA
ATOM     55  C   UNL     1      60.524  69.111  53.365  0.00  0.00    +0.000 C 
ATOM     56  C   UNL     1      60.295  69.837  53.682  0.00  0.00    +0.000 C 
ATOM     57  C   UNL     1      60.475  70.022  54.466  0.00  0.00    +0.000 C 
ATOM     58  C   UNL     1      60.246  70.748  54.783  0.00  0.00    +0.000 C 
ATOM     59  C   UNL     1      60.886  69.479  54.932  0.00  0.00    +0.000 C 
ATOM     60  N   UNL     1      60.343  68.927  52.582  0.00  0.00    +0.000 N 
ATOM     61  C   UNL     1      60.526  68.234  52.174  0.00  0.00    +0.000 C 
ATOM     62  C   UNL     1      59.939  69.588  52.295  0.00  0.00    +0.000 C 
ATOM     63  O   UNL     1      59.806  70.236  52.788  0.00  0.00    +0.000 OA
ATOM     64  C   UNL     1      59.669  69.599  51.516  0.00  0.00    +0.000 C 
ATOM     65  C   UNL     1      59.265  70.259  51.230  0.00  0.00    +0.000 C 
ATOM     66  C   UNL     1      59.132  70.907  51.723  0.00  0.00    +0.000 A 
ATOM     67  C   UNL     1      58.728  71.567  51.436  0.00  0.00    +0.000 A 
ATOM     68  C   UNL     1      58.595  72.215  51.928  0.00  0.00    +0.000 A 
ATOM     69  C   UNL     1      58.865  72.203  52.708  0.00  0.00    +0.000 A 
ATOM     70  C   UNL     1      59.269  71.543  52.994  0.00  0.00    +0.000 A 
ATOM     71  C   UNL     1      59.402  70.895  52.502  0.00  0.00    +0.000 A 
ATOM     72  N   UNL     1      58.732  72.851  53.201  0.00  0.00    +0.000 N 
ATOM     73  C   UNL     1      58.328  73.511  52.914  0.00  0.00    +0.000 C 
ATOM     74  C   UNL     1      58.195  74.159  53.407  0.00  0.00    +0.000 C 
ATOM     75  O   UNL     1      58.466  74.148  54.187  0.00  0.00    +0.000 OA
ATOM     76  C   UNL     1      58.869  73.488  54.473  0.00  0.00    +0.000 C 
ATOM     77  C   UNL     1      59.003  72.839  53.980  0.00  0.00    +0.000 C 
ATOM     78  O   UNL     1      59.802  68.951  51.023  0.00  0.00    +0.000 OA
ATOM     79  C   UNL     1      59.460  69.158  50.301  0.00  0.00    +0.000 C 
ATOM     80  O   UNL     1      59.091  69.890  50.215  0.00  0.00    +0.000 OA
ENDROOT
TORSDOF 0
ENDMDL
MODEL 8
REMARK VINA RESULT:   -17.019      1.434      9.126
REMARK INTER + INTRA:         -17.019
REMARK INTER:                 -17.019
REMARK INTRA:                   0.000
REMARK UNBOUND:                 0.000
ROOT
REMARK  Name = emodepside
REMARK                            x       y       z     vdW  Elec       q    Type
REMARK                         _______ _______ _______ _____ _____    ______ ____
ATOM      1  C   UNL     1      62.810  64.386  53.532  0.00  0.00    +0.000 C 
ATOM      2  C   UNL     1      62.783  64.917  54.163  0.00  0.00    +0.000 C 
ATOM      3  C   UNL     1      63.129  64.719  54.885  0.00  0.00    +0.000 C 
ATOM      4  C   UNL     1      62.408  65.648  54.071  0.00  0.00    +0.000 C 
ATOM      5  C   UNL     1      62.062  65.846  53.349  0.00  0.00    +0.000 C 
ATOM      6  N   UNL     1      61.689  66.576  53.258  0.00  0.00    +0.000 N 
ATOM      7  C   UNL     1      61.315  66.868  52.582  0.00  0.00    +0.000 C 
ATOM      8  C   UNL     1      61.769  66.950  53.988  0.00  0.00    +0.000 C 
ATOM      9  O   UNL     1      62.164  66.570  54.605  0.00  0.00    +0.000 OA
ATOM     10  C   UNL     1      61.456  67.705  54.102  0.00  0.00    +0.000 C 
ATOM     11  C   UNL     1      61.537  68.079  54.832  0.00  0.00    +0.000 C 
ATOM     12  O   UNL     1      61.062  68.085  53.485  0.00  0.00    +0.000 OA
ATOM     13  C   UNL     1      60.830  68.812  53.796  0.00  0.00    +0.000 C 
ATOM     14  O   UNL     1      61.014  69.005  54.577  0.00  0.00    +0.000 OA
ATOM     15  C   UNL     1      60.414  69.349  53.327  0.00  0.00    +0.000 C 
ATOM     16  C   UNL     1      60.182  70.077  53.638  0.00  0.00    +0.000 C 
ATOM     17  C   UNL     1      60.366  70.269  54.418  0.00  0.00    +0.000 C 
ATOM     18  C   UNL     1      60.134  70.997  54.730  0.00  0.00    +0.000 C 
ATOM     19  C   UNL     1      60.782  69.733  54.888  0.00  0.00    +0.000 C 
ATOM     20  N   UNL     1      60.230  69.157  52.546  0.00  0.00    +0.000 N 
ATOM     21  C   UNL     1      60.415  68.461  52.143  0.00  0.00    +0.000 C 
ATOM     22  C   UNL     1      59.822  69.812  52.255  0.00  0.00    +0.000 C 
ATOM     23  O   UNL     1      59.687  70.463  52.743  0.00  0.00    +0.000 OA
ATOM     24  C   UNL     1      59.547  69.815  51.477  0.00  0.00    +0.000 C 
ATOM     25  C   UNL     1      59.139  70.470  51.187  0.00  0.00    +0.000 C 
ATOM     26  C   UNL     1      59.004  71.122  51.674  0.00  0.00    +0.000 A 
ATOM     27  C   UNL     1      58.595  71.778  51.384  0.00  0.00    +0.000 A 
ATOM     28  C   UNL     1      58.461  72.429  51.871  0.00  0.00    +0.000 A 
ATOM     29  C   UNL     1      58.736  72.426  52.649  0.00  0.00    +0.000 A 
ATOM     30  C   UNL     1      59.144  71.771  52.940  0.00  0.00    +0.000 A 
ATOM     31  C   UNL     1      59.278  71.119  52.452  0.00  0.00    +0.000 A 
ATOM     32  N   UNL     1      58.601  73.077  53.137  0.00  0.00    +0.000 N 
ATOM     33  C   UNL     1      58.192  73.733  52.846  0.00  0.00    +0.000 C 
ATOM     34  C   UNL     1      58.058  74.385  53.334  0.00  0.00    +0.000 C 
ATOM     35  O   UNL     1      58.333  74.381  54.112  0.00  0.00    +0.000 OA
ATOM     36  C   UNL     1      58.741  73.726  54.402  0.00  0.00    +0.000 C 
ATOM     37  C   UNL     1      58.875  73.075  53.915  0.00  0.00    +0.000 C 
ATOM     38  O   UNL     1      59.681  69.164  50.990  0.00  0.00    +0.000 OA
ATOM     39  C   UNL     1      59.335  69.362  50.267  0.00  0.00    +0.000 C 
ATOM     40  O   UNL     1      58.962  70.091  50.176  0.00  0.00    +0.000 OA
ATOM     41  C   UNL     1      59.363  68.830  49.637  0.00  0.00    +0.000 C 
ATOM     42  C   UNL     1      59.017  69.029  48.915  0.00  0.00    +0.000 C 
ATOM     43  C   UNL     1      58.643  69.759  48.824  0.00  0.00    +0.000 C 
ATOM     44  C   UNL     1      58.297  69.958  48.102  0.00  0.00    +0.000 C 
ATOM     45  C   UNL     1      58.615  70.290  49.454  0.00  0.00    +0.000 C 
ATOM     46  N   UNL     1      59.737  68.101  49.728  0.00  0.00    +0.000 N 
ATOM     47  C   UNL     1      60.110  67.809  50.404  0.00  0.00    +0.000 C 
ATOM     48  C   UNL     1      59.656  67.726  48.998  0.00  0.00    +0.000 C 
ATOM     49  O   UNL     1      59.262  68.106  48.381  0.00  0.00    +0.000 OA
ATOM     50  C   UNL     1      59.969  66.972  48.884  0.00  0.00    +0.000 C 
ATOM     51  C   UNL     1      59.889  66.597  48.153  0.00  0.00    +0.000 C 
ATOM     52  O   UNL     1      60.364  66.592  49.501  0.00  0.00    +0.000 OA
ATOM     53  C   UNL     1      60.596  65.863  49.190  0.00  0.00    +0.000 C 
ATOM     54  O   UNL     1      60.412  65.672  48.408  0.00  0.00    +0.000 OA
ATOM     55  C   UNL     1      61.011  65.328  49.660  0.00  0.00    +0.000 C 
ATOM     56  C   UNL     1      61.243  64.600  49.348  0.00  0.00    +0.000 C 
ATOM     57  C   UNL     1      61.059  64.407  48.567  0.00  0.00    +0.000 C 
ATOM     58  C   UNL     1      61.291  63.679  48.255  0.00  0.00    +0.000 C 
ATOM     59  C   UNL     1      60.644  64.944  48.098  0.00  0.00    +0.000 C 
ATOM     60  N   UNL     1      61.195  65.520  50.440  0.00  0.00    +0.000 N 
ATOM     61  C   UNL     1      61.010  66.216  50.843  0.00  0.00    +0.000 C 
ATOM     62  C   UNL     1      61.604  64.864  50.731  0.00  0.00    +0.000 C 
ATOM     63  O   UNL     1      61.739  64.212  50.243  0.00  0.00    +0.000 OA
ATOM     64  C   UNL     1      61.878  64.861  51.509  0.00  0.00    +0.000 C 
ATOM     65  C   UNL     1      62.287  64.206  51.799  0.00  0.00    +0.000 C 
ATOM     66  C   UNL     1      62.421  63.554  51.311  0.00  0.00    +0.000 A 
ATOM     67  C   UNL     1      62.830  62.899  51.602  0.00  0.00    +0.000 A 
ATOM     68  C   UNL     1      62.964  62.247  51.115  0.00  0.00    +0.000 A 
ATOM     69  C   UNL     1      62.690  62.251  50.336  0.00  0.00    +0.000 A 
ATOM     70  C   UNL     1      62.281  62.906  50.046  0.00  0.00    +0.000 A 
ATOM     71  C   UNL     1      62.147  63.558  50.534  0.00  0.00    +0.000 A 
ATOM     72  N   UNL     1      62.824  61.599  49.849  0.00  0.00    +0.000 N 
ATOM     73  C   UNL     1      63.233  60.944  50.140  0.00  0.00    +0.000 C 
ATOM     74  C   UNL     1      63.367  60.292  49.652  0.00  0.00    +0.000 C 
ATOM     75  O   UNL     1      63.093  60.295  48.873  0.00  0.00    +0.000 OA
ATOM     76  C   UNL     1      62.684  60.950  48.584  0.00  0.00    +0.000 C 
ATOM     77  C   UNL     1      62.550  61.602  49.071  0.00  0.00    +0.000 C 
ATOM     78  O   UNL     1      61.744  65.513  51.996  0.00  0.00    +0.000 OA
ATOM     79  C   UNL     1      62.090  65.314  52.718  0.00  0.00    +0.000 C 
ATOM     80  O   UNL     1      62.464  64.585  52.810  0.00  0.00    +0.000 OA
ENDROOT
TORSDOF 0
ENDMDL
MODEL 9
REMARK VINA RESULT:   -16.719      1.047      4.088
REMARK INTER + INTRA:         -16.719
REMARK INTER:                 -16.719
REMARK INTRA:                   0.000
REMARK UNBOUND:                 0.000
ROOT
REMARK  Name = emodepside
REMARK                            x       y       z     vdW  Elec       q    Type
REMARK                         _______ _______ _______ _____ _____    ______ ____
ATOM      1  C   UNL     1      62.443  68.083  54.915  0.00  0.00    +0.000 C 
ATOM      2  C   UNL     1      62.918  67.463  55.182  0.00  0.00    +0.000 C 
ATOM      3  C   UNL     1      63.404  67.569  55.840  0.00  0.00    +0.000 C 
ATOM      4  C   UNL     1      62.907  66.736  54.790  0.00  0.00    +0.000 C 
ATOM      5  C   UNL     1      62.421  66.630  54.132  0.00  0.00    +0.000 C 
ATOM      6  N   UNL     1      62.411  65.904  53.741  0.00  0.00    +0.000 N 
ATOM      7  C   UNL     1      61.964  65.697  53.078  0.00  0.00    +0.000 C 
ATOM      8  C   UNL     1      62.943  65.430  54.155  0.00  0.00    +0.000 C 
ATOM      9  O   UNL     1      63.343  65.734  54.810  0.00  0.00    +0.000 OA
ATOM     10  C   UNL     1      63.076  64.651  53.915  0.00  0.00    +0.000 C 
ATOM     11  C   UNL     1      63.609  64.177  54.330  0.00  0.00    +0.000 C 
ATOM     12  O   UNL     1      62.676  64.347  53.261  0.00  0.00    +0.000 OA
ATOM     13  C   UNL     1      62.944  63.571  53.189  0.00  0.00    +0.000 C 
ATOM     14  O   UNL     1      63.498  63.274  53.723  0.00  0.00    +0.000 OA
ATOM     15  C   UNL     1      62.657  63.090  52.583  0.00  0.00    +0.000 C 
ATOM     16  C   UNL     1      62.925  62.313  52.511  0.00  0.00    +0.000 C 
ATOM     17  C   UNL     1      63.479  62.017  53.045  0.00  0.00    +0.000 C 
ATOM     18  C   UNL     1      63.747  61.240  52.973  0.00  0.00    +0.000 C 
ATOM     19  C   UNL     1      63.766  62.497  53.651  0.00  0.00    +0.000 C 
ATOM     20  N   UNL     1      62.102  63.386  52.049  0.00  0.00    +0.000 N 
ATOM     21  C   UNL     1      61.774  64.143  52.034  0.00  0.00    +0.000 C 
ATOM     22  C   UNL     1      61.948  62.762  51.533  0.00  0.00    +0.000 C 
ATOM     23  O   UNL     1      62.333  62.039  51.634  0.00  0.00    +0.000 OA
ATOM     24  C   UNL     1      61.410  62.859  50.915  0.00  0.00    +0.000 C 
ATOM     25  C   UNL     1      61.256  62.235  50.399  0.00  0.00    +0.000 C 
ATOM     26  C   UNL     1      61.640  61.512  50.500  0.00  0.00    +0.000 A 
ATOM     27  C   UNL     1      61.486  60.887  49.983  0.00  0.00    +0.000 A 
ATOM     28  C   UNL     1      61.870  60.164  50.084  0.00  0.00    +0.000 A 
ATOM     29  C   UNL     1      62.408  60.066  50.702  0.00  0.00    +0.000 A 
ATOM     30  C   UNL     1      62.563  60.690  51.218  0.00  0.00    +0.000 A 
ATOM     31  C   UNL     1      62.178  61.413  51.117  0.00  0.00    +0.000 A 
ATOM     32  N   UNL     1      62.793  59.343  50.803  0.00  0.00    +0.000 N 
ATOM     33  C   UNL     1      62.638  58.718  50.286  0.00  0.00    +0.000 C 
ATOM     34  C   UNL     1      63.023  57.995  50.387  0.00  0.00    +0.000 C 
ATOM     35  O   UNL     1      63.561  57.897  51.005  0.00  0.00    +0.000 OA
ATOM     36  C   UNL     1      63.716  58.521  51.521  0.00  0.00    +0.000 C 
ATOM     37  C   UNL     1      63.331  59.244  51.420  0.00  0.00    +0.000 C 
ATOM     38  O   UNL     1      61.025  63.582  50.814  0.00  0.00    +0.000 OA
ATOM     39  C   UNL     1      60.539  63.476  50.156  0.00  0.00    +0.000 C 
ATOM     40  O   UNL     1      60.528  62.751  49.765  0.00  0.00    +0.000 OA
ATOM     41  C   UNL     1      60.065  64.096  49.889  0.00  0.00    +0.000 C 
ATOM     42  C   UNL     1      59.579  63.989  49.231  0.00  0.00    +0.000 C 
ATOM     43  C   UNL     1      59.568  63.264  48.840  0.00  0.00    +0.000 C 
ATOM     44  C   UNL     1      59.083  63.157  48.182  0.00  0.00    +0.000 C 
ATOM     45  C   UNL     1      60.043  62.644  49.106  0.00  0.00    +0.000 C 
ATOM     46  N   UNL     1      60.076  64.822  50.280  0.00  0.00    +0.000 N 
ATOM     47  C   UNL     1      60.523  65.029  50.943  0.00  0.00    +0.000 C 
ATOM     48  C   UNL     1      59.543  65.297  49.866  0.00  0.00    +0.000 C 
ATOM     49  O   UNL     1      59.143  64.993  49.212  0.00  0.00    +0.000 OA
ATOM     50  C   UNL     1      59.410  66.074  50.106  0.00  0.00    +0.000 C 
ATOM     51  C   UNL     1      58.877  66.549  49.691  0.00  0.00    +0.000 C 
ATOM     52  O   UNL     1      59.810  66.378  50.760  0.00  0.00    +0.000 OA
ATOM     53  C   UNL     1      59.543  67.156  50.832  0.00  0.00    +0.000 C 
ATOM     54  O   UNL     1      58.988  67.451  50.298  0.00  0.00    +0.000 OA
ATOM     55  C   UNL     1      59.830  67.636  51.439  0.00  0.00    +0.000 C 
ATOM     56  C   UNL     1      59.562  68.413  51.510  0.00  0.00    +0.000 C 
ATOM     57  C   UNL     1      59.007  68.710  50.976  0.00  0.00    +0.000 C 
ATOM     58  C   UNL     1      58.739  69.487  51.048  0.00  0.00    +0.000 C 
ATOM     59  C   UNL     1      58.720  68.229  50.370  0.00  0.00    +0.000 C 
ATOM     60  N   UNL     1      60.384  67.340  51.972  0.00  0.00    +0.000 N 
ATOM     61  C   UNL     1      60.713  66.583  51.987  0.00  0.00    +0.000 C 
ATOM     62  C   UNL     1      60.538  67.965  52.489  0.00  0.00    +0.000 C 
ATOM     63  O   UNL     1      60.154  68.688  52.388  0.00  0.00    +0.000 OA
ATOM     64  C   UNL     1      61.077  67.866  53.106  0.00  0.00    +0.000 C 
ATOM     65  C   UNL     1      61.230  68.491  53.622  0.00  0.00    +0.000 C 
ATOM     66  C   UNL     1      60.846  69.214  53.521  0.00  0.00    +0.000 A 
ATOM     67  C   UNL     1      61.001  69.839  54.038  0.00  0.00    +0.000 A 
ATOM     68  C   UNL     1      60.617  70.562  53.937  0.00  0.00    +0.000 A 
ATOM     69  C   UNL     1      60.078  70.660  53.319  0.00  0.00    +0.000 A 
ATOM     70  C   UNL     1      59.924  70.035  52.803  0.00  0.00    +0.000 A 
ATOM     71  C   UNL     1      60.308  69.312  52.904  0.00  0.00    +0.000 A 
ATOM     72  N   UNL     1      59.693  71.383  53.218  0.00  0.00    +0.000 N 
ATOM     73  C   UNL     1      59.848  72.008  53.735  0.00  0.00    +0.000 C 
ATOM     74  C   UNL     1      59.464  72.731  53.634  0.00  0.00    +0.000 C 
ATOM     75  O   UNL     1      58.925  72.829  53.016  0.00  0.00    +0.000 OA
ATOM     76  C   UNL     1      58.771  72.204  52.500  0.00  0.00    +0.000 C 
ATOM     77  C   UNL     1      59.155  71.481  52.601  0.00  0.00    +0.000 C 
ATOM     78  O   UNL     1      61.461  67.143  53.207  0.00  0.00    +0.000 OA
ATOM     79  C   UNL     1      61.947  67.250  53.865  0.00  0.00    +0.000 C 
ATOM     80  O   UNL     1      61.958  67.976  54.256  0.00  0.00    +0.000 OA
ENDROOT
TORSDOF 0
ENDMDL
