MODEL 1
REMARK VINA RESULT:   -12.308      0.000      0.000
REMARK INTER + INTRA:         -12.308
REMARK INTER:                 -12.308
REMARK INTRA:                   0.000
REMARK UNBOUND:                 0.000
ROOT
REMARK  Name = enarodustat
REMARK                            x       y       z     vdW  Elec       q    Type
REMARK                         _______ _______ _______ _____ _____    ______ ____
ATOM      1  O   UNL     1      59.286  65.998  72.098  0.00  0.00    +0.000 OA
ATOM      2  C   UNL     1      59.573  65.790  71.352  0.00  0.00    +0.000 C 
ATOM      3  O   UNL     1      59.741  66.376  70.797  0.00  0.00    +0.000 OA
ATOM      4  C   UNL     1      59.691  64.996  71.163  0.00  0.00    +0.000 C 
ATOM      5  N   UNL     1      59.978  64.789  70.418  0.00  0.00    +0.000 NA
ATOM      6  C   UNL     1      60.097  63.994  70.229  0.00  0.00    +0.000 C 
ATOM      7  O   UNL     1      59.928  63.408  70.784  0.00  0.00    +0.000 OA
ATOM      8  C   UNL     1      60.383  63.786  69.483  0.00  0.00    +0.000 C 
ATOM      9  C   UNL     1      60.502  62.992  69.294  0.00  0.00    +0.000 C 
ATOM     10  N   UNL     1      60.385  62.298  69.725  0.00  0.00    +0.000 NA
ATOM     11  C   UNL     1      60.601  61.661  69.246  0.00  0.00    +0.000 C 
ATOM     12  N   UNL     1      60.849  61.962  68.520  0.00  0.00    +0.000 NA
ATOM     13  N   UNL     1      60.788  62.784  68.549  0.00  0.00    +0.000 N 
ATOM     14  C   UNL     1      60.956  63.370  67.994  0.00  0.00    +0.000 C 
ATOM     15  C   UNL     1      61.243  63.162  67.248  0.00  0.00    +0.000 C 
ATOM     16  C   UNL     1      61.361  62.368  67.059  0.00  0.00    +0.000 C 
ATOM     17  C   UNL     1      61.648  62.160  66.313  0.00  0.00    +0.000 A 
ATOM     18  C   UNL     1      61.767  61.365  66.125  0.00  0.00    +0.000 A 
ATOM     19  C   UNL     1      62.054  61.157  65.379  0.00  0.00    +0.000 A 
ATOM     20  C   UNL     1      62.222  61.744  64.823  0.00  0.00    +0.000 A 
ATOM     21  C   UNL     1      62.103  62.538  65.013  0.00  0.00    +0.000 A 
ATOM     22  C   UNL     1      61.817  62.746  65.758  0.00  0.00    +0.000 A 
ATOM     23  C   UNL     1      60.838  64.164  68.183  0.00  0.00    +0.000 C 
ATOM     24  C   UNL     1      60.551  64.372  68.928  0.00  0.00    +0.000 C 
ATOM     25  O   UNL     1      60.433  65.166  69.117  0.00  0.00    +0.000 OA
ENDROOT
TORSDOF 0
ENDMDL
MODEL 2
REMARK VINA RESULT:   -11.929      3.718      5.169
REMARK INTER + INTRA:         -11.929
REMARK INTER:                 -11.929
REMARK INTRA:                   0.000
REMARK UNBOUND:                 0.000
ROOT
REMARK  Name = enarodustat
REMARK                            x       y       z     vdW  Elec       q    Type
REMARK                         _______ _______ _______ _____ _____    ______ ____
ATOM      1  O   UNL     1      59.917  61.615  68.748  0.00  0.00    +0.000 OA
ATOM      2  C   UNL     1      60.538  62.158  68.714  0.00  0.00    +0.000 C 
ATOM      3  O   UNL     1      60.937  62.285  68.004  0.00  0.00    +0.000 OA
ATOM      4  C   UNL     1      60.759  62.574  69.392  0.00  0.00    +0.000 C 
ATOM      5  N   UNL     1      61.379  63.116  69.358  0.00  0.00    +0.000 NA
ATOM      6  C   UNL     1      61.600  63.533  70.035  0.00  0.00    +0.000 C 
ATOM      7  O   UNL     1      61.202  63.406  70.746  0.00  0.00    +0.000 OA
ATOM      8  C   UNL     1      62.221  64.075  70.001  0.00  0.00    +0.000 C 
ATOM      9  C   UNL     1      62.442  64.492  70.679  0.00  0.00    +0.000 C 
ATOM     10  N   UNL     1      62.152  64.482  71.451  0.00  0.00    +0.000 NA
ATOM     11  C   UNL     1      62.594  65.020  71.895  0.00  0.00    +0.000 C 
ATOM     12  N   UNL     1      63.156  65.361  71.396  0.00  0.00    +0.000 NA
ATOM     13  N   UNL     1      63.062  65.035  70.644  0.00  0.00    +0.000 N 
ATOM     14  C   UNL     1      63.460  65.161  69.934  0.00  0.00    +0.000 C 
ATOM     15  C   UNL     1      64.081  65.705  69.900  0.00  0.00    +0.000 C 
ATOM     16  C   UNL     1      64.302  66.120  70.578  0.00  0.00    +0.000 C 
ATOM     17  C   UNL     1      64.923  66.664  70.544  0.00  0.00    +0.000 A 
ATOM     18  C   UNL     1      65.144  67.080  71.221  0.00  0.00    +0.000 A 
ATOM     19  C   UNL     1      65.764  67.623  71.187  0.00  0.00    +0.000 A 
ATOM     20  C   UNL     1      66.163  67.750  70.477  0.00  0.00    +0.000 A 
ATOM     21  C   UNL     1      65.941  67.334  69.800  0.00  0.00    +0.000 A 
ATOM     22  C   UNL     1      65.322  66.791  69.833  0.00  0.00    +0.000 A 
ATOM     23  C   UNL     1      63.240  64.746  69.257  0.00  0.00    +0.000 C 
ATOM     24  C   UNL     1      62.619  64.202  69.291  0.00  0.00    +0.000 C 
ATOM     25  O   UNL     1      62.398  63.787  68.614  0.00  0.00    +0.000 OA
ENDROOT
TORSDOF 0
ENDMDL
MODEL 3
REMARK VINA RESULT:   -11.407      1.919      5.061
REMARK INTER + INTRA:         -11.407
REMARK INTER:                 -11.407
REMARK INTRA:                   0.000
REMARK UNBOUND:                 0.000
ROOT
REMARK  Name = enarodustat
REMARK                            x       y       z     vdW  Elec       q    Type
REMARK                         _______ _______ _______ _____ _____    ______ ____
ATOM      1  O   UNL     1      62.098  61.633  64.723  0.00  0.00    +0.000 OA
ATOM      2  C   UNL     1      61.853  62.169  65.300  0.00  0.00    +0.000 C 
ATOM      3  O   UNL     1      61.815  62.974  65.126  0.00  0.00    +0.000 OA
ATOM      4  C   UNL     1      61.646  61.899  66.052  0.00  0.00    +0.000 C 
ATOM      5  N   UNL     1      61.400  62.436  66.628  0.00  0.00    +0.000 NA
ATOM      6  C   UNL     1      61.193  62.166  67.381  0.00  0.00    +0.000 C 
ATOM      7  O   UNL     1      61.231  61.361  67.555  0.00  0.00    +0.000 OA
ATOM      8  C   UNL     1      60.947  62.703  67.957  0.00  0.00    +0.000 C 
ATOM      9  C   UNL     1      60.740  62.433  68.709  0.00  0.00    +0.000 C 
ATOM     10  N   UNL     1      60.723  61.677  69.039  0.00  0.00    +0.000 NA
ATOM     11  C   UNL     1      60.467  61.746  69.821  0.00  0.00    +0.000 C 
ATOM     12  N   UNL     1      60.326  62.545  69.973  0.00  0.00    +0.000 NA
ATOM     13  N   UNL     1      60.494  62.969  69.286  0.00  0.00    +0.000 N 
ATOM     14  C   UNL     1      60.456  63.774  69.112  0.00  0.00    +0.000 C 
ATOM     15  C   UNL     1      60.211  64.310  69.689  0.00  0.00    +0.000 C 
ATOM     16  C   UNL     1      60.004  64.040  70.441  0.00  0.00    +0.000 C 
ATOM     17  C   UNL     1      59.758  64.577  71.018  0.00  0.00    +0.000 A 
ATOM     18  C   UNL     1      59.551  64.307  71.769  0.00  0.00    +0.000 A 
ATOM     19  C   UNL     1      59.305  64.843  72.347  0.00  0.00    +0.000 A 
ATOM     20  C   UNL     1      59.267  65.649  72.172  0.00  0.00    +0.000 A 
ATOM     21  C   UNL     1      59.475  65.918  71.420  0.00  0.00    +0.000 A 
ATOM     22  C   UNL     1      59.720  65.382  70.844  0.00  0.00    +0.000 A 
ATOM     23  C   UNL     1      60.664  64.044  68.360  0.00  0.00    +0.000 C 
ATOM     24  C   UNL     1      60.909  63.507  67.783  0.00  0.00    +0.000 C 
ATOM     25  O   UNL     1      61.117  63.777  67.031  0.00  0.00    +0.000 OA
ENDROOT
TORSDOF 0
ENDMDL
MODEL 4
REMARK VINA RESULT:   -11.247      2.331      2.690
REMARK INTER + INTRA:         -11.247
REMARK INTER:                 -11.247
REMARK INTRA:                   0.000
REMARK UNBOUND:                 0.000
ROOT
REMARK  Name = enarodustat
REMARK                            x       y       z     vdW  Elec       q    Type
REMARK                         _______ _______ _______ _____ _____    ______ ____
ATOM      1  O   UNL     1      64.258  66.301  72.024  0.00  0.00    +0.000 OA
ATOM      2  C   UNL     1      64.029  65.849  71.371  0.00  0.00    +0.000 C 
ATOM      3  O   UNL     1      64.599  65.549  70.858  0.00  0.00    +0.000 OA
ATOM      4  C   UNL     1      63.229  65.698  71.235  0.00  0.00    +0.000 C 
ATOM      5  N   UNL     1      63.001  65.246  70.584  0.00  0.00    +0.000 NA
ATOM      6  C   UNL     1      62.201  65.095  70.447  0.00  0.00    +0.000 C 
ATOM      7  O   UNL     1      61.631  65.395  70.961  0.00  0.00    +0.000 OA
ATOM      8  C   UNL     1      61.973  64.643  69.795  0.00  0.00    +0.000 C 
ATOM      9  C   UNL     1      61.173  64.492  69.658  0.00  0.00    +0.000 C 
ATOM     10  N   UNL     1      60.492  64.714  70.067  0.00  0.00    +0.000 NA
ATOM     11  C   UNL     1      59.842  64.399  69.668  0.00  0.00    +0.000 C 
ATOM     12  N   UNL     1      60.122  63.983  69.013  0.00  0.00    +0.000 NA
ATOM     13  N   UNL     1      60.945  64.041  69.007  0.00  0.00    +0.000 N 
ATOM     14  C   UNL     1      61.515  63.741  68.493  0.00  0.00    +0.000 C 
ATOM     15  C   UNL     1      61.287  63.289  67.841  0.00  0.00    +0.000 C 
ATOM     16  C   UNL     1      60.487  63.138  67.704  0.00  0.00    +0.000 C 
ATOM     17  C   UNL     1      60.258  62.686  67.052  0.00  0.00    +0.000 A 
ATOM     18  C   UNL     1      59.459  62.535  66.916  0.00  0.00    +0.000 A 
ATOM     19  C   UNL     1      59.230  62.083  66.264  0.00  0.00    +0.000 A 
ATOM     20  C   UNL     1      59.801  61.783  65.749  0.00  0.00    +0.000 A 
ATOM     21  C   UNL     1      60.600  61.934  65.887  0.00  0.00    +0.000 A 
ATOM     22  C   UNL     1      60.829  62.386  66.538  0.00  0.00    +0.000 A 
ATOM     23  C   UNL     1      62.315  63.892  68.629  0.00  0.00    +0.000 C 
ATOM     24  C   UNL     1      62.543  64.344  69.281  0.00  0.00    +0.000 C 
ATOM     25  O   UNL     1      63.343  64.494  69.418  0.00  0.00    +0.000 OA
ENDROOT
TORSDOF 0
ENDMDL
MODEL 5
REMARK VINA RESULT:   -11.190      2.304      5.026
REMARK INTER + INTRA:         -11.190
REMARK INTER:                 -11.190
REMARK INTRA:                   0.000
REMARK UNBOUND:                 0.000
ROOT
REMARK  Name = enarodustat
REMARK                            x       y       z     vdW  Elec       q    Type
REMARK                         _______ _______ _______ _____ _____    ______ ____
ATOM      1  O   UNL     1      61.220  61.675  64.679  0.00  0.00    +0.000 OA
ATOM      2  C   UNL     1      61.413  62.129  65.341  0.00  0.00    +0.000 C 
ATOM      3  O   UNL     1      61.915  62.778  65.263  0.00  0.00    +0.000 OA
ATOM      4  C   UNL     1      61.103  61.933  66.079  0.00  0.00    +0.000 C 
ATOM      5  N   UNL     1      61.297  62.388  66.740  0.00  0.00    +0.000 NA
ATOM      6  C   UNL     1      60.986  62.192  67.480  0.00  0.00    +0.000 C 
ATOM      7  O   UNL     1      60.484  61.542  67.558  0.00  0.00    +0.000 OA
ATOM      8  C   UNL     1      61.180  62.646  68.141  0.00  0.00    +0.000 C 
ATOM      9  C   UNL     1      60.869  62.450  68.880  0.00  0.00    +0.000 C 
ATOM     10  N   UNL     1      60.364  61.846  69.124  0.00  0.00    +0.000 NA
ATOM     11  C   UNL     1      60.244  61.926  69.937  0.00  0.00    +0.000 C 
ATOM     12  N   UNL     1      60.676  62.581  70.194  0.00  0.00    +0.000 NA
ATOM     13  N   UNL     1      61.063  62.905  69.541  0.00  0.00    +0.000 N 
ATOM     14  C   UNL     1      61.564  63.553  69.463  0.00  0.00    +0.000 C 
ATOM     15  C   UNL     1      61.757  64.008  70.125  0.00  0.00    +0.000 C 
ATOM     16  C   UNL     1      61.447  63.812  70.864  0.00  0.00    +0.000 C 
ATOM     17  C   UNL     1      61.641  64.267  71.526  0.00  0.00    +0.000 A 
ATOM     18  C   UNL     1      61.331  64.070  72.264  0.00  0.00    +0.000 A 
ATOM     19  C   UNL     1      61.524  64.525  72.926  0.00  0.00    +0.000 A 
ATOM     20  C   UNL     1      62.026  65.175  72.848  0.00  0.00    +0.000 A 
ATOM     21  C   UNL     1      62.336  65.370  72.108  0.00  0.00    +0.000 A 
ATOM     22  C   UNL     1      62.143  64.916  71.448  0.00  0.00    +0.000 A 
ATOM     23  C   UNL     1      61.874  63.749  68.725  0.00  0.00    +0.000 C 
ATOM     24  C   UNL     1      61.681  63.295  68.063  0.00  0.00    +0.000 C 
ATOM     25  O   UNL     1      61.991  63.491  67.324  0.00  0.00    +0.000 OA
ENDROOT
TORSDOF 0
ENDMDL
MODEL 6
REMARK VINA RESULT:   -11.102      2.908      5.433
REMARK INTER + INTRA:         -11.102
REMARK INTER:                 -11.102
REMARK INTRA:                   0.000
REMARK UNBOUND:                 0.000
ROOT
REMARK  Name = enarodustat
REMARK                            x       y       z     vdW  Elec       q    Type
REMARK                         _______ _______ _______ _____ _____    ______ ____
ATOM      1  O   UNL     1      61.914  60.891  62.703  0.00  0.00    +0.000 OA
ATOM      2  C   UNL     1      62.020  61.265  63.431  0.00  0.00    +0.000 C 
ATOM      3  O   UNL     1      62.763  61.554  63.642  0.00  0.00    +0.000 OA
ATOM      4  C   UNL     1      61.383  61.351  63.947  0.00  0.00    +0.000 C 
ATOM      5  N   UNL     1      61.489  61.725  64.674  0.00  0.00    +0.000 NA
ATOM      6  C   UNL     1      60.851  61.810  65.191  0.00  0.00    +0.000 C 
ATOM      7  O   UNL     1      60.107  61.522  64.980  0.00  0.00    +0.000 OA
ATOM      8  C   UNL     1      60.957  62.184  65.918  0.00  0.00    +0.000 C 
ATOM      9  C   UNL     1      60.319  62.270  66.435  0.00  0.00    +0.000 C 
ATOM     10  N   UNL     1      59.528  62.043  66.377  0.00  0.00    +0.000 NA
ATOM     11  C   UNL     1      59.145  62.277  67.070  0.00  0.00    +0.000 C 
ATOM     12  N   UNL     1      59.700  62.648  67.555  0.00  0.00    +0.000 NA
ATOM     13  N   UNL     1      60.425  62.644  67.162  0.00  0.00    +0.000 N 
ATOM     14  C   UNL     1      61.168  62.932  67.373  0.00  0.00    +0.000 C 
ATOM     15  C   UNL     1      61.274  63.307  68.102  0.00  0.00    +0.000 C 
ATOM     16  C   UNL     1      60.636  63.392  68.618  0.00  0.00    +0.000 C 
ATOM     17  C   UNL     1      60.742  63.767  69.346  0.00  0.00    +0.000 A 
ATOM     18  C   UNL     1      60.104  63.852  69.862  0.00  0.00    +0.000 A 
ATOM     19  C   UNL     1      60.210  64.226  70.590  0.00  0.00    +0.000 A 
ATOM     20  C   UNL     1      60.954  64.515  70.801  0.00  0.00    +0.000 A 
ATOM     21  C   UNL     1      61.591  64.429  70.284  0.00  0.00    +0.000 A 
ATOM     22  C   UNL     1      61.486  64.055  69.557  0.00  0.00    +0.000 A 
ATOM     23  C   UNL     1      61.806  62.847  66.857  0.00  0.00    +0.000 C 
ATOM     24  C   UNL     1      61.700  62.473  66.129  0.00  0.00    +0.000 C 
ATOM     25  O   UNL     1      62.338  62.387  65.613  0.00  0.00    +0.000 OA
ENDROOT
TORSDOF 0
ENDMDL
MODEL 7
REMARK VINA RESULT:   -11.089      3.786      5.119
REMARK INTER + INTRA:         -11.089
REMARK INTER:                 -11.089
REMARK INTRA:                   0.000
REMARK UNBOUND:                 0.000
ROOT
REMARK  Name = enarodustat
REMARK                            x       y       z     vdW  Elec       q    Type
REMARK                         _______ _______ _______ _____ _____    ______ ____
ATOM      1  O   UNL     1      66.389  68.002  70.652  0.00  0.00    +0.000 OA
ATOM      2  C   UNL     1      65.906  67.352  70.491  0.00  0.00    +0.000 C 
ATOM      3  O   UNL     1      66.060  66.878  69.835  0.00  0.00    +0.000 OA
ATOM      4  C   UNL     1      65.271  67.178  70.987  0.00  0.00    +0.000 C 
ATOM      5  N   UNL     1      64.789  66.528  70.826  0.00  0.00    +0.000 NA
ATOM      6  C   UNL     1      64.153  66.353  71.322  0.00  0.00    +0.000 C 
ATOM      7  O   UNL     1      63.999  66.827  71.979  0.00  0.00    +0.000 OA
ATOM      8  C   UNL     1      63.671  65.703  71.160  0.00  0.00    +0.000 C 
ATOM      9  C   UNL     1      63.035  65.528  71.657  0.00  0.00    +0.000 C 
ATOM     10  N   UNL     1      62.751  65.894  72.339  0.00  0.00    +0.000 NA
ATOM     11  C   UNL     1      62.093  65.469  72.600  0.00  0.00    +0.000 C 
ATOM     12  N   UNL     1      61.971  64.842  72.078  0.00  0.00    +0.000 NA
ATOM     13  N   UNL     1      62.553  64.878  71.495  0.00  0.00    +0.000 N 
ATOM     14  C   UNL     1      62.707  64.404  70.839  0.00  0.00    +0.000 C 
ATOM     15  C   UNL     1      62.224  63.753  70.678  0.00  0.00    +0.000 C 
ATOM     16  C   UNL     1      61.589  63.579  71.174  0.00  0.00    +0.000 C 
ATOM     17  C   UNL     1      61.107  62.929  71.012  0.00  0.00    +0.000 A 
ATOM     18  C   UNL     1      60.471  62.754  71.509  0.00  0.00    +0.000 A 
ATOM     19  C   UNL     1      59.989  62.104  71.347  0.00  0.00    +0.000 A 
ATOM     20  C   UNL     1      60.142  61.629  70.690  0.00  0.00    +0.000 A 
ATOM     21  C   UNL     1      60.778  61.804  70.195  0.00  0.00    +0.000 A 
ATOM     22  C   UNL     1      61.260  62.454  70.355  0.00  0.00    +0.000 A 
ATOM     23  C   UNL     1      63.342  64.578  70.343  0.00  0.00    +0.000 C 
ATOM     24  C   UNL     1      63.825  65.229  70.504  0.00  0.00    +0.000 C 
ATOM     25  O   UNL     1      64.460  65.403  70.008  0.00  0.00    +0.000 OA
ENDROOT
TORSDOF 0
ENDMDL
MODEL 8
REMARK VINA RESULT:   -10.130      5.103      6.622
REMARK INTER + INTRA:         -10.130
REMARK INTER:                 -10.130
REMARK INTRA:                   0.000
REMARK UNBOUND:                 0.000
ROOT
REMARK  Name = enarodustat
REMARK                            x       y       z     vdW  Elec       q    Type
REMARK                         _______ _______ _______ _____ _____    ______ ____
ATOM      1  O   UNL     1      66.793  67.643  70.402  0.00  0.00    +0.000 OA
ATOM      2  C   UNL     1      66.070  67.251  70.475  0.00  0.00    +0.000 C 
ATOM      3  O   UNL     1      65.904  66.599  69.999  0.00  0.00    +0.000 OA
ATOM      4  C   UNL     1      65.513  67.514  71.024  0.00  0.00    +0.000 C 
ATOM      5  N   UNL     1      64.791  67.122  71.096  0.00  0.00    +0.000 NA
ATOM      6  C   UNL     1      64.233  67.385  71.646  0.00  0.00    +0.000 C 
ATOM      7  O   UNL     1      64.399  68.038  72.122  0.00  0.00    +0.000 OA
ATOM      8  C   UNL     1      63.511  66.994  71.718  0.00  0.00    +0.000 C 
ATOM      9  C   UNL     1      62.953  67.256  72.268  0.00  0.00    +0.000 C 
ATOM     10  N   UNL     1      62.962  67.879  72.808  0.00  0.00    +0.000 NA
ATOM     11  C   UNL     1      62.244  67.873  73.215  0.00  0.00    +0.000 C 
ATOM     12  N   UNL     1      61.792  67.246  72.926  0.00  0.00    +0.000 NA
ATOM     13  N   UNL     1      62.231  66.865  72.340  0.00  0.00    +0.000 N 
ATOM     14  C   UNL     1      62.065  66.213  71.865  0.00  0.00    +0.000 C 
ATOM     15  C   UNL     1      61.342  65.821  71.938  0.00  0.00    +0.000 C 
ATOM     16  C   UNL     1      60.785  66.084  72.487  0.00  0.00    +0.000 C 
ATOM     17  C   UNL     1      60.062  65.692  72.560  0.00  0.00    +0.000 A 
ATOM     18  C   UNL     1      59.505  65.955  73.109  0.00  0.00    +0.000 A 
ATOM     19  C   UNL     1      58.782  65.563  73.182  0.00  0.00    +0.000 A 
ATOM     20  C   UNL     1      58.616  64.910  72.705  0.00  0.00    +0.000 A 
ATOM     21  C   UNL     1      59.174  64.649  72.156  0.00  0.00    +0.000 A 
ATOM     22  C   UNL     1      59.896  65.039  72.083  0.00  0.00    +0.000 A 
ATOM     23  C   UNL     1      62.622  65.950  71.316  0.00  0.00    +0.000 C 
ATOM     24  C   UNL     1      63.345  66.341  71.243  0.00  0.00    +0.000 C 
ATOM     25  O   UNL     1      63.902  66.079  70.694  0.00  0.00    +0.000 OA
ENDROOT
TORSDOF 0
ENDMDL
MODEL 9
REMARK VINA RESULT:   -10.091     24.271     25.623
REMARK INTER + INTRA:         -10.091
REMARK INTER:                 -10.091
REMARK INTRA:                   0.000
REMARK UNBOUND:                 0.000
ROOT
REMARK  Name = enarodustat
REMARK                            x       y       z     vdW  Elec       q    Type
REMARK                         _______ _______ _______ _____ _____    ______ ____
ATOM      1  O   UNL     1      66.277  81.883  54.449  0.00  0.00    +0.000 OA
ATOM      2  C   UNL     1      66.607  81.518  53.786  0.00  0.00    +0.000 C 
ATOM      3  O   UNL     1      66.118  81.165  53.224  0.00  0.00    +0.000 OA
ATOM      4  C   UNL     1      67.425  81.507  53.687  0.00  0.00    +0.000 C 
ATOM      5  N   UNL     1      67.754  81.142  53.024  0.00  0.00    +0.000 NA
ATOM      6  C   UNL     1      68.574  81.131  52.924  0.00  0.00    +0.000 C 
ATOM      7  O   UNL     1      69.063  81.484  53.487  0.00  0.00    +0.000 OA
ATOM      8  C   UNL     1      68.903  80.766  52.262  0.00  0.00    +0.000 C 
ATOM      9  C   UNL     1      69.722  80.755  52.162  0.00  0.00    +0.000 C 
ATOM     10  N   UNL     1      70.338  81.055  52.621  0.00  0.00    +0.000 NA
ATOM     11  C   UNL     1      71.049  80.876  52.241  0.00  0.00    +0.000 C 
ATOM     12  N   UNL     1      70.871  80.465  51.548  0.00  0.00    +0.000 NA
ATOM     13  N   UNL     1      70.051  80.390  51.499  0.00  0.00    +0.000 N 
ATOM     14  C   UNL     1      69.562  80.037  50.937  0.00  0.00    +0.000 C 
ATOM     15  C   UNL     1      69.892  79.672  50.274  0.00  0.00    +0.000 C 
ATOM     16  C   UNL     1      70.711  79.661  50.175  0.00  0.00    +0.000 C 
ATOM     17  C   UNL     1      71.041  79.296  49.511  0.00  0.00    +0.000 A 
ATOM     18  C   UNL     1      71.859  79.285  49.412  0.00  0.00    +0.000 A 
ATOM     19  C   UNL     1      72.189  78.920  48.749  0.00  0.00    +0.000 A 
ATOM     20  C   UNL     1      71.700  78.566  48.186  0.00  0.00    +0.000 A 
ATOM     21  C   UNL     1      70.881  78.578  48.287  0.00  0.00    +0.000 A 
ATOM     22  C   UNL     1      70.551  78.942  48.949  0.00  0.00    +0.000 A 
ATOM     23  C   UNL     1      68.744  80.048  51.037  0.00  0.00    +0.000 C 
ATOM     24  C   UNL     1      68.414  80.413  51.700  0.00  0.00    +0.000 C 
ATOM     25  O   UNL     1      67.595  80.424  51.799  0.00  0.00    +0.000 OA
ENDROOT
TORSDOF 0
ENDMDL
