MODEL 1
REMARK VINA RESULT:   -13.022      0.000      0.000
REMARK INTER + INTRA:         -13.022
REMARK INTER:                 -13.022
REMARK INTRA:                   0.000
REMARK UNBOUND:                 0.000
ROOT
REMARK  Name = encainide
REMARK                            x       y       z     vdW  Elec       q    Type
REMARK                         _______ _______ _______ _____ _____    ______ ____
ATOM      1  C   UNL     1      63.363  65.152  70.367  0.00  0.00    +0.000 C 
ATOM      2  O   UNL     1      62.574  64.976  70.534  0.00  0.00    +0.000 OA
ATOM      3  C   UNL     1      62.121  64.555  69.989  0.00  0.00    +0.000 A 
ATOM      4  C   UNL     1      61.333  64.380  70.156  0.00  0.00    +0.000 A 
ATOM      5  C   UNL     1      60.879  63.958  69.611  0.00  0.00    +0.000 A 
ATOM      6  C   UNL     1      61.214  63.712  68.899  0.00  0.00    +0.000 A 
ATOM      7  C   UNL     1      62.003  63.887  68.731  0.00  0.00    +0.000 A 
ATOM      8  C   UNL     1      62.456  64.309  69.276  0.00  0.00    +0.000 A 
ATOM      9  C   UNL     1      60.760  63.290  68.353  0.00  0.00    +0.000 C 
ATOM     10  O   UNL     1      59.972  63.115  68.520  0.00  0.00    +0.000 OA
ATOM     11  N   UNL     1      61.096  63.044  67.641  0.00  0.00    +0.000 NA
ATOM     12  C   UNL     1      60.643  62.622  67.095  0.00  0.00    +0.000 A 
ATOM     13  C   UNL     1      59.853  62.447  67.263  0.00  0.00    +0.000 A 
ATOM     14  C   UNL     1      59.400  62.025  66.718  0.00  0.00    +0.000 A 
ATOM     15  C   UNL     1      59.736  61.779  66.005  0.00  0.00    +0.000 A 
ATOM     16  C   UNL     1      60.524  61.954  65.838  0.00  0.00    +0.000 A 
ATOM     17  C   UNL     1      60.977  62.376  66.383  0.00  0.00    +0.000 A 
ATOM     18  C   UNL     1      61.766  62.551  66.216  0.00  0.00    +0.000 C 
ATOM     19  C   UNL     1      62.101  62.305  65.503  0.00  0.00    +0.000 C 
ATOM     20  C   UNL     1      61.648  61.884  64.959  0.00  0.00    +0.000 C 
ATOM     21  C   UNL     1      60.860  61.708  65.125  0.00  0.00    +0.000 C 
ATOM     22  C   UNL     1      60.406  61.286  64.580  0.00  0.00    +0.000 C 
ATOM     23  C   UNL     1      60.741  61.040  63.868  0.00  0.00    +0.000 C 
ATOM     24  C   UNL     1      61.530  61.215  63.700  0.00  0.00    +0.000 C 
ATOM     25  N   UNL     1      61.983  61.637  64.245  0.00  0.00    +0.000 NA
ATOM     26  C   UNL     1      62.772  61.813  64.079  0.00  0.00    +0.000 C 
ENDROOT
TORSDOF 0
ENDMDL
MODEL 2
REMARK VINA RESULT:   -12.313      1.522      5.200
REMARK INTER + INTRA:         -12.313
REMARK INTER:                 -12.313
REMARK INTRA:                   0.000
REMARK UNBOUND:                 0.000
ROOT
REMARK  Name = encainide
REMARK                            x       y       z     vdW  Elec       q    Type
REMARK                         _______ _______ _______ _____ _____    ______ ____
ATOM      1  C   UNL     1      62.372  62.376  64.149  0.00  0.00    +0.000 C 
ATOM      2  O   UNL     1      61.708  61.981  64.441  0.00  0.00    +0.000 OA
ATOM      3  C   UNL     1      61.498  62.058  65.234  0.00  0.00    +0.000 A 
ATOM      4  C   UNL     1      60.835  61.664  65.526  0.00  0.00    +0.000 A 
ATOM      5  C   UNL     1      60.625  61.741  66.320  0.00  0.00    +0.000 A 
ATOM      6  C   UNL     1      61.077  62.213  66.822  0.00  0.00    +0.000 A 
ATOM      7  C   UNL     1      61.740  62.608  66.531  0.00  0.00    +0.000 A 
ATOM      8  C   UNL     1      61.951  62.531  65.737  0.00  0.00    +0.000 A 
ATOM      9  C   UNL     1      60.866  62.291  67.617  0.00  0.00    +0.000 C 
ATOM     10  O   UNL     1      60.204  61.896  67.907  0.00  0.00    +0.000 OA
ATOM     11  N   UNL     1      61.319  62.763  68.119  0.00  0.00    +0.000 NA
ATOM     12  C   UNL     1      61.109  62.841  68.913  0.00  0.00    +0.000 A 
ATOM     13  C   UNL     1      60.445  62.445  69.204  0.00  0.00    +0.000 A 
ATOM     14  C   UNL     1      60.235  62.523  69.997  0.00  0.00    +0.000 A 
ATOM     15  C   UNL     1      60.688  62.995  70.501  0.00  0.00    +0.000 A 
ATOM     16  C   UNL     1      61.351  63.390  70.209  0.00  0.00    +0.000 A 
ATOM     17  C   UNL     1      61.561  63.313  69.416  0.00  0.00    +0.000 A 
ATOM     18  C   UNL     1      62.225  63.708  69.124  0.00  0.00    +0.000 C 
ATOM     19  C   UNL     1      62.677  64.180  69.627  0.00  0.00    +0.000 C 
ATOM     20  C   UNL     1      62.467  64.257  70.420  0.00  0.00    +0.000 C 
ATOM     21  C   UNL     1      61.804  63.863  70.712  0.00  0.00    +0.000 C 
ATOM     22  C   UNL     1      61.593  63.940  71.506  0.00  0.00    +0.000 C 
ATOM     23  C   UNL     1      62.046  64.412  72.008  0.00  0.00    +0.000 C 
ATOM     24  C   UNL     1      62.709  64.807  71.717  0.00  0.00    +0.000 C 
ATOM     25  N   UNL     1      62.920  64.730  70.923  0.00  0.00    +0.000 NA
ATOM     26  C   UNL     1      63.583  65.124  70.631  0.00  0.00    +0.000 C 
ENDROOT
TORSDOF 0
ENDMDL
MODEL 3
REMARK VINA RESULT:   -12.001      1.922      5.972
REMARK INTER + INTRA:         -12.001
REMARK INTER:                 -12.001
REMARK INTRA:                   0.000
REMARK UNBOUND:                 0.000
ROOT
REMARK  Name = encainide
REMARK                            x       y       z     vdW  Elec       q    Type
REMARK                         _______ _______ _______ _____ _____    ______ ____
ATOM      1  C   UNL     1      60.977  62.377  66.203  0.00  0.00    +0.000 C 
ATOM      2  O   UNL     1      60.587  62.208  66.911  0.00  0.00    +0.000 OA
ATOM      3  C   UNL     1      60.827  62.570  67.611  0.00  0.00    +0.000 A 
ATOM      4  C   UNL     1      60.437  62.401  68.318  0.00  0.00    +0.000 A 
ATOM      5  C   UNL     1      60.677  62.764  69.019  0.00  0.00    +0.000 A 
ATOM      6  C   UNL     1      61.307  63.297  69.013  0.00  0.00    +0.000 A 
ATOM      7  C   UNL     1      61.697  63.467  68.306  0.00  0.00    +0.000 A 
ATOM      8  C   UNL     1      61.457  63.104  67.605  0.00  0.00    +0.000 A 
ATOM      9  C   UNL     1      61.547  63.660  69.714  0.00  0.00    +0.000 C 
ATOM     10  O   UNL     1      61.157  63.491  70.421  0.00  0.00    +0.000 OA
ATOM     11  N   UNL     1      62.177  64.193  69.707  0.00  0.00    +0.000 NA
ATOM     12  C   UNL     1      62.417  64.556  70.408  0.00  0.00    +0.000 A 
ATOM     13  C   UNL     1      62.027  64.387  71.116  0.00  0.00    +0.000 A 
ATOM     14  C   UNL     1      62.266  64.749  71.816  0.00  0.00    +0.000 A 
ATOM     15  C   UNL     1      62.897  65.283  71.810  0.00  0.00    +0.000 A 
ATOM     16  C   UNL     1      63.286  65.452  71.103  0.00  0.00    +0.000 A 
ATOM     17  C   UNL     1      63.046  65.089  70.403  0.00  0.00    +0.000 A 
ATOM     18  C   UNL     1      63.436  65.259  69.695  0.00  0.00    +0.000 C 
ATOM     19  C   UNL     1      64.066  65.792  69.689  0.00  0.00    +0.000 C 
ATOM     20  C   UNL     1      64.306  66.155  70.389  0.00  0.00    +0.000 C 
ATOM     21  C   UNL     1      63.916  65.985  71.096  0.00  0.00    +0.000 C 
ATOM     22  C   UNL     1      64.156  66.349  71.797  0.00  0.00    +0.000 C 
ATOM     23  C   UNL     1      64.786  66.881  71.791  0.00  0.00    +0.000 C 
ATOM     24  C   UNL     1      65.176  67.051  71.084  0.00  0.00    +0.000 C 
ATOM     25  N   UNL     1      64.936  66.688  70.383  0.00  0.00    +0.000 NA
ATOM     26  C   UNL     1      65.325  66.857  69.676  0.00  0.00    +0.000 C 
ENDROOT
TORSDOF 0
ENDMDL
MODEL 4
REMARK VINA RESULT:   -11.894      3.904      6.675
REMARK INTER + INTRA:         -11.894
REMARK INTER:                 -11.894
REMARK INTRA:                   0.000
REMARK UNBOUND:                 0.000
ROOT
REMARK  Name = encainide
REMARK                            x       y       z     vdW  Elec       q    Type
REMARK                         _______ _______ _______ _____ _____    ______ ____
ATOM      1  C   UNL     1      60.489  61.412  69.674  0.00  0.00    +0.000 C 
ATOM      2  O   UNL     1      60.160  61.705  70.372  0.00  0.00    +0.000 OA
ATOM      3  C   UNL     1      60.492  62.363  70.740  0.00  0.00    +0.000 A 
ATOM      4  C   UNL     1      60.163  62.656  71.437  0.00  0.00    +0.000 A 
ATOM      5  C   UNL     1      60.496  63.315  71.806  0.00  0.00    +0.000 A 
ATOM      6  C   UNL     1      61.158  63.681  71.477  0.00  0.00    +0.000 A 
ATOM      7  C   UNL     1      61.488  63.389  70.780  0.00  0.00    +0.000 A 
ATOM      8  C   UNL     1      61.155  62.730  70.411  0.00  0.00    +0.000 A 
ATOM      9  C   UNL     1      61.491  64.341  71.846  0.00  0.00    +0.000 C 
ATOM     10  O   UNL     1      61.162  64.633  72.543  0.00  0.00    +0.000 OA
ATOM     11  N   UNL     1      62.153  64.706  71.517  0.00  0.00    +0.000 NA
ATOM     12  C   UNL     1      62.486  65.365  71.885  0.00  0.00    +0.000 A 
ATOM     13  C   UNL     1      62.156  65.658  72.583  0.00  0.00    +0.000 A 
ATOM     14  C   UNL     1      62.489  66.316  72.952  0.00  0.00    +0.000 A 
ATOM     15  C   UNL     1      63.151  66.683  72.623  0.00  0.00    +0.000 A 
ATOM     16  C   UNL     1      63.480  66.390  71.925  0.00  0.00    +0.000 A 
ATOM     17  C   UNL     1      63.148  65.732  71.557  0.00  0.00    +0.000 A 
ATOM     18  C   UNL     1      63.477  65.439  70.859  0.00  0.00    +0.000 C 
ATOM     19  C   UNL     1      64.139  65.805  70.530  0.00  0.00    +0.000 C 
ATOM     20  C   UNL     1      64.472  66.463  70.899  0.00  0.00    +0.000 C 
ATOM     21  C   UNL     1      64.143  66.756  71.596  0.00  0.00    +0.000 C 
ATOM     22  C   UNL     1      64.476  67.415  71.965  0.00  0.00    +0.000 C 
ATOM     23  C   UNL     1      65.137  67.781  71.636  0.00  0.00    +0.000 C 
ATOM     24  C   UNL     1      65.467  67.489  70.938  0.00  0.00    +0.000 C 
ATOM     25  N   UNL     1      65.134  66.830  70.570  0.00  0.00    +0.000 NA
ATOM     26  C   UNL     1      65.463  66.537  69.872  0.00  0.00    +0.000 C 
ENDROOT
TORSDOF 0
ENDMDL
MODEL 5
REMARK VINA RESULT:   -11.231      1.795      5.318
REMARK INTER + INTRA:         -11.231
REMARK INTER:                 -11.231
REMARK INTRA:                   0.000
REMARK UNBOUND:                 0.000
ROOT
REMARK  Name = encainide
REMARK                            x       y       z     vdW  Elec       q    Type
REMARK                         _______ _______ _______ _____ _____    ______ ____
ATOM      1  C   UNL     1      60.505  60.482  64.199  0.00  0.00    +0.000 C 
ATOM      2  O   UNL     1      60.979  61.156  64.145  0.00  0.00    +0.000 OA
ATOM      3  C   UNL     1      61.153  61.594  64.821  0.00  0.00    +0.000 A 
ATOM      4  C   UNL     1      61.626  62.267  64.767  0.00  0.00    +0.000 A 
ATOM      5  C   UNL     1      61.800  62.705  65.444  0.00  0.00    +0.000 A 
ATOM      6  C   UNL     1      61.501  62.469  66.175  0.00  0.00    +0.000 A 
ATOM      7  C   UNL     1      61.027  61.796  66.231  0.00  0.00    +0.000 A 
ATOM      8  C   UNL     1      60.853  61.358  65.553  0.00  0.00    +0.000 A 
ATOM      9  C   UNL     1      61.675  62.908  66.853  0.00  0.00    +0.000 C 
ATOM     10  O   UNL     1      62.148  63.581  66.799  0.00  0.00    +0.000 OA
ATOM     11  N   UNL     1      61.375  62.672  67.585  0.00  0.00    +0.000 NA
ATOM     12  C   UNL     1      61.549  63.110  68.262  0.00  0.00    +0.000 A 
ATOM     13  C   UNL     1      62.023  63.784  68.208  0.00  0.00    +0.000 A 
ATOM     14  C   UNL     1      62.197  64.221  68.884  0.00  0.00    +0.000 A 
ATOM     15  C   UNL     1      61.896  63.986  69.616  0.00  0.00    +0.000 A 
ATOM     16  C   UNL     1      61.423  63.313  69.670  0.00  0.00    +0.000 A 
ATOM     17  C   UNL     1      61.249  62.876  68.994  0.00  0.00    +0.000 A 
ATOM     18  C   UNL     1      60.775  62.202  69.048  0.00  0.00    +0.000 C 
ATOM     19  C   UNL     1      60.475  61.967  69.780  0.00  0.00    +0.000 C 
ATOM     20  C   UNL     1      60.649  62.405  70.457  0.00  0.00    +0.000 C 
ATOM     21  C   UNL     1      61.123  63.078  70.403  0.00  0.00    +0.000 C 
ATOM     22  C   UNL     1      61.297  63.516  71.080  0.00  0.00    +0.000 C 
ATOM     23  C   UNL     1      60.997  63.281  71.811  0.00  0.00    +0.000 C 
ATOM     24  C   UNL     1      60.523  62.607  71.866  0.00  0.00    +0.000 C 
ATOM     25  N   UNL     1      60.349  62.169  71.189  0.00  0.00    +0.000 NA
ATOM     26  C   UNL     1      59.875  61.496  71.243  0.00  0.00    +0.000 C 
ENDROOT
TORSDOF 0
ENDMDL
MODEL 6
REMARK VINA RESULT:   -11.119      1.935      2.831
REMARK INTER + INTRA:         -11.119
REMARK INTER:                 -11.119
REMARK INTRA:                   0.000
REMARK UNBOUND:                 0.000
ROOT
REMARK  Name = encainide
REMARK                            x       y       z     vdW  Elec       q    Type
REMARK                         _______ _______ _______ _____ _____    ______ ____
ATOM      1  C   UNL     1      59.489  67.757  70.964  0.00  0.00    +0.000 C 
ATOM      2  O   UNL     1      59.410  67.121  71.484  0.00  0.00    +0.000 OA
ATOM      3  C   UNL     1      59.562  66.354  71.224  0.00  0.00    +0.000 A 
ATOM      4  C   UNL     1      59.484  65.718  71.744  0.00  0.00    +0.000 A 
ATOM      5  C   UNL     1      59.636  64.950  71.483  0.00  0.00    +0.000 A 
ATOM      6  C   UNL     1      59.866  64.818  70.702  0.00  0.00    +0.000 A 
ATOM      7  C   UNL     1      59.944  65.453  70.182  0.00  0.00    +0.000 A 
ATOM      8  C   UNL     1      59.792  66.221  70.442  0.00  0.00    +0.000 A 
ATOM      9  C   UNL     1      60.018  64.049  70.441  0.00  0.00    +0.000 C 
ATOM     10  O   UNL     1      59.939  63.414  70.961  0.00  0.00    +0.000 OA
ATOM     11  N   UNL     1      60.248  63.917  69.660  0.00  0.00    +0.000 NA
ATOM     12  C   UNL     1      60.400  63.150  69.399  0.00  0.00    +0.000 A 
ATOM     13  C   UNL     1      60.321  62.514  69.920  0.00  0.00    +0.000 A 
ATOM     14  C   UNL     1      60.473  61.747  69.659  0.00  0.00    +0.000 A 
ATOM     15  C   UNL     1      60.704  61.614  68.878  0.00  0.00    +0.000 A 
ATOM     16  C   UNL     1      60.782  62.250  68.358  0.00  0.00    +0.000 A 
ATOM     17  C   UNL     1      60.630  63.017  68.618  0.00  0.00    +0.000 A 
ATOM     18  C   UNL     1      60.709  63.653  68.098  0.00  0.00    +0.000 C 
ATOM     19  C   UNL     1      60.939  63.520  67.317  0.00  0.00    +0.000 C 
ATOM     20  C   UNL     1      61.090  62.753  67.057  0.00  0.00    +0.000 C 
ATOM     21  C   UNL     1      61.012  62.117  67.576  0.00  0.00    +0.000 C 
ATOM     22  C   UNL     1      61.164  61.349  67.315  0.00  0.00    +0.000 C 
ATOM     23  C   UNL     1      61.394  61.217  66.535  0.00  0.00    +0.000 C 
ATOM     24  C   UNL     1      61.473  61.852  66.014  0.00  0.00    +0.000 C 
ATOM     25  N   UNL     1      61.321  62.620  66.275  0.00  0.00    +0.000 NA
ATOM     26  C   UNL     1      61.399  63.256  65.755  0.00  0.00    +0.000 C 
ENDROOT
TORSDOF 0
ENDMDL
MODEL 7
REMARK VINA RESULT:   -10.292     24.124     25.468
REMARK INTER + INTRA:         -10.292
REMARK INTER:                 -10.292
REMARK INTRA:                   0.000
REMARK UNBOUND:                 0.000
ROOT
REMARK  Name = encainide
REMARK                            x       y       z     vdW  Elec       q    Type
REMARK                         _______ _______ _______ _____ _____    ______ ____
ATOM      1  C   UNL     1      65.114  80.366  51.296  0.00  0.00    +0.000 C 
ATOM      2  O   UNL     1      65.540  80.760  51.883  0.00  0.00    +0.000 OA
ATOM      3  C   UNL     1      66.364  80.773  51.857  0.00  0.00    +0.000 A 
ATOM      4  C   UNL     1      66.790  81.167  52.443  0.00  0.00    +0.000 A 
ATOM      5  C   UNL     1      67.614  81.179  52.416  0.00  0.00    +0.000 A 
ATOM      6  C   UNL     1      68.013  80.798  51.804  0.00  0.00    +0.000 A 
ATOM      7  C   UNL     1      67.587  80.404  51.216  0.00  0.00    +0.000 A 
ATOM      8  C   UNL     1      66.763  80.391  51.243  0.00  0.00    +0.000 A 
ATOM      9  C   UNL     1      68.838  80.811  51.777  0.00  0.00    +0.000 C 
ATOM     10  O   UNL     1      69.263  81.205  52.363  0.00  0.00    +0.000 OA
ATOM     11  N   UNL     1      69.236  80.429  51.163  0.00  0.00    +0.000 NA
ATOM     12  C   UNL     1      70.061  80.442  51.137  0.00  0.00    +0.000 A 
ATOM     13  C   UNL     1      70.487  80.836  51.724  0.00  0.00    +0.000 A 
ATOM     14  C   UNL     1      71.310  80.849  51.697  0.00  0.00    +0.000 A 
ATOM     15  C   UNL     1      71.710  80.467  51.083  0.00  0.00    +0.000 A 
ATOM     16  C   UNL     1      71.284  80.073  50.497  0.00  0.00    +0.000 A 
ATOM     17  C   UNL     1      70.460  80.061  50.524  0.00  0.00    +0.000 A 
ATOM     18  C   UNL     1      70.034  79.666  49.937  0.00  0.00    +0.000 C 
ATOM     19  C   UNL     1      70.433  79.285  49.324  0.00  0.00    +0.000 C 
ATOM     20  C   UNL     1      71.257  79.298  49.297  0.00  0.00    +0.000 C 
ATOM     21  C   UNL     1      71.683  79.692  49.884  0.00  0.00    +0.000 C 
ATOM     22  C   UNL     1      72.507  79.704  49.857  0.00  0.00    +0.000 C 
ATOM     23  C   UNL     1      72.906  79.323  49.244  0.00  0.00    +0.000 C 
ATOM     24  C   UNL     1      72.481  78.929  48.657  0.00  0.00    +0.000 C 
ATOM     25  N   UNL     1      71.656  78.916  48.684  0.00  0.00    +0.000 NA
ATOM     26  C   UNL     1      71.230  78.522  48.098  0.00  0.00    +0.000 C 
ENDROOT
TORSDOF 0
ENDMDL
