MODEL 1
REMARK VINA RESULT:   -11.581      0.000      0.000
REMARK INTER + INTRA:         -11.581
REMARK INTER:                 -11.581
REMARK INTRA:                   0.000
REMARK UNBOUND:                 0.000
ROOT
REMARK  Name = enrofloxacin
REMARK                            x       y       z     vdW  Elec       q    Type
REMARK                         _______ _______ _______ _____ _____    ______ ____
ATOM      1  C   UNL     1      61.768  62.685  65.083  0.00  0.00    +0.000 C 
ATOM      2  C   UNL     1      61.212  62.268  65.525  0.00  0.00    +0.000 C 
ATOM      3  N   UNL     1      61.165  62.380  66.341  0.00  0.00    +0.000 NA
ATOM      4  C   UNL     1      60.607  61.962  66.783  0.00  0.00    +0.000 C 
ATOM      5  C   UNL     1      60.561  62.075  67.600  0.00  0.00    +0.000 C 
ATOM      6  N   UNL     1      61.071  62.604  67.973  0.00  0.00    +0.000 N 
ATOM      7  C   UNL     1      61.628  63.022  67.530  0.00  0.00    +0.000 C 
ATOM      8  C   UNL     1      61.675  62.910  66.715  0.00  0.00    +0.000 C 
ATOM      9  C   UNL     1      61.024  62.716  68.788  0.00  0.00    +0.000 A 
ATOM     10  C   UNL     1      61.534  63.246  69.162  0.00  0.00    +0.000 A 
ATOM     11  C   UNL     1      61.488  63.359  69.979  0.00  0.00    +0.000 A 
ATOM     12  C   UNL     1      60.930  62.941  70.422  0.00  0.00    +0.000 A 
ATOM     13  C   UNL     1      60.420  62.411  70.047  0.00  0.00    +0.000 A 
ATOM     14  C   UNL     1      60.466  62.298  69.231  0.00  0.00    +0.000 A 
ATOM     15  F   UNL     1      59.957  61.769  68.858  0.00  0.00    +0.000 F 
ATOM     16  C   UNL     1      60.883  63.053  71.237  0.00  0.00    +0.000 A 
ATOM     17  O   UNL     1      60.326  62.636  71.679  0.00  0.00    +0.000 OA
ATOM     18  C   UNL     1      61.393  63.583  71.610  0.00  0.00    +0.000 A 
ATOM     19  C   UNL     1      61.951  64.001  71.167  0.00  0.00    +0.000 A 
ATOM     20  N   UNL     1      61.998  63.888  70.352  0.00  0.00    +0.000 N 
ATOM     21  C   UNL     1      62.555  64.306  69.910  0.00  0.00    +0.000 C 
ATOM     22  C   UNL     1      63.171  64.853  69.870  0.00  0.00    +0.000 C 
ATOM     23  C   UNL     1      62.903  64.482  69.183  0.00  0.00    +0.000 C 
ATOM     24  C   UNL     1      61.347  63.695  72.427  0.00  0.00    +0.000 C 
ATOM     25  O   UNL     1      60.790  63.278  72.869  0.00  0.00    +0.000 OA
ATOM     26  O   UNL     1      61.857  64.225  72.800  0.00  0.00    +0.000 OA
ENDROOT
TORSDOF 0
ENDMDL
MODEL 2
REMARK VINA RESULT:   -11.262      1.594      2.157
REMARK INTER + INTRA:         -11.262
REMARK INTER:                 -11.262
REMARK INTRA:                   0.000
REMARK UNBOUND:                 0.000
ROOT
REMARK  Name = enrofloxacin
REMARK                            x       y       z     vdW  Elec       q    Type
REMARK                         _______ _______ _______ _____ _____    ______ ____
ATOM      1  C   UNL     1      61.716  61.123  65.929  0.00  0.00    +0.000 C 
ATOM      2  C   UNL     1      61.531  61.925  65.891  0.00  0.00    +0.000 C 
ATOM      3  N   UNL     1      61.301  62.329  66.572  0.00  0.00    +0.000 NA
ATOM      4  C   UNL     1      61.116  63.132  66.534  0.00  0.00    +0.000 C 
ATOM      5  C   UNL     1      60.886  63.535  67.216  0.00  0.00    +0.000 C 
ATOM      6  N   UNL     1      60.841  63.136  67.936  0.00  0.00    +0.000 N 
ATOM      7  C   UNL     1      61.026  62.333  67.974  0.00  0.00    +0.000 C 
ATOM      8  C   UNL     1      61.256  61.929  67.293  0.00  0.00    +0.000 C 
ATOM      9  C   UNL     1      60.611  63.539  68.617  0.00  0.00    +0.000 A 
ATOM     10  C   UNL     1      60.566  63.140  69.338  0.00  0.00    +0.000 A 
ATOM     11  C   UNL     1      60.336  63.543  70.021  0.00  0.00    +0.000 A 
ATOM     12  C   UNL     1      60.151  64.347  69.982  0.00  0.00    +0.000 A 
ATOM     13  C   UNL     1      60.196  64.746  69.261  0.00  0.00    +0.000 A 
ATOM     14  C   UNL     1      60.426  64.343  68.579  0.00  0.00    +0.000 A 
ATOM     15  F   UNL     1      60.471  64.742  67.859  0.00  0.00    +0.000 F 
ATOM     16  C   UNL     1      59.921  64.750  70.664  0.00  0.00    +0.000 A 
ATOM     17  O   UNL     1      59.737  65.553  70.625  0.00  0.00    +0.000 OA
ATOM     18  C   UNL     1      59.876  64.351  71.383  0.00  0.00    +0.000 A 
ATOM     19  C   UNL     1      60.061  63.547  71.422  0.00  0.00    +0.000 A 
ATOM     20  N   UNL     1      60.291  63.144  70.740  0.00  0.00    +0.000 N 
ATOM     21  C   UNL     1      60.476  62.341  70.779  0.00  0.00    +0.000 C 
ATOM     22  C   UNL     1      60.557  61.647  71.216  0.00  0.00    +0.000 C 
ATOM     23  C   UNL     1      60.715  61.645  70.407  0.00  0.00    +0.000 C 
ATOM     24  C   UNL     1      59.646  64.754  72.066  0.00  0.00    +0.000 C 
ATOM     25  O   UNL     1      59.462  65.557  72.027  0.00  0.00    +0.000 OA
ATOM     26  O   UNL     1      59.601  64.355  72.786  0.00  0.00    +0.000 OA
ENDROOT
TORSDOF 0
ENDMDL
MODEL 3
REMARK VINA RESULT:   -11.245      2.663      4.776
REMARK INTER + INTRA:         -11.245
REMARK INTER:                 -11.245
REMARK INTRA:                   0.000
REMARK UNBOUND:                 0.000
ROOT
REMARK  Name = enrofloxacin
REMARK                            x       y       z     vdW  Elec       q    Type
REMARK                         _______ _______ _______ _____ _____    ______ ____
ATOM      1  C   UNL     1      59.085  66.164  73.222  0.00  0.00    +0.000 C 
ATOM      2  C   UNL     1      59.163  66.514  72.481  0.00  0.00    +0.000 C 
ATOM      3  N   UNL     1      59.388  66.059  71.831  0.00  0.00    +0.000 NA
ATOM      4  C   UNL     1      59.466  66.409  71.088  0.00  0.00    +0.000 C 
ATOM      5  C   UNL     1      59.692  65.953  70.439  0.00  0.00    +0.000 C 
ATOM      6  N   UNL     1      59.839  65.147  70.531  0.00  0.00    +0.000 N 
ATOM      7  C   UNL     1      59.761  64.797  71.274  0.00  0.00    +0.000 C 
ATOM      8  C   UNL     1      59.536  65.252  71.924  0.00  0.00    +0.000 C 
ATOM      9  C   UNL     1      60.064  64.691  69.882  0.00  0.00    +0.000 A 
ATOM     10  C   UNL     1      60.212  63.885  69.975  0.00  0.00    +0.000 A 
ATOM     11  C   UNL     1      60.437  63.428  69.326  0.00  0.00    +0.000 A 
ATOM     12  C   UNL     1      60.515  63.779  68.582  0.00  0.00    +0.000 A 
ATOM     13  C   UNL     1      60.367  64.586  68.489  0.00  0.00    +0.000 A 
ATOM     14  C   UNL     1      60.142  65.042  69.139  0.00  0.00    +0.000 A 
ATOM     15  F   UNL     1      59.995  65.848  69.046  0.00  0.00    +0.000 F 
ATOM     16  C   UNL     1      60.740  63.323  67.933  0.00  0.00    +0.000 A 
ATOM     17  O   UNL     1      60.818  63.674  67.190  0.00  0.00    +0.000 OA
ATOM     18  C   UNL     1      60.888  62.518  68.026  0.00  0.00    +0.000 A 
ATOM     19  C   UNL     1      60.810  62.167  68.769  0.00  0.00    +0.000 A 
ATOM     20  N   UNL     1      60.584  62.622  69.418  0.00  0.00    +0.000 N 
ATOM     21  C   UNL     1      60.507  62.272  70.161  0.00  0.00    +0.000 C 
ATOM     22  C   UNL     1      60.547  61.605  70.644  0.00  0.00    +0.000 C 
ATOM     23  C   UNL     1      60.331  62.334  70.965  0.00  0.00    +0.000 C 
ATOM     24  C   UNL     1      61.113  62.061  67.376  0.00  0.00    +0.000 C 
ATOM     25  O   UNL     1      61.191  62.412  66.634  0.00  0.00    +0.000 OA
ATOM     26  O   UNL     1      61.260  61.255  67.469  0.00  0.00    +0.000 OA
ENDROOT
TORSDOF 0
ENDMDL
MODEL 4
REMARK VINA RESULT:   -11.059      2.557      4.755
REMARK INTER + INTRA:         -11.059
REMARK INTER:                 -11.059
REMARK INTRA:                   0.000
REMARK UNBOUND:                 0.000
ROOT
REMARK  Name = enrofloxacin
REMARK                            x       y       z     vdW  Elec       q    Type
REMARK                         _______ _______ _______ _____ _____    ______ ____
ATOM      1  C   UNL     1      66.305  67.561  69.873  0.00  0.00    +0.000 C 
ATOM      2  C   UNL     1      65.970  67.647  70.621  0.00  0.00    +0.000 C 
ATOM      3  N   UNL     1      65.315  67.193  70.835  0.00  0.00    +0.000 NA
ATOM      4  C   UNL     1      64.979  67.279  71.583  0.00  0.00    +0.000 C 
ATOM      5  C   UNL     1      64.324  66.824  71.796  0.00  0.00    +0.000 C 
ATOM      6  N   UNL     1      64.005  66.285  71.261  0.00  0.00    +0.000 N 
ATOM      7  C   UNL     1      64.341  66.199  70.512  0.00  0.00    +0.000 C 
ATOM      8  C   UNL     1      64.995  66.653  70.298  0.00  0.00    +0.000 C 
ATOM      9  C   UNL     1      63.351  65.831  71.473  0.00  0.00    +0.000 A 
ATOM     10  C   UNL     1      63.031  65.291  70.938  0.00  0.00    +0.000 A 
ATOM     11  C   UNL     1      62.375  64.836  71.150  0.00  0.00    +0.000 A 
ATOM     12  C   UNL     1      62.039  64.922  71.900  0.00  0.00    +0.000 A 
ATOM     13  C   UNL     1      62.359  65.462  72.435  0.00  0.00    +0.000 A 
ATOM     14  C   UNL     1      63.015  65.917  72.223  0.00  0.00    +0.000 A 
ATOM     15  F   UNL     1      63.334  66.456  72.758  0.00  0.00    +0.000 F 
ATOM     16  C   UNL     1      61.385  64.468  72.112  0.00  0.00    +0.000 A 
ATOM     17  O   UNL     1      61.049  64.554  72.861  0.00  0.00    +0.000 OA
ATOM     18  C   UNL     1      61.066  63.929  71.577  0.00  0.00    +0.000 A 
ATOM     19  C   UNL     1      61.402  63.843  70.827  0.00  0.00    +0.000 A 
ATOM     20  N   UNL     1      62.056  64.297  70.615  0.00  0.00    +0.000 N 
ATOM     21  C   UNL     1      62.392  64.211  69.866  0.00  0.00    +0.000 C 
ATOM     22  C   UNL     1      62.401  63.850  69.125  0.00  0.00    +0.000 C 
ATOM     23  C   UNL     1      62.964  64.424  69.311  0.00  0.00    +0.000 C 
ATOM     24  C   UNL     1      60.410  63.474  71.789  0.00  0.00    +0.000 C 
ATOM     25  O   UNL     1      60.075  63.560  72.538  0.00  0.00    +0.000 OA
ATOM     26  O   UNL     1      60.091  62.935  71.254  0.00  0.00    +0.000 OA
ENDROOT
TORSDOF 0
ENDMDL
MODEL 5
REMARK VINA RESULT:   -11.058      2.627      4.270
REMARK INTER + INTRA:         -11.058
REMARK INTER:                 -11.058
REMARK INTRA:                   0.000
REMARK UNBOUND:                 0.000
ROOT
REMARK  Name = enrofloxacin
REMARK                            x       y       z     vdW  Elec       q    Type
REMARK                         _______ _______ _______ _____ _____    ______ ____
ATOM      1  C   UNL     1      65.843  67.632  70.839  0.00  0.00    +0.000 C 
ATOM      2  C   UNL     1      65.746  67.099  70.217  0.00  0.00    +0.000 C 
ATOM      3  N   UNL     1      65.130  66.551  70.236  0.00  0.00    +0.000 NA
ATOM      4  C   UNL     1      65.032  66.018  69.614  0.00  0.00    +0.000 C 
ATOM      5  C   UNL     1      64.416  65.470  69.634  0.00  0.00    +0.000 C 
ATOM      6  N   UNL     1      63.898  65.454  70.275  0.00  0.00    +0.000 N 
ATOM      7  C   UNL     1      63.995  65.987  70.897  0.00  0.00    +0.000 C 
ATOM      8  C   UNL     1      64.611  66.536  70.878  0.00  0.00    +0.000 C 
ATOM      9  C   UNL     1      63.282  64.907  70.294  0.00  0.00    +0.000 A 
ATOM     10  C   UNL     1      62.763  64.891  70.936  0.00  0.00    +0.000 A 
ATOM     11  C   UNL     1      62.146  64.343  70.956  0.00  0.00    +0.000 A 
ATOM     12  C   UNL     1      62.049  63.809  70.333  0.00  0.00    +0.000 A 
ATOM     13  C   UNL     1      62.568  63.825  69.692  0.00  0.00    +0.000 A 
ATOM     14  C   UNL     1      63.184  64.373  69.672  0.00  0.00    +0.000 A 
ATOM     15  F   UNL     1      63.702  64.388  69.031  0.00  0.00    +0.000 F 
ATOM     16  C   UNL     1      61.433  63.261  70.353  0.00  0.00    +0.000 A 
ATOM     17  O   UNL     1      61.335  62.728  69.730  0.00  0.00    +0.000 OA
ATOM     18  C   UNL     1      60.915  63.246  70.993  0.00  0.00    +0.000 A 
ATOM     19  C   UNL     1      61.012  63.780  71.616  0.00  0.00    +0.000 A 
ATOM     20  N   UNL     1      61.628  64.327  71.597  0.00  0.00    +0.000 N 
ATOM     21  C   UNL     1      61.726  64.860  72.219  0.00  0.00    +0.000 C 
ATOM     22  C   UNL     1      61.483  65.159  72.948  0.00  0.00    +0.000 C 
ATOM     23  C   UNL     1      62.138  65.484  72.566  0.00  0.00    +0.000 C 
ATOM     24  C   UNL     1      60.298  62.698  71.013  0.00  0.00    +0.000 C 
ATOM     25  O   UNL     1      60.201  62.165  70.391  0.00  0.00    +0.000 OA
ATOM     26  O   UNL     1      59.780  62.682  71.654  0.00  0.00    +0.000 OA
ENDROOT
TORSDOF 0
ENDMDL
MODEL 6
REMARK VINA RESULT:   -10.872      2.759      5.039
REMARK INTER + INTRA:         -10.872
REMARK INTER:                 -10.872
REMARK INTRA:                   0.000
REMARK UNBOUND:                 0.000
ROOT
REMARK  Name = enrofloxacin
REMARK                            x       y       z     vdW  Elec       q    Type
REMARK                         _______ _______ _______ _____ _____    ______ ____
ATOM      1  C   UNL     1      63.488  68.851  72.855  0.00  0.00    +0.000 C 
ATOM      2  C   UNL     1      62.769  68.585  73.156  0.00  0.00    +0.000 C 
ATOM      3  N   UNL     1      62.463  67.858  72.914  0.00  0.00    +0.000 NA
ATOM      4  C   UNL     1      61.743  67.592  73.216  0.00  0.00    +0.000 C 
ATOM      5  C   UNL     1      61.438  66.865  72.972  0.00  0.00    +0.000 C 
ATOM      6  N   UNL     1      61.852  66.405  72.427  0.00  0.00    +0.000 N 
ATOM      7  C   UNL     1      62.571  66.672  72.125  0.00  0.00    +0.000 C 
ATOM      8  C   UNL     1      62.877  67.398  72.368  0.00  0.00    +0.000 C 
ATOM      9  C   UNL     1      61.546  65.679  72.184  0.00  0.00    +0.000 A 
ATOM     10  C   UNL     1      61.960  65.218  71.639  0.00  0.00    +0.000 A 
ATOM     11  C   UNL     1      61.655  64.491  71.396  0.00  0.00    +0.000 A 
ATOM     12  C   UNL     1      60.935  64.224  71.698  0.00  0.00    +0.000 A 
ATOM     13  C   UNL     1      60.521  64.685  72.243  0.00  0.00    +0.000 A 
ATOM     14  C   UNL     1      60.826  65.412  72.487  0.00  0.00    +0.000 A 
ATOM     15  F   UNL     1      60.412  65.872  73.032  0.00  0.00    +0.000 F 
ATOM     16  C   UNL     1      60.629  63.498  71.455  0.00  0.00    +0.000 A 
ATOM     17  O   UNL     1      59.910  63.231  71.757  0.00  0.00    +0.000 OA
ATOM     18  C   UNL     1      61.043  63.038  70.910  0.00  0.00    +0.000 A 
ATOM     19  C   UNL     1      61.764  63.305  70.608  0.00  0.00    +0.000 A 
ATOM     20  N   UNL     1      62.069  64.031  70.851  0.00  0.00    +0.000 N 
ATOM     21  C   UNL     1      62.789  64.298  70.549  0.00  0.00    +0.000 C 
ATOM     22  C   UNL     1      63.444  64.186  70.060  0.00  0.00    +0.000 C 
ATOM     23  C   UNL     1      63.381  64.872  70.515  0.00  0.00    +0.000 C 
ATOM     24  C   UNL     1      60.738  62.311  70.667  0.00  0.00    +0.000 C 
ATOM     25  O   UNL     1      60.018  62.044  70.969  0.00  0.00    +0.000 OA
ATOM     26  O   UNL     1      61.152  61.851  70.122  0.00  0.00    +0.000 OA
ENDROOT
TORSDOF 0
ENDMDL
MODEL 7
REMARK VINA RESULT:   -10.771      1.647      2.507
REMARK INTER + INTRA:         -10.771
REMARK INTER:                 -10.771
REMARK INTRA:                   0.000
REMARK UNBOUND:                 0.000
ROOT
REMARK  Name = enrofloxacin
REMARK                            x       y       z     vdW  Elec       q    Type
REMARK                         _______ _______ _______ _____ _____    ______ ____
ATOM      1  C   UNL     1      59.402  62.096  66.873  0.00  0.00    +0.000 C 
ATOM      2  C   UNL     1      60.184  62.347  66.809  0.00  0.00    +0.000 C 
ATOM      3  N   UNL     1      60.542  62.749  67.435  0.00  0.00    +0.000 NA
ATOM      4  C   UNL     1      61.325  63.001  67.371  0.00  0.00    +0.000 C 
ATOM      5  C   UNL     1      61.681  63.402  67.998  0.00  0.00    +0.000 C 
ATOM      6  N   UNL     1      61.255  63.551  68.688  0.00  0.00    +0.000 N 
ATOM      7  C   UNL     1      60.473  63.299  68.752  0.00  0.00    +0.000 C 
ATOM      8  C   UNL     1      60.115  62.898  68.126  0.00  0.00    +0.000 C 
ATOM      9  C   UNL     1      61.612  63.952  69.314  0.00  0.00    +0.000 A 
ATOM     10  C   UNL     1      61.186  64.101  70.005  0.00  0.00    +0.000 A 
ATOM     11  C   UNL     1      61.543  64.502  70.632  0.00  0.00    +0.000 A 
ATOM     12  C   UNL     1      62.327  64.755  70.567  0.00  0.00    +0.000 A 
ATOM     13  C   UNL     1      62.752  64.605  69.876  0.00  0.00    +0.000 A 
ATOM     14  C   UNL     1      62.396  64.204  69.249  0.00  0.00    +0.000 A 
ATOM     15  F   UNL     1      62.821  64.055  68.559  0.00  0.00    +0.000 F 
ATOM     16  C   UNL     1      62.683  65.156  71.193  0.00  0.00    +0.000 A 
ATOM     17  O   UNL     1      63.466  65.408  71.129  0.00  0.00    +0.000 OA
ATOM     18  C   UNL     1      62.258  65.305  71.883  0.00  0.00    +0.000 A 
ATOM     19  C   UNL     1      61.474  65.052  71.948  0.00  0.00    +0.000 A 
ATOM     20  N   UNL     1      61.117  64.652  71.322  0.00  0.00    +0.000 N 
ATOM     21  C   UNL     1      60.335  64.399  71.386  0.00  0.00    +0.000 C 
ATOM     22  C   UNL     1      59.637  64.340  71.821  0.00  0.00    +0.000 C 
ATOM     23  C   UNL     1      59.677  64.022  71.061  0.00  0.00    +0.000 C 
ATOM     24  C   UNL     1      62.614  65.706  72.510  0.00  0.00    +0.000 C 
ATOM     25  O   UNL     1      63.397  65.958  72.446  0.00  0.00    +0.000 OA
ATOM     26  O   UNL     1      62.189  65.855  73.200  0.00  0.00    +0.000 OA
ENDROOT
TORSDOF 0
ENDMDL
MODEL 8
REMARK VINA RESULT:   -10.713      3.180      4.548
REMARK INTER + INTRA:         -10.713
REMARK INTER:                 -10.713
REMARK INTRA:                   0.000
REMARK UNBOUND:                 0.000
ROOT
REMARK  Name = enrofloxacin
REMARK                            x       y       z     vdW  Elec       q    Type
REMARK                         _______ _______ _______ _____ _____    ______ ____
ATOM      1  C   UNL     1      60.134  61.693  70.988  0.00  0.00    +0.000 C 
ATOM      2  C   UNL     1      60.902  61.874  70.752  0.00  0.00    +0.000 C 
ATOM      3  N   UNL     1      61.233  62.604  70.948  0.00  0.00    +0.000 NA
ATOM      4  C   UNL     1      62.002  62.786  70.711  0.00  0.00    +0.000 C 
ATOM      5  C   UNL     1      62.332  63.516  70.908  0.00  0.00    +0.000 C 
ATOM      6  N   UNL     1      61.894  64.064  71.341  0.00  0.00    +0.000 N 
ATOM      7  C   UNL     1      61.124  63.883  71.577  0.00  0.00    +0.000 C 
ATOM      8  C   UNL     1      60.794  63.153  71.381  0.00  0.00    +0.000 C 
ATOM      9  C   UNL     1      62.224  64.794  71.537  0.00  0.00    +0.000 A 
ATOM     10  C   UNL     1      61.785  65.343  71.970  0.00  0.00    +0.000 A 
ATOM     11  C   UNL     1      62.115  66.073  72.167  0.00  0.00    +0.000 A 
ATOM     12  C   UNL     1      62.885  66.255  71.930  0.00  0.00    +0.000 A 
ATOM     13  C   UNL     1      63.323  65.706  71.497  0.00  0.00    +0.000 A 
ATOM     14  C   UNL     1      62.994  64.976  71.300  0.00  0.00    +0.000 A 
ATOM     15  F   UNL     1      63.432  64.428  70.868  0.00  0.00    +0.000 F 
ATOM     16  C   UNL     1      63.215  66.985  72.126  0.00  0.00    +0.000 A 
ATOM     17  O   UNL     1      63.984  67.166  71.890  0.00  0.00    +0.000 OA
ATOM     18  C   UNL     1      62.776  67.533  72.559  0.00  0.00    +0.000 A 
ATOM     19  C   UNL     1      62.006  67.351  72.795  0.00  0.00    +0.000 A 
ATOM     20  N   UNL     1      61.676  66.621  72.599  0.00  0.00    +0.000 N 
ATOM     21  C   UNL     1      60.907  66.439  72.835  0.00  0.00    +0.000 C 
ATOM     22  C   UNL     1      60.210  66.651  73.221  0.00  0.00    +0.000 C 
ATOM     23  C   UNL     1      60.273  65.913  72.858  0.00  0.00    +0.000 C 
ATOM     24  C   UNL     1      63.106  68.263  72.756  0.00  0.00    +0.000 C 
ATOM     25  O   UNL     1      63.875  68.445  72.519  0.00  0.00    +0.000 OA
ATOM     26  O   UNL     1      62.668  68.811  73.188  0.00  0.00    +0.000 OA
ENDROOT
TORSDOF 0
ENDMDL
MODEL 9
REMARK VINA RESULT:   -10.328      3.106      4.054
REMARK INTER + INTRA:         -10.328
REMARK INTER:                 -10.328
REMARK INTRA:                   0.000
REMARK UNBOUND:                 0.000
ROOT
REMARK  Name = enrofloxacin
REMARK                            x       y       z     vdW  Elec       q    Type
REMARK                         _______ _______ _______ _____ _____    ______ ____
ATOM      1  C   UNL     1      64.463  65.265  69.488  0.00  0.00    +0.000 C 
ATOM      2  C   UNL     1      64.098  64.608  69.826  0.00  0.00    +0.000 C 
ATOM      3  N   UNL     1      63.361  64.685  70.189  0.00  0.00    +0.000 NA
ATOM      4  C   UNL     1      62.995  64.027  70.526  0.00  0.00    +0.000 C 
ATOM      5  C   UNL     1      62.258  64.107  70.889  0.00  0.00    +0.000 C 
ATOM      6  N   UNL     1      61.887  64.842  70.914  0.00  0.00    +0.000 N 
ATOM      7  C   UNL     1      62.253  65.500  70.576  0.00  0.00    +0.000 C 
ATOM      8  C   UNL     1      62.990  65.422  70.213  0.00  0.00    +0.000 C 
ATOM      9  C   UNL     1      61.151  64.921  71.276  0.00  0.00    +0.000 A 
ATOM     10  C   UNL     1      60.779  65.657  71.301  0.00  0.00    +0.000 A 
ATOM     11  C   UNL     1      60.042  65.736  71.664  0.00  0.00    +0.000 A 
ATOM     12  C   UNL     1      59.676  65.078  72.002  0.00  0.00    +0.000 A 
ATOM     13  C   UNL     1      60.048  64.341  71.977  0.00  0.00    +0.000 A 
ATOM     14  C   UNL     1      60.785  64.262  71.614  0.00  0.00    +0.000 A 
ATOM     15  F   UNL     1      61.156  63.527  71.590  0.00  0.00    +0.000 F 
ATOM     16  C   UNL     1      58.940  65.156  72.364  0.00  0.00    +0.000 A 
ATOM     17  O   UNL     1      58.574  64.498  72.702  0.00  0.00    +0.000 OA
ATOM     18  C   UNL     1      58.569  65.892  72.389  0.00  0.00    +0.000 A 
ATOM     19  C   UNL     1      58.935  66.551  72.051  0.00  0.00    +0.000 A 
ATOM     20  N   UNL     1      59.671  66.472  71.689  0.00  0.00    +0.000 N 
ATOM     21  C   UNL     1      60.037  67.130  71.351  0.00  0.00    +0.000 C 
ATOM     22  C   UNL     1      60.034  67.934  71.170  0.00  0.00    +0.000 C 
ATOM     23  C   UNL     1      60.673  67.464  70.946  0.00  0.00    +0.000 C 
ATOM     24  C   UNL     1      57.832  65.971  72.752  0.00  0.00    +0.000 C 
ATOM     25  O   UNL     1      57.466  65.313  73.090  0.00  0.00    +0.000 OA
ATOM     26  O   UNL     1      57.461  66.707  72.777  0.00  0.00    +0.000 OA
ENDROOT
TORSDOF 0
ENDMDL
