MODEL 1
REMARK VINA RESULT:   -10.667      0.000      0.000
REMARK INTER + INTRA:         -10.667
REMARK INTER:                 -10.667
REMARK INTRA:                   0.000
REMARK UNBOUND:                 0.000
ROOT
REMARK  Name = ensulizole
REMARK                            x       y       z     vdW  Elec       q    Type
REMARK                         _______ _______ _______ _____ _____    ______ ____
ATOM      1  O   UNL     1      61.496  64.117  70.029  0.00  0.00    +0.000 OA
ATOM      2  S   UNL     1      61.310  63.685  69.351  0.00  0.00    +0.000 S 
ATOM      3  O   UNL     1      60.624  63.408  69.716  0.00  0.00    +0.000 OA
ATOM      4  O   UNL     1      61.996  63.963  68.986  0.00  0.00    +0.000 OA
ATOM      5  C   UNL     1      61.124  63.254  68.673  0.00  0.00    +0.000 A 
ATOM      6  C   UNL     1      61.625  63.278  68.019  0.00  0.00    +0.000 A 
ATOM      7  C   UNL     1      61.439  62.847  67.340  0.00  0.00    +0.000 A 
ATOM      8  C   UNL     1      60.752  62.391  67.317  0.00  0.00    +0.000 A 
ATOM      9  N   UNL     1      60.712  62.027  66.578  0.00  0.00    +0.000 NA
ATOM     10  C   UNL     1      61.374  62.258  66.144  0.00  0.00    +0.000 A 
ATOM     11  N   UNL     1      61.823  62.764  66.616  0.00  0.00    +0.000 NA
ATOM     12  C   UNL     1      61.556  62.023  65.375  0.00  0.00    +0.000 A 
ATOM     13  C   UNL     1      62.243  62.300  65.010  0.00  0.00    +0.000 A 
ATOM     14  C   UNL     1      62.425  62.065  64.240  0.00  0.00    +0.000 A 
ATOM     15  C   UNL     1      61.920  61.553  63.836  0.00  0.00    +0.000 A 
ATOM     16  C   UNL     1      61.234  61.275  64.200  0.00  0.00    +0.000 A 
ATOM     17  C   UNL     1      61.052  61.510  64.970  0.00  0.00    +0.000 A 
ATOM     18  C   UNL     1      60.250  62.367  67.972  0.00  0.00    +0.000 A 
ATOM     19  C   UNL     1      60.437  62.798  68.650  0.00  0.00    +0.000 A 
ENDROOT
TORSDOF 0
ENDMDL
MODEL 2
REMARK VINA RESULT:   -10.192      2.725      4.230
REMARK INTER + INTRA:         -10.192
REMARK INTER:                 -10.192
REMARK INTRA:                   0.000
REMARK UNBOUND:                 0.000
ROOT
REMARK  Name = ensulizole
REMARK                            x       y       z     vdW  Elec       q    Type
REMARK                         _______ _______ _______ _____ _____    ______ ____
ATOM      1  O   UNL     1      62.576  61.607  63.210  0.00  0.00    +0.000 OA
ATOM      2  S   UNL     1      62.136  61.699  63.903  0.00  0.00    +0.000 S 
ATOM      3  O   UNL     1      61.533  61.238  63.581  0.00  0.00    +0.000 OA
ATOM      4  O   UNL     1      62.740  62.160  64.225  0.00  0.00    +0.000 OA
ATOM      5  C   UNL     1      61.697  61.791  64.595  0.00  0.00    +0.000 A 
ATOM      6  C   UNL     1      61.999  62.236  65.219  0.00  0.00    +0.000 A 
ATOM      7  C   UNL     1      61.560  62.328  65.912  0.00  0.00    +0.000 A 
ATOM      8  C   UNL     1      60.818  61.974  65.980  0.00  0.00    +0.000 A 
ATOM      9  N   UNL     1      60.514  62.159  66.723  0.00  0.00    +0.000 NA
ATOM     10  C   UNL     1      61.068  62.627  67.116  0.00  0.00    +0.000 A 
ATOM     11  N   UNL     1      61.714  62.731  66.614  0.00  0.00    +0.000 NA
ATOM     12  C   UNL     1      60.989  62.937  67.876  0.00  0.00    +0.000 A 
ATOM     13  C   UNL     1      61.593  63.399  68.198  0.00  0.00    +0.000 A 
ATOM     14  C   UNL     1      61.514  63.709  68.959  0.00  0.00    +0.000 A 
ATOM     15  C   UNL     1      60.831  63.557  69.397  0.00  0.00    +0.000 A 
ATOM     16  C   UNL     1      60.228  63.096  69.076  0.00  0.00    +0.000 A 
ATOM     17  C   UNL     1      60.307  62.786  68.315  0.00  0.00    +0.000 A 
ATOM     18  C   UNL     1      60.515  61.528  65.354  0.00  0.00    +0.000 A 
ATOM     19  C   UNL     1      60.955  61.437  64.662  0.00  0.00    +0.000 A 
ENDROOT
TORSDOF 0
ENDMDL
MODEL 3
REMARK VINA RESULT:    -9.685      2.667      4.879
REMARK INTER + INTRA:          -9.685
REMARK INTER:                  -9.685
REMARK INTRA:                   0.000
REMARK UNBOUND:                 0.000
ROOT
REMARK  Name = ensulizole
REMARK                            x       y       z     vdW  Elec       q    Type
REMARK                         _______ _______ _______ _____ _____    ______ ____
ATOM      1  O   UNL     1      61.099  62.944  66.199  0.00  0.00    +0.000 OA
ATOM      2  S   UNL     1      61.013  62.794  67.007  0.00  0.00    +0.000 S 
ATOM      3  O   UNL     1      60.585  62.110  66.834  0.00  0.00    +0.000 OA
ATOM      4  O   UNL     1      61.440  63.478  67.179  0.00  0.00    +0.000 OA
ATOM      5  C   UNL     1      60.926  62.645  67.813  0.00  0.00    +0.000 A 
ATOM      6  C   UNL     1      61.253  63.162  68.365  0.00  0.00    +0.000 A 
ATOM      7  C   UNL     1      61.167  63.013  69.173  0.00  0.00    +0.000 A 
ATOM      8  C   UNL     1      60.754  62.346  69.426  0.00  0.00    +0.000 A 
ATOM      9  N   UNL     1      60.758  62.341  70.251  0.00  0.00    +0.000 NA
ATOM     10  C   UNL     1      61.174  63.006  70.507  0.00  0.00    +0.000 A 
ATOM     11  N   UNL     1      61.427  63.420  69.840  0.00  0.00    +0.000 NA
ATOM     12  C   UNL     1      61.313  63.218  71.292  0.00  0.00    +0.000 A 
ATOM     13  C   UNL     1      61.741  63.903  71.465  0.00  0.00    +0.000 A 
ATOM     14  C   UNL     1      61.880  64.115  72.250  0.00  0.00    +0.000 A 
ATOM     15  C   UNL     1      61.591  63.643  72.862  0.00  0.00    +0.000 A 
ATOM     16  C   UNL     1      61.164  62.960  72.690  0.00  0.00    +0.000 A 
ATOM     17  C   UNL     1      61.025  62.747  71.905  0.00  0.00    +0.000 A 
ATOM     18  C   UNL     1      60.426  61.827  68.873  0.00  0.00    +0.000 A 
ATOM     19  C   UNL     1      60.513  61.977  68.067  0.00  0.00    +0.000 A 
ENDROOT
TORSDOF 0
ENDMDL
MODEL 4
REMARK VINA RESULT:    -9.529      4.350      5.982
REMARK INTER + INTRA:          -9.529
REMARK INTER:                  -9.529
REMARK INTRA:                   0.000
REMARK UNBOUND:                 0.000
ROOT
REMARK  Name = ensulizole
REMARK                            x       y       z     vdW  Elec       q    Type
REMARK                         _______ _______ _______ _____ _____    ______ ____
ATOM      1  O   UNL     1      61.332  63.381  68.989  0.00  0.00    +0.000 OA
ATOM      2  S   UNL     1      61.876  63.807  69.441  0.00  0.00    +0.000 S 
ATOM      3  O   UNL     1      61.571  63.465  70.127  0.00  0.00    +0.000 OA
ATOM      4  O   UNL     1      62.179  64.148  68.754  0.00  0.00    +0.000 OA
ATOM      5  C   UNL     1      62.419  64.232  69.893  0.00  0.00    +0.000 A 
ATOM      6  C   UNL     1      62.953  64.740  69.524  0.00  0.00    +0.000 A 
ATOM      7  C   UNL     1      63.497  65.166  69.976  0.00  0.00    +0.000 A 
ATOM      8  C   UNL     1      63.506  65.083  70.797  0.00  0.00    +0.000 A 
ATOM      9  N   UNL     1      64.100  65.570  71.096  0.00  0.00    +0.000 NA
ATOM     10  C   UNL     1      64.459  65.954  70.461  0.00  0.00    +0.000 A 
ATOM     11  N   UNL     1      64.086  65.704  69.769  0.00  0.00    +0.000 NA
ATOM     12  C   UNL     1      65.082  66.493  70.509  0.00  0.00    +0.000 A 
ATOM     13  C   UNL     1      65.386  66.835  69.822  0.00  0.00    +0.000 A 
ATOM     14  C   UNL     1      66.009  67.374  69.870  0.00  0.00    +0.000 A 
ATOM     15  C   UNL     1      66.327  67.571  70.605  0.00  0.00    +0.000 A 
ATOM     16  C   UNL     1      66.023  67.230  71.291  0.00  0.00    +0.000 A 
ATOM     17  C   UNL     1      65.401  66.691  71.243  0.00  0.00    +0.000 A 
ATOM     18  C   UNL     1      62.970  64.574  71.166  0.00  0.00    +0.000 A 
ATOM     19  C   UNL     1      62.427  64.149  70.713  0.00  0.00    +0.000 A 
ENDROOT
TORSDOF 0
ENDMDL
MODEL 5
REMARK VINA RESULT:    -9.384      5.060      6.004
REMARK INTER + INTRA:          -9.384
REMARK INTER:                  -9.384
REMARK INTRA:                   0.000
REMARK UNBOUND:                 0.000
ROOT
REMARK  Name = ensulizole
REMARK                            x       y       z     vdW  Elec       q    Type
REMARK                         _______ _______ _______ _____ _____    ______ ____
ATOM      1  O   UNL     1      65.643  67.403  70.275  0.00  0.00    +0.000 OA
ATOM      2  S   UNL     1      65.136  66.751  70.276  0.00  0.00    +0.000 S 
ATOM      3  O   UNL     1      65.391  66.552  69.518  0.00  0.00    +0.000 OA
ATOM      4  O   UNL     1      64.882  66.952  71.035  0.00  0.00    +0.000 OA
ATOM      5  C   UNL     1      64.630  66.101  70.278  0.00  0.00    +0.000 A 
ATOM      6  C   UNL     1      64.156  65.949  70.936  0.00  0.00    +0.000 A 
ATOM      7  C   UNL     1      63.649  65.298  70.938  0.00  0.00    +0.000 A 
ATOM      8  C   UNL     1      63.616  64.799  70.282  0.00  0.00    +0.000 A 
ATOM      9  N   UNL     1      63.068  64.204  70.441  0.00  0.00    +0.000 NA
ATOM     10  C   UNL     1      62.762  64.334  71.195  0.00  0.00    +0.000 A 
ATOM     11  N   UNL     1      63.122  65.010  71.502  0.00  0.00    +0.000 NA
ATOM     12  C   UNL     1      62.196  63.871  71.576  0.00  0.00    +0.000 A 
ATOM     13  C   UNL     1      61.941  64.071  72.336  0.00  0.00    +0.000 A 
ATOM     14  C   UNL     1      61.375  63.607  72.717  0.00  0.00    +0.000 A 
ATOM     15  C   UNL     1      61.064  62.943  72.338  0.00  0.00    +0.000 A 
ATOM     16  C   UNL     1      61.318  62.743  71.580  0.00  0.00    +0.000 A 
ATOM     17  C   UNL     1      61.884  63.207  71.199  0.00  0.00    +0.000 A 
ATOM     18  C   UNL     1      64.090  64.951  69.623  0.00  0.00    +0.000 A 
ATOM     19  C   UNL     1      64.597  65.602  69.622  0.00  0.00    +0.000 A 
ENDROOT
TORSDOF 0
ENDMDL
MODEL 6
REMARK VINA RESULT:    -9.105      1.554      2.392
REMARK INTER + INTRA:          -9.105
REMARK INTER:                  -9.105
REMARK INTRA:                   0.000
REMARK UNBOUND:                 0.000
ROOT
REMARK  Name = ensulizole
REMARK                            x       y       z     vdW  Elec       q    Type
REMARK                         _______ _______ _______ _____ _____    ______ ____
ATOM      1  O   UNL     1      60.294  65.485  71.224  0.00  0.00    +0.000 OA
ATOM      2  S   UNL     1      60.507  65.067  70.544  0.00  0.00    +0.000 S 
ATOM      3  O   UNL     1      61.296  65.272  70.666  0.00  0.00    +0.000 OA
ATOM      4  O   UNL     1      59.716  64.863  70.424  0.00  0.00    +0.000 OA
ATOM      5  C   UNL     1      60.719  64.650  69.866  0.00  0.00    +0.000 A 
ATOM      6  C   UNL     1      60.141  64.264  69.422  0.00  0.00    +0.000 A 
ATOM      7  C   UNL     1      60.353  63.846  68.742  0.00  0.00    +0.000 A 
ATOM      8  C   UNL     1      61.144  63.815  68.508  0.00  0.00    +0.000 A 
ATOM      9  N   UNL     1      61.187  63.364  67.819  0.00  0.00    +0.000 NA
ATOM     10  C   UNL     1      60.424  63.117  67.627  0.00  0.00    +0.000 A 
ATOM     11  N   UNL     1      59.909  63.415  68.198  0.00  0.00    +0.000 NA
ATOM     12  C   UNL     1      60.213  62.653  66.978  0.00  0.00    +0.000 A 
ATOM     13  C   UNL     1      59.423  62.448  66.857  0.00  0.00    +0.000 A 
ATOM     14  C   UNL     1      59.212  61.984  66.208  0.00  0.00    +0.000 A 
ATOM     15  C   UNL     1      59.791  61.725  65.681  0.00  0.00    +0.000 A 
ATOM     16  C   UNL     1      60.581  61.929  65.802  0.00  0.00    +0.000 A 
ATOM     17  C   UNL     1      60.792  62.393  66.451  0.00  0.00    +0.000 A 
ATOM     18  C   UNL     1      61.722  64.201  68.953  0.00  0.00    +0.000 A 
ATOM     19  C   UNL     1      61.509  64.618  69.631  0.00  0.00    +0.000 A 
ENDROOT
TORSDOF 0
ENDMDL
MODEL 7
REMARK VINA RESULT:    -9.088      3.989      4.869
REMARK INTER + INTRA:          -9.088
REMARK INTER:                  -9.088
REMARK INTRA:                   0.000
REMARK UNBOUND:                 0.000
ROOT
REMARK  Name = ensulizole
REMARK                            x       y       z     vdW  Elec       q    Type
REMARK                         _______ _______ _______ _____ _____    ______ ____
ATOM      1  O   UNL     1      59.479  67.945  71.321  0.00  0.00    +0.000 OA
ATOM      2  S   UNL     1      59.588  67.217  70.946  0.00  0.00    +0.000 S 
ATOM      3  O   UNL     1      59.460  67.575  70.214  0.00  0.00    +0.000 OA
ATOM      4  O   UNL     1      59.716  66.860  71.679  0.00  0.00    +0.000 OA
ATOM      5  C   UNL     1      59.697  66.490  70.573  0.00  0.00    +0.000 A 
ATOM      6  C   UNL     1      59.862  65.817  71.020  0.00  0.00    +0.000 A 
ATOM      7  C   UNL     1      59.971  65.090  70.647  0.00  0.00    +0.000 A 
ATOM      8  C   UNL     1      59.915  65.035  69.825  0.00  0.00    +0.000 A 
ATOM      9  N   UNL     1      60.048  64.250  69.612  0.00  0.00    +0.000 NA
ATOM     10  C   UNL     1      60.187  63.819  70.301  0.00  0.00    +0.000 A 
ATOM     11  N   UNL     1      60.139  64.338  70.940  0.00  0.00    +0.000 NA
ATOM     12  C   UNL     1      60.345  63.010  70.343  0.00  0.00    +0.000 A 
ATOM     13  C   UNL     1      60.473  62.653  71.076  0.00  0.00    +0.000 A 
ATOM     14  C   UNL     1      60.632  61.844  71.119  0.00  0.00    +0.000 A 
ATOM     15  C   UNL     1      60.662  61.393  70.428  0.00  0.00    +0.000 A 
ATOM     16  C   UNL     1      60.534  61.750  69.696  0.00  0.00    +0.000 A 
ATOM     17  C   UNL     1      60.375  62.559  69.654  0.00  0.00    +0.000 A 
ATOM     18  C   UNL     1      59.749  65.709  69.377  0.00  0.00    +0.000 A 
ATOM     19  C   UNL     1      59.640  66.436  69.752  0.00  0.00    +0.000 A 
ENDROOT
TORSDOF 0
ENDMDL
MODEL 8
REMARK VINA RESULT:    -8.853      5.104      6.093
REMARK INTER + INTRA:          -8.853
REMARK INTER:                  -8.853
REMARK INTRA:                   0.000
REMARK UNBOUND:                 0.000
ROOT
REMARK  Name = ensulizole
REMARK                            x       y       z     vdW  Elec       q    Type
REMARK                         _______ _______ _______ _____ _____    ______ ____
ATOM      1  O   UNL     1      62.379  68.267  73.222  0.00  0.00    +0.000 OA
ATOM      2  S   UNL     1      62.425  67.521  72.872  0.00  0.00    +0.000 S 
ATOM      3  O   UNL     1      63.200  67.678  72.638  0.00  0.00    +0.000 OA
ATOM      4  O   UNL     1      61.649  67.364  73.107  0.00  0.00    +0.000 OA
ATOM      5  C   UNL     1      62.469  66.776  72.522  0.00  0.00    +0.000 A 
ATOM      6  C   UNL     1      61.821  66.267  72.550  0.00  0.00    +0.000 A 
ATOM      7  C   UNL     1      61.866  65.521  72.201  0.00  0.00    +0.000 A 
ATOM      8  C   UNL     1      62.559  65.284  71.822  0.00  0.00    +0.000 A 
ATOM      9  N   UNL     1      62.443  64.523  71.529  0.00  0.00    +0.000 NA
ATOM     10  C   UNL     1      61.677  64.288  71.725  0.00  0.00    +0.000 A 
ATOM     11  N   UNL     1      61.321  64.906  72.140  0.00  0.00    +0.000 NA
ATOM     12  C   UNL     1      61.328  63.564  71.540  0.00  0.00    +0.000 A 
ATOM     13  C   UNL     1      60.552  63.407  71.774  0.00  0.00    +0.000 A 
ATOM     14  C   UNL     1      60.204  62.682  71.589  0.00  0.00    +0.000 A 
ATOM     15  C   UNL     1      60.631  62.115  71.168  0.00  0.00    +0.000 A 
ATOM     16  C   UNL     1      61.406  62.272  70.933  0.00  0.00    +0.000 A 
ATOM     17  C   UNL     1      61.754  62.996  71.119  0.00  0.00    +0.000 A 
ATOM     18  C   UNL     1      63.209  65.793  71.794  0.00  0.00    +0.000 A 
ATOM     19  C   UNL     1      63.163  66.539  72.144  0.00  0.00    +0.000 A 
ENDROOT
TORSDOF 0
ENDMDL
MODEL 9
REMARK VINA RESULT:    -8.476     24.638     25.320
REMARK INTER + INTRA:          -8.476
REMARK INTER:                  -8.476
REMARK INTRA:                   0.000
REMARK UNBOUND:                 0.000
ROOT
REMARK  Name = ensulizole
REMARK                            x       y       z     vdW  Elec       q    Type
REMARK                         _______ _______ _______ _____ _____    ______ ____
ATOM      1  O   UNL     1      67.230  80.896  52.575  0.00  0.00    +0.000 OA
ATOM      2  S   UNL     1      67.967  80.735  52.239  0.00  0.00    +0.000 S 
ATOM      3  O   UNL     1      68.338  81.113  52.872  0.00  0.00    +0.000 OA
ATOM      4  O   UNL     1      67.596  80.357  51.606  0.00  0.00    +0.000 OA
ATOM      5  C   UNL     1      68.703  80.574  51.904  0.00  0.00    +0.000 A 
ATOM      6  C   UNL     1      68.750  80.167  51.189  0.00  0.00    +0.000 A 
ATOM      7  C   UNL     1      69.486  80.005  50.852  0.00  0.00    +0.000 A 
ATOM      8  C   UNL     1      70.176  80.252  51.233  0.00  0.00    +0.000 A 
ATOM      9  N   UNL     1      70.819  80.017  50.773  0.00  0.00    +0.000 NA
ATOM     10  C   UNL     1      70.527  79.624  50.109  0.00  0.00    +0.000 A 
ATOM     11  N   UNL     1      69.704  79.617  50.159  0.00  0.00    +0.000 NA
ATOM     12  C   UNL     1      70.979  79.296  49.502  0.00  0.00    +0.000 A 
ATOM     13  C   UNL     1      70.608  78.917  48.869  0.00  0.00    +0.000 A 
ATOM     14  C   UNL     1      71.061  78.589  48.262  0.00  0.00    +0.000 A 
ATOM     15  C   UNL     1      71.884  78.639  48.289  0.00  0.00    +0.000 A 
ATOM     16  C   UNL     1      72.255  79.017  48.921  0.00  0.00    +0.000 A 
ATOM     17  C   UNL     1      71.802  79.345  49.527  0.00  0.00    +0.000 A 
ATOM     18  C   UNL     1      70.129  80.661  51.949  0.00  0.00    +0.000 A 
ATOM     19  C   UNL     1      69.392  80.821  52.284  0.00  0.00    +0.000 A 
ENDROOT
TORSDOF 0
ENDMDL
