MODEL 1
REMARK VINA RESULT:   -11.375      0.000      0.000
REMARK INTER + INTRA:         -11.375
REMARK INTER:                 -11.375
REMARK INTRA:                   0.000
REMARK UNBOUND:                 0.000
ROOT
REMARK  Name = epicillin
REMARK                            x       y       z     vdW  Elec       q    Type
REMARK                         _______ _______ _______ _____ _____    ______ ____
ATOM      1  C   UNL     1      59.903  64.087  70.605  0.00  0.00    +0.000 C 
ATOM      2  C   UNL     1      60.608  64.082  70.178  0.00  0.00    +0.000 C 
ATOM      3  C   UNL     1      60.907  64.484  70.833  0.00  0.00    +0.000 C 
ATOM      4  S   UNL     1      60.161  63.681  69.611  0.00  0.00    +0.000 S 
ATOM      5  C   UNL     1      60.653  63.512  68.971  0.00  0.00    +0.000 C 
ATOM      6  CA  UNL     1      60.927  63.239  68.242  0.00  0.00    +0.000 C 
ATOM      7  N   UNL     1      60.590  62.836  67.607  0.00  0.00    +0.000 NA
ATOM      8  C   UNL     1      61.048  62.648  66.947  0.00  0.00    +0.000 C 
ATOM      9  O   UNL     1      61.844  62.865  66.923  0.00  0.00    +0.000 OA
ATOM     10  CA  UNL     1      60.711  62.246  66.311  0.00  0.00    +0.000 C 
ATOM     11  N   UNL     1      59.915  62.029  66.335  0.00  0.00    +0.000 NA
ATOM     12  C   UNL     1      61.170  62.058  65.652  0.00  0.00    +0.000 C 
ATOM     13  C   UNL     1      60.832  61.655  65.016  0.00  0.00    +0.000 C 
ATOM     14  C   UNL     1      61.291  61.468  64.356  0.00  0.00    +0.000 C 
ATOM     15  C   UNL     1      62.087  61.684  64.332  0.00  0.00    +0.000 C 
ATOM     16  C   UNL     1      62.424  62.087  64.967  0.00  0.00    +0.000 C 
ATOM     17  C   UNL     1      61.966  62.274  65.627  0.00  0.00    +0.000 C 
ATOM     18  C   UNL     1      61.678  63.536  68.413  0.00  0.00    +0.000 C 
ATOM     19  O   UNL     1      62.402  63.553  68.018  0.00  0.00    +0.000 OA
ATOM     20  N   UNL     1      61.404  63.809  69.141  0.00  0.00    +0.000 N 
ATOM     21  CA  UNL     1      61.376  64.161  69.887  0.00  0.00    +0.000 C 
ATOM     22  C   UNL     1      62.005  64.528  70.275  0.00  0.00    +0.000 C 
ATOM     23  O   UNL     1      62.746  64.566  69.914  0.00  0.00    +0.000 OA
ATOM     24  OXT UNL     1      61.893  64.857  71.023  0.00  0.00    +0.000 OA
ENDROOT
TORSDOF 0
ENDMDL
MODEL 2
REMARK VINA RESULT:   -11.254      1.605      5.044
REMARK INTER + INTRA:         -11.254
REMARK INTER:                 -11.254
REMARK INTRA:                   0.000
REMARK UNBOUND:                 0.000
ROOT
REMARK  Name = epicillin
REMARK                            x       y       z     vdW  Elec       q    Type
REMARK                         _______ _______ _______ _____ _____    ______ ____
ATOM      1  C   UNL     1      62.373  62.177  64.448  0.00  0.00    +0.000 C 
ATOM      2  C   UNL     1      61.733  62.009  64.941  0.00  0.00    +0.000 C 
ATOM      3  C   UNL     1      61.457  61.581  64.292  0.00  0.00    +0.000 C 
ATOM      4  S   UNL     1      62.143  62.472  65.487  0.00  0.00    +0.000 S 
ATOM      5  C   UNL     1      61.698  62.501  66.182  0.00  0.00    +0.000 C 
ATOM      6  CA  UNL     1      61.453  62.676  66.950  0.00  0.00    +0.000 C 
ATOM      7  N   UNL     1      61.764  63.115  67.575  0.00  0.00    +0.000 NA
ATOM      8  C   UNL     1      61.351  63.169  68.287  0.00  0.00    +0.000 C 
ATOM      9  O   UNL     1      60.626  62.784  68.372  0.00  0.00    +0.000 OA
ATOM     10  CA  UNL     1      61.662  63.607  68.912  0.00  0.00    +0.000 C 
ATOM     11  N   UNL     1      62.386  63.992  68.827  0.00  0.00    +0.000 NA
ATOM     12  C   UNL     1      61.247  63.661  69.624  0.00  0.00    +0.000 C 
ATOM     13  C   UNL     1      61.559  64.100  70.250  0.00  0.00    +0.000 C 
ATOM     14  C   UNL     1      61.145  64.153  70.961  0.00  0.00    +0.000 C 
ATOM     15  C   UNL     1      60.420  63.769  71.048  0.00  0.00    +0.000 C 
ATOM     16  C   UNL     1      60.109  63.331  70.422  0.00  0.00    +0.000 C 
ATOM     17  C   UNL     1      60.522  63.276  69.710  0.00  0.00    +0.000 C 
ATOM     18  C   UNL     1      60.769  62.231  66.833  0.00  0.00    +0.000 C 
ATOM     19  O   UNL     1      60.111  62.040  67.293  0.00  0.00    +0.000 OA
ATOM     20  N   UNL     1      61.014  62.056  66.065  0.00  0.00    +0.000 N 
ATOM     21  CA  UNL     1      61.035  61.752  65.298  0.00  0.00    +0.000 C 
ATOM     22  C   UNL     1      60.459  61.274  64.949  0.00  0.00    +0.000 C 
ATOM     23  O   UNL     1      59.787  61.061  65.376  0.00  0.00    +0.000 OA
ATOM     24  OXT UNL     1      60.557  61.011  64.174  0.00  0.00    +0.000 OA
ENDROOT
TORSDOF 0
ENDMDL
MODEL 3
REMARK VINA RESULT:   -11.132      1.559      2.216
REMARK INTER + INTRA:         -11.132
REMARK INTER:                 -11.132
REMARK INTRA:                   0.000
REMARK UNBOUND:                 0.000
ROOT
REMARK  Name = epicillin
REMARK                            x       y       z     vdW  Elec       q    Type
REMARK                         _______ _______ _______ _____ _____    ______ ____
ATOM      1  C   UNL     1      63.852  64.941  70.441  0.00  0.00    +0.000 C 
ATOM      2  C   UNL     1      63.040  64.794  70.457  0.00  0.00    +0.000 C 
ATOM      3  C   UNL     1      63.076  65.162  71.195  0.00  0.00    +0.000 C 
ATOM      4  S   UNL     1      63.174  64.457  69.716  0.00  0.00    +0.000 S 
ATOM      5  C   UNL     1      62.452  64.178  69.428  0.00  0.00    +0.000 C 
ATOM      6  CA  UNL     1      61.882  63.832  68.943  0.00  0.00    +0.000 C 
ATOM      7  N   UNL     1      61.888  63.471  68.202  0.00  0.00    +0.000 NA
ATOM      8  C   UNL     1      61.187  63.179  67.879  0.00  0.00    +0.000 C 
ATOM      9  O   UNL     1      60.480  63.249  68.298  0.00  0.00    +0.000 OA
ATOM     10  CA  UNL     1      61.194  62.817  67.138  0.00  0.00    +0.000 C 
ATOM     11  N   UNL     1      61.901  62.747  66.719  0.00  0.00    +0.000 NA
ATOM     12  C   UNL     1      60.492  62.526  66.816  0.00  0.00    +0.000 C 
ATOM     13  C   UNL     1      60.499  62.164  66.074  0.00  0.00    +0.000 C 
ATOM     14  C   UNL     1      59.798  61.872  65.751  0.00  0.00    +0.000 C 
ATOM     15  C   UNL     1      59.090  61.943  66.170  0.00  0.00    +0.000 C 
ATOM     16  C   UNL     1      59.084  62.304  66.911  0.00  0.00    +0.000 C 
ATOM     17  C   UNL     1      59.784  62.596  67.234  0.00  0.00    +0.000 C 
ATOM     18  C   UNL     1      61.302  63.998  69.507  0.00  0.00    +0.000 C 
ATOM     19  O   UNL     1      60.489  63.870  69.562  0.00  0.00    +0.000 OA
ATOM     20  N   UNL     1      61.873  64.344  69.992  0.00  0.00    +0.000 N 
ATOM     21  CA  UNL     1      62.236  64.725  70.627  0.00  0.00    +0.000 C 
ATOM     22  C   UNL     1      61.861  64.989  71.313  0.00  0.00    +0.000 C 
ATOM     23  O   UNL     1      61.049  64.880  71.407  0.00  0.00    +0.000 OA
ATOM     24  OXT UNL     1      62.299  65.362  71.905  0.00  0.00    +0.000 OA
ENDROOT
TORSDOF 0
ENDMDL
MODEL 4
REMARK VINA RESULT:   -10.869      2.808      5.293
REMARK INTER + INTRA:         -10.869
REMARK INTER:                 -10.869
REMARK INTRA:                   0.000
REMARK UNBOUND:                 0.000
ROOT
REMARK  Name = epicillin
REMARK                            x       y       z     vdW  Elec       q    Type
REMARK                         _______ _______ _______ _____ _____    ______ ____
ATOM      1  C   UNL     1      60.510  62.875  71.348  0.00  0.00    +0.000 C 
ATOM      2  C   UNL     1      60.967  63.112  70.703  0.00  0.00    +0.000 C 
ATOM      3  C   UNL     1      60.501  62.574  70.286  0.00  0.00    +0.000 C 
ATOM      4  S   UNL     1      61.337  63.601  71.255  0.00  0.00    +0.000 S 
ATOM      5  C   UNL     1      61.926  64.027  70.864  0.00  0.00    +0.000 C 
ATOM      6  CA  UNL     1      62.547  64.548  70.711  0.00  0.00    +0.000 C 
ATOM      7  N   UNL     1      62.990  65.076  71.163  0.00  0.00    +0.000 NA
ATOM      8  C   UNL     1      63.588  65.521  70.811  0.00  0.00    +0.000 C 
ATOM      9  O   UNL     1      63.742  65.438  70.004  0.00  0.00    +0.000 OA
ATOM     10  CA  UNL     1      64.032  66.048  71.263  0.00  0.00    +0.000 C 
ATOM     11  N   UNL     1      63.878  66.131  72.069  0.00  0.00    +0.000 NA
ATOM     12  C   UNL     1      64.630  66.494  70.909  0.00  0.00    +0.000 C 
ATOM     13  C   UNL     1      65.074  67.021  71.363  0.00  0.00    +0.000 C 
ATOM     14  C   UNL     1      65.672  67.466  71.009  0.00  0.00    +0.000 C 
ATOM     15  C   UNL     1      65.826  67.384  70.202  0.00  0.00    +0.000 C 
ATOM     16  C   UNL     1      65.382  66.857  69.750  0.00  0.00    +0.000 C 
ATOM     17  C   UNL     1      64.784  66.411  70.103  0.00  0.00    +0.000 C 
ATOM     18  C   UNL     1      62.540  64.323  69.917  0.00  0.00    +0.000 C 
ATOM     19  O   UNL     1      62.974  64.532  69.247  0.00  0.00    +0.000 OA
ATOM     20  N   UNL     1      61.919  63.802  70.071  0.00  0.00    +0.000 N 
ATOM     21  CA  UNL     1      61.326  63.236  69.971  0.00  0.00    +0.000 C 
ATOM     22  C   UNL     1      61.128  62.861  69.263  0.00  0.00    +0.000 C 
ATOM     23  O   UNL     1      61.538  63.042  68.571  0.00  0.00    +0.000 OA
ATOM     24  OXT UNL     1      60.519  62.304  69.249  0.00  0.00    +0.000 OA
ENDROOT
TORSDOF 0
ENDMDL
MODEL 5
REMARK VINA RESULT:   -10.771      1.335      4.811
REMARK INTER + INTRA:         -10.771
REMARK INTER:                 -10.771
REMARK INTRA:                   0.000
REMARK UNBOUND:                 0.000
ROOT
REMARK  Name = epicillin
REMARK                            x       y       z     vdW  Elec       q    Type
REMARK                         _______ _______ _______ _____ _____    ______ ____
ATOM      1  C   UNL     1      59.399  61.991  66.331  0.00  0.00    +0.000 C 
ATOM      2  C   UNL     1      60.114  62.310  66.591  0.00  0.00    +0.000 C 
ATOM      3  C   UNL     1      60.337  62.231  65.801  0.00  0.00    +0.000 C 
ATOM      4  S   UNL     1      59.741  62.322  67.328  0.00  0.00    +0.000 S 
ATOM      5  C   UNL     1      60.273  62.632  67.878  0.00  0.00    +0.000 C 
ATOM      6  CA  UNL     1      60.604  62.900  68.584  0.00  0.00    +0.000 C 
ATOM      7  N   UNL     1      60.343  62.962  69.364  0.00  0.00    +0.000 NA
ATOM      8  C   UNL     1      60.843  63.267  69.944  0.00  0.00    +0.000 C 
ATOM      9  O   UNL     1      61.606  63.509  69.744  0.00  0.00    +0.000 OA
ATOM     10  CA  UNL     1      60.582  63.329  70.724  0.00  0.00    +0.000 C 
ATOM     11  N   UNL     1      59.819  63.087  70.924  0.00  0.00    +0.000 NA
ATOM     12  C   UNL     1      61.084  63.634  71.304  0.00  0.00    +0.000 C 
ATOM     13  C   UNL     1      60.821  63.696  72.084  0.00  0.00    +0.000 C 
ATOM     14  C   UNL     1      61.323  64.001  72.663  0.00  0.00    +0.000 C 
ATOM     15  C   UNL     1      62.086  64.244  72.464  0.00  0.00    +0.000 C 
ATOM     16  C   UNL     1      62.348  64.182  71.684  0.00  0.00    +0.000 C 
ATOM     17  C   UNL     1      61.847  63.877  71.104  0.00  0.00    +0.000 C 
ATOM     18  C   UNL     1      61.305  63.079  68.188  0.00  0.00    +0.000 C 
ATOM     19  O   UNL     1      62.035  63.395  68.407  0.00  0.00    +0.000 OA
ATOM     20  N   UNL     1      60.974  62.812  67.481  0.00  0.00    +0.000 N 
ATOM     21  CA  UNL     1      60.875  62.613  66.686  0.00  0.00    +0.000 C 
ATOM     22  C   UNL     1      61.440  62.701  66.091  0.00  0.00    +0.000 C 
ATOM     23  O   UNL     1      62.182  63.013  66.269  0.00  0.00    +0.000 OA
ATOM     24  OXT UNL     1      61.261  62.476  65.317  0.00  0.00    +0.000 OA
ENDROOT
TORSDOF 0
ENDMDL
MODEL 6
REMARK VINA RESULT:   -10.703      3.632      4.904
REMARK INTER + INTRA:         -10.703
REMARK INTER:                 -10.703
REMARK INTRA:                   0.000
REMARK UNBOUND:                 0.000
ROOT
REMARK  Name = epicillin
REMARK                            x       y       z     vdW  Elec       q    Type
REMARK                         _______ _______ _______ _____ _____    ______ ____
ATOM      1  C   UNL     1      64.966  67.066  71.924  0.00  0.00    +0.000 C 
ATOM      2  C   UNL     1      64.756  66.641  71.249  0.00  0.00    +0.000 C 
ATOM      3  C   UNL     1      65.323  67.113  70.881  0.00  0.00    +0.000 C 
ATOM      4  S   UNL     1      64.232  66.258  71.760  0.00  0.00    +0.000 S 
ATOM      5  C   UNL     1      63.816  65.695  71.323  0.00  0.00    +0.000 C 
ATOM      6  CA  UNL     1      63.293  65.091  71.117  0.00  0.00    +0.000 C 
ATOM      7  N   UNL     1      62.735  64.640  71.522  0.00  0.00    +0.000 NA
ATOM      8  C   UNL     1      62.298  64.066  71.122  0.00  0.00    +0.000 C 
ATOM      9  O   UNL     1      62.421  63.944  70.315  0.00  0.00    +0.000 OA
ATOM     10  CA  UNL     1      61.740  63.615  71.527  0.00  0.00    +0.000 C 
ATOM     11  N   UNL     1      61.617  63.737  72.334  0.00  0.00    +0.000 NA
ATOM     12  C   UNL     1      61.303  63.041  71.126  0.00  0.00    +0.000 C 
ATOM     13  C   UNL     1      60.745  62.589  71.532  0.00  0.00    +0.000 C 
ATOM     14  C   UNL     1      60.308  62.015  71.131  0.00  0.00    +0.000 C 
ATOM     15  C   UNL     1      60.430  61.893  70.324  0.00  0.00    +0.000 C 
ATOM     16  C   UNL     1      60.989  62.344  69.918  0.00  0.00    +0.000 C 
ATOM     17  C   UNL     1      61.425  62.918  70.319  0.00  0.00    +0.000 C 
ATOM     18  C   UNL     1      63.560  65.126  70.337  0.00  0.00    +0.000 C 
ATOM     19  O   UNL     1      63.379  64.725  69.639  0.00  0.00    +0.000 OA
ATOM     20  N   UNL     1      64.083  65.730  70.543  0.00  0.00    +0.000 N 
ATOM     21  CA  UNL     1      64.664  66.315  70.498  0.00  0.00    +0.000 C 
ATOM     22  C   UNL     1      65.079  66.535  69.819  0.00  0.00    +0.000 C 
ATOM     23  O   UNL     1      64.927  66.157  69.102  0.00  0.00    +0.000 OA
ATOM     24  OXT UNL     1      65.646  67.133  69.859  0.00  0.00    +0.000 OA
ENDROOT
TORSDOF 0
ENDMDL
MODEL 7
REMARK VINA RESULT:   -10.668      1.838      2.584
REMARK INTER + INTRA:         -10.668
REMARK INTER:                 -10.668
REMARK INTRA:                   0.000
REMARK UNBOUND:                 0.000
ROOT
REMARK  Name = epicillin
REMARK                            x       y       z     vdW  Elec       q    Type
REMARK                         _______ _______ _______ _____ _____    ______ ____
ATOM      1  C   UNL     1      59.411  65.053  72.465  0.00  0.00    +0.000 C 
ATOM      2  C   UNL     1      59.499  65.338  71.696  0.00  0.00    +0.000 C 
ATOM      3  C   UNL     1      59.273  66.058  72.029  0.00  0.00    +0.000 C 
ATOM      4  S   UNL     1      59.707  64.557  71.523  0.00  0.00    +0.000 S 
ATOM      5  C   UNL     1      59.876  64.511  70.717  0.00  0.00    +0.000 C 
ATOM      6  CA  UNL     1      60.087  64.218  69.975  0.00  0.00    +0.000 C 
ATOM      7  N   UNL     1      60.309  63.481  69.681  0.00  0.00    +0.000 NA
ATOM      8  C   UNL     1      60.487  63.392  68.880  0.00  0.00    +0.000 C 
ATOM      9  O   UNL     1      60.442  64.042  68.374  0.00  0.00    +0.000 OA
ATOM     10  CA  UNL     1      60.709  62.655  68.586  0.00  0.00    +0.000 C 
ATOM     11  N   UNL     1      60.754  62.005  69.092  0.00  0.00    +0.000 NA
ATOM     12  C   UNL     1      60.887  62.567  67.785  0.00  0.00    +0.000 C 
ATOM     13  C   UNL     1      61.109  61.828  67.491  0.00  0.00    +0.000 C 
ATOM     14  C   UNL     1      61.286  61.740  66.690  0.00  0.00    +0.000 C 
ATOM     15  C   UNL     1      61.242  62.390  66.183  0.00  0.00    +0.000 C 
ATOM     16  C   UNL     1      61.020  63.127  66.477  0.00  0.00    +0.000 C 
ATOM     17  C   UNL     1      60.842  63.216  67.278  0.00  0.00    +0.000 C 
ATOM     18  C   UNL     1      59.984  64.969  69.649  0.00  0.00    +0.000 C 
ATOM     19  O   UNL     1      60.061  65.294  68.895  0.00  0.00    +0.000 OA
ATOM     20  N   UNL     1      59.773  65.262  70.391  0.00  0.00    +0.000 N 
ATOM     21  CA  UNL     1      59.540  65.773  70.996  0.00  0.00    +0.000 C 
ATOM     22  C   UNL     1      59.377  66.578  70.916  0.00  0.00    +0.000 C 
ATOM     23  O   UNL     1      59.442  66.940  70.178  0.00  0.00    +0.000 OA
ATOM     24  OXT UNL     1      59.149  67.020  71.574  0.00  0.00    +0.000 OA
ENDROOT
TORSDOF 0
ENDMDL
MODEL 8
REMARK VINA RESULT:   -10.012      1.815      5.249
REMARK INTER + INTRA:         -10.012
REMARK INTER:                 -10.012
REMARK INTRA:                   0.000
REMARK UNBOUND:                 0.000
ROOT
REMARK  Name = epicillin
REMARK                            x       y       z     vdW  Elec       q    Type
REMARK                         _______ _______ _______ _____ _____    ______ ____
ATOM      1  C   UNL     1      60.218  61.659  68.940  0.00  0.00    +0.000 C 
ATOM      2  C   UNL     1      60.725  62.274  68.727  0.00  0.00    +0.000 C 
ATOM      3  C   UNL     1      60.665  61.946  67.972  0.00  0.00    +0.000 C 
ATOM      4  S   UNL     1      60.678  62.473  69.527  0.00  0.00    +0.000 S 
ATOM      5  C   UNL     1      61.144  63.143  69.650  0.00  0.00    +0.000 C 
ATOM      6  CA  UNL     1      61.526  63.777  70.015  0.00  0.00    +0.000 C 
ATOM      7  N   UNL     1      61.559  64.074  70.783  0.00  0.00    +0.000 NA
ATOM      8  C   UNL     1      62.013  64.742  70.949  0.00  0.00    +0.000 C 
ATOM      9  O   UNL     1      62.435  65.113  70.345  0.00  0.00    +0.000 OA
ATOM     10  CA  UNL     1      62.047  65.038  71.718  0.00  0.00    +0.000 C 
ATOM     11  N   UNL     1      61.625  64.667  72.322  0.00  0.00    +0.000 NA
ATOM     12  C   UNL     1      62.502  65.707  71.882  0.00  0.00    +0.000 C 
ATOM     13  C   UNL     1      62.534  66.003  72.652  0.00  0.00    +0.000 C 
ATOM     14  C   UNL     1      62.989  66.671  72.817  0.00  0.00    +0.000 C 
ATOM     15  C   UNL     1      63.411  67.043  72.213  0.00  0.00    +0.000 C 
ATOM     16  C   UNL     1      63.378  66.747  71.444  0.00  0.00    +0.000 C 
ATOM     17  C   UNL     1      62.923  66.079  71.278  0.00  0.00    +0.000 C 
ATOM     18  C   UNL     1      61.860  63.992  69.292  0.00  0.00    +0.000 C 
ATOM     19  O   UNL     1      62.366  64.592  69.038  0.00  0.00    +0.000 OA
ATOM     20  N   UNL     1      61.479  63.358  68.927  0.00  0.00    +0.000 N 
ATOM     21  CA  UNL     1      61.219  62.820  68.357  0.00  0.00    +0.000 C 
ATOM     22  C   UNL     1      61.419  62.829  67.556  0.00  0.00    +0.000 C 
ATOM     23  O   UNL     1      61.923  63.413  67.263  0.00  0.00    +0.000 OA
ATOM     24  OXT UNL     1      61.116  62.253  67.049  0.00  0.00    +0.000 OA
ENDROOT
TORSDOF 0
ENDMDL
MODEL 9
REMARK VINA RESULT:    -9.945      5.323      6.043
REMARK INTER + INTRA:          -9.945
REMARK INTER:                  -9.945
REMARK INTRA:                   0.000
REMARK UNBOUND:                 0.000
ROOT
REMARK  Name = epicillin
REMARK                            x       y       z     vdW  Elec       q    Type
REMARK                         _______ _______ _______ _____ _____    ______ ____
ATOM      1  C   UNL     1      59.029  64.630  72.158  0.00  0.00    +0.000 C 
ATOM      2  C   UNL     1      59.421  65.328  72.353  0.00  0.00    +0.000 C 
ATOM      3  C   UNL     1      58.689  65.552  72.660  0.00  0.00    +0.000 C 
ATOM      4  S   UNL     1      60.072  64.959  72.005  0.00  0.00    +0.000 S 
ATOM      5  C   UNL     1      60.713  65.476  72.049  0.00  0.00    +0.000 C 
ATOM      6  CA  UNL     1      61.470  65.796  71.974  0.00  0.00    +0.000 C 
ATOM      7  N   UNL     1      62.184  65.535  71.655  0.00  0.00    +0.000 NA
ATOM      8  C   UNL     1      62.849  66.022  71.679  0.00  0.00    +0.000 C 
ATOM      9  O   UNL     1      62.799  66.771  72.023  0.00  0.00    +0.000 OA
ATOM     10  CA  UNL     1      63.564  65.761  71.361  0.00  0.00    +0.000 C 
ATOM     11  N   UNL     1      63.614  65.013  71.017  0.00  0.00    +0.000 NA
ATOM     12  C   UNL     1      64.229  66.249  71.385  0.00  0.00    +0.000 C 
ATOM     13  C   UNL     1      64.943  65.988  71.066  0.00  0.00    +0.000 C 
ATOM     14  C   UNL     1      65.608  66.476  71.091  0.00  0.00    +0.000 C 
ATOM     15  C   UNL     1      65.559  67.224  71.434  0.00  0.00    +0.000 C 
ATOM     16  C   UNL     1      64.845  67.485  71.753  0.00  0.00    +0.000 C 
ATOM     17  C   UNL     1      64.179  66.998  71.728  0.00  0.00    +0.000 C 
ATOM     18  C   UNL     1      61.216  66.485  72.349  0.00  0.00    +0.000 C 
ATOM     19  O   UNL     1      61.570  67.199  72.562  0.00  0.00    +0.000 OA
ATOM     20  N   UNL     1      60.459  66.165  72.425  0.00  0.00    +0.000 N 
ATOM     21  CA  UNL     1      59.660  66.074  72.612  0.00  0.00    +0.000 C 
ATOM     22  C   UNL     1      59.185  66.631  72.993  0.00  0.00    +0.000 C 
ATOM     23  O   UNL     1      59.502  67.357  73.222  0.00  0.00    +0.000 OA
ATOM     24  OXT UNL     1      58.392  66.460  73.145  0.00  0.00    +0.000 OA
ENDROOT
TORSDOF 0
ENDMDL
