MODEL 1
REMARK VINA RESULT:   -12.403      0.000      0.000
REMARK INTER + INTRA:         -12.403
REMARK INTER:                 -12.403
REMARK INTRA:                   0.000
REMARK UNBOUND:                 0.000
ROOT
REMARK  Name = epoprostenol
REMARK                            x       y       z     vdW  Elec       q    Type
REMARK                         _______ _______ _______ _____ _____    ______ ____
ATOM      1  C   UNL     1      58.652  66.675  73.222  0.00  0.00    +0.000 C 
ATOM      2  C   UNL     1      58.938  66.588  72.454  0.00  0.00    +0.000 C 
ATOM      3  C   UNL     1      59.110  65.837  72.161  0.00  0.00    +0.000 C 
ATOM      4  C   UNL     1      59.396  65.749  71.392  0.00  0.00    +0.000 C 
ATOM      5  C   UNL     1      59.568  64.998  71.099  0.00  0.00    +0.000 C 
ATOM      6  C   UNL     1      59.854  64.910  70.329  0.00  0.00    +0.000 C 
ATOM      7  O   UNL     1      59.967  65.574  69.854  0.00  0.00    +0.000 OA
ATOM      8  C   UNL     1      60.026  64.159  70.036  0.00  0.00    +0.000 C 
ATOM      9  C   UNL     1      60.312  64.071  69.267  0.00  0.00    +0.000 C 
ATOM     10  C   UNL     1      60.485  63.320  68.974  0.00  0.00    +0.000 C 
ATOM     11  C   UNL     1      60.400  62.608  69.384  0.00  0.00    +0.000 C 
ATOM     12  O   UNL     1      60.128  62.524  70.158  0.00  0.00    +0.000 OA
ATOM     13  C   UNL     1      60.635  61.996  68.882  0.00  0.00    +0.000 C 
ATOM     14  C   UNL     1      60.865  62.329  68.164  0.00  0.00    +0.000 C 
ATOM     15  O   UNL     1      61.153  62.157  67.409  0.00  0.00    +0.000 OA
ATOM     16  C   UNL     1      61.237  62.869  67.001  0.00  0.00    +0.000 C 
ATOM     17  C   UNL     1      61.002  63.481  67.502  0.00  0.00    +0.000 C 
ATOM     18  C   UNL     1      60.772  63.148  68.220  0.00  0.00    +0.000 C 
ATOM     19  C   UNL     1      61.510  62.954  66.226  0.00  0.00    +0.000 C 
ATOM     20  C   UNL     1      61.726  62.287  65.790  0.00  0.00    +0.000 C 
ATOM     21  C   UNL     1      61.998  62.373  65.016  0.00  0.00    +0.000 C 
ATOM     22  C   UNL     1      62.215  61.706  64.579  0.00  0.00    +0.000 C 
ATOM     23  C   UNL     1      62.487  61.791  63.805  0.00  0.00    +0.000 C 
ATOM     24  O   UNL     1      62.704  61.126  63.369  0.00  0.00    +0.000 OA
ATOM     25  O   UNL     1      62.543  62.542  63.467  0.00  0.00    +0.000 OA
ENDROOT
TORSDOF 0
ENDMDL
MODEL 2
REMARK VINA RESULT:   -12.369      1.157      6.653
REMARK INTER + INTRA:         -12.369
REMARK INTER:                 -12.369
REMARK INTRA:                   0.000
REMARK UNBOUND:                 0.000
ROOT
REMARK  Name = epoprostenol
REMARK                            x       y       z     vdW  Elec       q    Type
REMARK                         _______ _______ _______ _____ _____    ______ ____
ATOM      1  C   UNL     1      62.418  61.146  63.296  0.00  0.00    +0.000 C 
ATOM      2  C   UNL     1      62.173  61.769  63.777  0.00  0.00    +0.000 C 
ATOM      3  C   UNL     1      61.990  61.631  64.569  0.00  0.00    +0.000 C 
ATOM      4  C   UNL     1      61.744  62.254  65.051  0.00  0.00    +0.000 C 
ATOM      5  C   UNL     1      61.561  62.116  65.843  0.00  0.00    +0.000 C 
ATOM      6  C   UNL     1      61.316  62.739  66.325  0.00  0.00    +0.000 C 
ATOM      7  O   UNL     1      61.254  63.501  66.014  0.00  0.00    +0.000 OA
ATOM      8  C   UNL     1      61.133  62.601  67.117  0.00  0.00    +0.000 C 
ATOM      9  C   UNL     1      60.888  63.225  67.599  0.00  0.00    +0.000 C 
ATOM     10  C   UNL     1      60.705  63.087  68.391  0.00  0.00    +0.000 C 
ATOM     11  C   UNL     1      60.741  62.358  68.777  0.00  0.00    +0.000 C 
ATOM     12  O   UNL     1      60.966  61.640  68.439  0.00  0.00    +0.000 OA
ATOM     13  C   UNL     1      60.511  62.475  69.562  0.00  0.00    +0.000 C 
ATOM     14  C   UNL     1      60.334  63.274  69.660  0.00  0.00    +0.000 C 
ATOM     15  O   UNL     1      60.083  63.840  70.206  0.00  0.00    +0.000 OA
ATOM     16  C   UNL     1      60.047  64.568  69.819  0.00  0.00    +0.000 C 
ATOM     17  C   UNL     1      60.276  64.452  69.035  0.00  0.00    +0.000 C 
ATOM     18  C   UNL     1      60.454  63.653  68.936  0.00  0.00    +0.000 C 
ATOM     19  C   UNL     1      59.822  65.286  70.157  0.00  0.00    +0.000 C 
ATOM     20  C   UNL     1      59.606  65.317  70.953  0.00  0.00    +0.000 C 
ATOM     21  C   UNL     1      59.381  66.035  71.291  0.00  0.00    +0.000 C 
ATOM     22  C   UNL     1      59.165  66.066  72.087  0.00  0.00    +0.000 C 
ATOM     23  C   UNL     1      58.940  66.784  72.426  0.00  0.00    +0.000 C 
ATOM     24  O   UNL     1      58.724  66.815  73.221  0.00  0.00    +0.000 OA
ATOM     25  O   UNL     1      58.930  67.471  71.968  0.00  0.00    +0.000 OA
ENDROOT
TORSDOF 0
ENDMDL
MODEL 3
REMARK VINA RESULT:   -11.984      1.777      1.939
REMARK INTER + INTRA:         -11.984
REMARK INTER:                 -11.984
REMARK INTRA:                   0.000
REMARK UNBOUND:                 0.000
ROOT
REMARK  Name = epoprostenol
REMARK                            x       y       z     vdW  Elec       q    Type
REMARK                         _______ _______ _______ _____ _____    ______ ____
ATOM      1  C   UNL     1      62.753  66.537  73.037  0.00  0.00    +0.000 C 
ATOM      2  C   UNL     1      62.880  66.271  72.267  0.00  0.00    +0.000 C 
ATOM      3  C   UNL     1      62.365  65.724  71.928  0.00  0.00    +0.000 C 
ATOM      4  C   UNL     1      62.491  65.458  71.158  0.00  0.00    +0.000 C 
ATOM      5  C   UNL     1      61.976  64.911  70.820  0.00  0.00    +0.000 C 
ATOM      6  C   UNL     1      62.102  64.645  70.049  0.00  0.00    +0.000 C 
ATOM      7  O   UNL     1      62.746  64.927  69.616  0.00  0.00    +0.000 OA
ATOM      8  C   UNL     1      61.586  64.098  69.711  0.00  0.00    +0.000 C 
ATOM      9  C   UNL     1      61.713  63.832  68.940  0.00  0.00    +0.000 C 
ATOM     10  C   UNL     1      61.197  63.285  68.602  0.00  0.00    +0.000 C 
ATOM     11  C   UNL     1      60.533  62.956  68.965  0.00  0.00    +0.000 C 
ATOM     12  O   UNL     1      60.270  63.116  69.730  0.00  0.00    +0.000 OA
ATOM     13  C   UNL     1      60.180  62.438  68.428  0.00  0.00    +0.000 C 
ATOM     14  C   UNL     1      60.625  62.447  67.734  0.00  0.00    +0.000 C 
ATOM     15  O   UNL     1      60.682  62.133  66.973  0.00  0.00    +0.000 OA
ATOM     16  C   UNL     1      61.345  62.463  66.610  0.00  0.00    +0.000 C 
ATOM     17  C   UNL     1      61.699  62.981  67.146  0.00  0.00    +0.000 C 
ATOM     18  C   UNL     1      61.254  62.971  67.840  0.00  0.00    +0.000 C 
ATOM     19  C   UNL     1      61.610  62.303  65.845  0.00  0.00    +0.000 C 
ATOM     20  C   UNL     1      61.196  61.769  65.370  0.00  0.00    +0.000 C 
ATOM     21  C   UNL     1      61.461  61.609  64.604  0.00  0.00    +0.000 C 
ATOM     22  C   UNL     1      61.048  61.075  64.129  0.00  0.00    +0.000 C 
ATOM     23  C   UNL     1      61.312  60.915  63.364  0.00  0.00    +0.000 C 
ATOM     24  O   UNL     1      60.900  60.382  62.889  0.00  0.00    +0.000 OA
ATOM     25  O   UNL     1      61.988  61.289  63.074  0.00  0.00    +0.000 OA
ENDROOT
TORSDOF 0
ENDMDL
MODEL 4
REMARK VINA RESULT:   -11.400      3.848      4.391
REMARK INTER + INTRA:         -11.400
REMARK INTER:                 -11.400
REMARK INTRA:                   0.000
REMARK UNBOUND:                 0.000
ROOT
REMARK  Name = epoprostenol
REMARK                            x       y       z     vdW  Elec       q    Type
REMARK                         _______ _______ _______ _____ _____    ______ ____
ATOM      1  C   UNL     1      67.252  67.179  72.581  0.00  0.00    +0.000 C 
ATOM      2  C   UNL     1      66.872  66.856  71.925  0.00  0.00    +0.000 C 
ATOM      3  C   UNL     1      66.131  66.504  72.009  0.00  0.00    +0.000 C 
ATOM      4  C   UNL     1      65.750  66.180  71.353  0.00  0.00    +0.000 C 
ATOM      5  C   UNL     1      65.009  65.829  71.437  0.00  0.00    +0.000 C 
ATOM      6  C   UNL     1      64.628  65.505  70.781  0.00  0.00    +0.000 C 
ATOM      7  O   UNL     1      64.989  65.533  70.040  0.00  0.00    +0.000 OA
ATOM      8  C   UNL     1      63.887  65.154  70.865  0.00  0.00    +0.000 C 
ATOM      9  C   UNL     1      63.506  64.830  70.209  0.00  0.00    +0.000 C 
ATOM     10  C   UNL     1      62.765  64.478  70.293  0.00  0.00    +0.000 C 
ATOM     11  C   UNL     1      62.338  64.410  70.997  0.00  0.00    +0.000 C 
ATOM     12  O   UNL     1      62.578  64.681  71.738  0.00  0.00    +0.000 OA
ATOM     13  C   UNL     1      61.629  64.022  70.827  0.00  0.00    +0.000 C 
ATOM     14  C   UNL     1      61.618  63.852  70.020  0.00  0.00    +0.000 C 
ATOM     15  O   UNL     1      61.173  63.507  69.417  0.00  0.00    +0.000 OA
ATOM     16  C   UNL     1      61.601  63.576  68.715  0.00  0.00    +0.000 C 
ATOM     17  C   UNL     1      62.310  63.963  68.883  0.00  0.00    +0.000 C 
ATOM     18  C   UNL     1      62.321  64.133  69.690  0.00  0.00    +0.000 C 
ATOM     19  C   UNL     1      61.362  63.305  67.973  0.00  0.00    +0.000 C 
ATOM     20  C   UNL     1      60.633  62.925  67.888  0.00  0.00    +0.000 C 
ATOM     21  C   UNL     1      60.394  62.654  67.146  0.00  0.00    +0.000 C 
ATOM     22  C   UNL     1      59.666  62.274  67.061  0.00  0.00    +0.000 C 
ATOM     23  C   UNL     1      59.426  62.003  66.320  0.00  0.00    +0.000 C 
ATOM     24  O   UNL     1      58.699  61.624  66.235  0.00  0.00    +0.000 OA
ATOM     25  O   UNL     1      59.915  62.112  65.664  0.00  0.00    +0.000 OA
ENDROOT
TORSDOF 0
ENDMDL
MODEL 5
REMARK VINA RESULT:   -10.010      4.439      7.096
REMARK INTER + INTRA:         -10.010
REMARK INTER:                 -10.010
REMARK INTRA:                   0.000
REMARK UNBOUND:                 0.000
ROOT
REMARK  Name = epoprostenol
REMARK                            x       y       z     vdW  Elec       q    Type
REMARK                         _______ _______ _______ _____ _____    ______ ____
ATOM      1  C   UNL     1      68.200  67.980  69.633  0.00  0.00    +0.000 C 
ATOM      2  C   UNL     1      67.446  68.046  69.961  0.00  0.00    +0.000 C 
ATOM      3  C   UNL     1      66.930  67.403  69.940  0.00  0.00    +0.000 C 
ATOM      4  C   UNL     1      66.176  67.468  70.268  0.00  0.00    +0.000 C 
ATOM      5  C   UNL     1      65.660  66.826  70.248  0.00  0.00    +0.000 C 
ATOM      6  C   UNL     1      64.905  66.891  70.576  0.00  0.00    +0.000 C 
ATOM      7  O   UNL     1      64.668  67.599  70.925  0.00  0.00    +0.000 OA
ATOM      8  C   UNL     1      64.389  66.248  70.555  0.00  0.00    +0.000 C 
ATOM      9  C   UNL     1      63.635  66.313  70.883  0.00  0.00    +0.000 C 
ATOM     10  C   UNL     1      63.119  65.670  70.863  0.00  0.00    +0.000 C 
ATOM     11  C   UNL     1      63.279  64.930  70.534  0.00  0.00    +0.000 C 
ATOM     12  O   UNL     1      63.983  64.704  70.169  0.00  0.00    +0.000 OA
ATOM     13  C   UNL     1      62.610  64.457  70.636  0.00  0.00    +0.000 C 
ATOM     14  C   UNL     1      62.038  64.904  71.027  0.00  0.00    +0.000 C 
ATOM     15  O   UNL     1      61.271  64.888  71.331  0.00  0.00    +0.000 OA
ATOM     16  C   UNL     1      61.112  65.627  71.659  0.00  0.00    +0.000 C 
ATOM     17  C   UNL     1      61.780  66.101  71.558  0.00  0.00    +0.000 C 
ATOM     18  C   UNL     1      62.352  65.654  71.167  0.00  0.00    +0.000 C 
ATOM     19  C   UNL     1      60.408  65.855  72.025  0.00  0.00    +0.000 C 
ATOM     20  C   UNL     1      59.784  65.317  72.086  0.00  0.00    +0.000 C 
ATOM     21  C   UNL     1      59.079  65.545  72.451  0.00  0.00    +0.000 C 
ATOM     22  C   UNL     1      58.455  65.008  72.512  0.00  0.00    +0.000 C 
ATOM     23  C   UNL     1      57.751  65.235  72.878  0.00  0.00    +0.000 C 
ATOM     24  O   UNL     1      57.128  64.699  72.939  0.00  0.00    +0.000 OA
ATOM     25  O   UNL     1      57.671  65.998  73.182  0.00  0.00    +0.000 OA
ENDROOT
TORSDOF 0
ENDMDL
MODEL 6
REMARK VINA RESULT:    -9.561     14.287     15.651
REMARK INTER + INTRA:          -9.561
REMARK INTER:                  -9.561
REMARK INTRA:                   0.000
REMARK UNBOUND:                 0.000
ROOT
REMARK  Name = epoprostenol
REMARK                            x       y       z     vdW  Elec       q    Type
REMARK                         _______ _______ _______ _____ _____    ______ ____
ATOM      1  C   UNL     1      63.854  58.641  53.463  0.00  0.00    +0.000 C 
ATOM      2  C   UNL     1      63.903  59.398  53.784  0.00  0.00    +0.000 C 
ATOM      3  C   UNL     1      63.418  60.000  53.497  0.00  0.00    +0.000 C 
ATOM      4  C   UNL     1      63.467  60.759  53.818  0.00  0.00    +0.000 C 
ATOM      5  C   UNL     1      62.982  61.361  53.531  0.00  0.00    +0.000 C 
ATOM      6  C   UNL     1      63.030  62.119  53.852  0.00  0.00    +0.000 C 
ATOM      7  O   UNL     1      63.565  62.275  54.461  0.00  0.00    +0.000 OA
ATOM      8  C   UNL     1      62.546  62.721  53.565  0.00  0.00    +0.000 C 
ATOM      9  C   UNL     1      62.594  63.480  53.886  0.00  0.00    +0.000 C 
ATOM     10  C   UNL     1      62.110  64.081  53.598  0.00  0.00    +0.000 C 
ATOM     11  C   UNL     1      61.552  64.008  52.994  0.00  0.00    +0.000 C 
ATOM     12  O   UNL     1      61.382  63.320  52.572  0.00  0.00    +0.000 OA
ATOM     13  C   UNL     1      61.195  64.745  52.887  0.00  0.00    +0.000 C 
ATOM     14  C   UNL     1      61.531  65.272  53.424  0.00  0.00    +0.000 C 
ATOM     15  O   UNL     1      61.519  66.053  53.690  0.00  0.00    +0.000 OA
ATOM     16  C   UNL     1      62.076  66.126  54.293  0.00  0.00    +0.000 C 
ATOM     17  C   UNL     1      62.434  65.390  54.401  0.00  0.00    +0.000 C 
ATOM     18  C   UNL     1      62.097  64.863  53.864  0.00  0.00    +0.000 C 
ATOM     19  C   UNL     1      62.247  66.814  54.716  0.00  0.00    +0.000 C 
ATOM     20  C   UNL     1      61.842  67.513  54.546  0.00  0.00    +0.000 C 
ATOM     21  C   UNL     1      62.013  68.201  54.968  0.00  0.00    +0.000 C 
ATOM     22  C   UNL     1      61.608  68.900  54.799  0.00  0.00    +0.000 C 
ATOM     23  C   UNL     1      61.778  69.588  55.221  0.00  0.00    +0.000 C 
ATOM     24  O   UNL     1      61.374  70.286  55.051  0.00  0.00    +0.000 OA
ATOM     25  O   UNL     1      62.353  69.577  55.812  0.00  0.00    +0.000 OA
ENDROOT
TORSDOF 0
ENDMDL
