MODEL 1
REMARK VINA RESULT:   -13.338      0.000      0.000
REMARK INTER + INTRA:         -13.338
REMARK INTER:                 -13.338
REMARK INTRA:                   0.000
REMARK UNBOUND:                 0.000
ROOT
REMARK  Name = eprozinol
REMARK                            x       y       z     vdW  Elec       q    Type
REMARK                         _______ _______ _______ _____ _____    ______ ____
ATOM      1  C   UNL     1      63.816  64.757  69.435  0.00  0.00    +0.000 C 
ATOM      2  O   UNL     1      63.022  64.533  69.425  0.00  0.00    +0.000 OA
ATOM      3  C   UNL     1      62.530  64.725  70.059  0.00  0.00    +0.000 C 
ATOM      4  C   UNL     1      61.737  64.501  70.049  0.00  0.00    +0.000 C 
ATOM      5  N   UNL     1      61.434  64.085  69.404  0.00  0.00    +0.000 NA
ATOM      6  C   UNL     1      60.640  63.861  69.393  0.00  0.00    +0.000 C 
ATOM      7  C   UNL     1      60.338  63.446  68.748  0.00  0.00    +0.000 C 
ATOM      8  N   UNL     1      60.828  63.254  68.114  0.00  0.00    +0.000 NA
ATOM      9  C   UNL     1      60.525  62.838  67.469  0.00  0.00    +0.000 C 
ATOM     10  C   UNL     1      61.016  62.647  66.835  0.00  0.00    +0.000 C 
ATOM     11  C   UNL     1      60.713  62.231  66.189  0.00  0.00    +0.000 C 
ATOM     12  O   UNL     1      59.920  62.007  66.178  0.00  0.00    +0.000 OA
ATOM     13  C   UNL     1      61.205  62.039  65.555  0.00  0.00    +0.000 A 
ATOM     14  C   UNL     1      60.902  61.623  64.909  0.00  0.00    +0.000 A 
ATOM     15  C   UNL     1      61.394  61.431  64.274  0.00  0.00    +0.000 A 
ATOM     16  C   UNL     1      62.187  61.656  64.285  0.00  0.00    +0.000 A 
ATOM     17  C   UNL     1      62.490  62.071  64.931  0.00  0.00    +0.000 A 
ATOM     18  C   UNL     1      61.999  62.263  65.564  0.00  0.00    +0.000 A 
ATOM     19  C   UNL     1      61.622  63.478  68.125  0.00  0.00    +0.000 C 
ATOM     20  C   UNL     1      61.924  63.893  68.769  0.00  0.00    +0.000 C 
ATOM     21  C   UNL     1      62.833  65.141  70.705  0.00  0.00    +0.000 A 
ATOM     22  C   UNL     1      63.627  65.365  70.715  0.00  0.00    +0.000 A 
ATOM     23  C   UNL     1      63.930  65.780  71.360  0.00  0.00    +0.000 A 
ATOM     24  C   UNL     1      63.439  65.972  71.995  0.00  0.00    +0.000 A 
ATOM     25  C   UNL     1      62.645  65.748  71.984  0.00  0.00    +0.000 A 
ATOM     26  C   UNL     1      62.342  65.332  71.339  0.00  0.00    +0.000 A 
ENDROOT
TORSDOF 0
ENDMDL
MODEL 2
REMARK VINA RESULT:   -13.000      0.863      5.816
REMARK INTER + INTRA:         -13.000
REMARK INTER:                 -13.000
REMARK INTRA:                   0.000
REMARK UNBOUND:                 0.000
ROOT
REMARK  Name = eprozinol
REMARK                            x       y       z     vdW  Elec       q    Type
REMARK                         _______ _______ _______ _____ _____    ______ ____
ATOM      1  C   UNL     1      62.633  62.394  65.352  0.00  0.00    +0.000 C 
ATOM      2  O   UNL     1      62.053  62.399  65.940  0.00  0.00    +0.000 OA
ATOM      3  C   UNL     1      61.328  62.028  65.808  0.00  0.00    +0.000 C 
ATOM      4  C   UNL     1      60.749  62.033  66.395  0.00  0.00    +0.000 C 
ATOM      5  N   UNL     1      60.895  62.409  67.115  0.00  0.00    +0.000 NA
ATOM      6  C   UNL     1      60.316  62.414  67.703  0.00  0.00    +0.000 C 
ATOM      7  C   UNL     1      60.462  62.789  68.422  0.00  0.00    +0.000 C 
ATOM      8  N   UNL     1      61.187  63.160  68.555  0.00  0.00    +0.000 NA
ATOM      9  C   UNL     1      61.333  63.535  69.274  0.00  0.00    +0.000 C 
ATOM     10  C   UNL     1      62.057  63.906  69.406  0.00  0.00    +0.000 C 
ATOM     11  C   UNL     1      62.204  64.282  70.127  0.00  0.00    +0.000 C 
ATOM     12  O   UNL     1      61.625  64.287  70.714  0.00  0.00    +0.000 OA
ATOM     13  C   UNL     1      62.929  64.653  70.259  0.00  0.00    +0.000 A 
ATOM     14  C   UNL     1      63.075  65.028  70.979  0.00  0.00    +0.000 A 
ATOM     15  C   UNL     1      63.801  65.399  71.111  0.00  0.00    +0.000 A 
ATOM     16  C   UNL     1      64.379  65.394  70.523  0.00  0.00    +0.000 A 
ATOM     17  C   UNL     1      64.233  65.019  69.803  0.00  0.00    +0.000 A 
ATOM     18  C   UNL     1      63.509  64.648  69.671  0.00  0.00    +0.000 A 
ATOM     19  C   UNL     1      61.765  63.155  67.967  0.00  0.00    +0.000 C 
ATOM     20  C   UNL     1      61.620  62.780  67.248  0.00  0.00    +0.000 C 
ATOM     21  C   UNL     1      61.181  61.652  65.087  0.00  0.00    +0.000 A 
ATOM     22  C   UNL     1      61.761  61.648  64.500  0.00  0.00    +0.000 A 
ATOM     23  C   UNL     1      61.615  61.272  63.780  0.00  0.00    +0.000 A 
ATOM     24  C   UNL     1      60.889  60.901  63.647  0.00  0.00    +0.000 A 
ATOM     25  C   UNL     1      60.311  60.906  64.235  0.00  0.00    +0.000 A 
ATOM     26  C   UNL     1      60.457  61.282  64.955  0.00  0.00    +0.000 A 
ENDROOT
TORSDOF 0
ENDMDL
MODEL 3
REMARK VINA RESULT:   -12.673      1.287      5.703
REMARK INTER + INTRA:         -12.673
REMARK INTER:                 -12.673
REMARK INTRA:                   0.000
REMARK UNBOUND:                 0.000
ROOT
REMARK  Name = eprozinol
REMARK                            x       y       z     vdW  Elec       q    Type
REMARK                         _______ _______ _______ _____ _____    ______ ____
ATOM      1  C   UNL     1      61.797  63.037  66.664  0.00  0.00    +0.000 C 
ATOM      2  O   UNL     1      61.391  63.316  67.326  0.00  0.00    +0.000 OA
ATOM      3  C   UNL     1      60.597  63.119  67.438  0.00  0.00    +0.000 C 
ATOM      4  C   UNL     1      60.192  63.397  68.099  0.00  0.00    +0.000 C 
ATOM      5  N   UNL     1      60.579  63.874  68.650  0.00  0.00    +0.000 NA
ATOM      6  C   UNL     1      60.174  64.153  69.312  0.00  0.00    +0.000 C 
ATOM      7  C   UNL     1      60.561  64.629  69.863  0.00  0.00    +0.000 C 
ATOM      8  N   UNL     1      61.354  64.826  69.752  0.00  0.00    +0.000 NA
ATOM      9  C   UNL     1      61.742  65.303  70.303  0.00  0.00    +0.000 C 
ATOM     10  C   UNL     1      62.535  65.500  70.192  0.00  0.00    +0.000 C 
ATOM     11  C   UNL     1      62.923  65.977  70.743  0.00  0.00    +0.000 C 
ATOM     12  O   UNL     1      62.517  66.256  71.405  0.00  0.00    +0.000 OA
ATOM     13  C   UNL     1      63.716  66.174  70.631  0.00  0.00    +0.000 A 
ATOM     14  C   UNL     1      64.104  66.651  71.182  0.00  0.00    +0.000 A 
ATOM     15  C   UNL     1      64.897  66.849  71.071  0.00  0.00    +0.000 A 
ATOM     16  C   UNL     1      65.303  66.569  70.409  0.00  0.00    +0.000 A 
ATOM     17  C   UNL     1      64.915  66.093  69.858  0.00  0.00    +0.000 A 
ATOM     18  C   UNL     1      64.122  65.896  69.969  0.00  0.00    +0.000 A 
ATOM     19  C   UNL     1      61.759  64.547  69.090  0.00  0.00    +0.000 C 
ATOM     20  C   UNL     1      61.372  64.072  68.540  0.00  0.00    +0.000 C 
ATOM     21  C   UNL     1      60.209  62.642  66.886  0.00  0.00    +0.000 A 
ATOM     22  C   UNL     1      60.616  62.363  66.224  0.00  0.00    +0.000 A 
ATOM     23  C   UNL     1      60.228  61.887  65.673  0.00  0.00    +0.000 A 
ATOM     24  C   UNL     1      59.434  61.689  65.785  0.00  0.00    +0.000 A 
ATOM     25  C   UNL     1      59.029  61.968  66.447  0.00  0.00    +0.000 A 
ATOM     26  C   UNL     1      59.417  62.444  66.998  0.00  0.00    +0.000 A 
ENDROOT
TORSDOF 0
ENDMDL
MODEL 4
REMARK VINA RESULT:   -12.240      1.727      6.057
REMARK INTER + INTRA:         -12.240
REMARK INTER:                 -12.240
REMARK INTRA:                   0.000
REMARK UNBOUND:                 0.000
ROOT
REMARK  Name = eprozinol
REMARK                            x       y       z     vdW  Elec       q    Type
REMARK                         _______ _______ _______ _____ _____    ______ ____
ATOM      1  C   UNL     1      59.562  62.387  67.222  0.00  0.00    +0.000 C 
ATOM      2  O   UNL     1      60.242  62.748  67.519  0.00  0.00    +0.000 OA
ATOM      3  C   UNL     1      60.943  62.732  67.082  0.00  0.00    +0.000 C 
ATOM      4  C   UNL     1      61.622  63.094  67.378  0.00  0.00    +0.000 C 
ATOM      5  N   UNL     1      61.602  63.471  68.112  0.00  0.00    +0.000 NA
ATOM      6  C   UNL     1      62.281  63.832  68.409  0.00  0.00    +0.000 C 
ATOM      7  C   UNL     1      62.261  64.209  69.141  0.00  0.00    +0.000 C 
ATOM      8  N   UNL     1      61.562  64.226  69.578  0.00  0.00    +0.000 NA
ATOM      9  C   UNL     1      61.542  64.603  70.312  0.00  0.00    +0.000 C 
ATOM     10  C   UNL     1      60.842  64.619  70.748  0.00  0.00    +0.000 C 
ATOM     11  C   UNL     1      60.822  64.996  71.482  0.00  0.00    +0.000 C 
ATOM     12  O   UNL     1      61.502  65.358  71.779  0.00  0.00    +0.000 OA
ATOM     13  C   UNL     1      60.122  65.012  71.919  0.00  0.00    +0.000 A 
ATOM     14  C   UNL     1      60.102  65.389  72.652  0.00  0.00    +0.000 A 
ATOM     15  C   UNL     1      59.402  65.405  73.089  0.00  0.00    +0.000 A 
ATOM     16  C   UNL     1      58.723  65.044  72.792  0.00  0.00    +0.000 A 
ATOM     17  C   UNL     1      58.743  64.666  72.059  0.00  0.00    +0.000 A 
ATOM     18  C   UNL     1      59.442  64.651  71.623  0.00  0.00    +0.000 A 
ATOM     19  C   UNL     1      60.882  63.864  69.281  0.00  0.00    +0.000 C 
ATOM     20  C   UNL     1      60.902  63.487  68.549  0.00  0.00    +0.000 C 
ATOM     21  C   UNL     1      60.963  62.355  66.348  0.00  0.00    +0.000 A 
ATOM     22  C   UNL     1      60.282  61.993  66.052  0.00  0.00    +0.000 A 
ATOM     23  C   UNL     1      60.302  61.616  65.318  0.00  0.00    +0.000 A 
ATOM     24  C   UNL     1      61.003  61.600  64.881  0.00  0.00    +0.000 A 
ATOM     25  C   UNL     1      61.682  61.961  65.178  0.00  0.00    +0.000 A 
ATOM     26  C   UNL     1      61.662  62.339  65.912  0.00  0.00    +0.000 A 
ENDROOT
TORSDOF 0
ENDMDL
MODEL 5
REMARK VINA RESULT:   -11.789      1.495      2.432
REMARK INTER + INTRA:         -11.789
REMARK INTER:                 -11.789
REMARK INTRA:                   0.000
REMARK UNBOUND:                 0.000
ROOT
REMARK  Name = eprozinol
REMARK                            x       y       z     vdW  Elec       q    Type
REMARK                         _______ _______ _______ _____ _____    ______ ____
ATOM      1  C   UNL     1      59.703  65.514  71.165  0.00  0.00    +0.000 C 
ATOM      2  O   UNL     1      60.427  65.321  70.818  0.00  0.00    +0.000 OA
ATOM      3  C   UNL     1      61.131  65.599  71.147  0.00  0.00    +0.000 C 
ATOM      4  C   UNL     1      61.853  65.405  70.801  0.00  0.00    +0.000 C 
ATOM      5  N   UNL     1      61.873  64.934  70.123  0.00  0.00    +0.000 NA
ATOM      6  C   UNL     1      62.595  64.741  69.776  0.00  0.00    +0.000 C 
ATOM      7  C   UNL     1      62.615  64.270  69.100  0.00  0.00    +0.000 C 
ATOM      8  N   UNL     1      61.912  63.992  68.769  0.00  0.00    +0.000 NA
ATOM      9  C   UNL     1      61.932  63.521  68.092  0.00  0.00    +0.000 C 
ATOM     10  C   UNL     1      61.229  63.244  67.763  0.00  0.00    +0.000 C 
ATOM     11  C   UNL     1      61.248  62.772  67.085  0.00  0.00    +0.000 C 
ATOM     12  O   UNL     1      61.971  62.579  66.738  0.00  0.00    +0.000 OA
ATOM     13  C   UNL     1      60.545  62.495  66.756  0.00  0.00    +0.000 A 
ATOM     14  C   UNL     1      60.564  62.024  66.079  0.00  0.00    +0.000 A 
ATOM     15  C   UNL     1      59.860  61.746  65.748  0.00  0.00    +0.000 A 
ATOM     16  C   UNL     1      59.138  61.940  66.096  0.00  0.00    +0.000 A 
ATOM     17  C   UNL     1      59.118  62.411  66.773  0.00  0.00    +0.000 A 
ATOM     18  C   UNL     1      59.821  62.688  67.103  0.00  0.00    +0.000 A 
ATOM     19  C   UNL     1      61.190  64.186  69.117  0.00  0.00    +0.000 C 
ATOM     20  C   UNL     1      61.170  64.656  69.793  0.00  0.00    +0.000 C 
ATOM     21  C   UNL     1      61.111  66.070  71.825  0.00  0.00    +0.000 A 
ATOM     22  C   UNL     1      60.388  66.263  72.172  0.00  0.00    +0.000 A 
ATOM     23  C   UNL     1      60.368  66.734  72.849  0.00  0.00    +0.000 A 
ATOM     24  C   UNL     1      61.072  67.012  73.179  0.00  0.00    +0.000 A 
ATOM     25  C   UNL     1      61.795  66.819  72.832  0.00  0.00    +0.000 A 
ATOM     26  C   UNL     1      61.814  66.348  72.155  0.00  0.00    +0.000 A 
ENDROOT
TORSDOF 0
ENDMDL
MODEL 6
REMARK VINA RESULT:   -11.688      3.050      6.056
REMARK INTER + INTRA:         -11.688
REMARK INTER:                 -11.688
REMARK INTRA:                   0.000
REMARK UNBOUND:                 0.000
ROOT
REMARK  Name = eprozinol
REMARK                            x       y       z     vdW  Elec       q    Type
REMARK                         _______ _______ _______ _____ _____    ______ ____
ATOM      1  C   UNL     1      62.102  63.227  69.553  0.00  0.00    +0.000 C 
ATOM      2  O   UNL     1      62.099  63.652  70.260  0.00  0.00    +0.000 OA
ATOM      3  C   UNL     1      61.569  63.453  70.860  0.00  0.00    +0.000 C 
ATOM      4  C   UNL     1      61.566  63.877  71.567  0.00  0.00    +0.000 C 
ATOM      5  N   UNL     1      62.095  64.502  71.674  0.00  0.00    +0.000 NA
ATOM      6  C   UNL     1      62.093  64.927  72.381  0.00  0.00    +0.000 C 
ATOM      7  C   UNL     1      62.620  65.551  72.488  0.00  0.00    +0.000 C 
ATOM      8  N   UNL     1      63.151  65.751  71.889  0.00  0.00    +0.000 NA
ATOM      9  C   UNL     1      63.679  66.376  71.996  0.00  0.00    +0.000 C 
ATOM     10  C   UNL     1      64.209  66.575  71.397  0.00  0.00    +0.000 C 
ATOM     11  C   UNL     1      64.738  67.200  71.505  0.00  0.00    +0.000 C 
ATOM     12  O   UNL     1      64.735  67.625  72.211  0.00  0.00    +0.000 OA
ATOM     13  C   UNL     1      65.268  67.399  70.905  0.00  0.00    +0.000 A 
ATOM     14  C   UNL     1      65.796  68.024  71.012  0.00  0.00    +0.000 A 
ATOM     15  C   UNL     1      66.327  68.224  70.412  0.00  0.00    +0.000 A 
ATOM     16  C   UNL     1      66.329  67.798  69.705  0.00  0.00    +0.000 A 
ATOM     17  C   UNL     1      65.801  67.174  69.598  0.00  0.00    +0.000 A 
ATOM     18  C   UNL     1      65.271  66.974  70.197  0.00  0.00    +0.000 A 
ATOM     19  C   UNL     1      63.153  65.326  71.182  0.00  0.00    +0.000 C 
ATOM     20  C   UNL     1      62.625  64.702  71.075  0.00  0.00    +0.000 C 
ATOM     21  C   UNL     1      61.040  62.827  70.753  0.00  0.00    +0.000 A 
ATOM     22  C   UNL     1      61.043  62.402  70.045  0.00  0.00    +0.000 A 
ATOM     23  C   UNL     1      60.515  61.778  69.938  0.00  0.00    +0.000 A 
ATOM     24  C   UNL     1      59.984  61.578  70.538  0.00  0.00    +0.000 A 
ATOM     25  C   UNL     1      59.982  62.003  71.245  0.00  0.00    +0.000 A 
ATOM     26  C   UNL     1      60.510  62.628  71.352  0.00  0.00    +0.000 A 
ENDROOT
TORSDOF 0
ENDMDL
MODEL 7
REMARK VINA RESULT:   -11.070      1.582      2.289
REMARK INTER + INTRA:         -11.070
REMARK INTER:                 -11.070
REMARK INTRA:                   0.000
REMARK UNBOUND:                 0.000
ROOT
REMARK  Name = eprozinol
REMARK                            x       y       z     vdW  Elec       q    Type
REMARK                         _______ _______ _______ _____ _____    ______ ____
ATOM      1  C   UNL     1      59.909  62.533  70.514  0.00  0.00    +0.000 C 
ATOM      2  O   UNL     1      60.504  62.922  70.095  0.00  0.00    +0.000 OA
ATOM      3  C   UNL     1      60.977  63.483  70.473  0.00  0.00    +0.000 C 
ATOM      4  C   UNL     1      61.572  63.872  70.055  0.00  0.00    +0.000 C 
ATOM      5  N   UNL     1      61.694  63.700  69.257  0.00  0.00    +0.000 NA
ATOM      6  C   UNL     1      62.288  64.089  68.837  0.00  0.00    +0.000 C 
ATOM      7  C   UNL     1      62.410  63.917  68.040  0.00  0.00    +0.000 C 
ATOM      8  N   UNL     1      61.938  63.357  67.661  0.00  0.00    +0.000 NA
ATOM      9  C   UNL     1      62.060  63.186  66.864  0.00  0.00    +0.000 C 
ATOM     10  C   UNL     1      61.588  62.626  66.486  0.00  0.00    +0.000 C 
ATOM     11  C   UNL     1      61.710  62.454  65.687  0.00  0.00    +0.000 C 
ATOM     12  O   UNL     1      62.304  62.843  65.268  0.00  0.00    +0.000 OA
ATOM     13  C   UNL     1      61.237  61.894  65.309  0.00  0.00    +0.000 A 
ATOM     14  C   UNL     1      61.359  61.722  64.511  0.00  0.00    +0.000 A 
ATOM     15  C   UNL     1      60.886  61.162  64.132  0.00  0.00    +0.000 A 
ATOM     16  C   UNL     1      60.291  60.773  64.552  0.00  0.00    +0.000 A 
ATOM     17  C   UNL     1      60.169  60.945  65.350  0.00  0.00    +0.000 A 
ATOM     18  C   UNL     1      60.642  61.505  65.728  0.00  0.00    +0.000 A 
ATOM     19  C   UNL     1      61.343  62.969  68.081  0.00  0.00    +0.000 C 
ATOM     20  C   UNL     1      61.222  63.140  68.878  0.00  0.00    +0.000 C 
ATOM     21  C   UNL     1      60.855  63.654  71.272  0.00  0.00    +0.000 A 
ATOM     22  C   UNL     1      60.260  63.265  71.691  0.00  0.00    +0.000 A 
ATOM     23  C   UNL     1      60.138  63.436  72.488  0.00  0.00    +0.000 A 
ATOM     24  C   UNL     1      60.611  63.997  72.867  0.00  0.00    +0.000 A 
ATOM     25  C   UNL     1      61.206  64.386  72.448  0.00  0.00    +0.000 A 
ATOM     26  C   UNL     1      61.328  64.214  71.650  0.00  0.00    +0.000 A 
ENDROOT
TORSDOF 0
ENDMDL
