MODEL 1
REMARK VINA RESULT:   -12.117      0.000      0.000
REMARK INTER + INTRA:         -12.117
REMARK INTER:                 -12.117
REMARK INTRA:                   0.000
REMARK UNBOUND:                 0.000
ROOT
REMARK  Name = epsiprantel
REMARK                            x       y       z     vdW  Elec       q    Type
REMARK                         _______ _______ _______ _____ _____    ______ ____
ATOM      1  O   UNL     1      62.354  63.560  67.704  0.00  0.00    +0.000 OA
ATOM      2  C   UNL     1      61.573  63.361  67.882  0.00  0.00    +0.000 C 
ATOM      3  C   UNL     1      61.241  63.597  68.599  0.00  0.00    +0.000 C 
ATOM      4  C   UNL     1      61.689  64.031  69.140  0.00  0.00    +0.000 C 
ATOM      5  C   UNL     1      61.356  64.266  69.856  0.00  0.00    +0.000 C 
ATOM      6  C   UNL     1      60.575  64.068  70.035  0.00  0.00    +0.000 C 
ATOM      7  C   UNL     1      60.127  63.634  69.494  0.00  0.00    +0.000 C 
ATOM      8  C   UNL     1      60.459  63.398  68.778  0.00  0.00    +0.000 C 
ATOM      9  N   UNL     1      61.125  62.927  67.342  0.00  0.00    +0.000 N 
ATOM     10  C   UNL     1      61.457  62.692  66.625  0.00  0.00    +0.000 C 
ATOM     11  C   UNL     1      61.009  62.258  66.086  0.00  0.00    +0.000 C 
ATOM     12  N   UNL     1      60.228  62.059  66.263  0.00  0.00    +0.000 N 
ATOM     13  C   UNL     1      59.689  61.633  65.807  0.00  0.00    +0.000 C 
ATOM     14  C   UNL     1      59.798  61.301  65.059  0.00  0.00    +0.000 C 
ATOM     15  C   UNL     1      60.472  61.312  64.584  0.00  0.00    +0.000 C 
ATOM     16  C   UNL     1      61.205  61.658  64.739  0.00  0.00    +0.000 A 
ATOM     17  C   UNL     1      61.443  62.080  65.407  0.00  0.00    +0.000 A 
ATOM     18  C   UNL     1      62.209  62.383  65.451  0.00  0.00    +0.000 A 
ATOM     19  C   UNL     1      62.736  62.266  64.828  0.00  0.00    +0.000 A 
ATOM     20  C   UNL     1      62.497  61.845  64.159  0.00  0.00    +0.000 A 
ATOM     21  C   UNL     1      61.731  61.541  64.116  0.00  0.00    +0.000 A 
ATOM     22  C   UNL     1      59.896  62.295  66.981  0.00  0.00    +0.000 C 
ATOM     23  O   UNL     1      59.115  62.096  67.158  0.00  0.00    +0.000 OA
ATOM     24  C   UNL     1      60.344  62.729  67.520  0.00  0.00    +0.000 C 
ENDROOT
TORSDOF 0
ENDMDL
MODEL 2
REMARK VINA RESULT:   -11.947      4.180      6.204
REMARK INTER + INTRA:         -11.947
REMARK INTER:                 -11.947
REMARK INTRA:                   0.000
REMARK UNBOUND:                 0.000
ROOT
REMARK  Name = epsiprantel
REMARK                            x       y       z     vdW  Elec       q    Type
REMARK                         _______ _______ _______ _____ _____    ______ ____
ATOM      1  O   UNL     1      63.853  66.464  72.183  0.00  0.00    +0.000 OA
ATOM      2  C   UNL     1      64.032  66.233  71.412  0.00  0.00    +0.000 C 
ATOM      3  C   UNL     1      64.648  66.600  71.004  0.00  0.00    +0.000 C 
ATOM      4  C   UNL     1      65.085  67.199  71.367  0.00  0.00    +0.000 C 
ATOM      5  C   UNL     1      65.700  67.566  70.959  0.00  0.00    +0.000 C 
ATOM      6  C   UNL     1      65.880  67.334  70.187  0.00  0.00    +0.000 C 
ATOM      7  C   UNL     1      65.443  66.736  69.825  0.00  0.00    +0.000 C 
ATOM      8  C   UNL     1      64.828  66.369  70.232  0.00  0.00    +0.000 C 
ATOM      9  N   UNL     1      63.596  65.634  71.049  0.00  0.00    +0.000 N 
ATOM     10  C   UNL     1      62.980  65.267  71.457  0.00  0.00    +0.000 C 
ATOM     11  C   UNL     1      62.544  64.669  71.094  0.00  0.00    +0.000 C 
ATOM     12  N   UNL     1      62.723  64.437  70.323  0.00  0.00    +0.000 N 
ATOM     13  C   UNL     1      62.360  63.857  69.862  0.00  0.00    +0.000 C 
ATOM     14  C   UNL     1      61.727  63.365  70.060  0.00  0.00    +0.000 C 
ATOM     15  C   UNL     1      61.302  63.332  70.766  0.00  0.00    +0.000 C 
ATOM     16  C   UNL     1      61.404  63.782  71.449  0.00  0.00    +0.000 A 
ATOM     17  C   UNL     1      61.957  64.377  71.595  0.00  0.00    +0.000 A 
ATOM     18  C   UNL     1      61.964  64.762  72.325  0.00  0.00    +0.000 A 
ATOM     19  C   UNL     1      61.420  64.553  72.908  0.00  0.00    +0.000 A 
ATOM     20  C   UNL     1      60.867  63.958  72.762  0.00  0.00    +0.000 A 
ATOM     21  C   UNL     1      60.860  63.572  72.032  0.00  0.00    +0.000 A 
ATOM     22  C   UNL     1      63.338  64.804  69.914  0.00  0.00    +0.000 C 
ATOM     23  O   UNL     1      63.517  64.573  69.143  0.00  0.00    +0.000 OA
ATOM     24  C   UNL     1      63.775  65.403  70.278  0.00  0.00    +0.000 C 
ENDROOT
TORSDOF 0
ENDMDL
MODEL 3
REMARK VINA RESULT:   -11.902      1.739      5.269
REMARK INTER + INTRA:         -11.902
REMARK INTER:                 -11.902
REMARK INTRA:                   0.000
REMARK UNBOUND:                 0.000
ROOT
REMARK  Name = epsiprantel
REMARK                            x       y       z     vdW  Elec       q    Type
REMARK                         _______ _______ _______ _____ _____    ______ ____
ATOM      1  O   UNL     1      60.187  61.988  69.192  0.00  0.00    +0.000 OA
ATOM      2  C   UNL     1      60.636  62.545  68.782  0.00  0.00    +0.000 C 
ATOM      3  C   UNL     1      60.607  62.572  67.958  0.00  0.00    +0.000 C 
ATOM      4  C   UNL     1      60.129  62.042  67.544  0.00  0.00    +0.000 C 
ATOM      5  C   UNL     1      60.100  62.068  66.720  0.00  0.00    +0.000 C 
ATOM      6  C   UNL     1      60.549  62.626  66.309  0.00  0.00    +0.000 C 
ATOM      7  C   UNL     1      61.027  63.156  66.723  0.00  0.00    +0.000 C 
ATOM      8  C   UNL     1      61.056  63.129  67.546  0.00  0.00    +0.000 C 
ATOM      9  N   UNL     1      61.114  63.076  69.195  0.00  0.00    +0.000 N 
ATOM     10  C   UNL     1      61.143  63.049  70.019  0.00  0.00    +0.000 C 
ATOM     11  C   UNL     1      61.621  63.579  70.432  0.00  0.00    +0.000 C 
ATOM     12  N   UNL     1      62.070  64.136  70.022  0.00  0.00    +0.000 N 
ATOM     13  C   UNL     1      62.579  64.711  70.324  0.00  0.00    +0.000 C 
ATOM     14  C   UNL     1      62.764  64.870  71.113  0.00  0.00    +0.000 C 
ATOM     15  C   UNL     1      62.487  64.494  71.792  0.00  0.00    +0.000 C 
ATOM     16  C   UNL     1      61.955  63.866  71.853  0.00  0.00    +0.000 A 
ATOM     17  C   UNL     1      61.570  63.459  71.247  0.00  0.00    +0.000 A 
ATOM     18  C   UNL     1      61.055  62.841  71.429  0.00  0.00    +0.000 A 
ATOM     19  C   UNL     1      60.925  62.630  72.215  0.00  0.00    +0.000 A 
ATOM     20  C   UNL     1      61.310  63.037  72.821  0.00  0.00    +0.000 A 
ATOM     21  C   UNL     1      61.825  63.656  72.639  0.00  0.00    +0.000 A 
ATOM     22  C   UNL     1      62.041  64.163  69.198  0.00  0.00    +0.000 C 
ATOM     23  O   UNL     1      62.490  64.720  68.788  0.00  0.00    +0.000 OA
ATOM     24  C   UNL     1      61.563  63.633  68.785  0.00  0.00    +0.000 C 
ENDROOT
TORSDOF 0
ENDMDL
MODEL 4
REMARK VINA RESULT:   -11.880      3.934      5.572
REMARK INTER + INTRA:         -11.880
REMARK INTER:                 -11.880
REMARK INTRA:                   0.000
REMARK UNBOUND:                 0.000
ROOT
REMARK  Name = epsiprantel
REMARK                            x       y       z     vdW  Elec       q    Type
REMARK                         _______ _______ _______ _____ _____    ______ ____
ATOM      1  O   UNL     1      63.403  64.503  69.286  0.00  0.00    +0.000 OA
ATOM      2  C   UNL     1      63.413  64.914  70.001  0.00  0.00    +0.000 C 
ATOM      3  C   UNL     1      63.945  65.536  70.112  0.00  0.00    +0.000 C 
ATOM      4  C   UNL     1      64.466  65.746  69.508  0.00  0.00    +0.000 C 
ATOM      5  C   UNL     1      64.997  66.366  69.618  0.00  0.00    +0.000 C 
ATOM      6  C   UNL     1      65.008  66.778  70.333  0.00  0.00    +0.000 C 
ATOM      7  C   UNL     1      64.486  66.568  70.937  0.00  0.00    +0.000 C 
ATOM      8  C   UNL     1      63.955  65.948  70.827  0.00  0.00    +0.000 C 
ATOM      9  N   UNL     1      62.892  64.705  70.605  0.00  0.00    +0.000 N 
ATOM     10  C   UNL     1      62.360  64.084  70.494  0.00  0.00    +0.000 C 
ATOM     11  C   UNL     1      61.839  63.875  71.099  0.00  0.00    +0.000 C 
ATOM     12  N   UNL     1      61.849  64.286  71.813  0.00  0.00    +0.000 N 
ATOM     13  C   UNL     1      61.381  64.168  72.482  0.00  0.00    +0.000 C 
ATOM     14  C   UNL     1      60.786  63.608  72.600  0.00  0.00    +0.000 C 
ATOM     15  C   UNL     1      60.513  63.030  72.080  0.00  0.00    +0.000 C 
ATOM     16  C   UNL     1      60.767  62.866  71.312  0.00  0.00    +0.000 A 
ATOM     17  C   UNL     1      61.358  63.243  70.876  0.00  0.00    +0.000 A 
ATOM     18  C   UNL     1      61.527  62.990  70.108  0.00  0.00    +0.000 A 
ATOM     19  C   UNL     1      61.106  62.363  69.778  0.00  0.00    +0.000 A 
ATOM     20  C   UNL     1      60.516  61.987  70.215  0.00  0.00    +0.000 A 
ATOM     21  C   UNL     1      60.347  62.239  70.982  0.00  0.00    +0.000 A 
ATOM     22  C   UNL     1      62.381  64.907  71.924  0.00  0.00    +0.000 C 
ATOM     23  O   UNL     1      62.391  65.319  72.639  0.00  0.00    +0.000 OA
ATOM     24  C   UNL     1      62.902  65.116  71.320  0.00  0.00    +0.000 C 
ENDROOT
TORSDOF 0
ENDMDL
MODEL 5
REMARK VINA RESULT:   -11.859      4.835      6.315
REMARK INTER + INTRA:         -11.859
REMARK INTER:                 -11.859
REMARK INTRA:                   0.000
REMARK UNBOUND:                 0.000
ROOT
REMARK  Name = epsiprantel
REMARK                            x       y       z     vdW  Elec       q    Type
REMARK                         _______ _______ _______ _____ _____    ______ ____
ATOM      1  O   UNL     1      62.264  65.300  72.699  0.00  0.00    +0.000 OA
ATOM      2  C   UNL     1      62.248  64.816  72.031  0.00  0.00    +0.000 C 
ATOM      3  C   UNL     1      61.705  64.197  71.982  0.00  0.00    +0.000 C 
ATOM      4  C   UNL     1      61.177  64.061  72.602  0.00  0.00    +0.000 C 
ATOM      5  C   UNL     1      60.635  63.443  72.553  0.00  0.00    +0.000 C 
ATOM      6  C   UNL     1      60.619  62.959  71.885  0.00  0.00    +0.000 C 
ATOM      7  C   UNL     1      61.147  63.095  71.265  0.00  0.00    +0.000 C 
ATOM      8  C   UNL     1      61.689  63.713  71.314  0.00  0.00    +0.000 C 
ATOM      9  N   UNL     1      62.776  64.952  71.411  0.00  0.00    +0.000 N 
ATOM     10  C   UNL     1      63.319  65.571  71.460  0.00  0.00    +0.000 C 
ATOM     11  C   UNL     1      63.847  65.706  70.840  0.00  0.00    +0.000 C 
ATOM     12  N   UNL     1      63.831  65.223  70.172  0.00  0.00    +0.000 N 
ATOM     13  C   UNL     1      64.305  65.262  69.498  0.00  0.00    +0.000 C 
ATOM     14  C   UNL     1      64.911  65.794  69.326  0.00  0.00    +0.000 C 
ATOM     15  C   UNL     1      65.193  66.419  69.785  0.00  0.00    +0.000 C 
ATOM     16  C   UNL     1      64.939  66.666  70.530  0.00  0.00    +0.000 A 
ATOM     17  C   UNL     1      64.340  66.348  70.999  0.00  0.00    +0.000 A 
ATOM     18  C   UNL     1      64.173  66.682  71.735  0.00  0.00    +0.000 A 
ATOM     19  C   UNL     1      64.604  67.332  72.001  0.00  0.00    +0.000 A 
ATOM     20  C   UNL     1      65.204  67.650  71.531  0.00  0.00    +0.000 A 
ATOM     21  C   UNL     1      65.371  67.316  70.795  0.00  0.00    +0.000 A 
ATOM     22  C   UNL     1      63.288  64.604  70.124  0.00  0.00    +0.000 C 
ATOM     23  O   UNL     1      63.273  64.120  69.455  0.00  0.00    +0.000 OA
ATOM     24  C   UNL     1      62.761  64.468  70.743  0.00  0.00    +0.000 C 
ENDROOT
TORSDOF 0
ENDMDL
MODEL 6
REMARK VINA RESULT:   -11.778      5.066      6.748
REMARK INTER + INTRA:         -11.778
REMARK INTER:                 -11.778
REMARK INTRA:                   0.000
REMARK UNBOUND:                 0.000
ROOT
REMARK  Name = epsiprantel
REMARK                            x       y       z     vdW  Elec       q    Type
REMARK                         _______ _______ _______ _____ _____    ______ ____
ATOM      1  O   UNL     1      62.997  64.001  70.470  0.00  0.00    +0.000 OA
ATOM      2  C   UNL     1      62.614  64.317  71.129  0.00  0.00    +0.000 C 
ATOM      3  C   UNL     1      61.980  63.914  71.469  0.00  0.00    +0.000 C 
ATOM      4  C   UNL     1      61.728  63.196  71.151  0.00  0.00    +0.000 C 
ATOM      5  C   UNL     1      61.094  62.793  71.491  0.00  0.00    +0.000 C 
ATOM      6  C   UNL     1      60.711  63.109  72.150  0.00  0.00    +0.000 C 
ATOM      7  C   UNL     1      60.962  63.827  72.468  0.00  0.00    +0.000 C 
ATOM      8  C   UNL     1      61.596  64.230  72.128  0.00  0.00    +0.000 C 
ATOM      9  N   UNL     1      62.865  65.036  71.447  0.00  0.00    +0.000 N 
ATOM     10  C   UNL     1      63.499  65.439  71.106  0.00  0.00    +0.000 C 
ATOM     11  C   UNL     1      63.750  66.157  71.425  0.00  0.00    +0.000 C 
ATOM     12  N   UNL     1      63.367  66.473  72.084  0.00  0.00    +0.000 N 
ATOM     13  C   UNL     1      63.528  67.175  72.484  0.00  0.00    +0.000 C 
ATOM     14  C   UNL     1      64.112  67.737  72.325  0.00  0.00    +0.000 C 
ATOM     15  C   UNL     1      64.679  67.733  71.726  0.00  0.00    +0.000 C 
ATOM     16  C   UNL     1      64.802  67.168  71.138  0.00  0.00    +0.000 A 
ATOM     17  C   UNL     1      64.389  66.466  71.004  0.00  0.00    +0.000 A 
ATOM     18  C   UNL     1      64.605  65.974  70.378  0.00  0.00    +0.000 A 
ATOM     19  C   UNL     1      65.233  66.183  69.887  0.00  0.00    +0.000 A 
ATOM     20  C   UNL     1      65.646  66.884  70.020  0.00  0.00    +0.000 A 
ATOM     21  C   UNL     1      65.431  67.377  70.647  0.00  0.00    +0.000 A 
ATOM     22  C   UNL     1      62.733  66.070  72.424  0.00  0.00    +0.000 C 
ATOM     23  O   UNL     1      62.350  66.386  73.083  0.00  0.00    +0.000 OA
ATOM     24  C   UNL     1      62.482  65.352  72.106  0.00  0.00    +0.000 C 
ENDROOT
TORSDOF 0
ENDMDL
MODEL 7
REMARK VINA RESULT:   -11.616      2.802      4.566
REMARK INTER + INTRA:         -11.616
REMARK INTER:                 -11.616
REMARK INTRA:                   0.000
REMARK UNBOUND:                 0.000
ROOT
REMARK  Name = epsiprantel
REMARK                            x       y       z     vdW  Elec       q    Type
REMARK                         _______ _______ _______ _____ _____    ______ ____
ATOM      1  O   UNL     1      62.857  64.496  71.667  0.00  0.00    +0.000 OA
ATOM      2  C   UNL     1      62.937  64.678  70.867  0.00  0.00    +0.000 C 
ATOM      3  C   UNL     1      63.435  65.293  70.632  0.00  0.00    +0.000 C 
ATOM      4  C   UNL     1      63.852  65.726  71.198  0.00  0.00    +0.000 C 
ATOM      5  C   UNL     1      64.349  66.340  70.964  0.00  0.00    +0.000 C 
ATOM      6  C   UNL     1      64.431  66.523  70.163  0.00  0.00    +0.000 C 
ATOM      7  C   UNL     1      64.013  66.091  69.597  0.00  0.00    +0.000 C 
ATOM      8  C   UNL     1      63.516  65.477  69.832  0.00  0.00    +0.000 C 
ATOM      9  N   UNL     1      62.521  64.247  70.301  0.00  0.00    +0.000 N 
ATOM     10  C   UNL     1      62.023  63.632  70.535  0.00  0.00    +0.000 C 
ATOM     11  C   UNL     1      61.606  63.200  69.969  0.00  0.00    +0.000 C 
ATOM     12  N   UNL     1      61.687  63.383  69.169  0.00  0.00    +0.000 N 
ATOM     13  C   UNL     1      61.325  63.025  68.520  0.00  0.00    +0.000 C 
ATOM     14  C   UNL     1      60.792  62.394  68.512  0.00  0.00    +0.000 C 
ATOM     15  C   UNL     1      60.490  61.968  69.150  0.00  0.00    +0.000 C 
ATOM     16  C   UNL     1      60.646  62.065  69.954  0.00  0.00    +0.000 A 
ATOM     17  C   UNL     1      61.143  62.614  70.319  0.00  0.00    +0.000 A 
ATOM     18  C   UNL     1      61.221  62.617  71.140  0.00  0.00    +0.000 A 
ATOM     19  C   UNL     1      60.803  62.072  71.596  0.00  0.00    +0.000 A 
ATOM     20  C   UNL     1      60.306  61.523  71.232  0.00  0.00    +0.000 A 
ATOM     21  C   UNL     1      60.228  61.520  70.410  0.00  0.00    +0.000 A 
ATOM     22  C   UNL     1      62.185  63.998  68.934  0.00  0.00    +0.000 C 
ATOM     23  O   UNL     1      62.265  64.180  68.134  0.00  0.00    +0.000 OA
ATOM     24  C   UNL     1      62.601  64.429  69.500  0.00  0.00    +0.000 C 
ENDROOT
TORSDOF 0
ENDMDL
MODEL 8
REMARK VINA RESULT:   -11.534      2.718      4.291
REMARK INTER + INTRA:         -11.534
REMARK INTER:                 -11.534
REMARK INTRA:                   0.000
REMARK UNBOUND:                 0.000
ROOT
REMARK  Name = epsiprantel
REMARK                            x       y       z     vdW  Elec       q    Type
REMARK                         _______ _______ _______ _____ _____    ______ ____
ATOM      1  O   UNL     1      59.832  65.918  69.229  0.00  0.00    +0.000 OA
ATOM      2  C   UNL     1      59.822  65.705  70.026  0.00  0.00    +0.000 C 
ATOM      3  C   UNL     1      59.689  66.279  70.604  0.00  0.00    +0.000 C 
ATOM      4  C   UNL     1      59.567  67.065  70.385  0.00  0.00    +0.000 C 
ATOM      5  C   UNL     1      59.434  67.638  70.963  0.00  0.00    +0.000 C 
ATOM      6  C   UNL     1      59.424  67.426  71.760  0.00  0.00    +0.000 C 
ATOM      7  C   UNL     1      59.547  66.640  71.979  0.00  0.00    +0.000 C 
ATOM      8  C   UNL     1      59.679  66.067  71.401  0.00  0.00    +0.000 C 
ATOM      9  N   UNL     1      59.944  64.919  70.245  0.00  0.00    +0.000 N 
ATOM     10  C   UNL     1      60.076  64.346  69.667  0.00  0.00    +0.000 C 
ATOM     11  C   UNL     1      60.199  63.560  69.886  0.00  0.00    +0.000 C 
ATOM     12  N   UNL     1      60.188  63.347  70.683  0.00  0.00    +0.000 N 
ATOM     13  C   UNL     1      60.297  62.602  71.018  0.00  0.00    +0.000 C 
ATOM     14  C   UNL     1      60.443  61.883  70.638  0.00  0.00    +0.000 C 
ATOM     15  C   UNL     1      60.516  61.734  69.830  0.00  0.00    +0.000 C 
ATOM     16  C   UNL     1      60.461  62.266  69.202  0.00  0.00    +0.000 A 
ATOM     17  C   UNL     1      60.320  63.079  69.227  0.00  0.00    +0.000 A 
ATOM     18  C   UNL     1      60.286  63.513  68.526  0.00  0.00    +0.000 A 
ATOM     19  C   UNL     1      60.393  63.135  67.801  0.00  0.00    +0.000 A 
ATOM     20  C   UNL     1      60.535  62.322  67.776  0.00  0.00    +0.000 A 
ATOM     21  C   UNL     1      60.568  61.888  68.477  0.00  0.00    +0.000 A 
ATOM     22  C   UNL     1      60.056  63.921  71.261  0.00  0.00    +0.000 C 
ATOM     23  O   UNL     1      60.046  63.708  72.058  0.00  0.00    +0.000 OA
ATOM     24  C   UNL     1      59.934  64.707  71.042  0.00  0.00    +0.000 C 
ENDROOT
TORSDOF 0
ENDMDL
MODEL 9
REMARK VINA RESULT:   -11.388      3.840      5.330
REMARK INTER + INTRA:         -11.388
REMARK INTER:                 -11.388
REMARK INTRA:                   0.000
REMARK UNBOUND:                 0.000
ROOT
REMARK  Name = epsiprantel
REMARK                            x       y       z     vdW  Elec       q    Type
REMARK                         _______ _______ _______ _____ _____    ______ ____
ATOM      1  O   UNL     1      60.669  65.592  72.418  0.00  0.00    +0.000 OA
ATOM      2  C   UNL     1      60.399  65.552  71.640  0.00  0.00    +0.000 C 
ATOM      3  C   UNL     1      60.089  66.224  71.276  0.00  0.00    +0.000 C 
ATOM      4  C   UNL     1      60.048  66.937  71.690  0.00  0.00    +0.000 C 
ATOM      5  C   UNL     1      59.738  67.608  71.327  0.00  0.00    +0.000 C 
ATOM      6  C   UNL     1      59.468  67.569  70.548  0.00  0.00    +0.000 C 
ATOM      7  C   UNL     1      59.509  66.857  70.133  0.00  0.00    +0.000 C 
ATOM      8  C   UNL     1      59.819  66.185  70.497  0.00  0.00    +0.000 C 
ATOM      9  N   UNL     1      60.440  64.840  71.225  0.00  0.00    +0.000 N 
ATOM     10  C   UNL     1      60.750  64.168  71.588  0.00  0.00    +0.000 C 
ATOM     11  C   UNL     1      60.791  63.456  71.173  0.00  0.00    +0.000 C 
ATOM     12  N   UNL     1      60.522  63.416  70.395  0.00  0.00    +0.000 N 
ATOM     13  C   UNL     1      60.512  62.767  69.886  0.00  0.00    +0.000 C 
ATOM     14  C   UNL     1      60.770  61.996  70.031  0.00  0.00    +0.000 C 
ATOM     15  C   UNL     1      61.100  61.686  70.720  0.00  0.00    +0.000 C 
ATOM     16  C   UNL     1      61.255  62.068  71.434  0.00  0.00    +0.000 A 
ATOM     17  C   UNL     1      61.117  62.856  71.636  0.00  0.00    +0.000 A 
ATOM     18  C   UNL     1      61.315  63.129  72.389  0.00  0.00    +0.000 A 
ATOM     19  C   UNL     1      61.651  62.615  72.939  0.00  0.00    +0.000 A 
ATOM     20  C   UNL     1      61.788  61.827  72.738  0.00  0.00    +0.000 A 
ATOM     21  C   UNL     1      61.590  61.554  71.985  0.00  0.00    +0.000 A 
ATOM     22  C   UNL     1      60.211  64.089  70.031  0.00  0.00    +0.000 C 
ATOM     23  O   UNL     1      59.942  64.049  69.252  0.00  0.00    +0.000 OA
ATOM     24  C   UNL     1      60.171  64.800  70.446  0.00  0.00    +0.000 C 
ENDROOT
TORSDOF 0
ENDMDL
