MODEL 1
REMARK VINA RESULT:   -16.593      0.000      0.000
REMARK INTER + INTRA:         -16.593
REMARK INTER:                 -16.593
REMARK INTRA:                   0.000
REMARK UNBOUND:                 0.000
ROOT
REMARK  Name = eptifibatide
REMARK                            x       y       z     vdW  Elec       q    Type
REMARK                         _______ _______ _______ _____ _____    ______ ____
ATOM      1  N   UNL     1      63.164  57.503  51.778  0.00  0.00    +0.000 NA
ATOM      2  C   UNL     1      63.096  58.222  52.175  0.00  0.00    +0.000 C 
ATOM      3  N   UNL     1      63.151  58.246  52.997  0.00  0.00    +0.000 NA
ATOM      4  N   UNL     1      62.972  58.918  51.750  0.00  0.00    +0.000 NA
ATOM      5  C   UNL     1      62.903  59.637  52.146  0.00  0.00    +0.000 C 
ATOM      6  C   UNL     1      62.779  60.334  51.721  0.00  0.00    +0.000 C 
ATOM      7  C   UNL     1      62.710  61.053  52.118  0.00  0.00    +0.000 C 
ATOM      8  C   UNL     1      62.586  61.749  51.693  0.00  0.00    +0.000 C 
ATOM      9  C   UNL     1      62.517  62.469  52.090  0.00  0.00    +0.000 C 
ATOM     10  N   UNL     1      62.638  61.861  52.634  0.00  0.00    +0.000 NA
ATOM     11  C   UNL     1      62.647  62.192  53.390  0.00  0.00    +0.000 C 
ATOM     12  O   UNL     1      62.752  61.783  54.097  0.00  0.00    +0.000 OA
ATOM     13  C   UNL     1      62.532  63.006  53.313  0.00  0.00    +0.000 C 
ATOM     14  C   UNL     1      62.467  63.751  53.818  0.00  0.00    +0.000 C 
ATOM     15  S   UNL     1      62.343  64.498  53.491  0.00  0.00    +0.000 S 
ATOM     16  S   UNL     1      62.289  65.159  53.982  0.00  0.00    +0.000 S 
ATOM     17  C   UNL     1      62.165  65.906  53.656  0.00  0.00    +0.000 C 
ATOM     18  C   UNL     1      62.111  66.567  54.147  0.00  0.00    +0.000 C 
ATOM     19  N   UNL     1      61.987  67.315  53.819  0.00  0.00    +0.000 NA
ATOM     20  C   UNL     1      61.933  67.975  54.311  0.00  0.00    +0.000 C 
ATOM     21  O   UNL     1      62.003  67.889  55.128  0.00  0.00    +0.000 OA
ATOM     22  C   UNL     1      61.809  68.723  53.984  0.00  0.00    +0.000 C 
ATOM     23  C   UNL     1      61.733  69.469  54.327  0.00  0.00    +0.000 C 
ATOM     24  C   UNL     1      61.616  70.018  53.722  0.00  0.00    +0.000 C 
ATOM     25  C   UNL     1      61.620  69.609  53.004  0.00  0.00    +0.000 C 
ATOM     26  N   UNL     1      61.739  68.809  53.167  0.00  0.00    +0.000 N 
ATOM     27  C   UNL     1      61.793  68.149  52.676  0.00  0.00    +0.000 C 
ATOM     28  O   UNL     1      61.917  67.401  53.002  0.00  0.00    +0.000 OA
ATOM     29  C   UNL     1      61.724  68.235  51.858  0.00  0.00    +0.000 C 
ATOM     30  C   UNL     1      61.600  68.983  51.532  0.00  0.00    +0.000 C 
ATOM     31  C   UNL     1      61.530  69.069  50.714  0.00  0.00    +0.000 C 
ATOM     32  C   UNL     1      61.572  68.462  50.157  0.00  0.00    +0.000 C 
ATOM     33  N   UNL     1      61.474  68.796  49.409  0.00  0.00    +0.000 NA
ATOM     34  C   UNL     1      61.371  69.609  49.504  0.00  0.00    +0.000 C 
ATOM     35  C   UNL     1      61.406  69.778  50.311  0.00  0.00    +0.000 C 
ATOM     36  C   UNL     1      61.320  70.555  50.573  0.00  0.00    +0.000 C 
ATOM     37  C   UNL     1      61.199  71.163  50.029  0.00  0.00    +0.000 C 
ATOM     38  C   UNL     1      61.164  70.995  49.223  0.00  0.00    +0.000 C 
ATOM     39  C   UNL     1      61.250  70.217  48.960  0.00  0.00    +0.000 C 
ATOM     40  N   UNL     1      61.778  67.574  51.367  0.00  0.00    +0.000 NA
ATOM     41  C   UNL     1      61.902  66.828  51.694  0.00  0.00    +0.000 C 
ATOM     42  O   UNL     1      61.971  66.740  52.512  0.00  0.00    +0.000 OA
ATOM     43  C   UNL     1      61.956  66.166  51.203  0.00  0.00    +0.000 C 
ATOM     44  C   UNL     1      61.886  66.252  50.386  0.00  0.00    +0.000 C 
ATOM     45  C   UNL     1      61.762  67.000  50.060  0.00  0.00    +0.000 C 
ATOM     46  O   UNL     1      61.708  67.661  50.550  0.00  0.00    +0.000 OA
ATOM     47  O   UNL     1      61.692  67.086  49.242  0.00  0.00    +0.000 OA
ATOM     48  N   UNL     1      62.080  65.419  51.530  0.00  0.00    +0.000 NA
ATOM     49  C   UNL     1      62.134  64.758  51.038  0.00  0.00    +0.000 C 
ATOM     50  O   UNL     1      62.064  64.845  50.221  0.00  0.00    +0.000 OA
ATOM     51  C   UNL     1      62.258  64.011  51.366  0.00  0.00    +0.000 C 
ATOM     52  N   UNL     1      62.312  63.349  50.875  0.00  0.00    +0.000 NA
ATOM     53  C   UNL     1      62.436  62.602  51.201  0.00  0.00    +0.000 C 
ATOM     54  O   UNL     1      62.488  61.952  50.696  0.00  0.00    +0.000 OA
ATOM     55  C   UNL     1      62.181  66.481  54.964  0.00  0.00    +0.000 C 
ATOM     56  N   UNL     1      62.126  67.141  55.455  0.00  0.00    +0.000 NA
ATOM     57  O   UNL     1      62.304  65.734  55.290  0.00  0.00    +0.000 OA
ENDROOT
TORSDOF 0
ENDMDL
MODEL 2
REMARK VINA RESULT:   -16.365      1.153      3.526
REMARK INTER + INTRA:         -16.365
REMARK INTER:                 -16.365
REMARK INTRA:                   0.000
REMARK UNBOUND:                 0.000
ROOT
REMARK  Name = eptifibatide
REMARK                            x       y       z     vdW  Elec       q    Type
REMARK                         _______ _______ _______ _____ _____    ______ ____
ATOM      1  N   UNL     1      62.377  57.128  51.472  0.00  0.00    +0.000 NA
ATOM      2  C   UNL     1      62.306  57.896  51.181  0.00  0.00    +0.000 C 
ATOM      3  N   UNL     1      62.210  58.023  50.372  0.00  0.00    +0.000 NA
ATOM      4  N   UNL     1      62.332  58.538  51.698  0.00  0.00    +0.000 NA
ATOM      5  C   UNL     1      62.262  59.306  51.407  0.00  0.00    +0.000 C 
ATOM      6  C   UNL     1      62.288  59.948  51.925  0.00  0.00    +0.000 C 
ATOM      7  C   UNL     1      62.218  60.716  51.633  0.00  0.00    +0.000 C 
ATOM      8  C   UNL     1      62.244  61.359  52.151  0.00  0.00    +0.000 C 
ATOM      9  C   UNL     1      62.174  62.127  51.859  0.00  0.00    +0.000 C 
ATOM     10  N   UNL     1      62.131  61.588  51.237  0.00  0.00    +0.000 NA
ATOM     11  C   UNL     1      62.032  62.013  50.537  0.00  0.00    +0.000 C 
ATOM     12  O   UNL     1      61.964  61.693  49.780  0.00  0.00    +0.000 OA
ATOM     13  C   UNL     1      62.014  62.816  50.727  0.00  0.00    +0.000 C 
ATOM     14  C   UNL     1      61.930  63.623  50.332  0.00  0.00    +0.000 C 
ATOM     15  S   UNL     1      61.943  64.328  50.759  0.00  0.00    +0.000 S 
ATOM     16  S   UNL     1      61.864  65.051  50.367  0.00  0.00    +0.000 S 
ATOM     17  C   UNL     1      61.876  65.756  50.794  0.00  0.00    +0.000 C 
ATOM     18  C   UNL     1      61.797  66.477  50.401  0.00  0.00    +0.000 C 
ATOM     19  N   UNL     1      61.810  67.183  50.830  0.00  0.00    +0.000 NA
ATOM     20  C   UNL     1      61.731  67.904  50.436  0.00  0.00    +0.000 C 
ATOM     21  O   UNL     1      61.639  67.920  49.617  0.00  0.00    +0.000 OA
ATOM     22  C   UNL     1      61.744  68.610  50.864  0.00  0.00    +0.000 C 
ATOM     23  C   UNL     1      61.679  69.398  50.630  0.00  0.00    +0.000 C 
ATOM     24  C   UNL     1      61.731  69.870  51.305  0.00  0.00    +0.000 C 
ATOM     25  C   UNL     1      61.828  69.372  51.956  0.00  0.00    +0.000 C 
ATOM     26  N   UNL     1      61.836  68.594  51.683  0.00  0.00    +0.000 N 
ATOM     27  C   UNL     1      61.915  67.873  52.076  0.00  0.00    +0.000 C 
ATOM     28  O   UNL     1      61.902  67.167  51.649  0.00  0.00    +0.000 OA
ATOM     29  C   UNL     1      62.007  67.856  52.896  0.00  0.00    +0.000 C 
ATOM     30  C   UNL     1      62.020  68.562  53.323  0.00  0.00    +0.000 C 
ATOM     31  C   UNL     1      62.112  68.546  54.143  0.00  0.00    +0.000 C 
ATOM     32  C   UNL     1      62.197  67.871  54.608  0.00  0.00    +0.000 C 
ATOM     33  N   UNL     1      62.272  68.111  55.394  0.00  0.00    +0.000 NA
ATOM     34  C   UNL     1      62.234  68.934  55.414  0.00  0.00    +0.000 C 
ATOM     35  C   UNL     1      62.135  69.204  54.641  0.00  0.00    +0.000 C 
ATOM     36  C   UNL     1      62.078  70.013  54.490  0.00  0.00    +0.000 C 
ATOM     37  C   UNL     1      62.121  70.552  55.113  0.00  0.00    +0.000 C 
ATOM     38  C   UNL     1      62.220  70.284  55.886  0.00  0.00    +0.000 C 
ATOM     39  C   UNL     1      62.277  69.474  56.037  0.00  0.00    +0.000 C 
ATOM     40  N   UNL     1      62.086  67.135  53.288  0.00  0.00    +0.000 NA
ATOM     41  C   UNL     1      62.073  66.430  52.861  0.00  0.00    +0.000 C 
ATOM     42  O   UNL     1      61.981  66.445  52.041  0.00  0.00    +0.000 OA
ATOM     43  C   UNL     1      62.152  65.708  53.254  0.00  0.00    +0.000 C 
ATOM     44  C   UNL     1      62.244  65.692  54.073  0.00  0.00    +0.000 C 
ATOM     45  C   UNL     1      62.257  66.398  54.500  0.00  0.00    +0.000 C 
ATOM     46  O   UNL     1      62.178  67.119  54.108  0.00  0.00    +0.000 OA
ATOM     47  O   UNL     1      62.349  66.382  55.320  0.00  0.00    +0.000 OA
ATOM     48  N   UNL     1      62.139  65.003  52.826  0.00  0.00    +0.000 NA
ATOM     49  C   UNL     1      62.219  64.281  53.219  0.00  0.00    +0.000 C 
ATOM     50  O   UNL     1      62.311  64.266  54.038  0.00  0.00    +0.000 OA
ATOM     51  C   UNL     1      62.206  63.576  52.791  0.00  0.00    +0.000 C 
ATOM     52  N   UNL     1      62.285  62.854  53.183  0.00  0.00    +0.000 NA
ATOM     53  C   UNL     1      62.272  62.149  52.756  0.00  0.00    +0.000 C 
ATOM     54  O   UNL     1      62.353  61.437  53.164  0.00  0.00    +0.000 OA
ATOM     55  C   UNL     1      61.705  66.493  49.582  0.00  0.00    +0.000 C 
ATOM     56  N   UNL     1      61.626  67.214  49.190  0.00  0.00    +0.000 NA
ATOM     57  O   UNL     1      61.693  65.788  49.155  0.00  0.00    +0.000 OA
ENDROOT
TORSDOF 0
ENDMDL
MODEL 3
REMARK VINA RESULT:   -15.885      2.213      7.624
REMARK INTER + INTRA:         -15.885
REMARK INTER:                 -15.885
REMARK INTRA:                   0.000
REMARK UNBOUND:                 0.000
ROOT
REMARK  Name = eptifibatide
REMARK                            x       y       z     vdW  Elec       q    Type
REMARK                         _______ _______ _______ _____ _____    ______ ____
ATOM      1  N   UNL     1      60.825  70.969  54.472  0.00  0.00    +0.000 NA
ATOM      2  C   UNL     1      61.190  70.233  54.540  0.00  0.00    +0.000 C 
ATOM      3  N   UNL     1      61.799  70.123  55.086  0.00  0.00    +0.000 NA
ATOM      4  N   UNL     1      60.947  69.605  54.063  0.00  0.00    +0.000 NA
ATOM      5  C   UNL     1      61.312  68.869  54.130  0.00  0.00    +0.000 C 
ATOM      6  C   UNL     1      61.068  68.241  53.653  0.00  0.00    +0.000 C 
ATOM      7  C   UNL     1      61.433  67.505  53.721  0.00  0.00    +0.000 C 
ATOM      8  C   UNL     1      61.190  66.878  53.243  0.00  0.00    +0.000 C 
ATOM      9  C   UNL     1      61.555  66.142  53.311  0.00  0.00    +0.000 C 
ATOM     10  N   UNL     1      61.894  66.671  53.844  0.00  0.00    +0.000 NA
ATOM     11  C   UNL     1      62.485  66.272  54.260  0.00  0.00    +0.000 C 
ATOM     12  O   UNL     1      62.965  66.592  54.848  0.00  0.00    +0.000 OA
ATOM     13  C   UNL     1      62.510  65.494  53.984  0.00  0.00    +0.000 C 
ATOM     14  C   UNL     1      62.957  64.722  54.117  0.00  0.00    +0.000 C 
ATOM     15  S   UNL     1      62.791  64.035  53.692  0.00  0.00    +0.000 S 
ATOM     16  S   UNL     1      63.220  63.345  53.839  0.00  0.00    +0.000 S 
ATOM     17  C   UNL     1      63.054  62.658  53.414  0.00  0.00    +0.000 C 
ATOM     18  C   UNL     1      63.482  61.969  53.561  0.00  0.00    +0.000 C 
ATOM     19  N   UNL     1      63.316  61.282  53.135  0.00  0.00    +0.000 NA
ATOM     20  C   UNL     1      63.745  60.592  53.282  0.00  0.00    +0.000 C 
ATOM     21  O   UNL     1      64.338  60.589  53.855  0.00  0.00    +0.000 OA
ATOM     22  C   UNL     1      63.579  59.905  52.856  0.00  0.00    +0.000 C 
ATOM     23  C   UNL     1      63.907  59.148  52.881  0.00  0.00    +0.000 C 
ATOM     24  C   UNL     1      63.516  58.682  52.323  0.00  0.00    +0.000 C 
ATOM     25  C   UNL     1      62.946  59.152  51.954  0.00  0.00    +0.000 C 
ATOM     26  N   UNL     1      62.986  59.908  52.284  0.00  0.00    +0.000 N 
ATOM     27  C   UNL     1      62.558  60.597  52.137  0.00  0.00    +0.000 C 
ATOM     28  O   UNL     1      62.723  61.284  52.562  0.00  0.00    +0.000 OA
ATOM     29  C   UNL     1      61.963  60.600  51.564  0.00  0.00    +0.000 C 
ATOM     30  C   UNL     1      61.798  59.912  51.138  0.00  0.00    +0.000 C 
ATOM     31  C   UNL     1      61.204  59.915  50.565  0.00  0.00    +0.000 C 
ATOM     32  C   UNL     1      60.733  60.560  50.359  0.00  0.00    +0.000 C 
ATOM     33  N   UNL     1      60.215  60.316  49.764  0.00  0.00    +0.000 NA
ATOM     34  C   UNL     1      60.366  59.522  49.603  0.00  0.00    +0.000 C 
ATOM     35  C   UNL     1      60.978  59.273  50.099  0.00  0.00    +0.000 C 
ATOM     36  C   UNL     1      61.250  58.496  50.061  0.00  0.00    +0.000 C 
ATOM     37  C   UNL     1      60.910  57.966  49.527  0.00  0.00    +0.000 C 
ATOM     38  C   UNL     1      60.298  58.213  49.032  0.00  0.00    +0.000 C 
ATOM     39  C   UNL     1      60.027  58.992  49.070  0.00  0.00    +0.000 C 
ATOM     40  N   UNL     1      61.535  61.289  51.416  0.00  0.00    +0.000 NA
ATOM     41  C   UNL     1      61.701  61.976  51.842  0.00  0.00    +0.000 C 
ATOM     42  O   UNL     1      62.295  61.974  52.415  0.00  0.00    +0.000 OA
ATOM     43  C   UNL     1      61.273  62.666  51.695  0.00  0.00    +0.000 C 
ATOM     44  C   UNL     1      60.679  62.669  51.122  0.00  0.00    +0.000 C 
ATOM     45  C   UNL     1      60.514  61.981  50.697  0.00  0.00    +0.000 C 
ATOM     46  O   UNL     1      60.942  61.292  50.844  0.00  0.00    +0.000 OA
ATOM     47  O   UNL     1      59.920  61.984  50.124  0.00  0.00    +0.000 OA
ATOM     48  N   UNL     1      61.439  63.353  52.121  0.00  0.00    +0.000 NA
ATOM     49  C   UNL     1      61.010  64.043  51.973  0.00  0.00    +0.000 C 
ATOM     50  O   UNL     1      60.416  64.045  51.400  0.00  0.00    +0.000 OA
ATOM     51  C   UNL     1      61.176  64.729  52.399  0.00  0.00    +0.000 C 
ATOM     52  N   UNL     1      60.748  65.420  52.252  0.00  0.00    +0.000 NA
ATOM     53  C   UNL     1      60.913  66.106  52.677  0.00  0.00    +0.000 C 
ATOM     54  O   UNL     1      60.476  66.787  52.518  0.00  0.00    +0.000 OA
ATOM     55  C   UNL     1      64.076  61.966  54.133  0.00  0.00    +0.000 C 
ATOM     56  N   UNL     1      64.504  61.277  54.280  0.00  0.00    +0.000 NA
ATOM     57  O   UNL     1      64.241  62.653  54.558  0.00  0.00    +0.000 OA
ENDROOT
TORSDOF 0
ENDMDL
MODEL 4
REMARK VINA RESULT:   -15.456      1.865      7.963
REMARK INTER + INTRA:         -15.456
REMARK INTER:                 -15.456
REMARK INTRA:                   0.000
REMARK UNBOUND:                 0.000
ROOT
REMARK  Name = eptifibatide
REMARK                            x       y       z     vdW  Elec       q    Type
REMARK                         _______ _______ _______ _____ _____    ______ ____
ATOM      1  N   UNL     1      60.007  71.782  54.828  0.00  0.00    +0.000 NA
ATOM      2  C   UNL     1      60.128  71.203  54.253  0.00  0.00    +0.000 C 
ATOM      3  N   UNL     1      59.993  71.377  53.458  0.00  0.00    +0.000 NA
ATOM      4  N   UNL     1      60.382  70.450  54.473  0.00  0.00    +0.000 NA
ATOM      5  C   UNL     1      60.503  69.871  53.898  0.00  0.00    +0.000 C 
ATOM      6  C   UNL     1      60.757  69.117  54.118  0.00  0.00    +0.000 C 
ATOM      7  C   UNL     1      60.878  68.538  53.543  0.00  0.00    +0.000 C 
ATOM      8  C   UNL     1      61.132  67.785  53.763  0.00  0.00    +0.000 C 
ATOM      9  C   UNL     1      61.252  67.206  53.188  0.00  0.00    +0.000 C 
ATOM     10  N   UNL     1      61.001  67.905  52.831  0.00  0.00    +0.000 NA
ATOM     11  C   UNL     1      60.959  67.775  52.017  0.00  0.00    +0.000 C 
ATOM     12  O   UNL     1      60.731  68.328  51.449  0.00  0.00    +0.000 OA
ATOM     13  C   UNL     1      61.184  66.995  51.871  0.00  0.00    +0.000 C 
ATOM     14  C   UNL     1      61.293  66.418  51.186  0.00  0.00    +0.000 C 
ATOM     15  S   UNL     1      61.544  65.641  51.297  0.00  0.00    +0.000 S 
ATOM     16  S   UNL     1      61.633  65.138  50.648  0.00  0.00    +0.000 S 
ATOM     17  C   UNL     1      61.884  64.361  50.759  0.00  0.00    +0.000 C 
ATOM     18  C   UNL     1      61.973  63.860  50.110  0.00  0.00    +0.000 C 
ATOM     19  N   UNL     1      62.225  63.081  50.222  0.00  0.00    +0.000 NA
ATOM     20  C   UNL     1      62.314  62.580  49.573  0.00  0.00    +0.000 C 
ATOM     21  O   UNL     1      62.152  62.856  48.813  0.00  0.00    +0.000 OA
ATOM     22  C   UNL     1      62.565  61.802  49.684  0.00  0.00    +0.000 C 
ATOM     23  C   UNL     1      62.702  61.185  49.154  0.00  0.00    +0.000 C 
ATOM     24  C   UNL     1      62.948  60.526  49.586  0.00  0.00    +0.000 C 
ATOM     25  C   UNL     1      62.964  60.738  50.384  0.00  0.00    +0.000 C 
ATOM     26  N   UNL     1      62.727  61.526  50.444  0.00  0.00    +0.000 N 
ATOM     27  C   UNL     1      62.638  62.027  51.093  0.00  0.00    +0.000 C 
ATOM     28  O   UNL     1      62.387  62.805  50.982  0.00  0.00    +0.000 OA
ATOM     29  C   UNL     1      62.800  61.751  51.854  0.00  0.00    +0.000 C 
ATOM     30  C   UNL     1      63.051  60.973  51.965  0.00  0.00    +0.000 C 
ATOM     31  C   UNL     1      63.213  60.697  52.726  0.00  0.00    +0.000 C 
ATOM     32  C   UNL     1      63.149  61.132  53.423  0.00  0.00    +0.000 C 
ATOM     33  N   UNL     1      63.364  60.640  54.050  0.00  0.00    +0.000 NA
ATOM     34  C   UNL     1      63.561  59.902  53.740  0.00  0.00    +0.000 C 
ATOM     35  C   UNL     1      63.467  59.936  52.921  0.00  0.00    +0.000 C 
ATOM     36  C   UNL     1      63.626  59.272  52.459  0.00  0.00    +0.000 C 
ATOM     37  C   UNL     1      63.877  58.572  52.817  0.00  0.00    +0.000 C 
ATOM     38  C   UNL     1      63.971  58.536  53.636  0.00  0.00    +0.000 C 
ATOM     39  C   UNL     1      63.813  59.202  54.097  0.00  0.00    +0.000 C 
ATOM     40  N   UNL     1      62.711  62.252  52.503  0.00  0.00    +0.000 NA
ATOM     41  C   UNL     1      62.460  63.030  52.392  0.00  0.00    +0.000 C 
ATOM     42  O   UNL     1      62.298  63.307  51.631  0.00  0.00    +0.000 OA
ATOM     43  C   UNL     1      62.371  63.532  53.040  0.00  0.00    +0.000 C 
ATOM     44  C   UNL     1      62.532  63.256  53.800  0.00  0.00    +0.000 C 
ATOM     45  C   UNL     1      62.784  62.478  53.911  0.00  0.00    +0.000 C 
ATOM     46  O   UNL     1      62.873  61.976  53.263  0.00  0.00    +0.000 OA
ATOM     47  O   UNL     1      62.946  62.202  54.672  0.00  0.00    +0.000 OA
ATOM     48  N   UNL     1      62.120  64.309  52.928  0.00  0.00    +0.000 NA
ATOM     49  C   UNL     1      62.030  64.811  53.578  0.00  0.00    +0.000 C 
ATOM     50  O   UNL     1      62.193  64.535  54.338  0.00  0.00    +0.000 OA
ATOM     51  C   UNL     1      61.779  65.589  53.466  0.00  0.00    +0.000 C 
ATOM     52  N   UNL     1      61.690  66.091  54.115  0.00  0.00    +0.000 NA
ATOM     53  C   UNL     1      61.439  66.869  54.004  0.00  0.00    +0.000 C 
ATOM     54  O   UNL     1      61.355  67.357  54.663  0.00  0.00    +0.000 OA
ATOM     55  C   UNL     1      61.811  64.136  49.350  0.00  0.00    +0.000 C 
ATOM     56  N   UNL     1      61.900  63.634  48.702  0.00  0.00    +0.000 NA
ATOM     57  O   UNL     1      61.561  64.913  49.239  0.00  0.00    +0.000 OA
ENDROOT
TORSDOF 0
ENDMDL
MODEL 5
REMARK VINA RESULT:   -14.915      2.279      7.990
REMARK INTER + INTRA:         -14.915
REMARK INTER:                 -14.915
REMARK INTRA:                   0.000
REMARK UNBOUND:                 0.000
ROOT
REMARK  Name = eptifibatide
REMARK                            x       y       z     vdW  Elec       q    Type
REMARK                         _______ _______ _______ _____ _____    ______ ____
ATOM      1  N   UNL     1      62.407  70.903  55.764  0.00  0.00    +0.000 NA
ATOM      2  C   UNL     1      62.084  70.372  55.223  0.00  0.00    +0.000 C 
ATOM      3  N   UNL     1      61.526  70.631  54.674  0.00  0.00    +0.000 NA
ATOM      4  N   UNL     1      62.319  69.581  55.230  0.00  0.00    +0.000 NA
ATOM      5  C   UNL     1      61.996  69.049  54.689  0.00  0.00    +0.000 C 
ATOM      6  C   UNL     1      62.230  68.258  54.696  0.00  0.00    +0.000 C 
ATOM      7  C   UNL     1      61.907  67.727  54.155  0.00  0.00    +0.000 C 
ATOM      8  C   UNL     1      62.141  66.936  54.163  0.00  0.00    +0.000 C 
ATOM      9  C   UNL     1      61.818  66.404  53.621  0.00  0.00    +0.000 C 
ATOM     10  N   UNL     1      61.497  67.154  53.502  0.00  0.00    +0.000 NA
ATOM     11  C   UNL     1      60.960  67.105  52.876  0.00  0.00    +0.000 C 
ATOM     12  O   UNL     1      60.513  67.727  52.572  0.00  0.00    +0.000 OA
ATOM     13  C   UNL     1      60.951  66.324  52.609  0.00  0.00    +0.000 C 
ATOM     14  C   UNL     1      60.552  65.806  51.987  0.00  0.00    +0.000 C 
ATOM     15  S   UNL     1      60.716  65.002  51.910  0.00  0.00    +0.000 S 
ATOM     16  S   UNL     1      60.334  64.556  51.329  0.00  0.00    +0.000 S 
ATOM     17  C   UNL     1      60.498  63.752  51.252  0.00  0.00    +0.000 C 
ATOM     18  C   UNL     1      60.116  63.307  50.672  0.00  0.00    +0.000 C 
ATOM     19  N   UNL     1      60.280  62.502  50.595  0.00  0.00    +0.000 NA
ATOM     20  C   UNL     1      59.897  62.057  50.015  0.00  0.00    +0.000 C 
ATOM     21  O   UNL     1      59.351  62.417  49.512  0.00  0.00    +0.000 OA
ATOM     22  C   UNL     1      60.062  61.252  49.938  0.00  0.00    +0.000 C 
ATOM     23  C   UNL     1      59.773  60.677  49.421  0.00  0.00    +0.000 C 
ATOM     24  C   UNL     1      60.141  59.961  49.604  0.00  0.00    +0.000 C 
ATOM     25  C   UNL     1      60.657  60.095  50.235  0.00  0.00    +0.000 C 
ATOM     26  N   UNL     1      60.608  60.893  50.440  0.00  0.00    +0.000 N 
ATOM     27  C   UNL     1      60.990  61.337  51.020  0.00  0.00    +0.000 C 
ATOM     28  O   UNL     1      60.826  62.142  51.098  0.00  0.00    +0.000 OA
ATOM     29  C   UNL     1      61.536  60.978  51.523  0.00  0.00    +0.000 C 
ATOM     30  C   UNL     1      61.700  60.172  51.445  0.00  0.00    +0.000 C 
ATOM     31  C   UNL     1      62.247  59.813  51.949  0.00  0.00    +0.000 C 
ATOM     32  C   UNL     1      62.670  60.185  52.551  0.00  0.00    +0.000 C 
ATOM     33  N   UNL     1      63.150  59.620  52.911  0.00  0.00    +0.000 NA
ATOM     34  C   UNL     1      63.024  58.898  52.532  0.00  0.00    +0.000 C 
ATOM     35  C   UNL     1      62.466  59.017  51.937  0.00  0.00    +0.000 C 
ATOM     36  C   UNL     1      62.229  58.387  51.461  0.00  0.00    +0.000 C 
ATOM     37  C   UNL     1      62.550  57.636  51.580  0.00  0.00    +0.000 C 
ATOM     38  C   UNL     1      63.109  57.516  52.176  0.00  0.00    +0.000 C 
ATOM     39  C   UNL     1      63.346  58.148  52.652  0.00  0.00    +0.000 C 
ATOM     40  N   UNL     1      61.919  61.422  52.103  0.00  0.00    +0.000 NA
ATOM     41  C   UNL     1      61.755  62.226  52.180  0.00  0.00    +0.000 C 
ATOM     42  O   UNL     1      61.208  62.587  51.678  0.00  0.00    +0.000 OA
ATOM     43  C   UNL     1      62.137  62.672  52.761  0.00  0.00    +0.000 C 
ATOM     44  C   UNL     1      62.683  62.313  53.263  0.00  0.00    +0.000 C 
ATOM     45  C   UNL     1      62.847  61.508  53.185  0.00  0.00    +0.000 C 
ATOM     46  O   UNL     1      62.465  61.063  52.606  0.00  0.00    +0.000 OA
ATOM     47  O   UNL     1      63.393  61.148  53.689  0.00  0.00    +0.000 OA
ATOM     48  N   UNL     1      61.973  63.477  52.837  0.00  0.00    +0.000 NA
ATOM     49  C   UNL     1      62.355  63.922  53.418  0.00  0.00    +0.000 C 
ATOM     50  O   UNL     1      62.901  63.562  53.920  0.00  0.00    +0.000 OA
ATOM     51  C   UNL     1      62.191  64.727  53.495  0.00  0.00    +0.000 C 
ATOM     52  N   UNL     1      62.573  65.172  54.075  0.00  0.00    +0.000 NA
ATOM     53  C   UNL     1      62.409  65.976  54.153  0.00  0.00    +0.000 C 
ATOM     54  O   UNL     1      62.800  66.407  54.738  0.00  0.00    +0.000 OA
ATOM     55  C   UNL     1      59.570  63.667  50.170  0.00  0.00    +0.000 C 
ATOM     56  N   UNL     1      59.187  63.222  49.590  0.00  0.00    +0.000 NA
ATOM     57  O   UNL     1      59.406  64.471  50.247  0.00  0.00    +0.000 OA
ENDROOT
TORSDOF 0
ENDMDL
MODEL 6
REMARK VINA RESULT:   -14.592      2.516      7.998
REMARK INTER + INTRA:         -14.592
REMARK INTER:                 -14.592
REMARK INTRA:                   0.000
REMARK UNBOUND:                 0.000
ROOT
REMARK  Name = eptifibatide
REMARK                            x       y       z     vdW  Elec       q    Type
REMARK                         _______ _______ _______ _____ _____    ______ ____
ATOM      1  N   UNL     1      58.279  74.602  55.684  0.00  0.00    +0.000 NA
ATOM      2  C   UNL     1      58.418  74.059  55.079  0.00  0.00    +0.000 C 
ATOM      3  N   UNL     1      58.179  74.231  54.308  0.00  0.00    +0.000 NA
ATOM      4  N   UNL     1      58.795  73.344  55.244  0.00  0.00    +0.000 NA
ATOM      5  C   UNL     1      58.933  72.802  54.639  0.00  0.00    +0.000 C 
ATOM      6  C   UNL     1      59.311  72.087  54.804  0.00  0.00    +0.000 C 
ATOM      7  C   UNL     1      59.449  71.544  54.199  0.00  0.00    +0.000 C 
ATOM      8  C   UNL     1      59.827  70.829  54.364  0.00  0.00    +0.000 C 
ATOM      9  C   UNL     1      59.965  70.286  53.759  0.00  0.00    +0.000 C 
ATOM     10  N   UNL     1      59.584  70.951  53.455  0.00  0.00    +0.000 NA
ATOM     11  C   UNL     1      59.475  70.835  52.645  0.00  0.00    +0.000 C 
ATOM     12  O   UNL     1      59.115  71.363  52.124  0.00  0.00    +0.000 OA
ATOM     13  C   UNL     1      59.790  70.098  52.448  0.00  0.00    +0.000 C 
ATOM     14  C   UNL     1      59.905  69.557  51.735  0.00  0.00    +0.000 C 
ATOM     15  S   UNL     1      60.271  68.821  51.791  0.00  0.00    +0.000 S 
ATOM     16  S   UNL     1      60.360  68.351  51.118  0.00  0.00    +0.000 S 
ATOM     17  C   UNL     1      60.726  67.615  51.175  0.00  0.00    +0.000 C 
ATOM     18  C   UNL     1      60.815  67.146  50.502  0.00  0.00    +0.000 C 
ATOM     19  N   UNL     1      61.182  66.408  50.559  0.00  0.00    +0.000 NA
ATOM     20  C   UNL     1      61.271  65.940  49.886  0.00  0.00    +0.000 C 
ATOM     21  O   UNL     1      60.994  66.207  49.156  0.00  0.00    +0.000 OA
ATOM     22  C   UNL     1      61.637  65.202  49.943  0.00  0.00    +0.000 C 
ATOM     23  C   UNL     1      61.801  64.623  49.378  0.00  0.00    +0.000 C 
ATOM     24  C   UNL     1      62.180  63.996  49.759  0.00  0.00    +0.000 C 
ATOM     25  C   UNL     1      62.250  64.189  50.559  0.00  0.00    +0.000 C 
ATOM     26  N   UNL     1      61.914  64.934  50.672  0.00  0.00    +0.000 N 
ATOM     27  C   UNL     1      61.825  65.403  51.344  0.00  0.00    +0.000 C 
ATOM     28  O   UNL     1      61.459  66.140  51.288  0.00  0.00    +0.000 OA
ATOM     29  C   UNL     1      62.102  65.135  52.074  0.00  0.00    +0.000 C 
ATOM     30  C   UNL     1      62.468  64.398  52.131  0.00  0.00    +0.000 C 
ATOM     31  C   UNL     1      62.745  64.130  52.861  0.00  0.00    +0.000 C 
ATOM     32  C   UNL     1      62.695  64.536  53.577  0.00  0.00    +0.000 C 
ATOM     33  N   UNL     1      63.040  64.065  54.160  0.00  0.00    +0.000 NA
ATOM     34  C   UNL     1      63.302  63.369  53.805  0.00  0.00    +0.000 C 
ATOM     35  C   UNL     1      63.120  63.409  53.001  0.00  0.00    +0.000 C 
ATOM     36  C   UNL     1      63.320  62.784  52.501  0.00  0.00    +0.000 C 
ATOM     37  C   UNL     1      63.701  62.118  52.805  0.00  0.00    +0.000 C 
ATOM     38  C   UNL     1      63.884  62.078  53.609  0.00  0.00    +0.000 C 
ATOM     39  C   UNL     1      63.684  62.704  54.109  0.00  0.00    +0.000 C 
ATOM     40  N   UNL     1      62.013  65.604  52.747  0.00  0.00    +0.000 NA
ATOM     41  C   UNL     1      61.647  66.340  52.691  0.00  0.00    +0.000 C 
ATOM     42  O   UNL     1      61.369  66.609  51.961  0.00  0.00    +0.000 OA
ATOM     43  C   UNL     1      61.557  66.810  53.363  0.00  0.00    +0.000 C 
ATOM     44  C   UNL     1      61.834  66.542  54.093  0.00  0.00    +0.000 C 
ATOM     45  C   UNL     1      62.200  65.805  54.149  0.00  0.00    +0.000 C 
ATOM     46  O   UNL     1      62.289  65.336  53.476  0.00  0.00    +0.000 OA
ATOM     47  O   UNL     1      62.477  65.537  54.879  0.00  0.00    +0.000 OA
ATOM     48  N   UNL     1      61.191  67.547  53.306  0.00  0.00    +0.000 NA
ATOM     49  C   UNL     1      61.102  68.016  53.980  0.00  0.00    +0.000 C 
ATOM     50  O   UNL     1      61.379  67.748  54.709  0.00  0.00    +0.000 OA
ATOM     51  C   UNL     1      60.736  68.753  53.922  0.00  0.00    +0.000 C 
ATOM     52  N   UNL     1      60.646  69.223  54.595  0.00  0.00    +0.000 NA
ATOM     53  C   UNL     1      60.281  69.959  54.539  0.00  0.00    +0.000 C 
ATOM     54  O   UNL     1      60.199  70.416  55.221  0.00  0.00    +0.000 OA
ATOM     55  C   UNL     1      60.539  67.414  49.773  0.00  0.00    +0.000 C 
ATOM     56  N   UNL     1      60.628  66.945  49.100  0.00  0.00    +0.000 NA
ATOM     57  O   UNL     1      60.173  68.150  49.716  0.00  0.00    +0.000 OA
ENDROOT
TORSDOF 0
ENDMDL
MODEL 7
REMARK VINA RESULT:   -14.532      1.918      3.999
REMARK INTER + INTRA:         -14.532
REMARK INTER:                 -14.532
REMARK INTRA:                   0.000
REMARK UNBOUND:                 0.000
ROOT
REMARK  Name = eptifibatide
REMARK                            x       y       z     vdW  Elec       q    Type
REMARK                         _______ _______ _______ _____ _____    ______ ____
ATOM      1  N   UNL     1      64.245  60.018  54.020  0.00  0.00    +0.000 NA
ATOM      2  C   UNL     1      63.980  60.604  53.504  0.00  0.00    +0.000 C 
ATOM      3  N   UNL     1      63.995  60.474  52.690  0.00  0.00    +0.000 NA
ATOM      4  N   UNL     1      63.699  61.320  53.802  0.00  0.00    +0.000 NA
ATOM      5  C   UNL     1      63.433  61.906  53.286  0.00  0.00    +0.000 C 
ATOM      6  C   UNL     1      63.153  62.623  53.583  0.00  0.00    +0.000 C 
ATOM      7  C   UNL     1      62.887  63.208  53.068  0.00  0.00    +0.000 C 
ATOM      8  C   UNL     1      62.606  63.925  53.365  0.00  0.00    +0.000 C 
ATOM      9  C   UNL     1      62.341  64.511  52.849  0.00  0.00    +0.000 C 
ATOM     10  N   UNL     1      62.591  63.853  52.419  0.00  0.00    +0.000 NA
ATOM     11  C   UNL     1      62.486  64.017  51.617  0.00  0.00    +0.000 C 
ATOM     12  O   UNL     1      62.665  63.511  50.991  0.00  0.00    +0.000 OA
ATOM     13  C   UNL     1      62.171  64.777  51.552  0.00  0.00    +0.000 C 
ATOM     14  C   UNL     1      61.898  65.366  50.925  0.00  0.00    +0.000 C 
ATOM     15  S   UNL     1      61.601  66.111  51.116  0.00  0.00    +0.000 S 
ATOM     16  S   UNL     1      61.361  66.626  50.518  0.00  0.00    +0.000 S 
ATOM     17  C   UNL     1      61.063  67.371  50.709  0.00  0.00    +0.000 C 
ATOM     18  C   UNL     1      60.824  67.885  50.111  0.00  0.00    +0.000 C 
ATOM     19  N   UNL     1      60.526  68.631  50.303  0.00  0.00    +0.000 NA
ATOM     20  C   UNL     1      60.286  69.145  49.704  0.00  0.00    +0.000 C 
ATOM     21  O   UNL     1      60.343  68.915  48.914  0.00  0.00    +0.000 OA
ATOM     22  C   UNL     1      59.988  69.891  49.896  0.00  0.00    +0.000 C 
ATOM     23  C   UNL     1      59.711  70.512  49.428  0.00  0.00    +0.000 C 
ATOM     24  C   UNL     1      59.481  71.126  49.930  0.00  0.00    +0.000 C 
ATOM     25  C   UNL     1      59.617  70.884  50.707  0.00  0.00    +0.000 C 
ATOM     26  N   UNL     1      59.930  70.121  50.686  0.00  0.00    +0.000 N 
ATOM     27  C   UNL     1      60.170  69.607  51.284  0.00  0.00    +0.000 C 
ATOM     28  O   UNL     1      60.468  68.861  51.093  0.00  0.00    +0.000 OA
ATOM     29  C   UNL     1      60.113  69.837  52.075  0.00  0.00    +0.000 C 
ATOM     30  C   UNL     1      59.815  70.582  52.266  0.00  0.00    +0.000 C 
ATOM     31  C   UNL     1      59.757  70.812  53.057  0.00  0.00    +0.000 C 
ATOM     32  C   UNL     1      59.975  70.359  53.711  0.00  0.00    +0.000 C 
ATOM     33  N   UNL     1      59.824  70.804  54.389  0.00  0.00    +0.000 NA
ATOM     34  C   UNL     1      59.513  71.531  54.155  0.00  0.00    +0.000 C 
ATOM     35  C   UNL     1      59.472  71.537  53.331  0.00  0.00    +0.000 C 
ATOM     36  C   UNL     1      59.181  72.200  52.937  0.00  0.00    +0.000 C 
ATOM     37  C   UNL     1      58.930  72.858  53.367  0.00  0.00    +0.000 C 
ATOM     38  C   UNL     1      58.971  72.853  54.191  0.00  0.00    +0.000 C 
ATOM     39  C   UNL     1      59.263  72.189  54.585  0.00  0.00    +0.000 C 
ATOM     40  N   UNL     1      60.353  69.322  52.673  0.00  0.00    +0.000 NA
ATOM     41  C   UNL     1      60.650  68.578  52.482  0.00  0.00    +0.000 C 
ATOM     42  O   UNL     1      60.708  68.347  51.691  0.00  0.00    +0.000 OA
ATOM     43  C   UNL     1      60.890  68.062  53.080  0.00  0.00    +0.000 C 
ATOM     44  C   UNL     1      60.833  68.292  53.870  0.00  0.00    +0.000 C 
ATOM     45  C   UNL     1      60.535  69.038  54.061  0.00  0.00    +0.000 C 
ATOM     46  O   UNL     1      60.295  69.552  53.463  0.00  0.00    +0.000 OA
ATOM     47  O   UNL     1      60.477  69.268  54.852  0.00  0.00    +0.000 OA
ATOM     48  N   UNL     1      61.188  67.317  52.888  0.00  0.00    +0.000 NA
ATOM     49  C   UNL     1      61.428  66.802  53.487  0.00  0.00    +0.000 C 
ATOM     50  O   UNL     1      61.370  67.033  54.276  0.00  0.00    +0.000 OA
ATOM     51  C   UNL     1      61.725  66.057  53.294  0.00  0.00    +0.000 C 
ATOM     52  N   UNL     1      61.966  65.542  53.893  0.00  0.00    +0.000 NA
ATOM     53  C   UNL     1      62.263  64.797  53.701  0.00  0.00    +0.000 C 
ATOM     54  O   UNL     1      62.498  64.295  54.312  0.00  0.00    +0.000 OA
ATOM     55  C   UNL     1      60.881  67.655  49.321  0.00  0.00    +0.000 C 
ATOM     56  N   UNL     1      60.641  68.170  48.723  0.00  0.00    +0.000 NA
ATOM     57  O   UNL     1      61.178  66.911  49.130  0.00  0.00    +0.000 OA
ENDROOT
TORSDOF 0
ENDMDL
MODEL 8
REMARK VINA RESULT:   -14.299      1.882      7.186
REMARK INTER + INTRA:         -14.299
REMARK INTER:                 -14.299
REMARK INTRA:                   0.000
REMARK UNBOUND:                 0.000
ROOT
REMARK  Name = eptifibatide
REMARK                            x       y       z     vdW  Elec       q    Type
REMARK                         _______ _______ _______ _____ _____    ______ ____
ATOM      1  N   UNL     1      59.103  73.895  49.588  0.00  0.00    +0.000 NA
ATOM      2  C   UNL     1      59.288  73.294  50.121  0.00  0.00    +0.000 C 
ATOM      3  N   UNL     1      59.200  73.420  50.931  0.00  0.00    +0.000 NA
ATOM      4  N   UNL     1      59.561  72.566  49.845  0.00  0.00    +0.000 NA
ATOM      5  C   UNL     1      59.746  71.965  50.378  0.00  0.00    +0.000 C 
ATOM      6  C   UNL     1      60.020  71.237  50.102  0.00  0.00    +0.000 C 
ATOM      7  C   UNL     1      60.205  70.636  50.635  0.00  0.00    +0.000 C 
ATOM      8  C   UNL     1      60.478  69.908  50.359  0.00  0.00    +0.000 C 
ATOM      9  C   UNL     1      60.663  69.307  50.892  0.00  0.00    +0.000 C 
ATOM     10  N   UNL     1      60.405  69.974  51.302  0.00  0.00    +0.000 NA
ATOM     11  C   UNL     1      60.423  69.801  52.109  0.00  0.00    +0.000 C 
ATOM     12  O   UNL     1      60.209  70.312  52.720  0.00  0.00    +0.000 OA
ATOM     13  C   UNL     1      60.694  69.026  52.197  0.00  0.00    +0.000 C 
ATOM     14  C   UNL     1      60.875  68.421  52.842  0.00  0.00    +0.000 C 
ATOM     15  S   UNL     1      61.152  67.663  52.672  0.00  0.00    +0.000 S 
ATOM     16  S   UNL     1      61.308  67.133  53.286  0.00  0.00    +0.000 S 
ATOM     17  C   UNL     1      61.586  66.376  53.117  0.00  0.00    +0.000 C 
ATOM     18  C   UNL     1      61.741  65.847  53.730  0.00  0.00    +0.000 C 
ATOM     19  N   UNL     1      62.020  65.089  53.560  0.00  0.00    +0.000 NA
ATOM     20  C   UNL     1      62.175  64.560  54.174  0.00  0.00    +0.000 C 
ATOM     21  O   UNL     1      62.052  64.788  54.957  0.00  0.00    +0.000 OA
ATOM     22  C   UNL     1      62.453  63.802  54.004  0.00  0.00    +0.000 C 
ATOM     23  C   UNL     1      62.653  63.166  54.491  0.00  0.00    +0.000 C 
ATOM     24  C   UNL     1      62.900  62.543  54.008  0.00  0.00    +0.000 C 
ATOM     25  C   UNL     1      62.852  62.795  53.223  0.00  0.00    +0.000 C 
ATOM     26  N   UNL     1      62.576  63.573  53.222  0.00  0.00    +0.000 N 
ATOM     27  C   UNL     1      62.421  64.102  52.608  0.00  0.00    +0.000 C 
ATOM     28  O   UNL     1      62.142  64.860  52.777  0.00  0.00    +0.000 OA
ATOM     29  C   UNL     1      62.543  63.873  51.825  0.00  0.00    +0.000 C 
ATOM     30  C   UNL     1      62.821  63.115  51.655  0.00  0.00    +0.000 C 
ATOM     31  C   UNL     1      62.944  62.886  50.872  0.00  0.00    +0.000 C 
ATOM     32  C   UNL     1      62.814  63.353  50.205  0.00  0.00    +0.000 C 
ATOM     33  N   UNL     1      63.008  62.906  49.539  0.00  0.00    +0.000 NA
ATOM     34  C   UNL     1      63.258  62.163  49.795  0.00  0.00    +0.000 C 
ATOM     35  C   UNL     1      63.219  62.151  50.619  0.00  0.00    +0.000 C 
ATOM     36  C   UNL     1      63.438  61.472  51.033  0.00  0.00    +0.000 C 
ATOM     37  C   UNL     1      63.697  60.804  50.623  0.00  0.00    +0.000 C 
ATOM     38  C   UNL     1      63.736  60.815  49.799  0.00  0.00    +0.000 C 
ATOM     39  C   UNL     1      63.517  61.495  49.385  0.00  0.00    +0.000 C 
ATOM     40  N   UNL     1      62.388  64.402  51.211  0.00  0.00    +0.000 NA
ATOM     41  C   UNL     1      62.110  65.160  51.380  0.00  0.00    +0.000 C 
ATOM     42  O   UNL     1      61.987  65.389  52.164  0.00  0.00    +0.000 OA
ATOM     43  C   UNL     1      61.954  65.689  50.767  0.00  0.00    +0.000 C 
ATOM     44  C   UNL     1      62.077  65.461  49.984  0.00  0.00    +0.000 C 
ATOM     45  C   UNL     1      62.355  64.703  49.815  0.00  0.00    +0.000 C 
ATOM     46  O   UNL     1      62.511  64.174  50.429  0.00  0.00    +0.000 OA
ATOM     47  O   UNL     1      62.478  64.474  49.031  0.00  0.00    +0.000 OA
ATOM     48  N   UNL     1      61.676  66.447  50.937  0.00  0.00    +0.000 NA
ATOM     49  C   UNL     1      61.521  66.977  50.323  0.00  0.00    +0.000 C 
ATOM     50  O   UNL     1      61.644  66.747  49.540  0.00  0.00    +0.000 OA
ATOM     51  C   UNL     1      61.243  67.734  50.493  0.00  0.00    +0.000 C 
ATOM     52  N   UNL     1      61.087  68.264  49.879  0.00  0.00    +0.000 NA
ATOM     53  C   UNL     1      60.809  69.021  50.049  0.00  0.00    +0.000 C 
ATOM     54  O   UNL     1      60.659  69.538  49.423  0.00  0.00    +0.000 OA
ATOM     55  C   UNL     1      61.619  66.076  54.513  0.00  0.00    +0.000 C 
ATOM     56  N   UNL     1      61.774  65.547  55.126  0.00  0.00    +0.000 NA
ATOM     57  O   UNL     1      61.341  66.833  54.682  0.00  0.00    +0.000 OA
ENDROOT
TORSDOF 0
ENDMDL
