MODEL 1
REMARK VINA RESULT:   -16.789      0.000      0.000
REMARK INTER + INTRA:         -16.789
REMARK INTER:                 -16.789
REMARK INTRA:                   0.000
REMARK UNBOUND:                 0.000
ROOT
REMARK  Name = ergotamine
REMARK                            x       y       z     vdW  Elec       q    Type
REMARK                         _______ _______ _______ _____ _____    ______ ____
ATOM      1  C   UNL     1      63.201  65.647  71.335  0.00  0.00    +0.000 C 
ATOM      2  N   UNL     1      62.578  65.259  70.954  0.00  0.00    +0.000 NA
ATOM      3  C   UNL     1      62.695  64.923  70.211  0.00  0.00    +0.000 C 
ATOM      4  C   UNL     1      62.073  64.536  69.831  0.00  0.00    +0.000 C 
ATOM      5  C   UNL     1      61.334  64.486  70.195  0.00  0.00    +0.000 C 
ATOM      6  C   UNL     1      61.218  64.823  70.940  0.00  0.00    +0.000 C 
ATOM      7  C   UNL     1      61.839  65.210  71.319  0.00  0.00    +0.000 C 
ATOM      8  C   UNL     1      61.723  65.546  72.063  0.00  0.00    +0.000 C 
ATOM      9  C   UNL     1      60.984  65.496  72.428  0.00  0.00    +0.000 C 
ATOM     10  C   UNL     1      60.707  65.773  73.153  0.00  0.00    +0.000 C 
ATOM     11  N   UNL     1      59.914  65.558  73.222  0.00  0.00    +0.000 NA
ATOM     12  C   UNL     1      59.701  65.148  72.539  0.00  0.00    +0.000 C 
ATOM     13  C   UNL     1      58.990  64.804  72.301  0.00  0.00    +0.000 C 
ATOM     14  C   UNL     1      58.940  64.422  71.571  0.00  0.00    +0.000 C 
ATOM     15  C   UNL     1      59.602  64.384  71.079  0.00  0.00    +0.000 C 
ATOM     16  C   UNL     1      60.479  64.773  71.303  0.00  0.00    +0.000 C 
ATOM     17  C   UNL     1      60.362  65.110  72.048  0.00  0.00    +0.000 C 
ATOM     18  C   UNL     1      62.189  64.199  69.086  0.00  0.00    +0.000 C 
ATOM     19  O   UNL     1      62.928  64.250  68.723  0.00  0.00    +0.000 OA
ATOM     20  N   UNL     1      61.568  63.813  68.707  0.00  0.00    +0.000 NA
ATOM     21  C   UNL     1      61.684  63.476  67.963  0.00  0.00    +0.000 C 
ATOM     22  C   UNL     1      62.453  63.762  68.050  0.00  0.00    +0.000 C 
ATOM     23  O   UNL     1      60.891  63.261  68.032  0.00  0.00    +0.000 OA
ATOM     24  C   UNL     1      60.677  62.851  67.348  0.00  0.00    +0.000 C 
ATOM     25  O   UNL     1      60.066  62.932  67.896  0.00  0.00    +0.000 OA
ATOM     26  C   UNL     1      59.967  62.507  67.110  0.00  0.00    +0.000 C 
ATOM     27  C   UNL     1      59.228  62.457  67.474  0.00  0.00    +0.000 C 
ATOM     28  C   UNL     1      58.723  62.044  66.970  0.00  0.00    +0.000 C 
ATOM     29  C   UNL     1      59.148  61.839  66.293  0.00  0.00    +0.000 C 
ATOM     30  N   UNL     1      59.917  62.125  66.380  0.00  0.00    +0.000 N 
ATOM     31  C   UNL     1      60.579  62.087  65.888  0.00  0.00    +0.000 C 
ATOM     32  O   UNL     1      60.530  61.705  65.159  0.00  0.00    +0.000 OA
ATOM     33  C   UNL     1      61.290  62.431  66.127  0.00  0.00    +0.000 C 
ATOM     34  C   UNL     1      61.952  62.393  65.636  0.00  0.00    +0.000 C 
ATOM     35  C   UNL     1      61.903  62.011  64.906  0.00  0.00    +0.000 A 
ATOM     36  C   UNL     1      61.191  61.668  64.668  0.00  0.00    +0.000 A 
ATOM     37  C   UNL     1      61.142  61.286  63.938  0.00  0.00    +0.000 A 
ATOM     38  C   UNL     1      61.804  61.248  63.447  0.00  0.00    +0.000 A 
ATOM     39  C   UNL     1      62.515  61.592  63.685  0.00  0.00    +0.000 A 
ATOM     40  C   UNL     1      62.564  61.974  64.415  0.00  0.00    +0.000 A 
ATOM     41  N   UNL     1      61.339  62.813  66.857  0.00  0.00    +0.000 N 
ATOM     42  C   UNL     1      61.961  63.199  67.237  0.00  0.00    +0.000 C 
ATOM     43  O   UNL     1      62.726  63.293  66.943  0.00  0.00    +0.000 OA
ENDROOT
TORSDOF 0
ENDMDL
MODEL 2
REMARK VINA RESULT:   -14.268     14.079     16.480
REMARK INTER + INTRA:         -14.268
REMARK INTER:                 -14.268
REMARK INTRA:                   0.000
REMARK UNBOUND:                 0.000
ROOT
REMARK  Name = ergotamine
REMARK                            x       y       z     vdW  Elec       q    Type
REMARK                         _______ _______ _______ _____ _____    ______ ____
ATOM      1  C   UNL     1      61.780  62.705  50.772  0.00  0.00    +0.000 C 
ATOM      2  N   UNL     1      62.046  63.161  51.407  0.00  0.00    +0.000 NA
ATOM      3  C   UNL     1      61.734  63.914  51.532  0.00  0.00    +0.000 C 
ATOM      4  C   UNL     1      62.000  64.370  52.166  0.00  0.00    +0.000 C 
ATOM      5  C   UNL     1      62.577  64.073  52.676  0.00  0.00    +0.000 C 
ATOM      6  C   UNL     1      62.888  63.318  52.550  0.00  0.00    +0.000 C 
ATOM      7  C   UNL     1      62.622  62.863  51.916  0.00  0.00    +0.000 C 
ATOM      8  C   UNL     1      62.933  62.109  51.791  0.00  0.00    +0.000 C 
ATOM      9  C   UNL     1      63.510  61.811  52.300  0.00  0.00    +0.000 C 
ATOM     10  C   UNL     1      63.915  61.093  52.314  0.00  0.00    +0.000 C 
ATOM     11  N   UNL     1      64.431  61.104  52.957  0.00  0.00    +0.000 NA
ATOM     12  C   UNL     1      64.345  61.830  53.341  0.00  0.00    +0.000 C 
ATOM     13  C   UNL     1      64.712  62.149  54.007  0.00  0.00    +0.000 C 
ATOM     14  C   UNL     1      64.508  62.905  54.267  0.00  0.00    +0.000 C 
ATOM     15  C   UNL     1      63.939  63.342  53.860  0.00  0.00    +0.000 C 
ATOM     16  C   UNL     1      63.464  63.021  53.060  0.00  0.00    +0.000 C 
ATOM     17  C   UNL     1      63.776  62.266  52.934  0.00  0.00    +0.000 C 
ATOM     18  C   UNL     1      61.689  65.124  52.292  0.00  0.00    +0.000 C 
ATOM     19  O   UNL     1      61.112  65.422  51.783  0.00  0.00    +0.000 OA
ATOM     20  N   UNL     1      61.954  65.580  52.926  0.00  0.00    +0.000 NA
ATOM     21  C   UNL     1      61.643  66.333  53.052  0.00  0.00    +0.000 C 
ATOM     22  C   UNL     1      61.192  66.164  52.382  0.00  0.00    +0.000 C 
ATOM     23  O   UNL     1      62.159  66.345  53.695  0.00  0.00    +0.000 OA
ATOM     24  C   UNL     1      62.073  67.070  54.078  0.00  0.00    +0.000 C 
ATOM     25  O   UNL     1      62.629  66.571  54.427  0.00  0.00    +0.000 OA
ATOM     26  C   UNL     1      62.439  67.390  54.745  0.00  0.00    +0.000 C 
ATOM     27  C   UNL     1      63.016  67.091  55.254  0.00  0.00    +0.000 C 
ATOM     28  C   UNL     1      63.169  67.664  55.828  0.00  0.00    +0.000 C 
ATOM     29  C   UNL     1      62.687  68.315  55.675  0.00  0.00    +0.000 C 
ATOM     30  N   UNL     1      62.236  68.146  55.005  0.00  0.00    +0.000 N 
ATOM     31  C   UNL     1      61.666  68.583  54.598  0.00  0.00    +0.000 C 
ATOM     32  O   UNL     1      61.463  69.339  54.858  0.00  0.00    +0.000 OA
ATOM     33  C   UNL     1      61.300  68.263  53.931  0.00  0.00    +0.000 C 
ATOM     34  C   UNL     1      60.730  68.701  53.524  0.00  0.00    +0.000 C 
ATOM     35  C   UNL     1      60.527  69.457  53.784  0.00  0.00    +0.000 A 
ATOM     36  C   UNL     1      60.893  69.776  54.451  0.00  0.00    +0.000 A 
ATOM     37  C   UNL     1      60.690  70.532  54.711  0.00  0.00    +0.000 A 
ATOM     38  C   UNL     1      60.120  70.969  54.304  0.00  0.00    +0.000 A 
ATOM     39  C   UNL     1      59.754  70.650  53.637  0.00  0.00    +0.000 A 
ATOM     40  C   UNL     1      59.958  69.893  53.378  0.00  0.00    +0.000 A 
ATOM     41  N   UNL     1      61.503  67.507  53.671  0.00  0.00    +0.000 N 
ATOM     42  C   UNL     1      61.238  67.052  53.037  0.00  0.00    +0.000 C 
ATOM     43  O   UNL     1      60.667  67.275  52.485  0.00  0.00    +0.000 OA
ENDROOT
TORSDOF 0
ENDMDL
MODEL 3
REMARK VINA RESULT:   -13.933     14.280     16.133
REMARK INTER + INTRA:         -13.933
REMARK INTER:                 -13.933
REMARK INTRA:                   0.000
REMARK UNBOUND:                 0.000
ROOT
REMARK  Name = ergotamine
REMARK                            x       y       z     vdW  Elec       q    Type
REMARK                         _______ _______ _______ _____ _____    ______ ____
ATOM      1  C   UNL     1      62.001  67.981  55.326  0.00  0.00    +0.000 C 
ATOM      2  N   UNL     1      62.051  67.516  54.646  0.00  0.00    +0.000 NA
ATOM      3  C   UNL     1      62.206  66.708  54.709  0.00  0.00    +0.000 C 
ATOM      4  C   UNL     1      62.256  66.243  54.030  0.00  0.00    +0.000 C 
ATOM      5  C   UNL     1      62.151  66.585  53.287  0.00  0.00    +0.000 C 
ATOM      6  C   UNL     1      61.995  67.394  53.223  0.00  0.00    +0.000 C 
ATOM      7  C   UNL     1      61.945  67.859  53.903  0.00  0.00    +0.000 C 
ATOM      8  C   UNL     1      61.790  68.666  53.839  0.00  0.00    +0.000 C 
ATOM      9  C   UNL     1      61.685  69.009  53.096  0.00  0.00    +0.000 C 
ATOM     10  C   UNL     1      61.526  69.784  52.864  0.00  0.00    +0.000 C 
ATOM     11  N   UNL     1      61.478  69.799  52.040  0.00  0.00    +0.000 NA
ATOM     12  C   UNL     1      61.607  69.032  51.764  0.00  0.00    +0.000 C 
ATOM     13  C   UNL     1      61.625  68.715  51.002  0.00  0.00    +0.000 C 
ATOM     14  C   UNL     1      61.770  67.910  50.894  0.00  0.00    +0.000 C 
ATOM     15  C   UNL     1      61.897  67.422  51.547  0.00  0.00    +0.000 C 
ATOM     16  C   UNL     1      61.890  67.736  52.480  0.00  0.00    +0.000 C 
ATOM     17  C   UNL     1      61.735  68.544  52.417  0.00  0.00    +0.000 C 
ATOM     18  C   UNL     1      62.411  65.435  54.093  0.00  0.00    +0.000 C 
ATOM     19  O   UNL     1      62.516  65.093  54.836  0.00  0.00    +0.000 OA
ATOM     20  N   UNL     1      62.461  64.970  53.414  0.00  0.00    +0.000 NA
ATOM     21  C   UNL     1      62.616  64.163  53.477  0.00  0.00    +0.000 C 
ATOM     22  C   UNL     1      62.632  64.317  54.288  0.00  0.00    +0.000 C 
ATOM     23  O   UNL     1      62.568  64.177  52.654  0.00  0.00    +0.000 OA
ATOM     24  C   UNL     1      62.697  63.410  52.378  0.00  0.00    +0.000 C 
ATOM     25  O   UNL     1      62.560  63.963  51.781  0.00  0.00    +0.000 OA
ATOM     26  C   UNL     1      62.714  63.093  51.616  0.00  0.00    +0.000 C 
ATOM     27  C   UNL     1      62.609  63.436  50.874  0.00  0.00    +0.000 C 
ATOM     28  C   UNL     1      62.689  62.842  50.306  0.00  0.00    +0.000 C 
ATOM     29  C   UNL     1      62.844  62.133  50.697  0.00  0.00    +0.000 C 
ATOM     30  N   UNL     1      62.860  62.288  51.508  0.00  0.00    +0.000 N 
ATOM     31  C   UNL     1      62.987  61.800  52.161  0.00  0.00    +0.000 C 
ATOM     32  O   UNL     1      63.132  60.995  52.052  0.00  0.00    +0.000 OA
ATOM     33  C   UNL     1      62.970  62.117  52.922  0.00  0.00    +0.000 C 
ATOM     34  C   UNL     1      63.097  61.629  53.575  0.00  0.00    +0.000 C 
ATOM     35  C   UNL     1      63.243  60.824  53.467  0.00  0.00    +0.000 A 
ATOM     36  C   UNL     1      63.260  60.508  52.705  0.00  0.00    +0.000 A 
ATOM     37  C   UNL     1      63.405  59.703  52.596  0.00  0.00    +0.000 A 
ATOM     38  C   UNL     1      63.533  59.215  53.249  0.00  0.00    +0.000 A 
ATOM     39  C   UNL     1      63.515  59.531  54.011  0.00  0.00    +0.000 A 
ATOM     40  C   UNL     1      63.370  60.337  54.119  0.00  0.00    +0.000 A 
ATOM     41  N   UNL     1      62.825  62.922  53.031  0.00  0.00    +0.000 N 
ATOM     42  C   UNL     1      62.775  63.387  53.710  0.00  0.00    +0.000 C 
ATOM     43  O   UNL     1      62.867  63.123  54.486  0.00  0.00    +0.000 OA
ENDROOT
TORSDOF 0
ENDMDL
MODEL 4
REMARK VINA RESULT:   -13.903     14.062     15.992
REMARK INTER + INTRA:         -13.903
REMARK INTER:                 -13.903
REMARK INTRA:                   0.000
REMARK UNBOUND:                 0.000
ROOT
REMARK  Name = ergotamine
REMARK                            x       y       z     vdW  Elec       q    Type
REMARK                         _______ _______ _______ _____ _____    ______ ____
ATOM      1  C   UNL     1      60.466  68.246  52.265  0.00  0.00    +0.000 C 
ATOM      2  N   UNL     1      60.953  67.684  52.623  0.00  0.00    +0.000 NA
ATOM      3  C   UNL     1      61.068  66.951  52.264  0.00  0.00    +0.000 C 
ATOM      4  C   UNL     1      61.555  66.389  52.622  0.00  0.00    +0.000 C 
ATOM      5  C   UNL     1      61.926  66.560  53.339  0.00  0.00    +0.000 C 
ATOM      6  C   UNL     1      61.811  67.295  53.697  0.00  0.00    +0.000 C 
ATOM      7  C   UNL     1      61.324  67.857  53.339  0.00  0.00    +0.000 C 
ATOM      8  C   UNL     1      61.208  68.590  53.698  0.00  0.00    +0.000 C 
ATOM      9  C   UNL     1      61.579  68.763  54.415  0.00  0.00    +0.000 C 
ATOM     10  C   UNL     1      61.569  69.433  54.894  0.00  0.00    +0.000 C 
ATOM     11  N   UNL     1      62.049  69.287  55.548  0.00  0.00    +0.000 NA
ATOM     12  C   UNL     1      62.357  68.524  55.473  0.00  0.00    +0.000 C 
ATOM     13  C   UNL     1      62.863  68.084  55.952  0.00  0.00    +0.000 C 
ATOM     14  C   UNL     1      63.079  67.319  55.731  0.00  0.00    +0.000 C 
ATOM     15  C   UNL     1      62.789  66.995  55.029  0.00  0.00    +0.000 C 
ATOM     16  C   UNL     1      62.182  67.466  54.414  0.00  0.00    +0.000 C 
ATOM     17  C   UNL     1      62.066  68.201  54.773  0.00  0.00    +0.000 C 
ATOM     18  C   UNL     1      61.671  65.654  52.263  0.00  0.00    +0.000 C 
ATOM     19  O   UNL     1      61.300  65.483  51.547  0.00  0.00    +0.000 OA
ATOM     20  N   UNL     1      62.157  65.093  52.621  0.00  0.00    +0.000 NA
ATOM     21  C   UNL     1      62.273  64.359  52.263  0.00  0.00    +0.000 C 
ATOM     22  C   UNL     1      61.768  64.660  51.683  0.00  0.00    +0.000 C 
ATOM     23  O   UNL     1      62.753  64.212  52.917  0.00  0.00    +0.000 OA
ATOM     24  C   UNL     1      63.061  63.450  52.842  0.00  0.00    +0.000 C 
ATOM     25  O   UNL     1      63.306  63.845  53.523  0.00  0.00    +0.000 OA
ATOM     26  C   UNL     1      63.567  63.009  53.321  0.00  0.00    +0.000 C 
ATOM     27  C   UNL     1      63.938  63.181  54.037  0.00  0.00    +0.000 C 
ATOM     28  C   UNL     1      64.384  62.523  54.258  0.00  0.00    +0.000 C 
ATOM     29  C   UNL     1      64.288  61.944  53.679  0.00  0.00    +0.000 C 
ATOM     30  N   UNL     1      63.783  62.244  53.099  0.00  0.00    +0.000 N 
ATOM     31  C   UNL     1      63.493  61.920  52.398  0.00  0.00    +0.000 C 
ATOM     32  O   UNL     1      63.709  61.155  52.176  0.00  0.00    +0.000 OA
ATOM     33  C   UNL     1      62.986  62.361  51.919  0.00  0.00    +0.000 C 
ATOM     34  C   UNL     1      62.695  62.037  51.218  0.00  0.00    +0.000 C 
ATOM     35  C   UNL     1      62.911  61.273  50.996  0.00  0.00    +0.000 A 
ATOM     36  C   UNL     1      63.418  60.832  51.475  0.00  0.00    +0.000 A 
ATOM     37  C   UNL     1      63.634  60.067  51.253  0.00  0.00    +0.000 A 
ATOM     38  C   UNL     1      63.344  59.743  50.552  0.00  0.00    +0.000 A 
ATOM     39  C   UNL     1      62.837  60.184  50.073  0.00  0.00    +0.000 A 
ATOM     40  C   UNL     1      62.621  60.949  50.295  0.00  0.00    +0.000 A 
ATOM     41  N   UNL     1      62.770  63.126  52.141  0.00  0.00    +0.000 N 
ATOM     42  C   UNL     1      62.283  63.688  51.783  0.00  0.00    +0.000 C 
ATOM     43  O   UNL     1      61.878  63.595  51.071  0.00  0.00    +0.000 OA
ENDROOT
TORSDOF 0
ENDMDL
