MODEL 1
REMARK VINA RESULT:    -8.922      0.000      0.000
REMARK INTER + INTRA:          -8.922
REMARK INTER:                  -8.922
REMARK INTRA:                   0.000
REMARK UNBOUND:                 0.000
ROOT
REMARK  Name = eritrityl tetranitrate
REMARK                            x       y       z     vdW  Elec       q    Type
REMARK                         _______ _______ _______ _____ _____    ______ ____
ATOM      1  O   UNL     1      60.518  60.445  63.010  0.00  0.00    +0.000 OA
ATOM      2  N   UNL     1      60.957  60.920  63.523  0.00  0.00    +0.000 N 
ATOM      3  O   UNL     1      61.740  61.107  63.343  0.00  0.00    +0.000 OA
ATOM      4  O   UNL     1      60.612  61.206  64.215  0.00  0.00    +0.000 OA
ATOM      5  C   UNL     1      61.051  61.681  64.728  0.00  0.00    +0.000 C 
ATOM      6  C   UNL     1      60.707  61.967  65.421  0.00  0.00    +0.000 C 
ATOM      7  O   UNL     1      59.923  61.780  65.600  0.00  0.00    +0.000 OA
ATOM      8  N   UNL     1      59.580  62.068  66.293  0.00  0.00    +0.000 N 
ATOM      9  O   UNL     1      60.018  62.542  66.806  0.00  0.00    +0.000 OA
ATOM     10  O   UNL     1      58.796  61.880  66.473  0.00  0.00    +0.000 OA
ATOM     11  C   UNL     1      61.146  62.442  65.934  0.00  0.00    +0.000 C 
ATOM     12  C   UNL     1      60.801  62.729  66.626  0.00  0.00    +0.000 C 
ATOM     13  O   UNL     1      61.240  63.203  67.140  0.00  0.00    +0.000 OA
ATOM     14  N   UNL     1      60.895  63.490  67.832  0.00  0.00    +0.000 N 
ATOM     15  O   UNL     1      61.335  63.965  68.345  0.00  0.00    +0.000 OA
ATOM     16  O   UNL     1      60.112  63.303  68.011  0.00  0.00    +0.000 OA
ATOM     17  O   UNL     1      61.929  62.629  65.754  0.00  0.00    +0.000 OA
ATOM     18  N   UNL     1      62.273  62.342  65.061  0.00  0.00    +0.000 N 
ATOM     19  O   UNL     1      61.835  61.868  64.549  0.00  0.00    +0.000 OA
ATOM     20  O   UNL     1      63.056  62.529  64.882  0.00  0.00    +0.000 OA
ENDROOT
TORSDOF 0
ENDMDL
MODEL 2
REMARK VINA RESULT:    -8.895      0.099      3.974
REMARK INTER + INTRA:          -8.895
REMARK INTER:                  -8.895
REMARK INTRA:                   0.000
REMARK UNBOUND:                 0.000
ROOT
REMARK  Name = eritrityl tetranitrate
REMARK                            x       y       z     vdW  Elec       q    Type
REMARK                         _______ _______ _______ _____ _____    ______ ____
ATOM      1  O   UNL     1      61.452  63.856  68.389  0.00  0.00    +0.000 OA
ATOM      2  N   UNL     1      61.002  63.407  67.863  0.00  0.00    +0.000 N 
ATOM      3  O   UNL     1      60.213  63.237  68.035  0.00  0.00    +0.000 OA
ATOM      4  O   UNL     1      61.342  63.129  67.165  0.00  0.00    +0.000 OA
ATOM      5  C   UNL     1      60.892  62.680  66.638  0.00  0.00    +0.000 C 
ATOM      6  C   UNL     1      61.232  62.401  65.940  0.00  0.00    +0.000 C 
ATOM      7  O   UNL     1      62.021  62.571  65.768  0.00  0.00    +0.000 OA
ATOM      8  N   UNL     1      62.360  62.291  65.070  0.00  0.00    +0.000 N 
ATOM      9  O   UNL     1      61.911  61.843  64.544  0.00  0.00    +0.000 OA
ATOM     10  O   UNL     1      63.149  62.461  64.898  0.00  0.00    +0.000 OA
ATOM     11  C   UNL     1      60.782  61.952  65.413  0.00  0.00    +0.000 C 
ATOM     12  C   UNL     1      61.122  61.673  64.715  0.00  0.00    +0.000 C 
ATOM     13  O   UNL     1      60.672  61.224  64.188  0.00  0.00    +0.000 OA
ATOM     14  N   UNL     1      61.012  60.946  63.490  0.00  0.00    +0.000 N 
ATOM     15  O   UNL     1      60.562  60.497  62.963  0.00  0.00    +0.000 OA
ATOM     16  O   UNL     1      61.801  61.115  63.319  0.00  0.00    +0.000 OA
ATOM     17  O   UNL     1      59.993  61.782  65.585  0.00  0.00    +0.000 OA
ATOM     18  N   UNL     1      59.654  62.062  66.284  0.00  0.00    +0.000 N 
ATOM     19  O   UNL     1      60.103  62.510  66.810  0.00  0.00    +0.000 OA
ATOM     20  O   UNL     1      58.865  61.892  66.455  0.00  0.00    +0.000 OA
ENDROOT
TORSDOF 0
ENDMDL
MODEL 3
REMARK VINA RESULT:    -8.566      1.570      3.247
REMARK INTER + INTRA:          -8.566
REMARK INTER:                  -8.566
REMARK INTRA:                   0.000
REMARK UNBOUND:                 0.000
ROOT
REMARK  Name = eritrityl tetranitrate
REMARK                            x       y       z     vdW  Elec       q    Type
REMARK                         _______ _______ _______ _____ _____    ______ ____
ATOM      1  O   UNL     1      62.393  62.282  65.322  0.00  0.00    +0.000 OA
ATOM      2  N   UNL     1      61.740  62.399  65.812  0.00  0.00    +0.000 N 
ATOM      3  O   UNL     1      60.991  62.157  65.565  0.00  0.00    +0.000 OA
ATOM      4  O   UNL     1      61.837  62.757  66.548  0.00  0.00    +0.000 OA
ATOM      5  C   UNL     1      61.183  62.875  67.039  0.00  0.00    +0.000 C 
ATOM      6  C   UNL     1      61.279  63.234  67.775  0.00  0.00    +0.000 C 
ATOM      7  O   UNL     1      62.029  63.475  68.022  0.00  0.00    +0.000 OA
ATOM      8  N   UNL     1      62.124  63.834  68.759  0.00  0.00    +0.000 N 
ATOM      9  O   UNL     1      61.471  63.951  69.248  0.00  0.00    +0.000 OA
ATOM     10  O   UNL     1      62.873  64.075  69.005  0.00  0.00    +0.000 OA
ATOM     11  C   UNL     1      60.625  63.351  68.265  0.00  0.00    +0.000 C 
ATOM     12  C   UNL     1      60.722  63.710  69.002  0.00  0.00    +0.000 C 
ATOM     13  O   UNL     1      60.068  63.827  69.492  0.00  0.00    +0.000 OA
ATOM     14  N   UNL     1      60.165  64.186  70.228  0.00  0.00    +0.000 N 
ATOM     15  O   UNL     1      59.511  64.303  70.719  0.00  0.00    +0.000 OA
ATOM     16  O   UNL     1      60.914  64.427  70.475  0.00  0.00    +0.000 OA
ATOM     17  O   UNL     1      59.876  63.110  68.019  0.00  0.00    +0.000 OA
ATOM     18  N   UNL     1      59.781  62.751  67.282  0.00  0.00    +0.000 N 
ATOM     19  O   UNL     1      60.433  62.633  66.792  0.00  0.00    +0.000 OA
ATOM     20  O   UNL     1      59.031  62.509  67.035  0.00  0.00    +0.000 OA
ENDROOT
TORSDOF 0
ENDMDL
MODEL 4
REMARK VINA RESULT:    -8.527      1.528      4.216
REMARK INTER + INTRA:          -8.527
REMARK INTER:                  -8.527
REMARK INTRA:                   0.000
REMARK UNBOUND:                 0.000
ROOT
REMARK  Name = eritrityl tetranitrate
REMARK                            x       y       z     vdW  Elec       q    Type
REMARK                         _______ _______ _______ _____ _____    ______ ____
ATOM      1  O   UNL     1      59.396  64.857  70.190  0.00  0.00    +0.000 OA
ATOM      2  N   UNL     1      60.068  64.592  69.793  0.00  0.00    +0.000 N 
ATOM      3  O   UNL     1      60.818  64.801  70.066  0.00  0.00    +0.000 OA
ATOM      4  O   UNL     1      59.990  64.116  69.124  0.00  0.00    +0.000 OA
ATOM      5  C   UNL     1      60.663  63.850  68.726  0.00  0.00    +0.000 C 
ATOM      6  C   UNL     1      60.585  63.374  68.057  0.00  0.00    +0.000 C 
ATOM      7  O   UNL     1      59.835  63.165  67.785  0.00  0.00    +0.000 OA
ATOM      8  N   UNL     1      59.758  62.689  67.115  0.00  0.00    +0.000 N 
ATOM      9  O   UNL     1      60.430  62.423  66.718  0.00  0.00    +0.000 OA
ATOM     10  O   UNL     1      59.009  62.479  66.842  0.00  0.00    +0.000 OA
ATOM     11  C   UNL     1      61.258  63.108  67.660  0.00  0.00    +0.000 C 
ATOM     12  C   UNL     1      61.180  62.633  66.990  0.00  0.00    +0.000 C 
ATOM     13  O   UNL     1      61.853  62.366  66.593  0.00  0.00    +0.000 OA
ATOM     14  N   UNL     1      61.775  61.891  65.924  0.00  0.00    +0.000 N 
ATOM     15  O   UNL     1      62.448  61.625  65.526  0.00  0.00    +0.000 OA
ATOM     16  O   UNL     1      61.025  61.681  65.651  0.00  0.00    +0.000 OA
ATOM     17  O   UNL     1      62.008  63.318  67.932  0.00  0.00    +0.000 OA
ATOM     18  N   UNL     1      62.085  63.794  68.602  0.00  0.00    +0.000 N 
ATOM     19  O   UNL     1      61.413  64.060  68.999  0.00  0.00    +0.000 OA
ATOM     20  O   UNL     1      62.835  64.004  68.874  0.00  0.00    +0.000 OA
ENDROOT
TORSDOF 0
ENDMDL
MODEL 5
REMARK VINA RESULT:    -8.401      1.843      4.445
REMARK INTER + INTRA:          -8.401
REMARK INTER:                  -8.401
REMARK INTRA:                   0.000
REMARK UNBOUND:                 0.000
ROOT
REMARK  Name = eritrityl tetranitrate
REMARK                            x       y       z     vdW  Elec       q    Type
REMARK                         _______ _______ _______ _____ _____    ______ ____
ATOM      1  O   UNL     1      63.578  64.433  69.507  0.00  0.00    +0.000 OA
ATOM      2  N   UNL     1      62.773  64.270  69.428  0.00  0.00    +0.000 N 
ATOM      3  O   UNL     1      62.246  64.492  70.022  0.00  0.00    +0.000 OA
ATOM      4  O   UNL     1      62.496  63.885  68.753  0.00  0.00    +0.000 OA
ATOM      5  C   UNL     1      61.691  63.722  68.673  0.00  0.00    +0.000 C 
ATOM      6  C   UNL     1      61.414  63.337  67.998  0.00  0.00    +0.000 C 
ATOM      7  O   UNL     1      61.941  63.115  67.403  0.00  0.00    +0.000 OA
ATOM      8  N   UNL     1      61.663  62.730  66.729  0.00  0.00    +0.000 N 
ATOM      9  O   UNL     1      60.858  62.567  66.648  0.00  0.00    +0.000 OA
ATOM     10  O   UNL     1      62.190  62.509  66.134  0.00  0.00    +0.000 OA
ATOM     11  C   UNL     1      60.609  63.174  67.918  0.00  0.00    +0.000 C 
ATOM     12  C   UNL     1      60.331  62.789  67.243  0.00  0.00    +0.000 C 
ATOM     13  O   UNL     1      59.526  62.625  67.163  0.00  0.00    +0.000 OA
ATOM     14  N   UNL     1      59.249  62.241  66.489  0.00  0.00    +0.000 N 
ATOM     15  O   UNL     1      58.444  62.077  66.409  0.00  0.00    +0.000 OA
ATOM     16  O   UNL     1      59.776  62.019  65.894  0.00  0.00    +0.000 OA
ATOM     17  O   UNL     1      60.082  63.395  68.513  0.00  0.00    +0.000 OA
ATOM     18  N   UNL     1      60.360  63.780  69.188  0.00  0.00    +0.000 N 
ATOM     19  O   UNL     1      61.164  63.944  69.268  0.00  0.00    +0.000 OA
ATOM     20  O   UNL     1      59.833  64.002  69.782  0.00  0.00    +0.000 OA
ENDROOT
TORSDOF 0
ENDMDL
MODEL 6
REMARK VINA RESULT:    -8.285      3.822      6.653
REMARK INTER + INTRA:          -8.285
REMARK INTER:                  -8.285
REMARK INTRA:                   0.000
REMARK UNBOUND:                 0.000
ROOT
REMARK  Name = eritrityl tetranitrate
REMARK                            x       y       z     vdW  Elec       q    Type
REMARK                         _______ _______ _______ _____ _____    ______ ____
ATOM      1  O   UNL     1      59.011  67.244  72.649  0.00  0.00    +0.000 OA
ATOM      2  N   UNL     1      59.116  67.083  71.847  0.00  0.00    +0.000 N 
ATOM      3  O   UNL     1      59.012  67.681  71.288  0.00  0.00    +0.000 OA
ATOM      4  O   UNL     1      59.324  66.322  71.604  0.00  0.00    +0.000 OA
ATOM      5  C   UNL     1      59.429  66.161  70.801  0.00  0.00    +0.000 C 
ATOM      6  C   UNL     1      59.637  65.400  70.558  0.00  0.00    +0.000 C 
ATOM      7  O   UNL     1      59.741  64.802  71.116  0.00  0.00    +0.000 OA
ATOM      8  N   UNL     1      59.950  64.042  70.872  0.00  0.00    +0.000 N 
ATOM      9  O   UNL     1      60.054  63.880  70.070  0.00  0.00    +0.000 OA
ATOM     10  O   UNL     1      60.054  63.444  71.430  0.00  0.00    +0.000 OA
ATOM     11  C   UNL     1      59.742  65.239  69.755  0.00  0.00    +0.000 C 
ATOM     12  C   UNL     1      59.950  64.478  69.512  0.00  0.00    +0.000 C 
ATOM     13  O   UNL     1      60.055  64.316  68.709  0.00  0.00    +0.000 OA
ATOM     14  N   UNL     1      60.263  63.556  68.466  0.00  0.00    +0.000 N 
ATOM     15  O   UNL     1      60.368  63.394  67.663  0.00  0.00    +0.000 OA
ATOM     16  O   UNL     1      60.367  62.958  69.025  0.00  0.00    +0.000 OA
ATOM     17  O   UNL     1      59.638  65.837  69.196  0.00  0.00    +0.000 OA
ATOM     18  N   UNL     1      59.429  66.597  69.441  0.00  0.00    +0.000 N 
ATOM     19  O   UNL     1      59.325  66.759  70.242  0.00  0.00    +0.000 OA
ATOM     20  O   UNL     1      59.325  67.195  68.882  0.00  0.00    +0.000 OA
ENDROOT
TORSDOF 0
ENDMDL
MODEL 7
REMARK VINA RESULT:    -8.269      2.595      4.473
REMARK INTER + INTRA:          -8.269
REMARK INTER:                  -8.269
REMARK INTRA:                   0.000
REMARK UNBOUND:                 0.000
ROOT
REMARK  Name = eritrityl tetranitrate
REMARK                            x       y       z     vdW  Elec       q    Type
REMARK                         _______ _______ _______ _____ _____    ______ ____
ATOM      1  O   UNL     1      61.547  63.118  66.226  0.00  0.00    +0.000 OA
ATOM      2  N   UNL     1      61.345  62.891  66.993  0.00  0.00    +0.000 N 
ATOM      3  O   UNL     1      60.831  62.257  67.115  0.00  0.00    +0.000 OA
ATOM      4  O   UNL     1      61.657  63.300  67.639  0.00  0.00    +0.000 OA
ATOM      5  C   UNL     1      61.454  63.073  68.406  0.00  0.00    +0.000 C 
ATOM      6  C   UNL     1      61.766  63.482  69.052  0.00  0.00    +0.000 C 
ATOM      7  O   UNL     1      62.280  64.116  68.930  0.00  0.00    +0.000 OA
ATOM      8  N   UNL     1      62.591  64.524  69.576  0.00  0.00    +0.000 N 
ATOM      9  O   UNL     1      62.389  64.298  70.343  0.00  0.00    +0.000 OA
ATOM     10  O   UNL     1      63.105  65.158  69.455  0.00  0.00    +0.000 OA
ATOM     11  C   UNL     1      61.564  63.256  69.820  0.00  0.00    +0.000 C 
ATOM     12  C   UNL     1      61.876  63.664  70.465  0.00  0.00    +0.000 C 
ATOM     13  O   UNL     1      61.673  63.438  71.233  0.00  0.00    +0.000 OA
ATOM     14  N   UNL     1      61.985  63.846  71.878  0.00  0.00    +0.000 N 
ATOM     15  O   UNL     1      61.783  63.620  72.646  0.00  0.00    +0.000 OA
ATOM     16  O   UNL     1      62.499  64.480  71.756  0.00  0.00    +0.000 OA
ATOM     17  O   UNL     1      61.050  62.622  69.941  0.00  0.00    +0.000 OA
ATOM     18  N   UNL     1      60.739  62.214  69.295  0.00  0.00    +0.000 N 
ATOM     19  O   UNL     1      60.941  62.439  68.528  0.00  0.00    +0.000 OA
ATOM     20  O   UNL     1      60.225  61.580  69.416  0.00  0.00    +0.000 OA
ENDROOT
TORSDOF 0
ENDMDL
MODEL 8
REMARK VINA RESULT:    -8.259      3.834      5.865
REMARK INTER + INTRA:          -8.259
REMARK INTER:                  -8.259
REMARK INTRA:                   0.000
REMARK UNBOUND:                 0.000
ROOT
REMARK  Name = eritrityl tetranitrate
REMARK                            x       y       z     vdW  Elec       q    Type
REMARK                         _______ _______ _______ _____ _____    ______ ____
ATOM      1  O   UNL     1      60.616  63.452  67.718  0.00  0.00    +0.000 OA
ATOM      2  N   UNL     1      60.462  63.595  68.515  0.00  0.00    +0.000 N 
ATOM      3  O   UNL     1      60.550  62.989  69.068  0.00  0.00    +0.000 OA
ATOM      4  O   UNL     1      60.220  64.345  68.760  0.00  0.00    +0.000 OA
ATOM      5  C   UNL     1      60.065  64.488  69.558  0.00  0.00    +0.000 C 
ATOM      6  C   UNL     1      59.823  65.238  69.802  0.00  0.00    +0.000 C 
ATOM      7  O   UNL     1      59.735  65.844  69.249  0.00  0.00    +0.000 OA
ATOM      8  N   UNL     1      59.493  66.594  69.495  0.00  0.00    +0.000 N 
ATOM      9  O   UNL     1      59.338  66.737  70.292  0.00  0.00    +0.000 OA
ATOM     10  O   UNL     1      59.405  67.200  68.942  0.00  0.00    +0.000 OA
ATOM     11  C   UNL     1      59.668  65.381  70.601  0.00  0.00    +0.000 C 
ATOM     12  C   UNL     1      59.426  66.131  70.845  0.00  0.00    +0.000 C 
ATOM     13  O   UNL     1      59.272  66.274  71.643  0.00  0.00    +0.000 OA
ATOM     14  N   UNL     1      59.029  67.024  71.887  0.00  0.00    +0.000 N 
ATOM     15  O   UNL     1      58.875  67.168  72.686  0.00  0.00    +0.000 OA
ATOM     16  O   UNL     1      58.942  67.630  71.335  0.00  0.00    +0.000 OA
ATOM     17  O   UNL     1      59.756  64.775  71.153  0.00  0.00    +0.000 OA
ATOM     18  N   UNL     1      59.999  64.026  70.908  0.00  0.00    +0.000 N 
ATOM     19  O   UNL     1      60.153  63.882  70.111  0.00  0.00    +0.000 OA
ATOM     20  O   UNL     1      60.087  63.419  71.460  0.00  0.00    +0.000 OA
ENDROOT
TORSDOF 0
ENDMDL
MODEL 9
REMARK VINA RESULT:    -8.184      3.663      5.230
REMARK INTER + INTRA:          -8.184
REMARK INTER:                  -8.184
REMARK INTRA:                   0.000
REMARK UNBOUND:                 0.000
ROOT
REMARK  Name = eritrityl tetranitrate
REMARK                            x       y       z     vdW  Elec       q    Type
REMARK                         _______ _______ _______ _____ _____    ______ ____
ATOM      1  O   UNL     1      60.675  61.413  70.885  0.00  0.00    +0.000 OA
ATOM      2  N   UNL     1      60.584  61.973  70.286  0.00  0.00    +0.000 N 
ATOM      3  O   UNL     1      60.710  61.761  69.499  0.00  0.00    +0.000 OA
ATOM      4  O   UNL     1      60.366  62.746  70.476  0.00  0.00    +0.000 OA
ATOM      5  C   UNL     1      60.275  63.307  69.878  0.00  0.00    +0.000 C 
ATOM      6  C   UNL     1      60.057  64.079  70.067  0.00  0.00    +0.000 C 
ATOM      7  O   UNL     1      59.931  64.291  70.855  0.00  0.00    +0.000 OA
ATOM      8  N   UNL     1      59.713  65.065  71.043  0.00  0.00    +0.000 N 
ATOM      9  O   UNL     1      59.622  65.625  70.446  0.00  0.00    +0.000 OA
ATOM     10  O   UNL     1      59.587  65.277  71.830  0.00  0.00    +0.000 OA
ATOM     11  C   UNL     1      59.966  64.641  69.469  0.00  0.00    +0.000 C 
ATOM     12  C   UNL     1      59.748  65.413  69.659  0.00  0.00    +0.000 C 
ATOM     13  O   UNL     1      59.657  65.975  69.060  0.00  0.00    +0.000 OA
ATOM     14  N   UNL     1      59.439  66.747  69.250  0.00  0.00    +0.000 N 
ATOM     15  O   UNL     1      59.347  67.309  68.651  0.00  0.00    +0.000 OA
ATOM     16  O   UNL     1      59.313  66.959  70.037  0.00  0.00    +0.000 OA
ATOM     17  O   UNL     1      60.092  64.429  68.681  0.00  0.00    +0.000 OA
ATOM     18  N   UNL     1      60.310  63.655  68.493  0.00  0.00    +0.000 N 
ATOM     19  O   UNL     1      60.401  63.095  69.090  0.00  0.00    +0.000 OA
ATOM     20  O   UNL     1      60.436  63.443  67.706  0.00  0.00    +0.000 OA
ENDROOT
TORSDOF 0
ENDMDL
