MODEL 1
REMARK VINA RESULT:    -9.904      0.000      0.000
REMARK INTER + INTRA:          -9.904
REMARK INTER:                  -9.904
REMARK INTRA:                   0.000
REMARK UNBOUND:                 0.000
ROOT
REMARK  Name = esatenolol
REMARK                            x       y       z     vdW  Elec       q    Type
REMARK                         _______ _______ _______ _____ _____    ______ ____
ATOM      1  C   UNL     1      62.350  64.869  70.667  0.00  0.00    +0.000 C 
ATOM      2  C   UNL     1      62.476  64.559  69.913  0.00  0.00    +0.000 C 
ATOM      3  C   UNL     1      63.206  64.658  69.542  0.00  0.00    +0.000 C 
ATOM      4  N   UNL     1      61.870  64.151  69.529  0.00  0.00    +0.000 NA
ATOM      5  C   UNL     1      61.996  63.841  68.774  0.00  0.00    +0.000 C 
ATOM      6  C   UNL     1      61.391  63.432  68.391  0.00  0.00    +0.000 C 
ATOM      7  O   UNL     1      60.661  63.333  68.761  0.00  0.00    +0.000 OA
ATOM      8  C   UNL     1      61.517  63.122  67.636  0.00  0.00    +0.000 C 
ATOM      9  O   UNL     1      60.911  62.713  67.253  0.00  0.00    +0.000 OA
ATOM     10  C   UNL     1      61.037  62.403  66.498  0.00  0.00    +0.000 A 
ATOM     11  C   UNL     1      60.432  61.994  66.115  0.00  0.00    +0.000 A 
ATOM     12  C   UNL     1      60.557  61.684  65.360  0.00  0.00    +0.000 A 
ATOM     13  C   UNL     1      61.288  61.783  64.989  0.00  0.00    +0.000 A 
ATOM     14  C   UNL     1      61.413  61.474  64.236  0.00  0.00    +0.000 C 
ATOM     15  C   UNL     1      62.144  61.573  63.865  0.00  0.00    +0.000 C 
ATOM     16  N   UNL     1      62.269  61.262  63.111  0.00  0.00    +0.000 NA
ATOM     17  O   UNL     1      62.749  61.981  64.249  0.00  0.00    +0.000 OA
ATOM     18  C   UNL     1      61.893  62.192  65.374  0.00  0.00    +0.000 A 
ATOM     19  C   UNL     1      61.767  62.502  66.128  0.00  0.00    +0.000 A 
ENDROOT
TORSDOF 0
ENDMDL
MODEL 2
REMARK VINA RESULT:    -9.404      1.801      2.081
REMARK INTER + INTRA:          -9.404
REMARK INTER:                  -9.404
REMARK INTRA:                   0.000
REMARK UNBOUND:                 0.000
ROOT
REMARK  Name = esatenolol
REMARK                            x       y       z     vdW  Elec       q    Type
REMARK                         _______ _______ _______ _____ _____    ______ ____
ATOM      1  C   UNL     1      59.436  66.835  70.377  0.00  0.00    +0.000 C 
ATOM      2  C   UNL     1      59.747  66.447  69.719  0.00  0.00    +0.000 C 
ATOM      3  C   UNL     1      59.994  66.881  69.063  0.00  0.00    +0.000 C 
ATOM      4  N   UNL     1      59.811  65.625  69.719  0.00  0.00    +0.000 NA
ATOM      5  C   UNL     1      60.123  65.236  69.060  0.00  0.00    +0.000 C 
ATOM      6  C   UNL     1      60.187  64.414  69.060  0.00  0.00    +0.000 C 
ATOM      7  O   UNL     1      59.940  63.980  69.716  0.00  0.00    +0.000 OA
ATOM      8  C   UNL     1      60.499  64.025  68.401  0.00  0.00    +0.000 C 
ATOM      9  O   UNL     1      60.563  63.203  68.401  0.00  0.00    +0.000 OA
ATOM     10  C   UNL     1      60.874  62.814  67.742  0.00  0.00    +0.000 A 
ATOM     11  C   UNL     1      60.938  61.992  67.742  0.00  0.00    +0.000 A 
ATOM     12  C   UNL     1      61.250  61.603  67.083  0.00  0.00    +0.000 A 
ATOM     13  C   UNL     1      61.497  62.037  66.427  0.00  0.00    +0.000 A 
ATOM     14  C   UNL     1      61.808  61.649  65.769  0.00  0.00    +0.000 C 
ATOM     15  C   UNL     1      62.056  62.083  65.112  0.00  0.00    +0.000 C 
ATOM     16  N   UNL     1      62.367  61.694  64.454  0.00  0.00    +0.000 NA
ATOM     17  O   UNL     1      61.991  62.905  65.113  0.00  0.00    +0.000 OA
ATOM     18  C   UNL     1      61.433  62.860  66.428  0.00  0.00    +0.000 A 
ATOM     19  C   UNL     1      61.122  63.248  67.086  0.00  0.00    +0.000 A 
ENDROOT
TORSDOF 0
ENDMDL
MODEL 3
REMARK VINA RESULT:    -9.404      1.473      1.908
REMARK INTER + INTRA:          -9.404
REMARK INTER:                  -9.404
REMARK INTRA:                   0.000
REMARK UNBOUND:                 0.000
ROOT
REMARK  Name = esatenolol
REMARK                            x       y       z     vdW  Elec       q    Type
REMARK                         _______ _______ _______ _____ _____    ______ ____
ATOM      1  C   UNL     1      60.831  63.155  70.341  0.00  0.00    +0.000 C 
ATOM      2  C   UNL     1      60.739  62.782  69.611  0.00  0.00    +0.000 C 
ATOM      3  C   UNL     1      60.172  62.189  69.519  0.00  0.00    +0.000 C 
ATOM      4  N   UNL     1      61.214  63.002  68.974  0.00  0.00    +0.000 NA
ATOM      5  C   UNL     1      61.121  62.628  68.243  0.00  0.00    +0.000 C 
ATOM      6  C   UNL     1      61.596  62.848  67.606  0.00  0.00    +0.000 C 
ATOM      7  O   UNL     1      62.162  63.439  67.698  0.00  0.00    +0.000 OA
ATOM      8  C   UNL     1      61.504  62.474  66.875  0.00  0.00    +0.000 C 
ATOM      9  O   UNL     1      61.979  62.694  66.238  0.00  0.00    +0.000 OA
ATOM     10  C   UNL     1      61.887  62.320  65.507  0.00  0.00    +0.000 A 
ATOM     11  C   UNL     1      62.362  62.540  64.869  0.00  0.00    +0.000 A 
ATOM     12  C   UNL     1      62.270  62.167  64.139  0.00  0.00    +0.000 A 
ATOM     13  C   UNL     1      61.703  61.574  64.047  0.00  0.00    +0.000 A 
ATOM     14  C   UNL     1      61.612  61.202  63.317  0.00  0.00    +0.000 C 
ATOM     15  C   UNL     1      61.044  60.608  63.225  0.00  0.00    +0.000 C 
ATOM     16  N   UNL     1      60.953  60.236  62.495  0.00  0.00    +0.000 NA
ATOM     17  O   UNL     1      60.570  60.389  63.863  0.00  0.00    +0.000 OA
ATOM     18  C   UNL     1      61.229  61.355  64.685  0.00  0.00    +0.000 A 
ATOM     19  C   UNL     1      61.320  61.728  65.415  0.00  0.00    +0.000 A 
ENDROOT
TORSDOF 0
ENDMDL
MODEL 4
REMARK VINA RESULT:    -9.382      4.202      6.308
REMARK INTER + INTRA:          -9.382
REMARK INTER:                  -9.382
REMARK INTRA:                   0.000
REMARK UNBOUND:                 0.000
ROOT
REMARK  Name = esatenolol
REMARK                            x       y       z     vdW  Elec       q    Type
REMARK                         _______ _______ _______ _____ _____    ______ ____
ATOM      1  C   UNL     1      60.491  61.758  70.669  0.00  0.00    +0.000 C 
ATOM      2  C   UNL     1      61.121  62.244  70.886  0.00  0.00    +0.000 C 
ATOM      3  C   UNL     1      61.474  62.156  71.627  0.00  0.00    +0.000 C 
ATOM      4  N   UNL     1      61.399  62.817  70.362  0.00  0.00    +0.000 NA
ATOM      5  C   UNL     1      62.030  63.303  70.579  0.00  0.00    +0.000 C 
ATOM      6  C   UNL     1      62.308  63.875  70.054  0.00  0.00    +0.000 C 
ATOM      7  O   UNL     1      61.955  63.963  69.314  0.00  0.00    +0.000 OA
ATOM      8  C   UNL     1      62.939  64.361  70.271  0.00  0.00    +0.000 C 
ATOM      9  O   UNL     1      63.216  64.934  69.747  0.00  0.00    +0.000 OA
ATOM     10  C   UNL     1      63.848  65.420  69.963  0.00  0.00    +0.000 A 
ATOM     11  C   UNL     1      64.125  65.993  69.439  0.00  0.00    +0.000 A 
ATOM     12  C   UNL     1      64.757  66.479  69.656  0.00  0.00    +0.000 A 
ATOM     13  C   UNL     1      65.110  66.392  70.396  0.00  0.00    +0.000 A 
ATOM     14  C   UNL     1      65.740  66.877  70.612  0.00  0.00    +0.000 C 
ATOM     15  C   UNL     1      66.093  66.789  71.354  0.00  0.00    +0.000 C 
ATOM     16  N   UNL     1      66.724  67.275  71.570  0.00  0.00    +0.000 NA
ATOM     17  O   UNL     1      65.815  66.217  71.877  0.00  0.00    +0.000 OA
ATOM     18  C   UNL     1      64.831  65.818  70.920  0.00  0.00    +0.000 A 
ATOM     19  C   UNL     1      64.201  65.333  70.704  0.00  0.00    +0.000 A 
ENDROOT
TORSDOF 0
ENDMDL
MODEL 5
REMARK VINA RESULT:    -9.280      2.068      3.013
REMARK INTER + INTRA:          -9.280
REMARK INTER:                  -9.280
REMARK INTRA:                   0.000
REMARK UNBOUND:                 0.000
ROOT
REMARK  Name = esatenolol
REMARK                            x       y       z     vdW  Elec       q    Type
REMARK                         _______ _______ _______ _____ _____    ______ ____
ATOM      1  C   UNL     1      65.020  66.176  70.930  0.00  0.00    +0.000 C 
ATOM      2  C   UNL     1      64.533  65.851  70.349  0.00  0.00    +0.000 C 
ATOM      3  C   UNL     1      64.604  66.098  69.565  0.00  0.00    +0.000 C 
ATOM      4  N   UNL     1      63.975  65.279  70.553  0.00  0.00    +0.000 NA
ATOM      5  C   UNL     1      63.486  64.954  69.972  0.00  0.00    +0.000 C 
ATOM      6  C   UNL     1      62.928  64.382  70.177  0.00  0.00    +0.000 C 
ATOM      7  O   UNL     1      62.857  64.136  70.960  0.00  0.00    +0.000 OA
ATOM      8  C   UNL     1      62.440  64.057  69.595  0.00  0.00    +0.000 C 
ATOM      9  O   UNL     1      61.881  63.485  69.800  0.00  0.00    +0.000 OA
ATOM     10  C   UNL     1      61.393  63.160  69.219  0.00  0.00    +0.000 A 
ATOM     11  C   UNL     1      60.835  62.588  69.423  0.00  0.00    +0.000 A 
ATOM     12  C   UNL     1      60.347  62.263  68.842  0.00  0.00    +0.000 A 
ATOM     13  C   UNL     1      60.417  62.510  68.058  0.00  0.00    +0.000 A 
ATOM     14  C   UNL     1      59.930  62.185  67.478  0.00  0.00    +0.000 C 
ATOM     15  C   UNL     1      60.001  62.432  66.693  0.00  0.00    +0.000 C 
ATOM     16  N   UNL     1      59.513  62.106  66.113  0.00  0.00    +0.000 NA
ATOM     17  O   UNL     1      60.559  63.003  66.490  0.00  0.00    +0.000 OA
ATOM     18  C   UNL     1      60.977  63.082  67.855  0.00  0.00    +0.000 A 
ATOM     19  C   UNL     1      61.464  63.407  68.434  0.00  0.00    +0.000 A 
ENDROOT
TORSDOF 0
ENDMDL
MODEL 6
REMARK VINA RESULT:    -9.221      4.676      5.797
REMARK INTER + INTRA:          -9.221
REMARK INTER:                  -9.221
REMARK INTRA:                   0.000
REMARK UNBOUND:                 0.000
ROOT
REMARK  Name = esatenolol
REMARK                            x       y       z     vdW  Elec       q    Type
REMARK                         _______ _______ _______ _____ _____    ______ ____
ATOM      1  C   UNL     1      65.845  67.657  70.655  0.00  0.00    +0.000 C 
ATOM      2  C   UNL     1      65.330  67.026  70.532  0.00  0.00    +0.000 C 
ATOM      3  C   UNL     1      65.355  66.604  69.823  0.00  0.00    +0.000 C 
ATOM      4  N   UNL     1      64.789  66.816  71.118  0.00  0.00    +0.000 NA
ATOM      5  C   UNL     1      64.272  66.183  70.995  0.00  0.00    +0.000 C 
ATOM      6  C   UNL     1      63.732  65.974  71.582  0.00  0.00    +0.000 C 
ATOM      7  O   UNL     1      63.707  66.395  72.290  0.00  0.00    +0.000 OA
ATOM      8  C   UNL     1      63.215  65.341  71.459  0.00  0.00    +0.000 C 
ATOM      9  O   UNL     1      62.674  65.131  72.045  0.00  0.00    +0.000 OA
ATOM     10  C   UNL     1      62.158  64.499  71.922  0.00  0.00    +0.000 A 
ATOM     11  C   UNL     1      61.617  64.289  72.509  0.00  0.00    +0.000 A 
ATOM     12  C   UNL     1      61.101  63.657  72.386  0.00  0.00    +0.000 A 
ATOM     13  C   UNL     1      61.126  63.235  71.677  0.00  0.00    +0.000 A 
ATOM     14  C   UNL     1      60.610  62.604  71.555  0.00  0.00    +0.000 C 
ATOM     15  C   UNL     1      60.635  62.182  70.845  0.00  0.00    +0.000 C 
ATOM     16  N   UNL     1      60.119  61.550  70.723  0.00  0.00    +0.000 NA
ATOM     17  O   UNL     1      61.176  62.392  70.259  0.00  0.00    +0.000 OA
ATOM     18  C   UNL     1      61.667  63.446  71.091  0.00  0.00    +0.000 A 
ATOM     19  C   UNL     1      62.183  64.077  71.213  0.00  0.00    +0.000 A 
ENDROOT
TORSDOF 0
ENDMDL
MODEL 7
REMARK VINA RESULT:    -9.135      2.342      3.278
REMARK INTER + INTRA:          -9.135
REMARK INTER:                  -9.135
REMARK INTRA:                   0.000
REMARK UNBOUND:                 0.000
ROOT
REMARK  Name = esatenolol
REMARK                            x       y       z     vdW  Elec       q    Type
REMARK                         _______ _______ _______ _____ _____    ______ ____
ATOM      1  C   UNL     1      59.168  67.237  71.937  0.00  0.00    +0.000 C 
ATOM      2  C   UNL     1      59.411  66.839  71.257  0.00  0.00    +0.000 C 
ATOM      3  C   UNL     1      59.562  67.260  70.564  0.00  0.00    +0.000 C 
ATOM      4  N   UNL     1      59.504  66.020  71.271  0.00  0.00    +0.000 NA
ATOM      5  C   UNL     1      59.748  65.621  70.591  0.00  0.00    +0.000 C 
ATOM      6  C   UNL     1      59.840  64.801  70.605  0.00  0.00    +0.000 C 
ATOM      7  O   UNL     1      59.690  64.381  71.297  0.00  0.00    +0.000 OA
ATOM      8  C   UNL     1      60.084  64.402  69.924  0.00  0.00    +0.000 C 
ATOM      9  O   UNL     1      60.177  63.583  69.938  0.00  0.00    +0.000 OA
ATOM     10  C   UNL     1      60.421  63.184  69.258  0.00  0.00    +0.000 A 
ATOM     11  C   UNL     1      60.514  62.364  69.272  0.00  0.00    +0.000 A 
ATOM     12  C   UNL     1      60.757  61.965  68.592  0.00  0.00    +0.000 A 
ATOM     13  C   UNL     1      60.908  62.386  67.898  0.00  0.00    +0.000 A 
ATOM     14  C   UNL     1      61.151  61.987  67.219  0.00  0.00    +0.000 C 
ATOM     15  C   UNL     1      61.302  62.409  66.525  0.00  0.00    +0.000 C 
ATOM     16  N   UNL     1      61.546  62.009  65.845  0.00  0.00    +0.000 NA
ATOM     17  O   UNL     1      61.209  63.228  66.511  0.00  0.00    +0.000 OA
ATOM     18  C   UNL     1      60.815  63.206  67.885  0.00  0.00    +0.000 A 
ATOM     19  C   UNL     1      60.572  63.604  68.564  0.00  0.00    +0.000 A 
ENDROOT
TORSDOF 0
ENDMDL
MODEL 8
REMARK VINA RESULT:    -9.018      1.463      5.243
REMARK INTER + INTRA:          -9.018
REMARK INTER:                  -9.018
REMARK INTRA:                   0.000
REMARK UNBOUND:                 0.000
ROOT
REMARK  Name = esatenolol
REMARK                            x       y       z     vdW  Elec       q    Type
REMARK                         _______ _______ _______ _____ _____    ______ ____
ATOM      1  C   UNL     1      61.247  61.512  64.539  0.00  0.00    +0.000 C 
ATOM      2  C   UNL     1      61.614  61.936  65.144  0.00  0.00    +0.000 C 
ATOM      3  C   UNL     1      62.367  62.251  65.028  0.00  0.00    +0.000 C 
ATOM      4  N   UNL     1      61.227  62.043  65.864  0.00  0.00    +0.000 NA
ATOM      5  C   UNL     1      61.594  62.468  66.470  0.00  0.00    +0.000 C 
ATOM      6  C   UNL     1      61.207  62.575  67.190  0.00  0.00    +0.000 C 
ATOM      7  O   UNL     1      60.455  62.260  67.306  0.00  0.00    +0.000 OA
ATOM      8  C   UNL     1      61.575  62.999  67.796  0.00  0.00    +0.000 C 
ATOM      9  O   UNL     1      61.188  63.107  68.517  0.00  0.00    +0.000 OA
ATOM     10  C   UNL     1      61.555  63.531  69.122  0.00  0.00    +0.000 A 
ATOM     11  C   UNL     1      61.168  63.639  69.843  0.00  0.00    +0.000 A 
ATOM     12  C   UNL     1      61.535  64.063  70.449  0.00  0.00    +0.000 A 
ATOM     13  C   UNL     1      62.289  64.379  70.333  0.00  0.00    +0.000 A 
ATOM     14  C   UNL     1      62.655  64.802  70.938  0.00  0.00    +0.000 C 
ATOM     15  C   UNL     1      63.410  65.118  70.823  0.00  0.00    +0.000 C 
ATOM     16  N   UNL     1      63.776  65.542  71.428  0.00  0.00    +0.000 NA
ATOM     17  O   UNL     1      63.796  65.010  70.102  0.00  0.00    +0.000 OA
ATOM     18  C   UNL     1      62.675  64.270  69.612  0.00  0.00    +0.000 A 
ATOM     19  C   UNL     1      62.309  63.847  69.007  0.00  0.00    +0.000 A 
ENDROOT
TORSDOF 0
ENDMDL
MODEL 9
REMARK VINA RESULT:    -8.990      2.489      5.889
REMARK INTER + INTRA:          -8.990
REMARK INTER:                  -8.990
REMARK INTRA:                   0.000
REMARK UNBOUND:                 0.000
ROOT
REMARK  Name = esatenolol
REMARK                            x       y       z     vdW  Elec       q    Type
REMARK                         _______ _______ _______ _____ _____    ______ ____
ATOM      1  C   UNL     1      61.619  61.627  65.920  0.00  0.00    +0.000 C 
ATOM      2  C   UNL     1      61.362  62.210  66.443  0.00  0.00    +0.000 C 
ATOM      3  C   UNL     1      61.239  62.980  66.176  0.00  0.00    +0.000 C 
ATOM      4  N   UNL     1      61.229  62.022  67.235  0.00  0.00    +0.000 NA
ATOM      5  C   UNL     1      60.972  62.605  67.760  0.00  0.00    +0.000 C 
ATOM      6  C   UNL     1      60.838  62.416  68.552  0.00  0.00    +0.000 C 
ATOM      7  O   UNL     1      60.962  61.647  68.819  0.00  0.00    +0.000 OA
ATOM      8  C   UNL     1      60.581  63.000  69.077  0.00  0.00    +0.000 C 
ATOM      9  O   UNL     1      60.448  62.811  69.869  0.00  0.00    +0.000 OA
ATOM     10  C   UNL     1      60.191  63.395  70.393  0.00  0.00    +0.000 A 
ATOM     11  C   UNL     1      60.058  63.206  71.185  0.00  0.00    +0.000 A 
ATOM     12  C   UNL     1      59.800  63.790  71.710  0.00  0.00    +0.000 A 
ATOM     13  C   UNL     1      59.677  64.560  71.442  0.00  0.00    +0.000 A 
ATOM     14  C   UNL     1      59.420  65.142  71.966  0.00  0.00    +0.000 C 
ATOM     15  C   UNL     1      59.297  65.914  71.698  0.00  0.00    +0.000 C 
ATOM     16  N   UNL     1      59.040  66.496  72.224  0.00  0.00    +0.000 NA
ATOM     17  O   UNL     1      59.430  66.101  70.907  0.00  0.00    +0.000 OA
ATOM     18  C   UNL     1      59.811  64.747  70.650  0.00  0.00    +0.000 A 
ATOM     19  C   UNL     1      60.068  64.165  70.126  0.00  0.00    +0.000 A 
ENDROOT
TORSDOF 0
ENDMDL
