MODEL 1
REMARK VINA RESULT:   -15.374      0.000      0.000
REMARK INTER + INTRA:         -15.374
REMARK INTER:                 -15.374
REMARK INTRA:                   0.000
REMARK UNBOUND:                 0.000
ROOT
REMARK  Name = estradiol cypionate
REMARK                            x       y       z     vdW  Elec       q    Type
REMARK                         _______ _______ _______ _____ _____    ______ ____
ATOM      1  C   UNL     1      60.814  63.621  68.420  0.00  0.00    +0.000 C 
ATOM      2  C   UNL     1      60.610  63.317  69.161  0.00  0.00    +0.000 C 
ATOM      3  C   UNL     1      60.538  64.137  69.103  0.00  0.00    +0.000 C 
ATOM      4  C   UNL     1      60.282  64.575  69.753  0.00  0.00    +0.000 C 
ATOM      5  C   UNL     1      60.097  64.193  70.461  0.00  0.00    +0.000 C 
ATOM      6  C   UNL     1      60.170  63.373  70.518  0.00  0.00    +0.000 C 
ATOM      7  C   UNL     1      59.985  62.992  71.227  0.00  0.00    +0.000 C 
ATOM      8  C   UNL     1      59.729  63.430  71.877  0.00  0.00    +0.000 C 
ATOM      9  C   UNL     1      59.657  64.249  71.818  0.00  0.00    +0.000 A 
ATOM     10  C   UNL     1      59.841  64.631  71.111  0.00  0.00    +0.000 A 
ATOM     11  C   UNL     1      59.769  65.451  71.053  0.00  0.00    +0.000 A 
ATOM     12  C   UNL     1      59.512  65.889  71.704  0.00  0.00    +0.000 A 
ATOM     13  C   UNL     1      59.328  65.507  72.412  0.00  0.00    +0.000 A 
ATOM     14  O   UNL     1      59.071  65.945  73.062  0.00  0.00    +0.000 OA
ATOM     15  C   UNL     1      59.400  64.688  72.469  0.00  0.00    +0.000 A 
ATOM     16  C   UNL     1      60.426  62.935  69.868  0.00  0.00    +0.000 C 
ATOM     17  C   UNL     1      60.550  62.127  69.761  0.00  0.00    +0.000 C 
ATOM     18  C   UNL     1      60.811  62.008  68.987  0.00  0.00    +0.000 C 
ATOM     19  C   UNL     1      60.848  62.744  68.615  0.00  0.00    +0.000 C 
ATOM     20  O   UNL     1      61.082  62.883  67.837  0.00  0.00    +0.000 OA
ATOM     21  C   UNL     1      61.306  62.252  67.355  0.00  0.00    +0.000 C 
ATOM     22  O   UNL     1      61.296  61.482  67.652  0.00  0.00    +0.000 OA
ATOM     23  C   UNL     1      61.540  62.390  66.576  0.00  0.00    +0.000 C 
ATOM     24  C   UNL     1      61.764  61.760  66.094  0.00  0.00    +0.000 C 
ATOM     25  C   UNL     1      61.998  61.898  65.315  0.00  0.00    +0.000 C 
ATOM     26  C   UNL     1      62.235  61.325  64.771  0.00  0.00    +0.000 C 
ATOM     27  C   UNL     1      62.419  61.707  64.063  0.00  0.00    +0.000 C 
ATOM     28  C   UNL     1      62.296  62.515  64.170  0.00  0.00    +0.000 C 
ATOM     29  C   UNL     1      62.035  62.633  64.944  0.00  0.00    +0.000 C 
ENDROOT
TORSDOF 0
ENDMDL
MODEL 2
REMARK VINA RESULT:   -15.325      1.594      6.229
REMARK INTER + INTRA:         -15.325
REMARK INTER:                 -15.325
REMARK INTRA:                   0.000
REMARK UNBOUND:                 0.000
ROOT
REMARK  Name = estradiol cypionate
REMARK                            x       y       z     vdW  Elec       q    Type
REMARK                         _______ _______ _______ _____ _____    ______ ____
ATOM      1  C   UNL     1      61.688  63.067  67.798  0.00  0.00    +0.000 C 
ATOM      2  C   UNL     1      61.137  62.677  67.323  0.00  0.00    +0.000 C 
ATOM      3  C   UNL     1      61.876  62.775  66.969  0.00  0.00    +0.000 C 
ATOM      4  C   UNL     1      62.008  62.492  66.206  0.00  0.00    +0.000 C 
ATOM      5  C   UNL     1      61.402  62.111  65.796  0.00  0.00    +0.000 C 
ATOM      6  C   UNL     1      60.662  62.013  66.150  0.00  0.00    +0.000 C 
ATOM      7  C   UNL     1      60.056  61.632  65.740  0.00  0.00    +0.000 C 
ATOM      8  C   UNL     1      60.188  61.349  64.977  0.00  0.00    +0.000 C 
ATOM      9  C   UNL     1      60.927  61.447  64.624  0.00  0.00    +0.000 A 
ATOM     10  C   UNL     1      61.534  61.828  65.033  0.00  0.00    +0.000 A 
ATOM     11  C   UNL     1      62.273  61.926  64.679  0.00  0.00    +0.000 A 
ATOM     12  C   UNL     1      62.404  61.643  63.915  0.00  0.00    +0.000 A 
ATOM     13  C   UNL     1      61.798  61.262  63.506  0.00  0.00    +0.000 A 
ATOM     14  O   UNL     1      61.930  60.979  62.743  0.00  0.00    +0.000 OA
ATOM     15  C   UNL     1      61.060  61.164  63.859  0.00  0.00    +0.000 A 
ATOM     16  C   UNL     1      60.530  62.296  66.914  0.00  0.00    +0.000 C 
ATOM     17  C   UNL     1      59.865  62.280  67.401  0.00  0.00    +0.000 C 
ATOM     18  C   UNL     1      60.060  62.651  68.111  0.00  0.00    +0.000 C 
ATOM     19  C   UNL     1      60.847  62.897  68.064  0.00  0.00    +0.000 C 
ATOM     20  O   UNL     1      61.268  63.292  68.652  0.00  0.00    +0.000 OA
ATOM     21  C   UNL     1      60.902  63.476  69.368  0.00  0.00    +0.000 C 
ATOM     22  O   UNL     1      60.115  63.264  69.496  0.00  0.00    +0.000 OA
ATOM     23  C   UNL     1      61.323  63.871  69.958  0.00  0.00    +0.000 C 
ATOM     24  C   UNL     1      60.958  64.055  70.674  0.00  0.00    +0.000 C 
ATOM     25  C   UNL     1      61.379  64.450  71.263  0.00  0.00    +0.000 C 
ATOM     26  C   UNL     1      61.088  64.669  72.003  0.00  0.00    +0.000 C 
ATOM     27  C   UNL     1      61.695  65.050  72.412  0.00  0.00    +0.000 C 
ATOM     28  C   UNL     1      62.360  65.066  71.926  0.00  0.00    +0.000 C 
ATOM     29  C   UNL     1      62.165  64.695  71.215  0.00  0.00    +0.000 C 
ENDROOT
TORSDOF 0
ENDMDL
MODEL 3
REMARK VINA RESULT:   -14.223      3.365      5.408
REMARK INTER + INTRA:         -14.223
REMARK INTER:                 -14.223
REMARK INTRA:                   0.000
REMARK UNBOUND:                 0.000
ROOT
REMARK  Name = estradiol cypionate
REMARK                            x       y       z     vdW  Elec       q    Type
REMARK                         _______ _______ _______ _____ _____    ______ ____
ATOM      1  C   UNL     1      62.831  64.546  69.087  0.00  0.00    +0.000 C 
ATOM      2  C   UNL     1      62.283  63.967  69.299  0.00  0.00    +0.000 C 
ATOM      3  C   UNL     1      62.268  64.165  68.498  0.00  0.00    +0.000 C 
ATOM      4  C   UNL     1      61.736  63.792  67.991  0.00  0.00    +0.000 C 
ATOM      5  C   UNL     1      61.218  63.220  68.284  0.00  0.00    +0.000 C 
ATOM      6  C   UNL     1      61.233  63.022  69.085  0.00  0.00    +0.000 C 
ATOM      7  C   UNL     1      60.714  62.450  69.378  0.00  0.00    +0.000 C 
ATOM      8  C   UNL     1      60.182  62.077  68.870  0.00  0.00    +0.000 C 
ATOM      9  C   UNL     1      60.168  62.276  68.070  0.00  0.00    +0.000 A 
ATOM     10  C   UNL     1      60.686  62.847  67.776  0.00  0.00    +0.000 A 
ATOM     11  C   UNL     1      60.671  63.046  66.975  0.00  0.00    +0.000 A 
ATOM     12  C   UNL     1      60.138  62.672  66.468  0.00  0.00    +0.000 A 
ATOM     13  C   UNL     1      59.620  62.100  66.762  0.00  0.00    +0.000 A 
ATOM     14  O   UNL     1      59.088  61.727  66.254  0.00  0.00    +0.000 OA
ATOM     15  C   UNL     1      59.635  61.902  67.561  0.00  0.00    +0.000 A 
ATOM     16  C   UNL     1      61.765  63.395  69.593  0.00  0.00    +0.000 C 
ATOM     17  C   UNL     1      61.905  63.315  70.401  0.00  0.00    +0.000 C 
ATOM     18  C   UNL     1      62.510  63.837  70.608  0.00  0.00    +0.000 C 
ATOM     19  C   UNL     1      62.744  64.240  69.927  0.00  0.00    +0.000 C 
ATOM     20  O   UNL     1      63.334  64.815  69.882  0.00  0.00    +0.000 OA
ATOM     21  C   UNL     1      63.750  65.032  70.559  0.00  0.00    +0.000 C 
ATOM     22  O   UNL     1      63.577  64.675  71.283  0.00  0.00    +0.000 OA
ATOM     23  C   UNL     1      64.340  65.607  70.515  0.00  0.00    +0.000 C 
ATOM     24  C   UNL     1      64.757  65.825  71.192  0.00  0.00    +0.000 C 
ATOM     25  C   UNL     1      65.347  66.400  71.147  0.00  0.00    +0.000 C 
ATOM     26  C   UNL     1      65.808  66.672  71.775  0.00  0.00    +0.000 C 
ATOM     27  C   UNL     1      66.325  67.244  71.481  0.00  0.00    +0.000 C 
ATOM     28  C   UNL     1      66.185  67.324  70.673  0.00  0.00    +0.000 C 
ATOM     29  C   UNL     1      65.580  66.802  70.466  0.00  0.00    +0.000 C 
ENDROOT
TORSDOF 0
ENDMDL
MODEL 4
REMARK VINA RESULT:   -14.169      3.362      3.917
REMARK INTER + INTRA:         -14.169
REMARK INTER:                 -14.169
REMARK INTRA:                   0.000
REMARK UNBOUND:                 0.000
ROOT
REMARK  Name = estradiol cypionate
REMARK                            x       y       z     vdW  Elec       q    Type
REMARK                         _______ _______ _______ _____ _____    ______ ____
ATOM      1  C   UNL     1      62.493  64.428  69.031  0.00  0.00    +0.000 C 
ATOM      2  C   UNL     1      62.463  64.778  69.778  0.00  0.00    +0.000 C 
ATOM      3  C   UNL     1      63.194  64.852  69.402  0.00  0.00    +0.000 C 
ATOM      4  C   UNL     1      63.812  65.249  69.776  0.00  0.00    +0.000 C 
ATOM      5  C   UNL     1      63.700  65.572  70.527  0.00  0.00    +0.000 C 
ATOM      6  C   UNL     1      62.969  65.498  70.903  0.00  0.00    +0.000 C 
ATOM      7  C   UNL     1      62.857  65.822  71.654  0.00  0.00    +0.000 C 
ATOM      8  C   UNL     1      63.476  66.219  72.028  0.00  0.00    +0.000 C 
ATOM      9  C   UNL     1      64.206  66.292  71.652  0.00  0.00    +0.000 A 
ATOM     10  C   UNL     1      64.318  65.969  70.901  0.00  0.00    +0.000 A 
ATOM     11  C   UNL     1      65.049  66.042  70.525  0.00  0.00    +0.000 A 
ATOM     12  C   UNL     1      65.667  66.440  70.900  0.00  0.00    +0.000 A 
ATOM     13  C   UNL     1      65.555  66.763  71.651  0.00  0.00    +0.000 A 
ATOM     14  O   UNL     1      66.173  67.160  72.026  0.00  0.00    +0.000 OA
ATOM     15  C   UNL     1      64.825  66.689  72.027  0.00  0.00    +0.000 A 
ATOM     16  C   UNL     1      62.350  65.101  70.529  0.00  0.00    +0.000 C 
ATOM     17  C   UNL     1      61.575  64.943  70.761  0.00  0.00    +0.000 C 
ATOM     18  C   UNL     1      61.208  64.521  70.154  0.00  0.00    +0.000 C 
ATOM     19  C   UNL     1      61.756  64.419  69.546  0.00  0.00    +0.000 C 
ATOM     20  O   UNL     1      61.622  64.028  68.832  0.00  0.00    +0.000 OA
ATOM     21  C   UNL     1      60.884  63.695  68.677  0.00  0.00    +0.000 C 
ATOM     22  O   UNL     1      60.279  63.754  69.235  0.00  0.00    +0.000 OA
ATOM     23  C   UNL     1      60.749  63.304  67.964  0.00  0.00    +0.000 C 
ATOM     24  C   UNL     1      60.011  62.970  67.808  0.00  0.00    +0.000 C 
ATOM     25  C   UNL     1      59.877  62.579  67.094  0.00  0.00    +0.000 C 
ATOM     26  C   UNL     1      59.171  62.221  66.863  0.00  0.00    +0.000 C 
ATOM     27  C   UNL     1      59.283  61.897  66.112  0.00  0.00    +0.000 C 
ATOM     28  C   UNL     1      60.058  62.056  65.880  0.00  0.00    +0.000 C 
ATOM     29  C   UNL     1      60.425  62.477  66.487  0.00  0.00    +0.000 C 
ENDROOT
TORSDOF 0
ENDMDL
MODEL 5
REMARK VINA RESULT:   -13.484      1.317      2.052
REMARK INTER + INTRA:         -13.484
REMARK INTER:                 -13.484
REMARK INTRA:                   0.000
REMARK UNBOUND:                 0.000
ROOT
REMARK  Name = estradiol cypionate
REMARK                            x       y       z     vdW  Elec       q    Type
REMARK                         _______ _______ _______ _____ _____    ______ ____
ATOM      1  C   UNL     1      60.867  62.216  67.982  0.00  0.00    +0.000 C 
ATOM      2  C   UNL     1      61.211  62.844  68.393  0.00  0.00    +0.000 C 
ATOM      3  C   UNL     1      60.744  62.351  68.862  0.00  0.00    +0.000 C 
ATOM      4  C   UNL     1      60.657  62.509  69.667  0.00  0.00    +0.000 C 
ATOM      5  C   UNL     1      61.036  63.160  70.003  0.00  0.00    +0.000 C 
ATOM      6  C   UNL     1      61.503  63.653  69.534  0.00  0.00    +0.000 C 
ATOM      7  C   UNL     1      61.882  64.305  69.870  0.00  0.00    +0.000 C 
ATOM      8  C   UNL     1      61.794  64.462  70.675  0.00  0.00    +0.000 C 
ATOM      9  C   UNL     1      61.328  63.969  71.143  0.00  0.00    +0.000 A 
ATOM     10  C   UNL     1      60.949  63.318  70.808  0.00  0.00    +0.000 A 
ATOM     11  C   UNL     1      60.482  62.824  71.277  0.00  0.00    +0.000 A 
ATOM     12  C   UNL     1      60.395  62.983  72.082  0.00  0.00    +0.000 A 
ATOM     13  C   UNL     1      60.775  63.634  72.418  0.00  0.00    +0.000 A 
ATOM     14  O   UNL     1      60.687  63.792  73.222  0.00  0.00    +0.000 OA
ATOM     15  C   UNL     1      61.240  64.127  71.949  0.00  0.00    +0.000 A 
ATOM     16  C   UNL     1      61.590  63.495  68.729  0.00  0.00    +0.000 C 
ATOM     17  C   UNL     1      62.011  63.880  68.133  0.00  0.00    +0.000 C 
ATOM     18  C   UNL     1      61.892  63.467  67.429  0.00  0.00    +0.000 C 
ATOM     19  C   UNL     1      61.397  62.826  67.589  0.00  0.00    +0.000 C 
ATOM     20  O   UNL     1      61.136  62.267  67.043  0.00  0.00    +0.000 OA
ATOM     21  C   UNL     1      61.370  62.321  66.254  0.00  0.00    +0.000 C 
ATOM     22  O   UNL     1      61.865  62.934  66.011  0.00  0.00    +0.000 OA
ATOM     23  C   UNL     1      61.108  61.762  65.706  0.00  0.00    +0.000 C 
ATOM     24  C   UNL     1      61.342  61.815  64.917  0.00  0.00    +0.000 C 
ATOM     25  C   UNL     1      61.080  61.256  64.371  0.00  0.00    +0.000 C 
ATOM     26  C   UNL     1      61.267  61.238  63.567  0.00  0.00    +0.000 C 
ATOM     27  C   UNL     1      60.888  60.587  63.231  0.00  0.00    +0.000 C 
ATOM     28  C   UNL     1      60.467  60.202  63.827  0.00  0.00    +0.000 C 
ATOM     29  C   UNL     1      60.586  60.615  64.531  0.00  0.00    +0.000 C 
ENDROOT
TORSDOF 0
ENDMDL
MODEL 6
REMARK VINA RESULT:   -12.923      1.913      5.951
REMARK INTER + INTRA:         -12.923
REMARK INTER:                 -12.923
REMARK INTRA:                   0.000
REMARK UNBOUND:                 0.000
ROOT
REMARK  Name = estradiol cypionate
REMARK                            x       y       z     vdW  Elec       q    Type
REMARK                         _______ _______ _______ _____ _____    ______ ____
ATOM      1  C   UNL     1      61.764  64.696  69.479  0.00  0.00    +0.000 C 
ATOM      2  C   UNL     1      61.349  63.991  69.367  0.00  0.00    +0.000 C 
ATOM      3  C   UNL     1      61.794  64.226  68.713  0.00  0.00    +0.000 C 
ATOM      4  C   UNL     1      61.795  63.766  68.028  0.00  0.00    +0.000 C 
ATOM      5  C   UNL     1      61.351  63.072  67.997  0.00  0.00    +0.000 C 
ATOM      6  C   UNL     1      60.906  62.837  68.651  0.00  0.00    +0.000 C 
ATOM      7  C   UNL     1      60.462  62.142  68.619  0.00  0.00    +0.000 C 
ATOM      8  C   UNL     1      60.463  61.683  67.934  0.00  0.00    +0.000 C 
ATOM      9  C   UNL     1      60.908  61.918  67.281  0.00  0.00    +0.000 A 
ATOM     10  C   UNL     1      61.352  62.612  67.312  0.00  0.00    +0.000 A 
ATOM     11  C   UNL     1      61.797  62.847  66.658  0.00  0.00    +0.000 A 
ATOM     12  C   UNL     1      61.798  62.387  65.973  0.00  0.00    +0.000 A 
ATOM     13  C   UNL     1      61.353  61.693  65.942  0.00  0.00    +0.000 A 
ATOM     14  O   UNL     1      61.355  61.233  65.257  0.00  0.00    +0.000 OA
ATOM     15  C   UNL     1      60.909  61.458  66.595  0.00  0.00    +0.000 A 
ATOM     16  C   UNL     1      60.905  63.296  69.336  0.00  0.00    +0.000 C 
ATOM     17  C   UNL     1      60.523  63.205  70.061  0.00  0.00    +0.000 C 
ATOM     18  C   UNL     1      60.731  63.844  70.541  0.00  0.00    +0.000 C 
ATOM     19  C   UNL     1      61.242  64.330  70.112  0.00  0.00    +0.000 C 
ATOM     20  O   UNL     1      61.585  65.030  70.381  0.00  0.00    +0.000 OA
ATOM     21  C   UNL     1      61.425  65.301  71.143  0.00  0.00    +0.000 C 
ATOM     22  O   UNL     1      60.923  64.872  71.637  0.00  0.00    +0.000 OA
ATOM     23  C   UNL     1      61.768  66.002  71.413  0.00  0.00    +0.000 C 
ATOM     24  C   UNL     1      61.609  66.273  72.175  0.00  0.00    +0.000 C 
ATOM     25  C   UNL     1      61.951  66.974  72.443  0.00  0.00    +0.000 C 
ATOM     26  C   UNL     1      61.844  67.312  73.188  0.00  0.00    +0.000 C 
ATOM     27  C   UNL     1      62.288  68.006  73.219  0.00  0.00    +0.000 C 
ATOM     28  C   UNL     1      62.670  68.097  72.494  0.00  0.00    +0.000 C 
ATOM     29  C   UNL     1      62.462  67.459  72.015  0.00  0.00    +0.000 C 
ENDROOT
TORSDOF 0
ENDMDL
MODEL 7
REMARK VINA RESULT:   -12.832      4.267      5.054
REMARK INTER + INTRA:         -12.832
REMARK INTER:                 -12.832
REMARK INTRA:                   0.000
REMARK UNBOUND:                 0.000
ROOT
REMARK  Name = estradiol cypionate
REMARK                            x       y       z     vdW  Elec       q    Type
REMARK                         _______ _______ _______ _____ _____    ______ ____
ATOM      1  C   UNL     1      62.425  66.531  71.317  0.00  0.00    +0.000 C 
ATOM      2  C   UNL     1      62.058  65.818  71.514  0.00  0.00    +0.000 C 
ATOM      3  C   UNL     1      61.564  66.476  71.570  0.00  0.00    +0.000 C 
ATOM      4  C   UNL     1      60.779  66.384  71.807  0.00  0.00    +0.000 C 
ATOM      5  C   UNL     1      60.488  65.634  71.987  0.00  0.00    +0.000 C 
ATOM      6  C   UNL     1      60.982  64.975  71.931  0.00  0.00    +0.000 C 
ATOM      7  C   UNL     1      60.691  64.224  72.111  0.00  0.00    +0.000 C 
ATOM      8  C   UNL     1      59.906  64.132  72.348  0.00  0.00    +0.000 C 
ATOM      9  C   UNL     1      59.413  64.791  72.404  0.00  0.00    +0.000 A 
ATOM     10  C   UNL     1      59.704  65.542  72.224  0.00  0.00    +0.000 A 
ATOM     11  C   UNL     1      59.209  66.200  72.280  0.00  0.00    +0.000 A 
ATOM     12  C   UNL     1      58.425  66.107  72.517  0.00  0.00    +0.000 A 
ATOM     13  C   UNL     1      58.134  65.357  72.697  0.00  0.00    +0.000 A 
ATOM     14  O   UNL     1      57.349  65.265  72.934  0.00  0.00    +0.000 OA
ATOM     15  C   UNL     1      58.627  64.699  72.641  0.00  0.00    +0.000 A 
ATOM     16  C   UNL     1      61.767  65.067  71.694  0.00  0.00    +0.000 C 
ATOM     17  C   UNL     1      62.379  64.524  71.589  0.00  0.00    +0.000 C 
ATOM     18  C   UNL     1      63.049  64.940  71.344  0.00  0.00    +0.000 C 
ATOM     19  C   UNL     1      62.850  65.739  71.297  0.00  0.00    +0.000 C 
ATOM     20  O   UNL     1      63.355  66.352  71.074  0.00  0.00    +0.000 OA
ATOM     21  C   UNL     1      64.137  66.188  70.871  0.00  0.00    +0.000 C 
ATOM     22  O   UNL     1      64.415  65.412  70.891  0.00  0.00    +0.000 OA
ATOM     23  C   UNL     1      64.643  66.801  70.647  0.00  0.00    +0.000 C 
ATOM     24  C   UNL     1      65.425  66.638  70.444  0.00  0.00    +0.000 C 
ATOM     25  C   UNL     1      65.930  67.251  70.220  0.00  0.00    +0.000 C 
ATOM     26  C   UNL     1      66.723  67.171  70.003  0.00  0.00    +0.000 C 
ATOM     27  C   UNL     1      67.013  67.922  69.823  0.00  0.00    +0.000 C 
ATOM     28  C   UNL     1      66.401  68.465  69.928  0.00  0.00    +0.000 C 
ATOM     29  C   UNL     1      65.732  68.049  70.174  0.00  0.00    +0.000 C 
ENDROOT
TORSDOF 0
ENDMDL
