MODEL 1
REMARK VINA RESULT:   -11.304      0.000      0.000
REMARK INTER + INTRA:         -11.304
REMARK INTER:                 -11.304
REMARK INTRA:                   0.000
REMARK UNBOUND:                 0.000
ROOT
REMARK  Name = eszopiclone
REMARK                            x       y       z     vdW  Elec       q    Type
REMARK                         _______ _______ _______ _____ _____    ______ ____
ATOM      1  C   UNL     1      59.819  62.389  66.908  0.00  0.00    +0.000 C 
ATOM      2  N   UNL     1      60.327  62.741  67.456  0.00  0.00    +0.000 NA
ATOM      3  C   UNL     1      60.033  63.005  68.180  0.00  0.00    +0.000 C 
ATOM      4  C   UNL     1      60.541  63.356  68.728  0.00  0.00    +0.000 C 
ATOM      5  N   UNL     1      61.342  63.443  68.551  0.00  0.00    +0.000 N 
ATOM      6  C   UNL     1      61.636  63.178  67.827  0.00  0.00    +0.000 C 
ATOM      7  C   UNL     1      61.128  62.827  67.280  0.00  0.00    +0.000 C 
ATOM      8  C   UNL     1      61.850  63.794  69.099  0.00  0.00    +0.000 C 
ATOM      9  O   UNL     1      62.651  63.880  68.922  0.00  0.00    +0.000 OA
ATOM     10  O   UNL     1      61.556  64.059  69.823  0.00  0.00    +0.000 OA
ATOM     11  C   UNL     1      62.064  64.410  70.371  0.00  0.00    +0.000 C 
ATOM     12  N   UNL     1      61.850  64.699  71.113  0.00  0.00    +0.000 N 
ATOM     13  C   UNL     1      62.529  65.002  71.473  0.00  0.00    +0.000 C 
ATOM     14  O   UNL     1      62.567  65.346  72.222  0.00  0.00    +0.000 OA
ATOM     15  C   UNL     1      63.160  64.899  70.954  0.00  0.00    +0.000 A 
ATOM     16  N   UNL     1      63.961  65.091  71.012  0.00  0.00    +0.000 NA
ATOM     17  C   UNL     1      64.473  64.917  70.390  0.00  0.00    +0.000 A 
ATOM     18  C   UNL     1      64.186  64.552  69.709  0.00  0.00    +0.000 A 
ATOM     19  N   UNL     1      63.386  64.359  69.649  0.00  0.00    +0.000 NA
ATOM     20  C   UNL     1      62.873  64.533  70.272  0.00  0.00    +0.000 A 
ATOM     21  C   UNL     1      61.092  64.689  71.438  0.00  0.00    +0.000 A 
ATOM     22  C   UNL     1      60.464  64.367  71.011  0.00  0.00    +0.000 A 
ATOM     23  C   UNL     1      59.706  64.356  71.337  0.00  0.00    +0.000 A 
ATOM     24  C   UNL     1      59.576  64.667  72.089  0.00  0.00    +0.000 A 
ATOM     25 CL   UNL     1      58.818  64.656  72.414  0.00  0.00    +0.000 Cl
ATOM     26  C   UNL     1      60.204  64.989  72.517  0.00  0.00    +0.000 A 
ATOM     27  N   UNL     1      60.962  65.000  72.192  0.00  0.00    +0.000 NA
ENDROOT
TORSDOF 0
ENDMDL
MODEL 2
REMARK VINA RESULT:   -11.105      2.038      2.580
REMARK INTER + INTRA:         -11.105
REMARK INTER:                 -11.105
REMARK INTRA:                   0.000
REMARK UNBOUND:                 0.000
ROOT
REMARK  Name = eszopiclone
REMARK                            x       y       z     vdW  Elec       q    Type
REMARK                         _______ _______ _______ _____ _____    ______ ____
ATOM      1  C   UNL     1      61.150  61.694  66.971  0.00  0.00    +0.000 C 
ATOM      2  N   UNL     1      60.961  62.316  67.479  0.00  0.00    +0.000 NA
ATOM      3  C   UNL     1      61.091  62.241  68.290  0.00  0.00    +0.000 C 
ATOM      4  C   UNL     1      60.902  62.863  68.798  0.00  0.00    +0.000 C 
ATOM      5  N   UNL     1      60.583  63.560  68.495  0.00  0.00    +0.000 N 
ATOM      6  C   UNL     1      60.452  63.636  67.684  0.00  0.00    +0.000 C 
ATOM      7  C   UNL     1      60.641  63.014  67.176  0.00  0.00    +0.000 C 
ATOM      8  C   UNL     1      60.394  64.183  69.003  0.00  0.00    +0.000 C 
ATOM      9  O   UNL     1      60.074  64.880  68.699  0.00  0.00    +0.000 OA
ATOM     10  O   UNL     1      60.524  64.107  69.814  0.00  0.00    +0.000 OA
ATOM     11  C   UNL     1      60.335  64.730  70.322  0.00  0.00    +0.000 C 
ATOM     12  N   UNL     1      60.434  64.734  71.141  0.00  0.00    +0.000 N 
ATOM     13  C   UNL     1      60.174  65.464  71.425  0.00  0.00    +0.000 C 
ATOM     14  O   UNL     1      60.174  65.704  72.214  0.00  0.00    +0.000 OA
ATOM     15  C   UNL     1      59.914  65.910  70.782  0.00  0.00    +0.000 A 
ATOM     16  N   UNL     1      59.600  66.671  70.728  0.00  0.00    +0.000 NA
ATOM     17  C   UNL     1      59.386  66.978  69.994  0.00  0.00    +0.000 A 
ATOM     18  C   UNL     1      59.485  66.524  69.312  0.00  0.00    +0.000 A 
ATOM     19  N   UNL     1      59.799  65.763  69.364  0.00  0.00    +0.000 NA
ATOM     20  C   UNL     1      60.014  65.456  70.100  0.00  0.00    +0.000 A 
ATOM     21  C   UNL     1      60.739  64.117  71.596  0.00  0.00    +0.000 A 
ATOM     22  C   UNL     1      60.978  63.416  71.233  0.00  0.00    +0.000 A 
ATOM     23  C   UNL     1      61.283  62.799  71.688  0.00  0.00    +0.000 A 
ATOM     24  C   UNL     1      61.350  62.884  72.506  0.00  0.00    +0.000 A 
ATOM     25 CL   UNL     1      61.655  62.267  72.961  0.00  0.00    +0.000 Cl
ATOM     26  C   UNL     1      61.111  63.585  72.869  0.00  0.00    +0.000 A 
ATOM     27  N   UNL     1      60.806  64.202  72.414  0.00  0.00    +0.000 NA
ENDROOT
TORSDOF 0
ENDMDL
MODEL 3
REMARK VINA RESULT:   -10.873      2.207      3.961
REMARK INTER + INTRA:         -10.873
REMARK INTER:                 -10.873
REMARK INTRA:                   0.000
REMARK UNBOUND:                 0.000
ROOT
REMARK  Name = eszopiclone
REMARK                            x       y       z     vdW  Elec       q    Type
REMARK                         _______ _______ _______ _____ _____    ______ ____
ATOM      1  C   UNL     1      57.185  66.180  73.222  0.00  0.00    +0.000 C 
ATOM      2  N   UNL     1      57.981  66.107  73.017  0.00  0.00    +0.000 NA
ATOM      3  C   UNL     1      58.257  65.408  72.677  0.00  0.00    +0.000 C 
ATOM      4  C   UNL     1      59.054  65.335  72.472  0.00  0.00    +0.000 C 
ATOM      5  N   UNL     1      59.573  65.961  72.608  0.00  0.00    +0.000 N 
ATOM      6  C   UNL     1      59.297  66.660  72.949  0.00  0.00    +0.000 C 
ATOM      7  C   UNL     1      58.502  66.733  73.153  0.00  0.00    +0.000 C 
ATOM      8  C   UNL     1      60.369  65.888  72.404  0.00  0.00    +0.000 C 
ATOM      9  O   UNL     1      60.889  66.514  72.540  0.00  0.00    +0.000 OA
ATOM     10  O   UNL     1      60.645  65.189  72.063  0.00  0.00    +0.000 OA
ATOM     11  C   UNL     1      61.442  65.116  71.858  0.00  0.00    +0.000 C 
ATOM     12  N   UNL     1      61.795  64.455  71.516  0.00  0.00    +0.000 N 
ATOM     13  C   UNL     1      62.596  64.621  71.406  0.00  0.00    +0.000 C 
ATOM     14  O   UNL     1      63.157  64.113  71.079  0.00  0.00    +0.000 OA
ATOM     15  C   UNL     1      62.737  65.386  71.681  0.00  0.00    +0.000 A 
ATOM     16  N   UNL     1      63.422  65.844  71.714  0.00  0.00    +0.000 NA
ATOM     17  C   UNL     1      63.395  66.607  72.025  0.00  0.00    +0.000 A 
ATOM     18  C   UNL     1      62.681  66.913  72.304  0.00  0.00    +0.000 A 
ATOM     19  N   UNL     1      61.995  66.456  72.273  0.00  0.00    +0.000 NA
ATOM     20  C   UNL     1      62.023  65.692  71.961  0.00  0.00    +0.000 A 
ATOM     21  C   UNL     1      61.415  63.750  71.317  0.00  0.00    +0.000 A 
ATOM     22  C   UNL     1      60.607  63.661  71.460  0.00  0.00    +0.000 A 
ATOM     23  C   UNL     1      60.227  62.957  71.261  0.00  0.00    +0.000 A 
ATOM     24  C   UNL     1      60.655  62.340  70.920  0.00  0.00    +0.000 A 
ATOM     25 CL   UNL     1      60.275  61.635  70.722  0.00  0.00    +0.000 Cl
ATOM     26  C   UNL     1      61.463  62.427  70.777  0.00  0.00    +0.000 A 
ATOM     27  N   UNL     1      61.843  63.132  70.976  0.00  0.00    +0.000 NA
ENDROOT
TORSDOF 0
ENDMDL
MODEL 4
REMARK VINA RESULT:   -10.786      1.526      2.965
REMARK INTER + INTRA:         -10.786
REMARK INTER:                 -10.786
REMARK INTRA:                   0.000
REMARK UNBOUND:                 0.000
ROOT
REMARK  Name = eszopiclone
REMARK                            x       y       z     vdW  Elec       q    Type
REMARK                         _______ _______ _______ _____ _____    ______ ____
ATOM      1  C   UNL     1      61.001  62.434  66.362  0.00  0.00    +0.000 C 
ATOM      2  N   UNL     1      60.989  62.687  67.148  0.00  0.00    +0.000 NA
ATOM      3  C   UNL     1      61.624  63.117  67.452  0.00  0.00    +0.000 C 
ATOM      4  C   UNL     1      61.612  63.369  68.238  0.00  0.00    +0.000 C 
ATOM      5  N   UNL     1      60.965  63.192  68.718  0.00  0.00    +0.000 N 
ATOM      6  C   UNL     1      60.330  62.762  68.413  0.00  0.00    +0.000 C 
ATOM      7  C   UNL     1      60.342  62.510  67.628  0.00  0.00    +0.000 C 
ATOM      8  C   UNL     1      60.953  63.444  69.504  0.00  0.00    +0.000 C 
ATOM      9  O   UNL     1      60.306  63.267  69.984  0.00  0.00    +0.000 OA
ATOM     10  O   UNL     1      61.587  63.874  69.809  0.00  0.00    +0.000 OA
ATOM     11  C   UNL     1      61.575  64.127  70.594  0.00  0.00    +0.000 C 
ATOM     12  N   UNL     1      62.167  64.559  70.973  0.00  0.00    +0.000 N 
ATOM     13  C   UNL     1      61.927  64.691  71.752  0.00  0.00    +0.000 C 
ATOM     14  O   UNL     1      62.352  65.101  72.327  0.00  0.00    +0.000 OA
ATOM     15  C   UNL     1      61.187  64.340  71.853  0.00  0.00    +0.000 A 
ATOM     16  N   UNL     1      60.683  64.293  72.504  0.00  0.00    +0.000 NA
ATOM     17  C   UNL     1      59.962  63.898  72.440  0.00  0.00    +0.000 A 
ATOM     18  C   UNL     1      59.745  63.550  71.725  0.00  0.00    +0.000 A 
ATOM     19  N   UNL     1      60.248  63.596  71.073  0.00  0.00    +0.000 NA
ATOM     20  C   UNL     1      60.970  63.992  71.138  0.00  0.00    +0.000 A 
ATOM     21  C   UNL     1      62.874  64.814  70.634  0.00  0.00    +0.000 A 
ATOM     22  C   UNL     1      63.040  64.640  69.845  0.00  0.00    +0.000 A 
ATOM     23  C   UNL     1      63.748  64.895  69.506  0.00  0.00    +0.000 A 
ATOM     24  C   UNL     1      64.289  65.325  69.956  0.00  0.00    +0.000 A 
ATOM     25 CL   UNL     1      64.996  65.580  69.617  0.00  0.00    +0.000 Cl
ATOM     26  C   UNL     1      64.124  65.499  70.746  0.00  0.00    +0.000 A 
ATOM     27  N   UNL     1      63.417  65.244  71.085  0.00  0.00    +0.000 NA
ENDROOT
TORSDOF 0
ENDMDL
MODEL 5
REMARK VINA RESULT:   -10.746      2.992      5.137
REMARK INTER + INTRA:         -10.746
REMARK INTER:                 -10.746
REMARK INTRA:                   0.000
REMARK UNBOUND:                 0.000
ROOT
REMARK  Name = eszopiclone
REMARK                            x       y       z     vdW  Elec       q    Type
REMARK                         _______ _______ _______ _____ _____    ______ ____
ATOM      1  C   UNL     1      64.070  67.722  72.444  0.00  0.00    +0.000 C 
ATOM      2  N   UNL     1      63.285  67.473  72.499  0.00  0.00    +0.000 NA
ATOM      3  C   UNL     1      63.084  66.697  72.303  0.00  0.00    +0.000 C 
ATOM      4  C   UNL     1      62.299  66.448  72.358  0.00  0.00    +0.000 C 
ATOM      5  N   UNL     1      61.716  66.975  72.610  0.00  0.00    +0.000 N 
ATOM      6  C   UNL     1      61.918  67.750  72.806  0.00  0.00    +0.000 C 
ATOM      7  C   UNL     1      62.702  67.999  72.751  0.00  0.00    +0.000 C 
ATOM      8  C   UNL     1      60.931  66.726  72.665  0.00  0.00    +0.000 C 
ATOM      9  O   UNL     1      60.349  67.253  72.917  0.00  0.00    +0.000 OA
ATOM     10  O   UNL     1      60.730  65.950  72.468  0.00  0.00    +0.000 OA
ATOM     11  C   UNL     1      59.945  65.701  72.524  0.00  0.00    +0.000 C 
ATOM     12  N   UNL     1      59.662  64.947  72.347  0.00  0.00    +0.000 N 
ATOM     13  C   UNL     1      58.848  64.942  72.479  0.00  0.00    +0.000 C 
ATOM     14  O   UNL     1      58.343  64.299  72.372  0.00  0.00    +0.000 OA
ATOM     15  C   UNL     1      58.628  65.693  72.738  0.00  0.00    +0.000 A 
ATOM     16  N   UNL     1      57.897  66.012  72.952  0.00  0.00    +0.000 NA
ATOM     17  C   UNL     1      57.845  66.799  73.194  0.00  0.00    +0.000 A 
ATOM     18  C   UNL     1      58.523  67.268  73.221  0.00  0.00    +0.000 A 
ATOM     19  N   UNL     1      59.253  66.950  73.007  0.00  0.00    +0.000 NA
ATOM     20  C   UNL     1      59.306  66.163  72.765  0.00  0.00    +0.000 A 
ATOM     21  C   UNL     1      60.114  64.309  72.084  0.00  0.00    +0.000 A 
ATOM     22  C   UNL     1      60.927  64.395  71.976  0.00  0.00    +0.000 A 
ATOM     23  C   UNL     1      61.379  63.757  71.713  0.00  0.00    +0.000 A 
ATOM     24  C   UNL     1      61.018  63.033  71.558  0.00  0.00    +0.000 A 
ATOM     25 CL   UNL     1      61.470  62.395  71.295  0.00  0.00    +0.000 Cl
ATOM     26  C   UNL     1      60.205  62.945  71.665  0.00  0.00    +0.000 A 
ATOM     27  N   UNL     1      59.753  63.583  71.928  0.00  0.00    +0.000 NA
ENDROOT
TORSDOF 0
ENDMDL
MODEL 6
REMARK VINA RESULT:   -10.658      2.055      2.320
REMARK INTER + INTRA:         -10.658
REMARK INTER:                 -10.658
REMARK INTRA:                   0.000
REMARK UNBOUND:                 0.000
ROOT
REMARK  Name = eszopiclone
REMARK                            x       y       z     vdW  Elec       q    Type
REMARK                         _______ _______ _______ _____ _____    ______ ____
ATOM      1  C   UNL     1      60.131  62.233  66.366  0.00  0.00    +0.000 C 
ATOM      2  N   UNL     1      60.264  62.396  67.164  0.00  0.00    +0.000 NA
ATOM      3  C   UNL     1      60.093  63.145  67.466  0.00  0.00    +0.000 C 
ATOM      4  C   UNL     1      60.226  63.307  68.264  0.00  0.00    +0.000 C 
ATOM      5  N   UNL     1      60.529  62.721  68.760  0.00  0.00    +0.000 N 
ATOM      6  C   UNL     1      60.699  61.973  68.457  0.00  0.00    +0.000 C 
ATOM      7  C   UNL     1      60.567  61.811  67.660  0.00  0.00    +0.000 C 
ATOM      8  C   UNL     1      60.662  62.884  69.558  0.00  0.00    +0.000 C 
ATOM      9  O   UNL     1      60.965  62.298  70.053  0.00  0.00    +0.000 OA
ATOM     10  O   UNL     1      60.491  63.633  69.860  0.00  0.00    +0.000 OA
ATOM     11  C   UNL     1      60.624  63.796  70.658  0.00  0.00    +0.000 C 
ATOM     12  N   UNL     1      60.480  64.514  71.036  0.00  0.00    +0.000 N 
ATOM     13  C   UNL     1      60.691  64.431  71.830  0.00  0.00    +0.000 C 
ATOM     14  O   UNL     1      60.637  65.015  72.409  0.00  0.00    +0.000 OA
ATOM     15  C   UNL     1      60.964  63.661  71.941  0.00  0.00    +0.000 A 
ATOM     16  N   UNL     1      61.246  63.266  72.609  0.00  0.00    +0.000 NA
ATOM     17  C   UNL     1      61.486  62.480  72.552  0.00  0.00    +0.000 A 
ATOM     18  C   UNL     1      61.444  62.087  71.828  0.00  0.00    +0.000 A 
ATOM     19  N   UNL     1      61.163  62.481  71.160  0.00  0.00    +0.000 NA
ATOM     20  C   UNL     1      60.923  63.269  71.217  0.00  0.00    +0.000 A 
ATOM     21  C   UNL     1      60.179  65.197  70.684  0.00  0.00    +0.000 A 
ATOM     22  C   UNL     1      59.992  65.198  69.880  0.00  0.00    +0.000 A 
ATOM     23  C   UNL     1      59.691  65.880  69.527  0.00  0.00    +0.000 A 
ATOM     24  C   UNL     1      59.577  66.561  69.978  0.00  0.00    +0.000 A 
ATOM     25 CL   UNL     1      59.276  67.243  69.625  0.00  0.00    +0.000 Cl
ATOM     26  C   UNL     1      59.763  66.561  70.782  0.00  0.00    +0.000 A 
ATOM     27  N   UNL     1      60.064  65.879  71.135  0.00  0.00    +0.000 NA
ENDROOT
TORSDOF 0
ENDMDL
MODEL 7
REMARK VINA RESULT:   -10.327      2.628      3.971
REMARK INTER + INTRA:         -10.327
REMARK INTER:                 -10.327
REMARK INTRA:                   0.000
REMARK UNBOUND:                 0.000
ROOT
REMARK  Name = eszopiclone
REMARK                            x       y       z     vdW  Elec       q    Type
REMARK                         _______ _______ _______ _____ _____    ______ ____
ATOM      1  C   UNL     1      61.158  61.400  70.756  0.00  0.00    +0.000 C 
ATOM      2  N   UNL     1      61.026  62.158  71.055  0.00  0.00    +0.000 NA
ATOM      3  C   UNL     1      61.640  62.709  71.069  0.00  0.00    +0.000 C 
ATOM      4  C   UNL     1      61.508  63.467  71.368  0.00  0.00    +0.000 C 
ATOM      5  N   UNL     1      60.762  63.673  71.652  0.00  0.00    +0.000 N 
ATOM      6  C   UNL     1      60.147  63.123  71.638  0.00  0.00    +0.000 C 
ATOM      7  C   UNL     1      60.280  62.366  71.339  0.00  0.00    +0.000 C 
ATOM      8  C   UNL     1      60.629  64.432  71.951  0.00  0.00    +0.000 C 
ATOM      9  O   UNL     1      59.883  64.638  72.235  0.00  0.00    +0.000 OA
ATOM     10  O   UNL     1      61.244  64.982  71.965  0.00  0.00    +0.000 OA
ATOM     11  C   UNL     1      61.111  65.740  72.263  0.00  0.00    +0.000 C 
ATOM     12  N   UNL     1      61.669  66.346  72.313  0.00  0.00    +0.000 N 
ATOM     13  C   UNL     1      61.301  67.005  72.645  0.00  0.00    +0.000 C 
ATOM     14  O   UNL     1      61.656  67.734  72.795  0.00  0.00    +0.000 OA
ATOM     15  C   UNL     1      60.516  66.807  72.801  0.00  0.00    +0.000 A 
ATOM     16  N   UNL     1      59.892  67.237  73.127  0.00  0.00    +0.000 NA
ATOM     17  C   UNL     1      59.151  66.886  73.217  0.00  0.00    +0.000 A 
ATOM     18  C   UNL     1      59.034  66.104  72.981  0.00  0.00    +0.000 A 
ATOM     19  N   UNL     1      59.657  65.673  72.655  0.00  0.00    +0.000 NA
ATOM     20  C   UNL     1      60.399  66.025  72.565  0.00  0.00    +0.000 A 
ATOM     21  C   UNL     1      62.457  66.300  72.072  0.00  0.00    +0.000 A 
ATOM     22  C   UNL     1      62.750  65.601  71.748  0.00  0.00    +0.000 A 
ATOM     23  C   UNL     1      63.538  65.555  71.507  0.00  0.00    +0.000 A 
ATOM     24  C   UNL     1      64.033  66.209  71.591  0.00  0.00    +0.000 A 
ATOM     25 CL   UNL     1      64.821  66.164  71.351  0.00  0.00    +0.000 Cl
ATOM     26  C   UNL     1      63.741  66.910  71.916  0.00  0.00    +0.000 A 
ATOM     27  N   UNL     1      62.953  66.955  72.156  0.00  0.00    +0.000 NA
ENDROOT
TORSDOF 0
ENDMDL
MODEL 8
REMARK VINA RESULT:   -10.289      1.607      4.152
REMARK INTER + INTRA:         -10.289
REMARK INTER:                 -10.289
REMARK INTRA:                   0.000
REMARK UNBOUND:                 0.000
ROOT
REMARK  Name = eszopiclone
REMARK                            x       y       z     vdW  Elec       q    Type
REMARK                         _______ _______ _______ _____ _____    ______ ____
ATOM      1  C   UNL     1      65.456  66.864  69.840  0.00  0.00    +0.000 C 
ATOM      2  N   UNL     1      64.771  66.507  70.130  0.00  0.00    +0.000 NA
ATOM      3  C   UNL     1      64.345  65.984  69.655  0.00  0.00    +0.000 C 
ATOM      4  C   UNL     1      63.660  65.627  69.945  0.00  0.00    +0.000 C 
ATOM      5  N   UNL     1      63.401  65.793  70.710  0.00  0.00    +0.000 N 
ATOM      6  C   UNL     1      63.827  66.315  71.186  0.00  0.00    +0.000 C 
ATOM      7  C   UNL     1      64.511  66.672  70.896  0.00  0.00    +0.000 C 
ATOM      8  C   UNL     1      62.716  65.435  71.000  0.00  0.00    +0.000 C 
ATOM      9  O   UNL     1      62.457  65.601  71.766  0.00  0.00    +0.000 OA
ATOM     10  O   UNL     1      62.291  64.913  70.525  0.00  0.00    +0.000 OA
ATOM     11  C   UNL     1      61.605  64.555  70.815  0.00  0.00    +0.000 C 
ATOM     12  N   UNL     1      61.126  64.024  70.406  0.00  0.00    +0.000 N 
ATOM     13  C   UNL     1      60.503  63.807  70.903  0.00  0.00    +0.000 C 
ATOM     14  O   UNL     1      59.893  63.285  70.716  0.00  0.00    +0.000 OA
ATOM     15  C   UNL     1      60.600  64.204  71.619  0.00  0.00    +0.000 A 
ATOM     16  N   UNL     1      60.155  64.206  72.314  0.00  0.00    +0.000 NA
ATOM     17  C   UNL     1      60.391  64.668  72.954  0.00  0.00    +0.000 A 
ATOM     18  C   UNL     1      61.072  65.131  72.900  0.00  0.00    +0.000 A 
ATOM     19  N   UNL     1      61.517  65.130  72.205  0.00  0.00    +0.000 NA
ATOM     20  C   UNL     1      61.281  64.667  71.564  0.00  0.00    +0.000 A 
ATOM     21  C   UNL     1      61.246  63.756  69.635  0.00  0.00    +0.000 A 
ATOM     22  C   UNL     1      61.895  64.022  69.202  0.00  0.00    +0.000 A 
ATOM     23  C   UNL     1      62.016  63.755  68.431  0.00  0.00    +0.000 A 
ATOM     24  C   UNL     1      61.486  63.221  68.093  0.00  0.00    +0.000 A 
ATOM     25 CL   UNL     1      61.607  62.953  67.322  0.00  0.00    +0.000 Cl
ATOM     26  C   UNL     1      60.836  62.954  68.525  0.00  0.00    +0.000 A 
ATOM     27  N   UNL     1      60.716  63.221  69.296  0.00  0.00    +0.000 NA
ENDROOT
TORSDOF 0
ENDMDL
MODEL 9
REMARK VINA RESULT:   -10.244      1.743      3.389
REMARK INTER + INTRA:         -10.244
REMARK INTER:                 -10.244
REMARK INTRA:                   0.000
REMARK UNBOUND:                 0.000
ROOT
REMARK  Name = eszopiclone
REMARK                            x       y       z     vdW  Elec       q    Type
REMARK                         _______ _______ _______ _____ _____    ______ ____
ATOM      1  C   UNL     1      65.011  66.346  69.846  0.00  0.00    +0.000 C 
ATOM      2  N   UNL     1      64.367  65.858  70.017  0.00  0.00    +0.000 NA
ATOM      3  C   UNL     1      63.760  66.131  70.505  0.00  0.00    +0.000 C 
ATOM      4  C   UNL     1      63.117  65.643  70.675  0.00  0.00    +0.000 C 
ATOM      5  N   UNL     1      63.080  64.883  70.357  0.00  0.00    +0.000 N 
ATOM      6  C   UNL     1      63.687  64.610  69.869  0.00  0.00    +0.000 C 
ATOM      7  C   UNL     1      64.330  65.098  69.699  0.00  0.00    +0.000 C 
ATOM      8  C   UNL     1      62.436  64.396  70.527  0.00  0.00    +0.000 C 
ATOM      9  O   UNL     1      62.400  63.635  70.209  0.00  0.00    +0.000 OA
ATOM     10  O   UNL     1      61.830  64.669  71.015  0.00  0.00    +0.000 OA
ATOM     11  C   UNL     1      61.186  64.181  71.186  0.00  0.00    +0.000 C 
ATOM     12  N   UNL     1      60.542  64.377  71.662  0.00  0.00    +0.000 N 
ATOM     13  C   UNL     1      60.032  63.729  71.680  0.00  0.00    +0.000 C 
ATOM     14  O   UNL     1      59.318  63.685  72.091  0.00  0.00    +0.000 OA
ATOM     15  C   UNL     1      60.360  63.133  71.215  0.00  0.00    +0.000 A 
ATOM     16  N   UNL     1      60.103  62.371  71.030  0.00  0.00    +0.000 NA
ATOM     17  C   UNL     1      60.558  61.889  70.539  0.00  0.00    +0.000 A 
ATOM     18  C   UNL     1      61.271  62.169  70.234  0.00  0.00    +0.000 A 
ATOM     19  N   UNL     1      61.530  62.930  70.418  0.00  0.00    +0.000 NA
ATOM     20  C   UNL     1      61.074  63.412  70.909  0.00  0.00    +0.000 A 
ATOM     21  C   UNL     1      60.428  65.095  72.052  0.00  0.00    +0.000 A 
ATOM     22  C   UNL     1      60.989  65.696  71.983  0.00  0.00    +0.000 A 
ATOM     23  C   UNL     1      60.875  66.414  72.373  0.00  0.00    +0.000 A 
ATOM     24  C   UNL     1      60.201  66.531  72.832  0.00  0.00    +0.000 A 
ATOM     25 CL   UNL     1      60.087  67.249  73.222  0.00  0.00    +0.000 Cl
ATOM     26  C   UNL     1      59.639  65.930  72.902  0.00  0.00    +0.000 A 
ATOM     27  N   UNL     1      59.753  65.212  72.512  0.00  0.00    +0.000 NA
ENDROOT
TORSDOF 0
ENDMDL
