MODEL 1
REMARK VINA RESULT:    -8.526      0.000      0.000
REMARK INTER + INTRA:          -8.526
REMARK INTER:                  -8.526
REMARK INTRA:                   0.000
REMARK UNBOUND:                 0.000
ROOT
REMARK  Name = etafedrine
REMARK                            x       y       z     vdW  Elec       q    Type
REMARK                         _______ _______ _______ _____ _____    ______ ____
ATOM      1  C   UNL     1      60.107  63.117  68.384  0.00  0.00    +0.000 C 
ATOM      2  C   UNL     1      60.130  62.744  67.648  0.00  0.00    +0.000 C 
ATOM      3  N   UNL     1      60.817  62.774  67.193  0.00  0.00    +0.000 NA
ATOM      4  C   UNL     1      61.480  63.177  67.472  0.00  0.00    +0.000 C 
ATOM      5  C   UNL     1      60.839  62.401  66.457  0.00  0.00    +0.000 C 
ATOM      6  C   UNL     1      60.177  61.999  66.178  0.00  0.00    +0.000 C 
ATOM      7  C   UNL     1      61.527  62.432  66.001  0.00  0.00    +0.000 C 
ATOM      8  O   UNL     1      62.190  62.835  66.280  0.00  0.00    +0.000 OA
ATOM      9  C   UNL     1      61.549  62.059  65.265  0.00  0.00    +0.000 A 
ATOM     10  C   UNL     1      62.237  62.089  64.809  0.00  0.00    +0.000 A 
ATOM     11  C   UNL     1      62.260  61.716  64.074  0.00  0.00    +0.000 A 
ATOM     12  C   UNL     1      61.597  61.314  63.794  0.00  0.00    +0.000 A 
ATOM     13  C   UNL     1      60.910  61.283  64.250  0.00  0.00    +0.000 A 
ATOM     14  C   UNL     1      60.887  61.656  64.986  0.00  0.00    +0.000 A 
ENDROOT
TORSDOF 0
ENDMDL
MODEL 2
REMARK VINA RESULT:    -7.644      3.221      5.719
REMARK INTER + INTRA:          -7.644
REMARK INTER:                  -7.644
REMARK INTRA:                   0.000
REMARK UNBOUND:                 0.000
ROOT
REMARK  Name = etafedrine
REMARK                            x       y       z     vdW  Elec       q    Type
REMARK                         _______ _______ _______ _____ _____    ______ ____
ATOM      1  C   UNL     1      60.176  62.144  68.057  0.00  0.00    +0.000 C 
ATOM      2  C   UNL     1      60.443  62.010  68.826  0.00  0.00    +0.000 C 
ATOM      3  N   UNL     1      60.512  62.640  69.354  0.00  0.00    +0.000 NA
ATOM      4  C   UNL     1      60.314  63.404  69.114  0.00  0.00    +0.000 C 
ATOM      5  C   UNL     1      60.779  62.505  70.123  0.00  0.00    +0.000 C 
ATOM      6  C   UNL     1      60.976  61.742  70.363  0.00  0.00    +0.000 C 
ATOM      7  C   UNL     1      60.848  63.135  70.652  0.00  0.00    +0.000 C 
ATOM      8  O   UNL     1      60.650  63.899  70.412  0.00  0.00    +0.000 OA
ATOM      9  C   UNL     1      61.114  63.000  71.421  0.00  0.00    +0.000 A 
ATOM     10  C   UNL     1      61.183  63.630  71.950  0.00  0.00    +0.000 A 
ATOM     11  C   UNL     1      61.450  63.495  72.718  0.00  0.00    +0.000 A 
ATOM     12  C   UNL     1      61.648  62.732  72.958  0.00  0.00    +0.000 A 
ATOM     13  C   UNL     1      61.579  62.102  72.430  0.00  0.00    +0.000 A 
ATOM     14  C   UNL     1      61.312  62.237  71.661  0.00  0.00    +0.000 A 
ENDROOT
TORSDOF 0
ENDMDL
MODEL 3
REMARK VINA RESULT:    -7.437      5.474      7.201
REMARK INTER + INTRA:          -7.437
REMARK INTER:                  -7.437
REMARK INTRA:                   0.000
REMARK UNBOUND:                 0.000
ROOT
REMARK  Name = etafedrine
REMARK                            x       y       z     vdW  Elec       q    Type
REMARK                         _______ _______ _______ _____ _____    ______ ____
ATOM      1  C   UNL     1      62.508  63.897  70.199  0.00  0.00    +0.000 C 
ATOM      2  C   UNL     1      63.106  64.433  70.004  0.00  0.00    +0.000 C 
ATOM      3  N   UNL     1      63.380  64.967  70.570  0.00  0.00    +0.000 NA
ATOM      4  C   UNL     1      63.057  64.968  71.329  0.00  0.00    +0.000 C 
ATOM      5  C   UNL     1      63.978  65.502  70.375  0.00  0.00    +0.000 C 
ATOM      6  C   UNL     1      64.300  65.501  69.616  0.00  0.00    +0.000 C 
ATOM      7  C   UNL     1      64.252  66.037  70.940  0.00  0.00    +0.000 C 
ATOM      8  O   UNL     1      63.929  66.038  71.699  0.00  0.00    +0.000 OA
ATOM      9  C   UNL     1      64.849  66.572  70.745  0.00  0.00    +0.000 A 
ATOM     10  C   UNL     1      65.124  67.107  71.310  0.00  0.00    +0.000 A 
ATOM     11  C   UNL     1      65.721  67.641  71.115  0.00  0.00    +0.000 A 
ATOM     12  C   UNL     1      66.044  67.641  70.357  0.00  0.00    +0.000 A 
ATOM     13  C   UNL     1      65.770  67.106  69.792  0.00  0.00    +0.000 A 
ATOM     14  C   UNL     1      65.172  66.571  69.987  0.00  0.00    +0.000 A 
ENDROOT
TORSDOF 0
ENDMDL
MODEL 4
REMARK VINA RESULT:    -7.368      5.409      6.387
REMARK INTER + INTRA:          -7.368
REMARK INTER:                  -7.368
REMARK INTRA:                   0.000
REMARK UNBOUND:                 0.000
ROOT
REMARK  Name = etafedrine
REMARK                            x       y       z     vdW  Elec       q    Type
REMARK                         _______ _______ _______ _____ _____    ______ ____
ATOM      1  C   UNL     1      60.482  66.141  73.136  0.00  0.00    +0.000 C 
ATOM      2  C   UNL     1      60.795  65.397  72.966  0.00  0.00    +0.000 C 
ATOM      3  N   UNL     1      60.421  64.908  72.417  0.00  0.00    +0.000 NA
ATOM      4  C   UNL     1      59.734  65.162  72.039  0.00  0.00    +0.000 C 
ATOM      5  C   UNL     1      60.735  64.164  72.248  0.00  0.00    +0.000 C 
ATOM      6  C   UNL     1      61.421  63.910  72.626  0.00  0.00    +0.000 C 
ATOM      7  C   UNL     1      60.360  63.674  71.699  0.00  0.00    +0.000 C 
ATOM      8  O   UNL     1      59.673  63.928  71.320  0.00  0.00    +0.000 OA
ATOM      9  C   UNL     1      60.674  62.930  71.530  0.00  0.00    +0.000 A 
ATOM     10  C   UNL     1      60.299  62.440  70.980  0.00  0.00    +0.000 A 
ATOM     11  C   UNL     1      60.613  61.696  70.811  0.00  0.00    +0.000 A 
ATOM     12  C   UNL     1      61.299  61.442  71.189  0.00  0.00    +0.000 A 
ATOM     13  C   UNL     1      61.674  61.931  71.738  0.00  0.00    +0.000 A 
ATOM     14  C   UNL     1      61.360  62.676  71.908  0.00  0.00    +0.000 A 
ENDROOT
TORSDOF 0
ENDMDL
MODEL 5
REMARK VINA RESULT:    -7.192      2.753      3.989
REMARK INTER + INTRA:          -7.192
REMARK INTER:                  -7.192
REMARK INTRA:                   0.000
REMARK UNBOUND:                 0.000
ROOT
REMARK  Name = etafedrine
REMARK                            x       y       z     vdW  Elec       q    Type
REMARK                         _______ _______ _______ _____ _____    ______ ____
ATOM      1  C   UNL     1      61.500  62.927  72.522  0.00  0.00    +0.000 C 
ATOM      2  C   UNL     1      61.212  62.620  71.812  0.00  0.00    +0.000 C 
ATOM      3  N   UNL     1      61.344  63.024  71.105  0.00  0.00    +0.000 NA
ATOM      4  C   UNL     1      61.763  63.735  71.108  0.00  0.00    +0.000 C 
ATOM      5  C   UNL     1      61.057  62.716  70.396  0.00  0.00    +0.000 C 
ATOM      6  C   UNL     1      60.639  62.006  70.393  0.00  0.00    +0.000 C 
ATOM      7  C   UNL     1      61.189  63.120  69.688  0.00  0.00    +0.000 C 
ATOM      8  O   UNL     1      61.608  63.831  69.690  0.00  0.00    +0.000 OA
ATOM      9  C   UNL     1      60.902  62.813  68.978  0.00  0.00    +0.000 A 
ATOM     10  C   UNL     1      61.034  63.217  68.271  0.00  0.00    +0.000 A 
ATOM     11  C   UNL     1      60.746  62.909  67.561  0.00  0.00    +0.000 A 
ATOM     12  C   UNL     1      60.328  62.199  67.559  0.00  0.00    +0.000 A 
ATOM     13  C   UNL     1      60.196  61.795  68.266  0.00  0.00    +0.000 A 
ATOM     14  C   UNL     1      60.484  62.103  68.976  0.00  0.00    +0.000 A 
ENDROOT
TORSDOF 0
ENDMDL
MODEL 6
REMARK VINA RESULT:    -7.189      5.053      6.329
REMARK INTER + INTRA:          -7.189
REMARK INTER:                  -7.189
REMARK INTRA:                   0.000
REMARK UNBOUND:                 0.000
ROOT
REMARK  Name = etafedrine
REMARK                            x       y       z     vdW  Elec       q    Type
REMARK                         _______ _______ _______ _____ _____    ______ ____
ATOM      1  C   UNL     1      63.924  66.127  69.605  0.00  0.00    +0.000 C 
ATOM      2  C   UNL     1      63.529  65.792  70.248  0.00  0.00    +0.000 C 
ATOM      3  N   UNL     1      63.196  65.040  70.179  0.00  0.00    +0.000 NA
ATOM      4  C   UNL     1      63.258  64.624  69.470  0.00  0.00    +0.000 C 
ATOM      5  C   UNL     1      62.801  64.706  70.822  0.00  0.00    +0.000 C 
ATOM      6  C   UNL     1      62.739  65.122  71.530  0.00  0.00    +0.000 C 
ATOM      7  C   UNL     1      62.467  63.953  70.754  0.00  0.00    +0.000 C 
ATOM      8  O   UNL     1      62.529  63.537  70.044  0.00  0.00    +0.000 OA
ATOM      9  C   UNL     1      62.072  63.619  71.396  0.00  0.00    +0.000 A 
ATOM     10  C   UNL     1      61.739  62.866  71.328  0.00  0.00    +0.000 A 
ATOM     11  C   UNL     1      61.344  62.532  71.970  0.00  0.00    +0.000 A 
ATOM     12  C   UNL     1      61.282  62.948  72.679  0.00  0.00    +0.000 A 
ATOM     13  C   UNL     1      61.615  63.699  72.747  0.00  0.00    +0.000 A 
ATOM     14  C   UNL     1      62.010  64.035  72.104  0.00  0.00    +0.000 A 
ENDROOT
TORSDOF 0
ENDMDL
MODEL 7
REMARK VINA RESULT:    -7.014      5.595      7.017
REMARK INTER + INTRA:          -7.014
REMARK INTER:                  -7.014
REMARK INTRA:                   0.000
REMARK UNBOUND:                 0.000
ROOT
REMARK  Name = etafedrine
REMARK                            x       y       z     vdW  Elec       q    Type
REMARK                         _______ _______ _______ _____ _____    ______ ____
ATOM      1  C   UNL     1      66.150  67.637  70.164  0.00  0.00    +0.000 C 
ATOM      2  C   UNL     1      65.636  67.007  70.019  0.00  0.00    +0.000 C 
ATOM      3  N   UNL     1      65.111  66.761  70.605  0.00  0.00    +0.000 NA
ATOM      4  C   UNL     1      65.098  67.144  71.336  0.00  0.00    +0.000 C 
ATOM      5  C   UNL     1      64.597  66.132  70.460  0.00  0.00    +0.000 C 
ATOM      6  C   UNL     1      64.609  65.750  69.730  0.00  0.00    +0.000 C 
ATOM      7  C   UNL     1      64.071  65.886  71.046  0.00  0.00    +0.000 C 
ATOM      8  O   UNL     1      64.059  66.269  71.777  0.00  0.00    +0.000 OA
ATOM      9  C   UNL     1      63.558  65.257  70.901  0.00  0.00    +0.000 A 
ATOM     10  C   UNL     1      63.031  65.011  71.488  0.00  0.00    +0.000 A 
ATOM     11  C   UNL     1      62.518  64.382  71.343  0.00  0.00    +0.000 A 
ATOM     12  C   UNL     1      62.530  63.999  70.613  0.00  0.00    +0.000 A 
ATOM     13  C   UNL     1      63.056  64.245  70.026  0.00  0.00    +0.000 A 
ATOM     14  C   UNL     1      63.570  64.875  70.171  0.00  0.00    +0.000 A 
ENDROOT
TORSDOF 0
ENDMDL
MODEL 8
REMARK VINA RESULT:    -6.923      5.755      6.336
REMARK INTER + INTRA:          -6.923
REMARK INTER:                  -6.923
REMARK INTRA:                   0.000
REMARK UNBOUND:                 0.000
ROOT
REMARK  Name = etafedrine
REMARK                            x       y       z     vdW  Elec       q    Type
REMARK                         _______ _______ _______ _____ _____    ______ ____
ATOM      1  C   UNL     1      61.132  63.344  72.518  0.00  0.00    +0.000 C 
ATOM      2  C   UNL     1      61.700  63.518  71.944  0.00  0.00    +0.000 C 
ATOM      3  N   UNL     1      62.068  64.256  71.938  0.00  0.00    +0.000 NA
ATOM      4  C   UNL     1      61.869  64.821  72.506  0.00  0.00    +0.000 C 
ATOM      5  C   UNL     1      62.635  64.428  71.364  0.00  0.00    +0.000 C 
ATOM      6  C   UNL     1      62.833  63.864  70.797  0.00  0.00    +0.000 C 
ATOM      7  C   UNL     1      63.003  65.167  71.358  0.00  0.00    +0.000 C 
ATOM      8  O   UNL     1      62.805  65.732  71.926  0.00  0.00    +0.000 OA
ATOM      9  C   UNL     1      63.570  65.340  70.784  0.00  0.00    +0.000 A 
ATOM     10  C   UNL     1      63.939  66.079  70.778  0.00  0.00    +0.000 A 
ATOM     11  C   UNL     1      64.506  66.251  70.204  0.00  0.00    +0.000 A 
ATOM     12  C   UNL     1      64.704  65.687  69.637  0.00  0.00    +0.000 A 
ATOM     13  C   UNL     1      64.336  64.949  69.643  0.00  0.00    +0.000 A 
ATOM     14  C   UNL     1      63.768  64.776  70.217  0.00  0.00    +0.000 A 
ENDROOT
TORSDOF 0
ENDMDL
MODEL 9
REMARK VINA RESULT:    -6.675      4.695      6.560
REMARK INTER + INTRA:          -6.675
REMARK INTER:                  -6.675
REMARK INTRA:                   0.000
REMARK UNBOUND:                 0.000
ROOT
REMARK  Name = etafedrine
REMARK                            x       y       z     vdW  Elec       q    Type
REMARK                         _______ _______ _______ _____ _____    ______ ____
ATOM      1  C   UNL     1      60.331  61.664  70.651  0.00  0.00    +0.000 C 
ATOM      2  C   UNL     1      60.521  62.280  71.167  0.00  0.00    +0.000 C 
ATOM      3  N   UNL     1      61.062  62.859  70.937  0.00  0.00    +0.000 NA
ATOM      4  C   UNL     1      61.412  62.823  70.191  0.00  0.00    +0.000 C 
ATOM      5  C   UNL     1      61.251  63.473  71.453  0.00  0.00    +0.000 C 
ATOM      6  C   UNL     1      60.901  63.509  72.198  0.00  0.00    +0.000 C 
ATOM      7  C   UNL     1      61.792  64.053  71.223  0.00  0.00    +0.000 C 
ATOM      8  O   UNL     1      62.143  64.017  70.478  0.00  0.00    +0.000 OA
ATOM      9  C   UNL     1      61.982  64.667  71.740  0.00  0.00    +0.000 A 
ATOM     10  C   UNL     1      62.523  65.247  71.510  0.00  0.00    +0.000 A 
ATOM     11  C   UNL     1      62.713  65.861  72.026  0.00  0.00    +0.000 A 
ATOM     12  C   UNL     1      62.362  65.897  72.771  0.00  0.00    +0.000 A 
ATOM     13  C   UNL     1      61.822  65.319  73.001  0.00  0.00    +0.000 A 
ATOM     14  C   UNL     1      61.632  64.703  72.485  0.00  0.00    +0.000 A 
ENDROOT
TORSDOF 0
ENDMDL
