MODEL 1
REMARK VINA RESULT:    -8.801      0.000      0.000
REMARK INTER + INTRA:          -8.801
REMARK INTER:                  -8.801
REMARK INTRA:                   0.000
REMARK UNBOUND:                 0.000
ROOT
REMARK  Name = etamiphylline
REMARK                            x       y       z     vdW  Elec       q    Type
REMARK                         _______ _______ _______ _____ _____    ______ ____
ATOM      1  C   UNL     1      61.087  61.307  64.206  0.00  0.00    +0.000 C 
ATOM      2  C   UNL     1      60.805  61.289  64.981  0.00  0.00    +0.000 C 
ATOM      3  N   UNL     1      61.118  61.803  65.546  0.00  0.00    +0.000 NA
ATOM      4  C   UNL     1      61.713  62.335  65.335  0.00  0.00    +0.000 C 
ATOM      5  C   UNL     1      62.026  62.848  65.899  0.00  0.00    +0.000 C 
ATOM      6  C   UNL     1      60.836  61.786  66.321  0.00  0.00    +0.000 C 
ATOM      7  C   UNL     1      61.150  62.300  66.885  0.00  0.00    +0.000 C 
ATOM      8  N   UNL     1      60.868  62.282  67.660  0.00  0.00    +0.000 N 
ATOM      9  C   UNL     1      60.279  61.784  67.952  0.00  0.00    +0.000 A 
ATOM     10  N   UNL     1      60.172  61.954  68.752  0.00  0.00    +0.000 NA
ATOM     11  C   UNL     1      60.697  62.558  68.955  0.00  0.00    +0.000 A 
ATOM     12  C   UNL     1      61.127  62.761  68.281  0.00  0.00    +0.000 A 
ATOM     13  C   UNL     1      61.698  63.355  68.319  0.00  0.00    +0.000 A 
ATOM     14  O   UNL     1      62.128  63.558  67.645  0.00  0.00    +0.000 OA
ATOM     15  N   UNL     1      61.840  63.745  69.032  0.00  0.00    +0.000 N 
ATOM     16  C   UNL     1      62.411  64.340  69.070  0.00  0.00    +0.000 C 
ATOM     17  C   UNL     1      61.410  63.543  69.706  0.00  0.00    +0.000 A 
ATOM     18  O   UNL     1      61.552  63.934  70.419  0.00  0.00    +0.000 OA
ATOM     19  N   UNL     1      60.838  62.948  69.668  0.00  0.00    +0.000 N 
ATOM     20  C   UNL     1      60.408  62.746  70.342  0.00  0.00    +0.000 C 
ENDROOT
TORSDOF 0
ENDMDL
MODEL 2
REMARK VINA RESULT:    -8.573      1.375      2.764
REMARK INTER + INTRA:          -8.573
REMARK INTER:                  -8.573
REMARK INTRA:                   0.000
REMARK UNBOUND:                 0.000
ROOT
REMARK  Name = etamiphylline
REMARK                            x       y       z     vdW  Elec       q    Type
REMARK                         _______ _______ _______ _____ _____    ______ ____
ATOM      1  C   UNL     1      60.765  62.134  66.259  0.00  0.00    +0.000 C 
ATOM      2  C   UNL     1      61.176  62.673  66.730  0.00  0.00    +0.000 C 
ATOM      3  N   UNL     1      61.091  62.652  67.551  0.00  0.00    +0.000 NA
ATOM      4  C   UNL     1      60.595  62.092  67.900  0.00  0.00    +0.000 C 
ATOM      5  C   UNL     1      60.510  62.071  68.719  0.00  0.00    +0.000 C 
ATOM      6  C   UNL     1      61.501  63.191  68.021  0.00  0.00    +0.000 C 
ATOM      7  C   UNL     1      61.416  63.170  68.842  0.00  0.00    +0.000 C 
ATOM      8  N   UNL     1      61.826  63.708  69.313  0.00  0.00    +0.000 N 
ATOM      9  C   UNL     1      62.339  64.296  69.044  0.00  0.00    +0.000 A 
ATOM     10  N   UNL     1      62.626  64.705  69.701  0.00  0.00    +0.000 NA
ATOM     11  C   UNL     1      62.290  64.370  70.376  0.00  0.00    +0.000 A 
ATOM     12  C   UNL     1      61.796  63.754  70.136  0.00  0.00    +0.000 A 
ATOM     13  C   UNL     1      61.383  63.314  70.699  0.00  0.00    +0.000 A 
ATOM     14  O   UNL     1      60.889  62.698  70.460  0.00  0.00    +0.000 OA
ATOM     15  N   UNL     1      61.464  63.490  71.501  0.00  0.00    +0.000 N 
ATOM     16  C   UNL     1      61.050  63.050  72.064  0.00  0.00    +0.000 C 
ATOM     17  C   UNL     1      61.958  64.106  71.740  0.00  0.00    +0.000 A 
ATOM     18  O   UNL     1      62.038  64.282  72.542  0.00  0.00    +0.000 OA
ATOM     19  N   UNL     1      62.371  64.546  71.178  0.00  0.00    +0.000 N 
ATOM     20  C   UNL     1      62.865  65.162  71.417  0.00  0.00    +0.000 C 
ENDROOT
TORSDOF 0
ENDMDL
MODEL 3
REMARK VINA RESULT:    -8.507      3.660      5.587
REMARK INTER + INTRA:          -8.507
REMARK INTER:                  -8.507
REMARK INTRA:                   0.000
REMARK UNBOUND:                 0.000
ROOT
REMARK  Name = etamiphylline
REMARK                            x       y       z     vdW  Elec       q    Type
REMARK                         _______ _______ _______ _____ _____    ______ ____
ATOM      1  C   UNL     1      66.229  67.628  70.222  0.00  0.00    +0.000 C 
ATOM      2  C   UNL     1      65.752  66.991  70.002  0.00  0.00    +0.000 C 
ATOM      3  N   UNL     1      65.142  66.741  70.499  0.00  0.00    +0.000 NA
ATOM      4  C   UNL     1      65.009  67.128  71.215  0.00  0.00    +0.000 C 
ATOM      5  C   UNL     1      64.400  66.878  71.711  0.00  0.00    +0.000 C 
ATOM      6  C   UNL     1      64.666  66.105  70.278  0.00  0.00    +0.000 C 
ATOM      7  C   UNL     1      64.056  65.855  70.775  0.00  0.00    +0.000 C 
ATOM      8  N   UNL     1      63.580  65.219  70.554  0.00  0.00    +0.000 N 
ATOM      9  C   UNL     1      63.646  64.781  69.858  0.00  0.00    +0.000 A 
ATOM     10  N   UNL     1      63.060  64.199  69.865  0.00  0.00    +0.000 NA
ATOM     11  C   UNL     1      62.631  64.279  70.566  0.00  0.00    +0.000 A 
ATOM     12  C   UNL     1      62.952  64.908  70.991  0.00  0.00    +0.000 A 
ATOM     13  C   UNL     1      62.632  65.118  71.722  0.00  0.00    +0.000 A 
ATOM     14  O   UNL     1      62.952  65.748  72.148  0.00  0.00    +0.000 OA
ATOM     15  N   UNL     1      61.990  64.698  72.027  0.00  0.00    +0.000 N 
ATOM     16  C   UNL     1      61.670  64.907  72.758  0.00  0.00    +0.000 C 
ATOM     17  C   UNL     1      61.670  64.068  71.601  0.00  0.00    +0.000 A 
ATOM     18  O   UNL     1      61.028  63.648  71.906  0.00  0.00    +0.000 OA
ATOM     19  N   UNL     1      61.990  63.859  70.870  0.00  0.00    +0.000 N 
ATOM     20  C   UNL     1      61.670  63.229  70.444  0.00  0.00    +0.000 C 
ENDROOT
TORSDOF 0
ENDMDL
MODEL 4
REMARK VINA RESULT:    -8.403      2.485      4.665
REMARK INTER + INTRA:          -8.403
REMARK INTER:                  -8.403
REMARK INTRA:                   0.000
REMARK UNBOUND:                 0.000
ROOT
REMARK  Name = etamiphylline
REMARK                            x       y       z     vdW  Elec       q    Type
REMARK                         _______ _______ _______ _____ _____    ______ ____
ATOM      1  C   UNL     1      59.359  67.762  71.317  0.00  0.00    +0.000 C 
ATOM      2  C   UNL     1      59.506  66.966  71.476  0.00  0.00    +0.000 C 
ATOM      3  N   UNL     1      59.623  66.437  70.854  0.00  0.00    +0.000 NA
ATOM      4  C   UNL     1      59.593  66.704  70.074  0.00  0.00    +0.000 C 
ATOM      5  C   UNL     1      59.710  66.175  69.452  0.00  0.00    +0.000 C 
ATOM      6  C   UNL     1      59.770  65.641  71.012  0.00  0.00    +0.000 C 
ATOM      7  C   UNL     1      59.887  65.111  70.390  0.00  0.00    +0.000 C 
ATOM      8  N   UNL     1      60.035  64.315  70.549  0.00  0.00    +0.000 N 
ATOM      9  C   UNL     1      60.081  63.969  71.296  0.00  0.00    +0.000 A 
ATOM     10  N   UNL     1      60.237  63.165  71.196  0.00  0.00    +0.000 NA
ATOM     11  C   UNL     1      60.287  63.014  70.387  0.00  0.00    +0.000 A 
ATOM     12  C   UNL     1      60.162  63.725  69.986  0.00  0.00    +0.000 A 
ATOM     13  C   UNL     1      60.180  63.742  69.161  0.00  0.00    +0.000 A 
ATOM     14  O   UNL     1      60.055  64.452  68.761  0.00  0.00    +0.000 OA
ATOM     15  N   UNL     1      60.323  63.049  68.737  0.00  0.00    +0.000 N 
ATOM     16  C   UNL     1      60.341  63.066  67.912  0.00  0.00    +0.000 C 
ATOM     17  C   UNL     1      60.448  62.338  69.138  0.00  0.00    +0.000 A 
ATOM     18  O   UNL     1      60.591  61.645  68.713  0.00  0.00    +0.000 OA
ATOM     19  N   UNL     1      60.430  62.321  69.963  0.00  0.00    +0.000 N 
ATOM     20  C   UNL     1      60.554  61.611  70.363  0.00  0.00    +0.000 C 
ENDROOT
TORSDOF 0
ENDMDL
MODEL 5
REMARK VINA RESULT:    -8.348      3.013      5.378
REMARK INTER + INTRA:          -8.348
REMARK INTER:                  -8.348
REMARK INTRA:                   0.000
REMARK UNBOUND:                 0.000
ROOT
REMARK  Name = etamiphylline
REMARK                            x       y       z     vdW  Elec       q    Type
REMARK                         _______ _______ _______ _____ _____    ______ ____
ATOM      1  C   UNL     1      66.167  67.568  70.526  0.00  0.00    +0.000 C 
ATOM      2  C   UNL     1      65.544  67.244  70.959  0.00  0.00    +0.000 C 
ATOM      3  N   UNL     1      65.044  66.689  70.608  0.00  0.00    +0.000 NA
ATOM      4  C   UNL     1      65.168  66.458  69.826  0.00  0.00    +0.000 C 
ATOM      5  C   UNL     1      64.668  65.903  69.476  0.00  0.00    +0.000 C 
ATOM      6  C   UNL     1      64.421  66.364  71.041  0.00  0.00    +0.000 C 
ATOM      7  C   UNL     1      63.921  65.809  70.690  0.00  0.00    +0.000 C 
ATOM      8  N   UNL     1      63.298  65.484  71.123  0.00  0.00    +0.000 N 
ATOM      9  C   UNL     1      63.107  65.660  71.905  0.00  0.00    +0.000 A 
ATOM     10  N   UNL     1      62.447  65.211  72.115  0.00  0.00    +0.000 NA
ATOM     11  C   UNL     1      62.230  64.757  71.460  0.00  0.00    +0.000 A 
ATOM     12  C   UNL     1      62.756  64.926  70.847  0.00  0.00    +0.000 A 
ATOM     13  C   UNL     1      62.673  64.550  70.117  0.00  0.00    +0.000 A 
ATOM     14  O   UNL     1      63.199  64.719  69.504  0.00  0.00    +0.000 OA
ATOM     15  N   UNL     1      62.065  64.005  70.001  0.00  0.00    +0.000 N 
ATOM     16  C   UNL     1      61.982  63.629  69.271  0.00  0.00    +0.000 C 
ATOM     17  C   UNL     1      61.539  63.836  70.614  0.00  0.00    +0.000 A 
ATOM     18  O   UNL     1      60.931  63.291  70.497  0.00  0.00    +0.000 OA
ATOM     19  N   UNL     1      61.622  64.213  71.344  0.00  0.00    +0.000 N 
ATOM     20  C   UNL     1      61.096  64.044  71.957  0.00  0.00    +0.000 C 
ENDROOT
TORSDOF 0
ENDMDL
MODEL 6
REMARK VINA RESULT:    -8.332      2.026      4.567
REMARK INTER + INTRA:          -8.332
REMARK INTER:                  -8.332
REMARK INTRA:                   0.000
REMARK UNBOUND:                 0.000
ROOT
REMARK  Name = etamiphylline
REMARK                            x       y       z     vdW  Elec       q    Type
REMARK                         _______ _______ _______ _____ _____    ______ ____
ATOM      1  C   UNL     1      64.264  66.814  71.555  0.00  0.00    +0.000 C 
ATOM      2  C   UNL     1      63.800  66.147  71.692  0.00  0.00    +0.000 C 
ATOM      3  N   UNL     1      63.436  65.761  71.060  0.00  0.00    +0.000 NA
ATOM      4  C   UNL     1      63.537  66.043  70.291  0.00  0.00    +0.000 C 
ATOM      5  C   UNL     1      63.173  65.658  69.660  0.00  0.00    +0.000 C 
ATOM      6  C   UNL     1      62.971  65.094  71.197  0.00  0.00    +0.000 C 
ATOM      7  C   UNL     1      62.607  64.708  70.564  0.00  0.00    +0.000 C 
ATOM      8  N   UNL     1      62.142  64.040  70.701  0.00  0.00    +0.000 N 
ATOM      9  C   UNL     1      61.991  63.696  71.435  0.00  0.00    +0.000 A 
ATOM     10  N   UNL     1      61.502  63.042  71.316  0.00  0.00    +0.000 NA
ATOM     11  C   UNL     1      61.351  62.983  70.506  0.00  0.00    +0.000 A 
ATOM     12  C   UNL     1      61.746  63.599  70.127  0.00  0.00    +0.000 A 
ATOM     13  C   UNL     1      61.695  63.680  69.307  0.00  0.00    +0.000 A 
ATOM     14  O   UNL     1      62.090  64.296  68.927  0.00  0.00    +0.000 OA
ATOM     15  N   UNL     1      61.248  63.143  68.868  0.00  0.00    +0.000 N 
ATOM     16  C   UNL     1      61.196  63.223  68.048  0.00  0.00    +0.000 C 
ATOM     17  C   UNL     1      60.852  62.527  69.247  0.00  0.00    +0.000 A 
ATOM     18  O   UNL     1      60.405  61.991  68.807  0.00  0.00    +0.000 OA
ATOM     19  N   UNL     1      60.904  62.446  70.067  0.00  0.00    +0.000 N 
ATOM     20  C   UNL     1      60.508  61.830  70.447  0.00  0.00    +0.000 C 
ENDROOT
TORSDOF 0
ENDMDL
MODEL 7
REMARK VINA RESULT:    -8.329      3.722      4.885
REMARK INTER + INTRA:          -8.329
REMARK INTER:                  -8.329
REMARK INTRA:                   0.000
REMARK UNBOUND:                 0.000
ROOT
REMARK  Name = etamiphylline
REMARK                            x       y       z     vdW  Elec       q    Type
REMARK                         _______ _______ _______ _____ _____    ______ ____
ATOM      1  C   UNL     1      61.629  61.303  71.720  0.00  0.00    +0.000 C 
ATOM      2  C   UNL     1      61.338  61.855  71.181  0.00  0.00    +0.000 C 
ATOM      3  N   UNL     1      61.132  62.612  71.437  0.00  0.00    +0.000 NA
ATOM      4  C   UNL     1      61.217  62.816  72.232  0.00  0.00    +0.000 C 
ATOM      5  C   UNL     1      61.010  63.573  72.487  0.00  0.00    +0.000 C 
ATOM      6  C   UNL     1      60.841  63.165  70.898  0.00  0.00    +0.000 C 
ATOM      7  C   UNL     1      60.635  63.922  71.154  0.00  0.00    +0.000 C 
ATOM      8  N   UNL     1      60.344  64.474  70.614  0.00  0.00    +0.000 N 
ATOM      9  C   UNL     1      60.229  64.351  69.807  0.00  0.00    +0.000 A 
ATOM     10  N   UNL     1      59.931  65.048  69.481  0.00  0.00    +0.000 NA
ATOM     11  C   UNL     1      59.861  65.602  70.089  0.00  0.00    +0.000 A 
ATOM     12  C   UNL     1      60.116  65.248  70.789  0.00  0.00    +0.000 A 
ATOM     13  C   UNL     1      60.108  65.676  71.495  0.00  0.00    +0.000 A 
ATOM     14  O   UNL     1      60.363  65.322  72.195  0.00  0.00    +0.000 OA
ATOM     15  N   UNL     1      59.844  66.457  71.499  0.00  0.00    +0.000 N 
ATOM     16  C   UNL     1      59.836  66.885  72.205  0.00  0.00    +0.000 C 
ATOM     17  C   UNL     1      59.589  66.812  70.799  0.00  0.00    +0.000 A 
ATOM     18  O   UNL     1      59.326  67.594  70.805  0.00  0.00    +0.000 OA
ATOM     19  N   UNL     1      59.598  66.384  70.094  0.00  0.00    +0.000 N 
ATOM     20  C   UNL     1      59.343  66.738  69.394  0.00  0.00    +0.000 C 
ENDROOT
TORSDOF 0
ENDMDL
MODEL 8
REMARK VINA RESULT:    -8.243      3.656      5.036
REMARK INTER + INTRA:          -8.243
REMARK INTER:                  -8.243
REMARK INTRA:                   0.000
REMARK UNBOUND:                 0.000
ROOT
REMARK  Name = etamiphylline
REMARK                            x       y       z     vdW  Elec       q    Type
REMARK                         _______ _______ _______ _____ _____    ______ ____
ATOM      1  C   UNL     1      60.483  61.891  70.922  0.00  0.00    +0.000 C 
ATOM      2  C   UNL     1      61.129  62.290  70.601  0.00  0.00    +0.000 C 
ATOM      3  N   UNL     1      61.401  62.985  70.955  0.00  0.00    +0.000 NA
ATOM      4  C   UNL     1      61.025  63.280  71.628  0.00  0.00    +0.000 C 
ATOM      5  C   UNL     1      61.297  63.974  71.980  0.00  0.00    +0.000 C 
ATOM      6  C   UNL     1      62.047  63.385  70.634  0.00  0.00    +0.000 C 
ATOM      7  C   UNL     1      62.318  64.080  70.987  0.00  0.00    +0.000 C 
ATOM      8  N   UNL     1      62.965  64.480  70.666  0.00  0.00    +0.000 N 
ATOM      9  C   UNL     1      63.394  64.254  69.999  0.00  0.00    +0.000 A 
ATOM     10  N   UNL     1      63.990  64.811  69.877  0.00  0.00    +0.000 NA
ATOM     11  C   UNL     1      63.930  65.382  70.470  0.00  0.00    +0.000 A 
ATOM     12  C   UNL     1      63.296  65.178  70.957  0.00  0.00    +0.000 A 
ATOM     13  C   UNL     1      63.103  65.653  71.604  0.00  0.00    +0.000 A 
ATOM     14  O   UNL     1      62.470  65.449  72.091  0.00  0.00    +0.000 OA
ATOM     15  N   UNL     1      63.543  66.333  71.761  0.00  0.00    +0.000 N 
ATOM     16  C   UNL     1      63.350  66.809  72.408  0.00  0.00    +0.000 C 
ATOM     17  C   UNL     1      64.177  66.537  71.274  0.00  0.00    +0.000 A 
ATOM     18  O   UNL     1      64.617  67.217  71.432  0.00  0.00    +0.000 OA
ATOM     19  N   UNL     1      64.370  66.061  70.628  0.00  0.00    +0.000 N 
ATOM     20  C   UNL     1      65.003  66.265  70.140  0.00  0.00    +0.000 C 
ENDROOT
TORSDOF 0
ENDMDL
MODEL 9
REMARK VINA RESULT:    -7.732      4.060      4.869
REMARK INTER + INTRA:          -7.732
REMARK INTER:                  -7.732
REMARK INTRA:                   0.000
REMARK UNBOUND:                 0.000
ROOT
REMARK  Name = etamiphylline
REMARK                            x       y       z     vdW  Elec       q    Type
REMARK                         _______ _______ _______ _____ _____    ______ ____
ATOM      1  C   UNL     1      64.928  65.870  69.493  0.00  0.00    +0.000 C 
ATOM      2  C   UNL     1      64.213  66.139  69.801  0.00  0.00    +0.000 C 
ATOM      3  N   UNL     1      63.639  65.598  70.045  0.00  0.00    +0.000 NA
ATOM      4  C   UNL     1      63.782  64.788  69.981  0.00  0.00    +0.000 C 
ATOM      5  C   UNL     1      63.209  64.248  70.224  0.00  0.00    +0.000 C 
ATOM      6  C   UNL     1      62.923  65.868  70.353  0.00  0.00    +0.000 C 
ATOM      7  C   UNL     1      62.349  65.326  70.598  0.00  0.00    +0.000 C 
ATOM      8  N   UNL     1      61.633  65.596  70.906  0.00  0.00    +0.000 N 
ATOM      9  C   UNL     1      61.413  66.385  71.004  0.00  0.00    +0.000 A 
ATOM     10  N   UNL     1      60.655  66.400  71.329  0.00  0.00    +0.000 NA
ATOM     11  C   UNL     1      60.407  65.620  71.432  0.00  0.00    +0.000 A 
ATOM     12  C   UNL     1      61.011  65.123  71.171  0.00  0.00    +0.000 A 
ATOM     13  C   UNL     1      60.917  64.304  71.208  0.00  0.00    +0.000 A 
ATOM     14  O   UNL     1      61.521  63.807  70.947  0.00  0.00    +0.000 OA
ATOM     15  N   UNL     1      60.218  63.983  71.507  0.00  0.00    +0.000 N 
ATOM     16  C   UNL     1      60.124  63.163  71.544  0.00  0.00    +0.000 C 
ATOM     17  C   UNL     1      59.614  64.479  71.768  0.00  0.00    +0.000 A 
ATOM     18  O   UNL     1      58.915  64.157  72.067  0.00  0.00    +0.000 OA
ATOM     19  N   UNL     1      59.708  65.299  71.731  0.00  0.00    +0.000 N 
ATOM     20  C   UNL     1      59.104  65.795  71.992  0.00  0.00    +0.000 C 
ENDROOT
TORSDOF 0
ENDMDL
