MODEL 1
REMARK VINA RESULT:   -13.816      0.000      0.000
REMARK INTER + INTRA:         -13.816
REMARK INTER:                 -13.816
REMARK INTRA:                   0.000
REMARK UNBOUND:                 0.000
ROOT
REMARK  Name = ethaverine
REMARK                            x       y       z     vdW  Elec       q    Type
REMARK                         _______ _______ _______ _____ _____    ______ ____
ATOM      1  C   UNL     1      63.518  66.524  72.161  0.00  0.00    +0.000 C 
ATOM      2  C   UNL     1      63.355  66.105  71.470  0.00  0.00    +0.000 C 
ATOM      3  O   UNL     1      62.728  65.569  71.451  0.00  0.00    +0.000 OA
ATOM      4  C   UNL     1      62.564  65.149  70.760  0.00  0.00    +0.000 A 
ATOM      5  C   UNL     1      61.938  64.615  70.741  0.00  0.00    +0.000 A 
ATOM      6  O   UNL     1      61.473  64.498  71.412  0.00  0.00    +0.000 OA
ATOM      7  C   UNL     1      61.636  64.918  72.103  0.00  0.00    +0.000 C 
ATOM      8  C   UNL     1      61.172  64.802  72.776  0.00  0.00    +0.000 C 
ATOM      9  C   UNL     1      61.774  64.194  70.049  0.00  0.00    +0.000 A 
ATOM     10  C   UNL     1      62.239  64.311  69.376  0.00  0.00    +0.000 A 
ATOM     11  C   UNL     1      62.076  63.891  68.685  0.00  0.00    +0.000 C 
ATOM     12  C   UNL     1      61.448  63.355  68.666  0.00  0.00    +0.000 A 
ATOM     13  N   UNL     1      60.984  63.240  69.338  0.00  0.00    +0.000 NA
ATOM     14  C   UNL     1      60.356  62.703  69.318  0.00  0.00    +0.000 A 
ATOM     15  C   UNL     1      60.194  62.284  68.627  0.00  0.00    +0.000 A 
ATOM     16  C   UNL     1      60.658  62.400  67.956  0.00  0.00    +0.000 A 
ATOM     17  C   UNL     1      60.495  61.980  67.264  0.00  0.00    +0.000 A 
ATOM     18  C   UNL     1      60.959  62.096  66.592  0.00  0.00    +0.000 A 
ATOM     19  O   UNL     1      60.796  61.677  65.900  0.00  0.00    +0.000 OA
ATOM     20  C   UNL     1      61.260  61.792  65.229  0.00  0.00    +0.000 C 
ATOM     21  C   UNL     1      61.098  61.373  64.537  0.00  0.00    +0.000 C 
ATOM     22  C   UNL     1      61.587  62.632  66.612  0.00  0.00    +0.000 A 
ATOM     23  O   UNL     1      62.051  62.748  65.939  0.00  0.00    +0.000 OA
ATOM     24  C   UNL     1      61.888  62.329  65.248  0.00  0.00    +0.000 C 
ATOM     25  C   UNL     1      62.352  62.444  64.576  0.00  0.00    +0.000 C 
ATOM     26  C   UNL     1      61.750  63.051  67.303  0.00  0.00    +0.000 A 
ATOM     27  C   UNL     1      61.286  62.936  67.975  0.00  0.00    +0.000 A 
ATOM     28  C   UNL     1      62.866  64.845  69.396  0.00  0.00    +0.000 A 
ATOM     29  C   UNL     1      63.029  65.265  70.087  0.00  0.00    +0.000 A 
ENDROOT
TORSDOF 0
ENDMDL
MODEL 2
REMARK VINA RESULT:   -12.976      1.143      5.807
REMARK INTER + INTRA:         -12.976
REMARK INTER:                 -12.976
REMARK INTRA:                   0.000
REMARK UNBOUND:                 0.000
ROOT
REMARK  Name = ethaverine
REMARK                            x       y       z     vdW  Elec       q    Type
REMARK                         _______ _______ _______ _____ _____    ______ ____
ATOM      1  C   UNL     1      60.055  61.241  64.729  0.00  0.00    +0.000 C 
ATOM      2  C   UNL     1      59.985  61.601  65.467  0.00  0.00    +0.000 C 
ATOM      3  O   UNL     1      60.639  61.970  65.810  0.00  0.00    +0.000 OA
ATOM      4  C   UNL     1      60.570  62.330  66.549  0.00  0.00    +0.000 A 
ATOM      5  C   UNL     1      61.222  62.698  66.891  0.00  0.00    +0.000 A 
ATOM      6  O   UNL     1      61.946  62.708  66.495  0.00  0.00    +0.000 OA
ATOM      7  C   UNL     1      62.015  62.348  65.756  0.00  0.00    +0.000 C 
ATOM      8  C   UNL     1      62.739  62.357  65.359  0.00  0.00    +0.000 C 
ATOM      9  C   UNL     1      61.153  63.059  67.630  0.00  0.00    +0.000 A 
ATOM     10  C   UNL     1      60.429  63.049  68.027  0.00  0.00    +0.000 A 
ATOM     11  C   UNL     1      60.360  63.409  68.766  0.00  0.00    +0.000 C 
ATOM     12  C   UNL     1      61.013  63.778  69.109  0.00  0.00    +0.000 A 
ATOM     13  N   UNL     1      61.736  63.787  68.712  0.00  0.00    +0.000 NA
ATOM     14  C   UNL     1      62.390  64.157  69.055  0.00  0.00    +0.000 A 
ATOM     15  C   UNL     1      62.320  64.517  69.794  0.00  0.00    +0.000 A 
ATOM     16  C   UNL     1      61.598  64.507  70.190  0.00  0.00    +0.000 A 
ATOM     17  C   UNL     1      61.527  64.867  70.929  0.00  0.00    +0.000 A 
ATOM     18  C   UNL     1      60.805  64.858  71.326  0.00  0.00    +0.000 A 
ATOM     19  O   UNL     1      60.734  65.218  72.065  0.00  0.00    +0.000 OA
ATOM     20  C   UNL     1      60.012  65.208  72.462  0.00  0.00    +0.000 C 
ATOM     21  C   UNL     1      59.941  65.568  73.201  0.00  0.00    +0.000 C 
ATOM     22  C   UNL     1      60.150  64.488  70.983  0.00  0.00    +0.000 A 
ATOM     23  O   UNL     1      59.427  64.479  71.380  0.00  0.00    +0.000 OA
ATOM     24  C   UNL     1      59.357  64.839  72.119  0.00  0.00    +0.000 C 
ATOM     25  C   UNL     1      58.634  64.830  72.516  0.00  0.00    +0.000 C 
ATOM     26  C   UNL     1      60.220  64.129  70.245  0.00  0.00    +0.000 A 
ATOM     27  C   UNL     1      60.943  64.138  69.847  0.00  0.00    +0.000 A 
ATOM     28  C   UNL     1      59.776  62.681  67.685  0.00  0.00    +0.000 A 
ATOM     29  C   UNL     1      59.846  62.320  66.946  0.00  0.00    +0.000 A 
ENDROOT
TORSDOF 0
ENDMDL
MODEL 3
REMARK VINA RESULT:   -12.723      1.364      2.144
REMARK INTER + INTRA:         -12.723
REMARK INTER:                 -12.723
REMARK INTRA:                   0.000
REMARK UNBOUND:                 0.000
ROOT
REMARK  Name = ethaverine
REMARK                            x       y       z     vdW  Elec       q    Type
REMARK                         _______ _______ _______ _____ _____    ______ ____
ATOM      1  C   UNL     1      66.109  67.212  71.087  0.00  0.00    +0.000 C 
ATOM      2  C   UNL     1      65.589  66.753  70.642  0.00  0.00    +0.000 C 
ATOM      3  O   UNL     1      64.804  66.670  70.881  0.00  0.00    +0.000 OA
ATOM      4  C   UNL     1      64.284  66.210  70.436  0.00  0.00    +0.000 A 
ATOM      5  C   UNL     1      63.499  66.127  70.675  0.00  0.00    +0.000 A 
ATOM      6  O   UNL     1      63.234  66.503  71.359  0.00  0.00    +0.000 OA
ATOM      7  C   UNL     1      63.754  66.963  71.804  0.00  0.00    +0.000 C 
ATOM      8  C   UNL     1      63.489  67.340  72.489  0.00  0.00    +0.000 C 
ATOM      9  C   UNL     1      62.978  65.666  70.229  0.00  0.00    +0.000 A 
ATOM     10  C   UNL     1      63.244  65.289  69.544  0.00  0.00    +0.000 A 
ATOM     11  C   UNL     1      62.723  64.830  69.099  0.00  0.00    +0.000 C 
ATOM     12  C   UNL     1      61.938  64.746  69.338  0.00  0.00    +0.000 A 
ATOM     13  N   UNL     1      61.673  65.123  70.022  0.00  0.00    +0.000 NA
ATOM     14  C   UNL     1      60.887  65.040  70.261  0.00  0.00    +0.000 A 
ATOM     15  C   UNL     1      60.367  64.580  69.816  0.00  0.00    +0.000 A 
ATOM     16  C   UNL     1      60.632  64.204  69.132  0.00  0.00    +0.000 A 
ATOM     17  C   UNL     1      60.112  63.743  68.686  0.00  0.00    +0.000 A 
ATOM     18  C   UNL     1      60.377  63.367  68.002  0.00  0.00    +0.000 A 
ATOM     19  O   UNL     1      59.857  62.906  67.556  0.00  0.00    +0.000 OA
ATOM     20  C   UNL     1      60.122  62.530  66.872  0.00  0.00    +0.000 C 
ATOM     21  C   UNL     1      59.602  62.070  66.426  0.00  0.00    +0.000 C 
ATOM     22  C   UNL     1      61.163  63.450  67.763  0.00  0.00    +0.000 A 
ATOM     23  O   UNL     1      61.428  63.073  67.079  0.00  0.00    +0.000 OA
ATOM     24  C   UNL     1      60.908  62.613  66.633  0.00  0.00    +0.000 C 
ATOM     25  C   UNL     1      61.172  62.236  65.949  0.00  0.00    +0.000 C 
ATOM     26  C   UNL     1      61.683  63.910  68.208  0.00  0.00    +0.000 A 
ATOM     27  C   UNL     1      61.418  64.287  68.893  0.00  0.00    +0.000 A 
ATOM     28  C   UNL     1      64.028  65.372  69.306  0.00  0.00    +0.000 A 
ATOM     29  C   UNL     1      64.549  65.833  69.751  0.00  0.00    +0.000 A 
ENDROOT
TORSDOF 0
ENDMDL
MODEL 4
REMARK VINA RESULT:   -12.079      0.999      5.642
REMARK INTER + INTRA:         -12.079
REMARK INTER:                 -12.079
REMARK INTRA:                   0.000
REMARK UNBOUND:                 0.000
ROOT
REMARK  Name = ethaverine
REMARK                            x       y       z     vdW  Elec       q    Type
REMARK                         _______ _______ _______ _____ _____    ______ ____
ATOM      1  C   UNL     1      62.376  61.264  62.897  0.00  0.00    +0.000 C 
ATOM      2  C   UNL     1      62.386  61.649  63.626  0.00  0.00    +0.000 C 
ATOM      3  O   UNL     1      61.814  61.472  64.193  0.00  0.00    +0.000 OA
ATOM      4  C   UNL     1      61.823  61.857  64.923  0.00  0.00    +0.000 A 
ATOM      5  C   UNL     1      61.252  61.679  65.490  0.00  0.00    +0.000 A 
ATOM      6  O   UNL     1      60.670  61.117  65.328  0.00  0.00    +0.000 OA
ATOM      7  C   UNL     1      60.661  60.733  64.599  0.00  0.00    +0.000 C 
ATOM      8  C   UNL     1      60.079  60.170  64.437  0.00  0.00    +0.000 C 
ATOM      9  C   UNL     1      61.261  62.065  66.220  0.00  0.00    +0.000 A 
ATOM     10  C   UNL     1      61.843  62.627  66.382  0.00  0.00    +0.000 A 
ATOM     11  C   UNL     1      61.852  63.012  67.112  0.00  0.00    +0.000 C 
ATOM     12  C   UNL     1      61.280  62.835  67.679  0.00  0.00    +0.000 A 
ATOM     13  N   UNL     1      60.699  62.273  67.517  0.00  0.00    +0.000 NA
ATOM     14  C   UNL     1      60.127  62.095  68.085  0.00  0.00    +0.000 A 
ATOM     15  C   UNL     1      60.136  62.480  68.814  0.00  0.00    +0.000 A 
ATOM     16  C   UNL     1      60.717  63.042  68.976  0.00  0.00    +0.000 A 
ATOM     17  C   UNL     1      60.727  63.428  69.706  0.00  0.00    +0.000 A 
ATOM     18  C   UNL     1      61.308  63.989  69.868  0.00  0.00    +0.000 A 
ATOM     19  O   UNL     1      61.318  64.375  70.598  0.00  0.00    +0.000 OA
ATOM     20  C   UNL     1      61.899  64.937  70.760  0.00  0.00    +0.000 C 
ATOM     21  C   UNL     1      61.910  65.322  71.489  0.00  0.00    +0.000 C 
ATOM     22  C   UNL     1      61.881  64.167  69.300  0.00  0.00    +0.000 A 
ATOM     23  O   UNL     1      62.462  64.729  69.463  0.00  0.00    +0.000 OA
ATOM     24  C   UNL     1      62.472  65.114  70.192  0.00  0.00    +0.000 C 
ATOM     25  C   UNL     1      63.054  65.677  70.354  0.00  0.00    +0.000 C 
ATOM     26  C   UNL     1      61.871  63.782  68.571  0.00  0.00    +0.000 A 
ATOM     27  C   UNL     1      61.290  63.220  68.408  0.00  0.00    +0.000 A 
ATOM     28  C   UNL     1      62.414  62.805  65.815  0.00  0.00    +0.000 A 
ATOM     29  C   UNL     1      62.405  62.419  65.085  0.00  0.00    +0.000 A 
ENDROOT
TORSDOF 0
ENDMDL
MODEL 5
REMARK VINA RESULT:   -11.846      0.914      5.452
REMARK INTER + INTRA:         -11.846
REMARK INTER:                 -11.846
REMARK INTRA:                   0.000
REMARK UNBOUND:                 0.000
ROOT
REMARK  Name = ethaverine
REMARK                            x       y       z     vdW  Elec       q    Type
REMARK                         _______ _______ _______ _____ _____    ______ ____
ATOM      1  C   UNL     1      60.841  61.260  64.613  0.00  0.00    +0.000 C 
ATOM      2  C   UNL     1      61.148  61.712  65.230  0.00  0.00    +0.000 C 
ATOM      3  O   UNL     1      60.655  61.961  65.843  0.00  0.00    +0.000 OA
ATOM      4  C   UNL     1      60.961  62.414  66.461  0.00  0.00    +0.000 A 
ATOM      5  C   UNL     1      60.469  62.663  67.073  0.00  0.00    +0.000 A 
ATOM      6  O   UNL     1      59.670  62.459  67.070  0.00  0.00    +0.000 OA
ATOM      7  C   UNL     1      59.364  62.006  66.452  0.00  0.00    +0.000 C 
ATOM      8  C   UNL     1      58.564  61.801  66.448  0.00  0.00    +0.000 C 
ATOM      9  C   UNL     1      60.776  63.116  67.691  0.00  0.00    +0.000 A 
ATOM     10  C   UNL     1      61.576  63.321  67.695  0.00  0.00    +0.000 A 
ATOM     11  C   UNL     1      61.882  63.774  68.313  0.00  0.00    +0.000 C 
ATOM     12  C   UNL     1      61.390  64.022  68.926  0.00  0.00    +0.000 A 
ATOM     13  N   UNL     1      60.591  63.818  68.922  0.00  0.00    +0.000 NA
ATOM     14  C   UNL     1      60.098  64.067  69.536  0.00  0.00    +0.000 A 
ATOM     15  C   UNL     1      60.405  64.520  70.153  0.00  0.00    +0.000 A 
ATOM     16  C   UNL     1      61.203  64.724  70.157  0.00  0.00    +0.000 A 
ATOM     17  C   UNL     1      61.511  65.177  70.774  0.00  0.00    +0.000 A 
ATOM     18  C   UNL     1      62.310  65.382  70.779  0.00  0.00    +0.000 A 
ATOM     19  O   UNL     1      62.617  65.835  71.396  0.00  0.00    +0.000 OA
ATOM     20  C   UNL     1      63.416  66.039  71.400  0.00  0.00    +0.000 C 
ATOM     21  C   UNL     1      63.723  66.492  72.017  0.00  0.00    +0.000 C 
ATOM     22  C   UNL     1      62.803  65.133  70.164  0.00  0.00    +0.000 A 
ATOM     23  O   UNL     1      63.602  65.337  70.169  0.00  0.00    +0.000 OA
ATOM     24  C   UNL     1      63.909  65.790  70.786  0.00  0.00    +0.000 C 
ATOM     25  C   UNL     1      64.708  65.995  70.791  0.00  0.00    +0.000 C 
ATOM     26  C   UNL     1      62.496  64.680  69.548  0.00  0.00    +0.000 A 
ATOM     27  C   UNL     1      61.697  64.475  69.543  0.00  0.00    +0.000 A 
ATOM     28  C   UNL     1      62.068  63.072  67.083  0.00  0.00    +0.000 A 
ATOM     29  C   UNL     1      61.761  62.619  66.465  0.00  0.00    +0.000 A 
ENDROOT
TORSDOF 0
ENDMDL
MODEL 6
REMARK VINA RESULT:   -11.629      1.639      2.469
REMARK INTER + INTRA:         -11.629
REMARK INTER:                 -11.629
REMARK INTRA:                   0.000
REMARK UNBOUND:                 0.000
ROOT
REMARK  Name = ethaverine
REMARK                            x       y       z     vdW  Elec       q    Type
REMARK                         _______ _______ _______ _____ _____    ______ ____
ATOM      1  C   UNL     1      59.171  67.184  73.223  0.00  0.00    +0.000 C 
ATOM      2  C   UNL     1      59.222  66.698  72.559  0.00  0.00    +0.000 C 
ATOM      3  O   UNL     1      59.961  66.482  72.262  0.00  0.00    +0.000 OA
ATOM      4  C   UNL     1      60.014  65.996  71.598  0.00  0.00    +0.000 A 
ATOM      5  C   UNL     1      60.752  65.780  71.302  0.00  0.00    +0.000 A 
ATOM      6  O   UNL     1      61.439  66.050  71.670  0.00  0.00    +0.000 OA
ATOM      7  C   UNL     1      61.387  66.537  72.334  0.00  0.00    +0.000 C 
ATOM      8  C   UNL     1      62.075  66.807  72.702  0.00  0.00    +0.000 C 
ATOM      9  C   UNL     1      60.804  65.293  70.638  0.00  0.00    +0.000 A 
ATOM     10  C   UNL     1      60.117  65.022  70.270  0.00  0.00    +0.000 A 
ATOM     11  C   UNL     1      60.169  64.536  69.605  0.00  0.00    +0.000 C 
ATOM     12  C   UNL     1      60.908  64.320  69.309  0.00  0.00    +0.000 A 
ATOM     13  N   UNL     1      61.595  64.590  69.677  0.00  0.00    +0.000 NA
ATOM     14  C   UNL     1      62.335  64.374  69.380  0.00  0.00    +0.000 A 
ATOM     15  C   UNL     1      62.387  63.888  68.717  0.00  0.00    +0.000 A 
ATOM     16  C   UNL     1      61.700  63.618  68.349  0.00  0.00    +0.000 A 
ATOM     17  C   UNL     1      61.752  63.131  67.684  0.00  0.00    +0.000 A 
ATOM     18  C   UNL     1      61.065  62.860  67.317  0.00  0.00    +0.000 A 
ATOM     19  O   UNL     1      61.117  62.374  66.652  0.00  0.00    +0.000 OA
ATOM     20  C   UNL     1      60.430  62.103  66.284  0.00  0.00    +0.000 C 
ATOM     21  C   UNL     1      60.481  61.617  65.620  0.00  0.00    +0.000 C 
ATOM     22  C   UNL     1      60.325  63.077  67.613  0.00  0.00    +0.000 A 
ATOM     23  O   UNL     1      59.638  62.806  67.245  0.00  0.00    +0.000 OA
ATOM     24  C   UNL     1      59.690  62.319  66.581  0.00  0.00    +0.000 C 
ATOM     25  C   UNL     1      59.003  62.048  66.213  0.00  0.00    +0.000 C 
ATOM     26  C   UNL     1      60.273  63.563  68.277  0.00  0.00    +0.000 A 
ATOM     27  C   UNL     1      60.960  63.834  68.645  0.00  0.00    +0.000 A 
ATOM     28  C   UNL     1      59.379  65.238  70.565  0.00  0.00    +0.000 A 
ATOM     29  C   UNL     1      59.326  65.725  71.230  0.00  0.00    +0.000 A 
ENDROOT
TORSDOF 0
ENDMDL
MODEL 7
REMARK VINA RESULT:   -11.365      2.717      4.159
REMARK INTER + INTRA:         -11.365
REMARK INTER:                 -11.365
REMARK INTRA:                   0.000
REMARK UNBOUND:                 0.000
ROOT
REMARK  Name = ethaverine
REMARK                            x       y       z     vdW  Elec       q    Type
REMARK                         _______ _______ _______ _____ _____    ______ ____
ATOM      1  C   UNL     1      66.534  67.992  69.928  0.00  0.00    +0.000 C 
ATOM      2  C   UNL     1      65.970  67.391  69.948  0.00  0.00    +0.000 C 
ATOM      3  O   UNL     1      65.439  67.344  70.578  0.00  0.00    +0.000 OA
ATOM      4  C   UNL     1      64.875  66.743  70.598  0.00  0.00    +0.000 A 
ATOM      5  C   UNL     1      64.345  66.696  71.227  0.00  0.00    +0.000 A 
ATOM      6  O   UNL     1      64.378  67.250  71.838  0.00  0.00    +0.000 OA
ATOM      7  C   UNL     1      64.943  67.851  71.817  0.00  0.00    +0.000 C 
ATOM      8  C   UNL     1      64.977  68.406  72.428  0.00  0.00    +0.000 C 
ATOM      9  C   UNL     1      63.780  66.094  71.247  0.00  0.00    +0.000 A 
ATOM     10  C   UNL     1      63.746  65.540  70.637  0.00  0.00    +0.000 A 
ATOM     11  C   UNL     1      63.181  64.939  70.657  0.00  0.00    +0.000 C 
ATOM     12  C   UNL     1      62.651  64.891  71.287  0.00  0.00    +0.000 A 
ATOM     13  N   UNL     1      62.685  65.445  71.897  0.00  0.00    +0.000 NA
ATOM     14  C   UNL     1      62.154  65.398  72.528  0.00  0.00    +0.000 A 
ATOM     15  C   UNL     1      61.590  64.797  72.547  0.00  0.00    +0.000 A 
ATOM     16  C   UNL     1      61.556  64.243  71.938  0.00  0.00    +0.000 A 
ATOM     17  C   UNL     1      60.992  63.642  71.957  0.00  0.00    +0.000 A 
ATOM     18  C   UNL     1      60.958  63.088  71.347  0.00  0.00    +0.000 A 
ATOM     19  O   UNL     1      60.393  62.486  71.367  0.00  0.00    +0.000 OA
ATOM     20  C   UNL     1      60.359  61.932  70.757  0.00  0.00    +0.000 C 
ATOM     21  C   UNL     1      59.795  61.330  70.776  0.00  0.00    +0.000 C 
ATOM     22  C   UNL     1      61.489  63.135  70.717  0.00  0.00    +0.000 A 
ATOM     23  O   UNL     1      61.454  62.580  70.107  0.00  0.00    +0.000 OA
ATOM     24  C   UNL     1      60.890  61.979  70.126  0.00  0.00    +0.000 C 
ATOM     25  C   UNL     1      60.856  61.425  69.516  0.00  0.00    +0.000 C 
ATOM     26  C   UNL     1      62.053  63.736  70.697  0.00  0.00    +0.000 A 
ATOM     27  C   UNL     1      62.087  64.291  71.307  0.00  0.00    +0.000 A 
ATOM     28  C   UNL     1      64.276  65.587  70.007  0.00  0.00    +0.000 A 
ATOM     29  C   UNL     1      64.841  66.189  69.987  0.00  0.00    +0.000 A 
ENDROOT
TORSDOF 0
ENDMDL
