MODEL 1
REMARK VINA RESULT:    -9.921      0.000      0.000
REMARK INTER + INTRA:          -9.921
REMARK INTER:                  -9.921
REMARK INTRA:                   0.000
REMARK UNBOUND:                 0.000
ROOT
REMARK  Name = ethacridine
REMARK                            x       y       z     vdW  Elec       q    Type
REMARK                         _______ _______ _______ _____ _____    ______ ____
ATOM      1  C   UNL     1      60.971  60.449  62.780  0.00  0.00    +0.000 C 
ATOM      2  C   UNL     1      61.237  60.875  63.435  0.00  0.00    +0.000 C 
ATOM      3  O   UNL     1      60.717  61.057  64.050  0.00  0.00    +0.000 OA
ATOM      4  C   UNL     1      60.983  61.483  64.703  0.00  0.00    +0.000 A 
ATOM      5  C   UNL     1      60.464  61.664  65.317  0.00  0.00    +0.000 A 
ATOM      6  C   UNL     1      60.730  62.091  65.971  0.00  0.00    +0.000 A 
ATOM      7  C   UNL     1      60.211  62.271  66.585  0.00  0.00    +0.000 A 
ATOM      8  N   UNL     1      59.423  62.025  66.546  0.00  0.00    +0.000 NA
ATOM      9  C   UNL     1      60.477  62.698  67.240  0.00  0.00    +0.000 A 
ATOM     10  C   UNL     1      59.958  62.879  67.854  0.00  0.00    +0.000 A 
ATOM     11  C   UNL     1      60.224  63.306  68.508  0.00  0.00    +0.000 A 
ATOM     12  C   UNL     1      61.010  63.552  68.547  0.00  0.00    +0.000 A 
ATOM     13  N   UNL     1      61.277  63.978  69.201  0.00  0.00    +0.000 NA
ATOM     14  C   UNL     1      61.531  63.371  67.932  0.00  0.00    +0.000 A 
ATOM     15  C   UNL     1      61.263  62.944  67.279  0.00  0.00    +0.000 A 
ATOM     16  N   UNL     1      61.784  62.763  66.664  0.00  0.00    +0.000 NA
ATOM     17  C   UNL     1      61.517  62.336  66.011  0.00  0.00    +0.000 A 
ATOM     18  C   UNL     1      62.037  62.156  65.396  0.00  0.00    +0.000 A 
ATOM     19  C   UNL     1      61.770  61.729  64.742  0.00  0.00    +0.000 A 
ENDROOT
TORSDOF 0
ENDMDL
MODEL 2
REMARK VINA RESULT:    -9.919      1.606      4.007
REMARK INTER + INTRA:          -9.919
REMARK INTER:                  -9.919
REMARK INTRA:                   0.000
REMARK UNBOUND:                 0.000
ROOT
REMARK  Name = ethacridine
REMARK                            x       y       z     vdW  Elec       q    Type
REMARK                         _______ _______ _______ _____ _____    ______ ____
ATOM      1  C   UNL     1      60.037  64.115  70.458  0.00  0.00    +0.000 C 
ATOM      2  C   UNL     1      60.474  63.929  69.784  0.00  0.00    +0.000 C 
ATOM      3  O   UNL     1      60.128  63.498  69.171  0.00  0.00    +0.000 OA
ATOM      4  C   UNL     1      60.565  63.312  68.498  0.00  0.00    +0.000 A 
ATOM      5  C   UNL     1      60.219  62.882  67.886  0.00  0.00    +0.000 A 
ATOM      6  C   UNL     1      60.656  62.696  67.212  0.00  0.00    +0.000 A 
ATOM      7  C   UNL     1      60.310  62.266  66.600  0.00  0.00    +0.000 A 
ATOM      8  N   UNL     1      59.523  62.020  66.662  0.00  0.00    +0.000 NA
ATOM      9  C   UNL     1      60.747  62.080  65.926  0.00  0.00    +0.000 A 
ATOM     10  C   UNL     1      60.401  61.649  65.314  0.00  0.00    +0.000 A 
ATOM     11  C   UNL     1      60.838  61.463  64.640  0.00  0.00    +0.000 A 
ATOM     12  C   UNL     1      61.624  61.708  64.578  0.00  0.00    +0.000 A 
ATOM     13  N   UNL     1      62.062  61.523  63.904  0.00  0.00    +0.000 NA
ATOM     14  C   UNL     1      61.971  62.139  65.190  0.00  0.00    +0.000 A 
ATOM     15  C   UNL     1      61.533  62.325  65.864  0.00  0.00    +0.000 A 
ATOM     16  N   UNL     1      61.880  62.756  66.476  0.00  0.00    +0.000 NA
ATOM     17  C   UNL     1      61.442  62.941  67.150  0.00  0.00    +0.000 A 
ATOM     18  C   UNL     1      61.789  63.372  67.762  0.00  0.00    +0.000 A 
ATOM     19  C   UNL     1      61.351  63.557  68.436  0.00  0.00    +0.000 A 
ENDROOT
TORSDOF 0
ENDMDL
MODEL 3
REMARK VINA RESULT:    -9.631      2.550      4.920
REMARK INTER + INTRA:          -9.631
REMARK INTER:                  -9.631
REMARK INTRA:                   0.000
REMARK UNBOUND:                 0.000
ROOT
REMARK  Name = ethacridine
REMARK                            x       y       z     vdW  Elec       q    Type
REMARK                         _______ _______ _______ _____ _____    ______ ____
ATOM      1  C   UNL     1      61.635  63.066  72.849  0.00  0.00    +0.000 C 
ATOM      2  C   UNL     1      61.313  62.765  72.152  0.00  0.00    +0.000 C 
ATOM      3  O   UNL     1      61.521  63.094  71.424  0.00  0.00    +0.000 OA
ATOM      4  C   UNL     1      61.199  62.794  70.728  0.00  0.00    +0.000 A 
ATOM      5  C   UNL     1      61.407  63.123  70.001  0.00  0.00    +0.000 A 
ATOM      6  C   UNL     1      61.085  62.822  69.303  0.00  0.00    +0.000 A 
ATOM      7  C   UNL     1      61.293  63.151  68.577  0.00  0.00    +0.000 A 
ATOM      8  N   UNL     1      61.825  63.782  68.547  0.00  0.00    +0.000 NA
ATOM      9  C   UNL     1      60.971  62.850  67.879  0.00  0.00    +0.000 A 
ATOM     10  C   UNL     1      61.179  63.179  67.153  0.00  0.00    +0.000 A 
ATOM     11  C   UNL     1      60.857  62.879  66.455  0.00  0.00    +0.000 A 
ATOM     12  C   UNL     1      60.326  62.248  66.485  0.00  0.00    +0.000 A 
ATOM     13  N   UNL     1      60.003  61.946  65.788  0.00  0.00    +0.000 NA
ATOM     14  C   UNL     1      60.117  61.918  67.213  0.00  0.00    +0.000 A 
ATOM     15  C   UNL     1      60.440  62.220  67.909  0.00  0.00    +0.000 A 
ATOM     16  N   UNL     1      60.231  61.890  68.637  0.00  0.00    +0.000 NA
ATOM     17  C   UNL     1      60.554  62.191  69.333  0.00  0.00    +0.000 A 
ATOM     18  C   UNL     1      60.345  61.861  70.061  0.00  0.00    +0.000 A 
ATOM     19  C   UNL     1      60.668  62.163  70.758  0.00  0.00    +0.000 A 
ENDROOT
TORSDOF 0
ENDMDL
MODEL 4
REMARK VINA RESULT:    -9.567      2.367      3.766
REMARK INTER + INTRA:          -9.567
REMARK INTER:                  -9.567
REMARK INTRA:                   0.000
REMARK UNBOUND:                 0.000
ROOT
REMARK  Name = ethacridine
REMARK                            x       y       z     vdW  Elec       q    Type
REMARK                         _______ _______ _______ _____ _____    ______ ____
ATOM      1  C   UNL     1      59.510  61.967  66.120  0.00  0.00    +0.000 C 
ATOM      2  C   UNL     1      59.765  62.408  66.769  0.00  0.00    +0.000 C 
ATOM      3  O   UNL     1      59.895  62.038  67.495  0.00  0.00    +0.000 OA
ATOM      4  C   UNL     1      60.149  62.479  68.144  0.00  0.00    +0.000 A 
ATOM      5  C   UNL     1      60.279  62.109  68.869  0.00  0.00    +0.000 A 
ATOM      6  C   UNL     1      60.534  62.549  69.518  0.00  0.00    +0.000 A 
ATOM      7  C   UNL     1      60.664  62.179  70.243  0.00  0.00    +0.000 A 
ATOM      8  N   UNL     1      60.539  61.366  70.320  0.00  0.00    +0.000 NA
ATOM      9  C   UNL     1      60.919  62.620  70.893  0.00  0.00    +0.000 A 
ATOM     10  C   UNL     1      61.049  62.250  71.618  0.00  0.00    +0.000 A 
ATOM     11  C   UNL     1      61.303  62.691  72.267  0.00  0.00    +0.000 A 
ATOM     12  C   UNL     1      61.428  63.503  72.190  0.00  0.00    +0.000 A 
ATOM     13  N   UNL     1      61.683  63.945  72.839  0.00  0.00    +0.000 NA
ATOM     14  C   UNL     1      61.298  63.874  71.464  0.00  0.00    +0.000 A 
ATOM     15  C   UNL     1      61.043  63.432  70.816  0.00  0.00    +0.000 A 
ATOM     16  N   UNL     1      60.913  63.803  70.090  0.00  0.00    +0.000 NA
ATOM     17  C   UNL     1      60.659  63.361  69.442  0.00  0.00    +0.000 A 
ATOM     18  C   UNL     1      60.529  63.732  68.716  0.00  0.00    +0.000 A 
ATOM     19  C   UNL     1      60.274  63.291  68.067  0.00  0.00    +0.000 A 
ENDROOT
TORSDOF 0
ENDMDL
MODEL 5
REMARK VINA RESULT:    -9.297      5.822      7.132
REMARK INTER + INTRA:          -9.297
REMARK INTER:                  -9.297
REMARK INTRA:                   0.000
REMARK UNBOUND:                 0.000
ROOT
REMARK  Name = ethacridine
REMARK                            x       y       z     vdW  Elec       q    Type
REMARK                         _______ _______ _______ _____ _____    ______ ____
ATOM      1  C   UNL     1      61.043  63.101  72.013  0.00  0.00    +0.000 C 
ATOM      2  C   UNL     1      61.661  63.451  71.592  0.00  0.00    +0.000 C 
ATOM      3  O   UNL     1      62.005  64.149  71.865  0.00  0.00    +0.000 OA
ATOM      4  C   UNL     1      62.622  64.498  71.444  0.00  0.00    +0.000 A 
ATOM      5  C   UNL     1      62.965  65.196  71.718  0.00  0.00    +0.000 A 
ATOM      6  C   UNL     1      63.583  65.545  71.297  0.00  0.00    +0.000 A 
ATOM      7  C   UNL     1      63.927  66.243  71.570  0.00  0.00    +0.000 A 
ATOM      8  N   UNL     1      63.652  66.593  72.266  0.00  0.00    +0.000 NA
ATOM      9  C   UNL     1      64.544  66.592  71.149  0.00  0.00    +0.000 A 
ATOM     10  C   UNL     1      64.888  67.290  71.422  0.00  0.00    +0.000 A 
ATOM     11  C   UNL     1      65.505  67.639  71.001  0.00  0.00    +0.000 A 
ATOM     12  C   UNL     1      65.780  67.289  70.306  0.00  0.00    +0.000 A 
ATOM     13  N   UNL     1      66.397  67.637  69.884  0.00  0.00    +0.000 NA
ATOM     14  C   UNL     1      65.436  66.590  70.032  0.00  0.00    +0.000 A 
ATOM     15  C   UNL     1      64.818  66.242  70.454  0.00  0.00    +0.000 A 
ATOM     16  N   UNL     1      64.475  65.543  70.180  0.00  0.00    +0.000 NA
ATOM     17  C   UNL     1      63.857  65.195  70.602  0.00  0.00    +0.000 A 
ATOM     18  C   UNL     1      63.513  64.496  70.327  0.00  0.00    +0.000 A 
ATOM     19  C   UNL     1      62.896  64.148  70.749  0.00  0.00    +0.000 A 
ENDROOT
TORSDOF 0
ENDMDL
MODEL 6
REMARK VINA RESULT:    -9.250      5.971      6.887
REMARK INTER + INTRA:          -9.250
REMARK INTER:                  -9.250
REMARK INTRA:                   0.000
REMARK UNBOUND:                 0.000
ROOT
REMARK  Name = ethacridine
REMARK                            x       y       z     vdW  Elec       q    Type
REMARK                         _______ _______ _______ _____ _____    ______ ____
ATOM      1  C   UNL     1      66.099  67.638  69.893  0.00  0.00    +0.000 C 
ATOM      2  C   UNL     1      65.593  66.989  69.958  0.00  0.00    +0.000 C 
ATOM      3  O   UNL     1      65.033  66.961  70.563  0.00  0.00    +0.000 OA
ATOM      4  C   UNL     1      64.528  66.312  70.628  0.00  0.00    +0.000 A 
ATOM      5  C   UNL     1      63.968  66.284  71.233  0.00  0.00    +0.000 A 
ATOM      6  C   UNL     1      63.462  65.636  71.298  0.00  0.00    +0.000 A 
ATOM      7  C   UNL     1      62.902  65.608  71.903  0.00  0.00    +0.000 A 
ATOM      8  N   UNL     1      62.847  66.230  72.443  0.00  0.00    +0.000 NA
ATOM      9  C   UNL     1      62.397  64.959  71.968  0.00  0.00    +0.000 A 
ATOM     10  C   UNL     1      61.837  64.931  72.573  0.00  0.00    +0.000 A 
ATOM     11  C   UNL     1      61.331  64.282  72.638  0.00  0.00    +0.000 A 
ATOM     12  C   UNL     1      61.386  63.661  72.098  0.00  0.00    +0.000 A 
ATOM     13  N   UNL     1      60.881  63.012  72.163  0.00  0.00    +0.000 NA
ATOM     14  C   UNL     1      61.947  63.689  71.493  0.00  0.00    +0.000 A 
ATOM     15  C   UNL     1      62.452  64.338  71.428  0.00  0.00    +0.000 A 
ATOM     16  N   UNL     1      63.012  64.365  70.823  0.00  0.00    +0.000 NA
ATOM     17  C   UNL     1      63.517  65.014  70.758  0.00  0.00    +0.000 A 
ATOM     18  C   UNL     1      64.078  65.042  70.153  0.00  0.00    +0.000 A 
ATOM     19  C   UNL     1      64.583  65.691  70.088  0.00  0.00    +0.000 A 
ENDROOT
TORSDOF 0
ENDMDL
MODEL 7
REMARK VINA RESULT:    -8.867      5.917      7.577
REMARK INTER + INTRA:          -8.867
REMARK INTER:                  -8.867
REMARK INTRA:                   0.000
REMARK UNBOUND:                 0.000
ROOT
REMARK  Name = ethacridine
REMARK                            x       y       z     vdW  Elec       q    Type
REMARK                         _______ _______ _______ _____ _____    ______ ____
ATOM      1  C   UNL     1      62.894  68.774  73.214  0.00  0.00    +0.000 C 
ATOM      2  C   UNL     1      62.932  68.040  72.838  0.00  0.00    +0.000 C 
ATOM      3  O   UNL     1      62.381  67.453  73.018  0.00  0.00    +0.000 OA
ATOM      4  C   UNL     1      62.419  66.721  72.642  0.00  0.00    +0.000 A 
ATOM      5  C   UNL     1      61.868  66.135  72.822  0.00  0.00    +0.000 A 
ATOM      6  C   UNL     1      61.906  65.402  72.446  0.00  0.00    +0.000 A 
ATOM      7  C   UNL     1      61.355  64.816  72.626  0.00  0.00    +0.000 A 
ATOM      8  N   UNL     1      60.763  64.963  73.183  0.00  0.00    +0.000 NA
ATOM      9  C   UNL     1      61.393  64.083  72.249  0.00  0.00    +0.000 A 
ATOM     10  C   UNL     1      60.841  63.497  72.429  0.00  0.00    +0.000 A 
ATOM     11  C   UNL     1      60.880  62.763  72.053  0.00  0.00    +0.000 A 
ATOM     12  C   UNL     1      61.471  62.616  71.497  0.00  0.00    +0.000 A 
ATOM     13  N   UNL     1      61.510  61.884  71.120  0.00  0.00    +0.000 NA
ATOM     14  C   UNL     1      62.023  63.203  71.316  0.00  0.00    +0.000 A 
ATOM     15  C   UNL     1      61.984  63.935  71.693  0.00  0.00    +0.000 A 
ATOM     16  N   UNL     1      62.536  64.522  71.512  0.00  0.00    +0.000 NA
ATOM     17  C   UNL     1      62.497  65.255  71.889  0.00  0.00    +0.000 A 
ATOM     18  C   UNL     1      63.050  65.841  71.709  0.00  0.00    +0.000 A 
ATOM     19  C   UNL     1      63.010  66.574  72.085  0.00  0.00    +0.000 A 
ENDROOT
TORSDOF 0
ENDMDL
MODEL 8
REMARK VINA RESULT:    -8.842      5.862      6.784
REMARK INTER + INTRA:          -8.842
REMARK INTER:                  -8.842
REMARK INTRA:                   0.000
REMARK UNBOUND:                 0.000
ROOT
REMARK  Name = ethacridine
REMARK                            x       y       z     vdW  Elec       q    Type
REMARK                         _______ _______ _______ _____ _____    ______ ____
ATOM      1  C   UNL     1      62.038  60.926  71.709  0.00  0.00    +0.000 C 
ATOM      2  C   UNL     1      61.475  61.528  71.670  0.00  0.00    +0.000 C 
ATOM      3  O   UNL     1      61.618  62.253  72.037  0.00  0.00    +0.000 OA
ATOM      4  C   UNL     1      61.055  62.854  71.998  0.00  0.00    +0.000 A 
ATOM      5  C   UNL     1      61.198  63.578  72.365  0.00  0.00    +0.000 A 
ATOM      6  C   UNL     1      60.635  64.180  72.326  0.00  0.00    +0.000 A 
ATOM      7  C   UNL     1      60.778  64.904  72.694  0.00  0.00    +0.000 A 
ATOM      8  N   UNL     1      61.486  65.027  73.102  0.00  0.00    +0.000 NA
ATOM      9  C   UNL     1      60.215  65.506  72.655  0.00  0.00    +0.000 A 
ATOM     10  C   UNL     1      60.359  66.230  73.022  0.00  0.00    +0.000 A 
ATOM     11  C   UNL     1      59.796  66.832  72.983  0.00  0.00    +0.000 A 
ATOM     12  C   UNL     1      59.089  66.709  72.576  0.00  0.00    +0.000 A 
ATOM     13  N   UNL     1      58.525  67.310  72.536  0.00  0.00    +0.000 NA
ATOM     14  C   UNL     1      58.945  65.984  72.207  0.00  0.00    +0.000 A 
ATOM     15  C   UNL     1      59.508  65.383  72.247  0.00  0.00    +0.000 A 
ATOM     16  N   UNL     1      59.365  64.658  71.879  0.00  0.00    +0.000 NA
ATOM     17  C   UNL     1      59.928  64.057  71.919  0.00  0.00    +0.000 A 
ATOM     18  C   UNL     1      59.784  63.332  71.551  0.00  0.00    +0.000 A 
ATOM     19  C   UNL     1      60.348  62.731  71.591  0.00  0.00    +0.000 A 
ENDROOT
TORSDOF 0
ENDMDL
MODEL 9
REMARK VINA RESULT:    -8.787      4.127      5.987
REMARK INTER + INTRA:          -8.787
REMARK INTER:                  -8.787
REMARK INTRA:                   0.000
REMARK UNBOUND:                 0.000
ROOT
REMARK  Name = ethacridine
REMARK                            x       y       z     vdW  Elec       q    Type
REMARK                         _______ _______ _______ _____ _____    ______ ____
ATOM      1  C   UNL     1      64.663  66.855  71.745  0.00  0.00    +0.000 C 
ATOM      2  C   UNL     1      64.249  66.348  71.242  0.00  0.00    +0.000 C 
ATOM      3  O   UNL     1      63.734  65.784  71.555  0.00  0.00    +0.000 OA
ATOM      4  C   UNL     1      63.321  65.278  71.053  0.00  0.00    +0.000 A 
ATOM      5  C   UNL     1      62.807  64.715  71.366  0.00  0.00    +0.000 A 
ATOM      6  C   UNL     1      62.393  64.208  70.863  0.00  0.00    +0.000 A 
ATOM      7  C   UNL     1      61.879  63.645  71.176  0.00  0.00    +0.000 A 
ATOM      8  N   UNL     1      61.777  63.588  71.994  0.00  0.00    +0.000 NA
ATOM      9  C   UNL     1      61.465  63.138  70.674  0.00  0.00    +0.000 A 
ATOM     10  C   UNL     1      60.951  62.575  70.987  0.00  0.00    +0.000 A 
ATOM     11  C   UNL     1      60.538  62.068  70.484  0.00  0.00    +0.000 A 
ATOM     12  C   UNL     1      60.639  62.124  69.667  0.00  0.00    +0.000 A 
ATOM     13  N   UNL     1      60.226  61.618  69.164  0.00  0.00    +0.000 NA
ATOM     14  C   UNL     1      61.154  62.688  69.353  0.00  0.00    +0.000 A 
ATOM     15  C   UNL     1      61.567  63.194  69.857  0.00  0.00    +0.000 A 
ATOM     16  N   UNL     1      62.082  63.758  69.543  0.00  0.00    +0.000 NA
ATOM     17  C   UNL     1      62.495  64.264  70.046  0.00  0.00    +0.000 A 
ATOM     18  C   UNL     1      63.010  64.828  69.732  0.00  0.00    +0.000 A 
ATOM     19  C   UNL     1      63.423  65.335  70.236  0.00  0.00    +0.000 A 
ENDROOT
TORSDOF 0
ENDMDL
