MODEL 1
REMARK VINA RESULT:    -8.023      0.000      0.000
REMARK INTER + INTRA:          -8.023
REMARK INTER:                  -8.023
REMARK INTRA:                   0.000
REMARK UNBOUND:                 0.000
ROOT
REMARK  Name = ethylnorepinephrine
REMARK                            x       y       z     vdW  Elec       q    Type
REMARK                         _______ _______ _______ _____ _____    ______ ____
ATOM      1  C   UNL     1      60.349  62.809  68.168  0.00  0.00    +0.000 C 
ATOM      2  C   UNL     1      60.123  62.419  67.477  0.00  0.00    +0.000 C 
ATOM      3  C   UNL     1      60.656  62.349  66.851  0.00  0.00    +0.000 C 
ATOM      4  N   UNL     1      61.414  62.669  66.916  0.00  0.00    +0.000 NA
ATOM      5  C   UNL     1      60.431  61.959  66.159  0.00  0.00    +0.000 C 
ATOM      6  O   UNL     1      59.673  61.640  66.094  0.00  0.00    +0.000 OA
ATOM      7  C   UNL     1      60.963  61.889  65.534  0.00  0.00    +0.000 A 
ATOM      8  C   UNL     1      60.739  61.499  64.842  0.00  0.00    +0.000 A 
ATOM      9  C   UNL     1      61.271  61.429  64.216  0.00  0.00    +0.000 A 
ATOM     10  O   UNL     1      61.046  61.040  63.525  0.00  0.00    +0.000 OA
ATOM     11  C   UNL     1      62.029  61.748  64.282  0.00  0.00    +0.000 A 
ATOM     12  O   UNL     1      62.562  61.678  63.655  0.00  0.00    +0.000 OA
ATOM     13  C   UNL     1      62.254  62.138  64.973  0.00  0.00    +0.000 A 
ATOM     14  C   UNL     1      61.722  62.209  65.599  0.00  0.00    +0.000 A 
ENDROOT
TORSDOF 0
ENDMDL
MODEL 2
REMARK VINA RESULT:    -7.586      1.426      3.382
REMARK INTER + INTRA:          -7.586
REMARK INTER:                  -7.586
REMARK INTRA:                   0.000
REMARK UNBOUND:                 0.000
ROOT
REMARK  Name = ethylnorepinephrine
REMARK                            x       y       z     vdW  Elec       q    Type
REMARK                         _______ _______ _______ _____ _____    ______ ____
ATOM      1  C   UNL     1      61.981  61.272  63.433  0.00  0.00    +0.000 C 
ATOM      2  C   UNL     1      62.217  61.690  64.104  0.00  0.00    +0.000 C 
ATOM      3  C   UNL     1      61.673  61.846  64.704  0.00  0.00    +0.000 C 
ATOM      4  N   UNL     1      60.893  61.585  64.633  0.00  0.00    +0.000 NA
ATOM      5  C   UNL     1      61.908  62.264  65.376  0.00  0.00    +0.000 C 
ATOM      6  O   UNL     1      62.687  62.525  65.447  0.00  0.00    +0.000 OA
ATOM      7  C   UNL     1      61.365  62.421  65.976  0.00  0.00    +0.000 A 
ATOM      8  C   UNL     1      61.599  62.838  66.647  0.00  0.00    +0.000 A 
ATOM      9  C   UNL     1      61.055  62.995  67.247  0.00  0.00    +0.000 A 
ATOM     10  O   UNL     1      61.290  63.412  67.918  0.00  0.00    +0.000 OA
ATOM     11  C   UNL     1      60.276  62.734  67.176  0.00  0.00    +0.000 A 
ATOM     12  O   UNL     1      59.732  62.891  67.777  0.00  0.00    +0.000 OA
ATOM     13  C   UNL     1      60.040  62.316  66.504  0.00  0.00    +0.000 A 
ATOM     14  C   UNL     1      60.585  62.159  65.904  0.00  0.00    +0.000 A 
ENDROOT
TORSDOF 0
ENDMDL
MODEL 3
REMARK VINA RESULT:    -6.888      3.967      6.075
REMARK INTER + INTRA:          -6.888
REMARK INTER:                  -6.888
REMARK INTRA:                   0.000
REMARK UNBOUND:                 0.000
ROOT
REMARK  Name = ethylnorepinephrine
REMARK                            x       y       z     vdW  Elec       q    Type
REMARK                         _______ _______ _______ _____ _____    ______ ____
ATOM      1  C   UNL     1      60.464  62.182  68.162  0.00  0.00    +0.000 C 
ATOM      2  C   UNL     1      60.468  61.952  68.954  0.00  0.00    +0.000 C 
ATOM      3  C   UNL     1      60.763  62.463  69.531  0.00  0.00    +0.000 C 
ATOM      4  N   UNL     1      61.054  63.204  69.315  0.00  0.00    +0.000 NA
ATOM      5  C   UNL     1      60.767  62.232  70.324  0.00  0.00    +0.000 C 
ATOM      6  O   UNL     1      60.475  61.491  70.539  0.00  0.00    +0.000 OA
ATOM      7  C   UNL     1      61.061  62.743  70.900  0.00  0.00    +0.000 A 
ATOM      8  C   UNL     1      61.065  62.513  71.692  0.00  0.00    +0.000 A 
ATOM      9  C   UNL     1      61.360  63.024  72.269  0.00  0.00    +0.000 A 
ATOM     10  O   UNL     1      61.364  62.794  73.060  0.00  0.00    +0.000 OA
ATOM     11  C   UNL     1      61.651  63.765  72.053  0.00  0.00    +0.000 A 
ATOM     12  O   UNL     1      61.947  64.276  72.630  0.00  0.00    +0.000 OA
ATOM     13  C   UNL     1      61.648  63.995  71.261  0.00  0.00    +0.000 A 
ATOM     14  C   UNL     1      61.353  63.484  70.684  0.00  0.00    +0.000 A 
ENDROOT
TORSDOF 0
ENDMDL
MODEL 4
REMARK VINA RESULT:    -6.723      6.105      7.329
REMARK INTER + INTRA:          -6.723
REMARK INTER:                  -6.723
REMARK INTRA:                   0.000
REMARK UNBOUND:                 0.000
ROOT
REMARK  Name = ethylnorepinephrine
REMARK                            x       y       z     vdW  Elec       q    Type
REMARK                         _______ _______ _______ _____ _____    ______ ____
ATOM      1  C   UNL     1      66.007  67.699  70.264  0.00  0.00    +0.000 C 
ATOM      2  C   UNL     1      65.652  67.037  69.923  0.00  0.00    +0.000 C 
ATOM      3  C   UNL     1      65.065  66.628  70.332  0.00  0.00    +0.000 C 
ATOM      4  N   UNL     1      64.833  66.880  71.084  0.00  0.00    +0.000 NA
ATOM      5  C   UNL     1      64.709  65.965  69.991  0.00  0.00    +0.000 C 
ATOM      6  O   UNL     1      64.941  65.714  69.241  0.00  0.00    +0.000 OA
ATOM      7  C   UNL     1      64.122  65.556  70.401  0.00  0.00    +0.000 A 
ATOM      8  C   UNL     1      63.766  64.894  70.060  0.00  0.00    +0.000 A 
ATOM      9  C   UNL     1      63.179  64.485  70.470  0.00  0.00    +0.000 A 
ATOM     10  O   UNL     1      62.824  63.823  70.129  0.00  0.00    +0.000 OA
ATOM     11  C   UNL     1      62.948  64.736  71.220  0.00  0.00    +0.000 A 
ATOM     12  O   UNL     1      62.360  64.326  71.630  0.00  0.00    +0.000 OA
ATOM     13  C   UNL     1      63.303  65.398  71.562  0.00  0.00    +0.000 A 
ATOM     14  C   UNL     1      63.891  65.808  71.152  0.00  0.00    +0.000 A 
ENDROOT
TORSDOF 0
ENDMDL
MODEL 5
REMARK VINA RESULT:    -6.540      6.983      8.007
REMARK INTER + INTRA:          -6.540
REMARK INTER:                  -6.540
REMARK INTRA:                   0.000
REMARK UNBOUND:                 0.000
ROOT
REMARK  Name = ethylnorepinephrine
REMARK                            x       y       z     vdW  Elec       q    Type
REMARK                         _______ _______ _______ _____ _____    ______ ____
ATOM      1  C   UNL     1      62.282  65.470  69.752  0.00  0.00    +0.000 C 
ATOM      2  C   UNL     1      62.819  65.575  70.369  0.00  0.00    +0.000 C 
ATOM      3  C   UNL     1      63.531  65.969  70.232  0.00  0.00    +0.000 C 
ATOM      4  N   UNL     1      63.705  66.258  69.479  0.00  0.00    +0.000 NA
ATOM      5  C   UNL     1      64.070  66.074  70.849  0.00  0.00    +0.000 C 
ATOM      6  O   UNL     1      63.896  65.785  71.602  0.00  0.00    +0.000 OA
ATOM      7  C   UNL     1      64.781  66.468  70.713  0.00  0.00    +0.000 A 
ATOM      8  C   UNL     1      65.319  66.573  71.329  0.00  0.00    +0.000 A 
ATOM      9  C   UNL     1      66.031  66.968  71.192  0.00  0.00    +0.000 A 
ATOM     10  O   UNL     1      66.569  67.073  71.808  0.00  0.00    +0.000 OA
ATOM     11  C   UNL     1      66.204  67.256  70.439  0.00  0.00    +0.000 A 
ATOM     12  O   UNL     1      66.917  67.650  70.303  0.00  0.00    +0.000 OA
ATOM     13  C   UNL     1      65.667  67.151  69.822  0.00  0.00    +0.000 A 
ATOM     14  C   UNL     1      64.955  66.757  69.959  0.00  0.00    +0.000 A 
ENDROOT
TORSDOF 0
ENDMDL
MODEL 6
REMARK VINA RESULT:    -6.471      6.065      6.761
REMARK INTER + INTRA:          -6.471
REMARK INTER:                  -6.471
REMARK INTRA:                   0.000
REMARK UNBOUND:                 0.000
ROOT
REMARK  Name = ethylnorepinephrine
REMARK                            x       y       z     vdW  Elec       q    Type
REMARK                         _______ _______ _______ _____ _____    ______ ____
ATOM      1  C   UNL     1      60.503  62.288  71.013  0.00  0.00    +0.000 C 
ATOM      2  C   UNL     1      60.215  62.943  71.424  0.00  0.00    +0.000 C 
ATOM      3  C   UNL     1      60.103  63.659  71.031  0.00  0.00    +0.000 C 
ATOM      4  N   UNL     1      60.279  63.721  70.227  0.00  0.00    +0.000 NA
ATOM      5  C   UNL     1      59.815  64.315  71.442  0.00  0.00    +0.000 C 
ATOM      6  O   UNL     1      59.639  64.253  72.245  0.00  0.00    +0.000 OA
ATOM      7  C   UNL     1      59.703  65.031  71.049  0.00  0.00    +0.000 A 
ATOM      8  C   UNL     1      59.415  65.686  71.459  0.00  0.00    +0.000 A 
ATOM      9  C   UNL     1      59.303  66.403  71.066  0.00  0.00    +0.000 A 
ATOM     10  O   UNL     1      59.015  67.057  71.476  0.00  0.00    +0.000 OA
ATOM     11  C   UNL     1      59.479  66.464  70.263  0.00  0.00    +0.000 A 
ATOM     12  O   UNL     1      59.367  67.181  69.869  0.00  0.00    +0.000 OA
ATOM     13  C   UNL     1      59.767  65.809  69.852  0.00  0.00    +0.000 A 
ATOM     14  C   UNL     1      59.879  65.092  70.245  0.00  0.00    +0.000 A 
ENDROOT
TORSDOF 0
ENDMDL
MODEL 7
REMARK VINA RESULT:    -6.336      3.375      4.509
REMARK INTER + INTRA:          -6.336
REMARK INTER:                  -6.336
REMARK INTRA:                   0.000
REMARK UNBOUND:                 0.000
ROOT
REMARK  Name = ethylnorepinephrine
REMARK                            x       y       z     vdW  Elec       q    Type
REMARK                         _______ _______ _______ _____ _____    ______ ____
ATOM      1  C   UNL     1      59.925  64.379  72.263  0.00  0.00    +0.000 C 
ATOM      2  C   UNL     1      59.941  64.556  71.457  0.00  0.00    +0.000 C 
ATOM      3  C   UNL     1      60.131  63.969  70.910  0.00  0.00    +0.000 C 
ATOM      4  N   UNL     1      60.304  63.204  71.169  0.00  0.00    +0.000 NA
ATOM      5  C   UNL     1      60.148  64.145  70.103  0.00  0.00    +0.000 C 
ATOM      6  O   UNL     1      59.975  64.909  69.845  0.00  0.00    +0.000 OA
ATOM      7  C   UNL     1      60.337  63.558  69.557  0.00  0.00    +0.000 A 
ATOM      8  C   UNL     1      60.354  63.734  68.751  0.00  0.00    +0.000 A 
ATOM      9  C   UNL     1      60.544  63.146  68.204  0.00  0.00    +0.000 A 
ATOM     10  O   UNL     1      60.560  63.323  67.399  0.00  0.00    +0.000 OA
ATOM     11  C   UNL     1      60.716  62.383  68.463  0.00  0.00    +0.000 A 
ATOM     12  O   UNL     1      60.906  61.794  67.915  0.00  0.00    +0.000 OA
ATOM     13  C   UNL     1      60.700  62.206  69.269  0.00  0.00    +0.000 A 
ATOM     14  C   UNL     1      60.510  62.793  69.816  0.00  0.00    +0.000 A 
ENDROOT
TORSDOF 0
ENDMDL
MODEL 8
REMARK VINA RESULT:    -6.310      6.685      7.698
REMARK INTER + INTRA:          -6.310
REMARK INTER:                  -6.310
REMARK INTRA:                   0.000
REMARK UNBOUND:                 0.000
ROOT
REMARK  Name = ethylnorepinephrine
REMARK                            x       y       z     vdW  Elec       q    Type
REMARK                         _______ _______ _______ _____ _____    ______ ____
ATOM      1  C   UNL     1      61.446  62.090  71.561  0.00  0.00    +0.000 C 
ATOM      2  C   UNL     1      61.247  62.729  72.043  0.00  0.00    +0.000 C 
ATOM      3  C   UNL     1      61.638  63.450  71.954  0.00  0.00    +0.000 C 
ATOM      4  N   UNL     1      62.229  63.531  71.383  0.00  0.00    +0.000 NA
ATOM      5  C   UNL     1      61.440  64.090  72.437  0.00  0.00    +0.000 C 
ATOM      6  O   UNL     1      60.850  64.008  73.007  0.00  0.00    +0.000 OA
ATOM      7  C   UNL     1      61.831  64.809  72.348  0.00  0.00    +0.000 A 
ATOM      8  C   UNL     1      61.632  65.449  72.830  0.00  0.00    +0.000 A 
ATOM      9  C   UNL     1      62.024  66.170  72.741  0.00  0.00    +0.000 A 
ATOM     10  O   UNL     1      61.825  66.809  73.222  0.00  0.00    +0.000 OA
ATOM     11  C   UNL     1      62.614  66.251  72.170  0.00  0.00    +0.000 A 
ATOM     12  O   UNL     1      63.005  66.973  72.081  0.00  0.00    +0.000 OA
ATOM     13  C   UNL     1      62.813  65.612  71.688  0.00  0.00    +0.000 A 
ATOM     14  C   UNL     1      62.421  64.891  71.777  0.00  0.00    +0.000 A 
ENDROOT
TORSDOF 0
ENDMDL
MODEL 9
REMARK VINA RESULT:    -6.225      7.955      8.804
REMARK INTER + INTRA:          -6.225
REMARK INTER:                  -6.225
REMARK INTRA:                   0.000
REMARK UNBOUND:                 0.000
ROOT
REMARK  Name = ethylnorepinephrine
REMARK                            x       y       z     vdW  Elec       q    Type
REMARK                         _______ _______ _______ _____ _____    ______ ____
ATOM      1  C   UNL     1      65.539  67.193  71.379  0.00  0.00    +0.000 C 
ATOM      2  C   UNL     1      64.909  66.662  71.405  0.00  0.00    +0.000 C 
ATOM      3  C   UNL     1      64.199  66.882  71.763  0.00  0.00    +0.000 C 
ATOM      4  N   UNL     1      64.120  67.634  72.095  0.00  0.00    +0.000 NA
ATOM      5  C   UNL     1      63.567  66.351  71.790  0.00  0.00    +0.000 C 
ATOM      6  O   UNL     1      63.647  65.600  71.459  0.00  0.00    +0.000 OA
ATOM      7  C   UNL     1      62.858  66.571  72.148  0.00  0.00    +0.000 A 
ATOM      8  C   UNL     1      62.227  66.040  72.175  0.00  0.00    +0.000 A 
ATOM      9  C   UNL     1      61.518  66.261  72.533  0.00  0.00    +0.000 A 
ATOM     10  O   UNL     1      60.887  65.730  72.559  0.00  0.00    +0.000 OA
ATOM     11  C   UNL     1      61.439  67.012  72.864  0.00  0.00    +0.000 A 
ATOM     12  O   UNL     1      60.728  67.232  73.222  0.00  0.00    +0.000 OA
ATOM     13  C   UNL     1      62.069  67.543  72.838  0.00  0.00    +0.000 A 
ATOM     14  C   UNL     1      62.779  67.323  72.479  0.00  0.00    +0.000 A 
ENDROOT
TORSDOF 0
ENDMDL
