MODEL 1
REMARK VINA RESULT:   -14.034      0.000      0.000
REMARK INTER + INTRA:         -14.034
REMARK INTER:                 -14.034
REMARK INTRA:                   0.000
REMARK UNBOUND:                 0.000
ROOT
REMARK  Name = ethyl biscoumacetate
REMARK                            x       y       z     vdW  Elec       q    Type
REMARK                         _______ _______ _______ _____ _____    ______ ____
ATOM      1  C   UNL     1      62.382  67.878  73.222  0.00  0.00    +0.000 C 
ATOM      2  C   UNL     1      62.085  67.139  73.007  0.00  0.00    +0.000 C 
ATOM      3  O   UNL     1      62.511  66.658  72.490  0.00  0.00    +0.000 OA
ATOM      4  C   UNL     1      62.213  65.919  72.275  0.00  0.00    +0.000 C 
ATOM      5  O   UNL     1      61.490  65.661  72.577  0.00  0.00    +0.000 OA
ATOM      6  C   UNL     1      62.639  65.437  71.758  0.00  0.00    +0.000 C 
ATOM      7  C   UNL     1      62.341  64.698  71.543  0.00  0.00    +0.000 A 
ATOM      8  C   UNL     1      61.619  64.441  71.844  0.00  0.00    +0.000 A 
ATOM      9  O   UNL     1      61.193  64.922  72.362  0.00  0.00    +0.000 OA
ATOM     10  C   UNL     1      61.321  63.703  71.629  0.00  0.00    +0.000 A 
ATOM     11  C   UNL     1      60.598  63.445  71.931  0.00  0.00    +0.000 A 
ATOM     12  C   UNL     1      60.301  62.706  71.716  0.00  0.00    +0.000 A 
ATOM     13  C   UNL     1      60.727  62.224  71.198  0.00  0.00    +0.000 A 
ATOM     14  C   UNL     1      61.450  62.482  70.897  0.00  0.00    +0.000 A 
ATOM     15  C   UNL     1      61.748  63.221  71.112  0.00  0.00    +0.000 A 
ATOM     16  O   UNL     1      62.471  63.478  70.810  0.00  0.00    +0.000 OA
ATOM     17  C   UNL     1      62.768  64.216  71.025  0.00  0.00    +0.000 A 
ATOM     18  O   UNL     1      63.491  64.475  70.723  0.00  0.00    +0.000 OA
ATOM     19  C   UNL     1      63.363  65.695  71.456  0.00  0.00    +0.000 A 
ATOM     20  C   UNL     1      63.660  66.434  71.671  0.00  0.00    +0.000 A 
ATOM     21  O   UNL     1      63.234  66.915  72.188  0.00  0.00    +0.000 OA
ATOM     22  C   UNL     1      64.383  66.691  71.369  0.00  0.00    +0.000 A 
ATOM     23  C   UNL     1      64.681  67.430  71.584  0.00  0.00    +0.000 A 
ATOM     24  C   UNL     1      65.403  67.687  71.283  0.00  0.00    +0.000 A 
ATOM     25  C   UNL     1      65.830  67.205  70.765  0.00  0.00    +0.000 A 
ATOM     26  C   UNL     1      65.533  66.467  70.550  0.00  0.00    +0.000 A 
ATOM     27  C   UNL     1      64.809  66.209  70.852  0.00  0.00    +0.000 A 
ATOM     28  O   UNL     1      64.512  65.471  70.637  0.00  0.00    +0.000 OA
ATOM     29  C   UNL     1      63.789  65.213  70.938  0.00  0.00    +0.000 A 
ATOM     30  O   UNL     1      63.938  64.540  70.487  0.00  0.00    +0.000 OA
ENDROOT
TORSDOF 0
ENDMDL
MODEL 2
REMARK VINA RESULT:   -13.858      0.659      4.029
REMARK INTER + INTRA:         -13.858
REMARK INTER:                 -13.858
REMARK INTRA:                   0.000
REMARK UNBOUND:                 0.000
ROOT
REMARK  Name = ethyl biscoumacetate
REMARK                            x       y       z     vdW  Elec       q    Type
REMARK                         _______ _______ _______ _____ _____    ______ ____
ATOM      1  C   UNL     1      60.055  65.562  73.222  0.00  0.00    +0.000 C 
ATOM      2  C   UNL     1      60.793  65.830  72.968  0.00  0.00    +0.000 C 
ATOM      3  O   UNL     1      61.239  65.376  72.445  0.00  0.00    +0.000 OA
ATOM      4  C   UNL     1      61.978  65.645  72.192  0.00  0.00    +0.000 C 
ATOM      5  O   UNL     1      62.268  66.369  72.463  0.00  0.00    +0.000 OA
ATOM      6  C   UNL     1      62.425  65.191  71.669  0.00  0.00    +0.000 C 
ATOM      7  C   UNL     1      63.163  65.460  71.416  0.00  0.00    +0.000 A 
ATOM      8  C   UNL     1      63.453  66.183  71.686  0.00  0.00    +0.000 A 
ATOM      9  O   UNL     1      63.006  66.638  72.209  0.00  0.00    +0.000 OA
ATOM     10  C   UNL     1      64.190  66.452  71.433  0.00  0.00    +0.000 A 
ATOM     11  C   UNL     1      64.481  67.175  71.703  0.00  0.00    +0.000 A 
ATOM     12  C   UNL     1      65.219  67.444  71.450  0.00  0.00    +0.000 A 
ATOM     13  C   UNL     1      65.666  66.989  70.926  0.00  0.00    +0.000 A 
ATOM     14  C   UNL     1      65.376  66.267  70.656  0.00  0.00    +0.000 A 
ATOM     15  C   UNL     1      64.638  65.997  70.909  0.00  0.00    +0.000 A 
ATOM     16  O   UNL     1      64.348  65.274  70.639  0.00  0.00    +0.000 OA
ATOM     17  C   UNL     1      63.611  65.005  70.892  0.00  0.00    +0.000 A 
ATOM     18  O   UNL     1      63.320  64.282  70.622  0.00  0.00    +0.000 OA
ATOM     19  C   UNL     1      62.134  64.467  71.399  0.00  0.00    +0.000 A 
ATOM     20  C   UNL     1      61.397  64.198  71.651  0.00  0.00    +0.000 A 
ATOM     21  O   UNL     1      60.950  64.653  72.175  0.00  0.00    +0.000 OA
ATOM     22  C   UNL     1      61.107  63.476  71.382  0.00  0.00    +0.000 A 
ATOM     23  C   UNL     1      60.369  63.206  71.634  0.00  0.00    +0.000 A 
ATOM     24  C   UNL     1      60.079  62.483  71.364  0.00  0.00    +0.000 A 
ATOM     25  C   UNL     1      60.527  62.028  70.840  0.00  0.00    +0.000 A 
ATOM     26  C   UNL     1      61.264  62.297  70.588  0.00  0.00    +0.000 A 
ATOM     27  C   UNL     1      61.555  63.021  70.857  0.00  0.00    +0.000 A 
ATOM     28  O   UNL     1      62.292  63.289  70.605  0.00  0.00    +0.000 OA
ATOM     29  C   UNL     1      62.582  64.012  70.875  0.00  0.00    +0.000 A 
ATOM     30  O   UNL     1      63.232  63.831  70.401  0.00  0.00    +0.000 OA
ENDROOT
TORSDOF 0
ENDMDL
MODEL 3
REMARK VINA RESULT:   -13.701      1.081      4.535
REMARK INTER + INTRA:         -13.701
REMARK INTER:                 -13.701
REMARK INTRA:                   0.000
REMARK UNBOUND:                 0.000
ROOT
REMARK  Name = ethyl biscoumacetate
REMARK                            x       y       z     vdW  Elec       q    Type
REMARK                         _______ _______ _______ _____ _____    ______ ____
ATOM      1  C   UNL     1      61.723  63.554  68.911  0.00  0.00    +0.000 C 
ATOM      2  C   UNL     1      62.334  64.086  69.064  0.00  0.00    +0.000 C 
ATOM      3  O   UNL     1      62.377  64.467  69.794  0.00  0.00    +0.000 OA
ATOM      4  C   UNL     1      62.988  65.000  69.946  0.00  0.00    +0.000 C 
ATOM      5  O   UNL     1      63.557  65.152  69.368  0.00  0.00    +0.000 OA
ATOM      6  C   UNL     1      63.031  65.381  70.677  0.00  0.00    +0.000 C 
ATOM      7  C   UNL     1      63.642  65.913  70.829  0.00  0.00    +0.000 A 
ATOM      8  C   UNL     1      64.210  66.066  70.252  0.00  0.00    +0.000 A 
ATOM      9  O   UNL     1      64.168  65.685  69.521  0.00  0.00    +0.000 OA
ATOM     10  C   UNL     1      64.821  66.598  70.404  0.00  0.00    +0.000 A 
ATOM     11  C   UNL     1      65.390  66.751  69.826  0.00  0.00    +0.000 A 
ATOM     12  C   UNL     1      66.000  67.283  69.978  0.00  0.00    +0.000 A 
ATOM     13  C   UNL     1      66.043  67.664  70.710  0.00  0.00    +0.000 A 
ATOM     14  C   UNL     1      65.475  67.512  71.287  0.00  0.00    +0.000 A 
ATOM     15  C   UNL     1      64.864  66.979  71.135  0.00  0.00    +0.000 A 
ATOM     16  O   UNL     1      64.295  66.827  71.713  0.00  0.00    +0.000 OA
ATOM     17  C   UNL     1      63.685  66.295  71.561  0.00  0.00    +0.000 A 
ATOM     18  O   UNL     1      63.116  66.142  72.139  0.00  0.00    +0.000 OA
ATOM     19  C   UNL     1      62.462  65.228  71.255  0.00  0.00    +0.000 A 
ATOM     20  C   UNL     1      61.851  64.695  71.103  0.00  0.00    +0.000 A 
ATOM     21  O   UNL     1      61.809  64.315  70.372  0.00  0.00    +0.000 OA
ATOM     22  C   UNL     1      61.283  64.543  71.681  0.00  0.00    +0.000 A 
ATOM     23  C   UNL     1      60.672  64.010  71.529  0.00  0.00    +0.000 A 
ATOM     24  C   UNL     1      60.104  63.858  72.106  0.00  0.00    +0.000 A 
ATOM     25  C   UNL     1      60.146  64.239  72.838  0.00  0.00    +0.000 A 
ATOM     26  C   UNL     1      60.757  64.771  72.990  0.00  0.00    +0.000 A 
ATOM     27  C   UNL     1      61.326  64.924  72.412  0.00  0.00    +0.000 A 
ATOM     28  O   UNL     1      61.936  65.457  72.564  0.00  0.00    +0.000 OA
ATOM     29  C   UNL     1      62.504  65.609  71.987  0.00  0.00    +0.000 A 
ATOM     30  O   UNL     1      62.821  66.117  72.554  0.00  0.00    +0.000 OA
ENDROOT
TORSDOF 0
ENDMDL
MODEL 4
REMARK VINA RESULT:   -13.610      2.612      4.517
REMARK INTER + INTRA:         -13.610
REMARK INTER:                 -13.610
REMARK INTRA:                   0.000
REMARK UNBOUND:                 0.000
ROOT
REMARK  Name = ethyl biscoumacetate
REMARK                            x       y       z     vdW  Elec       q    Type
REMARK                         _______ _______ _______ _____ _____    ______ ____
ATOM      1  C   UNL     1      63.600  65.140  70.082  0.00  0.00    +0.000 C 
ATOM      2  C   UNL     1      63.157  64.767  69.495  0.00  0.00    +0.000 C 
ATOM      3  O   UNL     1      62.558  64.241  69.702  0.00  0.00    +0.000 OA
ATOM      4  C   UNL     1      62.114  63.868  69.114  0.00  0.00    +0.000 C 
ATOM      5  O   UNL     1      62.271  64.023  68.318  0.00  0.00    +0.000 OA
ATOM      6  C   UNL     1      61.515  63.340  69.321  0.00  0.00    +0.000 C 
ATOM      7  C   UNL     1      61.072  62.968  68.732  0.00  0.00    +0.000 A 
ATOM      8  C   UNL     1      61.229  63.123  67.938  0.00  0.00    +0.000 A 
ATOM      9  O   UNL     1      61.828  63.650  67.731  0.00  0.00    +0.000 OA
ATOM     10  C   UNL     1      60.786  62.751  67.350  0.00  0.00    +0.000 A 
ATOM     11  C   UNL     1      60.942  62.905  66.555  0.00  0.00    +0.000 A 
ATOM     12  C   UNL     1      60.500  62.533  65.967  0.00  0.00    +0.000 A 
ATOM     13  C   UNL     1      59.899  62.005  66.174  0.00  0.00    +0.000 A 
ATOM     14  C   UNL     1      59.743  61.850  66.969  0.00  0.00    +0.000 A 
ATOM     15  C   UNL     1      60.186  62.223  67.557  0.00  0.00    +0.000 A 
ATOM     16  O   UNL     1      60.029  62.068  68.352  0.00  0.00    +0.000 OA
ATOM     17  C   UNL     1      60.472  62.440  68.939  0.00  0.00    +0.000 A 
ATOM     18  O   UNL     1      60.316  62.285  69.735  0.00  0.00    +0.000 OA
ATOM     19  C   UNL     1      61.359  63.186  70.116  0.00  0.00    +0.000 A 
ATOM     20  C   UNL     1      61.801  63.558  70.704  0.00  0.00    +0.000 A 
ATOM     21  O   UNL     1      62.401  64.085  70.497  0.00  0.00    +0.000 OA
ATOM     22  C   UNL     1      61.645  63.403  71.498  0.00  0.00    +0.000 A 
ATOM     23  C   UNL     1      62.088  63.775  72.087  0.00  0.00    +0.000 A 
ATOM     24  C   UNL     1      61.931  63.621  72.881  0.00  0.00    +0.000 A 
ATOM     25  C   UNL     1      61.331  63.093  73.089  0.00  0.00    +0.000 A 
ATOM     26  C   UNL     1      60.888  62.720  72.501  0.00  0.00    +0.000 A 
ATOM     27  C   UNL     1      61.044  62.875  71.706  0.00  0.00    +0.000 A 
ATOM     28  O   UNL     1      60.602  62.503  71.118  0.00  0.00    +0.000 OA
ATOM     29  C   UNL     1      60.758  62.658  70.323  0.00  0.00    +0.000 A 
ATOM     30  O   UNL     1      60.144  62.125  70.187  0.00  0.00    +0.000 OA
ENDROOT
TORSDOF 0
ENDMDL
MODEL 5
REMARK VINA RESULT:   -13.452      0.761      2.479
REMARK INTER + INTRA:         -13.452
REMARK INTER:                 -13.452
REMARK INTRA:                   0.000
REMARK UNBOUND:                 0.000
ROOT
REMARK  Name = ethyl biscoumacetate
REMARK                            x       y       z     vdW  Elec       q    Type
REMARK                         _______ _______ _______ _____ _____    ______ ____
ATOM      1  C   UNL     1      65.063  65.990  70.670  0.00  0.00    +0.000 C 
ATOM      2  C   UNL     1      64.463  65.424  70.699  0.00  0.00    +0.000 C 
ATOM      3  O   UNL     1      63.779  65.571  71.134  0.00  0.00    +0.000 OA
ATOM      4  C   UNL     1      63.179  65.004  71.163  0.00  0.00    +0.000 C 
ATOM      5  O   UNL     1      63.266  64.290  70.757  0.00  0.00    +0.000 OA
ATOM      6  C   UNL     1      62.494  65.150  71.599  0.00  0.00    +0.000 C 
ATOM      7  C   UNL     1      61.895  64.583  71.628  0.00  0.00    +0.000 A 
ATOM      8  C   UNL     1      61.981  63.871  71.222  0.00  0.00    +0.000 A 
ATOM      9  O   UNL     1      62.666  63.724  70.787  0.00  0.00    +0.000 OA
ATOM     10  C   UNL     1      61.383  63.305  71.251  0.00  0.00    +0.000 A 
ATOM     11  C   UNL     1      61.468  62.591  70.845  0.00  0.00    +0.000 A 
ATOM     12  C   UNL     1      60.870  62.025  70.874  0.00  0.00    +0.000 A 
ATOM     13  C   UNL     1      60.184  62.172  71.310  0.00  0.00    +0.000 A 
ATOM     14  C   UNL     1      60.097  62.884  71.716  0.00  0.00    +0.000 A 
ATOM     15  C   UNL     1      60.696  63.451  71.687  0.00  0.00    +0.000 A 
ATOM     16  O   UNL     1      60.610  64.164  72.092  0.00  0.00    +0.000 OA
ATOM     17  C   UNL     1      61.209  64.730  72.063  0.00  0.00    +0.000 A 
ATOM     18  O   UNL     1      61.123  65.443  72.469  0.00  0.00    +0.000 OA
ATOM     19  C   UNL     1      62.408  65.864  72.004  0.00  0.00    +0.000 A 
ATOM     20  C   UNL     1      63.007  66.430  71.975  0.00  0.00    +0.000 A 
ATOM     21  O   UNL     1      63.692  66.283  71.540  0.00  0.00    +0.000 OA
ATOM     22  C   UNL     1      62.920  67.142  72.381  0.00  0.00    +0.000 A 
ATOM     23  C   UNL     1      63.519  67.709  72.352  0.00  0.00    +0.000 A 
ATOM     24  C   UNL     1      63.433  68.422  72.758  0.00  0.00    +0.000 A 
ATOM     25  C   UNL     1      62.747  68.569  73.193  0.00  0.00    +0.000 A 
ATOM     26  C   UNL     1      62.149  68.002  73.222  0.00  0.00    +0.000 A 
ATOM     27  C   UNL     1      62.234  67.289  72.817  0.00  0.00    +0.000 A 
ATOM     28  O   UNL     1      61.636  66.723  72.846  0.00  0.00    +0.000 OA
ATOM     29  C   UNL     1      61.722  66.010  72.440  0.00  0.00    +0.000 A 
ATOM     30  O   UNL     1      60.976  65.843  72.749  0.00  0.00    +0.000 OA
ENDROOT
TORSDOF 0
ENDMDL
MODEL 6
REMARK VINA RESULT:   -13.306      3.410      4.437
REMARK INTER + INTRA:         -13.306
REMARK INTER:                 -13.306
REMARK INTRA:                   0.000
REMARK UNBOUND:                 0.000
ROOT
REMARK  Name = ethyl biscoumacetate
REMARK                            x       y       z     vdW  Elec       q    Type
REMARK                         _______ _______ _______ _____ _____    ______ ____
ATOM      1  C   UNL     1      61.630  62.473  72.890  0.00  0.00    +0.000 C 
ATOM      2  C   UNL     1      61.525  62.392  72.076  0.00  0.00    +0.000 C 
ATOM      3  O   UNL     1      61.110  62.965  71.654  0.00  0.00    +0.000 OA
ATOM      4  C   UNL     1      61.004  62.883  70.839  0.00  0.00    +0.000 C 
ATOM      5  O   UNL     1      61.316  62.227  70.447  0.00  0.00    +0.000 OA
ATOM      6  C   UNL     1      60.588  63.457  70.417  0.00  0.00    +0.000 C 
ATOM      7  C   UNL     1      60.484  63.374  69.603  0.00  0.00    +0.000 A 
ATOM      8  C   UNL     1      60.795  62.719  69.211  0.00  0.00    +0.000 A 
ATOM      9  O   UNL     1      61.211  62.145  69.633  0.00  0.00    +0.000 OA
ATOM     10  C   UNL     1      60.690  62.637  68.397  0.00  0.00    +0.000 A 
ATOM     11  C   UNL     1      61.001  61.981  68.004  0.00  0.00    +0.000 A 
ATOM     12  C   UNL     1      60.896  61.899  67.191  0.00  0.00    +0.000 A 
ATOM     13  C   UNL     1      60.480  62.474  66.768  0.00  0.00    +0.000 A 
ATOM     14  C   UNL     1      60.169  63.129  67.160  0.00  0.00    +0.000 A 
ATOM     15  C   UNL     1      60.273  63.212  67.975  0.00  0.00    +0.000 A 
ATOM     16  O   UNL     1      59.963  63.867  68.366  0.00  0.00    +0.000 OA
ATOM     17  C   UNL     1      60.067  63.949  69.180  0.00  0.00    +0.000 A 
ATOM     18  O   UNL     1      59.756  64.605  69.573  0.00  0.00    +0.000 OA
ATOM     19  C   UNL     1      60.277  64.113  70.810  0.00  0.00    +0.000 A 
ATOM     20  C   UNL     1      60.382  64.195  71.623  0.00  0.00    +0.000 A 
ATOM     21  O   UNL     1      60.798  63.621  72.045  0.00  0.00    +0.000 OA
ATOM     22  C   UNL     1      60.071  64.850  72.015  0.00  0.00    +0.000 A 
ATOM     23  C   UNL     1      60.176  64.933  72.829  0.00  0.00    +0.000 A 
ATOM     24  C   UNL     1      59.865  65.588  73.221  0.00  0.00    +0.000 A 
ATOM     25  C   UNL     1      59.449  66.163  72.799  0.00  0.00    +0.000 A 
ATOM     26  C   UNL     1      59.344  66.080  71.985  0.00  0.00    +0.000 A 
ATOM     27  C   UNL     1      59.655  65.425  71.592  0.00  0.00    +0.000 A 
ATOM     28  O   UNL     1      59.550  65.343  70.779  0.00  0.00    +0.000 OA
ATOM     29  C   UNL     1      59.861  64.687  70.387  0.00  0.00    +0.000 A 
ATOM     30  O   UNL     1      59.530  65.038  69.718  0.00  0.00    +0.000 OA
ENDROOT
TORSDOF 0
ENDMDL
MODEL 7
REMARK VINA RESULT:   -13.218      3.329      4.776
REMARK INTER + INTRA:         -13.218
REMARK INTER:                 -13.218
REMARK INTRA:                   0.000
REMARK UNBOUND:                 0.000
ROOT
REMARK  Name = ethyl biscoumacetate
REMARK                            x       y       z     vdW  Elec       q    Type
REMARK                         _______ _______ _______ _____ _____    ______ ____
ATOM      1  C   UNL     1      61.624  61.521  71.439  0.00  0.00    +0.000 C 
ATOM      2  C   UNL     1      61.332  62.249  71.693  0.00  0.00    +0.000 C 
ATOM      3  O   UNL     1      60.999  62.772  71.150  0.00  0.00    +0.000 OA
ATOM      4  C   UNL     1      60.706  63.501  71.405  0.00  0.00    +0.000 C 
ATOM      5  O   UNL     1      60.747  63.706  72.204  0.00  0.00    +0.000 OA
ATOM      6  C   UNL     1      60.373  64.025  70.861  0.00  0.00    +0.000 C 
ATOM      7  C   UNL     1      60.081  64.753  71.117  0.00  0.00    +0.000 A 
ATOM      8  C   UNL     1      60.121  64.958  71.915  0.00  0.00    +0.000 A 
ATOM      9  O   UNL     1      60.455  64.434  72.458  0.00  0.00    +0.000 OA
ATOM     10  C   UNL     1      59.829  65.685  72.169  0.00  0.00    +0.000 A 
ATOM     11  C   UNL     1      59.870  65.890  72.968  0.00  0.00    +0.000 A 
ATOM     12  C   UNL     1      59.577  66.618  73.222  0.00  0.00    +0.000 A 
ATOM     13  C   UNL     1      59.244  67.142  72.678  0.00  0.00    +0.000 A 
ATOM     14  C   UNL     1      59.203  66.938  71.881  0.00  0.00    +0.000 A 
ATOM     15  C   UNL     1      59.496  66.209  71.625  0.00  0.00    +0.000 A 
ATOM     16  O   UNL     1      59.455  66.005  70.828  0.00  0.00    +0.000 OA
ATOM     17  C   UNL     1      59.748  65.278  70.573  0.00  0.00    +0.000 A 
ATOM     18  O   UNL     1      59.707  65.073  69.775  0.00  0.00    +0.000 OA
ATOM     19  C   UNL     1      60.333  63.820  70.063  0.00  0.00    +0.000 A 
ATOM     20  C   UNL     1      60.625  63.092  69.808  0.00  0.00    +0.000 A 
ATOM     21  O   UNL     1      60.958  62.569  70.352  0.00  0.00    +0.000 OA
ATOM     22  C   UNL     1      60.585  62.888  69.011  0.00  0.00    +0.000 A 
ATOM     23  C   UNL     1      60.877  62.160  68.755  0.00  0.00    +0.000 A 
ATOM     24  C   UNL     1      60.837  61.956  67.958  0.00  0.00    +0.000 A 
ATOM     25  C   UNL     1      60.503  62.480  67.414  0.00  0.00    +0.000 A 
ATOM     26  C   UNL     1      60.211  63.207  67.668  0.00  0.00    +0.000 A 
ATOM     27  C   UNL     1      60.251  63.412  68.467  0.00  0.00    +0.000 A 
ATOM     28  O   UNL     1      59.959  64.140  68.721  0.00  0.00    +0.000 OA
ATOM     29  C   UNL     1      60.000  64.344  69.519  0.00  0.00    +0.000 A 
ATOM     30  O   UNL     1      59.636  65.042  69.271  0.00  0.00    +0.000 OA
ENDROOT
TORSDOF 0
ENDMDL
MODEL 8
REMARK VINA RESULT:   -13.199      3.068      4.732
REMARK INTER + INTRA:         -13.199
REMARK INTER:                 -13.199
REMARK INTRA:                   0.000
REMARK UNBOUND:                 0.000
ROOT
REMARK  Name = ethyl biscoumacetate
REMARK                            x       y       z     vdW  Elec       q    Type
REMARK                         _______ _______ _______ _____ _____    ______ ____
ATOM      1  C   UNL     1      60.517  62.025  68.796  0.00  0.00    +0.000 C 
ATOM      2  C   UNL     1      60.344  62.790  69.049  0.00  0.00    +0.000 C 
ATOM      3  O   UNL     1      60.523  63.021  69.819  0.00  0.00    +0.000 OA
ATOM      4  C   UNL     1      60.349  63.788  70.072  0.00  0.00    +0.000 C 
ATOM      5  O   UNL     1      59.996  64.323  69.552  0.00  0.00    +0.000 OA
ATOM      6  C   UNL     1      60.529  64.019  70.843  0.00  0.00    +0.000 C 
ATOM      7  C   UNL     1      60.355  64.785  71.095  0.00  0.00    +0.000 A 
ATOM      8  C   UNL     1      60.003  65.320  70.576  0.00  0.00    +0.000 A 
ATOM      9  O   UNL     1      59.823  65.089  69.804  0.00  0.00    +0.000 OA
ATOM     10  C   UNL     1      59.829  66.086  70.828  0.00  0.00    +0.000 A 
ATOM     11  C   UNL     1      59.477  66.622  70.308  0.00  0.00    +0.000 A 
ATOM     12  C   UNL     1      59.303  67.387  70.560  0.00  0.00    +0.000 A 
ATOM     13  C   UNL     1      59.483  67.619  71.333  0.00  0.00    +0.000 A 
ATOM     14  C   UNL     1      59.835  67.084  71.851  0.00  0.00    +0.000 A 
ATOM     15  C   UNL     1      60.009  66.317  71.600  0.00  0.00    +0.000 A 
ATOM     16  O   UNL     1      60.361  65.782  72.119  0.00  0.00    +0.000 OA
ATOM     17  C   UNL     1      60.534  65.016  71.867  0.00  0.00    +0.000 A 
ATOM     18  O   UNL     1      60.887  64.481  72.386  0.00  0.00    +0.000 OA
ATOM     19  C   UNL     1      60.881  63.483  71.362  0.00  0.00    +0.000 A 
ATOM     20  C   UNL     1      61.055  62.717  71.110  0.00  0.00    +0.000 A 
ATOM     21  O   UNL     1      60.875  62.486  70.339  0.00  0.00    +0.000 OA
ATOM     22  C   UNL     1      61.407  62.182  71.629  0.00  0.00    +0.000 A 
ATOM     23  C   UNL     1      61.581  61.416  71.378  0.00  0.00    +0.000 A 
ATOM     24  C   UNL     1      61.933  60.881  71.897  0.00  0.00    +0.000 A 
ATOM     25  C   UNL     1      62.112  61.112  72.669  0.00  0.00    +0.000 A 
ATOM     26  C   UNL     1      61.939  61.878  72.921  0.00  0.00    +0.000 A 
ATOM     27  C   UNL     1      61.586  62.413  72.402  0.00  0.00    +0.000 A 
ATOM     28  O   UNL     1      61.413  63.179  72.653  0.00  0.00    +0.000 OA
ATOM     29  C   UNL     1      61.061  63.714  72.135  0.00  0.00    +0.000 A 
ATOM     30  O   UNL     1      61.101  64.231  72.776  0.00  0.00    +0.000 OA
ENDROOT
TORSDOF 0
ENDMDL
MODEL 9
REMARK VINA RESULT:   -12.823      1.707      2.507
REMARK INTER + INTRA:         -12.823
REMARK INTER:                 -12.823
REMARK INTRA:                   0.000
REMARK UNBOUND:                 0.000
ROOT
REMARK  Name = ethyl biscoumacetate
REMARK                            x       y       z     vdW  Elec       q    Type
REMARK                         _______ _______ _______ _____ _____    ______ ____
ATOM      1  C   UNL     1      63.418  68.532  72.882  0.00  0.00    +0.000 C 
ATOM      2  C   UNL     1      62.660  68.209  72.930  0.00  0.00    +0.000 C 
ATOM      3  O   UNL     1      62.491  67.494  72.558  0.00  0.00    +0.000 OA
ATOM      4  C   UNL     1      61.732  67.172  72.606  0.00  0.00    +0.000 C 
ATOM      5  O   UNL     1      61.143  67.567  73.028  0.00  0.00    +0.000 OA
ATOM      6  C   UNL     1      61.563  66.456  72.233  0.00  0.00    +0.000 C 
ATOM      7  C   UNL     1      60.805  66.135  72.282  0.00  0.00    +0.000 A 
ATOM      8  C   UNL     1      60.216  66.529  72.703  0.00  0.00    +0.000 A 
ATOM      9  O   UNL     1      60.385  67.245  73.076  0.00  0.00    +0.000 OA
ATOM     10  C   UNL     1      59.458  66.207  72.752  0.00  0.00    +0.000 A 
ATOM     11  C   UNL     1      58.868  66.602  73.173  0.00  0.00    +0.000 A 
ATOM     12  C   UNL     1      58.111  66.280  73.222  0.00  0.00    +0.000 A 
ATOM     13  C   UNL     1      57.942  65.563  72.848  0.00  0.00    +0.000 A 
ATOM     14  C   UNL     1      58.531  65.169  72.427  0.00  0.00    +0.000 A 
ATOM     15  C   UNL     1      59.289  65.490  72.378  0.00  0.00    +0.000 A 
ATOM     16  O   UNL     1      59.878  65.096  71.957  0.00  0.00    +0.000 OA
ATOM     17  C   UNL     1      60.636  65.417  71.909  0.00  0.00    +0.000 A 
ATOM     18  O   UNL     1      61.226  65.023  71.487  0.00  0.00    +0.000 OA
ATOM     19  C   UNL     1      62.153  66.062  71.812  0.00  0.00    +0.000 A 
ATOM     20  C   UNL     1      62.911  66.383  71.763  0.00  0.00    +0.000 A 
ATOM     21  O   UNL     1      63.080  67.099  72.136  0.00  0.00    +0.000 OA
ATOM     22  C   UNL     1      63.500  65.989  71.342  0.00  0.00    +0.000 A 
ATOM     23  C   UNL     1      64.258  66.310  71.293  0.00  0.00    +0.000 A 
ATOM     24  C   UNL     1      64.847  65.916  70.872  0.00  0.00    +0.000 A 
ATOM     25  C   UNL     1      64.678  65.199  70.499  0.00  0.00    +0.000 A 
ATOM     26  C   UNL     1      63.921  64.878  70.547  0.00  0.00    +0.000 A 
ATOM     27  C   UNL     1      63.331  65.272  70.969  0.00  0.00    +0.000 A 
ATOM     28  O   UNL     1      62.573  64.950  71.017  0.00  0.00    +0.000 OA
ATOM     29  C   UNL     1      61.984  65.345  71.438  0.00  0.00    +0.000 A 
ATOM     30  O   UNL     1      61.513  64.708  71.208  0.00  0.00    +0.000 OA
ENDROOT
TORSDOF 0
ENDMDL
