MODEL 1
REMARK VINA RESULT:   -10.817      0.000      0.000
REMARK INTER + INTRA:         -10.817
REMARK INTER:                 -10.817
REMARK INTRA:                   0.000
REMARK UNBOUND:                 0.000
ROOT
REMARK  Name = ethylmorphine
REMARK                            x       y       z     vdW  Elec       q    Type
REMARK                         _______ _______ _______ _____ _____    ______ ____
ATOM      1  C   UNL     1      66.098  67.602  69.911  0.00  0.00    +0.000 C 
ATOM      2  C   UNL     1      65.505  67.097  70.183  0.00  0.00    +0.000 C 
ATOM      3  O   UNL     1      65.402  66.356  69.833  0.00  0.00    +0.000 OA
ATOM      4  C   UNL     1      64.809  65.850  70.105  0.00  0.00    +0.000 A 
ATOM      5  C   UNL     1      64.717  65.102  69.741  0.00  0.00    +0.000 A 
ATOM      6  C   UNL     1      64.125  64.591  70.009  0.00  0.00    +0.000 A 
ATOM      7  C   UNL     1      63.642  64.845  70.634  0.00  0.00    +0.000 A 
ATOM      8  C   UNL     1      63.067  64.342  70.890  0.00  0.00    +0.000 C 
ATOM      9  C   UNL     1      62.629  64.656  71.508  0.00  0.00    +0.000 C 
ATOM     10  C   UNL     1      62.758  65.540  71.918  0.00  0.00    +0.000 C 
ATOM     11  C   UNL     1      62.327  66.045  72.646  0.00  0.00    +0.000 C 
ATOM     12  C   UNL     1      62.577  66.782  72.850  0.00  0.00    +0.000 C 
ATOM     13  C   UNL     1      63.206  67.059  72.403  0.00  0.00    +0.000 C 
ATOM     14  O   UNL     1      63.511  67.810  72.562  0.00  0.00    +0.000 OA
ATOM     15  C   UNL     1      63.552  66.601  71.788  0.00  0.00    +0.000 C 
ATOM     16  O   UNL     1      64.183  66.755  71.265  0.00  0.00    +0.000 OA
ATOM     17  C   UNL     1      64.310  66.107  70.748  0.00  0.00    +0.000 A 
ATOM     18  C   UNL     1      63.728  65.586  71.000  0.00  0.00    +0.000 A 
ATOM     19  C   UNL     1      63.199  65.827  71.662  0.00  0.00    +0.000 C 
ATOM     20  C   UNL     1      62.420  65.664  72.323  0.00  0.00    +0.000 C 
ATOM     21  C   UNL     1      61.849  64.986  72.469  0.00  0.00    +0.000 C 
ATOM     22  N   UNL     1      62.014  64.384  71.942  0.00  0.00    +0.000 NA
ATOM     23  C   UNL     1      61.633  63.656  71.873  0.00  0.00    +0.000 C 
ENDROOT
TORSDOF 0
ENDMDL
MODEL 2
REMARK VINA RESULT:   -10.699      3.907      4.540
REMARK INTER + INTRA:         -10.699
REMARK INTER:                 -10.699
REMARK INTRA:                   0.000
REMARK UNBOUND:                 0.000
ROOT
REMARK  Name = ethylmorphine
REMARK                            x       y       z     vdW  Elec       q    Type
REMARK                         _______ _______ _______ _____ _____    ______ ____
ATOM      1  C   UNL     1      60.702  62.046  67.720  0.00  0.00    +0.000 C 
ATOM      2  C   UNL     1      60.660  62.474  68.423  0.00  0.00    +0.000 C 
ATOM      3  O   UNL     1      60.344  63.237  68.423  0.00  0.00    +0.000 OA
ATOM      4  C   UNL     1      60.302  63.666  69.127  0.00  0.00    +0.000 A 
ATOM      5  C   UNL     1      59.979  64.439  69.112  0.00  0.00    +0.000 A 
ATOM      6  C   UNL     1      59.934  64.873  69.813  0.00  0.00    +0.000 A 
ATOM      7  C   UNL     1      60.214  64.521  70.510  0.00  0.00    +0.000 A 
ATOM      8  C   UNL     1      60.167  64.951  71.191  0.00  0.00    +0.000 C 
ATOM      9  C   UNL     1      60.461  64.544  71.838  0.00  0.00    +0.000 C 
ATOM     10  C   UNL     1      60.835  63.635  71.830  0.00  0.00    +0.000 C 
ATOM     11  C   UNL     1      61.217  63.027  72.504  0.00  0.00    +0.000 C 
ATOM     12  C   UNL     1      61.483  62.294  72.307  0.00  0.00    +0.000 C 
ATOM     13  C   UNL     1      61.405  62.113  71.511  0.00  0.00    +0.000 C 
ATOM     14  O   UNL     1      61.659  61.375  71.241  0.00  0.00    +0.000 OA
ATOM     15  C   UNL     1      61.074  62.656  70.960  0.00  0.00    +0.000 C 
ATOM     16  O   UNL     1      60.937  62.603  70.139  0.00  0.00    +0.000 OA
ATOM     17  C   UNL     1      60.589  63.308  69.847  0.00  0.00    +0.000 A 
ATOM     18  C   UNL     1      60.536  63.755  70.533  0.00  0.00    +0.000 A 
ATOM     19  C   UNL     1      60.825  63.409  71.290  0.00  0.00    +0.000 C 
ATOM     20  C   UNL     1      61.006  63.445  72.308  0.00  0.00    +0.000 C 
ATOM     21  C   UNL     1      60.875  64.060  72.950  0.00  0.00    +0.000 C 
ATOM     22  N   UNL     1      60.536  64.723  72.615  0.00  0.00    +0.000 NA
ATOM     23  C   UNL     1      60.318  65.423  72.993  0.00  0.00    +0.000 C 
ENDROOT
TORSDOF 0
ENDMDL
MODEL 3
REMARK VINA RESULT:   -10.695      2.737      4.023
REMARK INTER + INTRA:         -10.695
REMARK INTER:                 -10.695
REMARK INTRA:                   0.000
REMARK UNBOUND:                 0.000
ROOT
REMARK  Name = ethylmorphine
REMARK                            x       y       z     vdW  Elec       q    Type
REMARK                         _______ _______ _______ _____ _____    ______ ____
ATOM      1  C   UNL     1      61.235  63.111  66.587  0.00  0.00    +0.000 C 
ATOM      2  C   UNL     1      61.266  63.096  67.412  0.00  0.00    +0.000 C 
ATOM      3  O   UNL     1      60.867  62.505  67.828  0.00  0.00    +0.000 OA
ATOM      4  C   UNL     1      60.897  62.488  68.652  0.00  0.00    +0.000 A 
ATOM      5  C   UNL     1      60.488  61.883  69.061  0.00  0.00    +0.000 A 
ATOM      6  C   UNL     1      60.514  61.862  69.887  0.00  0.00    +0.000 A 
ATOM      7  C   UNL     1      60.950  62.449  70.279  0.00  0.00    +0.000 A 
ATOM      8  C   UNL     1      60.971  62.423  71.085  0.00  0.00    +0.000 C 
ATOM      9  C   UNL     1      61.417  63.031  71.406  0.00  0.00    +0.000 C 
ATOM     10  C   UNL     1      61.888  63.731  70.903  0.00  0.00    +0.000 C 
ATOM     11  C   UNL     1      62.449  64.507  71.137  0.00  0.00    +0.000 C 
ATOM     12  C   UNL     1      62.761  64.986  70.571  0.00  0.00    +0.000 C 
ATOM     13  C   UNL     1      62.568  64.768  69.804  0.00  0.00    +0.000 C 
ATOM     14  O   UNL     1      62.856  65.218  69.175  0.00  0.00    +0.000 OA
ATOM     15  C   UNL     1      62.086  64.098  69.639  0.00  0.00    +0.000 C 
ATOM     16  O   UNL     1      61.817  63.769  68.921  0.00  0.00    +0.000 OA
ATOM     17  C   UNL     1      61.344  63.091  69.061  0.00  0.00    +0.000 A 
ATOM     18  C   UNL     1      61.358  63.053  69.881  0.00  0.00    +0.000 A 
ATOM     19  C   UNL     1      61.812  63.663  70.326  0.00  0.00    +0.000 C 
ATOM     20  C   UNL     1      62.160  64.094  71.200  0.00  0.00    +0.000 C 
ATOM     21  C   UNL     1      62.071  63.907  72.074  0.00  0.00    +0.000 C 
ATOM     22  N   UNL     1      61.604  63.241  72.156  0.00  0.00    +0.000 NA
ATOM     23  C   UNL     1      61.374  62.869  72.855  0.00  0.00    +0.000 C 
ENDROOT
TORSDOF 0
ENDMDL
MODEL 4
REMARK VINA RESULT:   -10.674      1.479      3.784
REMARK INTER + INTRA:         -10.674
REMARK INTER:                 -10.674
REMARK INTRA:                   0.000
REMARK UNBOUND:                 0.000
ROOT
REMARK  Name = ethylmorphine
REMARK                            x       y       z     vdW  Elec       q    Type
REMARK                         _______ _______ _______ _____ _____    ______ ____
ATOM      1  C   UNL     1      60.761  64.254  72.530  0.00  0.00    +0.000 C 
ATOM      2  C   UNL     1      61.426  64.681  72.295  0.00  0.00    +0.000 C 
ATOM      3  O   UNL     1      61.666  65.342  72.727  0.00  0.00    +0.000 OA
ATOM      4  C   UNL     1      62.331  65.770  72.493  0.00  0.00    +0.000 A 
ATOM      5  C   UNL     1      62.563  66.438  72.941  0.00  0.00    +0.000 A 
ATOM      6  C   UNL     1      63.228  66.870  72.711  0.00  0.00    +0.000 A 
ATOM      7  C   UNL     1      63.642  66.621  72.036  0.00  0.00    +0.000 A 
ATOM      8  C   UNL     1      64.290  67.048  71.817  0.00  0.00    +0.000 C 
ATOM      9  C   UNL     1      64.649  66.747  71.145  0.00  0.00    +0.000 C 
ATOM     10  C   UNL     1      64.357  65.960  70.635  0.00  0.00    +0.000 C 
ATOM     11  C   UNL     1      64.674  65.487  69.830  0.00  0.00    +0.000 C 
ATOM     12  C   UNL     1      64.294  64.836  69.549  0.00  0.00    +0.000 C 
ATOM     13  C   UNL     1      63.637  64.615  69.988  0.00  0.00    +0.000 C 
ATOM     14  O   UNL     1      63.202  63.955  69.752  0.00  0.00    +0.000 OA
ATOM     15  C   UNL     1      63.394  65.042  70.671  0.00  0.00    +0.000 C 
ATOM     16  O   UNL     1      62.759  64.930  71.200  0.00  0.00    +0.000 OA
ATOM     17  C   UNL     1      62.761  65.518  71.799  0.00  0.00    +0.000 A 
ATOM     18  C   UNL     1      63.418  65.960  71.586  0.00  0.00    +0.000 A 
ATOM     19  C   UNL     1      63.879  65.721  70.874  0.00  0.00    +0.000 C 
ATOM     20  C   UNL     1      64.657  65.833  70.201  0.00  0.00    +0.000 C 
ATOM     21  C   UNL     1      65.335  66.417  70.114  0.00  0.00    +0.000 C 
ATOM     22  N   UNL     1      65.291  66.965  70.718  0.00  0.00    +0.000 NA
ATOM     23  C   UNL     1      65.796  67.602  70.858  0.00  0.00    +0.000 C 
ENDROOT
TORSDOF 0
ENDMDL
MODEL 5
REMARK VINA RESULT:   -10.593      3.716      4.659
REMARK INTER + INTRA:         -10.593
REMARK INTER:                 -10.593
REMARK INTRA:                   0.000
REMARK UNBOUND:                 0.000
ROOT
REMARK  Name = ethylmorphine
REMARK                            x       y       z     vdW  Elec       q    Type
REMARK                         _______ _______ _______ _____ _____    ______ ____
ATOM      1  C   UNL     1      59.391  66.615  70.812  0.00  0.00    +0.000 C 
ATOM      2  C   UNL     1      59.725  65.880  70.981  0.00  0.00    +0.000 C 
ATOM      3  O   UNL     1      60.036  65.732  71.732  0.00  0.00    +0.000 OA
ATOM      4  C   UNL     1      60.370  64.997  71.902  0.00  0.00    +0.000 A 
ATOM      5  C   UNL     1      60.682  64.861  72.667  0.00  0.00    +0.000 A 
ATOM      6  C   UNL     1      61.018  64.127  72.844  0.00  0.00    +0.000 A 
ATOM      7  C   UNL     1      61.032  63.550  72.248  0.00  0.00    +0.000 A 
ATOM      8  C   UNL     1      61.361  62.836  72.427  0.00  0.00    +0.000 C 
ATOM      9  C   UNL     1      61.341  62.316  71.795  0.00  0.00    +0.000 C 
ATOM     10  C   UNL     1      60.969  62.500  70.904  0.00  0.00    +0.000 C 
ATOM     11  C   UNL     1      60.874  61.993  70.064  0.00  0.00    +0.000 C 
ATOM     12  C   UNL     1      60.530  62.319  69.414  0.00  0.00    +0.000 C 
ATOM     13  C   UNL     1      60.276  63.091  69.521  0.00  0.00    +0.000 C 
ATOM     14  O   UNL     1      59.914  63.484  68.891  0.00  0.00    +0.000 OA
ATOM     15  C   UNL     1      60.373  63.496  70.252  0.00  0.00    +0.000 C 
ATOM     16  O   UNL     1      60.166  64.266  70.494  0.00  0.00    +0.000 OA
ATOM     17  C   UNL     1      60.387  64.400  71.292  0.00  0.00    +0.000 A 
ATOM     18  C   UNL     1      60.725  63.677  71.486  0.00  0.00    +0.000 A 
ATOM     19  C   UNL     1      60.755  63.044  70.875  0.00  0.00    +0.000 C 
ATOM     20  C   UNL     1      61.000  62.094  70.546  0.00  0.00    +0.000 C 
ATOM     21  C   UNL     1      61.396  61.380  70.921  0.00  0.00    +0.000 C 
ATOM     22  N   UNL     1      61.591  61.561  71.693  0.00  0.00    +0.000 NA
ATOM     23  C   UNL     1      61.962  61.075  72.247  0.00  0.00    +0.000 C 
ENDROOT
TORSDOF 0
ENDMDL
MODEL 6
REMARK VINA RESULT:   -10.575      0.829      2.229
REMARK INTER + INTRA:         -10.575
REMARK INTER:                 -10.575
REMARK INTRA:                   0.000
REMARK UNBOUND:                 0.000
ROOT
REMARK  Name = ethylmorphine
REMARK                            x       y       z     vdW  Elec       q    Type
REMARK                         _______ _______ _______ _____ _____    ______ ____
ATOM      1  C   UNL     1      66.424  67.628  70.190  0.00  0.00    +0.000 C 
ATOM      2  C   UNL     1      65.755  67.268  70.511  0.00  0.00    +0.000 C 
ATOM      3  O   UNL     1      65.357  67.625  71.140  0.00  0.00    +0.000 OA
ATOM      4  C   UNL     1      64.687  67.266  71.462  0.00  0.00    +0.000 A 
ATOM      5  C   UNL     1      64.294  67.639  72.101  0.00  0.00    +0.000 A 
ATOM      6  C   UNL     1      63.623  67.284  72.427  0.00  0.00    +0.000 A 
ATOM      7  C   UNL     1      63.365  66.565  72.104  0.00  0.00    +0.000 A 
ATOM      8  C   UNL     1      62.709  66.224  72.426  0.00  0.00    +0.000 C 
ATOM      9  C   UNL     1      62.511  65.519  72.060  0.00  0.00    +0.000 C 
ATOM     10  C   UNL     1      62.989  65.101  71.310  0.00  0.00    +0.000 C 
ATOM     11  C   UNL     1      62.879  64.280  70.777  0.00  0.00    +0.000 C 
ATOM     12  C   UNL     1      63.386  64.095  70.181  0.00  0.00    +0.000 C 
ATOM     13  C   UNL     1      63.985  64.643  70.068  0.00  0.00    +0.000 C 
ATOM     14  O   UNL     1      64.541  64.513  69.472  0.00  0.00    +0.000 OA
ATOM     15  C   UNL     1      64.052  65.335  70.542  0.00  0.00    +0.000 C 
ATOM     16  O   UNL     1      64.600  65.964  70.537  0.00  0.00    +0.000 OA
ATOM     17  C   UNL     1      64.417  66.526  71.133  0.00  0.00    +0.000 A 
ATOM     18  C   UNL     1      63.749  66.189  71.470  0.00  0.00    +0.000 A 
ATOM     19  C   UNL     1      63.450  65.425  71.149  0.00  0.00    +0.000 C 
ATOM     20  C   UNL     1      62.785  64.632  71.131  0.00  0.00    +0.000 C 
ATOM     21  C   UNL     1      62.058  64.409  71.609  0.00  0.00    +0.000 C 
ATOM     22  N   UNL     1      61.924  64.985  72.172  0.00  0.00    +0.000 NA
ATOM     23  C   UNL     1      61.320  65.012  72.732  0.00  0.00    +0.000 C 
ENDROOT
TORSDOF 0
ENDMDL
MODEL 7
REMARK VINA RESULT:   -10.565      1.787      3.890
REMARK INTER + INTRA:         -10.565
REMARK INTER:                 -10.565
REMARK INTRA:                   0.000
REMARK UNBOUND:                 0.000
ROOT
REMARK  Name = ethylmorphine
REMARK                            x       y       z     vdW  Elec       q    Type
REMARK                         _______ _______ _______ _____ _____    ______ ____
ATOM      1  C   UNL     1      60.753  61.668  70.584  0.00  0.00    +0.000 C 
ATOM      2  C   UNL     1      61.008  62.384  70.903  0.00  0.00    +0.000 C 
ATOM      3  O   UNL     1      60.600  62.721  71.537  0.00  0.00    +0.000 OA
ATOM      4  C   UNL     1      60.855  63.438  71.857  0.00  0.00    +0.000 A 
ATOM      5  C   UNL     1      60.431  63.768  72.500  0.00  0.00    +0.000 A 
ATOM      6  C   UNL     1      60.682  64.485  72.825  0.00  0.00    +0.000 A 
ATOM      7  C   UNL     1      61.349  64.852  72.496  0.00  0.00    +0.000 A 
ATOM      8  C   UNL     1      61.588  65.551  72.817  0.00  0.00    +0.000 C 
ATOM      9  C   UNL     1      62.251  65.856  72.446  0.00  0.00    +0.000 C 
ATOM     10  C   UNL     1      62.732  65.449  71.691  0.00  0.00    +0.000 C 
ATOM     11  C   UNL     1      63.521  65.685  71.151  0.00  0.00    +0.000 C 
ATOM     12  C   UNL     1      63.776  65.213  70.552  0.00  0.00    +0.000 C 
ATOM     13  C   UNL     1      63.326  64.537  70.443  0.00  0.00    +0.000 C 
ATOM     14  O   UNL     1      63.535  64.009  69.844  0.00  0.00    +0.000 OA
ATOM     15  C   UNL     1      62.656  64.364  70.923  0.00  0.00    +0.000 C 
ATOM     16  O   UNL     1      62.120  63.726  70.921  0.00  0.00    +0.000 OA
ATOM     17  C   UNL     1      61.542  63.819  71.523  0.00  0.00    +0.000 A 
ATOM     18  C   UNL     1      61.775  64.531  71.858  0.00  0.00    +0.000 A 
ATOM     19  C   UNL     1      62.481  64.944  71.531  0.00  0.00    +0.000 C 
ATOM     20  C   UNL     1      63.162  65.723  71.509  0.00  0.00    +0.000 C 
ATOM     21  C   UNL     1      63.275  66.475  71.986  0.00  0.00    +0.000 C 
ATOM     22  N   UNL     1      62.690  66.518  72.555  0.00  0.00    +0.000 NA
ATOM     23  C   UNL     1      62.576  67.110  73.117  0.00  0.00    +0.000 C 
ENDROOT
TORSDOF 0
ENDMDL
MODEL 8
REMARK VINA RESULT:   -10.478      3.530      3.888
REMARK INTER + INTRA:         -10.478
REMARK INTER:                 -10.478
REMARK INTRA:                   0.000
REMARK UNBOUND:                 0.000
ROOT
REMARK  Name = ethylmorphine
REMARK                            x       y       z     vdW  Elec       q    Type
REMARK                         _______ _______ _______ _____ _____    ______ ____
ATOM      1  C   UNL     1      59.468  66.703  69.185  0.00  0.00    +0.000 C 
ATOM      2  C   UNL     1      59.754  65.995  69.497  0.00  0.00    +0.000 C 
ATOM      3  O   UNL     1      59.841  65.335  69.009  0.00  0.00    +0.000 OA
ATOM      4  C   UNL     1      60.127  64.626  69.320  0.00  0.00    +0.000 A 
ATOM      5  C   UNL     1      60.210  63.965  68.813  0.00  0.00    +0.000 A 
ATOM      6  C   UNL     1      60.496  63.253  69.119  0.00  0.00    +0.000 A 
ATOM      7  C   UNL     1      60.690  63.223  69.925  0.00  0.00    +0.000 A 
ATOM      8  C   UNL     1      60.968  62.525  70.217  0.00  0.00    +0.000 C 
ATOM      9  C   UNL     1      61.139  62.567  71.017  0.00  0.00    +0.000 C 
ATOM     10  C   UNL     1      61.032  63.357  71.592  0.00  0.00    +0.000 C 
ATOM     11  C   UNL     1      61.189  63.560  72.543  0.00  0.00    +0.000 C 
ATOM     12  C   UNL     1      61.039  64.289  72.848  0.00  0.00    +0.000 C 
ATOM     13  C   UNL     1      60.750  64.827  72.301  0.00  0.00    +0.000 C 
ATOM     14  O   UNL     1      60.575  65.595  72.548  0.00  0.00    +0.000 OA
ATOM     15  C   UNL     1      60.627  64.622  71.494  0.00  0.00    +0.000 C 
ATOM     16  O   UNL     1      60.345  65.061  70.844  0.00  0.00    +0.000 OA
ATOM     17  C   UNL     1      60.328  64.590  70.149  0.00  0.00    +0.000 A 
ATOM     18  C   UNL     1      60.610  63.875  70.435  0.00  0.00    +0.000 A 
ATOM     19  C   UNL     1      60.825  63.812  71.287  0.00  0.00    +0.000 C 
ATOM     20  C   UNL     1      61.171  63.292  72.112  0.00  0.00    +0.000 C 
ATOM     21  C   UNL     1      61.457  62.452  72.253  0.00  0.00    +0.000 C 
ATOM     22  N   UNL     1      61.421  62.039  71.550  0.00  0.00    +0.000 NA
ATOM     23  C   UNL     1      61.628  61.252  71.416  0.00  0.00    +0.000 C 
ENDROOT
TORSDOF 0
ENDMDL
MODEL 9
REMARK VINA RESULT:   -10.293      2.373      3.669
REMARK INTER + INTRA:         -10.293
REMARK INTER:                 -10.293
REMARK INTRA:                   0.000
REMARK UNBOUND:                 0.000
ROOT
REMARK  Name = ethylmorphine
REMARK                            x       y       z     vdW  Elec       q    Type
REMARK                         _______ _______ _______ _____ _____    ______ ____
ATOM      1  C   UNL     1      63.203  66.165  72.079  0.00  0.00    +0.000 C 
ATOM      2  C   UNL     1      62.829  65.590  71.620  0.00  0.00    +0.000 C 
ATOM      3  O   UNL     1      62.728  65.710  70.810  0.00  0.00    +0.000 OA
ATOM      4  C   UNL     1      62.354  65.136  70.350  0.00  0.00    +0.000 A 
ATOM      5  C   UNL     1      62.259  65.271  69.530  0.00  0.00    +0.000 A 
ATOM      6  C   UNL     1      61.885  64.699  69.065  0.00  0.00    +0.000 A 
ATOM      7  C   UNL     1      61.616  64.008  69.436  0.00  0.00    +0.000 A 
ATOM      8  C   UNL     1      61.252  63.454  68.977  0.00  0.00    +0.000 C 
ATOM      9  C   UNL     1      61.013  62.799  69.407  0.00  0.00    +0.000 C 
ATOM     10  C   UNL     1      61.137  62.663  70.373  0.00  0.00    +0.000 C 
ATOM     11  C   UNL     1      60.912  61.952  71.016  0.00  0.00    +0.000 C 
ATOM     12  C   UNL     1      61.098  62.017  71.796  0.00  0.00    +0.000 C 
ATOM     13  C   UNL     1      61.481  62.715  71.992  0.00  0.00    +0.000 C 
ATOM     14  O   UNL     1      61.700  62.845  72.777  0.00  0.00    +0.000 OA
ATOM     15  C   UNL     1      61.659  63.303  71.417  0.00  0.00    +0.000 C 
ATOM     16  O   UNL     1      62.036  64.044  71.476  0.00  0.00    +0.000 OA
ATOM     17  C   UNL     1      62.075  64.422  70.728  0.00  0.00    +0.000 A 
ATOM     18  C   UNL     1      61.707  63.866  70.250  0.00  0.00    +0.000 A 
ATOM     19  C   UNL     1      61.411  63.121  70.615  0.00  0.00    +0.000 C 
ATOM     20  C   UNL     1      60.946  62.197  70.573  0.00  0.00    +0.000 C 
ATOM     21  C   UNL     1      60.575  61.708  69.917  0.00  0.00    +0.000 C 
ATOM     22  N   UNL     1      60.639  62.118  69.213  0.00  0.00    +0.000 NA
ATOM     23  C   UNL     1      60.376  61.884  68.467  0.00  0.00    +0.000 C 
ENDROOT
TORSDOF 0
ENDMDL
