MODEL 1
REMARK VINA RESULT:   -12.023      0.000      0.000
REMARK INTER + INTRA:         -12.023
REMARK INTER:                 -12.023
REMARK INTRA:                   0.000
REMARK UNBOUND:                 0.000
ROOT
REMARK  Name = ethyl loflazepate
REMARK                            x       y       z     vdW  Elec       q    Type
REMARK                         _______ _______ _______ _____ _____    ______ ____
ATOM      1  C   UNL     1      59.295  67.627  71.348  0.00  0.00    +0.000 C 
ATOM      2  C   UNL     1      59.381  66.983  70.839  0.00  0.00    +0.000 C 
ATOM      3  O   UNL     1      59.716  66.282  71.115  0.00  0.00    +0.000 OA
ATOM      4  C   UNL     1      59.802  65.638  70.606  0.00  0.00    +0.000 C 
ATOM      5  O   UNL     1      59.554  65.696  69.822  0.00  0.00    +0.000 OA
ATOM      6  C   UNL     1      60.136  64.936  70.882  0.00  0.00    +0.000 C 
ATOM      7  N   UNL     1      60.197  64.327  70.329  0.00  0.00    +0.000 NA
ATOM      8  C   UNL     1      60.502  63.568  70.432  0.00  0.00    +0.000 C 
ATOM      9  C   UNL     1      60.822  63.230  71.114  0.00  0.00    +0.000 A 
ATOM     10  C   UNL     1      61.065  62.453  70.979  0.00  0.00    +0.000 A 
ATOM     11  C   UNL     1      61.402  62.015  71.592  0.00  0.00    +0.000 A 
ATOM     12 CL   UNL     1      61.645  61.237  71.457  0.00  0.00    +0.000 Cl
ATOM     13  C   UNL     1      61.495  62.353  72.338  0.00  0.00    +0.000 A 
ATOM     14  C   UNL     1      61.252  63.129  72.472  0.00  0.00    +0.000 A 
ATOM     15  C   UNL     1      60.916  63.568  71.860  0.00  0.00    +0.000 A 
ATOM     16  N   UNL     1      60.713  64.328  72.110  0.00  0.00    +0.000 NA
ATOM     17  C   UNL     1      60.366  64.936  71.674  0.00  0.00    +0.000 C 
ATOM     18  O   UNL     1      60.231  65.638  72.087  0.00  0.00    +0.000 OA
ATOM     19  C   UNL     1      60.486  63.082  69.766  0.00  0.00    +0.000 A 
ATOM     20  C   UNL     1      60.177  63.366  69.056  0.00  0.00    +0.000 A 
ATOM     21  F   UNL     1      59.885  64.136  69.012  0.00  0.00    +0.000 F 
ATOM     22  C   UNL     1      60.160  62.880  68.389  0.00  0.00    +0.000 A 
ATOM     23  C   UNL     1      60.452  62.110  68.432  0.00  0.00    +0.000 A 
ATOM     24  C   UNL     1      60.761  61.825  69.142  0.00  0.00    +0.000 A 
ATOM     25  C   UNL     1      60.778  62.312  69.809  0.00  0.00    +0.000 A 
ENDROOT
TORSDOF 0
ENDMDL
MODEL 2
REMARK VINA RESULT:   -12.016      1.824      3.531
REMARK INTER + INTRA:         -12.016
REMARK INTER:                 -12.016
REMARK INTRA:                   0.000
REMARK UNBOUND:                 0.000
ROOT
REMARK  Name = ethyl loflazepate
REMARK                            x       y       z     vdW  Elec       q    Type
REMARK                         _______ _______ _______ _____ _____    ______ ____
ATOM      1  C   UNL     1      59.889  62.403  66.699  0.00  0.00    +0.000 C 
ATOM      2  C   UNL     1      60.198  62.178  67.430  0.00  0.00    +0.000 C 
ATOM      3  O   UNL     1      60.150  62.690  68.074  0.00  0.00    +0.000 OA
ATOM      4  C   UNL     1      60.460  62.464  68.805  0.00  0.00    +0.000 C 
ATOM      5  O   UNL     1      60.817  61.726  68.891  0.00  0.00    +0.000 OA
ATOM      6  C   UNL     1      60.412  62.976  69.450  0.00  0.00    +0.000 C 
ATOM      7  N   UNL     1      60.738  62.697  70.154  0.00  0.00    +0.000 NA
ATOM      8  C   UNL     1      60.778  63.072  70.887  0.00  0.00    +0.000 C 
ATOM      9  C   UNL     1      60.500  63.821  71.097  0.00  0.00    +0.000 A 
ATOM     10  C   UNL     1      60.651  63.986  71.892  0.00  0.00    +0.000 A 
ATOM     11  C   UNL     1      60.417  64.708  72.214  0.00  0.00    +0.000 A 
ATOM     12 CL   UNL     1      60.568  64.874  73.008  0.00  0.00    +0.000 Cl
ATOM     13  C   UNL     1      60.032  65.265  71.742  0.00  0.00    +0.000 A 
ATOM     14  C   UNL     1      59.881  65.100  70.949  0.00  0.00    +0.000 A 
ATOM     15  C   UNL     1      60.115  64.378  70.626  0.00  0.00    +0.000 A 
ATOM     16  N   UNL     1      59.912  64.324  69.828  0.00  0.00    +0.000 NA
ATOM     17  C   UNL     1      60.045  63.700  69.305  0.00  0.00    +0.000 C 
ATOM     18  O   UNL     1      59.773  63.817  68.534  0.00  0.00    +0.000 OA
ATOM     19  C   UNL     1      61.142  62.644  71.490  0.00  0.00    +0.000 A 
ATOM     20  C   UNL     1      61.439  61.889  71.338  0.00  0.00    +0.000 A 
ATOM     21  F   UNL     1      61.371  61.564  70.584  0.00  0.00    +0.000 F 
ATOM     22  C   UNL     1      61.804  61.460  71.942  0.00  0.00    +0.000 A 
ATOM     23  C   UNL     1      61.872  61.786  72.697  0.00  0.00    +0.000 A 
ATOM     24  C   UNL     1      61.575  62.540  72.849  0.00  0.00    +0.000 A 
ATOM     25  C   UNL     1      61.210  62.969  72.245  0.00  0.00    +0.000 A 
ENDROOT
TORSDOF 0
ENDMDL
MODEL 3
REMARK VINA RESULT:   -12.003      2.588      3.639
REMARK INTER + INTRA:         -12.003
REMARK INTER:                 -12.003
REMARK INTRA:                   0.000
REMARK UNBOUND:                 0.000
ROOT
REMARK  Name = ethyl loflazepate
REMARK                            x       y       z     vdW  Elec       q    Type
REMARK                         _______ _______ _______ _____ _____    ______ ____
ATOM      1  C   UNL     1      60.090  62.002  65.998  0.00  0.00    +0.000 C 
ATOM      2  C   UNL     1      60.581  62.471  66.467  0.00  0.00    +0.000 C 
ATOM      3  O   UNL     1      60.577  62.382  67.287  0.00  0.00    +0.000 OA
ATOM      4  C   UNL     1      61.068  62.852  67.755  0.00  0.00    +0.000 C 
ATOM      5  O   UNL     1      61.563  63.410  67.403  0.00  0.00    +0.000 OA
ATOM      6  C   UNL     1      61.064  62.764  68.575  0.00  0.00    +0.000 C 
ATOM      7  N   UNL     1      61.575  63.260  68.991  0.00  0.00    +0.000 NA
ATOM      8  C   UNL     1      61.698  63.306  69.805  0.00  0.00    +0.000 C 
ATOM      9  C   UNL     1      61.339  62.866  70.405  0.00  0.00    +0.000 A 
ATOM     10  C   UNL     1      61.621  63.086  71.149  0.00  0.00    +0.000 A 
ATOM     11  C   UNL     1      61.333  62.712  71.826  0.00  0.00    +0.000 A 
ATOM     12 CL   UNL     1      61.614  62.933  72.570  0.00  0.00    +0.000 Cl
ATOM     13  C   UNL     1      60.763  62.119  71.759  0.00  0.00    +0.000 A 
ATOM     14  C   UNL     1      60.483  61.899  71.015  0.00  0.00    +0.000 A 
ATOM     15  C   UNL     1      60.770  62.272  70.338  0.00  0.00    +0.000 A 
ATOM     16  N   UNL     1      60.419  61.972  69.655  0.00  0.00    +0.000 NA
ATOM     17  C   UNL     1      60.550  62.191  68.871  0.00  0.00    +0.000 C 
ATOM     18  O   UNL     1      60.107  61.781  68.307  0.00  0.00    +0.000 OA
ATOM     19  C   UNL     1      62.252  63.864  70.053  0.00  0.00    +0.000 A 
ATOM     20  C   UNL     1      62.642  64.333  69.498  0.00  0.00    +0.000 A 
ATOM     21  F   UNL     1      62.478  64.243  68.694  0.00  0.00    +0.000 F 
ATOM     22  C   UNL     1      63.196  64.892  69.746  0.00  0.00    +0.000 A 
ATOM     23  C   UNL     1      63.360  64.982  70.549  0.00  0.00    +0.000 A 
ATOM     24  C   UNL     1      62.970  64.514  71.105  0.00  0.00    +0.000 A 
ATOM     25  C   UNL     1      62.415  63.954  70.857  0.00  0.00    +0.000 A 
ENDROOT
TORSDOF 0
ENDMDL
MODEL 4
REMARK VINA RESULT:   -11.615      1.017      2.426
REMARK INTER + INTRA:         -11.615
REMARK INTER:                 -11.615
REMARK INTRA:                   0.000
REMARK UNBOUND:                 0.000
ROOT
REMARK  Name = ethyl loflazepate
REMARK                            x       y       z     vdW  Elec       q    Type
REMARK                         _______ _______ _______ _____ _____    ______ ____
ATOM      1  C   UNL     1      59.060  67.633  71.443  0.00  0.00    +0.000 C 
ATOM      2  C   UNL     1      59.412  66.930  71.691  0.00  0.00    +0.000 C 
ATOM      3  O   UNL     1      59.538  66.319  71.151  0.00  0.00    +0.000 OA
ATOM      4  C   UNL     1      59.890  65.615  71.400  0.00  0.00    +0.000 C 
ATOM      5  O   UNL     1      60.115  65.522  72.188  0.00  0.00    +0.000 OA
ATOM      6  C   UNL     1      60.016  65.004  70.861  0.00  0.00    +0.000 C 
ATOM      7  N   UNL     1      60.371  64.325  71.165  0.00  0.00    +0.000 NA
ATOM      8  C   UNL     1      60.568  63.627  70.773  0.00  0.00    +0.000 C 
ATOM      9  C   UNL     1      60.459  63.436  69.977  0.00  0.00    +0.000 A 
ATOM     10  C   UNL     1      60.735  62.676  69.809  0.00  0.00    +0.000 A 
ATOM     11  C   UNL     1      60.677  62.377  69.043  0.00  0.00    +0.000 A 
ATOM     12 CL   UNL     1      60.953  61.618  68.874  0.00  0.00    +0.000 Cl
ATOM     13  C   UNL     1      60.344  62.837  68.444  0.00  0.00    +0.000 A 
ATOM     14  C   UNL     1      60.068  63.596  68.612  0.00  0.00    +0.000 A 
ATOM     15  C   UNL     1      60.125  63.896  69.379  0.00  0.00    +0.000 A 
ATOM     16  N   UNL     1      59.819  64.660  69.428  0.00  0.00    +0.000 NA
ATOM     17  C   UNL     1      59.770  65.153  70.087  0.00  0.00    +0.000 C 
ATOM     18  O   UNL     1      59.430  65.893  69.955  0.00  0.00    +0.000 OA
ATOM     19  C   UNL     1      60.922  63.043  71.236  0.00  0.00    +0.000 A 
ATOM     20  C   UNL     1      61.056  63.178  72.038  0.00  0.00    +0.000 A 
ATOM     21  F   UNL     1      60.837  63.897  72.378  0.00  0.00    +0.000 F 
ATOM     22  C   UNL     1      61.409  62.593  72.502  0.00  0.00    +0.000 A 
ATOM     23  C   UNL     1      61.628  61.874  72.163  0.00  0.00    +0.000 A 
ATOM     24  C   UNL     1      61.494  61.739  71.360  0.00  0.00    +0.000 A 
ATOM     25  C   UNL     1      61.140  62.323  70.896  0.00  0.00    +0.000 A 
ENDROOT
TORSDOF 0
ENDMDL
MODEL 5
REMARK VINA RESULT:   -11.517      3.766      5.005
REMARK INTER + INTRA:         -11.517
REMARK INTER:                 -11.517
REMARK INTRA:                   0.000
REMARK UNBOUND:                 0.000
ROOT
REMARK  Name = ethyl loflazepate
REMARK                            x       y       z     vdW  Elec       q    Type
REMARK                         _______ _______ _______ _____ _____    ______ ____
ATOM      1  C   UNL     1      60.953  62.681  71.452  0.00  0.00    +0.000 C 
ATOM      2  C   UNL     1      61.627  63.134  71.302  0.00  0.00    +0.000 C 
ATOM      3  O   UNL     1      61.686  63.899  71.606  0.00  0.00    +0.000 OA
ATOM      4  C   UNL     1      62.360  64.350  71.455  0.00  0.00    +0.000 C 
ATOM      5  O   UNL     1      62.974  64.038  71.003  0.00  0.00    +0.000 OA
ATOM      6  C   UNL     1      62.419  65.115  71.758  0.00  0.00    +0.000 C 
ATOM      7  N   UNL     1      63.115  65.520  71.576  0.00  0.00    +0.000 NA
ATOM      8  C   UNL     1      63.339  66.283  71.794  0.00  0.00    +0.000 C 
ATOM      9  C   UNL     1      62.921  66.831  72.249  0.00  0.00    +0.000 A 
ATOM     10  C   UNL     1      63.344  67.534  72.337  0.00  0.00    +0.000 A 
ATOM     11  C   UNL     1      63.024  68.156  72.774  0.00  0.00    +0.000 A 
ATOM     12 CL   UNL     1      63.447  68.859  72.862  0.00  0.00    +0.000 Cl
ATOM     13  C   UNL     1      62.280  68.076  73.122  0.00  0.00    +0.000 A 
ATOM     14  C   UNL     1      61.857  67.374  73.033  0.00  0.00    +0.000 A 
ATOM     15  C   UNL     1      62.177  66.751  72.597  0.00  0.00    +0.000 A 
ATOM     16  N   UNL     1      61.667  66.103  72.577  0.00  0.00    +0.000 NA
ATOM     17  C   UNL     1      61.775  65.375  72.203  0.00  0.00    +0.000 C 
ATOM     18  O   UNL     1      61.156  64.836  72.287  0.00  0.00    +0.000 OA
ATOM     19  C   UNL     1      64.077  66.532  71.523  0.00  0.00    +0.000 A 
ATOM     20  C   UNL     1      64.539  66.025  71.064  0.00  0.00    +0.000 A 
ATOM     21  F   UNL     1      64.263  65.271  70.877  0.00  0.00    +0.000 F 
ATOM     22  C   UNL     1      65.278  66.274  70.791  0.00  0.00    +0.000 A 
ATOM     23  C   UNL     1      65.553  67.029  70.978  0.00  0.00    +0.000 A 
ATOM     24  C   UNL     1      65.091  67.535  71.437  0.00  0.00    +0.000 A 
ATOM     25  C   UNL     1      64.352  67.286  71.710  0.00  0.00    +0.000 A 
ENDROOT
TORSDOF 0
ENDMDL
MODEL 6
REMARK VINA RESULT:   -11.473      2.383      2.578
REMARK INTER + INTRA:         -11.473
REMARK INTER:                 -11.473
REMARK INTRA:                   0.000
REMARK UNBOUND:                 0.000
ROOT
REMARK  Name = ethyl loflazepate
REMARK                            x       y       z     vdW  Elec       q    Type
REMARK                         _______ _______ _______ _____ _____    ______ ____
ATOM      1  C   UNL     1      64.931  66.532  70.406  0.00  0.00    +0.000 C 
ATOM      2  C   UNL     1      64.436  66.061  69.944  0.00  0.00    +0.000 C 
ATOM      3  O   UNL     1      63.905  65.543  70.304  0.00  0.00    +0.000 OA
ATOM      4  C   UNL     1      63.409  65.073  69.841  0.00  0.00    +0.000 C 
ATOM      5  O   UNL     1      63.444  65.121  69.019  0.00  0.00    +0.000 OA
ATOM      6  C   UNL     1      62.878  64.554  70.201  0.00  0.00    +0.000 C 
ATOM      7  N   UNL     1      62.408  64.110  69.689  0.00  0.00    +0.000 NA
ATOM      8  C   UNL     1      61.832  63.550  69.875  0.00  0.00    +0.000 C 
ATOM      9  C   UNL     1      61.582  63.297  70.620  0.00  0.00    +0.000 A 
ATOM     10  C   UNL     1      60.989  62.726  70.560  0.00  0.00    +0.000 A 
ATOM     11  C   UNL     1      60.662  62.399  71.243  0.00  0.00    +0.000 A 
ATOM     12 CL   UNL     1      60.069  61.827  71.184  0.00  0.00    +0.000 Cl
ATOM     13  C   UNL     1      60.928  62.642  71.986  0.00  0.00    +0.000 A 
ATOM     14  C   UNL     1      61.520  63.213  72.044  0.00  0.00    +0.000 A 
ATOM     15  C   UNL     1      61.848  63.540  71.362  0.00  0.00    +0.000 A 
ATOM     16  N   UNL     1      62.429  64.097  71.542  0.00  0.00    +0.000 NA
ATOM     17  C   UNL     1      62.887  64.548  71.026  0.00  0.00    +0.000 C 
ATOM     18  O   UNL     1      63.426  65.062  71.383  0.00  0.00    +0.000 OA
ATOM     19  C   UNL     1      61.454  63.197  69.232  0.00  0.00    +0.000 A 
ATOM     20  C   UNL     1      61.663  63.412  68.463  0.00  0.00    +0.000 A 
ATOM     21  F   UNL     1      62.249  63.979  68.338  0.00  0.00    +0.000 F 
ATOM     22  C   UNL     1      61.285  63.059  67.819  0.00  0.00    +0.000 A 
ATOM     23  C   UNL     1      60.700  62.492  67.945  0.00  0.00    +0.000 A 
ATOM     24  C   UNL     1      60.491  62.277  68.713  0.00  0.00    +0.000 A 
ATOM     25  C   UNL     1      60.869  62.630  69.357  0.00  0.00    +0.000 A 
ENDROOT
TORSDOF 0
ENDMDL
MODEL 7
REMARK VINA RESULT:   -11.431      2.808      3.696
REMARK INTER + INTRA:         -11.431
REMARK INTER:                 -11.431
REMARK INTRA:                   0.000
REMARK UNBOUND:                 0.000
ROOT
REMARK  Name = ethyl loflazepate
REMARK                            x       y       z     vdW  Elec       q    Type
REMARK                         _______ _______ _______ _____ _____    ______ ____
ATOM      1  C   UNL     1      65.365  66.825  70.044  0.00  0.00    +0.000 C 
ATOM      2  C   UNL     1      64.862  66.381  70.525  0.00  0.00    +0.000 C 
ATOM      3  O   UNL     1      64.314  65.866  70.185  0.00  0.00    +0.000 OA
ATOM      4  C   UNL     1      63.812  65.423  70.667  0.00  0.00    +0.000 C 
ATOM      5  O   UNL     1      63.857  65.494  71.487  0.00  0.00    +0.000 OA
ATOM      6  C   UNL     1      63.264  64.908  70.328  0.00  0.00    +0.000 C 
ATOM      7  N   UNL     1      62.789  64.491  70.857  0.00  0.00    +0.000 NA
ATOM      8  C   UNL     1      62.196  63.941  70.694  0.00  0.00    +0.000 C 
ATOM      9  C   UNL     1      61.933  63.672  69.959  0.00  0.00    +0.000 A 
ATOM     10  C   UNL     1      61.326  63.118  70.041  0.00  0.00    +0.000 A 
ATOM     11  C   UNL     1      60.984  62.780  69.371  0.00  0.00    +0.000 A 
ATOM     12 CL   UNL     1      60.377  62.226  69.453  0.00  0.00    +0.000 Cl
ATOM     13  C   UNL     1      61.248  62.995  68.620  0.00  0.00    +0.000 A 
ATOM     14  C   UNL     1      61.854  63.548  68.538  0.00  0.00    +0.000 A 
ATOM     15  C   UNL     1      62.197  63.887  69.208  0.00  0.00    +0.000 A 
ATOM     16  N   UNL     1      62.789  64.423  69.005  0.00  0.00    +0.000 NA
ATOM     17  C   UNL     1      63.264  64.878  69.503  0.00  0.00    +0.000 C 
ATOM     18  O   UNL     1      63.812  65.367  69.126  0.00  0.00    +0.000 OA
ATOM     19  C   UNL     1      61.817  63.617  71.351  0.00  0.00    +0.000 A 
ATOM     20  C   UNL     1      62.039  63.849  72.111  0.00  0.00    +0.000 A 
ATOM     21  F   UNL     1      62.640  64.404  72.214  0.00  0.00    +0.000 F 
ATOM     22  C   UNL     1      61.659  63.524  72.768  0.00  0.00    +0.000 A 
ATOM     23  C   UNL     1      61.058  62.969  72.665  0.00  0.00    +0.000 A 
ATOM     24  C   UNL     1      60.836  62.737  71.905  0.00  0.00    +0.000 A 
ATOM     25  C   UNL     1      61.216  63.062  71.248  0.00  0.00    +0.000 A 
ENDROOT
TORSDOF 0
ENDMDL
MODEL 8
REMARK VINA RESULT:   -11.018      3.451      4.295
REMARK INTER + INTRA:         -11.018
REMARK INTER:                 -11.018
REMARK INTRA:                   0.000
REMARK UNBOUND:                 0.000
ROOT
REMARK  Name = ethyl loflazepate
REMARK                            x       y       z     vdW  Elec       q    Type
REMARK                         _______ _______ _______ _____ _____    ______ ____
ATOM      1  C   UNL     1      59.337  66.909  73.221  0.00  0.00    +0.000 C 
ATOM      2  C   UNL     1      60.132  67.087  73.096  0.00  0.00    +0.000 C 
ATOM      3  O   UNL     1      60.597  66.592  72.628  0.00  0.00    +0.000 OA
ATOM      4  C   UNL     1      61.393  66.770  72.503  0.00  0.00    +0.000 C 
ATOM      5  O   UNL     1      61.724  67.444  72.846  0.00  0.00    +0.000 OA
ATOM      6  C   UNL     1      61.859  66.275  72.036  0.00  0.00    +0.000 C 
ATOM      7  N   UNL     1      62.646  66.503  71.946  0.00  0.00    +0.000 NA
ATOM      8  C   UNL     1      63.245  66.130  71.518  0.00  0.00    +0.000 C 
ATOM      9  C   UNL     1      63.202  65.435  71.074  0.00  0.00    +0.000 A 
ATOM     10  C   UNL     1      63.931  65.252  70.732  0.00  0.00    +0.000 A 
ATOM     11  C   UNL     1      64.008  64.577  70.264  0.00  0.00    +0.000 A 
ATOM     12 CL   UNL     1      64.737  64.394  69.922  0.00  0.00    +0.000 Cl
ATOM     13  C   UNL     1      63.358  64.085  70.139  0.00  0.00    +0.000 A 
ATOM     14  C   UNL     1      62.631  64.268  70.481  0.00  0.00    +0.000 A 
ATOM     15  C   UNL     1      62.552  64.943  70.949  0.00  0.00    +0.000 A 
ATOM     16  N   UNL     1      61.783  65.024  71.236  0.00  0.00    +0.000 NA
ATOM     17  C   UNL     1      61.475  65.617  71.720  0.00  0.00    +0.000 C 
ATOM     18  O   UNL     1      60.676  65.540  71.913  0.00  0.00    +0.000 OA
ATOM     19  C   UNL     1      63.982  66.499  71.537  0.00  0.00    +0.000 A 
ATOM     20  C   UNL     1      64.083  67.197  71.965  0.00  0.00    +0.000 A 
ATOM     21  F   UNL     1      63.447  67.525  72.375  0.00  0.00    +0.000 F 
ATOM     22  C   UNL     1      64.821  67.566  71.983  0.00  0.00    +0.000 A 
ATOM     23  C   UNL     1      65.457  67.238  71.574  0.00  0.00    +0.000 A 
ATOM     24  C   UNL     1      65.356  66.540  71.145  0.00  0.00    +0.000 A 
ATOM     25  C   UNL     1      64.618  66.170  71.127  0.00  0.00    +0.000 A 
ENDROOT
TORSDOF 0
ENDMDL
MODEL 9
REMARK VINA RESULT:   -10.496      2.126      4.191
REMARK INTER + INTRA:         -10.496
REMARK INTER:                 -10.496
REMARK INTRA:                   0.000
REMARK UNBOUND:                 0.000
ROOT
REMARK  Name = ethyl loflazepate
REMARK                            x       y       z     vdW  Elec       q    Type
REMARK                         _______ _______ _______ _____ _____    ______ ____
ATOM      1  C   UNL     1      60.196  61.890  67.876  0.00  0.00    +0.000 C 
ATOM      2  C   UNL     1      60.482  62.202  68.584  0.00  0.00    +0.000 C 
ATOM      3  O   UNL     1      60.325  62.987  68.782  0.00  0.00    +0.000 OA
ATOM      4  C   UNL     1      60.612  63.298  69.491  0.00  0.00    +0.000 C 
ATOM      5  O   UNL     1      61.055  62.825  70.000  0.00  0.00    +0.000 OA
ATOM      6  C   UNL     1      60.454  64.083  69.690  0.00  0.00    +0.000 C 
ATOM      7  N   UNL     1      60.766  64.339  70.409  0.00  0.00    +0.000 NA
ATOM      8  C   UNL     1      60.706  65.084  70.760  0.00  0.00    +0.000 C 
ATOM      9  C   UNL     1      60.320  65.756  70.476  0.00  0.00    +0.000 A 
ATOM     10  C   UNL     1      60.395  66.389  71.000  0.00  0.00    +0.000 A 
ATOM     11  C   UNL     1      60.047  67.116  70.820  0.00  0.00    +0.000 A 
ATOM     12 CL   UNL     1      60.122  67.749  71.345  0.00  0.00    +0.000 Cl
ATOM     13  C   UNL     1      59.626  67.209  70.118  0.00  0.00    +0.000 A 
ATOM     14  C   UNL     1      59.551  66.576  69.594  0.00  0.00    +0.000 A 
ATOM     15  C   UNL     1      59.898  65.849  69.773  0.00  0.00    +0.000 A 
ATOM     16  N   UNL     1      59.759  65.294  69.180  0.00  0.00    +0.000 NA
ATOM     17  C   UNL     1      60.006  64.508  69.143  0.00  0.00    +0.000 C 
ATOM     18  O   UNL     1      59.774  64.092  68.469  0.00  0.00    +0.000 OA
ATOM     19  C   UNL     1      61.082  65.168  71.489  0.00  0.00    +0.000 A 
ATOM     20  C   UNL     1      61.484  64.528  71.821  0.00  0.00    +0.000 A 
ATOM     21  F   UNL     1      61.510  63.806  71.424  0.00  0.00    +0.000 F 
ATOM     22  C   UNL     1      61.860  64.612  72.552  0.00  0.00    +0.000 A 
ATOM     23  C   UNL     1      61.834  65.335  72.948  0.00  0.00    +0.000 A 
ATOM     24  C   UNL     1      61.432  65.974  72.616  0.00  0.00    +0.000 A 
ATOM     25  C   UNL     1      61.056  65.890  71.886  0.00  0.00    +0.000 A 
ENDROOT
TORSDOF 0
ENDMDL
