MODEL 1
REMARK VINA RESULT:    -7.945      0.000      0.000
REMARK INTER + INTRA:          -7.945
REMARK INTER:                  -7.945
REMARK INTRA:                   0.000
REMARK UNBOUND:                 0.000
ROOT
REMARK  Name = etilamfetamine
REMARK                            x       y       z     vdW  Elec       q    Type
REMARK                         _______ _______ _______ _____ _____    ______ ____
ATOM      1  C   UNL     1      61.305  63.328  68.497  0.00  0.00    +0.000 C 
ATOM      2  C   UNL     1      61.125  62.912  67.807  0.00  0.00    +0.000 C 
ATOM      3  N   UNL     1      61.665  62.896  67.184  0.00  0.00    +0.000 NA
ATOM      4  C   UNL     1      61.485  62.480  66.494  0.00  0.00    +0.000 C 
ATOM      5  C   UNL     1      60.767  62.081  66.429  0.00  0.00    +0.000 C 
ATOM      6  C   UNL     1      62.025  62.464  65.870  0.00  0.00    +0.000 C 
ATOM      7  C   UNL     1      61.845  62.048  65.181  0.00  0.00    +0.000 A 
ATOM      8  C   UNL     1      62.385  62.032  64.556  0.00  0.00    +0.000 A 
ATOM      9  C   UNL     1      62.205  61.616  63.867  0.00  0.00    +0.000 A 
ATOM     10  C   UNL     1      61.487  61.217  63.802  0.00  0.00    +0.000 A 
ATOM     11  C   UNL     1      60.948  61.233  64.425  0.00  0.00    +0.000 A 
ATOM     12  C   UNL     1      61.127  61.649  65.115  0.00  0.00    +0.000 A 
ENDROOT
TORSDOF 0
ENDMDL
MODEL 2
REMARK VINA RESULT:    -7.211      1.040      3.154
REMARK INTER + INTRA:          -7.211
REMARK INTER:                  -7.211
REMARK INTRA:                   0.000
REMARK UNBOUND:                 0.000
ROOT
REMARK  Name = etilamfetamine
REMARK                            x       y       z     vdW  Elec       q    Type
REMARK                         _______ _______ _______ _____ _____    ______ ____
ATOM      1  C   UNL     1      62.754  61.630  63.400  0.00  0.00    +0.000 C 
ATOM      2  C   UNL     1      62.115  61.673  63.921  0.00  0.00    +0.000 C 
ATOM      3  N   UNL     1      62.230  61.939  64.693  0.00  0.00    +0.000 NA
ATOM      4  C   UNL     1      61.591  61.983  65.213  0.00  0.00    +0.000 C 
ATOM      5  C   UNL     1      60.839  61.761  64.961  0.00  0.00    +0.000 C 
ATOM      6  C   UNL     1      61.706  62.249  65.986  0.00  0.00    +0.000 C 
ATOM      7  C   UNL     1      61.067  62.292  66.506  0.00  0.00    +0.000 A 
ATOM      8  C   UNL     1      61.182  62.558  67.279  0.00  0.00    +0.000 A 
ATOM      9  C   UNL     1      60.543  62.602  67.799  0.00  0.00    +0.000 A 
ATOM     10  C   UNL     1      59.791  62.380  67.547  0.00  0.00    +0.000 A 
ATOM     11  C   UNL     1      59.675  62.114  66.775  0.00  0.00    +0.000 A 
ATOM     12  C   UNL     1      60.315  62.070  66.254  0.00  0.00    +0.000 A 
ENDROOT
TORSDOF 0
ENDMDL
MODEL 3
REMARK VINA RESULT:    -7.015      3.117      6.030
REMARK INTER + INTRA:          -7.015
REMARK INTER:                  -7.015
REMARK INTRA:                   0.000
REMARK UNBOUND:                 0.000
ROOT
REMARK  Name = etilamfetamine
REMARK                            x       y       z     vdW  Elec       q    Type
REMARK                         _______ _______ _______ _____ _____    ______ ____
ATOM      1  C   UNL     1      60.183  62.141  67.988  0.00  0.00    +0.000 C 
ATOM      2  C   UNL     1      60.319  62.513  68.713  0.00  0.00    +0.000 C 
ATOM      3  N   UNL     1      60.634  62.084  69.343  0.00  0.00    +0.000 NA
ATOM      4  C   UNL     1      60.769  62.456  70.067  0.00  0.00    +0.000 C 
ATOM      5  C   UNL     1      60.591  63.255  70.160  0.00  0.00    +0.000 C 
ATOM      6  C   UNL     1      61.084  62.027  70.698  0.00  0.00    +0.000 C 
ATOM      7  C   UNL     1      61.220  62.399  71.421  0.00  0.00    +0.000 A 
ATOM      8  C   UNL     1      61.535  61.970  72.053  0.00  0.00    +0.000 A 
ATOM      9  C   UNL     1      61.671  62.342  72.776  0.00  0.00    +0.000 A 
ATOM     10  C   UNL     1      61.493  63.141  72.869  0.00  0.00    +0.000 A 
ATOM     11  C   UNL     1      61.178  63.570  72.239  0.00  0.00    +0.000 A 
ATOM     12  C   UNL     1      61.042  63.198  71.514  0.00  0.00    +0.000 A 
ENDROOT
TORSDOF 0
ENDMDL
MODEL 4
REMARK VINA RESULT:    -6.893      6.051      7.009
REMARK INTER + INTRA:          -6.893
REMARK INTER:                  -6.893
REMARK INTRA:                   0.000
REMARK UNBOUND:                 0.000
ROOT
REMARK  Name = etilamfetamine
REMARK                            x       y       z     vdW  Elec       q    Type
REMARK                         _______ _______ _______ _____ _____    ______ ____
ATOM      1  C   UNL     1      58.437  66.288  72.531  0.00  0.00    +0.000 C 
ATOM      2  C   UNL     1      59.044  65.739  72.641  0.00  0.00    +0.000 C 
ATOM      3  N   UNL     1      59.107  65.089  72.138  0.00  0.00    +0.000 NA
ATOM      4  C   UNL     1      59.713  64.540  72.248  0.00  0.00    +0.000 C 
ATOM      5  C   UNL     1      60.255  64.642  72.861  0.00  0.00    +0.000 C 
ATOM      6  C   UNL     1      59.777  63.889  71.744  0.00  0.00    +0.000 C 
ATOM      7  C   UNL     1      60.383  63.341  71.855  0.00  0.00    +0.000 A 
ATOM      8  C   UNL     1      60.447  62.690  71.351  0.00  0.00    +0.000 A 
ATOM      9  C   UNL     1      61.054  62.142  71.462  0.00  0.00    +0.000 A 
ATOM     10  C   UNL     1      61.595  62.244  72.075  0.00  0.00    +0.000 A 
ATOM     11  C   UNL     1      61.532  62.894  72.578  0.00  0.00    +0.000 A 
ATOM     12  C   UNL     1      60.925  63.443  72.468  0.00  0.00    +0.000 A 
ENDROOT
TORSDOF 0
ENDMDL
MODEL 5
REMARK VINA RESULT:    -6.804     18.001     18.490
REMARK INTER + INTRA:          -6.804
REMARK INTER:                  -6.804
REMARK INTRA:                   0.000
REMARK UNBOUND:                 0.000
ROOT
REMARK  Name = etilamfetamine
REMARK                            x       y       z     vdW  Elec       q    Type
REMARK                         _______ _______ _______ _____ _____    ______ ____
ATOM      1  C   UNL     1      64.162  81.136  57.839  0.00  0.00    +0.000 C 
ATOM      2  C   UNL     1      64.280  80.387  58.167  0.00  0.00    +0.000 C 
ATOM      3  N   UNL     1      65.019  80.183  58.471  0.00  0.00    +0.000 NA
ATOM      4  C   UNL     1      65.136  79.435  58.798  0.00  0.00    +0.000 C 
ATOM      5  C   UNL     1      64.516  78.892  58.821  0.00  0.00    +0.000 C 
ATOM      6  C   UNL     1      65.876  79.230  59.103  0.00  0.00    +0.000 C 
ATOM      7  C   UNL     1      65.993  78.482  59.430  0.00  0.00    +0.000 A 
ATOM      8  C   UNL     1      66.733  78.277  59.735  0.00  0.00    +0.000 A 
ATOM      9  C   UNL     1      66.850  77.529  60.062  0.00  0.00    +0.000 A 
ATOM     10  C   UNL     1      66.230  76.986  60.085  0.00  0.00    +0.000 A 
ATOM     11  C   UNL     1      65.491  77.191  59.781  0.00  0.00    +0.000 A 
ATOM     12  C   UNL     1      65.373  77.939  59.453  0.00  0.00    +0.000 A 
ENDROOT
TORSDOF 0
ENDMDL
MODEL 6
REMARK VINA RESULT:    -6.796      6.375      7.467
REMARK INTER + INTRA:          -6.796
REMARK INTER:                  -6.796
REMARK INTRA:                   0.000
REMARK UNBOUND:                 0.000
ROOT
REMARK  Name = etilamfetamine
REMARK                            x       y       z     vdW  Elec       q    Type
REMARK                         _______ _______ _______ _____ _____    ______ ____
ATOM      1  C   UNL     1      62.069  64.441  71.831  0.00  0.00    +0.000 C 
ATOM      2  C   UNL     1      62.633  64.806  71.352  0.00  0.00    +0.000 C 
ATOM      3  N   UNL     1      63.140  65.373  71.671  0.00  0.00    +0.000 NA
ATOM      4  C   UNL     1      63.704  65.738  71.192  0.00  0.00    +0.000 C 
ATOM      5  C   UNL     1      63.761  65.535  70.395  0.00  0.00    +0.000 C 
ATOM      6  C   UNL     1      64.211  66.305  71.511  0.00  0.00    +0.000 C 
ATOM      7  C   UNL     1      64.775  66.670  71.032  0.00  0.00    +0.000 A 
ATOM      8  C   UNL     1      65.283  67.237  71.351  0.00  0.00    +0.000 A 
ATOM      9  C   UNL     1      65.846  67.602  70.872  0.00  0.00    +0.000 A 
ATOM     10  C   UNL     1      65.903  67.399  70.075  0.00  0.00    +0.000 A 
ATOM     11  C   UNL     1      65.397  66.832  69.756  0.00  0.00    +0.000 A 
ATOM     12  C   UNL     1      64.832  66.467  70.235  0.00  0.00    +0.000 A 
ENDROOT
TORSDOF 0
ENDMDL
MODEL 7
REMARK VINA RESULT:    -6.666      3.353      4.547
REMARK INTER + INTRA:          -6.666
REMARK INTER:                  -6.666
REMARK INTRA:                   0.000
REMARK UNBOUND:                 0.000
ROOT
REMARK  Name = etilamfetamine
REMARK                            x       y       z     vdW  Elec       q    Type
REMARK                         _______ _______ _______ _____ _____    ______ ____
ATOM      1  C   UNL     1      61.592  62.668  72.920  0.00  0.00    +0.000 C 
ATOM      2  C   UNL     1      61.357  62.922  72.171  0.00  0.00    +0.000 C 
ATOM      3  N   UNL     1      61.212  62.369  71.576  0.00  0.00    +0.000 NA
ATOM      4  C   UNL     1      60.977  62.623  70.827  0.00  0.00    +0.000 C 
ATOM      5  C   UNL     1      60.887  63.427  70.673  0.00  0.00    +0.000 C 
ATOM      6  C   UNL     1      60.832  62.070  70.231  0.00  0.00    +0.000 C 
ATOM      7  C   UNL     1      60.597  62.323  69.482  0.00  0.00    +0.000 A 
ATOM      8  C   UNL     1      60.452  61.770  68.887  0.00  0.00    +0.000 A 
ATOM      9  C   UNL     1      60.216  62.024  68.138  0.00  0.00    +0.000 A 
ATOM     10  C   UNL     1      60.126  62.828  67.984  0.00  0.00    +0.000 A 
ATOM     11  C   UNL     1      60.271  63.381  68.579  0.00  0.00    +0.000 A 
ATOM     12  C   UNL     1      60.507  63.128  69.329  0.00  0.00    +0.000 A 
ENDROOT
TORSDOF 0
ENDMDL
MODEL 8
REMARK VINA RESULT:    -6.654     24.113     24.977
REMARK INTER + INTRA:          -6.654
REMARK INTER:                  -6.654
REMARK INTRA:                   0.000
REMARK UNBOUND:                 0.000
ROOT
REMARK  Name = etilamfetamine
REMARK                            x       y       z     vdW  Elec       q    Type
REMARK                         _______ _______ _______ _____ _____    ______ ____
ATOM      1  C   UNL     1      68.471  80.660  52.104  0.00  0.00    +0.000 C 
ATOM      2  C   UNL     1      69.133  80.537  51.626  0.00  0.00    +0.000 C 
ATOM      3  N   UNL     1      69.153  79.895  51.109  0.00  0.00    +0.000 NA
ATOM      4  C   UNL     1      69.815  79.772  50.631  0.00  0.00    +0.000 C 
ATOM      5  C   UNL     1      70.454  80.291  50.670  0.00  0.00    +0.000 C 
ATOM      6  C   UNL     1      69.835  79.129  50.113  0.00  0.00    +0.000 C 
ATOM      7  C   UNL     1      70.497  79.007  49.636  0.00  0.00    +0.000 A 
ATOM      8  C   UNL     1      70.517  78.364  49.118  0.00  0.00    +0.000 A 
ATOM      9  C   UNL     1      71.179  78.241  48.640  0.00  0.00    +0.000 A 
ATOM     10  C   UNL     1      71.818  78.760  48.679  0.00  0.00    +0.000 A 
ATOM     11  C   UNL     1      71.797  79.402  49.196  0.00  0.00    +0.000 A 
ATOM     12  C   UNL     1      71.136  79.525  49.675  0.00  0.00    +0.000 A 
ENDROOT
TORSDOF 0
ENDMDL
MODEL 9
REMARK VINA RESULT:    -6.463      6.090      7.232
REMARK INTER + INTRA:          -6.463
REMARK INTER:                  -6.463
REMARK INTRA:                   0.000
REMARK UNBOUND:                 0.000
ROOT
REMARK  Name = etilamfetamine
REMARK                            x       y       z     vdW  Elec       q    Type
REMARK                         _______ _______ _______ _____ _____    ______ ____
ATOM      1  C   UNL     1      62.331  67.545  72.857  0.00  0.00    +0.000 C 
ATOM      2  C   UNL     1      62.331  66.812  72.476  0.00  0.00    +0.000 C 
ATOM      3  N   UNL     1      61.991  66.157  72.842  0.00  0.00    +0.000 NA
ATOM      4  C   UNL     1      61.991  65.426  72.460  0.00  0.00    +0.000 C 
ATOM      5  C   UNL     1      62.331  65.350  71.714  0.00  0.00    +0.000 C 
ATOM      6  C   UNL     1      61.650  64.769  72.827  0.00  0.00    +0.000 C 
ATOM      7  C   UNL     1      61.650  64.038  72.445  0.00  0.00    +0.000 A 
ATOM      8  C   UNL     1      61.309  63.381  72.812  0.00  0.00    +0.000 A 
ATOM      9  C   UNL     1      61.310  62.650  72.430  0.00  0.00    +0.000 A 
ATOM     10  C   UNL     1      61.650  62.575  71.684  0.00  0.00    +0.000 A 
ATOM     11  C   UNL     1      61.991  63.230  71.317  0.00  0.00    +0.000 A 
ATOM     12  C   UNL     1      61.991  63.963  71.699  0.00  0.00    +0.000 A 
ENDROOT
TORSDOF 0
ENDMDL
