MODEL 1
REMARK VINA RESULT:    -8.875      0.000      0.000
REMARK INTER + INTRA:          -8.875
REMARK INTER:                  -8.875
REMARK INTRA:                   0.000
REMARK UNBOUND:                 0.000
ROOT
REMARK  Name = etilevodopa
REMARK                            x       y       z     vdW  Elec       q    Type
REMARK                         _______ _______ _______ _____ _____    ______ ____
ATOM      1  C   UNL     1      60.865  63.416  69.581  0.00  0.00    +0.000 C 
ATOM      2  C   UNL     1      60.546  62.998  68.946  0.00  0.00    +0.000 C 
ATOM      3  O   UNL     1      60.976  62.919  68.246  0.00  0.00    +0.000 OA
ATOM      4  C   UNL     1      60.657  62.500  67.611  0.00  0.00    +0.000 C 
ATOM      5  O   UNL     1      59.908  62.161  67.675  0.00  0.00    +0.000 OA
ATOM      6  C   UNL     1      61.087  62.421  66.911  0.00  0.00    +0.000 C 
ATOM      7  N   UNL     1      61.837  62.761  66.847  0.00  0.00    +0.000 NA
ATOM      8  C   UNL     1      60.768  62.003  66.276  0.00  0.00    +0.000 C 
ATOM      9  C   UNL     1      61.198  61.924  65.576  0.00  0.00    +0.000 A 
ATOM     10  C   UNL     1      60.879  61.506  64.941  0.00  0.00    +0.000 A 
ATOM     11  C   UNL     1      61.310  61.427  64.241  0.00  0.00    +0.000 A 
ATOM     12  O   UNL     1      60.990  61.008  63.606  0.00  0.00    +0.000 OA
ATOM     13  C   UNL     1      62.059  61.766  64.176  0.00  0.00    +0.000 A 
ATOM     14  O   UNL     1      62.488  61.687  63.477  0.00  0.00    +0.000 OA
ATOM     15  C   UNL     1      62.377  62.184  64.812  0.00  0.00    +0.000 A 
ATOM     16  C   UNL     1      61.948  62.263  65.511  0.00  0.00    +0.000 A 
ENDROOT
TORSDOF 0
ENDMDL
MODEL 2
REMARK VINA RESULT:    -8.201      1.205      4.163
REMARK INTER + INTRA:          -8.201
REMARK INTER:                  -8.201
REMARK INTRA:                   0.000
REMARK UNBOUND:                 0.000
ROOT
REMARK  Name = etilevodopa
REMARK                            x       y       z     vdW  Elec       q    Type
REMARK                         _______ _______ _______ _____ _____    ______ ____
ATOM      1  C   UNL     1      62.396  62.064  63.831  0.00  0.00    +0.000 C 
ATOM      2  C   UNL     1      62.204  61.708  64.551  0.00  0.00    +0.000 C 
ATOM      3  O   UNL     1      61.929  62.168  65.178  0.00  0.00    +0.000 OA
ATOM      4  C   UNL     1      61.738  61.813  65.897  0.00  0.00    +0.000 C 
ATOM      5  O   UNL     1      61.821  60.998  65.989  0.00  0.00    +0.000 OA
ATOM      6  C   UNL     1      61.462  62.273  66.525  0.00  0.00    +0.000 C 
ATOM      7  N   UNL     1      61.378  63.089  66.432  0.00  0.00    +0.000 NA
ATOM      8  C   UNL     1      61.271  61.917  67.244  0.00  0.00    +0.000 C 
ATOM      9  C   UNL     1      60.995  62.378  67.871  0.00  0.00    +0.000 A 
ATOM     10  C   UNL     1      60.804  62.022  68.590  0.00  0.00    +0.000 A 
ATOM     11  C   UNL     1      60.529  62.483  69.218  0.00  0.00    +0.000 A 
ATOM     12  O   UNL     1      60.337  62.127  69.937  0.00  0.00    +0.000 OA
ATOM     13  C   UNL     1      60.445  63.298  69.125  0.00  0.00    +0.000 A 
ATOM     14  O   UNL     1      60.170  63.758  69.752  0.00  0.00    +0.000 OA
ATOM     15  C   UNL     1      60.637  63.653  68.405  0.00  0.00    +0.000 A 
ATOM     16  C   UNL     1      60.912  63.194  67.779  0.00  0.00    +0.000 A 
ENDROOT
TORSDOF 0
ENDMDL
MODEL 3
REMARK VINA RESULT:    -7.801      2.216      3.103
REMARK INTER + INTRA:          -7.801
REMARK INTER:                  -7.801
REMARK INTRA:                   0.000
REMARK UNBOUND:                 0.000
ROOT
REMARK  Name = etilevodopa
REMARK                            x       y       z     vdW  Elec       q    Type
REMARK                         _______ _______ _______ _____ _____    ______ ____
ATOM      1  C   UNL     1      61.625  62.766  72.616  0.00  0.00    +0.000 C 
ATOM      2  C   UNL     1      61.159  62.438  72.020  0.00  0.00    +0.000 C 
ATOM      3  O   UNL     1      61.279  62.661  71.234  0.00  0.00    +0.000 OA
ATOM      4  C   UNL     1      60.813  62.334  70.637  0.00  0.00    +0.000 C 
ATOM      5  O   UNL     1      60.228  61.785  70.825  0.00  0.00    +0.000 OA
ATOM      6  C   UNL     1      60.933  62.557  69.851  0.00  0.00    +0.000 C 
ATOM      7  N   UNL     1      61.519  63.107  69.663  0.00  0.00    +0.000 NA
ATOM      8  C   UNL     1      60.467  62.230  69.255  0.00  0.00    +0.000 C 
ATOM      9  C   UNL     1      60.587  62.453  68.469  0.00  0.00    +0.000 A 
ATOM     10  C   UNL     1      60.121  62.126  67.872  0.00  0.00    +0.000 A 
ATOM     11  C   UNL     1      60.241  62.349  67.086  0.00  0.00    +0.000 A 
ATOM     12  O   UNL     1      59.775  62.022  66.489  0.00  0.00    +0.000 OA
ATOM     13  C   UNL     1      60.827  62.899  66.898  0.00  0.00    +0.000 A 
ATOM     14  O   UNL     1      60.947  63.121  66.113  0.00  0.00    +0.000 OA
ATOM     15  C   UNL     1      61.292  63.225  67.496  0.00  0.00    +0.000 A 
ATOM     16  C   UNL     1      61.173  63.003  68.281  0.00  0.00    +0.000 A 
ENDROOT
TORSDOF 0
ENDMDL
MODEL 4
REMARK VINA RESULT:    -7.610      2.588      5.251
REMARK INTER + INTRA:          -7.610
REMARK INTER:                  -7.610
REMARK INTRA:                   0.000
REMARK UNBOUND:                 0.000
ROOT
REMARK  Name = etilevodopa
REMARK                            x       y       z     vdW  Elec       q    Type
REMARK                         _______ _______ _______ _____ _____    ______ ____
ATOM      1  C   UNL     1      59.266  61.987  66.269  0.00  0.00    +0.000 C 
ATOM      2  C   UNL     1      59.526  62.534  66.829  0.00  0.00    +0.000 C 
ATOM      3  O   UNL     1      59.806  62.273  67.561  0.00  0.00    +0.000 OA
ATOM      4  C   UNL     1      60.066  62.820  68.121  0.00  0.00    +0.000 C 
ATOM      5  O   UNL     1      60.047  63.626  67.950  0.00  0.00    +0.000 OA
ATOM      6  C   UNL     1      60.345  62.559  68.853  0.00  0.00    +0.000 C 
ATOM      7  N   UNL     1      60.364  61.752  69.023  0.00  0.00    +0.000 NA
ATOM      8  C   UNL     1      60.605  63.106  69.413  0.00  0.00    +0.000 C 
ATOM      9  C   UNL     1      60.884  62.845  70.145  0.00  0.00    +0.000 A 
ATOM     10  C   UNL     1      61.144  63.392  70.705  0.00  0.00    +0.000 A 
ATOM     11  C   UNL     1      61.423  63.131  71.437  0.00  0.00    +0.000 A 
ATOM     12  O   UNL     1      61.684  63.677  71.997  0.00  0.00    +0.000 OA
ATOM     13  C   UNL     1      61.442  62.324  71.608  0.00  0.00    +0.000 A 
ATOM     14  O   UNL     1      61.721  62.064  72.338  0.00  0.00    +0.000 OA
ATOM     15  C   UNL     1      61.182  61.778  71.046  0.00  0.00    +0.000 A 
ATOM     16  C   UNL     1      60.903  62.038  70.315  0.00  0.00    +0.000 A 
ENDROOT
TORSDOF 0
ENDMDL
MODEL 5
REMARK VINA RESULT:    -7.373      5.354      7.154
REMARK INTER + INTRA:          -7.373
REMARK INTER:                  -7.373
REMARK INTRA:                   0.000
REMARK UNBOUND:                 0.000
ROOT
REMARK  Name = etilevodopa
REMARK                            x       y       z     vdW  Elec       q    Type
REMARK                         _______ _______ _______ _____ _____    ______ ____
ATOM      1  C   UNL     1      61.123  64.115  70.790  0.00  0.00    +0.000 C 
ATOM      2  C   UNL     1      61.609  64.598  70.330  0.00  0.00    +0.000 C 
ATOM      3  O   UNL     1      62.319  64.883  70.640  0.00  0.00    +0.000 OA
ATOM      4  C   UNL     1      62.804  65.366  70.180  0.00  0.00    +0.000 C 
ATOM      5  O   UNL     1      62.581  65.563  69.412  0.00  0.00    +0.000 OA
ATOM      6  C   UNL     1      63.515  65.651  70.490  0.00  0.00    +0.000 C 
ATOM      7  N   UNL     1      63.738  65.454  71.259  0.00  0.00    +0.000 NA
ATOM      8  C   UNL     1      64.000  66.134  70.029  0.00  0.00    +0.000 C 
ATOM      9  C   UNL     1      64.710  66.419  70.339  0.00  0.00    +0.000 A 
ATOM     10  C   UNL     1      65.196  66.902  69.879  0.00  0.00    +0.000 A 
ATOM     11  C   UNL     1      65.906  67.187  70.189  0.00  0.00    +0.000 A 
ATOM     12  O   UNL     1      66.392  67.669  69.729  0.00  0.00    +0.000 OA
ATOM     13  C   UNL     1      66.130  66.989  70.958  0.00  0.00    +0.000 A 
ATOM     14  O   UNL     1      66.839  67.274  71.267  0.00  0.00    +0.000 OA
ATOM     15  C   UNL     1      65.643  66.507  71.417  0.00  0.00    +0.000 A 
ATOM     16  C   UNL     1      64.934  66.221  71.108  0.00  0.00    +0.000 A 
ENDROOT
TORSDOF 0
ENDMDL
MODEL 6
REMARK VINA RESULT:    -7.311      4.771      6.667
REMARK INTER + INTRA:          -7.311
REMARK INTER:                  -7.311
REMARK INTRA:                   0.000
REMARK UNBOUND:                 0.000
ROOT
REMARK  Name = etilevodopa
REMARK                            x       y       z     vdW  Elec       q    Type
REMARK                         _______ _______ _______ _____ _____    ______ ____
ATOM      1  C   UNL     1      66.506  67.837  69.844  0.00  0.00    +0.000 C 
ATOM      2  C   UNL     1      66.018  67.454  70.389  0.00  0.00    +0.000 C 
ATOM      3  O   UNL     1      65.478  66.887  70.130  0.00  0.00    +0.000 OA
ATOM      4  C   UNL     1      64.990  66.504  70.675  0.00  0.00    +0.000 C 
ATOM      5  O   UNL     1      65.042  66.689  71.476  0.00  0.00    +0.000 OA
ATOM      6  C   UNL     1      64.449  65.936  70.416  0.00  0.00    +0.000 C 
ATOM      7  N   UNL     1      64.397  65.752  69.614  0.00  0.00    +0.000 NA
ATOM      8  C   UNL     1      63.962  65.554  70.960  0.00  0.00    +0.000 C 
ATOM      9  C   UNL     1      63.421  64.986  70.702  0.00  0.00    +0.000 A 
ATOM     10  C   UNL     1      62.933  64.604  71.246  0.00  0.00    +0.000 A 
ATOM     11  C   UNL     1      62.393  64.036  70.987  0.00  0.00    +0.000 A 
ATOM     12  O   UNL     1      61.905  63.654  71.532  0.00  0.00    +0.000 OA
ATOM     13  C   UNL     1      62.340  63.851  70.185  0.00  0.00    +0.000 A 
ATOM     14  O   UNL     1      61.800  63.284  69.927  0.00  0.00    +0.000 OA
ATOM     15  C   UNL     1      62.829  64.234  69.641  0.00  0.00    +0.000 A 
ATOM     16  C   UNL     1      63.369  64.801  69.899  0.00  0.00    +0.000 A 
ENDROOT
TORSDOF 0
ENDMDL
MODEL 7
REMARK VINA RESULT:    -7.195      3.559      4.992
REMARK INTER + INTRA:          -7.195
REMARK INTER:                  -7.195
REMARK INTRA:                   0.000
REMARK UNBOUND:                 0.000
ROOT
REMARK  Name = etilevodopa
REMARK                            x       y       z     vdW  Elec       q    Type
REMARK                         _______ _______ _______ _____ _____    ______ ____
ATOM      1  C   UNL     1      64.552  66.340  69.914  0.00  0.00    +0.000 C 
ATOM      2  C   UNL     1      64.079  65.832  70.361  0.00  0.00    +0.000 C 
ATOM      3  O   UNL     1      63.569  65.304  69.983  0.00  0.00    +0.000 OA
ATOM      4  C   UNL     1      63.097  64.797  70.429  0.00  0.00    +0.000 C 
ATOM      5  O   UNL     1      63.134  64.815  71.252  0.00  0.00    +0.000 OA
ATOM      6  C   UNL     1      62.586  64.269  70.051  0.00  0.00    +0.000 C 
ATOM      7  N   UNL     1      62.548  64.251  69.227  0.00  0.00    +0.000 NA
ATOM      8  C   UNL     1      62.114  63.761  70.498  0.00  0.00    +0.000 C 
ATOM      9  C   UNL     1      61.603  63.234  70.119  0.00  0.00    +0.000 A 
ATOM     10  C   UNL     1      61.131  62.726  70.566  0.00  0.00    +0.000 A 
ATOM     11  C   UNL     1      60.621  62.199  70.188  0.00  0.00    +0.000 A 
ATOM     12  O   UNL     1      60.149  61.691  70.634  0.00  0.00    +0.000 OA
ATOM     13  C   UNL     1      60.583  62.180  69.364  0.00  0.00    +0.000 A 
ATOM     14  O   UNL     1      60.073  61.654  68.986  0.00  0.00    +0.000 OA
ATOM     15  C   UNL     1      61.056  62.689  68.918  0.00  0.00    +0.000 A 
ATOM     16  C   UNL     1      61.566  63.215  69.295  0.00  0.00    +0.000 A 
ENDROOT
TORSDOF 0
ENDMDL
MODEL 8
REMARK VINA RESULT:    -7.182      3.149      4.524
REMARK INTER + INTRA:          -7.182
REMARK INTER:                  -7.182
REMARK INTRA:                   0.000
REMARK UNBOUND:                 0.000
ROOT
REMARK  Name = etilevodopa
REMARK                            x       y       z     vdW  Elec       q    Type
REMARK                         _______ _______ _______ _____ _____    ______ ____
ATOM      1  C   UNL     1      59.715  67.638  71.259  0.00  0.00    +0.000 C 
ATOM      2  C   UNL     1      59.617  67.233  70.548  0.00  0.00    +0.000 C 
ATOM      3  O   UNL     1      59.832  66.438  70.494  0.00  0.00    +0.000 OA
ATOM      4  C   UNL     1      59.734  66.032  69.782  0.00  0.00    +0.000 C 
ATOM      5  O   UNL     1      59.422  66.421  69.126  0.00  0.00    +0.000 OA
ATOM      6  C   UNL     1      59.949  65.237  69.728  0.00  0.00    +0.000 C 
ATOM      7  N   UNL     1      60.262  64.848  70.385  0.00  0.00    +0.000 NA
ATOM      8  C   UNL     1      59.851  64.832  69.016  0.00  0.00    +0.000 C 
ATOM      9  C   UNL     1      60.066  64.036  68.962  0.00  0.00    +0.000 A 
ATOM     10  C   UNL     1      59.968  63.631  68.250  0.00  0.00    +0.000 A 
ATOM     11  C   UNL     1      60.183  62.836  68.196  0.00  0.00    +0.000 A 
ATOM     12  O   UNL     1      60.085  62.430  67.484  0.00  0.00    +0.000 OA
ATOM     13  C   UNL     1      60.496  62.447  68.853  0.00  0.00    +0.000 A 
ATOM     14  O   UNL     1      60.710  61.653  68.798  0.00  0.00    +0.000 OA
ATOM     15  C   UNL     1      60.593  62.853  69.564  0.00  0.00    +0.000 A 
ATOM     16  C   UNL     1      60.379  63.648  69.619  0.00  0.00    +0.000 A 
ENDROOT
TORSDOF 0
ENDMDL
MODEL 9
REMARK VINA RESULT:    -6.920     24.366     25.288
REMARK INTER + INTRA:          -6.920
REMARK INTER:                  -6.920
REMARK INTRA:                   0.000
REMARK UNBOUND:                 0.000
ROOT
REMARK  Name = etilevodopa
REMARK                            x       y       z     vdW  Elec       q    Type
REMARK                         _______ _______ _______ _____ _____    ______ ____
ATOM      1  C   UNL     1      68.256  81.322  52.912  0.00  0.00    +0.000 C 
ATOM      2  C   UNL     1      68.287  80.774  52.297  0.00  0.00    +0.000 C 
ATOM      3  O   UNL     1      68.991  80.662  51.880  0.00  0.00    +0.000 OA
ATOM      4  C   UNL     1      69.022  80.114  51.264  0.00  0.00    +0.000 C 
ATOM      5  O   UNL     1      68.351  79.678  51.066  0.00  0.00    +0.000 OA
ATOM      6  C   UNL     1      69.725  80.002  50.847  0.00  0.00    +0.000 C 
ATOM      7  N   UNL     1      70.397  80.438  51.046  0.00  0.00    +0.000 NA
ATOM      8  C   UNL     1      69.756  79.453  50.232  0.00  0.00    +0.000 C 
ATOM      9  C   UNL     1      70.460  79.342  49.815  0.00  0.00    +0.000 A 
ATOM     10  C   UNL     1      70.491  78.793  49.199  0.00  0.00    +0.000 A 
ATOM     11  C   UNL     1      71.195  78.681  48.782  0.00  0.00    +0.000 A 
ATOM     12  O   UNL     1      71.226  78.133  48.167  0.00  0.00    +0.000 OA
ATOM     13  C   UNL     1      71.866  79.118  48.981  0.00  0.00    +0.000 A 
ATOM     14  O   UNL     1      72.569  79.006  48.564  0.00  0.00    +0.000 OA
ATOM     15  C   UNL     1      71.834  79.666  49.596  0.00  0.00    +0.000 A 
ATOM     16  C   UNL     1      71.131  79.778  50.013  0.00  0.00    +0.000 A 
ENDROOT
TORSDOF 0
ENDMDL
