MODEL 1
REMARK VINA RESULT:   -16.997      0.000      0.000
REMARK INTER + INTRA:         -16.997
REMARK INTER:                 -16.997
REMARK INTRA:                   0.000
REMARK UNBOUND:                 0.000
ROOT
REMARK  Name = etoposide phosphate
REMARK                            x       y       z     vdW  Elec       q    Type
REMARK                         _______ _______ _______ _____ _____    ______ ____
ATOM      1  C   UNL     1      62.079  65.916  72.813  0.00  0.00    +0.000 C 
ATOM      2  O   UNL     1      62.825  66.035  72.482  0.00  0.00    +0.000 OA
ATOM      3  C   UNL     1      62.998  65.736  71.734  0.00  0.00    +0.000 A 
ATOM      4  C   UNL     1      62.424  65.317  71.315  0.00  0.00    +0.000 A 
ATOM      5  C   UNL     1      62.596  65.017  70.565  0.00  0.00    +0.000 A 
ATOM      6  C   UNL     1      63.343  65.137  70.235  0.00  0.00    +0.000 A 
ATOM      7  C   UNL     1      63.917  65.556  70.654  0.00  0.00    +0.000 A 
ATOM      8  O   UNL     1      64.663  65.676  70.323  0.00  0.00    +0.000 OA
ATOM      9  C   UNL     1      64.836  65.377  69.575  0.00  0.00    +0.000 C 
ATOM     10  C   UNL     1      63.744  65.855  71.403  0.00  0.00    +0.000 A 
ATOM     11  O   UNL     1      64.318  66.275  71.822  0.00  0.00    +0.000 OA
ATOM     12  P   UNL     1      65.064  66.395  71.492  0.00  0.00    +0.000 P 
ATOM     13  O   UNL     1      65.296  66.810  72.165  0.00  0.00    +0.000 OA
ATOM     14  O   UNL     1      65.811  66.514  71.161  0.00  0.00    +0.000 OA
ATOM     15  O   UNL     1      64.833  65.980  70.817  0.00  0.00    +0.000 OA
ATOM     16  C   UNL     1      62.022  64.597  70.146  0.00  0.00    +0.000 C 
ATOM     17  C   UNL     1      62.195  64.298  69.398  0.00  0.00    +0.000 C 
ATOM     18  C   UNL     1      61.621  63.879  68.979  0.00  0.00    +0.000 C 
ATOM     19  C   UNL     1      61.948  63.651  68.257  0.00  0.00    +0.000 C 
ATOM     20  O   UNL     1      62.724  63.929  68.229  0.00  0.00    +0.000 OA
ATOM     21  C   UNL     1      62.876  64.329  68.934  0.00  0.00    +0.000 C 
ATOM     22  O   UNL     1      63.586  64.696  69.140  0.00  0.00    +0.000 OA
ATOM     23  C   UNL     1      60.874  63.759  69.309  0.00  0.00    +0.000 C 
ATOM     24  O   UNL     1      60.300  63.339  68.890  0.00  0.00    +0.000 OA
ATOM     25  C   UNL     1      60.473  63.040  68.141  0.00  0.00    +0.000 C 
ATOM     26  O   UNL     1      61.219  63.160  67.810  0.00  0.00    +0.000 OA
ATOM     27  C   UNL     1      61.392  62.861  67.062  0.00  0.00    +0.000 C 
ATOM     28  C   UNL     1      62.138  62.980  66.731  0.00  0.00    +0.000 C 
ATOM     29  O   UNL     1      62.311  62.681  65.982  0.00  0.00    +0.000 OA
ATOM     30  C   UNL     1      61.737  62.262  65.564  0.00  0.00    +0.000 C 
ATOM     31  C   UNL     1      61.909  61.962  64.814  0.00  0.00    +0.000 C 
ATOM     32  O   UNL     1      60.990  62.142  65.893  0.00  0.00    +0.000 OA
ATOM     33  C   UNL     1      60.818  62.441  66.643  0.00  0.00    +0.000 C 
ATOM     34  C   UNL     1      60.072  62.321  66.973  0.00  0.00    +0.000 C 
ATOM     35  O   UNL     1      59.498  61.902  66.554  0.00  0.00    +0.000 OA
ATOM     36  C   UNL     1      59.899  62.621  67.723  0.00  0.00    +0.000 C 
ATOM     37  O   UNL     1      59.153  62.501  68.052  0.00  0.00    +0.000 OA
ATOM     38  C   UNL     1      60.702  64.059  70.059  0.00  0.00    +0.000 A 
ATOM     39  C   UNL     1      61.276  64.478  70.477  0.00  0.00    +0.000 A 
ATOM     40  C   UNL     1      61.103  64.777  71.226  0.00  0.00    +0.000 A 
ATOM     41  C   UNL     1      60.357  64.658  71.557  0.00  0.00    +0.000 A 
ATOM     42  O   UNL     1      60.029  64.885  72.278  0.00  0.00    +0.000 OA
ATOM     43  C   UNL     1      59.254  64.607  72.306  0.00  0.00    +0.000 C 
ATOM     44  O   UNL     1      59.101  64.207  71.601  0.00  0.00    +0.000 OA
ATOM     45  C   UNL     1      59.783  64.238  71.138  0.00  0.00    +0.000 A 
ATOM     46  C   UNL     1      59.955  63.938  70.388  0.00  0.00    +0.000 A 
ENDROOT
TORSDOF 0
ENDMDL
MODEL 2
REMARK VINA RESULT:   -15.037      1.628      5.251
REMARK INTER + INTRA:         -15.037
REMARK INTER:                 -15.037
REMARK INTRA:                   0.000
REMARK UNBOUND:                 0.000
ROOT
REMARK  Name = etoposide phosphate
REMARK                            x       y       z     vdW  Elec       q    Type
REMARK                         _______ _______ _______ _____ _____    ______ ____
ATOM      1  C   UNL     1      59.895  62.172  70.355  0.00  0.00    +0.000 C 
ATOM      2  O   UNL     1      60.127  62.155  69.563  0.00  0.00    +0.000 OA
ATOM      3  C   UNL     1      60.743  62.638  69.303  0.00  0.00    +0.000 A 
ATOM      4  C   UNL     1      61.127  63.138  69.835  0.00  0.00    +0.000 A 
ATOM      5  C   UNL     1      61.744  63.622  69.574  0.00  0.00    +0.000 A 
ATOM      6  C   UNL     1      61.975  63.604  68.783  0.00  0.00    +0.000 A 
ATOM      7  C   UNL     1      61.590  63.104  68.251  0.00  0.00    +0.000 A 
ATOM      8  O   UNL     1      61.822  63.087  67.459  0.00  0.00    +0.000 OA
ATOM      9  C   UNL     1      62.438  63.570  67.199  0.00  0.00    +0.000 C 
ATOM     10  C   UNL     1      60.975  62.621  68.511  0.00  0.00    +0.000 A 
ATOM     11  O   UNL     1      60.590  62.121  67.980  0.00  0.00    +0.000 OA
ATOM     12  P   UNL     1      60.821  62.104  67.188  0.00  0.00    +0.000 P 
ATOM     13  O   UNL     1      60.244  61.536  67.031  0.00  0.00    +0.000 OA
ATOM     14  O   UNL     1      61.053  62.087  66.396  0.00  0.00    +0.000 OA
ATOM     15  O   UNL     1      61.399  62.672  67.345  0.00  0.00    +0.000 OA
ATOM     16  C   UNL     1      62.129  64.122  70.106  0.00  0.00    +0.000 C 
ATOM     17  C   UNL     1      62.744  64.604  69.846  0.00  0.00    +0.000 C 
ATOM     18  C   UNL     1      63.129  65.104  70.377  0.00  0.00    +0.000 C 
ATOM     19  C   UNL     1      63.713  65.515  69.964  0.00  0.00    +0.000 C 
ATOM     20  O   UNL     1      63.690  65.269  69.177  0.00  0.00    +0.000 OA
ATOM     21  C   UNL     1      63.091  64.706  69.104  0.00  0.00    +0.000 C 
ATOM     22  O   UNL     1      62.877  64.314  68.411  0.00  0.00    +0.000 OA
ATOM     23  C   UNL     1      62.898  65.122  71.169  0.00  0.00    +0.000 C 
ATOM     24  O   UNL     1      63.283  65.622  71.700  0.00  0.00    +0.000 OA
ATOM     25  C   UNL     1      63.898  66.105  71.440  0.00  0.00    +0.000 C 
ATOM     26  O   UNL     1      64.130  66.088  70.649  0.00  0.00    +0.000 OA
ATOM     27  C   UNL     1      64.746  66.571  70.388  0.00  0.00    +0.000 C 
ATOM     28  C   UNL     1      64.978  66.554  69.597  0.00  0.00    +0.000 C 
ATOM     29  O   UNL     1      65.593  67.037  69.337  0.00  0.00    +0.000 OA
ATOM     30  C   UNL     1      65.978  67.537  69.868  0.00  0.00    +0.000 C 
ATOM     31  C   UNL     1      66.595  68.021  69.608  0.00  0.00    +0.000 C 
ATOM     32  O   UNL     1      65.747  67.555  70.660  0.00  0.00    +0.000 OA
ATOM     33  C   UNL     1      65.130  67.071  70.920  0.00  0.00    +0.000 C 
ATOM     34  C   UNL     1      64.900  67.088  71.712  0.00  0.00    +0.000 C 
ATOM     35  O   UNL     1      65.284  67.589  72.243  0.00  0.00    +0.000 OA
ATOM     36  C   UNL     1      64.283  66.605  71.972  0.00  0.00    +0.000 C 
ATOM     37  O   UNL     1      64.052  66.622  72.764  0.00  0.00    +0.000 OA
ATOM     38  C   UNL     1      62.281  64.638  71.429  0.00  0.00    +0.000 A 
ATOM     39  C   UNL     1      61.897  64.138  70.898  0.00  0.00    +0.000 A 
ATOM     40  C   UNL     1      61.281  63.656  71.158  0.00  0.00    +0.000 A 
ATOM     41  C   UNL     1      61.049  63.672  71.950  0.00  0.00    +0.000 A 
ATOM     42  O   UNL     1      60.466  63.262  72.363  0.00  0.00    +0.000 OA
ATOM     43  C   UNL     1      60.489  63.509  73.150  0.00  0.00    +0.000 C 
ATOM     44  O   UNL     1      61.088  64.071  73.222  0.00  0.00    +0.000 OA
ATOM     45  C   UNL     1      61.434  64.172  72.481  0.00  0.00    +0.000 A 
ATOM     46  C   UNL     1      62.050  64.656  72.221  0.00  0.00    +0.000 A 
ENDROOT
TORSDOF 0
ENDMDL
MODEL 3
REMARK VINA RESULT:   -14.590      2.757      5.143
REMARK INTER + INTRA:         -14.590
REMARK INTER:                 -14.590
REMARK INTRA:                   0.000
REMARK UNBOUND:                 0.000
ROOT
REMARK  Name = etoposide phosphate
REMARK                            x       y       z     vdW  Elec       q    Type
REMARK                         _______ _______ _______ _____ _____    ______ ____
ATOM      1  C   UNL     1      58.309  63.734  72.098  0.00  0.00    +0.000 C 
ATOM      2  O   UNL     1      58.211  64.522  72.323  0.00  0.00    +0.000 OA
ATOM      3  C   UNL     1      58.835  65.055  72.243  0.00  0.00    +0.000 A 
ATOM      4  C   UNL     1      59.558  64.800  71.938  0.00  0.00    +0.000 A 
ATOM      5  C   UNL     1      60.183  65.333  71.858  0.00  0.00    +0.000 A 
ATOM      6  C   UNL     1      60.084  66.121  72.083  0.00  0.00    +0.000 A 
ATOM      7  C   UNL     1      59.361  66.375  72.388  0.00  0.00    +0.000 A 
ATOM      8  O   UNL     1      59.263  67.163  72.612  0.00  0.00    +0.000 OA
ATOM      9  C   UNL     1      59.887  67.696  72.532  0.00  0.00    +0.000 C 
ATOM     10  C   UNL     1      58.737  65.843  72.468  0.00  0.00    +0.000 A 
ATOM     11  O   UNL     1      58.014  66.097  72.773  0.00  0.00    +0.000 OA
ATOM     12  P   UNL     1      57.915  66.884  72.998  0.00  0.00    +0.000 P 
ATOM     13  O   UNL     1      57.138  66.724  73.220  0.00  0.00    +0.000 OA
ATOM     14  O   UNL     1      57.817  67.672  73.222  0.00  0.00    +0.000 OA
ATOM     15  O   UNL     1      58.694  67.045  72.775  0.00  0.00    +0.000 OA
ATOM     16  C   UNL     1      60.906  65.079  71.553  0.00  0.00    +0.000 C 
ATOM     17  C   UNL     1      61.530  65.612  71.473  0.00  0.00    +0.000 C 
ATOM     18  C   UNL     1      62.253  65.357  71.168  0.00  0.00    +0.000 C 
ATOM     19  C   UNL     1      62.766  66.004  71.153  0.00  0.00    +0.000 C 
ATOM     20  O   UNL     1      62.360  66.658  71.449  0.00  0.00    +0.000 OA
ATOM     21  C   UNL     1      61.597  66.416  71.646  0.00  0.00    +0.000 C 
ATOM     22  O   UNL     1      61.003  66.894  71.962  0.00  0.00    +0.000 OA
ATOM     23  C   UNL     1      62.353  64.570  70.943  0.00  0.00    +0.000 C 
ATOM     24  O   UNL     1      63.076  64.315  70.638  0.00  0.00    +0.000 OA
ATOM     25  C   UNL     1      63.700  64.848  70.558  0.00  0.00    +0.000 C 
ATOM     26  O   UNL     1      63.602  65.636  70.782  0.00  0.00    +0.000 OA
ATOM     27  C   UNL     1      64.226  66.169  70.702  0.00  0.00    +0.000 C 
ATOM     28  C   UNL     1      64.128  66.957  70.927  0.00  0.00    +0.000 C 
ATOM     29  O   UNL     1      64.752  67.490  70.847  0.00  0.00    +0.000 OA
ATOM     30  C   UNL     1      65.475  67.235  70.542  0.00  0.00    +0.000 C 
ATOM     31  C   UNL     1      66.100  67.769  70.462  0.00  0.00    +0.000 C 
ATOM     32  O   UNL     1      65.574  66.448  70.317  0.00  0.00    +0.000 OA
ATOM     33  C   UNL     1      64.949  65.914  70.397  0.00  0.00    +0.000 C 
ATOM     34  C   UNL     1      65.048  65.127  70.172  0.00  0.00    +0.000 C 
ATOM     35  O   UNL     1      65.771  64.873  69.867  0.00  0.00    +0.000 OA
ATOM     36  C   UNL     1      64.423  64.594  70.253  0.00  0.00    +0.000 C 
ATOM     37  O   UNL     1      64.522  63.806  70.028  0.00  0.00    +0.000 OA
ATOM     38  C   UNL     1      61.727  64.036  71.023  0.00  0.00    +0.000 A 
ATOM     39  C   UNL     1      61.004  64.291  71.328  0.00  0.00    +0.000 A 
ATOM     40  C   UNL     1      60.380  63.758  71.408  0.00  0.00    +0.000 A 
ATOM     41  C   UNL     1      60.478  62.970  71.183  0.00  0.00    +0.000 A 
ATOM     42  O   UNL     1      59.967  62.324  71.197  0.00  0.00    +0.000 OA
ATOM     43  C   UNL     1      60.373  61.670  70.902  0.00  0.00    +0.000 C 
ATOM     44  O   UNL     1      61.136  61.912  70.704  0.00  0.00    +0.000 OA
ATOM     45  C   UNL     1      61.201  62.716  70.878  0.00  0.00    +0.000 A 
ATOM     46  C   UNL     1      61.827  63.249  70.798  0.00  0.00    +0.000 A 
ENDROOT
TORSDOF 0
ENDMDL
MODEL 4
REMARK VINA RESULT:   -14.515      1.449      3.442
REMARK INTER + INTRA:         -14.515
REMARK INTER:                 -14.515
REMARK INTRA:                   0.000
REMARK UNBOUND:                 0.000
ROOT
REMARK  Name = etoposide phosphate
REMARK                            x       y       z     vdW  Elec       q    Type
REMARK                         _______ _______ _______ _____ _____    ______ ____
ATOM      1  C   UNL     1      62.895  66.898  71.881  0.00  0.00    +0.000 C 
ATOM      2  O   UNL     1      62.091  66.948  72.061  0.00  0.00    +0.000 OA
ATOM      3  C   UNL     1      61.541  66.528  71.613  0.00  0.00    +0.000 A 
ATOM      4  C   UNL     1      61.795  66.057  70.984  0.00  0.00    +0.000 A 
ATOM      5  C   UNL     1      61.244  65.636  70.535  0.00  0.00    +0.000 A 
ATOM      6  C   UNL     1      60.441  65.687  70.715  0.00  0.00    +0.000 A 
ATOM      7  C   UNL     1      60.187  66.158  71.344  0.00  0.00    +0.000 A 
ATOM      8  O   UNL     1      59.383  66.207  71.523  0.00  0.00    +0.000 OA
ATOM      9  C   UNL     1      58.834  65.787  71.075  0.00  0.00    +0.000 C 
ATOM     10  C   UNL     1      60.737  66.578  71.792  0.00  0.00    +0.000 A 
ATOM     11  O   UNL     1      60.484  67.048  72.420  0.00  0.00    +0.000 OA
ATOM     12  P   UNL     1      59.680  67.099  72.601  0.00  0.00    +0.000 P 
ATOM     13  O   UNL     1      59.851  67.613  73.222  0.00  0.00    +0.000 OA
ATOM     14  O   UNL     1      58.876  67.148  72.780  0.00  0.00    +0.000 OA
ATOM     15  O   UNL     1      59.509  66.584  71.978  0.00  0.00    +0.000 OA
ATOM     16  C   UNL     1      61.498  65.166  69.906  0.00  0.00    +0.000 C 
ATOM     17  C   UNL     1      60.948  64.746  69.458  0.00  0.00    +0.000 C 
ATOM     18  C   UNL     1      61.201  64.276  68.830  0.00  0.00    +0.000 C 
ATOM     19  C   UNL     1      60.536  63.927  68.488  0.00  0.00    +0.000 C 
ATOM     20  O   UNL     1      59.872  64.182  68.905  0.00  0.00    +0.000 OA
ATOM     21  C   UNL     1      60.126  64.688  69.504  0.00  0.00    +0.000 C 
ATOM     22  O   UNL     1      59.643  65.069  70.054  0.00  0.00    +0.000 OA
ATOM     23  C   UNL     1      62.005  64.225  68.649  0.00  0.00    +0.000 C 
ATOM     24  O   UNL     1      62.258  63.754  68.021  0.00  0.00    +0.000 OA
ATOM     25  C   UNL     1      61.708  63.335  67.573  0.00  0.00    +0.000 C 
ATOM     26  O   UNL     1      60.904  63.384  67.752  0.00  0.00    +0.000 OA
ATOM     27  C   UNL     1      60.354  62.964  67.304  0.00  0.00    +0.000 C 
ATOM     28  C   UNL     1      59.550  63.014  67.483  0.00  0.00    +0.000 C 
ATOM     29  O   UNL     1      59.001  62.594  67.035  0.00  0.00    +0.000 OA
ATOM     30  C   UNL     1      59.254  62.124  66.407  0.00  0.00    +0.000 C 
ATOM     31  C   UNL     1      58.704  61.703  65.957  0.00  0.00    +0.000 C 
ATOM     32  O   UNL     1      60.057  62.073  66.226  0.00  0.00    +0.000 OA
ATOM     33  C   UNL     1      60.608  62.494  66.675  0.00  0.00    +0.000 C 
ATOM     34  C   UNL     1      61.411  62.443  66.495  0.00  0.00    +0.000 C 
ATOM     35  O   UNL     1      61.665  61.973  65.867  0.00  0.00    +0.000 OA
ATOM     36  C   UNL     1      61.962  62.864  66.944  0.00  0.00    +0.000 C 
ATOM     37  O   UNL     1      62.765  62.813  66.764  0.00  0.00    +0.000 OA
ATOM     38  C   UNL     1      62.555  64.646  69.099  0.00  0.00    +0.000 A 
ATOM     39  C   UNL     1      62.302  65.116  69.727  0.00  0.00    +0.000 A 
ATOM     40  C   UNL     1      62.851  65.536  70.175  0.00  0.00    +0.000 A 
ATOM     41  C   UNL     1      63.655  65.486  69.996  0.00  0.00    +0.000 A 
ATOM     42  O   UNL     1      64.320  65.834  70.337  0.00  0.00    +0.000 OA
ATOM     43  C   UNL     1      64.984  65.580  69.920  0.00  0.00    +0.000 C 
ATOM     44  O   UNL     1      64.730  65.074  69.321  0.00  0.00    +0.000 OA
ATOM     45  C   UNL     1      63.909  65.016  69.367  0.00  0.00    +0.000 A 
ATOM     46  C   UNL     1      63.358  64.595  68.918  0.00  0.00    +0.000 A 
ENDROOT
TORSDOF 0
ENDMDL
MODEL 5
REMARK VINA RESULT:   -14.368     13.314     17.320
REMARK INTER + INTRA:         -14.368
REMARK INTER:                 -14.368
REMARK INTRA:                   0.000
REMARK UNBOUND:                 0.000
ROOT
REMARK  Name = etoposide phosphate
REMARK                            x       y       z     vdW  Elec       q    Type
REMARK                         _______ _______ _______ _____ _____    ______ ____
ATOM      1  C   UNL     1      61.298  64.551  50.200  0.00  0.00    +0.000 C 
ATOM      2  O   UNL     1      61.421  63.966  50.768  0.00  0.00    +0.000 OA
ATOM      3  C   UNL     1      61.586  64.176  51.548  0.00  0.00    +0.000 A 
ATOM      4  C   UNL     1      61.629  64.972  51.761  0.00  0.00    +0.000 A 
ATOM      5  C   UNL     1      61.795  65.182  52.542  0.00  0.00    +0.000 A 
ATOM      6  C   UNL     1      61.917  64.596  53.109  0.00  0.00    +0.000 A 
ATOM      7  C   UNL     1      61.875  63.800  52.896  0.00  0.00    +0.000 A 
ATOM      8  O   UNL     1      61.998  63.214  53.465  0.00  0.00    +0.000 OA
ATOM      9  C   UNL     1      62.163  63.424  54.245  0.00  0.00    +0.000 C 
ATOM     10  C   UNL     1      61.709  63.590  52.117  0.00  0.00    +0.000 A 
ATOM     11  O   UNL     1      61.667  62.794  51.904  0.00  0.00    +0.000 OA
ATOM     12  P   UNL     1      61.789  62.208  52.471  0.00  0.00    +0.000 P 
ATOM     13  O   UNL     1      61.669  61.627  51.898  0.00  0.00    +0.000 OA
ATOM     14  O   UNL     1      61.913  61.622  53.040  0.00  0.00    +0.000 OA
ATOM     15  O   UNL     1      61.910  62.789  53.045  0.00  0.00    +0.000 OA
ATOM     16  C   UNL     1      61.837  65.978  52.754  0.00  0.00    +0.000 C 
ATOM     17  C   UNL     1      62.003  66.188  53.534  0.00  0.00    +0.000 C 
ATOM     18  C   UNL     1      62.045  66.984  53.747  0.00  0.00    +0.000 C 
ATOM     19  C   UNL     1      62.217  67.024  54.553  0.00  0.00    +0.000 C 
ATOM     20  O   UNL     1      62.280  66.253  54.839  0.00  0.00    +0.000 OA
ATOM     21  C   UNL     1      62.148  65.736  54.210  0.00  0.00    +0.000 C 
ATOM     22  O   UNL     1      62.159  64.912  54.248  0.00  0.00    +0.000 OA
ATOM     23  C   UNL     1      61.922  67.570  53.180  0.00  0.00    +0.000 C 
ATOM     24  O   UNL     1      61.965  68.366  53.392  0.00  0.00    +0.000 OA
ATOM     25  C   UNL     1      62.130  68.576  54.172  0.00  0.00    +0.000 C 
ATOM     26  O   UNL     1      62.253  67.990  54.741  0.00  0.00    +0.000 OA
ATOM     27  C   UNL     1      62.419  68.200  55.520  0.00  0.00    +0.000 C 
ATOM     28  C   UNL     1      62.542  67.615  56.089  0.00  0.00    +0.000 C 
ATOM     29  O   UNL     1      62.707  67.825  56.869  0.00  0.00    +0.000 OA
ATOM     30  C   UNL     1      62.750  68.621  57.081  0.00  0.00    +0.000 C 
ATOM     31  C   UNL     1      62.916  68.831  57.862  0.00  0.00    +0.000 C 
ATOM     32  O   UNL     1      62.627  69.207  56.514  0.00  0.00    +0.000 OA
ATOM     33  C   UNL     1      62.461  68.996  55.733  0.00  0.00    +0.000 C 
ATOM     34  C   UNL     1      62.339  69.582  55.166  0.00  0.00    +0.000 C 
ATOM     35  O   UNL     1      62.381  70.378  55.379  0.00  0.00    +0.000 OA
ATOM     36  C   UNL     1      62.173  69.372  54.385  0.00  0.00    +0.000 C 
ATOM     37  O   UNL     1      62.050  69.958  53.818  0.00  0.00    +0.000 OA
ATOM     38  C   UNL     1      61.757  67.359  52.399  0.00  0.00    +0.000 A 
ATOM     39  C   UNL     1      61.714  66.563  52.186  0.00  0.00    +0.000 A 
ATOM     40  C   UNL     1      61.549  66.354  51.406  0.00  0.00    +0.000 A 
ATOM     41  C   UNL     1      61.426  66.939  50.838  0.00  0.00    +0.000 A 
ATOM     42  O   UNL     1      61.254  66.900  50.033  0.00  0.00    +0.000 OA
ATOM     43  C   UNL     1      61.191  67.671  49.747  0.00  0.00    +0.000 C 
ATOM     44  O   UNL     1      61.323  68.187  50.377  0.00  0.00    +0.000 OA
ATOM     45  C   UNL     1      61.468  67.735  51.051  0.00  0.00    +0.000 A 
ATOM     46  C   UNL     1      61.634  67.946  51.832  0.00  0.00    +0.000 A 
ENDROOT
TORSDOF 0
ENDMDL
MODEL 6
REMARK VINA RESULT:   -14.367     24.222     25.853
REMARK INTER + INTRA:         -14.367
REMARK INTER:                 -14.367
REMARK INTRA:                   0.000
REMARK UNBOUND:                 0.000
ROOT
REMARK  Name = etoposide phosphate
REMARK                            x       y       z     vdW  Elec       q    Type
REMARK                         _______ _______ _______ _____ _____    ______ ____
ATOM      1  C   UNL     1      73.619  80.625  51.843  0.00  0.00    +0.000 C 
ATOM      2  O   UNL     1      73.377  80.377  51.094  0.00  0.00    +0.000 OA
ATOM      3  C   UNL     1      72.575  80.353  50.906  0.00  0.00    +0.000 A 
ATOM      4  C   UNL     1      72.013  80.578  51.466  0.00  0.00    +0.000 A 
ATOM      5  C   UNL     1      71.209  80.554  51.278  0.00  0.00    +0.000 A 
ATOM      6  C   UNL     1      70.969  80.306  50.529  0.00  0.00    +0.000 A 
ATOM      7  C   UNL     1      71.531  80.081  49.968  0.00  0.00    +0.000 A 
ATOM      8  O   UNL     1      71.289  79.833  49.219  0.00  0.00    +0.000 OA
ATOM      9  C   UNL     1      70.487  79.809  49.031  0.00  0.00    +0.000 C 
ATOM     10  C   UNL     1      72.333  80.105  50.157  0.00  0.00    +0.000 A 
ATOM     11  O   UNL     1      72.895  79.880  49.596  0.00  0.00    +0.000 OA
ATOM     12  P   UNL     1      72.655  79.632  48.847  0.00  0.00    +0.000 P 
ATOM     13  O   UNL     1      73.442  79.516  48.632  0.00  0.00    +0.000 OA
ATOM     14  O   UNL     1      72.413  79.384  48.098  0.00  0.00    +0.000 OA
ATOM     15  O   UNL     1      71.866  79.748  49.062  0.00  0.00    +0.000 OA
ATOM     16  C   UNL     1      70.647  80.778  51.839  0.00  0.00    +0.000 C 
ATOM     17  C   UNL     1      69.845  80.755  51.651  0.00  0.00    +0.000 C 
ATOM     18  C   UNL     1      69.283  80.979  52.211  0.00  0.00    +0.000 C 
ATOM     19  C   UNL     1      68.536  80.899  51.870  0.00  0.00    +0.000 C 
ATOM     20  O   UNL     1      68.636  80.626  51.098  0.00  0.00    +0.000 OA
ATOM     21  C   UNL     1      69.445  80.536  50.963  0.00  0.00    +0.000 C 
ATOM     22  O   UNL     1      69.793  80.274  50.262  0.00  0.00    +0.000 OA
ATOM     23  C   UNL     1      69.524  81.227  52.960  0.00  0.00    +0.000 C 
ATOM     24  O   UNL     1      68.962  81.452  53.521  0.00  0.00    +0.000 OA
ATOM     25  C   UNL     1      68.159  81.428  53.333  0.00  0.00    +0.000 C 
ATOM     26  O   UNL     1      67.918  81.180  52.584  0.00  0.00    +0.000 OA
ATOM     27  C   UNL     1      67.116  81.156  52.396  0.00  0.00    +0.000 C 
ATOM     28  C   UNL     1      66.874  80.908  51.647  0.00  0.00    +0.000 C 
ATOM     29  O   UNL     1      66.072  80.885  51.458  0.00  0.00    +0.000 OA
ATOM     30  C   UNL     1      65.510  81.109  52.019  0.00  0.00    +0.000 C 
ATOM     31  C   UNL     1      64.706  81.085  51.831  0.00  0.00    +0.000 C 
ATOM     32  O   UNL     1      65.750  81.357  52.768  0.00  0.00    +0.000 OA
ATOM     33  C   UNL     1      66.554  81.381  52.956  0.00  0.00    +0.000 C 
ATOM     34  C   UNL     1      66.794  81.629  53.705  0.00  0.00    +0.000 C 
ATOM     35  O   UNL     1      66.232  81.853  54.266  0.00  0.00    +0.000 OA
ATOM     36  C   UNL     1      67.597  81.653  53.894  0.00  0.00    +0.000 C 
ATOM     37  O   UNL     1      67.838  81.901  54.643  0.00  0.00    +0.000 OA
ATOM     38  C   UNL     1      70.327  81.251  53.149  0.00  0.00    +0.000 A 
ATOM     39  C   UNL     1      70.889  81.027  52.588  0.00  0.00    +0.000 A 
ATOM     40  C   UNL     1      71.691  81.050  52.776  0.00  0.00    +0.000 A 
ATOM     41  C   UNL     1      71.933  81.298  53.525  0.00  0.00    +0.000 A 
ATOM     42  O   UNL     1      72.679  81.378  53.867  0.00  0.00    +0.000 OA
ATOM     43  C   UNL     1      72.579  81.652  54.638  0.00  0.00    +0.000 C 
ATOM     44  O   UNL     1      71.770  81.741  54.773  0.00  0.00    +0.000 OA
ATOM     45  C   UNL     1      71.371  81.523  54.086  0.00  0.00    +0.000 A 
ATOM     46  C   UNL     1      70.567  81.499  53.898  0.00  0.00    +0.000 A 
ENDROOT
TORSDOF 0
ENDMDL
