MODEL 1
REMARK VINA RESULT:   -10.165      0.000      0.000
REMARK INTER + INTRA:         -10.165
REMARK INTER:                 -10.165
REMARK INTRA:                   0.000
REMARK UNBOUND:                 0.000
ROOT
REMARK  Name = etoxazene
REMARK                            x       y       z     vdW  Elec       q    Type
REMARK                         _______ _______ _______ _____ _____    ______ ____
ATOM      1  C   UNL     1      60.305  63.735  71.186  0.00  0.00    +0.000 C 
ATOM      2  C   UNL     1      60.628  63.599  70.439  0.00  0.00    +0.000 C 
ATOM      3  O   UNL     1      60.214  63.146  69.887  0.00  0.00    +0.000 OA
ATOM      4  C   UNL     1      60.537  63.010  69.140  0.00  0.00    +0.000 A 
ATOM      5  C   UNL     1      60.124  62.557  68.588  0.00  0.00    +0.000 A 
ATOM      6  C   UNL     1      60.446  62.421  67.842  0.00  0.00    +0.000 A 
ATOM      7  C   UNL     1      61.182  62.737  67.646  0.00  0.00    +0.000 A 
ATOM      8  C   UNL     1      61.595  63.190  68.198  0.00  0.00    +0.000 A 
ATOM      9  C   UNL     1      61.273  63.326  68.945  0.00  0.00    +0.000 A 
ATOM     10  N   UNL     1      61.505  62.601  66.899  0.00  0.00    +0.000 NA
ATOM     11  N   UNL     1      61.091  62.149  66.348  0.00  0.00    +0.000 NA
ATOM     12  C   UNL     1      61.414  62.012  65.600  0.00  0.00    +0.000 A 
ATOM     13  C   UNL     1      61.000  61.559  65.049  0.00  0.00    +0.000 A 
ATOM     14  N   UNL     1      60.264  61.242  65.244  0.00  0.00    +0.000 NA
ATOM     15  C   UNL     1      61.323  61.423  64.302  0.00  0.00    +0.000 A 
ATOM     16  C   UNL     1      62.059  61.740  64.106  0.00  0.00    +0.000 A 
ATOM     17  N   UNL     1      62.382  61.604  63.360  0.00  0.00    +0.000 NA
ATOM     18  C   UNL     1      62.472  62.193  64.658  0.00  0.00    +0.000 A 
ATOM     19  C   UNL     1      62.150  62.329  65.405  0.00  0.00    +0.000 A 
ENDROOT
TORSDOF 0
ENDMDL
MODEL 2
REMARK VINA RESULT:    -9.951      1.976      4.937
REMARK INTER + INTRA:          -9.951
REMARK INTER:                  -9.951
REMARK INTRA:                   0.000
REMARK UNBOUND:                 0.000
ROOT
REMARK  Name = etoxazene
REMARK                            x       y       z     vdW  Elec       q    Type
REMARK                         _______ _______ _______ _____ _____    ______ ____
ATOM      1  C   UNL     1      62.625  61.626  63.098  0.00  0.00    +0.000 C 
ATOM      2  C   UNL     1      62.371  61.563  63.881  0.00  0.00    +0.000 C 
ATOM      3  O   UNL     1      62.242  62.244  64.329  0.00  0.00    +0.000 OA
ATOM      4  C   UNL     1      61.988  62.181  65.111  0.00  0.00    +0.000 A 
ATOM      5  C   UNL     1      61.858  62.861  65.559  0.00  0.00    +0.000 A 
ATOM      6  C   UNL     1      61.605  62.798  66.341  0.00  0.00    +0.000 A 
ATOM      7  C   UNL     1      61.480  62.055  66.676  0.00  0.00    +0.000 A 
ATOM      8  C   UNL     1      61.610  61.375  66.228  0.00  0.00    +0.000 A 
ATOM      9  C   UNL     1      61.863  61.437  65.446  0.00  0.00    +0.000 A 
ATOM     10  N   UNL     1      61.227  61.992  67.458  0.00  0.00    +0.000 NA
ATOM     11  N   UNL     1      61.098  62.673  67.906  0.00  0.00    +0.000 NA
ATOM     12  C   UNL     1      60.844  62.610  68.689  0.00  0.00    +0.000 A 
ATOM     13  C   UNL     1      60.714  63.291  69.136  0.00  0.00    +0.000 A 
ATOM     14  N   UNL     1      60.839  64.034  68.802  0.00  0.00    +0.000 NA
ATOM     15  C   UNL     1      60.461  63.228  69.919  0.00  0.00    +0.000 A 
ATOM     16  C   UNL     1      60.336  62.484  70.254  0.00  0.00    +0.000 A 
ATOM     17  N   UNL     1      60.083  62.421  71.036  0.00  0.00    +0.000 NA
ATOM     18  C   UNL     1      60.466  61.804  69.806  0.00  0.00    +0.000 A 
ATOM     19  C   UNL     1      60.719  61.866  69.023  0.00  0.00    +0.000 A 
ENDROOT
TORSDOF 0
ENDMDL
MODEL 3
REMARK VINA RESULT:    -9.146      3.803      5.456
REMARK INTER + INTRA:          -9.146
REMARK INTER:                  -9.146
REMARK INTRA:                   0.000
REMARK UNBOUND:                 0.000
ROOT
REMARK  Name = etoxazene
REMARK                            x       y       z     vdW  Elec       q    Type
REMARK                         _______ _______ _______ _____ _____    ______ ____
ATOM      1  C   UNL     1      66.125  67.628  70.220  0.00  0.00    +0.000 C 
ATOM      2  C   UNL     1      65.593  67.023  70.404  0.00  0.00    +0.000 C 
ATOM      3  O   UNL     1      65.053  66.763  69.838  0.00  0.00    +0.000 OA
ATOM      4  C   UNL     1      64.522  66.159  70.022  0.00  0.00    +0.000 A 
ATOM      5  C   UNL     1      63.982  65.898  69.457  0.00  0.00    +0.000 A 
ATOM      6  C   UNL     1      63.451  65.295  69.641  0.00  0.00    +0.000 A 
ATOM      7  C   UNL     1      63.460  64.951  70.390  0.00  0.00    +0.000 A 
ATOM      8  C   UNL     1      64.001  65.212  70.956  0.00  0.00    +0.000 A 
ATOM      9  C   UNL     1      64.531  65.815  70.772  0.00  0.00    +0.000 A 
ATOM     10  N   UNL     1      62.929  64.347  70.574  0.00  0.00    +0.000 NA
ATOM     11  N   UNL     1      62.389  64.087  70.009  0.00  0.00    +0.000 NA
ATOM     12  C   UNL     1      61.857  63.482  70.193  0.00  0.00    +0.000 A 
ATOM     13  C   UNL     1      61.317  63.222  69.626  0.00  0.00    +0.000 A 
ATOM     14  N   UNL     1      61.307  63.565  68.876  0.00  0.00    +0.000 NA
ATOM     15  C   UNL     1      60.786  62.618  69.810  0.00  0.00    +0.000 A 
ATOM     16  C   UNL     1      60.795  62.274  70.561  0.00  0.00    +0.000 A 
ATOM     17  N   UNL     1      60.265  61.671  70.745  0.00  0.00    +0.000 NA
ATOM     18  C   UNL     1      61.336  62.536  71.126  0.00  0.00    +0.000 A 
ATOM     19  C   UNL     1      61.867  63.139  70.942  0.00  0.00    +0.000 A 
ENDROOT
TORSDOF 0
ENDMDL
MODEL 4
REMARK VINA RESULT:    -9.034      2.514      5.617
REMARK INTER + INTRA:          -9.034
REMARK INTER:                  -9.034
REMARK INTRA:                   0.000
REMARK UNBOUND:                 0.000
ROOT
REMARK  Name = etoxazene
REMARK                            x       y       z     vdW  Elec       q    Type
REMARK                         _______ _______ _______ _____ _____    ______ ____
ATOM      1  C   UNL     1      61.784  61.505  65.703  0.00  0.00    +0.000 C 
ATOM      2  C   UNL     1      61.548  61.733  66.461  0.00  0.00    +0.000 C 
ATOM      3  O   UNL     1      61.324  62.514  66.605  0.00  0.00    +0.000 OA
ATOM      4  C   UNL     1      61.088  62.742  67.361  0.00  0.00    +0.000 A 
ATOM      5  C   UNL     1      60.863  63.522  67.506  0.00  0.00    +0.000 A 
ATOM      6  C   UNL     1      60.627  63.750  68.262  0.00  0.00    +0.000 A 
ATOM      7  C   UNL     1      60.615  63.198  68.875  0.00  0.00    +0.000 A 
ATOM      8  C   UNL     1      60.840  62.418  68.730  0.00  0.00    +0.000 A 
ATOM      9  C   UNL     1      61.076  62.190  67.974  0.00  0.00    +0.000 A 
ATOM     10  N   UNL     1      60.379  63.426  69.632  0.00  0.00    +0.000 NA
ATOM     11  N   UNL     1      60.155  64.206  69.776  0.00  0.00    +0.000 NA
ATOM     12  C   UNL     1      59.919  64.435  70.534  0.00  0.00    +0.000 A 
ATOM     13  C   UNL     1      59.695  65.216  70.677  0.00  0.00    +0.000 A 
ATOM     14  N   UNL     1      59.706  65.768  70.065  0.00  0.00    +0.000 NA
ATOM     15  C   UNL     1      59.458  65.444  71.434  0.00  0.00    +0.000 A 
ATOM     16  C   UNL     1      59.447  64.891  72.047  0.00  0.00    +0.000 A 
ATOM     17  N   UNL     1      59.211  65.119  72.803  0.00  0.00    +0.000 NA
ATOM     18  C   UNL     1      59.671  64.111  71.902  0.00  0.00    +0.000 A 
ATOM     19  C   UNL     1      59.907  63.883  71.146  0.00  0.00    +0.000 A 
ENDROOT
TORSDOF 0
ENDMDL
MODEL 5
REMARK VINA RESULT:    -9.003      5.507      6.945
REMARK INTER + INTRA:          -9.003
REMARK INTER:                  -9.003
REMARK INTRA:                   0.000
REMARK UNBOUND:                 0.000
ROOT
REMARK  Name = etoxazene
REMARK                            x       y       z     vdW  Elec       q    Type
REMARK                         _______ _______ _______ _____ _____    ______ ____
ATOM      1  C   UNL     1      66.696  68.014  69.848  0.00  0.00    +0.000 C 
ATOM      2  C   UNL     1      66.133  67.421  69.963  0.00  0.00    +0.000 C 
ATOM      3  O   UNL     1      65.627  67.455  70.613  0.00  0.00    +0.000 OA
ATOM      4  C   UNL     1      65.065  66.862  70.729  0.00  0.00    +0.000 A 
ATOM      5  C   UNL     1      64.558  66.895  71.379  0.00  0.00    +0.000 A 
ATOM      6  C   UNL     1      63.996  66.303  71.494  0.00  0.00    +0.000 A 
ATOM      7  C   UNL     1      63.940  65.677  70.959  0.00  0.00    +0.000 A 
ATOM      8  C   UNL     1      64.446  65.645  70.309  0.00  0.00    +0.000 A 
ATOM      9  C   UNL     1      65.008  66.236  70.194  0.00  0.00    +0.000 A 
ATOM     10  N   UNL     1      63.377  65.085  71.075  0.00  0.00    +0.000 NA
ATOM     11  N   UNL     1      62.871  65.118  71.724  0.00  0.00    +0.000 NA
ATOM     12  C   UNL     1      62.308  64.525  71.840  0.00  0.00    +0.000 A 
ATOM     13  C   UNL     1      61.801  64.559  72.490  0.00  0.00    +0.000 A 
ATOM     14  N   UNL     1      61.857  65.184  73.025  0.00  0.00    +0.000 NA
ATOM     15  C   UNL     1      61.239  63.967  72.606  0.00  0.00    +0.000 A 
ATOM     16  C   UNL     1      61.183  63.341  72.070  0.00  0.00    +0.000 A 
ATOM     17  N   UNL     1      60.621  62.749  72.186  0.00  0.00    +0.000 NA
ATOM     18  C   UNL     1      61.689  63.308  71.421  0.00  0.00    +0.000 A 
ATOM     19  C   UNL     1      62.252  63.900  71.305  0.00  0.00    +0.000 A 
ENDROOT
TORSDOF 0
ENDMDL
MODEL 6
REMARK VINA RESULT:    -8.742      2.814      3.976
REMARK INTER + INTRA:          -8.742
REMARK INTER:                  -8.742
REMARK INTRA:                   0.000
REMARK UNBOUND:                 0.000
ROOT
REMARK  Name = etoxazene
REMARK                            x       y       z     vdW  Elec       q    Type
REMARK                         _______ _______ _______ _____ _____    ______ ____
ATOM      1  C   UNL     1      65.055  66.629  71.724  0.00  0.00    +0.000 C 
ATOM      2  C   UNL     1      64.581  66.265  71.153  0.00  0.00    +0.000 C 
ATOM      3  O   UNL     1      64.087  65.640  71.365  0.00  0.00    +0.000 OA
ATOM      4  C   UNL     1      63.614  65.277  70.795  0.00  0.00    +0.000 A 
ATOM      5  C   UNL     1      63.120  64.652  71.007  0.00  0.00    +0.000 A 
ATOM      6  C   UNL     1      62.646  64.289  70.438  0.00  0.00    +0.000 A 
ATOM      7  C   UNL     1      62.667  64.552  69.656  0.00  0.00    +0.000 A 
ATOM      8  C   UNL     1      63.161  65.177  69.445  0.00  0.00    +0.000 A 
ATOM      9  C   UNL     1      63.634  65.540  70.014  0.00  0.00    +0.000 A 
ATOM     10  N   UNL     1      62.193  64.189  69.086  0.00  0.00    +0.000 NA
ATOM     11  N   UNL     1      61.699  63.564  69.298  0.00  0.00    +0.000 NA
ATOM     12  C   UNL     1      61.225  63.201  68.727  0.00  0.00    +0.000 A 
ATOM     13  C   UNL     1      60.731  62.575  68.940  0.00  0.00    +0.000 A 
ATOM     14  N   UNL     1      60.710  62.312  69.721  0.00  0.00    +0.000 NA
ATOM     15  C   UNL     1      60.257  62.212  68.370  0.00  0.00    +0.000 A 
ATOM     16  C   UNL     1      60.278  62.475  67.588  0.00  0.00    +0.000 A 
ATOM     17  N   UNL     1      59.805  62.113  67.019  0.00  0.00    +0.000 NA
ATOM     18  C   UNL     1      60.772  63.101  67.377  0.00  0.00    +0.000 A 
ATOM     19  C   UNL     1      61.246  63.463  67.946  0.00  0.00    +0.000 A 
ENDROOT
TORSDOF 0
ENDMDL
MODEL 7
REMARK VINA RESULT:    -8.575      2.919      5.279
REMARK INTER + INTRA:          -8.575
REMARK INTER:                  -8.575
REMARK INTRA:                   0.000
REMARK UNBOUND:                 0.000
ROOT
REMARK  Name = etoxazene
REMARK                            x       y       z     vdW  Elec       q    Type
REMARK                         _______ _______ _______ _____ _____    ______ ____
ATOM      1  C   UNL     1      59.189  61.967  66.175  0.00  0.00    +0.000 C 
ATOM      2  C   UNL     1      59.500  62.404  66.803  0.00  0.00    +0.000 C 
ATOM      3  O   UNL     1      60.313  62.530  66.854  0.00  0.00    +0.000 OA
ATOM      4  C   UNL     1      60.624  62.967  67.481  0.00  0.00    +0.000 A 
ATOM      5  C   UNL     1      61.437  63.094  67.534  0.00  0.00    +0.000 A 
ATOM      6  C   UNL     1      61.748  63.530  68.160  0.00  0.00    +0.000 A 
ATOM      7  C   UNL     1      61.245  63.842  68.735  0.00  0.00    +0.000 A 
ATOM      8  C   UNL     1      60.432  63.715  68.683  0.00  0.00    +0.000 A 
ATOM      9  C   UNL     1      60.122  63.279  68.057  0.00  0.00    +0.000 A 
ATOM     10  N   UNL     1      61.556  64.279  69.362  0.00  0.00    +0.000 NA
ATOM     11  N   UNL     1      62.369  64.405  69.414  0.00  0.00    +0.000 NA
ATOM     12  C   UNL     1      62.680  64.842  70.042  0.00  0.00    +0.000 A 
ATOM     13  C   UNL     1      63.494  64.968  70.093  0.00  0.00    +0.000 A 
ATOM     14  N   UNL     1      63.997  64.657  69.518  0.00  0.00    +0.000 NA
ATOM     15  C   UNL     1      63.804  65.405  70.720  0.00  0.00    +0.000 A 
ATOM     16  C   UNL     1      63.301  65.716  71.295  0.00  0.00    +0.000 A 
ATOM     17  N   UNL     1      63.611  66.153  71.922  0.00  0.00    +0.000 NA
ATOM     18  C   UNL     1      62.488  65.590  71.243  0.00  0.00    +0.000 A 
ATOM     19  C   UNL     1      62.177  65.153  70.616  0.00  0.00    +0.000 A 
ENDROOT
TORSDOF 0
ENDMDL
MODEL 8
REMARK VINA RESULT:    -7.367     24.096     25.456
REMARK INTER + INTRA:          -7.367
REMARK INTER:                  -7.367
REMARK INTRA:                   0.000
REMARK UNBOUND:                 0.000
ROOT
REMARK  Name = etoxazene
REMARK                            x       y       z     vdW  Elec       q    Type
REMARK                         _______ _______ _______ _____ _____    ______ ____
ATOM      1  C   UNL     1      71.380  78.628  48.239  0.00  0.00    +0.000 C 
ATOM      2  C   UNL     1      70.889  78.874  48.856  0.00  0.00    +0.000 C 
ATOM      3  O   UNL     1      71.185  79.369  49.445  0.00  0.00    +0.000 OA
ATOM      4  C   UNL     1      70.695  79.614  50.062  0.00  0.00    +0.000 A 
ATOM      5  C   UNL     1      70.990  80.109  50.652  0.00  0.00    +0.000 A 
ATOM      6  C   UNL     1      70.501  80.355  51.267  0.00  0.00    +0.000 A 
ATOM      7  C   UNL     1      69.715  80.105  51.295  0.00  0.00    +0.000 A 
ATOM      8  C   UNL     1      69.420  79.610  50.705  0.00  0.00    +0.000 A 
ATOM      9  C   UNL     1      69.909  79.365  50.089  0.00  0.00    +0.000 A 
ATOM     10  N   UNL     1      69.225  80.351  51.912  0.00  0.00    +0.000 NA
ATOM     11  N   UNL     1      69.521  80.846  52.501  0.00  0.00    +0.000 NA
ATOM     12  C   UNL     1      69.030  81.092  53.118  0.00  0.00    +0.000 A 
ATOM     13  C   UNL     1      69.327  81.587  53.708  0.00  0.00    +0.000 A 
ATOM     14  N   UNL     1      70.112  81.837  53.681  0.00  0.00    +0.000 NA
ATOM     15  C   UNL     1      68.837  81.833  54.324  0.00  0.00    +0.000 A 
ATOM     16  C   UNL     1      68.050  81.583  54.351  0.00  0.00    +0.000 A 
ATOM     17  N   UNL     1      67.561  81.829  54.967  0.00  0.00    +0.000 NA
ATOM     18  C   UNL     1      67.755  81.088  53.762  0.00  0.00    +0.000 A 
ATOM     19  C   UNL     1      68.245  80.842  53.145  0.00  0.00    +0.000 A 
ENDROOT
TORSDOF 0
ENDMDL
MODEL 9
REMARK VINA RESULT:    -7.337     12.978     13.676
REMARK INTER + INTRA:          -7.337
REMARK INTER:                  -7.337
REMARK INTRA:                   0.000
REMARK UNBOUND:                 0.000
ROOT
REMARK  Name = etoxazene
REMARK                            x       y       z     vdW  Elec       q    Type
REMARK                         _______ _______ _______ _____ _____    ______ ____
ATOM      1  C   UNL     1      61.891  66.686  54.335  0.00  0.00    +0.000 C 
ATOM      2  C   UNL     1      61.999  65.868  54.372  0.00  0.00    +0.000 C 
ATOM      3  O   UNL     1      62.537  65.500  53.868  0.00  0.00    +0.000 OA
ATOM      4  C   UNL     1      62.645  64.683  53.905  0.00  0.00    +0.000 A 
ATOM      5  C   UNL     1      63.183  64.314  53.401  0.00  0.00    +0.000 A 
ATOM      6  C   UNL     1      63.291  63.498  53.438  0.00  0.00    +0.000 A 
ATOM      7  C   UNL     1      62.859  63.049  53.979  0.00  0.00    +0.000 A 
ATOM      8  C   UNL     1      62.320  63.418  54.483  0.00  0.00    +0.000 A 
ATOM      9  C   UNL     1      62.213  64.234  54.446  0.00  0.00    +0.000 A 
ATOM     10  N   UNL     1      62.966  62.231  54.015  0.00  0.00    +0.000 NA
ATOM     11  N   UNL     1      63.505  61.863  53.512  0.00  0.00    +0.000 NA
ATOM     12  C   UNL     1      63.612  61.045  53.548  0.00  0.00    +0.000 A 
ATOM     13  C   UNL     1      64.152  60.677  53.044  0.00  0.00    +0.000 A 
ATOM     14  N   UNL     1      64.583  61.125  52.503  0.00  0.00    +0.000 NA
ATOM     15  C   UNL     1      64.259  59.860  53.081  0.00  0.00    +0.000 A 
ATOM     16  C   UNL     1      63.827  59.411  53.622  0.00  0.00    +0.000 A 
ATOM     17  N   UNL     1      63.934  58.595  53.659  0.00  0.00    +0.000 NA
ATOM     18  C   UNL     1      63.288  59.780  54.126  0.00  0.00    +0.000 A 
ATOM     19  C   UNL     1      63.181  60.597  54.089  0.00  0.00    +0.000 A 
ENDROOT
TORSDOF 0
ENDMDL
