MODEL 1
REMARK VINA RESULT:   -13.656      0.000      0.000
REMARK INTER + INTRA:         -13.656
REMARK INTER:                 -13.656
REMARK INTRA:                   0.000
REMARK UNBOUND:                 0.000
ROOT
REMARK  Name = etretinate
REMARK                            x       y       z     vdW  Elec       q    Type
REMARK                         _______ _______ _______ _____ _____    ______ ____
ATOM      1  C   UNL     1      64.698  66.135  71.518  0.00  0.00    +0.000 C 
ATOM      2  C   UNL     1      63.983  65.770  71.331  0.00  0.00    +0.000 C 
ATOM      3  O   UNL     1      63.891  65.392  70.604  0.00  0.00    +0.000 OA
ATOM      4  C   UNL     1      63.175  65.027  70.417  0.00  0.00    +0.000 C 
ATOM      5  O   UNL     1      62.552  65.040  70.956  0.00  0.00    +0.000 OA
ATOM      6  C   UNL     1      63.083  64.648  69.690  0.00  0.00    +0.000 C 
ATOM      7  C   UNL     1      62.367  64.283  69.502  0.00  0.00    +0.000 C 
ATOM      8  C   UNL     1      61.744  64.297  70.042  0.00  0.00    +0.000 C 
ATOM      9  C   UNL     1      62.275  63.905  68.774  0.00  0.00    +0.000 C 
ATOM     10  C   UNL     1      61.560  63.539  68.586  0.00  0.00    +0.000 C 
ATOM     11  C   UNL     1      61.468  63.161  67.859  0.00  0.00    +0.000 C 
ATOM     12  C   UNL     1      60.752  62.796  67.672  0.00  0.00    +0.000 C 
ATOM     13  C   UNL     1      60.128  62.809  68.212  0.00  0.00    +0.000 C 
ATOM     14  C   UNL     1      60.660  62.418  66.945  0.00  0.00    +0.000 C 
ATOM     15  C   UNL     1      61.284  62.405  66.404  0.00  0.00    +0.000 C 
ATOM     16  C   UNL     1      61.192  62.027  65.678  0.00  0.00    +0.000 A 
ATOM     17  C   UNL     1      61.815  62.013  65.138  0.00  0.00    +0.000 A 
ATOM     18  C   UNL     1      62.530  62.378  65.326  0.00  0.00    +0.000 C 
ATOM     19  C   UNL     1      61.723  61.635  64.410  0.00  0.00    +0.000 A 
ATOM     20  C   UNL     1      62.346  61.622  63.871  0.00  0.00    +0.000 C 
ATOM     21  C   UNL     1      61.008  61.270  64.223  0.00  0.00    +0.000 A 
ATOM     22  O   UNL     1      60.916  60.891  63.495  0.00  0.00    +0.000 OA
ATOM     23  C   UNL     1      61.539  60.878  62.956  0.00  0.00    +0.000 C 
ATOM     24  C   UNL     1      60.384  61.283  64.763  0.00  0.00    +0.000 A 
ATOM     25  C   UNL     1      60.476  61.661  65.490  0.00  0.00    +0.000 A 
ATOM     26  C   UNL     1      59.852  61.675  66.031  0.00  0.00    +0.000 C 
ENDROOT
TORSDOF 0
ENDMDL
MODEL 2
REMARK VINA RESULT:   -13.068      2.359      6.541
REMARK INTER + INTRA:         -13.068
REMARK INTER:                 -13.068
REMARK INTRA:                   0.000
REMARK UNBOUND:                 0.000
ROOT
REMARK  Name = etretinate
REMARK                            x       y       z     vdW  Elec       q    Type
REMARK                         _______ _______ _______ _____ _____    ______ ____
ATOM      1  C   UNL     1      62.380  62.005  63.764  0.00  0.00    +0.000 C 
ATOM      2  C   UNL     1      62.200  61.748  64.526  0.00  0.00    +0.000 C 
ATOM      3  O   UNL     1      61.933  62.287  65.091  0.00  0.00    +0.000 OA
ATOM      4  C   UNL     1      61.753  62.030  65.854  0.00  0.00    +0.000 C 
ATOM      5  O   UNL     1      61.839  61.234  66.052  0.00  0.00    +0.000 OA
ATOM      6  C   UNL     1      61.487  62.569  66.419  0.00  0.00    +0.000 C 
ATOM      7  C   UNL     1      61.306  62.313  67.182  0.00  0.00    +0.000 C 
ATOM      8  C   UNL     1      61.392  61.516  67.379  0.00  0.00    +0.000 C 
ATOM      9  C   UNL     1      61.040  62.852  67.747  0.00  0.00    +0.000 C 
ATOM     10  C   UNL     1      60.859  62.595  68.510  0.00  0.00    +0.000 C 
ATOM     11  C   UNL     1      60.593  63.135  69.074  0.00  0.00    +0.000 C 
ATOM     12  C   UNL     1      60.413  62.877  69.837  0.00  0.00    +0.000 C 
ATOM     13  C   UNL     1      60.499  62.081  70.036  0.00  0.00    +0.000 C 
ATOM     14  C   UNL     1      60.146  63.416  70.402  0.00  0.00    +0.000 C 
ATOM     15  C   UNL     1      60.060  64.213  70.204  0.00  0.00    +0.000 C 
ATOM     16  C   UNL     1      59.794  64.751  70.768  0.00  0.00    +0.000 A 
ATOM     17  C   UNL     1      59.708  65.548  70.570  0.00  0.00    +0.000 A 
ATOM     18  C   UNL     1      59.888  65.804  69.807  0.00  0.00    +0.000 C 
ATOM     19  C   UNL     1      59.441  66.087  71.135  0.00  0.00    +0.000 A 
ATOM     20  C   UNL     1      59.355  66.882  70.937  0.00  0.00    +0.000 C 
ATOM     21  C   UNL     1      59.261  65.830  71.897  0.00  0.00    +0.000 A 
ATOM     22  O   UNL     1      58.994  66.370  72.463  0.00  0.00    +0.000 OA
ATOM     23  C   UNL     1      58.908  67.165  72.265  0.00  0.00    +0.000 C 
ATOM     24  C   UNL     1      59.347  65.034  72.096  0.00  0.00    +0.000 A 
ATOM     25  C   UNL     1      59.614  64.494  71.531  0.00  0.00    +0.000 A 
ATOM     26  C   UNL     1      59.700  63.697  71.730  0.00  0.00    +0.000 C 
ENDROOT
TORSDOF 0
ENDMDL
MODEL 3
REMARK VINA RESULT:   -12.758      1.212      6.697
REMARK INTER + INTRA:         -12.758
REMARK INTER:                 -12.758
REMARK INTRA:                   0.000
REMARK UNBOUND:                 0.000
ROOT
REMARK  Name = etretinate
REMARK                            x       y       z     vdW  Elec       q    Type
REMARK                         _______ _______ _______ _____ _____    ______ ____
ATOM      1  C   UNL     1      60.897  61.284  64.326  0.00  0.00    +0.000 C 
ATOM      2  C   UNL     1      60.715  61.463  65.110  0.00  0.00    +0.000 C 
ATOM      3  O   UNL     1      61.210  61.959  65.545  0.00  0.00    +0.000 OA
ATOM      4  C   UNL     1      61.027  62.138  66.330  0.00  0.00    +0.000 C 
ATOM      5  O   UNL     1      60.351  61.822  66.678  0.00  0.00    +0.000 OA
ATOM      6  C   UNL     1      61.523  62.634  66.765  0.00  0.00    +0.000 C 
ATOM      7  C   UNL     1      61.341  62.814  67.549  0.00  0.00    +0.000 C 
ATOM      8  C   UNL     1      60.664  62.497  67.898  0.00  0.00    +0.000 C 
ATOM      9  C   UNL     1      61.836  63.310  67.985  0.00  0.00    +0.000 C 
ATOM     10  C   UNL     1      61.655  63.489  68.769  0.00  0.00    +0.000 C 
ATOM     11  C   UNL     1      62.150  63.985  69.204  0.00  0.00    +0.000 C 
ATOM     12  C   UNL     1      61.967  64.164  69.989  0.00  0.00    +0.000 C 
ATOM     13  C   UNL     1      61.290  63.848  70.338  0.00  0.00    +0.000 C 
ATOM     14  C   UNL     1      62.462  64.660  70.424  0.00  0.00    +0.000 C 
ATOM     15  C   UNL     1      63.140  64.977  70.075  0.00  0.00    +0.000 C 
ATOM     16  C   UNL     1      63.635  65.472  70.510  0.00  0.00    +0.000 A 
ATOM     17  C   UNL     1      64.312  65.789  70.161  0.00  0.00    +0.000 A 
ATOM     18  C   UNL     1      64.494  65.609  69.377  0.00  0.00    +0.000 C 
ATOM     19  C   UNL     1      64.807  66.285  70.597  0.00  0.00    +0.000 A 
ATOM     20  C   UNL     1      65.484  66.601  70.248  0.00  0.00    +0.000 C 
ATOM     21  C   UNL     1      64.625  66.464  71.380  0.00  0.00    +0.000 A 
ATOM     22  O   UNL     1      65.121  66.961  71.816  0.00  0.00    +0.000 OA
ATOM     23  C   UNL     1      65.798  67.277  71.467  0.00  0.00    +0.000 C 
ATOM     24  C   UNL     1      63.948  66.148  71.730  0.00  0.00    +0.000 A 
ATOM     25  C   UNL     1      63.453  65.652  71.295  0.00  0.00    +0.000 A 
ATOM     26  C   UNL     1      62.775  65.335  71.644  0.00  0.00    +0.000 C 
ENDROOT
TORSDOF 0
ENDMDL
MODEL 4
REMARK VINA RESULT:   -12.163      1.836      2.985
REMARK INTER + INTRA:         -12.163
REMARK INTER:                 -12.163
REMARK INTRA:                   0.000
REMARK UNBOUND:                 0.000
ROOT
REMARK  Name = etretinate
REMARK                            x       y       z     vdW  Elec       q    Type
REMARK                         _______ _______ _______ _____ _____    ______ ____
ATOM      1  C   UNL     1      66.865  67.968  70.109  0.00  0.00    +0.000 C 
ATOM      2  C   UNL     1      66.347  67.435  70.466  0.00  0.00    +0.000 C 
ATOM      3  O   UNL     1      65.803  67.017  70.006  0.00  0.00    +0.000 OA
ATOM      4  C   UNL     1      65.285  66.484  70.364  0.00  0.00    +0.000 C 
ATOM      5  O   UNL     1      65.310  66.368  71.179  0.00  0.00    +0.000 OA
ATOM      6  C   UNL     1      64.742  66.067  69.904  0.00  0.00    +0.000 C 
ATOM      7  C   UNL     1      64.223  65.534  70.260  0.00  0.00    +0.000 C 
ATOM      8  C   UNL     1      64.248  65.418  71.076  0.00  0.00    +0.000 C 
ATOM      9  C   UNL     1      63.679  65.116  69.801  0.00  0.00    +0.000 C 
ATOM     10  C   UNL     1      63.161  64.583  70.157  0.00  0.00    +0.000 C 
ATOM     11  C   UNL     1      62.617  64.166  69.697  0.00  0.00    +0.000 C 
ATOM     12  C   UNL     1      62.099  63.632  70.055  0.00  0.00    +0.000 C 
ATOM     13  C   UNL     1      62.123  63.516  70.871  0.00  0.00    +0.000 C 
ATOM     14  C   UNL     1      61.555  63.215  69.595  0.00  0.00    +0.000 C 
ATOM     15  C   UNL     1      61.530  63.331  68.778  0.00  0.00    +0.000 C 
ATOM     16  C   UNL     1      60.987  62.915  68.319  0.00  0.00    +0.000 A 
ATOM     17  C   UNL     1      60.962  63.030  67.503  0.00  0.00    +0.000 A 
ATOM     18  C   UNL     1      61.481  63.564  67.147  0.00  0.00    +0.000 C 
ATOM     19  C   UNL     1      60.418  62.613  67.043  0.00  0.00    +0.000 A 
ATOM     20  C   UNL     1      60.394  62.729  66.228  0.00  0.00    +0.000 C 
ATOM     21  C   UNL     1      59.900  62.080  67.400  0.00  0.00    +0.000 A 
ATOM     22  O   UNL     1      59.356  61.663  66.940  0.00  0.00    +0.000 OA
ATOM     23  C   UNL     1      59.331  61.779  66.124  0.00  0.00    +0.000 C 
ATOM     24  C   UNL     1      59.925  61.964  68.217  0.00  0.00    +0.000 A 
ATOM     25  C   UNL     1      60.468  62.381  68.676  0.00  0.00    +0.000 A 
ATOM     26  C   UNL     1      60.494  62.265  69.493  0.00  0.00    +0.000 C 
ENDROOT
TORSDOF 0
ENDMDL
MODEL 5
REMARK VINA RESULT:   -11.845      1.993      2.958
REMARK INTER + INTRA:         -11.845
REMARK INTER:                 -11.845
REMARK INTRA:                   0.000
REMARK UNBOUND:                 0.000
ROOT
REMARK  Name = etretinate
REMARK                            x       y       z     vdW  Elec       q    Type
REMARK                         _______ _______ _______ _____ _____    ______ ____
ATOM      1  C   UNL     1      57.872  65.720  73.222  0.00  0.00    +0.000 C 
ATOM      2  C   UNL     1      58.588  65.646  72.822  0.00  0.00    +0.000 C 
ATOM      3  O   UNL     1      58.621  65.230  72.110  0.00  0.00    +0.000 OA
ATOM      4  C   UNL     1      59.339  65.156  71.709  0.00  0.00    +0.000 C 
ATOM      5  O   UNL     1      60.022  65.497  72.019  0.00  0.00    +0.000 OA
ATOM      6  C   UNL     1      59.372  64.741  70.997  0.00  0.00    +0.000 C 
ATOM      7  C   UNL     1      60.088  64.666  70.595  0.00  0.00    +0.000 C 
ATOM      8  C   UNL     1      60.772  65.007  70.906  0.00  0.00    +0.000 C 
ATOM      9  C   UNL     1      60.121  64.251  69.883  0.00  0.00    +0.000 C 
ATOM     10  C   UNL     1      60.838  64.176  69.481  0.00  0.00    +0.000 C 
ATOM     11  C   UNL     1      60.871  63.761  68.769  0.00  0.00    +0.000 C 
ATOM     12  C   UNL     1      61.588  63.687  68.368  0.00  0.00    +0.000 C 
ATOM     13  C   UNL     1      62.273  64.028  68.679  0.00  0.00    +0.000 C 
ATOM     14  C   UNL     1      61.621  63.271  67.656  0.00  0.00    +0.000 C 
ATOM     15  C   UNL     1      60.937  62.930  67.345  0.00  0.00    +0.000 C 
ATOM     16  C   UNL     1      60.970  62.515  66.634  0.00  0.00    +0.000 A 
ATOM     17  C   UNL     1      60.286  62.174  66.322  0.00  0.00    +0.000 A 
ATOM     18  C   UNL     1      59.570  62.249  66.724  0.00  0.00    +0.000 C 
ATOM     19  C   UNL     1      60.319  61.759  65.610  0.00  0.00    +0.000 A 
ATOM     20  C   UNL     1      59.636  61.419  65.300  0.00  0.00    +0.000 C 
ATOM     21  C   UNL     1      61.036  61.685  65.210  0.00  0.00    +0.000 A 
ATOM     22  O   UNL     1      61.069  61.269  64.497  0.00  0.00    +0.000 OA
ATOM     23  C   UNL     1      60.385  60.929  64.186  0.00  0.00    +0.000 C 
ATOM     24  C   UNL     1      61.720  62.026  65.520  0.00  0.00    +0.000 A 
ATOM     25  C   UNL     1      61.687  62.441  66.232  0.00  0.00    +0.000 A 
ATOM     26  C   UNL     1      62.372  62.782  66.543  0.00  0.00    +0.000 C 
ENDROOT
TORSDOF 0
ENDMDL
MODEL 6
REMARK VINA RESULT:   -11.543      5.132      6.690
REMARK INTER + INTRA:         -11.543
REMARK INTER:                 -11.543
REMARK INTRA:                   0.000
REMARK UNBOUND:                 0.000
ROOT
REMARK  Name = etretinate
REMARK                            x       y       z     vdW  Elec       q    Type
REMARK                         _______ _______ _______ _____ _____    ______ ____
ATOM      1  C   UNL     1      66.878  68.337  69.849  0.00  0.00    +0.000 C 
ATOM      2  C   UNL     1      66.477  67.619  69.903  0.00  0.00    +0.000 C 
ATOM      3  O   UNL     1      65.706  67.598  70.195  0.00  0.00    +0.000 OA
ATOM      4  C   UNL     1      65.304  66.879  70.249  0.00  0.00    +0.000 C 
ATOM      5  O   UNL     1      65.674  66.182  70.011  0.00  0.00    +0.000 OA
ATOM      6  C   UNL     1      64.533  66.859  70.541  0.00  0.00    +0.000 C 
ATOM      7  C   UNL     1      64.131  66.141  70.595  0.00  0.00    +0.000 C 
ATOM      8  C   UNL     1      64.501  65.443  70.357  0.00  0.00    +0.000 C 
ATOM      9  C   UNL     1      63.359  66.121  70.887  0.00  0.00    +0.000 C 
ATOM     10  C   UNL     1      62.957  65.402  70.941  0.00  0.00    +0.000 C 
ATOM     11  C   UNL     1      62.186  65.382  71.233  0.00  0.00    +0.000 C 
ATOM     12  C   UNL     1      61.785  64.663  71.287  0.00  0.00    +0.000 C 
ATOM     13  C   UNL     1      62.154  63.964  71.050  0.00  0.00    +0.000 C 
ATOM     14  C   UNL     1      61.013  64.643  71.579  0.00  0.00    +0.000 C 
ATOM     15  C   UNL     1      60.643  65.341  71.817  0.00  0.00    +0.000 C 
ATOM     16  C   UNL     1      59.873  65.321  72.109  0.00  0.00    +0.000 A 
ATOM     17  C   UNL     1      59.503  66.019  72.347  0.00  0.00    +0.000 A 
ATOM     18  C   UNL     1      59.905  66.737  72.292  0.00  0.00    +0.000 C 
ATOM     19  C   UNL     1      58.731  65.999  72.639  0.00  0.00    +0.000 A 
ATOM     20  C   UNL     1      58.362  66.696  72.876  0.00  0.00    +0.000 C 
ATOM     21  C   UNL     1      58.330  65.280  72.693  0.00  0.00    +0.000 A 
ATOM     22  O   UNL     1      57.558  65.260  72.985  0.00  0.00    +0.000 OA
ATOM     23  C   UNL     1      57.189  65.958  73.222  0.00  0.00    +0.000 C 
ATOM     24  C   UNL     1      58.699  64.582  72.455  0.00  0.00    +0.000 A 
ATOM     25  C   UNL     1      59.471  64.602  72.163  0.00  0.00    +0.000 A 
ATOM     26  C   UNL     1      59.841  63.903  71.925  0.00  0.00    +0.000 C 
ENDROOT
TORSDOF 0
ENDMDL
MODEL 7
REMARK VINA RESULT:   -11.375      4.183      5.707
REMARK INTER + INTRA:         -11.375
REMARK INTER:                 -11.375
REMARK INTRA:                   0.000
REMARK UNBOUND:                 0.000
ROOT
REMARK  Name = etretinate
REMARK                            x       y       z     vdW  Elec       q    Type
REMARK                         _______ _______ _______ _____ _____    ______ ____
ATOM      1  C   UNL     1      67.845  68.344  69.097  0.00  0.00    +0.000 C 
ATOM      2  C   UNL     1      67.271  68.295  69.687  0.00  0.00    +0.000 C 
ATOM      3  O   UNL     1      66.719  67.682  69.675  0.00  0.00    +0.000 OA
ATOM      4  C   UNL     1      66.145  67.634  70.266  0.00  0.00    +0.000 C 
ATOM      5  O   UNL     1      66.123  68.197  70.868  0.00  0.00    +0.000 OA
ATOM      6  C   UNL     1      65.593  67.021  70.254  0.00  0.00    +0.000 C 
ATOM      7  C   UNL     1      65.018  66.971  70.844  0.00  0.00    +0.000 C 
ATOM      8  C   UNL     1      64.997  67.535  71.446  0.00  0.00    +0.000 C 
ATOM      9  C   UNL     1      64.466  66.358  70.832  0.00  0.00    +0.000 C 
ATOM     10  C   UNL     1      63.892  66.309  71.422  0.00  0.00    +0.000 C 
ATOM     11  C   UNL     1      63.339  65.696  71.410  0.00  0.00    +0.000 C 
ATOM     12  C   UNL     1      62.765  65.647  72.001  0.00  0.00    +0.000 C 
ATOM     13  C   UNL     1      62.743  66.211  72.604  0.00  0.00    +0.000 C 
ATOM     14  C   UNL     1      62.213  65.035  71.989  0.00  0.00    +0.000 C 
ATOM     15  C   UNL     1      62.235  64.470  71.387  0.00  0.00    +0.000 C 
ATOM     16  C   UNL     1      61.683  63.858  71.375  0.00  0.00    +0.000 A 
ATOM     17  C   UNL     1      61.705  63.295  70.773  0.00  0.00    +0.000 A 
ATOM     18  C   UNL     1      62.279  63.345  70.183  0.00  0.00    +0.000 C 
ATOM     19  C   UNL     1      61.152  62.682  70.761  0.00  0.00    +0.000 A 
ATOM     20  C   UNL     1      61.174  62.119  70.160  0.00  0.00    +0.000 C 
ATOM     21  C   UNL     1      60.579  62.633  71.351  0.00  0.00    +0.000 A 
ATOM     22  O   UNL     1      60.026  62.020  71.340  0.00  0.00    +0.000 OA
ATOM     23  C   UNL     1      60.048  61.457  70.738  0.00  0.00    +0.000 C 
ATOM     24  C   UNL     1      60.556  63.196  71.954  0.00  0.00    +0.000 A 
ATOM     25  C   UNL     1      61.108  63.809  71.966  0.00  0.00    +0.000 A 
ATOM     26  C   UNL     1      61.087  64.373  72.568  0.00  0.00    +0.000 C 
ENDROOT
TORSDOF 0
ENDMDL
