MODEL 1
REMARK VINA RESULT:   -11.630      0.000      0.000
REMARK INTER + INTRA:         -11.630
REMARK INTER:                 -11.630
REMARK INTRA:                   0.000
REMARK UNBOUND:                 0.000
ROOT
REMARK  Name = etymemazine
REMARK                            x       y       z     vdW  Elec       q    Type
REMARK                         _______ _______ _______ _____ _____    ______ ____
ATOM      1  C   UNL     1      59.968  62.357  67.040  0.00  0.00    +0.000 C 
ATOM      2  C   UNL     1      59.973  62.929  67.634  0.00  0.00    +0.000 C 
ATOM      3  C   UNL     1      60.204  62.726  68.400  0.00  0.00    +0.000 A 
ATOM      4  C   UNL     1      60.431  61.952  68.571  0.00  0.00    +0.000 A 
ATOM      5  C   UNL     1      60.661  61.749  69.336  0.00  0.00    +0.000 A 
ATOM      6  C   UNL     1      60.667  62.320  69.931  0.00  0.00    +0.000 A 
ATOM      7  S   UNL     1      60.898  62.117  70.696  0.00  0.00    +0.000 S 
ATOM      8  C   UNL     1      60.903  62.689  71.290  0.00  0.00    +0.000 A 
ATOM      9  C   UNL     1      61.134  62.486  72.057  0.00  0.00    +0.000 A 
ATOM     10  C   UNL     1      61.139  63.058  72.651  0.00  0.00    +0.000 A 
ATOM     11  C   UNL     1      60.913  63.833  72.480  0.00  0.00    +0.000 A 
ATOM     12  C   UNL     1      60.681  64.036  71.714  0.00  0.00    +0.000 A 
ATOM     13  C   UNL     1      60.676  63.464  71.120  0.00  0.00    +0.000 A 
ATOM     14  N   UNL     1      60.445  63.667  70.354  0.00  0.00    +0.000 N 
ATOM     15  C   UNL     1      60.219  64.441  70.183  0.00  0.00    +0.000 C 
ATOM     16  C   UNL     1      59.988  64.644  69.418  0.00  0.00    +0.000 C 
ATOM     17  C   UNL     1      59.983  64.073  68.823  0.00  0.00    +0.000 C 
ATOM     18  C   UNL     1      59.762  65.419  69.247  0.00  0.00    +0.000 C 
ATOM     19  N   UNL     1      59.767  65.991  69.842  0.00  0.00    +0.000 NA
ATOM     20  C   UNL     1      59.998  65.788  70.606  0.00  0.00    +0.000 C 
ATOM     21  C   UNL     1      59.540  66.766  69.671  0.00  0.00    +0.000 C 
ATOM     22  C   UNL     1      60.440  63.095  69.759  0.00  0.00    +0.000 A 
ATOM     23  C   UNL     1      60.209  63.297  68.994  0.00  0.00    +0.000 A 
ENDROOT
TORSDOF 0
ENDMDL
MODEL 2
REMARK VINA RESULT:   -11.377      0.588      2.963
REMARK INTER + INTRA:         -11.377
REMARK INTER:                 -11.377
REMARK INTRA:                   0.000
REMARK UNBOUND:                 0.000
ROOT
REMARK  Name = etymemazine
REMARK                            x       y       z     vdW  Elec       q    Type
REMARK                         _______ _______ _______ _____ _____    ______ ____
ATOM      1  C   UNL     1      61.607  62.704  73.213  0.00  0.00    +0.000 C 
ATOM      2  C   UNL     1      61.310  63.166  72.598  0.00  0.00    +0.000 C 
ATOM      3  C   UNL     1      61.179  62.830  71.856  0.00  0.00    +0.000 A 
ATOM      4  C   UNL     1      61.346  62.033  71.728  0.00  0.00    +0.000 A 
ATOM      5  C   UNL     1      61.216  61.698  70.987  0.00  0.00    +0.000 A 
ATOM      6  C   UNL     1      60.918  62.159  70.371  0.00  0.00    +0.000 A 
ATOM      7  S   UNL     1      60.787  61.823  69.629  0.00  0.00    +0.000 S 
ATOM      8  C   UNL     1      60.490  62.285  69.015  0.00  0.00    +0.000 A 
ATOM      9  C   UNL     1      60.359  61.949  68.271  0.00  0.00    +0.000 A 
ATOM     10  C   UNL     1      60.061  62.412  67.657  0.00  0.00    +0.000 A 
ATOM     11  C   UNL     1      59.894  63.209  67.783  0.00  0.00    +0.000 A 
ATOM     12  C   UNL     1      60.025  63.545  68.527  0.00  0.00    +0.000 A 
ATOM     13  C   UNL     1      60.322  63.083  69.141  0.00  0.00    +0.000 A 
ATOM     14  N   UNL     1      60.453  63.419  69.883  0.00  0.00    +0.000 N 
ATOM     15  C   UNL     1      60.286  64.217  70.011  0.00  0.00    +0.000 C 
ATOM     16  C   UNL     1      60.416  64.552  70.752  0.00  0.00    +0.000 C 
ATOM     17  C   UNL     1      60.714  64.090  71.368  0.00  0.00    +0.000 C 
ATOM     18  C   UNL     1      60.249  65.350  70.880  0.00  0.00    +0.000 C 
ATOM     19  N   UNL     1      59.951  65.812  70.264  0.00  0.00    +0.000 NA
ATOM     20  C   UNL     1      59.821  65.477  69.523  0.00  0.00    +0.000 C 
ATOM     21  C   UNL     1      59.784  66.610  70.392  0.00  0.00    +0.000 C 
ATOM     22  C   UNL     1      60.751  62.957  70.499  0.00  0.00    +0.000 A 
ATOM     23  C   UNL     1      60.881  63.292  71.240  0.00  0.00    +0.000 A 
ENDROOT
TORSDOF 0
ENDMDL
MODEL 3
REMARK VINA RESULT:   -11.298      0.999      3.250
REMARK INTER + INTRA:         -11.298
REMARK INTER:                 -11.298
REMARK INTRA:                   0.000
REMARK UNBOUND:                 0.000
ROOT
REMARK  Name = etymemazine
REMARK                            x       y       z     vdW  Elec       q    Type
REMARK                         _______ _______ _______ _____ _____    ______ ____
ATOM      1  C   UNL     1      62.017  60.891  72.264  0.00  0.00    +0.000 C 
ATOM      2  C   UNL     1      61.685  61.284  71.620  0.00  0.00    +0.000 C 
ATOM      3  C   UNL     1      61.433  62.066  71.698  0.00  0.00    +0.000 A 
ATOM      4  C   UNL     1      61.514  62.455  72.421  0.00  0.00    +0.000 A 
ATOM      5  C   UNL     1      61.262  63.235  72.500  0.00  0.00    +0.000 A 
ATOM      6  C   UNL     1      60.930  63.629  71.856  0.00  0.00    +0.000 A 
ATOM      7  S   UNL     1      60.678  64.411  71.934  0.00  0.00    +0.000 S 
ATOM      8  C   UNL     1      60.346  64.803  71.290  0.00  0.00    +0.000 A 
ATOM      9  C   UNL     1      60.094  65.586  71.369  0.00  0.00    +0.000 A 
ATOM     10  C   UNL     1      59.762  65.979  70.724  0.00  0.00    +0.000 A 
ATOM     11  C   UNL     1      59.681  65.591  70.001  0.00  0.00    +0.000 A 
ATOM     12  C   UNL     1      59.933  64.808  69.922  0.00  0.00    +0.000 A 
ATOM     13  C   UNL     1      60.265  64.415  70.566  0.00  0.00    +0.000 A 
ATOM     14  N   UNL     1      60.517  63.634  70.488  0.00  0.00    +0.000 N 
ATOM     15  C   UNL     1      60.436  63.245  69.765  0.00  0.00    +0.000 C 
ATOM     16  C   UNL     1      60.688  62.464  69.686  0.00  0.00    +0.000 C 
ATOM     17  C   UNL     1      61.020  62.070  70.330  0.00  0.00    +0.000 C 
ATOM     18  C   UNL     1      60.607  62.075  68.962  0.00  0.00    +0.000 C 
ATOM     19  N   UNL     1      60.275  62.469  68.318  0.00  0.00    +0.000 NA
ATOM     20  C   UNL     1      60.023  63.249  68.397  0.00  0.00    +0.000 C 
ATOM     21  C   UNL     1      60.194  62.080  67.594  0.00  0.00    +0.000 C 
ATOM     22  C   UNL     1      60.850  63.240  71.133  0.00  0.00    +0.000 A 
ATOM     23  C   UNL     1      61.101  62.459  71.054  0.00  0.00    +0.000 A 
ENDROOT
TORSDOF 0
ENDMDL
MODEL 4
REMARK VINA RESULT:   -10.839      3.094      3.819
REMARK INTER + INTRA:         -10.839
REMARK INTER:                 -10.839
REMARK INTRA:                   0.000
REMARK UNBOUND:                 0.000
ROOT
REMARK  Name = etymemazine
REMARK                            x       y       z     vdW  Elec       q    Type
REMARK                         _______ _______ _______ _____ _____    ______ ____
ATOM      1  C   UNL     1      65.005  66.038  69.356  0.00  0.00    +0.000 C 
ATOM      2  C   UNL     1      64.484  66.176  69.979  0.00  0.00    +0.000 C 
ATOM      3  C   UNL     1      63.972  65.579  70.229  0.00  0.00    +0.000 A 
ATOM      4  C   UNL     1      63.983  64.843  69.856  0.00  0.00    +0.000 A 
ATOM      5  C   UNL     1      63.472  64.247  70.105  0.00  0.00    +0.000 A 
ATOM      6  C   UNL     1      62.950  64.384  70.729  0.00  0.00    +0.000 A 
ATOM      7  S   UNL     1      62.439  63.787  70.979  0.00  0.00    +0.000 S 
ATOM      8  C   UNL     1      61.917  63.925  71.602  0.00  0.00    +0.000 A 
ATOM      9  C   UNL     1      61.405  63.327  71.852  0.00  0.00    +0.000 A 
ATOM     10  C   UNL     1      60.883  63.466  72.477  0.00  0.00    +0.000 A 
ATOM     11  C   UNL     1      60.873  64.200  72.850  0.00  0.00    +0.000 A 
ATOM     12  C   UNL     1      61.385  64.798  72.600  0.00  0.00    +0.000 A 
ATOM     13  C   UNL     1      61.906  64.660  71.977  0.00  0.00    +0.000 A 
ATOM     14  N   UNL     1      62.417  65.258  71.727  0.00  0.00    +0.000 N 
ATOM     15  C   UNL     1      62.407  65.993  72.100  0.00  0.00    +0.000 C 
ATOM     16  C   UNL     1      62.918  66.590  71.850  0.00  0.00    +0.000 C 
ATOM     17  C   UNL     1      63.440  66.452  71.227  0.00  0.00    +0.000 C 
ATOM     18  C   UNL     1      62.907  67.326  72.224  0.00  0.00    +0.000 C 
ATOM     19  N   UNL     1      62.385  67.463  72.848  0.00  0.00    +0.000 NA
ATOM     20  C   UNL     1      61.874  66.866  73.098  0.00  0.00    +0.000 C 
ATOM     21  C   UNL     1      62.374  68.199  73.222  0.00  0.00    +0.000 C 
ATOM     22  C   UNL     1      62.940  65.120  71.102  0.00  0.00    +0.000 A 
ATOM     23  C   UNL     1      63.450  65.716  70.853  0.00  0.00    +0.000 A 
ENDROOT
TORSDOF 0
ENDMDL
MODEL 5
REMARK VINA RESULT:   -10.780      3.174      4.135
REMARK INTER + INTRA:         -10.780
REMARK INTER:                 -10.780
REMARK INTRA:                   0.000
REMARK UNBOUND:                 0.000
ROOT
REMARK  Name = etymemazine
REMARK                            x       y       z     vdW  Elec       q    Type
REMARK                         _______ _______ _______ _____ _____    ______ ____
ATOM      1  C   UNL     1      60.626  63.214  72.342  0.00  0.00    +0.000 C 
ATOM      2  C   UNL     1      61.047  63.922  72.309  0.00  0.00    +0.000 C 
ATOM      3  C   UNL     1      61.651  64.018  71.755  0.00  0.00    +0.000 A 
ATOM      4  C   UNL     1      61.833  63.405  71.233  0.00  0.00    +0.000 A 
ATOM      5  C   UNL     1      62.436  63.501  70.679  0.00  0.00    +0.000 A 
ATOM      6  C   UNL     1      62.857  64.209  70.646  0.00  0.00    +0.000 A 
ATOM      7  S   UNL     1      63.461  64.304  70.091  0.00  0.00    +0.000 S 
ATOM      8  C   UNL     1      63.882  65.012  70.058  0.00  0.00    +0.000 A 
ATOM      9  C   UNL     1      64.486  65.108  69.503  0.00  0.00    +0.000 A 
ATOM     10  C   UNL     1      64.907  65.817  69.471  0.00  0.00    +0.000 A 
ATOM     11  C   UNL     1      64.725  66.430  69.992  0.00  0.00    +0.000 A 
ATOM     12  C   UNL     1      64.121  66.334  70.547  0.00  0.00    +0.000 A 
ATOM     13  C   UNL     1      63.700  65.626  70.580  0.00  0.00    +0.000 A 
ATOM     14  N   UNL     1      63.097  65.530  71.134  0.00  0.00    +0.000 N 
ATOM     15  C   UNL     1      62.915  66.142  71.656  0.00  0.00    +0.000 C 
ATOM     16  C   UNL     1      62.312  66.047  72.210  0.00  0.00    +0.000 C 
ATOM     17  C   UNL     1      61.890  65.339  72.243  0.00  0.00    +0.000 C 
ATOM     18  C   UNL     1      62.130  66.660  72.732  0.00  0.00    +0.000 C 
ATOM     19  N   UNL     1      62.551  67.368  72.698  0.00  0.00    +0.000 NA
ATOM     20  C   UNL     1      63.154  67.464  72.144  0.00  0.00    +0.000 C 
ATOM     21  C   UNL     1      62.369  67.982  73.220  0.00  0.00    +0.000 C 
ATOM     22  C   UNL     1      62.675  64.821  71.167  0.00  0.00    +0.000 A 
ATOM     23  C   UNL     1      62.072  64.726  71.721  0.00  0.00    +0.000 A 
ENDROOT
TORSDOF 0
ENDMDL
MODEL 6
REMARK VINA RESULT:   -10.634      0.899      2.853
REMARK INTER + INTRA:         -10.634
REMARK INTER:                 -10.634
REMARK INTRA:                   0.000
REMARK UNBOUND:                 0.000
ROOT
REMARK  Name = etymemazine
REMARK                            x       y       z     vdW  Elec       q    Type
REMARK                         _______ _______ _______ _____ _____    ______ ____
ATOM      1  C   UNL     1      59.413  66.880  69.116  0.00  0.00    +0.000 C 
ATOM      2  C   UNL     1      59.602  66.078  69.097  0.00  0.00    +0.000 C 
ATOM      3  C   UNL     1      59.882  65.704  69.777  0.00  0.00    +0.000 A 
ATOM      4  C   UNL     1      59.972  66.132  70.477  0.00  0.00    +0.000 A 
ATOM      5  C   UNL     1      60.250  65.758  71.156  0.00  0.00    +0.000 A 
ATOM      6  C   UNL     1      60.440  64.956  71.138  0.00  0.00    +0.000 A 
ATOM      7  S   UNL     1      60.719  64.581  71.818  0.00  0.00    +0.000 S 
ATOM      8  C   UNL     1      60.908  63.779  71.799  0.00  0.00    +0.000 A 
ATOM      9  C   UNL     1      61.188  63.405  72.480  0.00  0.00    +0.000 A 
ATOM     10  C   UNL     1      61.377  62.602  72.460  0.00  0.00    +0.000 A 
ATOM     11  C   UNL     1      61.287  62.173  71.762  0.00  0.00    +0.000 A 
ATOM     12  C   UNL     1      61.008  62.548  71.081  0.00  0.00    +0.000 A 
ATOM     13  C   UNL     1      60.819  63.350  71.100  0.00  0.00    +0.000 A 
ATOM     14  N   UNL     1      60.540  63.724  70.420  0.00  0.00    +0.000 N 
ATOM     15  C   UNL     1      60.450  63.296  69.720  0.00  0.00    +0.000 C 
ATOM     16  C   UNL     1      60.171  63.670  69.041  0.00  0.00    +0.000 C 
ATOM     17  C   UNL     1      59.981  64.472  69.059  0.00  0.00    +0.000 C 
ATOM     18  C   UNL     1      60.081  63.241  68.341  0.00  0.00    +0.000 C 
ATOM     19  N   UNL     1      60.270  62.438  68.323  0.00  0.00    +0.000 NA
ATOM     20  C   UNL     1      60.549  62.065  69.002  0.00  0.00    +0.000 C 
ATOM     21  C   UNL     1      60.180  62.009  67.623  0.00  0.00    +0.000 C 
ATOM     22  C   UNL     1      60.350  64.528  70.439  0.00  0.00    +0.000 A 
ATOM     23  C   UNL     1      60.071  64.901  69.759  0.00  0.00    +0.000 A 
ENDROOT
TORSDOF 0
ENDMDL
MODEL 7
REMARK VINA RESULT:   -10.581      2.502      3.602
REMARK INTER + INTRA:         -10.581
REMARK INTER:                 -10.581
REMARK INTRA:                   0.000
REMARK UNBOUND:                 0.000
ROOT
REMARK  Name = etymemazine
REMARK                            x       y       z     vdW  Elec       q    Type
REMARK                         _______ _______ _______ _____ _____    ______ ____
ATOM      1  C   UNL     1      60.361  62.279  71.333  0.00  0.00    +0.000 C 
ATOM      2  C   UNL     1      60.133  63.013  71.633  0.00  0.00    +0.000 C 
ATOM      3  C   UNL     1      60.696  63.606  71.741  0.00  0.00    +0.000 A 
ATOM      4  C   UNL     1      61.486  63.467  71.548  0.00  0.00    +0.000 A 
ATOM      5  C   UNL     1      62.048  64.060  71.656  0.00  0.00    +0.000 A 
ATOM      6  C   UNL     1      61.821  64.794  71.956  0.00  0.00    +0.000 A 
ATOM      7  S   UNL     1      62.384  65.388  72.064  0.00  0.00    +0.000 S 
ATOM      8  C   UNL     1      62.156  66.121  72.364  0.00  0.00    +0.000 A 
ATOM      9  C   UNL     1      62.720  66.715  72.472  0.00  0.00    +0.000 A 
ATOM     10  C   UNL     1      62.492  67.449  72.773  0.00  0.00    +0.000 A 
ATOM     11  C   UNL     1      61.702  67.590  72.966  0.00  0.00    +0.000 A 
ATOM     12  C   UNL     1      61.139  66.995  72.858  0.00  0.00    +0.000 A 
ATOM     13  C   UNL     1      61.366  66.262  72.557  0.00  0.00    +0.000 A 
ATOM     14  N   UNL     1      60.804  65.668  72.450  0.00  0.00    +0.000 N 
ATOM     15  C   UNL     1      60.014  65.807  72.642  0.00  0.00    +0.000 C 
ATOM     16  C   UNL     1      59.452  65.214  72.535  0.00  0.00    +0.000 C 
ATOM     17  C   UNL     1      59.679  64.480  72.234  0.00  0.00    +0.000 C 
ATOM     18  C   UNL     1      58.662  65.354  72.728  0.00  0.00    +0.000 C 
ATOM     19  N   UNL     1      58.435  66.088  73.028  0.00  0.00    +0.000 NA
ATOM     20  C   UNL     1      58.997  66.682  73.136  0.00  0.00    +0.000 C 
ATOM     21  C   UNL     1      57.645  66.229  73.221  0.00  0.00    +0.000 C 
ATOM     22  C   UNL     1      61.031  64.933  72.149  0.00  0.00    +0.000 A 
ATOM     23  C   UNL     1      60.469  64.340  72.041  0.00  0.00    +0.000 A 
ENDROOT
TORSDOF 0
ENDMDL
MODEL 8
REMARK VINA RESULT:   -10.575      2.295      3.390
REMARK INTER + INTRA:         -10.575
REMARK INTER:                 -10.575
REMARK INTRA:                   0.000
REMARK UNBOUND:                 0.000
ROOT
REMARK  Name = etymemazine
REMARK                            x       y       z     vdW  Elec       q    Type
REMARK                         _______ _______ _______ _____ _____    ______ ____
ATOM      1  C   UNL     1      60.472  61.672  70.796  0.00  0.00    +0.000 C 
ATOM      2  C   UNL     1      61.010  62.296  70.813  0.00  0.00    +0.000 C 
ATOM      3  C   UNL     1      60.838  62.976  71.249  0.00  0.00    +0.000 A 
ATOM      4  C   UNL     1      60.129  63.030  71.667  0.00  0.00    +0.000 A 
ATOM      5  C   UNL     1      59.958  63.709  72.102  0.00  0.00    +0.000 A 
ATOM      6  C   UNL     1      60.496  64.334  72.120  0.00  0.00    +0.000 A 
ATOM      7  S   UNL     1      60.324  65.013  72.556  0.00  0.00    +0.000 S 
ATOM      8  C   UNL     1      60.862  65.638  72.574  0.00  0.00    +0.000 A 
ATOM      9  C   UNL     1      60.690  66.318  73.010  0.00  0.00    +0.000 A 
ATOM     10  C   UNL     1      61.228  66.944  73.027  0.00  0.00    +0.000 A 
ATOM     11  C   UNL     1      61.937  66.890  72.609  0.00  0.00    +0.000 A 
ATOM     12  C   UNL     1      62.108  66.210  72.173  0.00  0.00    +0.000 A 
ATOM     13  C   UNL     1      61.571  65.585  72.155  0.00  0.00    +0.000 A 
ATOM     14  N   UNL     1      61.742  64.906  71.720  0.00  0.00    +0.000 N 
ATOM     15  C   UNL     1      62.451  64.851  71.301  0.00  0.00    +0.000 C 
ATOM     16  C   UNL     1      62.622  64.173  70.866  0.00  0.00    +0.000 C 
ATOM     17  C   UNL     1      62.085  63.547  70.848  0.00  0.00    +0.000 C 
ATOM     18  C   UNL     1      63.332  64.119  70.447  0.00  0.00    +0.000 C 
ATOM     19  N   UNL     1      63.869  64.745  70.465  0.00  0.00    +0.000 NA
ATOM     20  C   UNL     1      63.698  65.423  70.901  0.00  0.00    +0.000 C 
ATOM     21  C   UNL     1      64.579  64.691  70.047  0.00  0.00    +0.000 C 
ATOM     22  C   UNL     1      61.204  64.280  71.702  0.00  0.00    +0.000 A 
ATOM     23  C   UNL     1      61.375  63.601  71.267  0.00  0.00    +0.000 A 
ENDROOT
TORSDOF 0
ENDMDL
MODEL 9
REMARK VINA RESULT:   -10.533      2.702      4.469
REMARK INTER + INTRA:         -10.533
REMARK INTER:                 -10.533
REMARK INTRA:                   0.000
REMARK UNBOUND:                 0.000
ROOT
REMARK  Name = etymemazine
REMARK                            x       y       z     vdW  Elec       q    Type
REMARK                         _______ _______ _______ _____ _____    ______ ____
ATOM      1  C   UNL     1      62.814  68.370  73.083  0.00  0.00    +0.000 C 
ATOM      2  C   UNL     1      62.093  67.972  73.038  0.00  0.00    +0.000 C 
ATOM      3  C   UNL     1      62.073  67.179  72.812  0.00  0.00    +0.000 A 
ATOM      4  C   UNL     1      62.773  66.783  72.632  0.00  0.00    +0.000 A 
ATOM      5  C   UNL     1      62.753  65.991  72.406  0.00  0.00    +0.000 A 
ATOM      6  C   UNL     1      62.032  65.592  72.361  0.00  0.00    +0.000 A 
ATOM      7  S   UNL     1      62.012  64.799  72.136  0.00  0.00    +0.000 S 
ATOM      8  C   UNL     1      61.291  64.402  72.091  0.00  0.00    +0.000 A 
ATOM      9  C   UNL     1      61.271  63.607  71.865  0.00  0.00    +0.000 A 
ATOM     10  C   UNL     1      60.549  63.210  71.820  0.00  0.00    +0.000 A 
ATOM     11  C   UNL     1      59.849  63.605  72.001  0.00  0.00    +0.000 A 
ATOM     12  C   UNL     1      59.869  64.399  72.227  0.00  0.00    +0.000 A 
ATOM     13  C   UNL     1      60.590  64.797  72.271  0.00  0.00    +0.000 A 
ATOM     14  N   UNL     1      60.610  65.590  72.497  0.00  0.00    +0.000 N 
ATOM     15  C   UNL     1      59.909  65.986  72.678  0.00  0.00    +0.000 C 
ATOM     16  C   UNL     1      59.929  66.778  72.903  0.00  0.00    +0.000 C 
ATOM     17  C   UNL     1      60.650  67.177  72.948  0.00  0.00    +0.000 C 
ATOM     18  C   UNL     1      59.228  67.174  73.084  0.00  0.00    +0.000 C 
ATOM     19  N   UNL     1      58.507  66.776  73.039  0.00  0.00    +0.000 NA
ATOM     20  C   UNL     1      58.487  65.983  72.813  0.00  0.00    +0.000 C 
ATOM     21  C   UNL     1      57.805  67.172  73.219  0.00  0.00    +0.000 C 
ATOM     22  C   UNL     1      61.332  65.988  72.542  0.00  0.00    +0.000 A 
ATOM     23  C   UNL     1      61.352  66.781  72.767  0.00  0.00    +0.000 A 
ENDROOT
TORSDOF 0
ENDMDL
