MODEL 1
REMARK VINA RESULT:   -11.220      0.000      0.000
REMARK INTER + INTRA:         -11.220
REMARK INTER:                 -11.220
REMARK INTRA:                   0.000
REMARK UNBOUND:                 0.000
ROOT
REMARK  Name = exiproben
REMARK                            x       y       z     vdW  Elec       q    Type
REMARK                         _______ _______ _______ _____ _____    ______ ____
ATOM      1  C   UNL     1      60.576  63.946  72.733  0.00  0.00    +0.000 C 
ATOM      2  C   UNL     1      60.329  63.530  72.065  0.00  0.00    +0.000 C 
ATOM      3  C   UNL     1      60.757  63.585  71.362  0.00  0.00    +0.000 C 
ATOM      4  C   UNL     1      60.509  63.170  70.694  0.00  0.00    +0.000 C 
ATOM      5  C   UNL     1      60.937  63.225  69.991  0.00  0.00    +0.000 C 
ATOM      6  C   UNL     1      60.689  62.809  69.323  0.00  0.00    +0.000 C 
ATOM      7  O   UNL     1      61.117  62.864  68.620  0.00  0.00    +0.000 OA
ATOM      8  C   UNL     1      60.869  62.448  67.952  0.00  0.00    +0.000 C 
ATOM      9  C   UNL     1      61.297  62.503  67.249  0.00  0.00    +0.000 C 
ATOM     10  O   UNL     1      61.974  62.974  67.214  0.00  0.00    +0.000 OA
ATOM     11  C   UNL     1      61.049  62.087  66.581  0.00  0.00    +0.000 C 
ATOM     12  O   UNL     1      61.477  62.142  65.879  0.00  0.00    +0.000 OA
ATOM     13  C   UNL     1      61.229  61.726  65.210  0.00  0.00    +0.000 A 
ATOM     14  C   UNL     1      61.657  61.781  64.508  0.00  0.00    +0.000 A 
ATOM     15  C   UNL     1      61.409  61.365  63.840  0.00  0.00    +0.000 A 
ATOM     16  C   UNL     1      60.733  60.894  63.875  0.00  0.00    +0.000 A 
ATOM     17  C   UNL     1      60.304  60.839  64.578  0.00  0.00    +0.000 A 
ATOM     18  C   UNL     1      60.553  61.255  65.245  0.00  0.00    +0.000 A 
ATOM     19  C   UNL     1      62.334  62.253  64.473  0.00  0.00    +0.000 C 
ATOM     20  O   UNL     1      62.762  62.307  63.770  0.00  0.00    +0.000 OA
ATOM     21  O   UNL     1      62.582  62.668  65.140  0.00  0.00    +0.000 OA
ENDROOT
TORSDOF 0
ENDMDL
MODEL 2
REMARK VINA RESULT:   -11.075      1.475      6.282
REMARK INTER + INTRA:         -11.075
REMARK INTER:                 -11.075
REMARK INTRA:                   0.000
REMARK UNBOUND:                 0.000
ROOT
REMARK  Name = exiproben
REMARK                            x       y       z     vdW  Elec       q    Type
REMARK                         _______ _______ _______ _____ _____    ______ ____
ATOM      1  C   UNL     1      62.385  61.721  63.465  0.00  0.00    +0.000 C 
ATOM      2  C   UNL     1      62.379  61.614  64.283  0.00  0.00    +0.000 C 
ATOM      3  C   UNL     1      61.992  62.157  64.768  0.00  0.00    +0.000 C 
ATOM      4  C   UNL     1      61.986  62.050  65.586  0.00  0.00    +0.000 C 
ATOM      5  C   UNL     1      61.599  62.593  66.070  0.00  0.00    +0.000 C 
ATOM      6  C   UNL     1      61.592  62.486  66.889  0.00  0.00    +0.000 C 
ATOM      7  O   UNL     1      61.205  63.029  67.373  0.00  0.00    +0.000 OA
ATOM      8  C   UNL     1      61.199  62.922  68.191  0.00  0.00    +0.000 C 
ATOM      9  C   UNL     1      60.812  63.465  68.676  0.00  0.00    +0.000 C 
ATOM     10  O   UNL     1      60.430  64.117  68.342  0.00  0.00    +0.000 OA
ATOM     11  C   UNL     1      60.805  63.358  69.494  0.00  0.00    +0.000 C 
ATOM     12  O   UNL     1      60.419  63.901  69.979  0.00  0.00    +0.000 OA
ATOM     13  C   UNL     1      60.412  63.794  70.797  0.00  0.00    +0.000 A 
ATOM     14  C   UNL     1      60.025  64.337  71.281  0.00  0.00    +0.000 A 
ATOM     15  C   UNL     1      60.019  64.230  72.099  0.00  0.00    +0.000 A 
ATOM     16  C   UNL     1      60.400  63.578  72.432  0.00  0.00    +0.000 A 
ATOM     17  C   UNL     1      60.787  63.034  71.948  0.00  0.00    +0.000 A 
ATOM     18  C   UNL     1      60.793  63.142  71.130  0.00  0.00    +0.000 A 
ATOM     19  C   UNL     1      59.644  64.989  70.948  0.00  0.00    +0.000 C 
ATOM     20  O   UNL     1      59.257  65.533  71.433  0.00  0.00    +0.000 OA
ATOM     21  O   UNL     1      59.650  65.097  70.131  0.00  0.00    +0.000 OA
ENDROOT
TORSDOF 0
ENDMDL
MODEL 3
REMARK VINA RESULT:   -10.878      3.505      5.343
REMARK INTER + INTRA:         -10.878
REMARK INTER:                 -10.878
REMARK INTRA:                   0.000
REMARK UNBOUND:                 0.000
ROOT
REMARK  Name = exiproben
REMARK                            x       y       z     vdW  Elec       q    Type
REMARK                         _______ _______ _______ _____ _____    ______ ____
ATOM      1  C   UNL     1      66.765  68.152  69.848  0.00  0.00    +0.000 C 
ATOM      2  C   UNL     1      66.257  67.636  70.243  0.00  0.00    +0.000 C 
ATOM      3  C   UNL     1      65.750  67.146  69.815  0.00  0.00    +0.000 C 
ATOM      4  C   UNL     1      65.242  66.631  70.210  0.00  0.00    +0.000 C 
ATOM      5  C   UNL     1      64.735  66.141  69.782  0.00  0.00    +0.000 C 
ATOM      6  C   UNL     1      64.227  65.626  70.177  0.00  0.00    +0.000 C 
ATOM      7  O   UNL     1      63.720  65.136  69.749  0.00  0.00    +0.000 OA
ATOM      8  C   UNL     1      63.211  64.620  70.144  0.00  0.00    +0.000 C 
ATOM      9  C   UNL     1      62.705  64.131  69.716  0.00  0.00    +0.000 C 
ATOM     10  O   UNL     1      62.706  64.156  68.891  0.00  0.00    +0.000 OA
ATOM     11  C   UNL     1      62.196  63.615  70.112  0.00  0.00    +0.000 C 
ATOM     12  O   UNL     1      61.690  63.126  69.683  0.00  0.00    +0.000 OA
ATOM     13  C   UNL     1      61.181  62.610  70.079  0.00  0.00    +0.000 A 
ATOM     14  C   UNL     1      60.675  62.120  69.651  0.00  0.00    +0.000 A 
ATOM     15  C   UNL     1      60.167  61.605  70.046  0.00  0.00    +0.000 A 
ATOM     16  C   UNL     1      60.165  61.580  70.871  0.00  0.00    +0.000 A 
ATOM     17  C   UNL     1      60.672  62.069  71.300  0.00  0.00    +0.000 A 
ATOM     18  C   UNL     1      61.180  62.584  70.903  0.00  0.00    +0.000 A 
ATOM     19  C   UNL     1      60.676  62.146  68.825  0.00  0.00    +0.000 C 
ATOM     20  O   UNL     1      60.170  61.656  68.397  0.00  0.00    +0.000 OA
ATOM     21  O   UNL     1      61.184  62.661  68.430  0.00  0.00    +0.000 OA
ENDROOT
TORSDOF 0
ENDMDL
MODEL 4
REMARK VINA RESULT:   -10.653      1.839      2.425
REMARK INTER + INTRA:         -10.653
REMARK INTER:                 -10.653
REMARK INTRA:                   0.000
REMARK UNBOUND:                 0.000
ROOT
REMARK  Name = exiproben
REMARK                            x       y       z     vdW  Elec       q    Type
REMARK                         _______ _______ _______ _____ _____    ______ ____
ATOM      1  C   UNL     1      62.883  66.498  72.737  0.00  0.00    +0.000 C 
ATOM      2  C   UNL     1      63.090  66.115  72.035  0.00  0.00    +0.000 C 
ATOM      3  C   UNL     1      62.510  65.742  71.583  0.00  0.00    +0.000 C 
ATOM      4  C   UNL     1      62.716  65.359  70.881  0.00  0.00    +0.000 C 
ATOM      5  C   UNL     1      62.137  64.987  70.429  0.00  0.00    +0.000 C 
ATOM      6  C   UNL     1      62.343  64.604  69.727  0.00  0.00    +0.000 C 
ATOM      7  O   UNL     1      61.764  64.231  69.274  0.00  0.00    +0.000 OA
ATOM      8  C   UNL     1      61.970  63.848  68.573  0.00  0.00    +0.000 C 
ATOM      9  C   UNL     1      61.391  63.476  68.120  0.00  0.00    +0.000 C 
ATOM     10  O   UNL     1      60.603  63.485  68.369  0.00  0.00    +0.000 OA
ATOM     11  C   UNL     1      61.597  63.093  67.419  0.00  0.00    +0.000 C 
ATOM     12  O   UNL     1      61.018  62.720  66.966  0.00  0.00    +0.000 OA
ATOM     13  C   UNL     1      61.224  62.337  66.265  0.00  0.00    +0.000 A 
ATOM     14  C   UNL     1      60.645  61.964  65.812  0.00  0.00    +0.000 A 
ATOM     15  C   UNL     1      60.851  61.582  65.112  0.00  0.00    +0.000 A 
ATOM     16  C   UNL     1      61.638  61.572  64.864  0.00  0.00    +0.000 A 
ATOM     17  C   UNL     1      62.218  61.945  65.316  0.00  0.00    +0.000 A 
ATOM     18  C   UNL     1      62.011  62.327  66.017  0.00  0.00    +0.000 A 
ATOM     19  C   UNL     1      59.857  61.974  66.060  0.00  0.00    +0.000 C 
ATOM     20  O   UNL     1      59.278  61.601  65.608  0.00  0.00    +0.000 OA
ATOM     21  O   UNL     1      59.650  62.357  66.761  0.00  0.00    +0.000 OA
ENDROOT
TORSDOF 0
ENDMDL
MODEL 5
REMARK VINA RESULT:    -9.292      5.849      7.535
REMARK INTER + INTRA:          -9.292
REMARK INTER:                  -9.292
REMARK INTRA:                   0.000
REMARK UNBOUND:                 0.000
ROOT
REMARK  Name = exiproben
REMARK                            x       y       z     vdW  Elec       q    Type
REMARK                         _______ _______ _______ _____ _____    ______ ____
ATOM      1  C   UNL     1      67.555  68.721  69.335  0.00  0.00    +0.000 C 
ATOM      2  C   UNL     1      67.173  68.003  69.471  0.00  0.00    +0.000 C 
ATOM      3  C   UNL     1      66.453  67.987  69.872  0.00  0.00    +0.000 C 
ATOM      4  C   UNL     1      66.071  67.269  70.008  0.00  0.00    +0.000 C 
ATOM      5  C   UNL     1      65.351  67.253  70.409  0.00  0.00    +0.000 C 
ATOM      6  C   UNL     1      64.969  66.534  70.545  0.00  0.00    +0.000 C 
ATOM      7  O   UNL     1      64.249  66.519  70.946  0.00  0.00    +0.000 OA
ATOM      8  C   UNL     1      63.867  65.800  71.083  0.00  0.00    +0.000 C 
ATOM      9  C   UNL     1      63.147  65.785  71.483  0.00  0.00    +0.000 C 
ATOM     10  O   UNL     1      62.806  66.489  71.748  0.00  0.00    +0.000 OA
ATOM     11  C   UNL     1      62.765  65.066  71.620  0.00  0.00    +0.000 C 
ATOM     12  O   UNL     1      62.044  65.051  72.020  0.00  0.00    +0.000 OA
ATOM     13  C   UNL     1      61.663  64.332  72.157  0.00  0.00    +0.000 A 
ATOM     14  C   UNL     1      60.942  64.316  72.557  0.00  0.00    +0.000 A 
ATOM     15  C   UNL     1      60.561  63.598  72.693  0.00  0.00    +0.000 A 
ATOM     16  C   UNL     1      60.901  62.895  72.429  0.00  0.00    +0.000 A 
ATOM     17  C   UNL     1      61.622  62.909  72.028  0.00  0.00    +0.000 A 
ATOM     18  C   UNL     1      62.003  63.628  71.892  0.00  0.00    +0.000 A 
ATOM     19  C   UNL     1      60.602  65.021  72.822  0.00  0.00    +0.000 C 
ATOM     20  O   UNL     1      59.882  65.006  73.222  0.00  0.00    +0.000 OA
ATOM     21  O   UNL     1      60.983  65.739  72.686  0.00  0.00    +0.000 OA
ENDROOT
TORSDOF 0
ENDMDL
MODEL 6
REMARK VINA RESULT:    -9.062      6.911      8.128
REMARK INTER + INTRA:          -9.062
REMARK INTER:                  -9.062
REMARK INTRA:                   0.000
REMARK UNBOUND:                 0.000
ROOT
REMARK  Name = exiproben
REMARK                            x       y       z     vdW  Elec       q    Type
REMARK                         _______ _______ _______ _____ _____    ______ ____
ATOM      1  C   UNL     1      67.012  67.270  71.311  0.00  0.00    +0.000 C 
ATOM      2  C   UNL     1      66.341  66.792  71.348  0.00  0.00    +0.000 C 
ATOM      3  C   UNL     1      65.614  67.116  71.564  0.00  0.00    +0.000 C 
ATOM      4  C   UNL     1      64.942  66.638  71.601  0.00  0.00    +0.000 C 
ATOM      5  C   UNL     1      64.216  66.962  71.816  0.00  0.00    +0.000 C 
ATOM      6  C   UNL     1      63.544  66.483  71.853  0.00  0.00    +0.000 C 
ATOM      7  O   UNL     1      62.818  66.808  72.069  0.00  0.00    +0.000 OA
ATOM      8  C   UNL     1      62.146  66.329  72.106  0.00  0.00    +0.000 C 
ATOM      9  C   UNL     1      61.420  66.653  72.322  0.00  0.00    +0.000 C 
ATOM     10  O   UNL     1      61.364  67.458  72.501  0.00  0.00    +0.000 OA
ATOM     11  C   UNL     1      60.748  66.175  72.358  0.00  0.00    +0.000 C 
ATOM     12  O   UNL     1      60.022  66.499  72.574  0.00  0.00    +0.000 OA
ATOM     13  C   UNL     1      59.350  66.021  72.611  0.00  0.00    +0.000 A 
ATOM     14  C   UNL     1      58.624  66.345  72.827  0.00  0.00    +0.000 A 
ATOM     15  C   UNL     1      57.953  65.867  72.863  0.00  0.00    +0.000 A 
ATOM     16  C   UNL     1      58.009  65.064  72.684  0.00  0.00    +0.000 A 
ATOM     17  C   UNL     1      58.736  64.739  72.468  0.00  0.00    +0.000 A 
ATOM     18  C   UNL     1      59.406  65.218  72.431  0.00  0.00    +0.000 A 
ATOM     19  C   UNL     1      58.568  67.149  73.007  0.00  0.00    +0.000 C 
ATOM     20  O   UNL     1      57.841  67.473  73.222  0.00  0.00    +0.000 OA
ATOM     21  O   UNL     1      59.238  67.628  72.970  0.00  0.00    +0.000 OA
ENDROOT
TORSDOF 0
ENDMDL
MODEL 7
REMARK VINA RESULT:    -8.944     23.866     25.543
REMARK INTER + INTRA:          -8.944
REMARK INTER:                  -8.944
REMARK INTRA:                   0.000
REMARK UNBOUND:                 0.000
ROOT
REMARK  Name = exiproben
REMARK                            x       y       z     vdW  Elec       q    Type
REMARK                         _______ _______ _______ _____ _____    ______ ____
ATOM      1  C   UNL     1      66.475  81.880  55.335  0.00  0.00    +0.000 C 
ATOM      2  C   UNL     1      67.203  81.892  54.946  0.00  0.00    +0.000 C 
ATOM      3  C   UNL     1      67.325  81.415  54.285  0.00  0.00    +0.000 C 
ATOM      4  C   UNL     1      68.053  81.427  53.896  0.00  0.00    +0.000 C 
ATOM      5  C   UNL     1      68.175  80.950  53.234  0.00  0.00    +0.000 C 
ATOM      6  C   UNL     1      68.903  80.962  52.846  0.00  0.00    +0.000 C 
ATOM      7  O   UNL     1      69.026  80.485  52.184  0.00  0.00    +0.000 OA
ATOM      8  C   UNL     1      69.753  80.497  51.796  0.00  0.00    +0.000 C 
ATOM      9  C   UNL     1      69.876  80.020  51.134  0.00  0.00    +0.000 C 
ATOM     10  O   UNL     1      69.270  79.531  50.860  0.00  0.00    +0.000 OA
ATOM     11  C   UNL     1      70.604  80.031  50.745  0.00  0.00    +0.000 C 
ATOM     12  O   UNL     1      70.726  79.555  50.084  0.00  0.00    +0.000 OA
ATOM     13  C   UNL     1      71.454  79.566  49.695  0.00  0.00    +0.000 A 
ATOM     14  C   UNL     1      71.576  79.090  49.034  0.00  0.00    +0.000 A 
ATOM     15  C   UNL     1      72.303  79.102  48.646  0.00  0.00    +0.000 A 
ATOM     16  C   UNL     1      72.909  79.591  48.920  0.00  0.00    +0.000 A 
ATOM     17  C   UNL     1      72.787  80.068  49.581  0.00  0.00    +0.000 A 
ATOM     18  C   UNL     1      72.059  80.055  49.969  0.00  0.00    +0.000 A 
ATOM     19  C   UNL     1      70.970  78.600  48.760  0.00  0.00    +0.000 C 
ATOM     20  O   UNL     1      71.092  78.124  48.098  0.00  0.00    +0.000 OA
ATOM     21  O   UNL     1      70.243  78.589  49.148  0.00  0.00    +0.000 OA
ENDROOT
TORSDOF 0
ENDMDL
MODEL 8
REMARK VINA RESULT:    -8.751      4.157      5.732
REMARK INTER + INTRA:          -8.751
REMARK INTER:                  -8.751
REMARK INTRA:                   0.000
REMARK UNBOUND:                 0.000
ROOT
REMARK  Name = exiproben
REMARK                            x       y       z     vdW  Elec       q    Type
REMARK                         _______ _______ _______ _____ _____    ______ ____
ATOM      1  C   UNL     1      67.791  67.044  72.974  0.00  0.00    +0.000 C 
ATOM      2  C   UNL     1      67.351  66.492  72.546  0.00  0.00    +0.000 C 
ATOM      3  C   UNL     1      66.580  66.669  72.315  0.00  0.00    +0.000 C 
ATOM      4  C   UNL     1      66.140  66.117  71.887  0.00  0.00    +0.000 C 
ATOM      5  C   UNL     1      65.369  66.293  71.657  0.00  0.00    +0.000 C 
ATOM      6  C   UNL     1      64.929  65.741  71.229  0.00  0.00    +0.000 C 
ATOM      7  O   UNL     1      64.157  65.918  70.998  0.00  0.00    +0.000 OA
ATOM      8  C   UNL     1      63.717  65.366  70.570  0.00  0.00    +0.000 C 
ATOM      9  C   UNL     1      62.946  65.543  70.339  0.00  0.00    +0.000 C 
ATOM     10  O   UNL     1      62.613  66.273  70.536  0.00  0.00    +0.000 OA
ATOM     11  C   UNL     1      62.506  64.991  69.912  0.00  0.00    +0.000 C 
ATOM     12  O   UNL     1      61.734  65.167  69.681  0.00  0.00    +0.000 OA
ATOM     13  C   UNL     1      61.294  64.616  69.253  0.00  0.00    +0.000 A 
ATOM     14  C   UNL     1      60.523  64.792  69.022  0.00  0.00    +0.000 A 
ATOM     15  C   UNL     1      60.084  64.241  68.595  0.00  0.00    +0.000 A 
ATOM     16  C   UNL     1      60.417  63.512  68.398  0.00  0.00    +0.000 A 
ATOM     17  C   UNL     1      61.188  63.334  68.629  0.00  0.00    +0.000 A 
ATOM     18  C   UNL     1      61.627  63.887  69.057  0.00  0.00    +0.000 A 
ATOM     19  C   UNL     1      60.190  65.522  69.219  0.00  0.00    +0.000 C 
ATOM     20  O   UNL     1      59.419  65.698  68.988  0.00  0.00    +0.000 OA
ATOM     21  O   UNL     1      60.629  66.073  69.646  0.00  0.00    +0.000 OA
ENDROOT
TORSDOF 0
ENDMDL
