MODEL 1
REMARK VINA RESULT:    -9.215      0.000      0.000
REMARK INTER + INTRA:          -9.215
REMARK INTER:                  -9.215
REMARK INTRA:                   0.000
REMARK UNBOUND:                 0.000
ROOT
REMARK  Name = famotidine
REMARK                            x       y       z     vdW  Elec       q    Type
REMARK                         _______ _______ _______ _____ _____    ______ ____
ATOM      1  N   UNL     1      59.097  66.019  72.244  0.00  0.00    +0.000 NA
ATOM      2  C   UNL     1      59.358  65.828  71.485  0.00  0.00    +0.000 C 
ATOM      3  N   UNL     1      59.385  66.409  70.900  0.00  0.00    +0.000 NA
ATOM      4  N   UNL     1      59.590  65.056  71.310  0.00  0.00    +0.000 NA
ATOM      5  C   UNL     1      59.850  64.864  70.551  0.00  0.00    +0.000 A 
ATOM      6  N   UNL     1      60.098  64.120  70.297  0.00  0.00    +0.000 NA
ATOM      7  C   UNL     1      60.309  64.180  69.501  0.00  0.00    +0.000 A 
ATOM      8  C   UNL     1      60.588  63.566  69.027  0.00  0.00    +0.000 C 
ATOM      9  S   UNL     1      60.778  63.709  68.236  0.00  0.00    +0.000 S 
ATOM     10  C   UNL     1      61.058  63.095  67.762  0.00  0.00    +0.000 C 
ATOM     11  C   UNL     1      61.248  63.238  66.971  0.00  0.00    +0.000 C 
ATOM     12  C   UNL     1      61.527  62.624  66.497  0.00  0.00    +0.000 C 
ATOM     13  N   UNL     1      61.617  61.867  66.812  0.00  0.00    +0.000 NA
ATOM     14  N   UNL     1      61.717  62.767  65.707  0.00  0.00    +0.000 NA
ATOM     15  S   UNL     1      61.996  62.153  65.232  0.00  0.00    +0.000 S 
ATOM     16  N   UNL     1      62.276  61.539  64.757  0.00  0.00    +0.000 NA
ATOM     17  O   UNL     1      62.054  62.673  64.594  0.00  0.00    +0.000 OA
ATOM     18  O   UNL     1      61.939  61.634  65.870  0.00  0.00    +0.000 OA
ATOM     19  C   UNL     1      60.191  64.961  69.264  0.00  0.00    +0.000 A 
ATOM     20  S   UNL     1      59.907  65.384  69.913  0.00  0.00    +0.000 S 
ENDROOT
TORSDOF 0
ENDMDL
MODEL 2
REMARK VINA RESULT:    -9.108      2.519      5.946
REMARK INTER + INTRA:          -9.108
REMARK INTER:                  -9.108
REMARK INTRA:                   0.000
REMARK UNBOUND:                 0.000
ROOT
REMARK  Name = famotidine
REMARK                            x       y       z     vdW  Elec       q    Type
REMARK                         _______ _______ _______ _____ _____    ______ ____
ATOM      1  N   UNL     1      62.235  61.628  63.478  0.00  0.00    +0.000 NA
ATOM      2  C   UNL     1      61.902  61.687  64.231  0.00  0.00    +0.000 C 
ATOM      3  N   UNL     1      61.266  61.204  64.439  0.00  0.00    +0.000 NA
ATOM      4  N   UNL     1      62.203  62.229  64.775  0.00  0.00    +0.000 NA
ATOM      5  C   UNL     1      61.869  62.288  65.527  0.00  0.00    +0.000 A 
ATOM      6  N   UNL     1      62.111  62.801  66.126  0.00  0.00    +0.000 NA
ATOM      7  C   UNL     1      61.626  62.673  66.782  0.00  0.00    +0.000 A 
ATOM      8  C   UNL     1      61.674  63.069  67.504  0.00  0.00    +0.000 C 
ATOM      9  S   UNL     1      61.149  62.882  68.112  0.00  0.00    +0.000 S 
ATOM     10  C   UNL     1      61.197  63.277  68.834  0.00  0.00    +0.000 C 
ATOM     11  C   UNL     1      60.671  63.090  69.443  0.00  0.00    +0.000 C 
ATOM     12  C   UNL     1      60.720  63.486  70.165  0.00  0.00    +0.000 C 
ATOM     13  N   UNL     1      61.293  64.068  70.280  0.00  0.00    +0.000 NA
ATOM     14  N   UNL     1      60.194  63.298  70.774  0.00  0.00    +0.000 NA
ATOM     15  S   UNL     1      60.243  63.694  71.496  0.00  0.00    +0.000 S 
ATOM     16  N   UNL     1      60.290  64.089  72.219  0.00  0.00    +0.000 NA
ATOM     17  O   UNL     1      59.608  63.249  71.782  0.00  0.00    +0.000 OA
ATOM     18  O   UNL     1      60.876  64.138  71.211  0.00  0.00    +0.000 OA
ATOM     19  C   UNL     1      61.085  62.082  66.588  0.00  0.00    +0.000 A 
ATOM     20  S   UNL     1      61.235  61.843  65.812  0.00  0.00    +0.000 S 
ENDROOT
TORSDOF 0
ENDMDL
MODEL 3
REMARK VINA RESULT:    -8.750      2.781      5.919
REMARK INTER + INTRA:          -8.750
REMARK INTER:                  -8.750
REMARK INTRA:                   0.000
REMARK UNBOUND:                 0.000
ROOT
REMARK  Name = famotidine
REMARK                            x       y       z     vdW  Elec       q    Type
REMARK                         _______ _______ _______ _____ _____    ______ ____
ATOM      1  N   UNL     1      61.957  61.321  65.668  0.00  0.00    +0.000 NA
ATOM      2  C   UNL     1      61.702  61.947  66.141  0.00  0.00    +0.000 C 
ATOM      3  N   UNL     1      61.684  62.713  65.835  0.00  0.00    +0.000 NA
ATOM      4  N   UNL     1      61.466  61.808  66.919  0.00  0.00    +0.000 NA
ATOM      5  C   UNL     1      61.211  62.434  67.391  0.00  0.00    +0.000 A 
ATOM      6  N   UNL     1      60.960  62.379  68.175  0.00  0.00    +0.000 NA
ATOM      7  C   UNL     1      60.756  63.137  68.431  0.00  0.00    +0.000 A 
ATOM      8  C   UNL     1      60.477  63.336  69.181  0.00  0.00    +0.000 C 
ATOM      9  S   UNL     1      60.295  64.122  69.358  0.00  0.00    +0.000 S 
ATOM     10  C   UNL     1      60.015  64.321  70.108  0.00  0.00    +0.000 C 
ATOM     11  C   UNL     1      59.834  65.106  70.286  0.00  0.00    +0.000 C 
ATOM     12  C   UNL     1      59.554  65.305  71.036  0.00  0.00    +0.000 C 
ATOM     13  N   UNL     1      59.455  64.720  71.608  0.00  0.00    +0.000 NA
ATOM     14  N   UNL     1      59.372  66.091  71.213  0.00  0.00    +0.000 NA
ATOM     15  S   UNL     1      59.092  66.290  71.963  0.00  0.00    +0.000 S 
ATOM     16  N   UNL     1      58.812  66.490  72.713  0.00  0.00    +0.000 NA
ATOM     17  O   UNL     1      59.044  67.082  71.734  0.00  0.00    +0.000 OA
ATOM     18  O   UNL     1      59.140  65.499  72.191  0.00  0.00    +0.000 OA
ATOM     19  C   UNL     1      60.882  63.660  67.806  0.00  0.00    +0.000 A 
ATOM     20  S   UNL     1      61.163  63.226  67.163  0.00  0.00    +0.000 S 
ENDROOT
TORSDOF 0
ENDMDL
MODEL 4
REMARK VINA RESULT:    -7.884      4.932      6.023
REMARK INTER + INTRA:          -7.884
REMARK INTER:                  -7.884
REMARK INTRA:                   0.000
REMARK UNBOUND:                 0.000
ROOT
REMARK  Name = famotidine
REMARK                            x       y       z     vdW  Elec       q    Type
REMARK                         _______ _______ _______ _____ _____    ______ ____
ATOM      1  N   UNL     1      59.816  63.089  68.033  0.00  0.00    +0.000 NA
ATOM      2  C   UNL     1      60.432  63.290  68.543  0.00  0.00    +0.000 C 
ATOM      3  N   UNL     1      60.571  62.839  69.220  0.00  0.00    +0.000 NA
ATOM      4  N   UNL     1      60.909  63.943  68.378  0.00  0.00    +0.000 NA
ATOM      5  C   UNL     1      61.525  64.144  68.888  0.00  0.00    +0.000 A 
ATOM      6  N   UNL     1      62.044  64.778  68.794  0.00  0.00    +0.000 NA
ATOM      7  C   UNL     1      62.570  64.772  69.431  0.00  0.00    +0.000 A 
ATOM      8  C   UNL     1      63.183  65.310  69.557  0.00  0.00    +0.000 C 
ATOM      9  S   UNL     1      63.667  65.234  70.222  0.00  0.00    +0.000 S 
ATOM     10  C   UNL     1      64.279  65.772  70.348  0.00  0.00    +0.000 C 
ATOM     11  C   UNL     1      64.763  65.696  71.013  0.00  0.00    +0.000 C 
ATOM     12  C   UNL     1      65.376  66.234  71.140  0.00  0.00    +0.000 C 
ATOM     13  N   UNL     1      65.505  66.847  70.603  0.00  0.00    +0.000 NA
ATOM     14  N   UNL     1      65.860  66.159  71.804  0.00  0.00    +0.000 NA
ATOM     15  S   UNL     1      66.472  66.696  71.931  0.00  0.00    +0.000 S 
ATOM     16  N   UNL     1      67.086  67.233  72.059  0.00  0.00    +0.000 NA
ATOM     17  O   UNL     1      66.677  66.299  72.625  0.00  0.00    +0.000 OA
ATOM     18  O   UNL     1      66.268  67.093  71.238  0.00  0.00    +0.000 OA
ATOM     19  C   UNL     1      62.376  64.135  69.917  0.00  0.00    +0.000 A 
ATOM     20  S   UNL     1      61.730  63.747  69.582  0.00  0.00    +0.000 S 
ENDROOT
TORSDOF 0
ENDMDL
MODEL 5
REMARK VINA RESULT:    -7.225     14.236     14.494
REMARK INTER + INTRA:          -7.225
REMARK INTER:                  -7.225
REMARK INTRA:                   0.000
REMARK UNBOUND:                 0.000
ROOT
REMARK  Name = famotidine
REMARK                            x       y       z     vdW  Elec       q    Type
REMARK                         _______ _______ _______ _____ _____    ______ ____
ATOM      1  N   UNL     1      61.308  69.590  54.799  0.00  0.00    +0.000 NA
ATOM      2  C   UNL     1      61.677  68.852  54.821  0.00  0.00    +0.000 C 
ATOM      3  N   UNL     1      62.389  68.759  55.228  0.00  0.00    +0.000 NA
ATOM      4  N   UNL     1      61.335  68.208  54.436  0.00  0.00    +0.000 NA
ATOM      5  C   UNL     1      61.704  67.471  54.458  0.00  0.00    +0.000 A 
ATOM      6  N   UNL     1      61.429  66.780  54.101  0.00  0.00    +0.000 NA
ATOM      7  C   UNL     1      61.968  66.177  54.264  0.00  0.00    +0.000 A 
ATOM      8  C   UNL     1      61.908  65.393  54.012  0.00  0.00    +0.000 C 
ATOM      9  S   UNL     1      62.494  64.848  54.218  0.00  0.00    +0.000 S 
ATOM     10  C   UNL     1      62.434  64.065  53.967  0.00  0.00    +0.000 C 
ATOM     11  C   UNL     1      63.019  63.520  54.173  0.00  0.00    +0.000 C 
ATOM     12  C   UNL     1      62.960  62.737  53.922  0.00  0.00    +0.000 C 
ATOM     13  N   UNL     1      62.316  62.498  53.465  0.00  0.00    +0.000 NA
ATOM     14  N   UNL     1      63.545  62.192  54.128  0.00  0.00    +0.000 NA
ATOM     15  S   UNL     1      63.485  61.409  53.877  0.00  0.00    +0.000 S 
ATOM     16  N   UNL     1      63.427  60.625  53.627  0.00  0.00    +0.000 NA
ATOM     17  O   UNL     1      64.195  61.233  54.260  0.00  0.00    +0.000 OA
ATOM     18  O   UNL     1      62.777  61.585  53.495  0.00  0.00    +0.000 OA
ATOM     19  C   UNL     1      62.576  66.494  54.720  0.00  0.00    +0.000 A 
ATOM     20  S   UNL     1      62.414  67.294  54.841  0.00  0.00    +0.000 S 
ENDROOT
TORSDOF 0
ENDMDL
MODEL 6
REMARK VINA RESULT:    -7.127     14.669     15.612
REMARK INTER + INTRA:          -7.127
REMARK INTER:                  -7.127
REMARK INTRA:                   0.000
REMARK UNBOUND:                 0.000
ROOT
REMARK  Name = famotidine
REMARK                            x       y       z     vdW  Elec       q    Type
REMARK                         _______ _______ _______ _____ _____    ______ ____
ATOM      1  N   UNL     1      63.948  59.000  53.531  0.00  0.00    +0.000 NA
ATOM      2  C   UNL     1      63.591  59.738  53.436  0.00  0.00    +0.000 C 
ATOM      3  N   UNL     1      62.945  59.821  52.929  0.00  0.00    +0.000 NA
ATOM      4  N   UNL     1      63.879  60.392  53.847  0.00  0.00    +0.000 NA
ATOM      5  C   UNL     1      63.523  61.129  53.752  0.00  0.00    +0.000 A 
ATOM      6  N   UNL     1      63.749  61.829  54.125  0.00  0.00    +0.000 NA
ATOM      7  C   UNL     1      63.243  62.429  53.871  0.00  0.00    +0.000 A 
ATOM      8  C   UNL     1      63.271  63.219  54.106  0.00  0.00    +0.000 C 
ATOM      9  S   UNL     1      62.725  63.760  53.803  0.00  0.00    +0.000 S 
ATOM     10  C   UNL     1      62.754  64.550  54.038  0.00  0.00    +0.000 C 
ATOM     11  C   UNL     1      62.208  65.090  53.736  0.00  0.00    +0.000 C 
ATOM     12  C   UNL     1      62.237  65.880  53.971  0.00  0.00    +0.000 C 
ATOM     13  N   UNL     1      62.811  66.130  54.508  0.00  0.00    +0.000 NA
ATOM     14  N   UNL     1      61.691  66.420  53.668  0.00  0.00    +0.000 NA
ATOM     15  S   UNL     1      61.719  67.210  53.903  0.00  0.00    +0.000 S 
ATOM     16  N   UNL     1      61.747  68.001  54.138  0.00  0.00    +0.000 NA
ATOM     17  O   UNL     1      61.073  67.378  53.418  0.00  0.00    +0.000 OA
ATOM     18  O   UNL     1      62.365  67.044  54.388  0.00  0.00    +0.000 OA
ATOM     19  C   UNL     1      62.703  62.100  53.341  0.00  0.00    +0.000 A 
ATOM     20  S   UNL     1      62.876  61.297  53.267  0.00  0.00    +0.000 S 
ENDROOT
TORSDOF 0
ENDMDL
MODEL 7
REMARK VINA RESULT:    -7.065     14.241     14.973
REMARK INTER + INTRA:          -7.065
REMARK INTER:                  -7.065
REMARK INTRA:                   0.000
REMARK UNBOUND:                 0.000
ROOT
REMARK  Name = famotidine
REMARK                            x       y       z     vdW  Elec       q    Type
REMARK                         _______ _______ _______ _____ _____    ______ ____
ATOM      1  N   UNL     1      61.586  67.596  53.934  0.00  0.00    +0.000 NA
ATOM      2  C   UNL     1      61.739  66.806  54.119  0.00  0.00    +0.000 C 
ATOM      3  N   UNL     1      61.632  66.535  54.891  0.00  0.00    +0.000 NA
ATOM      4  N   UNL     1      61.997  66.287  53.532  0.00  0.00    +0.000 NA
ATOM      5  C   UNL     1      62.149  65.498  53.716  0.00  0.00    +0.000 A 
ATOM      6  N   UNL     1      62.409  64.918  53.190  0.00  0.00    +0.000 NA
ATOM      7  C   UNL     1      62.489  64.211  53.608  0.00  0.00    +0.000 A 
ATOM      8  C   UNL     1      62.736  63.489  53.296  0.00  0.00    +0.000 C 
ATOM      9  S   UNL     1      62.789  62.825  53.784  0.00  0.00    +0.000 S 
ATOM     10  C   UNL     1      63.036  62.103  53.472  0.00  0.00    +0.000 C 
ATOM     11  C   UNL     1      63.089  61.439  53.960  0.00  0.00    +0.000 C 
ATOM     12  C   UNL     1      63.336  60.717  53.648  0.00  0.00    +0.000 C 
ATOM     13  N   UNL     1      63.530  60.658  52.848  0.00  0.00    +0.000 NA
ATOM     14  N   UNL     1      63.389  60.053  54.136  0.00  0.00    +0.000 NA
ATOM     15  S   UNL     1      63.637  59.331  53.823  0.00  0.00    +0.000 S 
ATOM     16  N   UNL     1      63.884  58.608  53.512  0.00  0.00    +0.000 NA
ATOM     17  O   UNL     1      63.555  58.982  54.567  0.00  0.00    +0.000 OA
ATOM     18  O   UNL     1      63.718  59.679  53.081  0.00  0.00    +0.000 OA
ATOM     19  C   UNL     1      62.278  64.354  54.393  0.00  0.00    +0.000 A 
ATOM     20  S   UNL     1      62.068  65.149  54.460  0.00  0.00    +0.000 S 
ENDROOT
TORSDOF 0
ENDMDL
MODEL 8
REMARK VINA RESULT:    -6.621     15.850     16.588
REMARK INTER + INTRA:          -6.621
REMARK INTER:                  -6.621
REMARK INTRA:                   0.000
REMARK UNBOUND:                 0.000
ROOT
REMARK  Name = famotidine
REMARK                            x       y       z     vdW  Elec       q    Type
REMARK                         _______ _______ _______ _____ _____    ______ ____
ATOM      1  N   UNL     1      66.650  63.936  54.074  0.00  0.00    +0.000 NA
ATOM      2  C   UNL     1      66.124  63.491  53.619  0.00  0.00    +0.000 C 
ATOM      3  N   UNL     1      66.183  63.498  52.797  0.00  0.00    +0.000 NA
ATOM      4  N   UNL     1      65.539  63.041  53.987  0.00  0.00    +0.000 NA
ATOM      5  C   UNL     1      65.013  62.597  53.533  0.00  0.00    +0.000 A 
ATOM      6  N   UNL     1      64.404  62.122  53.822  0.00  0.00    +0.000 NA
ATOM      7  C   UNL     1      64.018  61.781  53.177  0.00  0.00    +0.000 A 
ATOM      8  C   UNL     1      63.374  61.267  53.214  0.00  0.00    +0.000 C 
ATOM      9  S   UNL     1      63.045  60.969  52.518  0.00  0.00    +0.000 S 
ATOM     10  C   UNL     1      62.401  60.454  52.555  0.00  0.00    +0.000 C 
ATOM     11  C   UNL     1      62.071  60.156  51.859  0.00  0.00    +0.000 C 
ATOM     12  C   UNL     1      61.427  59.641  51.896  0.00  0.00    +0.000 C 
ATOM     13  N   UNL     1      61.113  59.425  52.628  0.00  0.00    +0.000 NA
ATOM     14  N   UNL     1      61.098  59.343  51.201  0.00  0.00    +0.000 NA
ATOM     15  S   UNL     1      60.454  58.829  51.238  0.00  0.00    +0.000 S 
ATOM     16  N   UNL     1      59.810  58.314  51.273  0.00  0.00    +0.000 NA
ATOM     17  O   UNL     1      60.445  58.781  50.413  0.00  0.00    +0.000 OA
ATOM     18  O   UNL     1      60.463  58.876  52.061  0.00  0.00    +0.000 OA
ATOM     19  C   UNL     1      64.389  62.045  52.489  0.00  0.00    +0.000 A 
ATOM     20  S   UNL     1      65.004  62.549  52.709  0.00  0.00    +0.000 S 
ENDROOT
TORSDOF 0
ENDMDL
MODEL 9
REMARK VINA RESULT:    -6.402     14.423     15.705
REMARK INTER + INTRA:          -6.402
REMARK INTER:                  -6.402
REMARK INTRA:                   0.000
REMARK UNBOUND:                 0.000
ROOT
REMARK  Name = famotidine
REMARK                            x       y       z     vdW  Elec       q    Type
REMARK                         _______ _______ _______ _____ _____    ______ ____
ATOM      1  N   UNL     1      57.382  74.070  53.886  0.00  0.00    +0.000 NA
ATOM      2  C   UNL     1      57.901  73.508  54.197  0.00  0.00    +0.000 C 
ATOM      3  N   UNL     1      58.018  73.462  55.013  0.00  0.00    +0.000 NA
ATOM      4  N   UNL     1      58.302  72.993  53.693  0.00  0.00    +0.000 NA
ATOM      5  C   UNL     1      58.821  72.432  54.004  0.00  0.00    +0.000 A 
ATOM      6  N   UNL     1      59.258  71.883  53.570  0.00  0.00    +0.000 NA
ATOM      7  C   UNL     1      59.700  71.433  54.102  0.00  0.00    +0.000 A 
ATOM      8  C   UNL     1      60.216  70.820  53.905  0.00  0.00    +0.000 C 
ATOM      9  S   UNL     1      60.623  70.417  54.500  0.00  0.00    +0.000 S 
ATOM     10  C   UNL     1      61.139  69.804  54.303  0.00  0.00    +0.000 C 
ATOM     11  C   UNL     1      61.546  69.400  54.898  0.00  0.00    +0.000 C 
ATOM     12  C   UNL     1      62.061  68.787  54.701  0.00  0.00    +0.000 C 
ATOM     13  N   UNL     1      62.170  68.577  53.911  0.00  0.00    +0.000 NA
ATOM     14  N   UNL     1      62.468  68.384  55.295  0.00  0.00    +0.000 NA
ATOM     15  S   UNL     1      62.984  67.771  55.099  0.00  0.00    +0.000 S 
ATOM     16  N   UNL     1      63.500  67.158  54.903  0.00  0.00    +0.000 NA
ATOM     17  O   UNL     1      63.156  67.660  55.898  0.00  0.00    +0.000 OA
ATOM     18  O   UNL     1      62.812  67.882  54.300  0.00  0.00    +0.000 OA
ATOM     19  C   UNL     1      59.536  71.703  54.864  0.00  0.00    +0.000 A 
ATOM     20  S   UNL     1      58.993  72.321  54.804  0.00  0.00    +0.000 S 
ENDROOT
TORSDOF 0
ENDMDL
