MODEL 1
REMARK VINA RESULT:   -14.300      0.000      0.000
REMARK INTER + INTRA:         -14.300
REMARK INTER:                 -14.300
REMARK INTRA:                   0.000
REMARK UNBOUND:                 0.000
ROOT
REMARK  Name = famprofazone
REMARK                            x       y       z     vdW  Elec       q    Type
REMARK                         _______ _______ _______ _____ _____    ______ ____
ATOM      1  C   UNL     1      59.238  62.063  67.242  0.00  0.00    +0.000 C 
ATOM      2  C   UNL     1      59.982  62.386  67.386  0.00  0.00    +0.000 C 
ATOM      3  C   UNL     1      60.137  62.762  68.104  0.00  0.00    +0.000 C 
ATOM      4  C   UNL     1      60.574  62.334  66.812  0.00  0.00    +0.000 A 
ATOM      5  C   UNL     1      61.341  62.630  66.878  0.00  0.00    +0.000 A 
ATOM      6  C   UNL     1      61.653  63.030  67.528  0.00  0.00    +0.000 C 
ATOM      7  C   UNL     1      61.183  63.165  68.193  0.00  0.00    +0.000 C 
ATOM      8  N   UNL     1      61.495  63.565  68.844  0.00  0.00    +0.000 NA
ATOM      9  C   UNL     1      62.275  63.830  68.829  0.00  0.00    +0.000 C 
ATOM     10  C   UNL     1      61.025  63.700  69.508  0.00  0.00    +0.000 C 
ATOM     11  C   UNL     1      60.244  63.436  69.522  0.00  0.00    +0.000 C 
ATOM     12  C   UNL     1      61.337  64.101  70.159  0.00  0.00    +0.000 C 
ATOM     13  C   UNL     1      60.867  64.236  70.823  0.00  0.00    +0.000 A 
ATOM     14  C   UNL     1      60.086  63.971  70.838  0.00  0.00    +0.000 A 
ATOM     15  C   UNL     1      59.616  64.106  71.503  0.00  0.00    +0.000 A 
ATOM     16  C   UNL     1      59.928  64.507  72.153  0.00  0.00    +0.000 A 
ATOM     17  C   UNL     1      60.710  64.772  72.139  0.00  0.00    +0.000 A 
ATOM     18  C   UNL     1      61.180  64.637  71.474  0.00  0.00    +0.000 A 
ATOM     19  N   UNL     1      61.742  62.455  66.178  0.00  0.00    +0.000 N 
ATOM     20  C   UNL     1      62.525  62.650  66.006  0.00  0.00    +0.000 C 
ATOM     21  N   UNL     1      61.222  62.051  65.681  0.00  0.00    +0.000 N 
ATOM     22  C   UNL     1      60.500  61.976  66.072  0.00  0.00    +0.000 A 
ATOM     23  O   UNL     1      59.823  61.608  65.777  0.00  0.00    +0.000 OA
ATOM     24  C   UNL     1      61.395  61.771  64.923  0.00  0.00    +0.000 A 
ATOM     25  C   UNL     1      62.145  61.887  64.602  0.00  0.00    +0.000 A 
ATOM     26  C   UNL     1      62.318  61.608  63.845  0.00  0.00    +0.000 A 
ATOM     27  C   UNL     1      61.739  61.211  63.410  0.00  0.00    +0.000 A 
ATOM     28  C   UNL     1      60.988  61.096  63.732  0.00  0.00    +0.000 A 
ATOM     29  C   UNL     1      60.816  61.375  64.488  0.00  0.00    +0.000 A 
ENDROOT
TORSDOF 0
ENDMDL
MODEL 2
REMARK VINA RESULT:   -14.277      1.452      6.033
REMARK INTER + INTRA:         -14.277
REMARK INTER:                 -14.277
REMARK INTRA:                   0.000
REMARK UNBOUND:                 0.000
ROOT
REMARK  Name = famprofazone
REMARK                            x       y       z     vdW  Elec       q    Type
REMARK                         _______ _______ _______ _____ _____    ______ ____
ATOM      1  C   UNL     1      62.835  64.476  69.067  0.00  0.00    +0.000 C 
ATOM      2  C   UNL     1      62.169  63.995  69.007  0.00  0.00    +0.000 C 
ATOM      3  C   UNL     1      62.017  63.586  68.306  0.00  0.00    +0.000 C 
ATOM      4  C   UNL     1      61.653  63.921  69.647  0.00  0.00    +0.000 A 
ATOM      5  C   UNL     1      60.969  63.462  69.667  0.00  0.00    +0.000 A 
ATOM      6  C   UNL     1      60.678  62.995  69.052  0.00  0.00    +0.000 C 
ATOM      7  C   UNL     1      61.084  62.961  68.335  0.00  0.00    +0.000 C 
ATOM      8  N   UNL     1      60.793  62.494  67.719  0.00  0.00    +0.000 NA
ATOM      9  C   UNL     1      60.098  62.064  67.821  0.00  0.00    +0.000 C 
ATOM     10  C   UNL     1      61.199  62.460  67.002  0.00  0.00    +0.000 C 
ATOM     11  C   UNL     1      61.895  62.891  66.900  0.00  0.00    +0.000 C 
ATOM     12  C   UNL     1      60.908  61.993  66.386  0.00  0.00    +0.000 C 
ATOM     13  C   UNL     1      61.314  61.959  65.668  0.00  0.00    +0.000 A 
ATOM     14  C   UNL     1      62.010  62.390  65.566  0.00  0.00    +0.000 A 
ATOM     15  C   UNL     1      62.416  62.355  64.848  0.00  0.00    +0.000 A 
ATOM     16  C   UNL     1      62.125  61.889  64.233  0.00  0.00    +0.000 A 
ATOM     17  C   UNL     1      61.429  61.457  64.335  0.00  0.00    +0.000 A 
ATOM     18  C   UNL     1      61.023  61.492  65.052  0.00  0.00    +0.000 A 
ATOM     19  N   UNL     1      60.624  63.550  70.412  0.00  0.00    +0.000 N 
ATOM     20  C   UNL     1      59.930  63.189  70.673  0.00  0.00    +0.000 C 
ATOM     21  N   UNL     1      61.098  64.065  70.851  0.00  0.00    +0.000 N 
ATOM     22  C   UNL     1      61.733  64.293  70.379  0.00  0.00    +0.000 A 
ATOM     23  O   UNL     1      62.342  64.805  70.598  0.00  0.00    +0.000 OA
ATOM     24  C   UNL     1      60.958  64.307  71.628  0.00  0.00    +0.000 A 
ATOM     25  C   UNL     1      60.296  64.031  72.034  0.00  0.00    +0.000 A 
ATOM     26  C   UNL     1      60.156  64.274  72.811  0.00  0.00    +0.000 A 
ATOM     27  C   UNL     1      60.681  64.793  73.181  0.00  0.00    +0.000 A 
ATOM     28  C   UNL     1      61.343  65.069  72.774  0.00  0.00    +0.000 A 
ATOM     29  C   UNL     1      61.483  64.826  71.998  0.00  0.00    +0.000 A 
ENDROOT
TORSDOF 0
ENDMDL
MODEL 3
REMARK VINA RESULT:   -12.877      2.350      6.376
REMARK INTER + INTRA:         -12.877
REMARK INTER:                 -12.877
REMARK INTRA:                   0.000
REMARK UNBOUND:                 0.000
ROOT
REMARK  Name = famprofazone
REMARK                            x       y       z     vdW  Elec       q    Type
REMARK                         _______ _______ _______ _____ _____    ______ ____
ATOM      1  C   UNL     1      63.591  64.834  69.559  0.00  0.00    +0.000 C 
ATOM      2  C   UNL     1      62.768  64.861  69.582  0.00  0.00    +0.000 C 
ATOM      3  C   UNL     1      62.326  64.417  69.044  0.00  0.00    +0.000 C 
ATOM      4  C   UNL     1      62.385  65.332  70.141  0.00  0.00    +0.000 A 
ATOM      5  C   UNL     1      61.569  65.414  70.228  0.00  0.00    +0.000 A 
ATOM      6  C   UNL     1      60.992  65.040  69.773  0.00  0.00    +0.000 C 
ATOM      7  C   UNL     1      61.214  64.529  69.165  0.00  0.00    +0.000 C 
ATOM      8  N   UNL     1      60.636  64.154  68.709  0.00  0.00    +0.000 NA
ATOM      9  C   UNL     1      59.838  64.291  68.862  0.00  0.00    +0.000 C 
ATOM     10  C   UNL     1      60.859  63.644  68.101  0.00  0.00    +0.000 C 
ATOM     11  C   UNL     1      61.658  63.507  67.948  0.00  0.00    +0.000 C 
ATOM     12  C   UNL     1      60.281  63.269  67.645  0.00  0.00    +0.000 C 
ATOM     13  C   UNL     1      60.504  62.759  67.037  0.00  0.00    +0.000 A 
ATOM     14  C   UNL     1      61.303  62.622  66.884  0.00  0.00    +0.000 A 
ATOM     15  C   UNL     1      61.525  62.111  66.275  0.00  0.00    +0.000 A 
ATOM     16  C   UNL     1      60.948  61.737  65.820  0.00  0.00    +0.000 A 
ATOM     17  C   UNL     1      60.149  61.873  65.973  0.00  0.00    +0.000 A 
ATOM     18  C   UNL     1      59.926  62.384  66.581  0.00  0.00    +0.000 A 
ATOM     19  N   UNL     1      61.431  65.936  70.852  0.00  0.00    +0.000 N 
ATOM     20  C   UNL     1      60.692  66.176  71.130  0.00  0.00    +0.000 C 
ATOM     21  N   UNL     1      62.163  66.177  71.149  0.00  0.00    +0.000 N 
ATOM     22  C   UNL     1      62.752  65.804  70.710  0.00  0.00    +0.000 A 
ATOM     23  O   UNL     1      63.566  65.887  70.819  0.00  0.00    +0.000 OA
ATOM     24  C   UNL     1      62.283  66.700  71.777  0.00  0.00    +0.000 A 
ATOM     25  C   UNL     1      61.637  67.032  72.166  0.00  0.00    +0.000 A 
ATOM     26  C   UNL     1      61.756  67.555  72.793  0.00  0.00    +0.000 A 
ATOM     27  C   UNL     1      62.524  67.745  73.030  0.00  0.00    +0.000 A 
ATOM     28  C   UNL     1      63.170  67.412  72.640  0.00  0.00    +0.000 A 
ATOM     29  C   UNL     1      63.050  66.890  72.014  0.00  0.00    +0.000 A 
ENDROOT
TORSDOF 0
ENDMDL
MODEL 4
REMARK VINA RESULT:   -12.239      3.089      4.583
REMARK INTER + INTRA:         -12.239
REMARK INTER:                 -12.239
REMARK INTRA:                   0.000
REMARK UNBOUND:                 0.000
ROOT
REMARK  Name = famprofazone
REMARK                            x       y       z     vdW  Elec       q    Type
REMARK                         _______ _______ _______ _____ _____    ______ ____
ATOM      1  C   UNL     1      62.395  63.496  71.362  0.00  0.00    +0.000 C 
ATOM      2  C   UNL     1      62.655  63.884  70.684  0.00  0.00    +0.000 C 
ATOM      3  C   UNL     1      63.264  64.439  70.734  0.00  0.00    +0.000 C 
ATOM      4  C   UNL     1      62.308  63.719  69.954  0.00  0.00    +0.000 A 
ATOM      5  C   UNL     1      62.510  64.062  69.232  0.00  0.00    +0.000 A 
ATOM      6  C   UNL     1      63.094  64.632  69.111  0.00  0.00    +0.000 C 
ATOM      7  C   UNL     1      63.538  64.907  69.750  0.00  0.00    +0.000 C 
ATOM      8  N   UNL     1      64.123  65.477  69.630  0.00  0.00    +0.000 NA
ATOM      9  C   UNL     1      64.264  65.770  68.873  0.00  0.00    +0.000 C 
ATOM     10  C   UNL     1      64.567  65.752  70.268  0.00  0.00    +0.000 C 
ATOM     11  C   UNL     1      64.427  65.458  71.026  0.00  0.00    +0.000 C 
ATOM     12  C   UNL     1      65.152  66.322  70.148  0.00  0.00    +0.000 C 
ATOM     13  C   UNL     1      65.596  66.597  70.786  0.00  0.00    +0.000 A 
ATOM     14  C   UNL     1      65.456  66.303  71.544  0.00  0.00    +0.000 A 
ATOM     15  C   UNL     1      65.901  66.579  72.183  0.00  0.00    +0.000 A 
ATOM     16  C   UNL     1      66.485  67.149  72.063  0.00  0.00    +0.000 A 
ATOM     17  C   UNL     1      66.625  67.443  71.305  0.00  0.00    +0.000 A 
ATOM     18  C   UNL     1      66.181  67.167  70.666  0.00  0.00    +0.000 A 
ATOM     19  N   UNL     1      62.024  63.736  68.650  0.00  0.00    +0.000 N 
ATOM     20  C   UNL     1      62.037  63.922  67.846  0.00  0.00    +0.000 C 
ATOM     21  N   UNL     1      61.522  63.191  69.013  0.00  0.00    +0.000 N 
ATOM     22  C   UNL     1      61.697  63.180  69.819  0.00  0.00    +0.000 A 
ATOM     23  O   UNL     1      61.328  62.713  70.390  0.00  0.00    +0.000 OA
ATOM     24  C   UNL     1      60.946  62.736  68.636  0.00  0.00    +0.000 A 
ATOM     25  C   UNL     1      60.833  62.806  67.822  0.00  0.00    +0.000 A 
ATOM     26  C   UNL     1      60.256  62.352  67.445  0.00  0.00    +0.000 A 
ATOM     27  C   UNL     1      59.793  61.827  67.882  0.00  0.00    +0.000 A 
ATOM     28  C   UNL     1      59.907  61.757  68.696  0.00  0.00    +0.000 A 
ATOM     29  C   UNL     1      60.483  62.211  69.073  0.00  0.00    +0.000 A 
ENDROOT
TORSDOF 0
ENDMDL
MODEL 5
REMARK VINA RESULT:   -12.142      3.379      5.508
REMARK INTER + INTRA:         -12.142
REMARK INTER:                 -12.142
REMARK INTRA:                   0.000
REMARK UNBOUND:                 0.000
ROOT
REMARK  Name = famprofazone
REMARK                            x       y       z     vdW  Elec       q    Type
REMARK                         _______ _______ _______ _____ _____    ______ ____
ATOM      1  C   UNL     1      62.842  64.250  68.547  0.00  0.00    +0.000 C 
ATOM      2  C   UNL     1      62.956  64.388  69.351  0.00  0.00    +0.000 C 
ATOM      3  C   UNL     1      63.502  64.955  69.599  0.00  0.00    +0.000 C 
ATOM      4  C   UNL     1      62.523  63.961  69.910  0.00  0.00    +0.000 A 
ATOM      5  C   UNL     1      62.578  64.040  70.729  0.00  0.00    +0.000 A 
ATOM      6  C   UNL     1      63.075  64.559  71.135  0.00  0.00    +0.000 C 
ATOM      7  C   UNL     1      63.577  65.061  70.715  0.00  0.00    +0.000 C 
ATOM      8  N   UNL     1      64.074  65.581  71.121  0.00  0.00    +0.000 NA
ATOM      9  C   UNL     1      64.068  65.597  71.945  0.00  0.00    +0.000 C 
ATOM     10  C   UNL     1      64.575  66.083  70.701  0.00  0.00    +0.000 C 
ATOM     11  C   UNL     1      64.581  66.066  69.877  0.00  0.00    +0.000 C 
ATOM     12  C   UNL     1      65.072  66.603  71.107  0.00  0.00    +0.000 C 
ATOM     13  C   UNL     1      65.574  67.105  70.688  0.00  0.00    +0.000 A 
ATOM     14  C   UNL     1      65.580  67.088  69.863  0.00  0.00    +0.000 A 
ATOM     15  C   UNL     1      66.083  67.591  69.443  0.00  0.00    +0.000 A 
ATOM     16  C   UNL     1      66.579  68.110  69.849  0.00  0.00    +0.000 A 
ATOM     17  C   UNL     1      66.573  68.127  70.674  0.00  0.00    +0.000 A 
ATOM     18  C   UNL     1      66.071  67.624  71.094  0.00  0.00    +0.000 A 
ATOM     19  N   UNL     1      62.049  63.508  71.072  0.00  0.00    +0.000 N 
ATOM     20  C   UNL     1      61.923  63.401  71.881  0.00  0.00    +0.000 C 
ATOM     21  N   UNL     1      61.667  63.101  70.464  0.00  0.00    +0.000 N 
ATOM     22  C   UNL     1      61.960  63.381  69.746  0.00  0.00    +0.000 A 
ATOM     23  O   UNL     1      61.731  63.126  68.995  0.00  0.00    +0.000 OA
ATOM     24  C   UNL     1      61.093  62.515  70.559  0.00  0.00    +0.000 A 
ATOM     25  C   UNL     1      60.854  62.291  71.315  0.00  0.00    +0.000 A 
ATOM     26  C   UNL     1      60.279  61.706  71.410  0.00  0.00    +0.000 A 
ATOM     27  C   UNL     1      59.945  61.345  70.747  0.00  0.00    +0.000 A 
ATOM     28  C   UNL     1      60.185  61.570  69.991  0.00  0.00    +0.000 A 
ATOM     29  C   UNL     1      60.759  62.155  69.896  0.00  0.00    +0.000 A 
ENDROOT
TORSDOF 0
ENDMDL
MODEL 6
REMARK VINA RESULT:   -11.874      3.977      6.130
REMARK INTER + INTRA:         -11.874
REMARK INTER:                 -11.874
REMARK INTRA:                   0.000
REMARK UNBOUND:                 0.000
ROOT
REMARK  Name = famprofazone
REMARK                            x       y       z     vdW  Elec       q    Type
REMARK                         _______ _______ _______ _____ _____    ______ ____
ATOM      1  C   UNL     1      64.146  64.594  68.848  0.00  0.00    +0.000 C 
ATOM      2  C   UNL     1      63.827  64.757  69.590  0.00  0.00    +0.000 C 
ATOM      3  C   UNL     1      63.215  64.290  69.888  0.00  0.00    +0.000 C 
ATOM      4  C   UNL     1      64.118  65.388  70.036  0.00  0.00    +0.000 A 
ATOM      5  C   UNL     1      63.854  65.616  70.783  0.00  0.00    +0.000 A 
ATOM      6  C   UNL     1      63.253  65.255  71.218  0.00  0.00    +0.000 C 
ATOM      7  C   UNL     1      62.856  64.602  70.907  0.00  0.00    +0.000 C 
ATOM      8  N   UNL     1      62.254  64.240  71.341  0.00  0.00    +0.000 NA
ATOM      9  C   UNL     1      62.050  64.531  72.084  0.00  0.00    +0.000 C 
ATOM     10  C   UNL     1      61.857  63.587  71.030  0.00  0.00    +0.000 C 
ATOM     11  C   UNL     1      62.062  63.296  70.286  0.00  0.00    +0.000 C 
ATOM     12  C   UNL     1      61.255  63.226  71.464  0.00  0.00    +0.000 C 
ATOM     13  C   UNL     1      60.859  62.573  71.153  0.00  0.00    +0.000 A 
ATOM     14  C   UNL     1      61.063  62.281  70.409  0.00  0.00    +0.000 A 
ATOM     15  C   UNL     1      60.665  61.628  70.098  0.00  0.00    +0.000 A 
ATOM     16  C   UNL     1      60.064  61.267  70.532  0.00  0.00    +0.000 A 
ATOM     17  C   UNL     1      59.860  61.558  71.277  0.00  0.00    +0.000 A 
ATOM     18  C   UNL     1      60.257  62.211  71.587  0.00  0.00    +0.000 A 
ATOM     19  N   UNL     1      64.298  66.270  71.021  0.00  0.00    +0.000 N 
ATOM     20  C   UNL     1      64.218  66.677  71.735  0.00  0.00    +0.000 C 
ATOM     21  N   UNL     1      64.836  66.445  70.420  0.00  0.00    +0.000 N 
ATOM     22  C   UNL     1      64.725  65.900  69.811  0.00  0.00    +0.000 A 
ATOM     23  O   UNL     1      65.145  65.871  69.102  0.00  0.00    +0.000 OA
ATOM     24  C   UNL     1      65.388  67.059  70.427  0.00  0.00    +0.000 A 
ATOM     25  C   UNL     1      65.436  67.562  71.078  0.00  0.00    +0.000 A 
ATOM     26  C   UNL     1      65.988  68.176  71.086  0.00  0.00    +0.000 A 
ATOM     27  C   UNL     1      66.492  68.284  70.441  0.00  0.00    +0.000 A 
ATOM     28  C   UNL     1      66.444  67.780  69.791  0.00  0.00    +0.000 A 
ATOM     29  C   UNL     1      65.892  67.167  69.783  0.00  0.00    +0.000 A 
ENDROOT
TORSDOF 0
ENDMDL
MODEL 7
REMARK VINA RESULT:   -11.796      2.235      3.812
REMARK INTER + INTRA:         -11.796
REMARK INTER:                 -11.796
REMARK INTRA:                   0.000
REMARK UNBOUND:                 0.000
ROOT
REMARK  Name = famprofazone
REMARK                            x       y       z     vdW  Elec       q    Type
REMARK                         _______ _______ _______ _____ _____    ______ ____
ATOM      1  C   UNL     1      63.190  64.404  69.104  0.00  0.00    +0.000 C 
ATOM      2  C   UNL     1      62.457  64.680  69.358  0.00  0.00    +0.000 C 
ATOM      3  C   UNL     1      62.416  65.253  69.951  0.00  0.00    +0.000 C 
ATOM      4  C   UNL     1      61.764  64.384  69.022  0.00  0.00    +0.000 A 
ATOM      5  C   UNL     1      60.995  64.608  69.220  0.00  0.00    +0.000 A 
ATOM      6  C   UNL     1      60.783  65.166  69.789  0.00  0.00    +0.000 C 
ATOM      7  C   UNL     1      61.367  65.557  70.220  0.00  0.00    +0.000 C 
ATOM      8  N   UNL     1      61.155  66.116  70.790  0.00  0.00    +0.000 NA
ATOM      9  C   UNL     1      60.360  66.282  70.928  0.00  0.00    +0.000 C 
ATOM     10  C   UNL     1      61.740  66.507  71.221  0.00  0.00    +0.000 C 
ATOM     11  C   UNL     1      62.536  66.340  71.082  0.00  0.00    +0.000 C 
ATOM     12  C   UNL     1      61.528  67.065  71.791  0.00  0.00    +0.000 C 
ATOM     13  C   UNL     1      62.113  67.456  72.221  0.00  0.00    +0.000 A 
ATOM     14  C   UNL     1      62.909  67.290  72.083  0.00  0.00    +0.000 A 
ATOM     15  C   UNL     1      63.494  67.681  72.515  0.00  0.00    +0.000 A 
ATOM     16  C   UNL     1      63.281  68.239  73.084  0.00  0.00    +0.000 A 
ATOM     17  C   UNL     1      62.485  68.406  73.222  0.00  0.00    +0.000 A 
ATOM     18  C   UNL     1      61.901  68.015  72.791  0.00  0.00    +0.000 A 
ATOM     19  N   UNL     1      60.474  64.175  68.749  0.00  0.00    +0.000 N 
ATOM     20  C   UNL     1      59.651  64.223  68.763  0.00  0.00    +0.000 C 
ATOM     21  N   UNL     1      60.923  63.684  68.259  0.00  0.00    +0.000 N 
ATOM     22  C   UNL     1      61.719  63.813  68.428  0.00  0.00    +0.000 A 
ATOM     23  O   UNL     1      62.359  63.438  68.067  0.00  0.00    +0.000 OA
ATOM     24  C   UNL     1      60.625  63.156  67.699  0.00  0.00    +0.000 A 
ATOM     25  C   UNL     1      59.811  63.085  67.590  0.00  0.00    +0.000 A 
ATOM     26  C   UNL     1      59.513  62.557  67.030  0.00  0.00    +0.000 A 
ATOM     27  C   UNL     1      60.031  62.100  66.579  0.00  0.00    +0.000 A 
ATOM     28  C   UNL     1      60.845  62.171  66.688  0.00  0.00    +0.000 A 
ATOM     29  C   UNL     1      61.143  62.698  67.247  0.00  0.00    +0.000 A 
ENDROOT
TORSDOF 0
ENDMDL
MODEL 8
REMARK VINA RESULT:   -11.677      4.939      6.443
REMARK INTER + INTRA:         -11.677
REMARK INTER:                 -11.677
REMARK INTRA:                   0.000
REMARK UNBOUND:                 0.000
ROOT
REMARK  Name = famprofazone
REMARK                            x       y       z     vdW  Elec       q    Type
REMARK                         _______ _______ _______ _____ _____    ______ ____
ATOM      1  C   UNL     1      62.541  64.914  70.356  0.00  0.00    +0.000 C 
ATOM      2  C   UNL     1      62.398  65.514  70.903  0.00  0.00    +0.000 C 
ATOM      3  C   UNL     1      61.663  65.568  71.273  0.00  0.00    +0.000 C 
ATOM      4  C   UNL     1      62.990  66.062  71.080  0.00  0.00    +0.000 A 
ATOM      5  C   UNL     1      62.927  66.688  71.612  0.00  0.00    +0.000 A 
ATOM      6  C   UNL     1      62.262  66.879  72.062  0.00  0.00    +0.000 C 
ATOM      7  C   UNL     1      61.578  66.422  71.999  0.00  0.00    +0.000 C 
ATOM      8  N   UNL     1      60.912  66.612  72.448  0.00  0.00    +0.000 NA
ATOM      9  C   UNL     1      60.931  67.258  72.960  0.00  0.00    +0.000 C 
ATOM     10  C   UNL     1      60.228  66.156  72.385  0.00  0.00    +0.000 C 
ATOM     11  C   UNL     1      60.209  65.509  71.873  0.00  0.00    +0.000 C 
ATOM     12  C   UNL     1      59.563  66.346  72.835  0.00  0.00    +0.000 C 
ATOM     13  C   UNL     1      58.879  65.890  72.772  0.00  0.00    +0.000 A 
ATOM     14  C   UNL     1      58.860  65.243  72.260  0.00  0.00    +0.000 A 
ATOM     15  C   UNL     1      58.175  64.786  72.197  0.00  0.00    +0.000 A 
ATOM     16  C   UNL     1      57.510  64.977  72.647  0.00  0.00    +0.000 A 
ATOM     17  C   UNL     1      57.529  65.623  73.159  0.00  0.00    +0.000 A 
ATOM     18  C   UNL     1      58.213  66.080  73.222  0.00  0.00    +0.000 A 
ATOM     19  N   UNL     1      63.647  67.092  71.617  0.00  0.00    +0.000 N 
ATOM     20  C   UNL     1      63.828  67.756  72.071  0.00  0.00    +0.000 C 
ATOM     21  N   UNL     1      64.154  66.713  71.086  0.00  0.00    +0.000 N 
ATOM     22  C   UNL     1      63.748  66.077  70.755  0.00  0.00    +0.000 A 
ATOM     23  O   UNL     1      64.047  65.549  70.196  0.00  0.00    +0.000 OA
ATOM     24  C   UNL     1      64.931  66.935  70.918  0.00  0.00    +0.000 A 
ATOM     25  C   UNL     1      65.265  67.587  71.295  0.00  0.00    +0.000 A 
ATOM     26  C   UNL     1      66.043  67.808  71.127  0.00  0.00    +0.000 A 
ATOM     27  C   UNL     1      66.485  67.375  70.581  0.00  0.00    +0.000 A 
ATOM     28  C   UNL     1      66.151  66.722  70.205  0.00  0.00    +0.000 A 
ATOM     29  C   UNL     1      65.374  66.501  70.373  0.00  0.00    +0.000 A 
ENDROOT
TORSDOF 0
ENDMDL
