MODEL 1
REMARK VINA RESULT:    -9.526      0.000      0.000
REMARK INTER + INTRA:          -9.526
REMARK INTER:                  -9.526
REMARK INTRA:                   0.000
REMARK UNBOUND:                 0.000
ROOT
REMARK  Name = faropenem
REMARK                            x       y       z     vdW  Elec       q    Type
REMARK                         _______ _______ _______ _____ _____    ______ ____
ATOM      1  C   UNL     1      61.182  63.971  69.221  0.00  0.00    +0.000 C 
ATOM      2  C   UNL     1      61.560  63.700  68.540  0.00  0.00    +0.000 C 
ATOM      3  O   UNL     1      62.370  63.823  68.441  0.00  0.00    +0.000 OA
ATOM      4  C   UNL     1      61.129  63.304  67.959  0.00  0.00    +0.000 C 
ATOM      5  C   UNL     1      61.309  62.965  67.229  0.00  0.00    +0.000 C 
ATOM      6  S   UNL     1      61.725  62.709  66.563  0.00  0.00    +0.000 S 
ATOM      7  C   UNL     1      61.191  62.331  66.059  0.00  0.00    +0.000 C 
ATOM      8  C   UNL     1      61.372  61.992  65.329  0.00  0.00    +0.000 C 
ATOM      9  C   UNL     1      62.117  61.970  64.975  0.00  0.00    +0.000 C 
ATOM     10  C   UNL     1      62.044  61.579  64.253  0.00  0.00    +0.000 C 
ATOM     11  C   UNL     1      61.255  61.359  64.160  0.00  0.00    +0.000 C 
ATOM     12  O   UNL     1      60.839  61.614  64.825  0.00  0.00    +0.000 OA
ATOM     13  C   UNL     1      60.447  62.354  66.413  0.00  0.00    +0.000 C 
ATOM     14  N   UNL     1      60.520  62.745  67.136  0.00  0.00    +0.000 N 
ATOM     15  C   UNL     1      60.339  63.085  67.866  0.00  0.00    +0.000 C 
ATOM     16  O   UNL     1      59.654  63.170  68.316  0.00  0.00    +0.000 OA
ATOM     17  C   UNL     1      59.751  62.040  66.099  0.00  0.00    +0.000 C 
ATOM     18  O   UNL     1      59.044  62.104  66.518  0.00  0.00    +0.000 OA
ATOM     19  O   UNL     1      59.764  61.662  65.366  0.00  0.00    +0.000 OA
ENDROOT
TORSDOF 0
ENDMDL
MODEL 2
REMARK VINA RESULT:    -9.337      0.862      3.317
REMARK INTER + INTRA:          -9.337
REMARK INTER:                  -9.337
REMARK INTRA:                   0.000
REMARK UNBOUND:                 0.000
ROOT
REMARK  Name = faropenem
REMARK                            x       y       z     vdW  Elec       q    Type
REMARK                         _______ _______ _______ _____ _____    ______ ____
ATOM      1  C   UNL     1      62.298  61.588  63.808  0.00  0.00    +0.000 C 
ATOM      2  C   UNL     1      62.346  62.006  64.517  0.00  0.00    +0.000 C 
ATOM      3  O   UNL     1      63.052  62.376  64.731  0.00  0.00    +0.000 OA
ATOM      4  C   UNL     1      61.689  62.055  65.012  0.00  0.00    +0.000 C 
ATOM      5  C   UNL     1      61.531  62.411  65.740  0.00  0.00    +0.000 C 
ATOM      6  S   UNL     1      61.621  62.839  66.440  0.00  0.00    +0.000 S 
ATOM      7  C   UNL     1      60.902  62.816  66.846  0.00  0.00    +0.000 C 
ATOM      8  C   UNL     1      60.745  63.172  67.573  0.00  0.00    +0.000 C 
ATOM      9  C   UNL     1      61.279  63.614  68.022  0.00  0.00    +0.000 C 
ATOM     10  C   UNL     1      60.890  63.864  68.705  0.00  0.00    +0.000 C 
ATOM     11  C   UNL     1      60.117  63.577  68.679  0.00  0.00    +0.000 C 
ATOM     12  O   UNL     1      60.028  63.149  67.979  0.00  0.00    +0.000 OA
ATOM     13  C   UNL     1      60.370  62.374  66.397  0.00  0.00    +0.000 C 
ATOM     14  N   UNL     1      60.758  62.124  65.713  0.00  0.00    +0.000 N 
ATOM     15  C   UNL     1      60.916  61.768  64.986  0.00  0.00    +0.000 C 
ATOM     16  O   UNL     1      60.481  61.313  64.453  0.00  0.00    +0.000 OA
ATOM     17  C   UNL     1      59.586  62.211  66.597  0.00  0.00    +0.000 C 
ATOM     18  O   UNL     1      59.117  61.760  66.090  0.00  0.00    +0.000 OA
ATOM     19  O   UNL     1      59.272  62.500  67.302  0.00  0.00    +0.000 OA
ENDROOT
TORSDOF 0
ENDMDL
MODEL 3
REMARK VINA RESULT:    -8.563      2.547      3.867
REMARK INTER + INTRA:          -8.563
REMARK INTER:                  -8.563
REMARK INTRA:                   0.000
REMARK UNBOUND:                 0.000
ROOT
REMARK  Name = faropenem
REMARK                            x       y       z     vdW  Elec       q    Type
REMARK                         _______ _______ _______ _____ _____    ______ ____
ATOM      1  C   UNL     1      61.608  62.766  72.863  0.00  0.00    +0.000 C 
ATOM      2  C   UNL     1      61.479  62.426  72.122  0.00  0.00    +0.000 C 
ATOM      3  O   UNL     1      61.690  61.640  71.986  0.00  0.00    +0.000 OA
ATOM      4  C   UNL     1      61.140  62.873  71.518  0.00  0.00    +0.000 C 
ATOM      5  C   UNL     1      60.933  62.729  70.732  0.00  0.00    +0.000 C 
ATOM      6  S   UNL     1      60.821  62.352  70.006  0.00  0.00    +0.000 S 
ATOM      7  C   UNL     1      60.478  62.895  69.488  0.00  0.00    +0.000 C 
ATOM      8  C   UNL     1      60.271  62.751  68.702  0.00  0.00    +0.000 C 
ATOM      9  C   UNL     1      60.371  62.039  68.297  0.00  0.00    +0.000 C 
ATOM     10  C   UNL     1      60.090  62.142  67.529  0.00  0.00    +0.000 C 
ATOM     11  C   UNL     1      59.817  62.917  67.459  0.00  0.00    +0.000 C 
ATOM     12  O   UNL     1      59.929  63.293  68.184  0.00  0.00    +0.000 OA
ATOM     13  C   UNL     1      60.378  63.607  69.893  0.00  0.00    +0.000 C 
ATOM     14  N   UNL     1      60.659  63.504  70.662  0.00  0.00    +0.000 N 
ATOM     15  C   UNL     1      60.866  63.648  71.448  0.00  0.00    +0.000 C 
ATOM     16  O   UNL     1      60.819  64.297  71.953  0.00  0.00    +0.000 OA
ATOM     17  C   UNL     1      60.054  64.300  69.583  0.00  0.00    +0.000 C 
ATOM     18  O   UNL     1      59.989  64.972  70.057  0.00  0.00    +0.000 OA
ATOM     19  O   UNL     1      59.795  64.320  68.800  0.00  0.00    +0.000 OA
ENDROOT
TORSDOF 0
ENDMDL
MODEL 4
REMARK VINA RESULT:    -8.365      2.528      5.070
REMARK INTER + INTRA:          -8.365
REMARK INTER:                  -8.365
REMARK INTRA:                   0.000
REMARK UNBOUND:                 0.000
ROOT
REMARK  Name = faropenem
REMARK                            x       y       z     vdW  Elec       q    Type
REMARK                         _______ _______ _______ _____ _____    ______ ____
ATOM      1  C   UNL     1      60.206  62.604  67.325  0.00  0.00    +0.000 C 
ATOM      2  C   UNL     1      60.511  62.365  68.054  0.00  0.00    +0.000 C 
ATOM      3  O   UNL     1      60.893  61.636  68.122  0.00  0.00    +0.000 OA
ATOM      4  C   UNL     1      60.435  62.853  68.714  0.00  0.00    +0.000 C 
ATOM      5  C   UNL     1      60.661  62.804  69.505  0.00  0.00    +0.000 C 
ATOM      6  S   UNL     1      60.980  62.528  70.215  0.00  0.00    +0.000 S 
ATOM      7  C   UNL     1      60.842  63.099  70.795  0.00  0.00    +0.000 C 
ATOM      8  C   UNL     1      61.068  63.049  71.587  0.00  0.00    +0.000 C 
ATOM      9  C   UNL     1      61.472  62.421  71.938  0.00  0.00    +0.000 C 
ATOM     10  C   UNL     1      61.584  62.603  72.734  0.00  0.00    +0.000 C 
ATOM     11  C   UNL     1      61.249  63.343  72.876  0.00  0.00    +0.000 C 
ATOM     12  O   UNL     1      60.930  63.619  72.167  0.00  0.00    +0.000 OA
ATOM     13  C   UNL     1      60.438  63.726  70.444  0.00  0.00    +0.000 C 
ATOM     14  N   UNL     1      60.326  63.544  69.647  0.00  0.00    +0.000 N 
ATOM     15  C   UNL     1      60.100  63.594  68.855  0.00  0.00    +0.000 C 
ATOM     16  O   UNL     1      59.704  64.152  68.396  0.00  0.00    +0.000 OA
ATOM     17  C   UNL     1      60.190  64.416  70.824  0.00  0.00    +0.000 C 
ATOM     18  O   UNL     1      59.789  64.999  70.400  0.00  0.00    +0.000 OA
ATOM     19  O   UNL     1      60.342  64.521  71.628  0.00  0.00    +0.000 OA
ENDROOT
TORSDOF 0
ENDMDL
MODEL 5
REMARK VINA RESULT:    -8.353      1.682      3.918
REMARK INTER + INTRA:          -8.353
REMARK INTER:                  -8.353
REMARK INTRA:                   0.000
REMARK UNBOUND:                 0.000
ROOT
REMARK  Name = faropenem
REMARK                            x       y       z     vdW  Elec       q    Type
REMARK                         _______ _______ _______ _____ _____    ______ ____
ATOM      1  C   UNL     1      61.665  62.161  65.511  0.00  0.00    +0.000 C 
ATOM      2  C   UNL     1      61.520  61.842  66.258  0.00  0.00    +0.000 C 
ATOM      3  O   UNL     1      61.629  61.034  66.390  0.00  0.00    +0.000 OA
ATOM      4  C   UNL     1      61.267  62.329  66.873  0.00  0.00    +0.000 C 
ATOM      5  C   UNL     1      61.073  62.214  67.666  0.00  0.00    +0.000 C 
ATOM      6  S   UNL     1      60.940  61.855  68.398  0.00  0.00    +0.000 S 
ATOM      7  C   UNL     1      60.692  62.439  68.926  0.00  0.00    +0.000 C 
ATOM      8  C   UNL     1      60.498  62.324  69.720  0.00  0.00    +0.000 C 
ATOM      9  C   UNL     1      60.518  61.605  70.124  0.00  0.00    +0.000 C 
ATOM     10  C   UNL     1      60.283  61.744  70.902  0.00  0.00    +0.000 C 
ATOM     11  C   UNL     1      60.118  62.548  70.979  0.00  0.00    +0.000 C 
ATOM     12  O   UNL     1      60.251  62.907  70.248  0.00  0.00    +0.000 OA
ATOM     13  C   UNL     1      60.673  63.157  68.522  0.00  0.00    +0.000 C 
ATOM     14  N   UNL     1      60.908  63.018  67.743  0.00  0.00    +0.000 N 
ATOM     15  C   UNL     1      61.102  63.134  66.949  0.00  0.00    +0.000 C 
ATOM     16  O   UNL     1      61.122  63.784  66.442  0.00  0.00    +0.000 OA
ATOM     17  C   UNL     1      60.456  63.888  68.840  0.00  0.00    +0.000 C 
ATOM     18  O   UNL     1      60.463  64.563  68.366  0.00  0.00    +0.000 OA
ATOM     19  O   UNL     1      60.232  63.942  69.632  0.00  0.00    +0.000 OA
ENDROOT
TORSDOF 0
ENDMDL
MODEL 6
REMARK VINA RESULT:    -8.338      5.181      6.373
REMARK INTER + INTRA:          -8.338
REMARK INTER:                  -8.338
REMARK INTRA:                   0.000
REMARK UNBOUND:                 0.000
ROOT
REMARK  Name = faropenem
REMARK                            x       y       z     vdW  Elec       q    Type
REMARK                         _______ _______ _______ _____ _____    ______ ____
ATOM      1  C   UNL     1      61.173  63.992  72.364  0.00  0.00    +0.000 C 
ATOM      2  C   UNL     1      61.725  64.605  72.381  0.00  0.00    +0.000 C 
ATOM      3  O   UNL     1      61.720  65.147  73.004  0.00  0.00    +0.000 OA
ATOM      4  C   UNL     1      62.282  64.677  71.778  0.00  0.00    +0.000 C 
ATOM      5  C   UNL     1      62.899  65.198  71.612  0.00  0.00    +0.000 C 
ATOM      6  S   UNL     1      63.434  65.825  71.667  0.00  0.00    +0.000 S 
ATOM      7  C   UNL     1      63.935  65.791  71.012  0.00  0.00    +0.000 C 
ATOM      8  C   UNL     1      64.552  66.313  70.847  0.00  0.00    +0.000 C 
ATOM      9  C   UNL     1      64.776  66.961  71.307  0.00  0.00    +0.000 C 
ATOM     10  C   UNL     1      65.416  67.327  70.937  0.00  0.00    +0.000 C 
ATOM     11  C   UNL     1      65.587  66.906  70.248  0.00  0.00    +0.000 C 
ATOM     12  O   UNL     1      65.053  66.280  70.192  0.00  0.00    +0.000 OA
ATOM     13  C   UNL     1      63.711  65.144  70.553  0.00  0.00    +0.000 C 
ATOM     14  N   UNL     1      63.070  64.778  70.923  0.00  0.00    +0.000 N 
ATOM     15  C   UNL     1      62.453  64.256  71.089  0.00  0.00    +0.000 C 
ATOM     16  O   UNL     1      62.138  63.590  70.719  0.00  0.00    +0.000 OA
ATOM     17  C   UNL     1      64.064  64.905  69.846  0.00  0.00    +0.000 C 
ATOM     18  O   UNL     1      63.778  64.243  69.445  0.00  0.00    +0.000 OA
ATOM     19  O   UNL     1      64.703  65.329  69.542  0.00  0.00    +0.000 OA
ENDROOT
TORSDOF 0
ENDMDL
MODEL 7
REMARK VINA RESULT:    -8.314      4.990      6.410
REMARK INTER + INTRA:          -8.314
REMARK INTER:                  -8.314
REMARK INTRA:                   0.000
REMARK UNBOUND:                 0.000
ROOT
REMARK  Name = faropenem
REMARK                            x       y       z     vdW  Elec       q    Type
REMARK                         _______ _______ _______ _____ _____    ______ ____
ATOM      1  C   UNL     1      65.738  67.257  70.472  0.00  0.00    +0.000 C 
ATOM      2  C   UNL     1      65.141  67.016  70.988  0.00  0.00    +0.000 C 
ATOM      3  O   UNL     1      65.030  67.410  71.705  0.00  0.00    +0.000 OA
ATOM      4  C   UNL     1      64.654  66.381  70.789  0.00  0.00    +0.000 C 
ATOM      5  C   UNL     1      64.021  65.995  71.150  0.00  0.00    +0.000 C 
ATOM      6  S   UNL     1      63.436  65.785  71.694  0.00  0.00    +0.000 S 
ATOM      7  C   UNL     1      63.019  65.143  71.385  0.00  0.00    +0.000 C 
ATOM      8  C   UNL     1      62.386  64.757  71.746  0.00  0.00    +0.000 C 
ATOM      9  C   UNL     1      62.059  64.945  72.481  0.00  0.00    +0.000 C 
ATOM     10  C   UNL     1      61.441  64.419  72.625  0.00  0.00    +0.000 C 
ATOM     11  C   UNL     1      61.385  63.907  71.981  0.00  0.00    +0.000 C 
ATOM     12  O   UNL     1      61.969  64.116  71.438  0.00  0.00    +0.000 OA
ATOM     13  C   UNL     1      63.346  64.956  70.651  0.00  0.00    +0.000 C 
ATOM     14  N   UNL     1      63.966  65.482  70.506  0.00  0.00    +0.000 N 
ATOM     15  C   UNL     1      64.598  65.869  70.144  0.00  0.00    +0.000 C 
ATOM     16  O   UNL     1      65.006  65.780  69.433  0.00  0.00    +0.000 OA
ATOM     17  C   UNL     1      63.098  64.350  70.150  0.00  0.00    +0.000 C 
ATOM     18  O   UNL     1      63.480  64.228  69.429  0.00  0.00    +0.000 OA
ATOM     19  O   UNL     1      62.467  63.866  70.370  0.00  0.00    +0.000 OA
ENDROOT
TORSDOF 0
ENDMDL
MODEL 8
REMARK VINA RESULT:    -8.271      3.934      5.399
REMARK INTER + INTRA:          -8.271
REMARK INTER:                  -8.271
REMARK INTRA:                   0.000
REMARK UNBOUND:                 0.000
ROOT
REMARK  Name = faropenem
REMARK                            x       y       z     vdW  Elec       q    Type
REMARK                         _______ _______ _______ _____ _____    ______ ____
ATOM      1  C   UNL     1      60.668  61.636  70.604  0.00  0.00    +0.000 C 
ATOM      2  C   UNL     1      60.579  62.316  70.146  0.00  0.00    +0.000 C 
ATOM      3  O   UNL     1      60.721  62.288  69.334  0.00  0.00    +0.000 OA
ATOM      4  C   UNL     1      60.347  63.024  70.500  0.00  0.00    +0.000 C 
ATOM      5  C   UNL     1      60.205  63.791  70.231  0.00  0.00    +0.000 C 
ATOM      6  S   UNL     1      60.128  64.449  69.738  0.00  0.00    +0.000 S 
ATOM      7  C   UNL     1      59.894  65.090  70.203  0.00  0.00    +0.000 C 
ATOM      8  C   UNL     1      59.752  65.857  69.934  0.00  0.00    +0.000 C 
ATOM      9  C   UNL     1      59.819  66.118  69.154  0.00  0.00    +0.000 C 
ATOM     10  C   UNL     1      59.627  66.919  69.136  0.00  0.00    +0.000 C 
ATOM     11  C   UNL     1      59.441  67.154  69.905  0.00  0.00    +0.000 C 
ATOM     12  O   UNL     1      59.518  66.497  70.398  0.00  0.00    +0.000 OA
ATOM     13  C   UNL     1      59.827  64.828  70.982  0.00  0.00    +0.000 C 
ATOM     14  N   UNL     1      60.019  64.026  71.000  0.00  0.00    +0.000 N 
ATOM     15  C   UNL     1      60.161  63.259  71.268  0.00  0.00    +0.000 C 
ATOM     16  O   UNL     1      60.130  62.883  72.001  0.00  0.00    +0.000 OA
ATOM     17  C   UNL     1      59.606  65.289  71.631  0.00  0.00    +0.000 C 
ATOM     18  O   UNL     1      59.563  64.950  72.381  0.00  0.00    +0.000 OA
ATOM     19  O   UNL     1      59.429  66.088  71.527  0.00  0.00    +0.000 OA
ENDROOT
TORSDOF 0
ENDMDL
MODEL 9
REMARK VINA RESULT:    -8.236      5.402      6.532
REMARK INTER + INTRA:          -8.236
REMARK INTER:                  -8.236
REMARK INTRA:                   0.000
REMARK UNBOUND:                 0.000
ROOT
REMARK  Name = faropenem
REMARK                            x       y       z     vdW  Elec       q    Type
REMARK                         _______ _______ _______ _____ _____    ______ ____
ATOM      1  C   UNL     1      61.019  63.151  72.188  0.00  0.00    +0.000 C 
ATOM      2  C   UNL     1      61.609  63.402  71.668  0.00  0.00    +0.000 C 
ATOM      3  O   UNL     1      61.813  62.933  71.020  0.00  0.00    +0.000 OA
ATOM      4  C   UNL     1      61.993  64.120  71.795  0.00  0.00    +0.000 C 
ATOM      5  C   UNL     1      62.590  64.538  71.408  0.00  0.00    +0.000 C 
ATOM      6  S   UNL     1      63.173  64.752  70.865  0.00  0.00    +0.000 S 
ATOM      7  C   UNL     1      63.482  65.482  71.096  0.00  0.00    +0.000 C 
ATOM      8  C   UNL     1      64.078  65.901  70.709  0.00  0.00    +0.000 C 
ATOM      9  C   UNL     1      64.471  65.663  70.023  0.00  0.00    +0.000 C 
ATOM     10  C   UNL     1      65.021  66.246  69.830  0.00  0.00    +0.000 C 
ATOM     11  C   UNL     1      64.970  66.843  70.397  0.00  0.00    +0.000 C 
ATOM     12  O   UNL     1      64.387  66.630  70.940  0.00  0.00    +0.000 OA
ATOM     13  C   UNL     1      63.089  65.719  71.782  0.00  0.00    +0.000 C 
ATOM     14  N   UNL     1      62.538  65.136  71.975  0.00  0.00    +0.000 N 
ATOM     15  C   UNL     1      61.942  64.717  72.362  0.00  0.00    +0.000 C 
ATOM     16  O   UNL     1      61.484  64.843  73.036  0.00  0.00    +0.000 OA
ATOM     17  C   UNL     1      63.224  66.417  72.201  0.00  0.00    +0.000 C 
ATOM     18  O   UNL     1      62.787  66.580  72.881  0.00  0.00    +0.000 OA
ATOM     19  O   UNL     1      63.797  66.950  71.940  0.00  0.00    +0.000 OA
ENDROOT
TORSDOF 0
ENDMDL
