MODEL 1
REMARK VINA RESULT:   -12.142      0.000      0.000
REMARK INTER + INTRA:         -12.142
REMARK INTER:                 -12.142
REMARK INTRA:                   0.000
REMARK UNBOUND:                 0.000
ROOT
REMARK  Name = faropenem medoxil
REMARK                            x       y       z     vdW  Elec       q    Type
REMARK                         _______ _______ _______ _____ _____    ______ ____
ATOM      1  C   UNL     1      61.088  64.559  70.637  0.00  0.00    +0.000 C 
ATOM      2  C   UNL     1      60.571  64.177  70.120  0.00  0.00    +0.000 C 
ATOM      3  O   UNL     1      59.779  64.075  70.329  0.00  0.00    +0.000 OA
ATOM      4  C   UNL     1      60.844  63.897  69.394  0.00  0.00    +0.000 C 
ATOM      5  C   UNL     1      60.503  63.501  68.756  0.00  0.00    +0.000 C 
ATOM      6  S   UNL     1      59.954  63.125  68.268  0.00  0.00    +0.000 S 
ATOM      7  C   UNL     1      60.343  62.892  67.578  0.00  0.00    +0.000 C 
ATOM      8  C   UNL     1      60.002  62.496  66.940  0.00  0.00    +0.000 C 
ATOM      9  C   UNL     1      59.212  62.264  66.878  0.00  0.00    +0.000 C 
ATOM     10  C   UNL     1      59.114  61.888  66.152  0.00  0.00    +0.000 C 
ATOM     11  C   UNL     1      59.842  61.887  65.763  0.00  0.00    +0.000 C 
ATOM     12  O   UNL     1      60.391  62.263  66.250  0.00  0.00    +0.000 OA
ATOM     13  C   UNL     1      61.132  63.123  67.640  0.00  0.00    +0.000 C 
ATOM     14  N   UNL     1      61.231  63.500  68.368  0.00  0.00    +0.000 N 
ATOM     15  C   UNL     1      61.572  63.896  69.006  0.00  0.00    +0.000 C 
ATOM     16  O   UNL     1      62.328  64.175  69.183  0.00  0.00    +0.000 OA
ATOM     17  C   UNL     1      61.719  63.000  67.073  0.00  0.00    +0.000 C 
ATOM     18  O   UNL     1      62.489  63.264  67.212  0.00  0.00    +0.000 OA
ATOM     19  O   UNL     1      61.537  62.613  66.368  0.00  0.00    +0.000 OA
ATOM     20  C   UNL     1      62.124  62.490  65.802  0.00  0.00    +0.000 C 
ATOM     21  C   UNL     1      61.942  62.103  65.096  0.00  0.00    +0.000 A 
ATOM     22  C   UNL     1      61.201  61.809  64.882  0.00  0.00    +0.000 A 
ATOM     23  C   UNL     1      60.513  61.851  65.334  0.00  0.00    +0.000 C 
ATOM     24  O   UNL     1      61.271  61.466  64.135  0.00  0.00    +0.000 OA
ATOM     25  C   UNL     1      62.054  61.548  63.887  0.00  0.00    +0.000 A 
ATOM     26  O   UNL     1      62.367  61.282  63.172  0.00  0.00    +0.000 OA
ATOM     27  O   UNL     1      62.469  61.941  64.482  0.00  0.00    +0.000 OA
ENDROOT
TORSDOF 0
ENDMDL
MODEL 2
REMARK VINA RESULT:   -11.978      1.966      3.507
REMARK INTER + INTRA:         -11.978
REMARK INTER:                 -11.978
REMARK INTRA:                   0.000
REMARK UNBOUND:                 0.000
ROOT
REMARK  Name = faropenem medoxil
REMARK                            x       y       z     vdW  Elec       q    Type
REMARK                         _______ _______ _______ _____ _____    ______ ____
ATOM      1  C   UNL     1      59.023  66.693  72.586  0.00  0.00    +0.000 C 
ATOM      2  C   UNL     1      59.228  65.895  72.536  0.00  0.00    +0.000 C 
ATOM      3  O   UNL     1      59.226  65.425  73.214  0.00  0.00    +0.000 OA
ATOM      4  C   UNL     1      59.435  65.567  71.808  0.00  0.00    +0.000 C 
ATOM      5  C   UNL     1      59.664  64.818  71.550  0.00  0.00    +0.000 C 
ATOM      6  S   UNL     1      59.862  64.017  71.543  0.00  0.00    +0.000 S 
ATOM      7  C   UNL     1      60.048  63.807  70.766  0.00  0.00    +0.000 C 
ATOM      8  C   UNL     1      60.277  63.058  70.508  0.00  0.00    +0.000 C 
ATOM      9  C   UNL     1      60.360  62.386  70.981  0.00  0.00    +0.000 C 
ATOM     10  C   UNL     1      60.597  61.762  70.497  0.00  0.00    +0.000 C 
ATOM     11  C   UNL     1      60.660  62.048  69.725  0.00  0.00    +0.000 C 
ATOM     12  O   UNL     1      60.462  62.848  69.732  0.00  0.00    +0.000 OA
ATOM     13  C   UNL     1      59.964  64.478  70.294  0.00  0.00    +0.000 C 
ATOM     14  N   UNL     1      59.727  65.103  70.778  0.00  0.00    +0.000 N 
ATOM     15  C   UNL     1      59.498  65.852  71.037  0.00  0.00    +0.000 C 
ATOM     16  O   UNL     1      59.381  66.584  70.674  0.00  0.00    +0.000 OA
ATOM     17  C   UNL     1      60.095  64.518  69.480  0.00  0.00    +0.000 C 
ATOM     18  O   UNL     1      59.989  65.231  69.080  0.00  0.00    +0.000 OA
ATOM     19  O   UNL     1      60.332  63.844  69.068  0.00  0.00    +0.000 OA
ATOM     20  C   UNL     1      60.463  63.884  68.254  0.00  0.00    +0.000 C 
ATOM     21  C   UNL     1      60.700  63.210  67.841  0.00  0.00    +0.000 A 
ATOM     22  C   UNL     1      60.828  62.462  68.165  0.00  0.00    +0.000 A 
ATOM     23  C   UNL     1      60.741  62.257  68.959  0.00  0.00    +0.000 C 
ATOM     24  O   UNL     1      61.058  61.957  67.556  0.00  0.00    +0.000 OA
ATOM     25  C   UNL     1      61.072  62.391  66.854  0.00  0.00    +0.000 A 
ATOM     26  O   UNL     1      61.272  62.102  66.108  0.00  0.00    +0.000 OA
ATOM     27  O   UNL     1      60.851  63.167  67.031  0.00  0.00    +0.000 OA
ENDROOT
TORSDOF 0
ENDMDL
MODEL 3
REMARK VINA RESULT:   -11.658      1.601      5.303
REMARK INTER + INTRA:         -11.658
REMARK INTER:                 -11.658
REMARK INTRA:                   0.000
REMARK UNBOUND:                 0.000
ROOT
REMARK  Name = faropenem medoxil
REMARK                            x       y       z     vdW  Elec       q    Type
REMARK                         _______ _______ _______ _____ _____    ______ ____
ATOM      1  C   UNL     1      61.529  62.174  65.713  0.00  0.00    +0.000 C 
ATOM      2  C   UNL     1      61.443  61.890  66.483  0.00  0.00    +0.000 C 
ATOM      3  O   UNL     1      61.630  61.105  66.657  0.00  0.00    +0.000 OA
ATOM      4  C   UNL     1      61.170  62.390  67.078  0.00  0.00    +0.000 C 
ATOM      5  C   UNL     1      61.018  62.308  67.885  0.00  0.00    +0.000 C 
ATOM      6  S   UNL     1      60.945  61.986  68.641  0.00  0.00    +0.000 S 
ATOM      7  C   UNL     1      60.666  62.577  69.145  0.00  0.00    +0.000 C 
ATOM      8  C   UNL     1      60.514  62.495  69.952  0.00  0.00    +0.000 C 
ATOM      9  C   UNL     1      60.614  61.807  70.397  0.00  0.00    +0.000 C 
ATOM     10  C   UNL     1      60.397  61.973  71.174  0.00  0.00    +0.000 C 
ATOM     11  C   UNL     1      60.163  62.763  71.211  0.00  0.00    +0.000 C 
ATOM     12  O   UNL     1      60.235  63.085  70.455  0.00  0.00    +0.000 OA
ATOM     13  C   UNL     1      60.566  63.264  68.700  0.00  0.00    +0.000 C 
ATOM     14  N   UNL     1      60.783  63.098  67.921  0.00  0.00    +0.000 N 
ATOM     15  C   UNL     1      60.935  63.181  67.115  0.00  0.00    +0.000 C 
ATOM     16  O   UNL     1      60.877  63.797  66.570  0.00  0.00    +0.000 OA
ATOM     17  C   UNL     1      60.296  63.991  68.984  0.00  0.00    +0.000 C 
ATOM     18  O   UNL     1      60.223  64.633  68.471  0.00  0.00    +0.000 OA
ATOM     19  O   UNL     1      60.098  64.074  69.781  0.00  0.00    +0.000 OA
ATOM     20  C   UNL     1      59.828  64.801  70.065  0.00  0.00    +0.000 C 
ATOM     21  C   UNL     1      59.631  64.884  70.861  0.00  0.00    +0.000 A 
ATOM     22  C   UNL     1      59.675  64.294  71.436  0.00  0.00    +0.000 A 
ATOM     23  C   UNL     1      59.924  63.517  71.316  0.00  0.00    +0.000 C 
ATOM     24  O   UNL     1      59.426  64.619  72.153  0.00  0.00    +0.000 OA
ATOM     25  C   UNL     1      59.228  65.408  72.021  0.00  0.00    +0.000 A 
ATOM     26  O   UNL     1      58.952  65.941  72.588  0.00  0.00    +0.000 OA
ATOM     27  O   UNL     1      59.355  65.573  71.222  0.00  0.00    +0.000 OA
ENDROOT
TORSDOF 0
ENDMDL
MODEL 4
REMARK VINA RESULT:   -11.582      4.405      5.916
REMARK INTER + INTRA:         -11.582
REMARK INTER:                 -11.582
REMARK INTRA:                   0.000
REMARK UNBOUND:                 0.000
ROOT
REMARK  Name = faropenem medoxil
REMARK                            x       y       z     vdW  Elec       q    Type
REMARK                         _______ _______ _______ _____ _____    ______ ____
ATOM      1  C   UNL     1      65.969  67.362  70.210  0.00  0.00    +0.000 C 
ATOM      2  C   UNL     1      65.375  67.252  70.771  0.00  0.00    +0.000 C 
ATOM      3  O   UNL     1      65.308  67.770  71.410  0.00  0.00    +0.000 OA
ATOM      4  C   UNL     1      64.846  66.623  70.695  0.00  0.00    +0.000 C 
ATOM      5  C   UNL     1      64.203  66.345  71.131  0.00  0.00    +0.000 C 
ATOM      6  S   UNL     1      63.623  66.270  71.713  0.00  0.00    +0.000 S 
ATOM      7  C   UNL     1      63.161  65.612  71.529  0.00  0.00    +0.000 C 
ATOM      8  C   UNL     1      62.518  65.334  71.965  0.00  0.00    +0.000 C 
ATOM      9  C   UNL     1      62.224  65.666  72.661  0.00  0.00    +0.000 C 
ATOM     10  C   UNL     1      61.580  65.213  72.907  0.00  0.00    +0.000 C 
ATOM     11  C   UNL     1      61.476  64.602  72.363  0.00  0.00    +0.000 C 
ATOM     12  O   UNL     1      62.055  64.676  71.781  0.00  0.00    +0.000 OA
ATOM     13  C   UNL     1      63.455  65.281  70.833  0.00  0.00    +0.000 C 
ATOM     14  N   UNL     1      64.099  65.734  70.587  0.00  0.00    +0.000 N 
ATOM     15  C   UNL     1      64.742  66.012  70.151  0.00  0.00    +0.000 C 
ATOM     16  O   UNL     1      65.123  65.776  69.459  0.00  0.00    +0.000 OA
ATOM     17  C   UNL     1      63.157  64.613  70.451  0.00  0.00    +0.000 C 
ATOM     18  O   UNL     1      63.510  64.344  69.755  0.00  0.00    +0.000 OA
ATOM     19  O   UNL     1      62.506  64.214  70.764  0.00  0.00    +0.000 OA
ATOM     20  C   UNL     1      62.208  63.547  70.381  0.00  0.00    +0.000 C 
ATOM     21  C   UNL     1      61.557  63.148  70.695  0.00  0.00    +0.000 A 
ATOM     22  C   UNL     1      61.149  63.351  71.382  0.00  0.00    +0.000 A 
ATOM     23  C   UNL     1      61.320  63.988  71.877  0.00  0.00    +0.000 C 
ATOM     24  O   UNL     1      60.540  62.805  71.487  0.00  0.00    +0.000 OA
ATOM     25  C   UNL     1      60.571  62.264  70.865  0.00  0.00    +0.000 A 
ATOM     26  O   UNL     1      60.064  61.624  70.752  0.00  0.00    +0.000 OA
ATOM     27  O   UNL     1      61.201  62.476  70.375  0.00  0.00    +0.000 OA
ENDROOT
TORSDOF 0
ENDMDL
MODEL 5
REMARK VINA RESULT:   -11.337      2.397      5.948
REMARK INTER + INTRA:         -11.337
REMARK INTER:                 -11.337
REMARK INTRA:                   0.000
REMARK UNBOUND:                 0.000
ROOT
REMARK  Name = faropenem medoxil
REMARK                            x       y       z     vdW  Elec       q    Type
REMARK                         _______ _______ _______ _____ _____    ______ ____
ATOM      1  C   UNL     1      60.494  62.006  67.725  0.00  0.00    +0.000 C 
ATOM      2  C   UNL     1      60.504  62.098  68.544  0.00  0.00    +0.000 C 
ATOM      3  O   UNL     1      60.129  61.544  69.027  0.00  0.00    +0.000 OA
ATOM      4  C   UNL     1      60.890  62.744  68.882  0.00  0.00    +0.000 C 
ATOM      5  C   UNL     1      61.014  63.012  69.653  0.00  0.00    +0.000 C 
ATOM      6  S   UNL     1      61.001  63.068  70.476  0.00  0.00    +0.000 S 
ATOM      7  C   UNL     1      61.415  63.748  70.692  0.00  0.00    +0.000 C 
ATOM      8  C   UNL     1      61.539  64.016  71.462  0.00  0.00    +0.000 C 
ATOM      9  C   UNL     1      61.270  63.651  72.152  0.00  0.00    +0.000 C 
ATOM     10  C   UNL     1      61.518  64.105  72.794  0.00  0.00    +0.000 C 
ATOM     11  C   UNL     1      61.940  64.751  72.501  0.00  0.00    +0.000 C 
ATOM     12  O   UNL     1      61.953  64.696  71.679  0.00  0.00    +0.000 OA
ATOM     13  C   UNL     1      61.683  64.113  70.003  0.00  0.00    +0.000 C 
ATOM     14  N   UNL     1      61.435  63.658  69.360  0.00  0.00    +0.000 N 
ATOM     15  C   UNL     1      61.312  63.390  68.590  0.00  0.00    +0.000 C 
ATOM     16  O   UNL     1      61.522  63.657  67.839  0.00  0.00    +0.000 OA
ATOM     17  C   UNL     1      62.123  64.810  69.963  0.00  0.00    +0.000 C 
ATOM     18  O   UNL     1      62.354  65.111  69.230  0.00  0.00    +0.000 OA
ATOM     19  O   UNL     1      62.332  65.206  70.655  0.00  0.00    +0.000 OA
ATOM     20  C   UNL     1      62.771  65.904  70.615  0.00  0.00    +0.000 C 
ATOM     21  C   UNL     1      62.980  66.300  71.308  0.00  0.00    +0.000 A 
ATOM     22  C   UNL     1      62.789  66.067  72.076  0.00  0.00    +0.000 A 
ATOM     23  C   UNL     1      62.357  65.397  72.287  0.00  0.00    +0.000 C 
ATOM     24  O   UNL     1      63.108  66.622  72.597  0.00  0.00    +0.000 OA
ATOM     25  C   UNL     1      63.495  67.198  72.151  0.00  0.00    +0.000 A 
ATOM     26  O   UNL     1      63.891  67.857  72.449  0.00  0.00    +0.000 OA
ATOM     27  O   UNL     1      63.415  66.999  71.354  0.00  0.00    +0.000 OA
ENDROOT
TORSDOF 0
ENDMDL
MODEL 6
REMARK VINA RESULT:   -11.332      4.240      6.262
REMARK INTER + INTRA:         -11.332
REMARK INTER:                 -11.332
REMARK INTRA:                   0.000
REMARK UNBOUND:                 0.000
ROOT
REMARK  Name = faropenem medoxil
REMARK                            x       y       z     vdW  Elec       q    Type
REMARK                         _______ _______ _______ _____ _____    ______ ____
ATOM      1  C   UNL     1      60.319  62.284  70.969  0.00  0.00    +0.000 C 
ATOM      2  C   UNL     1      60.544  62.937  71.420  0.00  0.00    +0.000 C 
ATOM      3  O   UNL     1      60.122  63.134  72.101  0.00  0.00    +0.000 OA
ATOM      4  C   UNL     1      61.192  63.393  71.190  0.00  0.00    +0.000 C 
ATOM      5  C   UNL     1      61.569  64.063  71.490  0.00  0.00    +0.000 C 
ATOM      6  S   UNL     1      61.762  64.708  71.968  0.00  0.00    +0.000 S 
ATOM      7  C   UNL     1      62.420  65.082  71.638  0.00  0.00    +0.000 C 
ATOM      8  C   UNL     1      62.797  65.751  71.938  0.00  0.00    +0.000 C 
ATOM      9  C   UNL     1      62.583  66.165  72.620  0.00  0.00    +0.000 C 
ATOM     10  C   UNL     1      63.108  66.793  72.711  0.00  0.00    +0.000 C 
ATOM     11  C   UNL     1      63.647  66.769  72.087  0.00  0.00    +0.000 C 
ATOM     12  O   UNL     1      63.454  66.125  71.609  0.00  0.00    +0.000 OA
ATOM     13  C   UNL     1      62.633  64.668  70.957  0.00  0.00    +0.000 C 
ATOM     14  N   UNL     1      62.108  64.039  70.865  0.00  0.00    +0.000 N 
ATOM     15  C   UNL     1      61.730  63.369  70.566  0.00  0.00    +0.000 C 
ATOM     16  O   UNL     1      61.844  62.879  69.913  0.00  0.00    +0.000 OA
ATOM     17  C   UNL     1      63.262  64.852  70.456  0.00  0.00    +0.000 C 
ATOM     18  O   UNL     1      63.410  64.386  69.791  0.00  0.00    +0.000 OA
ATOM     19  O   UNL     1      63.743  65.502  70.619  0.00  0.00    +0.000 OA
ATOM     20  C   UNL     1      64.372  65.686  70.118  0.00  0.00    +0.000 C 
ATOM     21  C   UNL     1      64.853  66.336  70.281  0.00  0.00    +0.000 A 
ATOM     22  C   UNL     1      64.773  66.850  70.922  0.00  0.00    +0.000 A 
ATOM     23  C   UNL     1      64.199  66.804  71.511  0.00  0.00    +0.000 C 
ATOM     24  O   UNL     1      65.370  67.417  70.869  0.00  0.00    +0.000 OA
ATOM     25  C   UNL     1      65.818  67.255  70.196  0.00  0.00    +0.000 A 
ATOM     26  O   UNL     1      66.471  67.685  69.932  0.00  0.00    +0.000 OA
ATOM     27  O   UNL     1      65.499  66.586  69.832  0.00  0.00    +0.000 OA
ENDROOT
TORSDOF 0
ENDMDL
MODEL 7
REMARK VINA RESULT:   -11.188      4.509      7.080
REMARK INTER + INTRA:         -11.188
REMARK INTER:                 -11.188
REMARK INTRA:                   0.000
REMARK UNBOUND:                 0.000
ROOT
REMARK  Name = faropenem medoxil
REMARK                            x       y       z     vdW  Elec       q    Type
REMARK                         _______ _______ _______ _____ _____    ______ ____
ATOM      1  C   UNL     1      60.932  61.734  70.693  0.00  0.00    +0.000 C 
ATOM      2  C   UNL     1      60.540  62.333  71.103  0.00  0.00    +0.000 C 
ATOM      3  O   UNL     1      59.760  62.223  71.348  0.00  0.00    +0.000 OA
ATOM      4  C   UNL     1      60.928  63.042  71.269  0.00  0.00    +0.000 C 
ATOM      5  C   UNL     1      60.724  63.742  71.654  0.00  0.00    +0.000 C 
ATOM      6  S   UNL     1      60.297  64.316  72.066  0.00  0.00    +0.000 S 
ATOM      7  C   UNL     1      60.787  64.972  72.171  0.00  0.00    +0.000 C 
ATOM      8  C   UNL     1      60.583  65.673  72.556  0.00  0.00    +0.000 C 
ATOM      9  C   UNL     1      59.853  65.840  72.903  0.00  0.00    +0.000 C 
ATOM     10  C   UNL     1      59.892  66.599  73.222  0.00  0.00    +0.000 C 
ATOM     11  C   UNL     1      60.645  66.901  73.072  0.00  0.00    +0.000 C 
ATOM     12  O   UNL     1      61.071  66.328  72.660  0.00  0.00    +0.000 OA
ATOM     13  C   UNL     1      61.516  64.804  71.824  0.00  0.00    +0.000 C 
ATOM     14  N   UNL     1      61.477  64.044  71.504  0.00  0.00    +0.000 N 
ATOM     15  C   UNL     1      61.681  63.343  71.119  0.00  0.00    +0.000 C 
ATOM     16  O   UNL     1      62.358  63.061  70.742  0.00  0.00    +0.000 OA
ATOM     17  C   UNL     1      62.169  65.308  71.800  0.00  0.00    +0.000 C 
ATOM     18  O   UNL     1      62.865  65.063  71.431  0.00  0.00    +0.000 OA
ATOM     19  O   UNL     1      62.126  66.055  72.145  0.00  0.00    +0.000 OA
ATOM     20  C   UNL     1      62.779  66.559  72.121  0.00  0.00    +0.000 C 
ATOM     21  C   UNL     1      62.735  67.307  72.467  0.00  0.00    +0.000 A 
ATOM     22  C   UNL     1      62.080  67.626  72.853  0.00  0.00    +0.000 A 
ATOM     23  C   UNL     1      61.353  67.253  72.962  0.00  0.00    +0.000 C 
ATOM     24  O   UNL     1      62.280  68.383  73.111  0.00  0.00    +0.000 OA
ATOM     25  C   UNL     1      63.059  68.533  72.884  0.00  0.00    +0.000 A 
ATOM     26  O   UNL     1      63.482  69.226  73.030  0.00  0.00    +0.000 OA
ATOM     27  O   UNL     1      63.341  67.867  72.486  0.00  0.00    +0.000 OA
ENDROOT
TORSDOF 0
ENDMDL
MODEL 8
REMARK VINA RESULT:   -11.101      4.503      7.032
REMARK INTER + INTRA:         -11.101
REMARK INTER:                 -11.101
REMARK INTRA:                   0.000
REMARK UNBOUND:                 0.000
ROOT
REMARK  Name = faropenem medoxil
REMARK                            x       y       z     vdW  Elec       q    Type
REMARK                         _______ _______ _______ _____ _____    ______ ____
ATOM      1  C   UNL     1      60.125  61.952  71.086  0.00  0.00    +0.000 C 
ATOM      2  C   UNL     1      60.855  62.300  70.922  0.00  0.00    +0.000 C 
ATOM      3  O   UNL     1      61.414  61.893  70.472  0.00  0.00    +0.000 OA
ATOM      4  C   UNL     1      61.025  63.055  71.206  0.00  0.00    +0.000 C 
ATOM      5  C   UNL     1      61.672  63.565  71.157  0.00  0.00    +0.000 C 
ATOM      6  S   UNL     1      62.413  63.877  70.970  0.00  0.00    +0.000 S 
ATOM      7  C   UNL     1      62.465  64.629  71.307  0.00  0.00    +0.000 C 
ATOM      8  C   UNL     1      63.112  65.138  71.257  0.00  0.00    +0.000 C 
ATOM      9  C   UNL     1      63.820  64.986  70.862  0.00  0.00    +0.000 C 
ATOM     10  C   UNL     1      64.309  65.643  70.955  0.00  0.00    +0.000 C 
ATOM     11  C   UNL     1      63.904  66.201  71.407  0.00  0.00    +0.000 C 
ATOM     12  O   UNL     1      63.164  65.890  71.594  0.00  0.00    +0.000 OA
ATOM     13  C   UNL     1      61.757  64.781  71.701  0.00  0.00    +0.000 C 
ATOM     14  N   UNL     1      61.267  64.123  71.609  0.00  0.00    +0.000 N 
ATOM     15  C   UNL     1      60.620  63.613  71.658  0.00  0.00    +0.000 C 
ATOM     16  O   UNL     1      59.876  63.648  72.013  0.00  0.00    +0.000 OA
ATOM     17  C   UNL     1      61.571  65.470  72.116  0.00  0.00    +0.000 C 
ATOM     18  O   UNL     1      60.837  65.544  72.485  0.00  0.00    +0.000 OA
ATOM     19  O   UNL     1      62.119  66.084  72.161  0.00  0.00    +0.000 OA
ATOM     20  C   UNL     1      61.934  66.773  72.576  0.00  0.00    +0.000 C 
ATOM     21  C   UNL     1      62.482  67.387  72.621  0.00  0.00    +0.000 A 
ATOM     22  C   UNL     1      63.234  67.392  72.282  0.00  0.00    +0.000 A 
ATOM     23  C   UNL     1      63.570  66.784  71.838  0.00  0.00    +0.000 C 
ATOM     24  O   UNL     1      63.591  68.113  72.466  0.00  0.00    +0.000 OA
ATOM     25  C   UNL     1      63.060  68.554  72.918  0.00  0.00    +0.000 A 
ATOM     26  O   UNL     1      63.192  69.310  73.221  0.00  0.00    +0.000 OA
ATOM     27  O   UNL     1      62.374  68.105  73.014  0.00  0.00    +0.000 OA
ENDROOT
TORSDOF 0
ENDMDL
MODEL 9
REMARK VINA RESULT:   -11.037      1.529      4.818
REMARK INTER + INTRA:         -11.037
REMARK INTER:                 -11.037
REMARK INTRA:                   0.000
REMARK UNBOUND:                 0.000
ROOT
REMARK  Name = faropenem medoxil
REMARK                            x       y       z     vdW  Elec       q    Type
REMARK                         _______ _______ _______ _____ _____    ______ ____
ATOM      1  C   UNL     1      59.726  62.036  65.736  0.00  0.00    +0.000 C 
ATOM      2  C   UNL     1      59.661  62.012  66.558  0.00  0.00    +0.000 C 
ATOM      3  O   UNL     1      59.055  61.577  66.911  0.00  0.00    +0.000 OA
ATOM      4  C   UNL     1      60.203  62.420  67.026  0.00  0.00    +0.000 C 
ATOM      5  C   UNL     1      60.311  62.523  67.838  0.00  0.00    +0.000 C 
ATOM      6  S   UNL     1      60.212  62.472  68.656  0.00  0.00    +0.000 S 
ATOM      7  C   UNL     1      60.808  62.918  69.013  0.00  0.00    +0.000 C 
ATOM      8  C   UNL     1      60.917  63.020  69.824  0.00  0.00    +0.000 C 
ATOM      9  C   UNL     1      60.449  62.694  70.421  0.00  0.00    +0.000 C 
ATOM     10  C   UNL     1      60.755  62.939  71.146  0.00  0.00    +0.000 C 
ATOM     11  C   UNL     1      61.412  63.415  70.998  0.00  0.00    +0.000 C 
ATOM     12  O   UNL     1      61.512  63.466  70.181  0.00  0.00    +0.000 OA
ATOM     13  C   UNL     1      61.275  63.244  68.416  0.00  0.00    +0.000 C 
ATOM     14  N   UNL     1      60.968  62.999  67.690  0.00  0.00    +0.000 N 
ATOM     15  C   UNL     1      60.859  62.897  66.878  0.00  0.00    +0.000 C 
ATOM     16  O   UNL     1      61.247  63.162  66.200  0.00  0.00    +0.000 OA
ATOM     17  C   UNL     1      61.934  63.729  68.526  0.00  0.00    +0.000 C 
ATOM     18  O   UNL     1      62.349  64.015  67.873  0.00  0.00    +0.000 OA
ATOM     19  O   UNL     1      62.176  63.927  69.289  0.00  0.00    +0.000 OA
ATOM     20  C   UNL     1      62.835  64.413  69.399  0.00  0.00    +0.000 C 
ATOM     21  C   UNL     1      63.078  64.611  70.162  0.00  0.00    +0.000 A 
ATOM     22  C   UNL     1      62.719  64.368  70.864  0.00  0.00    +0.000 A 
ATOM     23  C   UNL     1      62.055  63.884  70.926  0.00  0.00    +0.000 C 
ATOM     24  O   UNL     1      63.142  64.695  71.492  0.00  0.00    +0.000 OA
ATOM     25  C   UNL     1      63.762  65.140  71.179  0.00  0.00    +0.000 A 
ATOM     26  O   UNL     1      64.323  65.563  71.612  0.00  0.00    +0.000 OA
ATOM     27  O   UNL     1      63.722  65.088  70.356  0.00  0.00    +0.000 OA
ENDROOT
TORSDOF 0
ENDMDL
