MODEL 1
REMARK VINA RESULT:    -9.302      0.000      0.000
REMARK INTER + INTRA:          -9.302
REMARK INTER:                  -9.302
REMARK INTRA:                   0.000
REMARK UNBOUND:                 0.000
ROOT
REMARK  Name = febuprol
REMARK                            x       y       z     vdW  Elec       q    Type
REMARK                         _______ _______ _______ _____ _____    ______ ____
ATOM      1  C   UNL     1      60.197  63.115  71.722  0.00  0.00    +0.000 C 
ATOM      2  C   UNL     1      60.122  62.755  70.984  0.00  0.00    +0.000 C 
ATOM      3  C   UNL     1      60.617  62.978  70.363  0.00  0.00    +0.000 C 
ATOM      4  C   UNL     1      60.543  62.619  69.625  0.00  0.00    +0.000 C 
ATOM      5  O   UNL     1      61.038  62.842  69.004  0.00  0.00    +0.000 OA
ATOM      6  C   UNL     1      60.964  62.482  68.266  0.00  0.00    +0.000 C 
ATOM      7  C   UNL     1      61.459  62.705  67.645  0.00  0.00    +0.000 C 
ATOM      8  O   UNL     1      62.030  63.289  67.763  0.00  0.00    +0.000 OA
ATOM      9  C   UNL     1      61.384  62.346  66.907  0.00  0.00    +0.000 C 
ATOM     10  O   UNL     1      61.880  62.569  66.286  0.00  0.00    +0.000 OA
ATOM     11  C   UNL     1      61.805  62.209  65.548  0.00  0.00    +0.000 A 
ATOM     12  C   UNL     1      62.301  62.433  64.928  0.00  0.00    +0.000 A 
ATOM     13  C   UNL     1      62.226  62.073  64.190  0.00  0.00    +0.000 A 
ATOM     14  C   UNL     1      61.654  61.489  64.071  0.00  0.00    +0.000 A 
ATOM     15  C   UNL     1      61.159  61.265  64.691  0.00  0.00    +0.000 A 
ATOM     16  C   UNL     1      61.234  61.625  65.430  0.00  0.00    +0.000 A 
ENDROOT
TORSDOF 0
ENDMDL
MODEL 2
REMARK VINA RESULT:    -9.096      0.517      5.063
REMARK INTER + INTRA:          -9.096
REMARK INTER:                  -9.096
REMARK INTRA:                   0.000
REMARK UNBOUND:                 0.000
ROOT
REMARK  Name = febuprol
REMARK                            x       y       z     vdW  Elec       q    Type
REMARK                         _______ _______ _______ _____ _____    ______ ____
ATOM      1  C   UNL     1      62.409  61.888  63.715  0.00  0.00    +0.000 C 
ATOM      2  C   UNL     1      62.163  61.632  64.459  0.00  0.00    +0.000 C 
ATOM      3  C   UNL     1      62.037  62.180  65.064  0.00  0.00    +0.000 C 
ATOM      4  C   UNL     1      61.791  61.924  65.808  0.00  0.00    +0.000 C 
ATOM      5  O   UNL     1      61.665  62.471  66.412  0.00  0.00    +0.000 OA
ATOM      6  C   UNL     1      61.419  62.215  67.156  0.00  0.00    +0.000 C 
ATOM      7  C   UNL     1      61.293  62.762  67.761  0.00  0.00    +0.000 C 
ATOM      8  O   UNL     1      61.413  63.566  67.620  0.00  0.00    +0.000 OA
ATOM      9  C   UNL     1      61.047  62.506  68.505  0.00  0.00    +0.000 C 
ATOM     10  O   UNL     1      60.921  63.054  69.109  0.00  0.00    +0.000 OA
ATOM     11  C   UNL     1      60.676  62.798  69.854  0.00  0.00    +0.000 A 
ATOM     12  C   UNL     1      60.549  63.345  70.458  0.00  0.00    +0.000 A 
ATOM     13  C   UNL     1      60.304  63.089  71.202  0.00  0.00    +0.000 A 
ATOM     14  C   UNL     1      60.183  62.284  71.343  0.00  0.00    +0.000 A 
ATOM     15  C   UNL     1      60.309  61.737  70.739  0.00  0.00    +0.000 A 
ATOM     16  C   UNL     1      60.555  61.993  69.994  0.00  0.00    +0.000 A 
ENDROOT
TORSDOF 0
ENDMDL
MODEL 3
REMARK VINA RESULT:    -8.562      4.514      6.330
REMARK INTER + INTRA:          -8.562
REMARK INTER:                  -8.562
REMARK INTRA:                   0.000
REMARK UNBOUND:                 0.000
ROOT
REMARK  Name = febuprol
REMARK                            x       y       z     vdW  Elec       q    Type
REMARK                         _______ _______ _______ _____ _____    ______ ____
ATOM      1  C   UNL     1      66.521  67.906  69.810  0.00  0.00    +0.000 C 
ATOM      2  C   UNL     1      65.986  67.544  70.322  0.00  0.00    +0.000 C 
ATOM      3  C   UNL     1      65.535  66.903  70.063  0.00  0.00    +0.000 C 
ATOM      4  C   UNL     1      65.000  66.541  70.574  0.00  0.00    +0.000 C 
ATOM      5  O   UNL     1      64.549  65.900  70.315  0.00  0.00    +0.000 OA
ATOM      6  C   UNL     1      64.014  65.538  70.827  0.00  0.00    +0.000 C 
ATOM      7  C   UNL     1      63.563  64.897  70.567  0.00  0.00    +0.000 C 
ATOM      8  O   UNL     1      63.647  64.620  69.795  0.00  0.00    +0.000 OA
ATOM      9  C   UNL     1      63.028  64.535  71.079  0.00  0.00    +0.000 C 
ATOM     10  O   UNL     1      62.577  63.895  70.820  0.00  0.00    +0.000 OA
ATOM     11  C   UNL     1      62.042  63.532  71.332  0.00  0.00    +0.000 A 
ATOM     12  C   UNL     1      61.590  62.892  71.072  0.00  0.00    +0.000 A 
ATOM     13  C   UNL     1      61.056  62.529  71.584  0.00  0.00    +0.000 A 
ATOM     14  C   UNL     1      60.971  62.806  72.357  0.00  0.00    +0.000 A 
ATOM     15  C   UNL     1      61.422  63.446  72.617  0.00  0.00    +0.000 A 
ATOM     16  C   UNL     1      61.957  63.809  72.105  0.00  0.00    +0.000 A 
ENDROOT
TORSDOF 0
ENDMDL
MODEL 4
REMARK VINA RESULT:    -8.511      4.391      5.908
REMARK INTER + INTRA:          -8.511
REMARK INTER:                  -8.511
REMARK INTRA:                   0.000
REMARK UNBOUND:                 0.000
ROOT
REMARK  Name = febuprol
REMARK                            x       y       z     vdW  Elec       q    Type
REMARK                         _______ _______ _______ _____ _____    ______ ____
ATOM      1  C   UNL     1      60.476  61.734  70.803  0.00  0.00    +0.000 C 
ATOM      2  C   UNL     1      61.047  62.242  71.111  0.00  0.00    +0.000 C 
ATOM      3  C   UNL     1      61.455  62.757  70.612  0.00  0.00    +0.000 C 
ATOM      4  C   UNL     1      62.026  63.266  70.920  0.00  0.00    +0.000 C 
ATOM      5  O   UNL     1      62.433  63.781  70.421  0.00  0.00    +0.000 OA
ATOM      6  C   UNL     1      63.005  64.289  70.729  0.00  0.00    +0.000 C 
ATOM      7  C   UNL     1      63.412  64.805  70.230  0.00  0.00    +0.000 C 
ATOM      8  O   UNL     1      63.247  64.811  69.422  0.00  0.00    +0.000 OA
ATOM      9  C   UNL     1      63.983  65.313  70.539  0.00  0.00    +0.000 C 
ATOM     10  O   UNL     1      64.391  65.828  70.039  0.00  0.00    +0.000 OA
ATOM     11  C   UNL     1      64.962  66.337  70.348  0.00  0.00    +0.000 A 
ATOM     12  C   UNL     1      65.369  66.852  69.849  0.00  0.00    +0.000 A 
ATOM     13  C   UNL     1      65.940  67.360  70.157  0.00  0.00    +0.000 A 
ATOM     14  C   UNL     1      66.105  67.353  70.966  0.00  0.00    +0.000 A 
ATOM     15  C   UNL     1      65.699  66.839  71.465  0.00  0.00    +0.000 A 
ATOM     16  C   UNL     1      65.127  66.330  71.157  0.00  0.00    +0.000 A 
ENDROOT
TORSDOF 0
ENDMDL
MODEL 5
REMARK VINA RESULT:    -7.852      1.674      5.627
REMARK INTER + INTRA:          -7.852
REMARK INTER:                  -7.852
REMARK INTRA:                   0.000
REMARK UNBOUND:                 0.000
ROOT
REMARK  Name = febuprol
REMARK                            x       y       z     vdW  Elec       q    Type
REMARK                         _______ _______ _______ _____ _____    ______ ____
ATOM      1  C   UNL     1      61.986  62.031  65.458  0.00  0.00    +0.000 C 
ATOM      2  C   UNL     1      61.730  62.036  66.241  0.00  0.00    +0.000 C 
ATOM      3  C   UNL     1      61.499  62.744  66.596  0.00  0.00    +0.000 C 
ATOM      4  C   UNL     1      61.243  62.748  67.380  0.00  0.00    +0.000 C 
ATOM      5  O   UNL     1      61.013  63.457  67.735  0.00  0.00    +0.000 OA
ATOM      6  C   UNL     1      60.757  63.461  68.519  0.00  0.00    +0.000 C 
ATOM      7  C   UNL     1      60.526  64.170  68.874  0.00  0.00    +0.000 C 
ATOM      8  O   UNL     1      60.552  64.873  68.444  0.00  0.00    +0.000 OA
ATOM      9  C   UNL     1      60.270  64.174  69.658  0.00  0.00    +0.000 C 
ATOM     10  O   UNL     1      60.040  64.883  70.013  0.00  0.00    +0.000 OA
ATOM     11  C   UNL     1      59.784  64.887  70.796  0.00  0.00    +0.000 A 
ATOM     12  C   UNL     1      59.553  65.595  71.152  0.00  0.00    +0.000 A 
ATOM     13  C   UNL     1      59.297  65.600  71.935  0.00  0.00    +0.000 A 
ATOM     14  C   UNL     1      59.271  64.896  72.365  0.00  0.00    +0.000 A 
ATOM     15  C   UNL     1      59.502  64.188  72.011  0.00  0.00    +0.000 A 
ATOM     16  C   UNL     1      59.758  64.183  71.227  0.00  0.00    +0.000 A 
ENDROOT
TORSDOF 0
ENDMDL
MODEL 6
REMARK VINA RESULT:    -7.776      1.851      2.133
REMARK INTER + INTRA:          -7.776
REMARK INTER:                  -7.776
REMARK INTRA:                   0.000
REMARK UNBOUND:                 0.000
ROOT
REMARK  Name = febuprol
REMARK                            x       y       z     vdW  Elec       q    Type
REMARK                         _______ _______ _______ _____ _____    ______ ____
ATOM      1  C   UNL     1      61.227  66.607  71.235  0.00  0.00    +0.000 C 
ATOM      2  C   UNL     1      61.564  66.183  70.613  0.00  0.00    +0.000 C 
ATOM      3  C   UNL     1      61.098  65.677  70.158  0.00  0.00    +0.000 C 
ATOM      4  C   UNL     1      61.434  65.253  69.536  0.00  0.00    +0.000 C 
ATOM      5  O   UNL     1      60.968  64.747  69.080  0.00  0.00    +0.000 OA
ATOM      6  C   UNL     1      61.304  64.323  68.459  0.00  0.00    +0.000 C 
ATOM      7  C   UNL     1      60.838  63.817  68.003  0.00  0.00    +0.000 C 
ATOM      8  O   UNL     1      60.034  63.735  68.171  0.00  0.00    +0.000 OA
ATOM      9  C   UNL     1      61.174  63.393  67.381  0.00  0.00    +0.000 C 
ATOM     10  O   UNL     1      60.708  62.887  66.926  0.00  0.00    +0.000 OA
ATOM     11  C   UNL     1      61.044  62.463  66.304  0.00  0.00    +0.000 A 
ATOM     12  C   UNL     1      60.578  61.957  65.849  0.00  0.00    +0.000 A 
ATOM     13  C   UNL     1      60.914  61.533  65.227  0.00  0.00    +0.000 A 
ATOM     14  C   UNL     1      61.719  61.615  65.059  0.00  0.00    +0.000 A 
ATOM     15  C   UNL     1      62.185  62.120  65.514  0.00  0.00    +0.000 A 
ATOM     16  C   UNL     1      61.849  62.545  66.137  0.00  0.00    +0.000 A 
ENDROOT
TORSDOF 0
ENDMDL
MODEL 7
REMARK VINA RESULT:    -7.072      5.387      6.980
REMARK INTER + INTRA:          -7.072
REMARK INTER:                  -7.072
REMARK INTRA:                   0.000
REMARK UNBOUND:                 0.000
ROOT
REMARK  Name = febuprol
REMARK                            x       y       z     vdW  Elec       q    Type
REMARK                         _______ _______ _______ _____ _____    ______ ____
ATOM      1  C   UNL     1      59.405  65.836  69.444  0.00  0.00    +0.000 C 
ATOM      2  C   UNL     1      60.177  66.115  69.367  0.00  0.00    +0.000 C 
ATOM      3  C   UNL     1      60.726  65.979  69.968  0.00  0.00    +0.000 C 
ATOM      4  C   UNL     1      61.498  66.258  69.892  0.00  0.00    +0.000 C 
ATOM      5  O   UNL     1      62.048  66.122  70.492  0.00  0.00    +0.000 OA
ATOM      6  C   UNL     1      62.820  66.401  70.416  0.00  0.00    +0.000 C 
ATOM      7  C   UNL     1      63.370  66.265  71.016  0.00  0.00    +0.000 C 
ATOM      8  O   UNL     1      63.146  65.850  71.693  0.00  0.00    +0.000 OA
ATOM      9  C   UNL     1      64.142  66.544  70.940  0.00  0.00    +0.000 C 
ATOM     10  O   UNL     1      64.691  66.408  71.541  0.00  0.00    +0.000 OA
ATOM     11  C   UNL     1      65.463  66.687  71.464  0.00  0.00    +0.000 A 
ATOM     12  C   UNL     1      66.013  66.552  72.065  0.00  0.00    +0.000 A 
ATOM     13  C   UNL     1      66.785  66.831  71.989  0.00  0.00    +0.000 A 
ATOM     14  C   UNL     1      67.009  67.246  71.311  0.00  0.00    +0.000 A 
ATOM     15  C   UNL     1      66.460  67.382  70.711  0.00  0.00    +0.000 A 
ATOM     16  C   UNL     1      65.687  67.103  70.787  0.00  0.00    +0.000 A 
ENDROOT
TORSDOF 0
ENDMDL
MODEL 8
REMARK VINA RESULT:    -6.928      5.983      6.699
REMARK INTER + INTRA:          -6.928
REMARK INTER:                  -6.928
REMARK INTRA:                   0.000
REMARK UNBOUND:                 0.000
ROOT
REMARK  Name = febuprol
REMARK                            x       y       z     vdW  Elec       q    Type
REMARK                         _______ _______ _______ _____ _____    ______ ____
ATOM      1  C   UNL     1      57.427  66.525  73.149  0.00  0.00    +0.000 C 
ATOM      2  C   UNL     1      58.223  66.732  73.210  0.00  0.00    +0.000 C 
ATOM      3  C   UNL     1      58.765  66.461  72.650  0.00  0.00    +0.000 C 
ATOM      4  C   UNL     1      59.560  66.669  72.711  0.00  0.00    +0.000 C 
ATOM      5  O   UNL     1      60.103  66.398  72.152  0.00  0.00    +0.000 OA
ATOM      6  C   UNL     1      60.898  66.606  72.213  0.00  0.00    +0.000 C 
ATOM      7  C   UNL     1      61.440  66.334  71.653  0.00  0.00    +0.000 C 
ATOM      8  O   UNL     1      61.186  65.854  71.032  0.00  0.00    +0.000 OA
ATOM      9  C   UNL     1      62.235  66.542  71.714  0.00  0.00    +0.000 C 
ATOM     10  O   UNL     1      62.778  66.271  71.154  0.00  0.00    +0.000 OA
ATOM     11  C   UNL     1      63.573  66.479  71.215  0.00  0.00    +0.000 A 
ATOM     12  C   UNL     1      64.115  66.207  70.655  0.00  0.00    +0.000 A 
ATOM     13  C   UNL     1      64.911  66.415  70.716  0.00  0.00    +0.000 A 
ATOM     14  C   UNL     1      65.165  66.896  71.338  0.00  0.00    +0.000 A 
ATOM     15  C   UNL     1      64.624  67.167  71.897  0.00  0.00    +0.000 A 
ATOM     16  C   UNL     1      63.828  66.959  71.837  0.00  0.00    +0.000 A 
ENDROOT
TORSDOF 0
ENDMDL
MODEL 9
REMARK VINA RESULT:    -6.590      5.105      6.435
REMARK INTER + INTRA:          -6.590
REMARK INTER:                  -6.590
REMARK INTRA:                   0.000
REMARK UNBOUND:                 0.000
ROOT
REMARK  Name = febuprol
REMARK                            x       y       z     vdW  Elec       q    Type
REMARK                         _______ _______ _______ _____ _____    ______ ____
ATOM      1  C   UNL     1      62.363  60.509  72.071  0.00  0.00    +0.000 C 
ATOM      2  C   UNL     1      61.926  61.144  72.364  0.00  0.00    +0.000 C 
ATOM      3  C   UNL     1      61.783  61.802  71.887  0.00  0.00    +0.000 C 
ATOM      4  C   UNL     1      61.347  62.437  72.180  0.00  0.00    +0.000 C 
ATOM      5  O   UNL     1      61.203  63.095  71.703  0.00  0.00    +0.000 OA
ATOM      6  C   UNL     1      60.767  63.730  71.995  0.00  0.00    +0.000 C 
ATOM      7  C   UNL     1      60.624  64.388  71.518  0.00  0.00    +0.000 C 
ATOM      8  O   UNL     1      60.918  64.410  70.748  0.00  0.00    +0.000 OA
ATOM      9  C   UNL     1      60.187  65.023  71.811  0.00  0.00    +0.000 C 
ATOM     10  O   UNL     1      60.044  65.681  71.334  0.00  0.00    +0.000 OA
ATOM     11  C   UNL     1      59.607  66.316  71.627  0.00  0.00    +0.000 A 
ATOM     12  C   UNL     1      59.464  66.974  71.150  0.00  0.00    +0.000 A 
ATOM     13  C   UNL     1      59.028  67.609  71.442  0.00  0.00    +0.000 A 
ATOM     14  C   UNL     1      58.733  67.587  72.214  0.00  0.00    +0.000 A 
ATOM     15  C   UNL     1      58.876  66.930  72.690  0.00  0.00    +0.000 A 
ATOM     16  C   UNL     1      59.313  66.294  72.398  0.00  0.00    +0.000 A 
ENDROOT
TORSDOF 0
ENDMDL
