MODEL 1
REMARK VINA RESULT:    -8.717      0.000      0.000
REMARK INTER + INTRA:          -8.717
REMARK INTER:                  -8.717
REMARK INTRA:                   0.000
REMARK UNBOUND:                 0.000
ROOT
REMARK  Name = felbamate
REMARK                            x       y       z     vdW  Elec       q    Type
REMARK                         _______ _______ _______ _____ _____    ______ ____
ATOM      1  N   UNL     1      61.055  63.789  69.149  0.00  0.00    +0.000 NA
ATOM      2  C   UNL     1      61.544  63.626  68.506  0.00  0.00    +0.000 C 
ATOM      3  O   UNL     1      62.340  63.842  68.528  0.00  0.00    +0.000 OA
ATOM      4  O   UNL     1      61.238  63.246  67.841  0.00  0.00    +0.000 OA
ATOM      5  C   UNL     1      61.727  63.083  67.197  0.00  0.00    +0.000 C 
ATOM      6  C   UNL     1      61.422  62.704  66.531  0.00  0.00    +0.000 C 
ATOM      7  C   UNL     1      61.911  62.541  65.887  0.00  0.00    +0.000 C 
ATOM      8  O   UNL     1      61.605  62.161  65.222  0.00  0.00    +0.000 OA
ATOM      9  C   UNL     1      62.094  61.998  64.578  0.00  0.00    +0.000 C 
ATOM     10  N   UNL     1      61.788  61.619  63.913  0.00  0.00    +0.000 NA
ATOM     11  O   UNL     1      62.890  62.215  64.600  0.00  0.00    +0.000 OA
ATOM     12  C   UNL     1      60.625  62.487  66.509  0.00  0.00    +0.000 A 
ATOM     13  C   UNL     1      60.136  62.650  67.153  0.00  0.00    +0.000 A 
ATOM     14  C   UNL     1      59.340  62.434  67.132  0.00  0.00    +0.000 A 
ATOM     15  C   UNL     1      59.033  62.054  66.466  0.00  0.00    +0.000 A 
ATOM     16  C   UNL     1      59.523  61.891  65.822  0.00  0.00    +0.000 A 
ATOM     17  C   UNL     1      60.319  62.108  65.844  0.00  0.00    +0.000 A 
ENDROOT
TORSDOF 0
ENDMDL
MODEL 2
REMARK VINA RESULT:    -8.696      0.061      3.138
REMARK INTER + INTRA:          -8.696
REMARK INTER:                  -8.696
REMARK INTRA:                   0.000
REMARK UNBOUND:                 0.000
ROOT
REMARK  Name = felbamate
REMARK                            x       y       z     vdW  Elec       q    Type
REMARK                         _______ _______ _______ _____ _____    ______ ____
ATOM      1  N   UNL     1      61.714  61.638  63.863  0.00  0.00    +0.000 NA
ATOM      2  C   UNL     1      62.034  62.019  64.520  0.00  0.00    +0.000 C 
ATOM      3  O   UNL     1      62.826  62.250  64.517  0.00  0.00    +0.000 OA
ATOM      4  O   UNL     1      61.564  62.169  65.180  0.00  0.00    +0.000 OA
ATOM      5  C   UNL     1      61.884  62.550  65.838  0.00  0.00    +0.000 C 
ATOM      6  C   UNL     1      61.414  62.700  66.499  0.00  0.00    +0.000 C 
ATOM      7  C   UNL     1      61.734  63.081  67.156  0.00  0.00    +0.000 C 
ATOM      8  O   UNL     1      61.264  63.231  67.817  0.00  0.00    +0.000 OA
ATOM      9  C   UNL     1      61.584  63.612  68.475  0.00  0.00    +0.000 C 
ATOM     10  N   UNL     1      61.114  63.763  69.135  0.00  0.00    +0.000 NA
ATOM     11  O   UNL     1      62.376  63.843  68.472  0.00  0.00    +0.000 OA
ATOM     12  C   UNL     1      60.621  62.469  66.502  0.00  0.00    +0.000 A 
ATOM     13  C   UNL     1      60.300  62.088  65.844  0.00  0.00    +0.000 A 
ATOM     14  C   UNL     1      59.508  61.857  65.847  0.00  0.00    +0.000 A 
ATOM     15  C   UNL     1      59.037  62.007  66.508  0.00  0.00    +0.000 A 
ATOM     16  C   UNL     1      59.358  62.388  67.165  0.00  0.00    +0.000 A 
ATOM     17  C   UNL     1      60.150  62.619  67.162  0.00  0.00    +0.000 A 
ENDROOT
TORSDOF 0
ENDMDL
MODEL 3
REMARK VINA RESULT:    -7.998      2.178      3.099
REMARK INTER + INTRA:          -7.998
REMARK INTER:                  -7.998
REMARK INTRA:                   0.000
REMARK UNBOUND:                 0.000
ROOT
REMARK  Name = felbamate
REMARK                            x       y       z     vdW  Elec       q    Type
REMARK                         _______ _______ _______ _____ _____    ______ ____
ATOM      1  N   UNL     1      59.546  65.654  70.642  0.00  0.00    +0.000 NA
ATOM      2  C   UNL     1      59.766  65.467  69.870  0.00  0.00    +0.000 C 
ATOM      3  O   UNL     1      59.750  66.049  69.285  0.00  0.00    +0.000 OA
ATOM      4  O   UNL     1      60.002  64.700  69.682  0.00  0.00    +0.000 OA
ATOM      5  C   UNL     1      60.222  64.513  68.909  0.00  0.00    +0.000 C 
ATOM      6  C   UNL     1      60.458  63.746  68.720  0.00  0.00    +0.000 C 
ATOM      7  C   UNL     1      60.677  63.559  67.947  0.00  0.00    +0.000 C 
ATOM      8  O   UNL     1      60.913  62.792  67.759  0.00  0.00    +0.000 OA
ATOM      9  C   UNL     1      61.133  62.605  66.986  0.00  0.00    +0.000 C 
ATOM     10  N   UNL     1      61.369  61.838  66.798  0.00  0.00    +0.000 NA
ATOM     11  O   UNL     1      61.117  63.187  66.401  0.00  0.00    +0.000 OA
ATOM     12  C   UNL     1      60.474  63.163  69.305  0.00  0.00    +0.000 A 
ATOM     13  C   UNL     1      60.254  63.350  70.078  0.00  0.00    +0.000 A 
ATOM     14  C   UNL     1      60.270  62.769  70.663  0.00  0.00    +0.000 A 
ATOM     15  C   UNL     1      60.506  62.000  70.475  0.00  0.00    +0.000 A 
ATOM     16  C   UNL     1      60.726  61.815  69.702  0.00  0.00    +0.000 A 
ATOM     17  C   UNL     1      60.710  62.396  69.117  0.00  0.00    +0.000 A 
ENDROOT
TORSDOF 0
ENDMDL
MODEL 4
REMARK VINA RESULT:    -7.955      2.265      4.400
REMARK INTER + INTRA:          -7.955
REMARK INTER:                  -7.955
REMARK INTRA:                   0.000
REMARK UNBOUND:                 0.000
ROOT
REMARK  Name = felbamate
REMARK                            x       y       z     vdW  Elec       q    Type
REMARK                         _______ _______ _______ _____ _____    ______ ____
ATOM      1  N   UNL     1      61.253  61.775  66.895  0.00  0.00    +0.000 NA
ATOM      2  C   UNL     1      61.024  62.537  67.108  0.00  0.00    +0.000 C 
ATOM      3  O   UNL     1      60.990  63.132  66.537  0.00  0.00    +0.000 OA
ATOM      4  O   UNL     1      60.827  62.706  67.890  0.00  0.00    +0.000 OA
ATOM      5  C   UNL     1      60.597  63.469  68.103  0.00  0.00    +0.000 C 
ATOM      6  C   UNL     1      60.401  63.639  68.887  0.00  0.00    +0.000 C 
ATOM      7  C   UNL     1      60.171  64.401  69.099  0.00  0.00    +0.000 C 
ATOM      8  O   UNL     1      59.975  64.570  69.882  0.00  0.00    +0.000 OA
ATOM      9  C   UNL     1      59.745  65.333  70.095  0.00  0.00    +0.000 C 
ATOM     10  N   UNL     1      59.549  65.502  70.878  0.00  0.00    +0.000 NA
ATOM     11  O   UNL     1      59.712  65.928  69.524  0.00  0.00    +0.000 OA
ATOM     12  C   UNL     1      60.434  63.043  69.458  0.00  0.00    +0.000 A 
ATOM     13  C   UNL     1      60.664  62.280  69.245  0.00  0.00    +0.000 A 
ATOM     14  C   UNL     1      60.697  61.685  69.816  0.00  0.00    +0.000 A 
ATOM     15  C   UNL     1      60.501  61.854  70.600  0.00  0.00    +0.000 A 
ATOM     16  C   UNL     1      60.271  62.617  70.812  0.00  0.00    +0.000 A 
ATOM     17  C   UNL     1      60.238  63.212  70.241  0.00  0.00    +0.000 A 
ENDROOT
TORSDOF 0
ENDMDL
MODEL 5
REMARK VINA RESULT:    -7.903      3.452      5.996
REMARK INTER + INTRA:          -7.903
REMARK INTER:                  -7.903
REMARK INTRA:                   0.000
REMARK UNBOUND:                 0.000
ROOT
REMARK  Name = felbamate
REMARK                            x       y       z     vdW  Elec       q    Type
REMARK                         _______ _______ _______ _____ _____    ______ ____
ATOM      1  N   UNL     1      60.834  61.980  68.838  0.00  0.00    +0.000 NA
ATOM      2  C   UNL     1      60.456  62.661  69.108  0.00  0.00    +0.000 C 
ATOM      3  O   UNL     1      59.996  63.110  68.591  0.00  0.00    +0.000 OA
ATOM      4  O   UNL     1      60.538  62.893  69.895  0.00  0.00    +0.000 OA
ATOM      5  C   UNL     1      60.161  63.575  70.166  0.00  0.00    +0.000 C 
ATOM      6  C   UNL     1      60.243  63.808  70.953  0.00  0.00    +0.000 C 
ATOM      7  C   UNL     1      59.865  64.489  71.224  0.00  0.00    +0.000 C 
ATOM      8  O   UNL     1      59.947  64.721  72.011  0.00  0.00    +0.000 OA
ATOM      9  C   UNL     1      59.569  65.403  72.282  0.00  0.00    +0.000 C 
ATOM     10  N   UNL     1      59.651  65.635  73.069  0.00  0.00    +0.000 NA
ATOM     11  O   UNL     1      59.109  65.852  71.765  0.00  0.00    +0.000 OA
ATOM     12  C   UNL     1      60.703  63.358  71.471  0.00  0.00    +0.000 A 
ATOM     13  C   UNL     1      61.081  62.676  71.200  0.00  0.00    +0.000 A 
ATOM     14  C   UNL     1      61.542  62.227  71.716  0.00  0.00    +0.000 A 
ATOM     15  C   UNL     1      61.624  62.460  72.504  0.00  0.00    +0.000 A 
ATOM     16  C   UNL     1      61.246  63.141  72.774  0.00  0.00    +0.000 A 
ATOM     17  C   UNL     1      60.786  63.590  72.257  0.00  0.00    +0.000 A 
ENDROOT
TORSDOF 0
ENDMDL
MODEL 6
REMARK VINA RESULT:    -7.720      5.264      7.268
REMARK INTER + INTRA:          -7.720
REMARK INTER:                  -7.720
REMARK INTRA:                   0.000
REMARK UNBOUND:                 0.000
ROOT
REMARK  Name = felbamate
REMARK                            x       y       z     vdW  Elec       q    Type
REMARK                         _______ _______ _______ _____ _____    ______ ____
ATOM      1  N   UNL     1      63.138  68.830  73.222  0.00  0.00    +0.000 NA
ATOM      2  C   UNL     1      62.788  68.136  72.947  0.00  0.00    +0.000 C 
ATOM      3  O   UNL     1      62.011  67.955  73.157  0.00  0.00    +0.000 OA
ATOM      4  O   UNL     1      63.214  67.624  72.461  0.00  0.00    +0.000 OA
ATOM      5  C   UNL     1      62.864  66.929  72.186  0.00  0.00    +0.000 C 
ATOM      6  C   UNL     1      63.289  66.416  71.700  0.00  0.00    +0.000 C 
ATOM      7  C   UNL     1      62.939  65.722  71.425  0.00  0.00    +0.000 C 
ATOM      8  O   UNL     1      63.365  65.210  70.939  0.00  0.00    +0.000 OA
ATOM      9  C   UNL     1      63.015  64.515  70.663  0.00  0.00    +0.000 C 
ATOM     10  N   UNL     1      63.441  64.002  70.178  0.00  0.00    +0.000 NA
ATOM     11  O   UNL     1      62.238  64.333  70.874  0.00  0.00    +0.000 OA
ATOM     12  C   UNL     1      64.067  66.598  71.489  0.00  0.00    +0.000 A 
ATOM     13  C   UNL     1      64.417  67.292  71.764  0.00  0.00    +0.000 A 
ATOM     14  C   UNL     1      65.194  67.474  71.554  0.00  0.00    +0.000 A 
ATOM     15  C   UNL     1      65.620  66.961  71.067  0.00  0.00    +0.000 A 
ATOM     16  C   UNL     1      65.269  66.267  70.793  0.00  0.00    +0.000 A 
ATOM     17  C   UNL     1      64.493  66.085  71.003  0.00  0.00    +0.000 A 
ENDROOT
TORSDOF 0
ENDMDL
MODEL 7
REMARK VINA RESULT:    -7.609      2.947      5.511
REMARK INTER + INTRA:          -7.609
REMARK INTER:                  -7.609
REMARK INTRA:                   0.000
REMARK UNBOUND:                 0.000
ROOT
REMARK  Name = felbamate
REMARK                            x       y       z     vdW  Elec       q    Type
REMARK                         _______ _______ _______ _____ _____    ______ ____
ATOM      1  N   UNL     1      60.779  62.282  68.802  0.00  0.00    +0.000 NA
ATOM      2  C   UNL     1      61.248  62.956  68.876  0.00  0.00    +0.000 C 
ATOM      3  O   UNL     1      61.527  63.340  68.202  0.00  0.00    +0.000 OA
ATOM      4  O   UNL     1      61.438  63.246  69.624  0.00  0.00    +0.000 OA
ATOM      5  C   UNL     1      61.907  63.920  69.699  0.00  0.00    +0.000 C 
ATOM      6  C   UNL     1      62.098  64.211  70.447  0.00  0.00    +0.000 C 
ATOM      7  C   UNL     1      62.567  64.885  70.522  0.00  0.00    +0.000 C 
ATOM      8  O   UNL     1      62.757  65.175  71.269  0.00  0.00    +0.000 OA
ATOM      9  C   UNL     1      63.227  65.849  71.344  0.00  0.00    +0.000 C 
ATOM     10  N   UNL     1      63.417  66.139  72.092  0.00  0.00    +0.000 NA
ATOM     11  O   UNL     1      63.506  66.233  70.670  0.00  0.00    +0.000 OA
ATOM     12  C   UNL     1      61.818  63.826  71.123  0.00  0.00    +0.000 A 
ATOM     13  C   UNL     1      61.349  63.152  71.048  0.00  0.00    +0.000 A 
ATOM     14  C   UNL     1      61.070  62.767  71.722  0.00  0.00    +0.000 A 
ATOM     15  C   UNL     1      61.260  63.057  72.472  0.00  0.00    +0.000 A 
ATOM     16  C   UNL     1      61.729  63.732  72.545  0.00  0.00    +0.000 A 
ATOM     17  C   UNL     1      62.009  64.116  71.871  0.00  0.00    +0.000 A 
ENDROOT
TORSDOF 0
ENDMDL
MODEL 8
REMARK VINA RESULT:    -7.553      3.436      4.467
REMARK INTER + INTRA:          -7.553
REMARK INTER:                  -7.553
REMARK INTRA:                   0.000
REMARK UNBOUND:                 0.000
ROOT
REMARK  Name = felbamate
REMARK                            x       y       z     vdW  Elec       q    Type
REMARK                         _______ _______ _______ _____ _____    ______ ____
ATOM      1  N   UNL     1      61.656  61.278  71.566  0.00  0.00    +0.000 NA
ATOM      2  C   UNL     1      61.421  62.066  71.615  0.00  0.00    +0.000 C 
ATOM      3  O   UNL     1      61.494  62.475  72.328  0.00  0.00    +0.000 OA
ATOM      4  O   UNL     1      61.113  62.447  70.951  0.00  0.00    +0.000 OA
ATOM      5  C   UNL     1      60.878  63.237  71.000  0.00  0.00    +0.000 C 
ATOM      6  C   UNL     1      60.571  63.618  70.336  0.00  0.00    +0.000 C 
ATOM      7  C   UNL     1      60.336  64.407  70.385  0.00  0.00    +0.000 C 
ATOM      8  O   UNL     1      60.029  64.787  69.721  0.00  0.00    +0.000 OA
ATOM      9  C   UNL     1      59.794  65.577  69.769  0.00  0.00    +0.000 C 
ATOM     10  N   UNL     1      59.486  65.958  69.106  0.00  0.00    +0.000 NA
ATOM     11  O   UNL     1      59.867  65.986  70.482  0.00  0.00    +0.000 OA
ATOM     12  C   UNL     1      60.498  63.209  69.622  0.00  0.00    +0.000 A 
ATOM     13  C   UNL     1      60.733  62.419  69.574  0.00  0.00    +0.000 A 
ATOM     14  C   UNL     1      60.660  62.011  68.861  0.00  0.00    +0.000 A 
ATOM     15  C   UNL     1      60.352  62.392  68.196  0.00  0.00    +0.000 A 
ATOM     16  C   UNL     1      60.117  63.181  68.246  0.00  0.00    +0.000 A 
ATOM     17  C   UNL     1      60.190  63.590  68.959  0.00  0.00    +0.000 A 
ENDROOT
TORSDOF 0
ENDMDL
MODEL 9
REMARK VINA RESULT:    -7.537      3.429      5.130
REMARK INTER + INTRA:          -7.537
REMARK INTER:                  -7.537
REMARK INTRA:                   0.000
REMARK UNBOUND:                 0.000
ROOT
REMARK  Name = felbamate
REMARK                            x       y       z     vdW  Elec       q    Type
REMARK                         _______ _______ _______ _____ _____    ______ ____
ATOM      1  N   UNL     1      61.121  66.407  72.369  0.00  0.00    +0.000 NA
ATOM      2  C   UNL     1      60.899  66.034  71.668  0.00  0.00    +0.000 C 
ATOM      3  O   UNL     1      60.623  66.482  71.033  0.00  0.00    +0.000 OA
ATOM      4  O   UNL     1      60.953  65.214  71.602  0.00  0.00    +0.000 OA
ATOM      5  C   UNL     1      60.731  64.841  70.901  0.00  0.00    +0.000 C 
ATOM      6  C   UNL     1      60.785  64.020  70.834  0.00  0.00    +0.000 C 
ATOM      7  C   UNL     1      60.563  63.647  70.133  0.00  0.00    +0.000 C 
ATOM      8  O   UNL     1      60.617  62.827  70.067  0.00  0.00    +0.000 OA
ATOM      9  C   UNL     1      60.395  62.453  69.366  0.00  0.00    +0.000 C 
ATOM     10  N   UNL     1      60.449  61.633  69.300  0.00  0.00    +0.000 NA
ATOM     11  O   UNL     1      60.119  62.901  68.730  0.00  0.00    +0.000 OA
ATOM     12  C   UNL     1      61.061  63.572  71.471  0.00  0.00    +0.000 A 
ATOM     13  C   UNL     1      61.283  63.945  72.172  0.00  0.00    +0.000 A 
ATOM     14  C   UNL     1      61.560  63.498  72.808  0.00  0.00    +0.000 A 
ATOM     15  C   UNL     1      61.614  62.677  72.742  0.00  0.00    +0.000 A 
ATOM     16  C   UNL     1      61.392  62.304  72.040  0.00  0.00    +0.000 A 
ATOM     17  C   UNL     1      61.115  62.752  71.405  0.00  0.00    +0.000 A 
ENDROOT
TORSDOF 0
ENDMDL
