MODEL 1
REMARK VINA RESULT:   -14.994      0.000      0.000
REMARK INTER + INTRA:         -14.994
REMARK INTER:                 -14.994
REMARK INTRA:                   0.000
REMARK UNBOUND:                 0.000
ROOT
REMARK  Name = fenbenicillin
REMARK                            x       y       z     vdW  Elec       q    Type
REMARK                         _______ _______ _______ _____ _____    ______ ____
ATOM      1  C   UNL     1      59.756  64.281  71.025  0.00  0.00    +0.000 C 
ATOM      2  C   UNL     1      60.527  64.337  70.736  0.00  0.00    +0.000 C 
ATOM      3  C   UNL     1      60.677  64.710  71.456  0.00  0.00    +0.000 C 
ATOM      4  S   UNL     1      60.214  63.952  70.076  0.00  0.00    +0.000 S 
ATOM      5  C   UNL     1      60.824  63.848  69.529  0.00  0.00    +0.000 C 
ATOM      6  CA  UNL     1      61.240  63.634  68.850  0.00  0.00    +0.000 C 
ATOM      7  N   UNL     1      61.048  63.257  68.143  0.00  0.00    +0.000 NA
ATOM      8  C   UNL     1      61.629  63.133  67.570  0.00  0.00    +0.000 C 
ATOM      9  O   UNL     1      62.402  63.388  67.705  0.00  0.00    +0.000 OA
ATOM     10  C   UNL     1      61.437  62.756  66.862  0.00  0.00    +0.000 C 
ATOM     11  O   UNL     1      62.018  62.633  66.290  0.00  0.00    +0.000 OA
ATOM     12  C   UNL     1      61.826  62.255  65.582  0.00  0.00    +0.000 A 
ATOM     13  C   UNL     1      61.053  62.001  65.446  0.00  0.00    +0.000 A 
ATOM     14  C   UNL     1      60.861  61.623  64.739  0.00  0.00    +0.000 A 
ATOM     15  C   UNL     1      61.441  61.500  64.166  0.00  0.00    +0.000 A 
ATOM     16  C   UNL     1      62.215  61.754  64.301  0.00  0.00    +0.000 A 
ATOM     17  C   UNL     1      62.407  62.132  65.009  0.00  0.00    +0.000 A 
ATOM     18  C   UNL     1      60.664  62.501  66.727  0.00  0.00    +0.000 A 
ATOM     19  C   UNL     1      60.084  62.625  67.300  0.00  0.00    +0.000 A 
ATOM     20  C   UNL     1      59.310  62.370  67.165  0.00  0.00    +0.000 A 
ATOM     21  C   UNL     1      59.118  61.992  66.456  0.00  0.00    +0.000 A 
ATOM     22  C   UNL     1      59.699  61.869  65.884  0.00  0.00    +0.000 A 
ATOM     23  C   UNL     1      60.472  62.124  66.019  0.00  0.00    +0.000 A 
ATOM     24  C   UNL     1      61.929  63.955  69.172  0.00  0.00    +0.000 C 
ATOM     25  O   UNL     1      62.711  64.031  68.920  0.00  0.00    +0.000 OA
ATOM     26  N   UNL     1      61.512  64.168  69.851  0.00  0.00    +0.000 N 
ATOM     27  CA  UNL     1      61.328  64.471  70.597  0.00  0.00    +0.000 C 
ATOM     28  C   UNL     1      61.855  64.842  71.113  0.00  0.00    +0.000 C 
ATOM     29  O   UNL     1      62.645  64.937  70.898  0.00  0.00    +0.000 OA
ATOM     30  OXT UNL     1      61.590  65.117  71.844  0.00  0.00    +0.000 OA
ENDROOT
TORSDOF 0
ENDMDL
MODEL 2
REMARK VINA RESULT:   -13.843      3.349      5.008
REMARK INTER + INTRA:         -13.843
REMARK INTER:                 -13.843
REMARK INTRA:                   0.000
REMARK UNBOUND:                 0.000
ROOT
REMARK  Name = fenbenicillin
REMARK                            x       y       z     vdW  Elec       q    Type
REMARK                         _______ _______ _______ _____ _____    ______ ____
ATOM      1  C   UNL     1      64.844  67.462  72.115  0.00  0.00    +0.000 C 
ATOM      2  C   UNL     1      64.879  67.061  71.395  0.00  0.00    +0.000 C 
ATOM      3  C   UNL     1      65.485  67.595  71.226  0.00  0.00    +0.000 C 
ATOM      4  S   UNL     1      64.265  66.611  71.716  0.00  0.00    +0.000 S 
ATOM      5  C   UNL     1      64.048  66.043  71.158  0.00  0.00    +0.000 C 
ATOM      6  CA  UNL     1      63.663  65.415  70.787  0.00  0.00    +0.000 C 
ATOM      7  N   UNL     1      63.053  64.900  70.995  0.00  0.00    +0.000 NA
ATOM      8  C   UNL     1      62.805  64.318  70.465  0.00  0.00    +0.000 C 
ATOM      9  O   UNL     1      63.168  64.251  69.727  0.00  0.00    +0.000 OA
ATOM     10  C   UNL     1      62.195  63.804  70.673  0.00  0.00    +0.000 C 
ATOM     11  O   UNL     1      61.948  63.222  70.143  0.00  0.00    +0.000 OA
ATOM     12  C   UNL     1      61.338  62.707  70.351  0.00  0.00    +0.000 A 
ATOM     13  C   UNL     1      60.974  62.774  71.089  0.00  0.00    +0.000 A 
ATOM     14  C   UNL     1      60.365  62.260  71.297  0.00  0.00    +0.000 A 
ATOM     15  C   UNL     1      60.117  61.678  70.767  0.00  0.00    +0.000 A 
ATOM     16  C   UNL     1      60.479  61.610  70.029  0.00  0.00    +0.000 A 
ATOM     17  C   UNL     1      61.090  62.126  69.821  0.00  0.00    +0.000 A 
ATOM     18  C   UNL     1      61.832  63.870  71.411  0.00  0.00    +0.000 A 
ATOM     19  C   UNL     1      62.080  64.452  71.940  0.00  0.00    +0.000 A 
ATOM     20  C   UNL     1      61.717  64.520  72.678  0.00  0.00    +0.000 A 
ATOM     21  C   UNL     1      61.106  64.005  72.887  0.00  0.00    +0.000 A 
ATOM     22  C   UNL     1      60.859  63.423  72.356  0.00  0.00    +0.000 A 
ATOM     23  C   UNL     1      61.222  63.356  71.618  0.00  0.00    +0.000 A 
ATOM     24  C   UNL     1      64.142  65.514  70.122  0.00  0.00    +0.000 C 
ATOM     25  O   UNL     1      64.209  65.139  69.390  0.00  0.00    +0.000 OA
ATOM     26  N   UNL     1      64.526  66.142  70.493  0.00  0.00    +0.000 N 
ATOM     27  CA  UNL     1      65.040  66.771  70.640  0.00  0.00    +0.000 C 
ATOM     28  C   UNL     1      65.614  67.060  70.122  0.00  0.00    +0.000 C 
ATOM     29  O   UNL     1      65.713  66.713  69.380  0.00  0.00    +0.000 OA
ATOM     30  OXT UNL     1      66.089  67.696  70.347  0.00  0.00    +0.000 OA
ENDROOT
TORSDOF 0
ENDMDL
MODEL 3
REMARK VINA RESULT:   -13.776      1.594      5.476
REMARK INTER + INTRA:         -13.776
REMARK INTER:                 -13.776
REMARK INTRA:                   0.000
REMARK UNBOUND:                 0.000
ROOT
REMARK  Name = fenbenicillin
REMARK                            x       y       z     vdW  Elec       q    Type
REMARK                         _______ _______ _______ _____ _____    ______ ____
ATOM      1  C   UNL     1      62.363  62.584  65.246  0.00  0.00    +0.000 C 
ATOM      2  C   UNL     1      61.667  62.338  65.615  0.00  0.00    +0.000 C 
ATOM      3  C   UNL     1      61.488  62.024  64.873  0.00  0.00    +0.000 C 
ATOM      4  S   UNL     1      61.993  62.703  66.279  0.00  0.00    +0.000 S 
ATOM      5  C   UNL     1      61.460  62.618  66.904  0.00  0.00    +0.000 C 
ATOM      6  CA  UNL     1      61.112  62.664  67.651  0.00  0.00    +0.000 C 
ATOM      7  N   UNL     1      61.329  62.992  68.375  0.00  0.00    +0.000 NA
ATOM      8  C   UNL     1      60.824  62.928  69.025  0.00  0.00    +0.000 C 
ATOM      9  O   UNL     1      60.103  62.536  68.948  0.00  0.00    +0.000 OA
ATOM     10  C   UNL     1      61.041  63.256  69.750  0.00  0.00    +0.000 C 
ATOM     11  O   UNL     1      60.535  63.192  70.399  0.00  0.00    +0.000 OA
ATOM     12  C   UNL     1      60.753  63.520  71.124  0.00  0.00    +0.000 A 
ATOM     13  C   UNL     1      61.475  63.913  71.200  0.00  0.00    +0.000 A 
ATOM     14  C   UNL     1      61.691  64.241  71.925  0.00  0.00    +0.000 A 
ATOM     15  C   UNL     1      61.187  64.177  72.574  0.00  0.00    +0.000 A 
ATOM     16  C   UNL     1      60.464  63.785  72.499  0.00  0.00    +0.000 A 
ATOM     17  C   UNL     1      60.247  63.456  71.773  0.00  0.00    +0.000 A 
ATOM     18  C   UNL     1      61.763  63.648  69.826  0.00  0.00    +0.000 A 
ATOM     19  C   UNL     1      62.267  63.712  69.177  0.00  0.00    +0.000 A 
ATOM     20  C   UNL     1      62.989  64.104  69.252  0.00  0.00    +0.000 A 
ATOM     21  C   UNL     1      63.206  64.433  69.978  0.00  0.00    +0.000 A 
ATOM     22  C   UNL     1      62.701  64.369  70.627  0.00  0.00    +0.000 A 
ATOM     23  C   UNL     1      61.979  63.976  70.551  0.00  0.00    +0.000 A 
ATOM     24  C   UNL     1      60.458  62.245  67.372  0.00  0.00    +0.000 C 
ATOM     25  O   UNL     1      59.749  61.981  67.702  0.00  0.00    +0.000 OA
ATOM     26  N   UNL     1      60.806  62.199  66.625  0.00  0.00    +0.000 N 
ATOM     27  CA  UNL     1      60.934  62.026  65.828  0.00  0.00    +0.000 C 
ATOM     28  C   UNL     1      60.419  61.614  65.332  0.00  0.00    +0.000 C 
ATOM     29  O   UNL     1      59.701  61.334  65.625  0.00  0.00    +0.000 OA
ATOM     30  OXT UNL     1      60.624  61.483  64.544  0.00  0.00    +0.000 OA
ENDROOT
TORSDOF 0
ENDMDL
MODEL 4
REMARK VINA RESULT:   -13.028      1.566      2.574
REMARK INTER + INTRA:         -13.028
REMARK INTER:                 -13.028
REMARK INTRA:                   0.000
REMARK UNBOUND:                 0.000
ROOT
REMARK  Name = fenbenicillin
REMARK                            x       y       z     vdW  Elec       q    Type
REMARK                         _______ _______ _______ _____ _____    ______ ____
ATOM      1  C   UNL     1      62.018  65.470  73.123  0.00  0.00    +0.000 C 
ATOM      2  C   UNL     1      62.346  65.758  72.423  0.00  0.00    +0.000 C 
ATOM      3  C   UNL     1      62.645  66.353  72.909  0.00  0.00    +0.000 C 
ATOM      4  S   UNL     1      61.978  65.102  72.083  0.00  0.00    +0.000 S 
ATOM      5  C   UNL     1      62.141  65.109  71.274  0.00  0.00    +0.000 C 
ATOM      6  CA  UNL     1      62.160  64.902  70.476  0.00  0.00    +0.000 C 
ATOM      7  N   UNL     1      61.842  64.289  70.025  0.00  0.00    +0.000 NA
ATOM      8  C   UNL     1      61.981  64.260  69.212  0.00  0.00    +0.000 C 
ATOM      9  O   UNL     1      62.439  64.844  68.851  0.00  0.00    +0.000 OA
ATOM     10  C   UNL     1      61.664  63.647  68.761  0.00  0.00    +0.000 C 
ATOM     11  O   UNL     1      61.804  63.618  67.948  0.00  0.00    +0.000 OA
ATOM     12  C   UNL     1      61.486  63.005  67.497  0.00  0.00    +0.000 A 
ATOM     13  C   UNL     1      61.028  62.421  67.858  0.00  0.00    +0.000 A 
ATOM     14  C   UNL     1      60.710  61.808  67.407  0.00  0.00    +0.000 A 
ATOM     15  C   UNL     1      60.850  61.779  66.594  0.00  0.00    +0.000 A 
ATOM     16  C   UNL     1      61.307  62.363  66.232  0.00  0.00    +0.000 A 
ATOM     17  C   UNL     1      61.625  62.976  66.684  0.00  0.00    +0.000 A 
ATOM     18  C   UNL     1      61.206  63.063  69.121  0.00  0.00    +0.000 A 
ATOM     19  C   UNL     1      61.067  63.093  69.934  0.00  0.00    +0.000 A 
ATOM     20  C   UNL     1      60.609  62.509  70.296  0.00  0.00    +0.000 A 
ATOM     21  C   UNL     1      60.291  61.895  69.844  0.00  0.00    +0.000 A 
ATOM     22  C   UNL     1      60.431  61.866  69.031  0.00  0.00    +0.000 A 
ATOM     23  C   UNL     1      60.889  62.451  68.670  0.00  0.00    +0.000 A 
ATOM     24  C   UNL     1      62.628  65.562  70.316  0.00  0.00    +0.000 C 
ATOM     25  O   UNL     1      62.973  65.883  69.639  0.00  0.00    +0.000 OA
ATOM     26  N   UNL     1      62.609  65.769  71.114  0.00  0.00    +0.000 N 
ATOM     27  CA  UNL     1      62.736  66.170  71.825  0.00  0.00    +0.000 C 
ATOM     28  C   UNL     1      63.176  66.862  71.919  0.00  0.00    +0.000 C 
ATOM     29  O   UNL     1      63.537  67.214  71.266  0.00  0.00    +0.000 OA
ATOM     30  OXT UNL     1      63.255  67.201  72.667  0.00  0.00    +0.000 OA
ENDROOT
TORSDOF 0
ENDMDL
MODEL 5
REMARK VINA RESULT:   -12.584      4.954      6.372
REMARK INTER + INTRA:         -12.584
REMARK INTER:                 -12.584
REMARK INTRA:                   0.000
REMARK UNBOUND:                 0.000
ROOT
REMARK  Name = fenbenicillin
REMARK                            x       y       z     vdW  Elec       q    Type
REMARK                         _______ _______ _______ _____ _____    ______ ____
ATOM      1  C   UNL     1      64.826  65.364  70.977  0.00  0.00    +0.000 C 
ATOM      2  C   UNL     1      64.503  66.042  71.319  0.00  0.00    +0.000 C 
ATOM      3  C   UNL     1      65.266  66.344  71.231  0.00  0.00    +0.000 C 
ATOM      4  S   UNL     1      63.808  65.598  71.335  0.00  0.00    +0.000 S 
ATOM      5  C   UNL     1      63.215  66.065  71.668  0.00  0.00    +0.000 C 
ATOM      6  CA  UNL     1      62.485  66.318  71.957  0.00  0.00    +0.000 C 
ATOM      7  N   UNL     1      61.736  65.980  72.027  0.00  0.00    +0.000 NA
ATOM      8  C   UNL     1      61.116  66.413  72.355  0.00  0.00    +0.000 C 
ATOM      9  O   UNL     1      61.245  67.186  72.613  0.00  0.00    +0.000 OA
ATOM     10  C   UNL     1      60.367  66.075  72.425  0.00  0.00    +0.000 C 
ATOM     11  O   UNL     1      59.747  66.509  72.754  0.00  0.00    +0.000 OA
ATOM     12  C   UNL     1      58.998  66.170  72.824  0.00  0.00    +0.000 A 
ATOM     13  C   UNL     1      58.869  65.397  72.566  0.00  0.00    +0.000 A 
ATOM     14  C   UNL     1      58.121  65.058  72.636  0.00  0.00    +0.000 A 
ATOM     15  C   UNL     1      57.500  65.492  72.964  0.00  0.00    +0.000 A 
ATOM     16  C   UNL     1      57.629  66.265  73.222  0.00  0.00    +0.000 A 
ATOM     17  C   UNL     1      58.378  66.604  73.152  0.00  0.00    +0.000 A 
ATOM     18  C   UNL     1      60.238  65.302  72.167  0.00  0.00    +0.000 A 
ATOM     19  C   UNL     1      60.858  64.868  71.839  0.00  0.00    +0.000 A 
ATOM     20  C   UNL     1      60.730  64.095  71.581  0.00  0.00    +0.000 A 
ATOM     21  C   UNL     1      59.980  63.756  71.651  0.00  0.00    +0.000 A 
ATOM     22  C   UNL     1      59.360  64.190  71.980  0.00  0.00    +0.000 A 
ATOM     23  C   UNL     1      59.489  64.963  72.238  0.00  0.00    +0.000 A 
ATOM     24  C   UNL     1      62.814  67.051  72.147  0.00  0.00    +0.000 C 
ATOM     25  O   UNL     1      62.531  67.748  72.486  0.00  0.00    +0.000 OA
ATOM     26  N   UNL     1      63.544  66.798  71.858  0.00  0.00    +0.000 N 
ATOM     27  CA  UNL     1      64.340  66.783  71.642  0.00  0.00    +0.000 C 
ATOM     28  C   UNL     1      64.879  67.402  71.733  0.00  0.00    +0.000 C 
ATOM     29  O   UNL     1      64.635  68.115  72.068  0.00  0.00    +0.000 OA
ATOM     30  OXT UNL     1      65.661  67.306  71.490  0.00  0.00    +0.000 OA
ENDROOT
TORSDOF 0
ENDMDL
