MODEL 1
REMARK VINA RESULT:   -13.700      0.000      0.000
REMARK INTER + INTRA:         -13.700
REMARK INTER:                 -13.700
REMARK INTRA:                   0.000
REMARK UNBOUND:                 0.000
ROOT
REMARK  Name = fendiline
REMARK                            x       y       z     vdW  Elec       q    Type
REMARK                         _______ _______ _______ _____ _____    ______ ____
ATOM      1  C   UNL     1      60.780  63.573  68.872  0.00  0.00    +0.000 C 
ATOM      2  C   UNL     1      61.580  63.689  68.717  0.00  0.00    +0.000 C 
ATOM      3  N   UNL     1      61.905  63.433  68.003  0.00  0.00    +0.000 NA
ATOM      4  C   UNL     1      61.426  63.060  67.445  0.00  0.00    +0.000 C 
ATOM      5  C   UNL     1      61.750  62.803  66.730  0.00  0.00    +0.000 C 
ATOM      6  C   UNL     1      61.271  62.430  66.171  0.00  0.00    +0.000 C 
ATOM      7  C   UNL     1      61.595  62.174  65.457  0.00  0.00    +0.000 A 
ATOM      8  C   UNL     1      62.397  62.290  65.302  0.00  0.00    +0.000 A 
ATOM      9  C   UNL     1      62.720  62.033  64.588  0.00  0.00    +0.000 A 
ATOM     10  C   UNL     1      62.243  61.660  64.028  0.00  0.00    +0.000 A 
ATOM     11  C   UNL     1      61.441  61.544  64.183  0.00  0.00    +0.000 A 
ATOM     12  C   UNL     1      61.117  61.801  64.898  0.00  0.00    +0.000 A 
ATOM     13  C   UNL     1      60.470  62.314  66.326  0.00  0.00    +0.000 A 
ATOM     14  C   UNL     1      59.991  61.941  65.766  0.00  0.00    +0.000 A 
ATOM     15  C   UNL     1      59.190  61.824  65.921  0.00  0.00    +0.000 A 
ATOM     16  C   UNL     1      58.866  62.081  66.636  0.00  0.00    +0.000 A 
ATOM     17  C   UNL     1      59.344  62.454  67.195  0.00  0.00    +0.000 A 
ATOM     18  C   UNL     1      60.146  62.570  67.040  0.00  0.00    +0.000 A 
ATOM     19  C   UNL     1      62.059  64.062  69.277  0.00  0.00    +0.000 A 
ATOM     20  C   UNL     1      61.735  64.319  69.992  0.00  0.00    +0.000 A 
ATOM     21  C   UNL     1      62.214  64.692  70.550  0.00  0.00    +0.000 A 
ATOM     22  C   UNL     1      63.016  64.809  70.395  0.00  0.00    +0.000 A 
ATOM     23  C   UNL     1      63.339  64.552  69.682  0.00  0.00    +0.000 A 
ATOM     24  C   UNL     1      62.861  64.179  69.122  0.00  0.00    +0.000 A 
ENDROOT
TORSDOF 0
ENDMDL
MODEL 2
REMARK VINA RESULT:   -13.045      1.634      4.809
REMARK INTER + INTRA:         -13.045
REMARK INTER:                 -13.045
REMARK INTRA:                   0.000
REMARK UNBOUND:                 0.000
ROOT
REMARK  Name = fendiline
REMARK                            x       y       z     vdW  Elec       q    Type
REMARK                         _______ _______ _______ _____ _____    ______ ____
ATOM      1  C   UNL     1      61.297  61.612  67.658  0.00  0.00    +0.000 C 
ATOM      2  C   UNL     1      61.289  62.266  67.157  0.00  0.00    +0.000 C 
ATOM      3  N   UNL     1      61.050  63.002  67.442  0.00  0.00    +0.000 NA
ATOM      4  C   UNL     1      60.819  63.083  68.230  0.00  0.00    +0.000 C 
ATOM      5  C   UNL     1      60.579  63.819  68.515  0.00  0.00    +0.000 C 
ATOM      6  C   UNL     1      60.348  63.900  69.303  0.00  0.00    +0.000 C 
ATOM      7  C   UNL     1      60.108  64.637  69.589  0.00  0.00    +0.000 A 
ATOM      8  C   UNL     1      60.100  65.291  69.087  0.00  0.00    +0.000 A 
ATOM      9  C   UNL     1      59.861  66.026  69.372  0.00  0.00    +0.000 A 
ATOM     10  C   UNL     1      59.629  66.109  70.160  0.00  0.00    +0.000 A 
ATOM     11  C   UNL     1      59.637  65.454  70.662  0.00  0.00    +0.000 A 
ATOM     12  C   UNL     1      59.877  64.717  70.376  0.00  0.00    +0.000 A 
ATOM     13  C   UNL     1      60.356  63.246  69.804  0.00  0.00    +0.000 A 
ATOM     14  C   UNL     1      60.124  63.327  70.593  0.00  0.00    +0.000 A 
ATOM     15  C   UNL     1      60.132  62.673  71.095  0.00  0.00    +0.000 A 
ATOM     16  C   UNL     1      60.372  61.937  70.808  0.00  0.00    +0.000 A 
ATOM     17  C   UNL     1      60.603  61.855  70.021  0.00  0.00    +0.000 A 
ATOM     18  C   UNL     1      60.595  62.510  69.519  0.00  0.00    +0.000 A 
ATOM     19  C   UNL     1      61.521  62.185  66.369  0.00  0.00    +0.000 A 
ATOM     20  C   UNL     1      61.761  61.448  66.083  0.00  0.00    +0.000 A 
ATOM     21  C   UNL     1      61.992  61.367  65.295  0.00  0.00    +0.000 A 
ATOM     22  C   UNL     1      61.984  62.022  64.793  0.00  0.00    +0.000 A 
ATOM     23  C   UNL     1      61.744  62.757  65.079  0.00  0.00    +0.000 A 
ATOM     24  C   UNL     1      61.513  62.839  65.867  0.00  0.00    +0.000 A 
ENDROOT
TORSDOF 0
ENDMDL
MODEL 3
REMARK VINA RESULT:   -13.035      1.594      3.171
REMARK INTER + INTRA:         -13.035
REMARK INTER:                 -13.035
REMARK INTRA:                   0.000
REMARK UNBOUND:                 0.000
ROOT
REMARK  Name = fendiline
REMARK                            x       y       z     vdW  Elec       q    Type
REMARK                         _______ _______ _______ _____ _____    ______ ____
ATOM      1  C   UNL     1      63.024  64.334  70.964  0.00  0.00    +0.000 C 
ATOM      2  C   UNL     1      63.225  64.694  70.251  0.00  0.00    +0.000 C 
ATOM      3  N   UNL     1      62.841  64.473  69.555  0.00  0.00    +0.000 NA
ATOM      4  C   UNL     1      62.256  63.892  69.574  0.00  0.00    +0.000 C 
ATOM      5  C   UNL     1      61.872  63.671  68.877  0.00  0.00    +0.000 C 
ATOM      6  C   UNL     1      61.287  63.090  68.896  0.00  0.00    +0.000 C 
ATOM      7  C   UNL     1      60.902  62.869  68.199  0.00  0.00    +0.000 A 
ATOM      8  C   UNL     1      61.104  63.230  67.485  0.00  0.00    +0.000 A 
ATOM      9  C   UNL     1      60.720  63.009  66.790  0.00  0.00    +0.000 A 
ATOM     10  C   UNL     1      60.134  62.428  66.807  0.00  0.00    +0.000 A 
ATOM     11  C   UNL     1      59.933  62.067  67.522  0.00  0.00    +0.000 A 
ATOM     12  C   UNL     1      60.317  62.288  68.218  0.00  0.00    +0.000 A 
ATOM     13  C   UNL     1      61.085  62.730  69.610  0.00  0.00    +0.000 A 
ATOM     14  C   UNL     1      60.500  62.149  69.628  0.00  0.00    +0.000 A 
ATOM     15  C   UNL     1      60.298  61.788  70.342  0.00  0.00    +0.000 A 
ATOM     16  C   UNL     1      60.683  62.010  71.038  0.00  0.00    +0.000 A 
ATOM     17  C   UNL     1      61.268  62.590  71.020  0.00  0.00    +0.000 A 
ATOM     18  C   UNL     1      61.469  62.951  70.306  0.00  0.00    +0.000 A 
ATOM     19  C   UNL     1      63.810  65.275  70.232  0.00  0.00    +0.000 A 
ATOM     20  C   UNL     1      64.195  65.496  70.929  0.00  0.00    +0.000 A 
ATOM     21  C   UNL     1      64.780  66.077  70.910  0.00  0.00    +0.000 A 
ATOM     22  C   UNL     1      64.981  66.437  70.196  0.00  0.00    +0.000 A 
ATOM     23  C   UNL     1      64.597  66.217  69.500  0.00  0.00    +0.000 A 
ATOM     24  C   UNL     1      64.012  65.635  69.518  0.00  0.00    +0.000 A 
ENDROOT
TORSDOF 0
ENDMDL
MODEL 4
REMARK VINA RESULT:   -12.835      2.965      5.282
REMARK INTER + INTRA:         -12.835
REMARK INTER:                 -12.835
REMARK INTRA:                   0.000
REMARK UNBOUND:                 0.000
ROOT
REMARK  Name = fendiline
REMARK                            x       y       z     vdW  Elec       q    Type
REMARK                         _______ _______ _______ _____ _____    ______ ____
ATOM      1  C   UNL     1      64.187  65.819  69.387  0.00  0.00    +0.000 C 
ATOM      2  C   UNL     1      64.360  65.949  70.182  0.00  0.00    +0.000 C 
ATOM      3  N   UNL     1      63.937  65.548  70.767  0.00  0.00    +0.000 NA
ATOM      4  C   UNL     1      63.342  65.019  70.554  0.00  0.00    +0.000 C 
ATOM      5  C   UNL     1      62.919  64.618  71.139  0.00  0.00    +0.000 C 
ATOM      6  C   UNL     1      62.324  64.088  70.926  0.00  0.00    +0.000 C 
ATOM      7  C   UNL     1      61.901  63.687  71.511  0.00  0.00    +0.000 A 
ATOM      8  C   UNL     1      62.074  63.816  72.308  0.00  0.00    +0.000 A 
ATOM      9  C   UNL     1      61.651  63.416  72.891  0.00  0.00    +0.000 A 
ATOM     10  C   UNL     1      61.055  62.885  72.680  0.00  0.00    +0.000 A 
ATOM     11  C   UNL     1      60.882  62.756  71.884  0.00  0.00    +0.000 A 
ATOM     12  C   UNL     1      61.305  63.157  71.299  0.00  0.00    +0.000 A 
ATOM     13  C   UNL     1      62.151  63.959  70.131  0.00  0.00    +0.000 A 
ATOM     14  C   UNL     1      61.555  63.428  69.919  0.00  0.00    +0.000 A 
ATOM     15  C   UNL     1      61.382  63.299  69.123  0.00  0.00    +0.000 A 
ATOM     16  C   UNL     1      61.805  63.700  68.539  0.00  0.00    +0.000 A 
ATOM     17  C   UNL     1      62.400  64.229  68.750  0.00  0.00    +0.000 A 
ATOM     18  C   UNL     1      62.573  64.359  69.547  0.00  0.00    +0.000 A 
ATOM     19  C   UNL     1      64.956  66.479  70.394  0.00  0.00    +0.000 A 
ATOM     20  C   UNL     1      65.379  66.880  69.809  0.00  0.00    +0.000 A 
ATOM     21  C   UNL     1      65.974  67.410  70.022  0.00  0.00    +0.000 A 
ATOM     22  C   UNL     1      66.147  67.539  70.818  0.00  0.00    +0.000 A 
ATOM     23  C   UNL     1      65.724  67.139  71.402  0.00  0.00    +0.000 A 
ATOM     24  C   UNL     1      65.129  66.609  71.191  0.00  0.00    +0.000 A 
ENDROOT
TORSDOF 0
ENDMDL
MODEL 5
REMARK VINA RESULT:   -12.703      2.320      5.953
REMARK INTER + INTRA:         -12.703
REMARK INTER:                 -12.703
REMARK INTRA:                   0.000
REMARK UNBOUND:                 0.000
ROOT
REMARK  Name = fendiline
REMARK                            x       y       z     vdW  Elec       q    Type
REMARK                         _______ _______ _______ _____ _____    ______ ____
ATOM      1  C   UNL     1      60.988  61.961  69.208  0.00  0.00    +0.000 C 
ATOM      2  C   UNL     1      60.478  62.517  68.878  0.00  0.00    +0.000 C 
ATOM      3  N   UNL     1      60.172  63.125  69.345  0.00  0.00    +0.000 NA
ATOM      4  C   UNL     1      60.377  63.175  70.142  0.00  0.00    +0.000 C 
ATOM      5  C   UNL     1      60.071  63.783  70.609  0.00  0.00    +0.000 C 
ATOM      6  C   UNL     1      60.277  63.832  71.407  0.00  0.00    +0.000 C 
ATOM      7  C   UNL     1      59.971  64.440  71.874  0.00  0.00    +0.000 A 
ATOM      8  C   UNL     1      59.460  64.998  71.544  0.00  0.00    +0.000 A 
ATOM      9  C   UNL     1      59.155  65.605  72.010  0.00  0.00    +0.000 A 
ATOM     10  C   UNL     1      59.359  65.655  72.808  0.00  0.00    +0.000 A 
ATOM     11  C   UNL     1      59.870  65.098  73.139  0.00  0.00    +0.000 A 
ATOM     12  C   UNL     1      60.176  64.490  72.671  0.00  0.00    +0.000 A 
ATOM     13  C   UNL     1      60.787  63.276  71.737  0.00  0.00    +0.000 A 
ATOM     14  C   UNL     1      60.992  63.326  72.535  0.00  0.00    +0.000 A 
ATOM     15  C   UNL     1      61.503  62.769  72.865  0.00  0.00    +0.000 A 
ATOM     16  C   UNL     1      61.809  62.161  72.397  0.00  0.00    +0.000 A 
ATOM     17  C   UNL     1      61.604  62.111  71.601  0.00  0.00    +0.000 A 
ATOM     18  C   UNL     1      61.093  62.668  71.270  0.00  0.00    +0.000 A 
ATOM     19  C   UNL     1      60.272  62.467  68.080  0.00  0.00    +0.000 A 
ATOM     20  C   UNL     1      60.578  61.859  67.613  0.00  0.00    +0.000 A 
ATOM     21  C   UNL     1      60.373  61.810  66.815  0.00  0.00    +0.000 A 
ATOM     22  C   UNL     1      59.862  62.367  66.485  0.00  0.00    +0.000 A 
ATOM     23  C   UNL     1      59.557  62.974  66.952  0.00  0.00    +0.000 A 
ATOM     24  C   UNL     1      59.762  63.025  67.750  0.00  0.00    +0.000 A 
ENDROOT
TORSDOF 0
ENDMDL
MODEL 6
REMARK VINA RESULT:   -12.687      1.623      4.906
REMARK INTER + INTRA:         -12.687
REMARK INTER:                 -12.687
REMARK INTRA:                   0.000
REMARK UNBOUND:                 0.000
ROOT
REMARK  Name = fendiline
REMARK                            x       y       z     vdW  Elec       q    Type
REMARK                         _______ _______ _______ _____ _____    ______ ____
ATOM      1  C   UNL     1      60.754  63.449  66.968  0.00  0.00    +0.000 C 
ATOM      2  C   UNL     1      61.125  62.723  67.086  0.00  0.00    +0.000 C 
ATOM      3  N   UNL     1      61.247  62.441  67.852  0.00  0.00    +0.000 NA
ATOM      4  C   UNL     1      60.997  62.887  68.499  0.00  0.00    +0.000 C 
ATOM      5  C   UNL     1      61.118  62.605  69.265  0.00  0.00    +0.000 C 
ATOM      6  C   UNL     1      60.868  63.052  69.912  0.00  0.00    +0.000 C 
ATOM      7  C   UNL     1      60.990  62.770  70.679  0.00  0.00    +0.000 A 
ATOM      8  C   UNL     1      61.361  62.043  70.797  0.00  0.00    +0.000 A 
ATOM      9  C   UNL     1      61.483  61.762  71.563  0.00  0.00    +0.000 A 
ATOM     10  C   UNL     1      61.233  62.207  72.211  0.00  0.00    +0.000 A 
ATOM     11  C   UNL     1      60.861  62.934  72.093  0.00  0.00    +0.000 A 
ATOM     12  C   UNL     1      60.739  63.216  71.326  0.00  0.00    +0.000 A 
ATOM     13  C   UNL     1      60.497  63.778  69.794  0.00  0.00    +0.000 A 
ATOM     14  C   UNL     1      60.246  64.224  70.442  0.00  0.00    +0.000 A 
ATOM     15  C   UNL     1      59.875  64.951  70.324  0.00  0.00    +0.000 A 
ATOM     16  C   UNL     1      59.753  65.232  69.557  0.00  0.00    +0.000 A 
ATOM     17  C   UNL     1      60.003  64.786  68.910  0.00  0.00    +0.000 A 
ATOM     18  C   UNL     1      60.375  64.059  69.029  0.00  0.00    +0.000 A 
ATOM     19  C   UNL     1      61.376  62.277  66.438  0.00  0.00    +0.000 A 
ATOM     20  C   UNL     1      61.254  62.558  65.671  0.00  0.00    +0.000 A 
ATOM     21  C   UNL     1      61.504  62.112  65.024  0.00  0.00    +0.000 A 
ATOM     22  C   UNL     1      61.876  61.385  65.143  0.00  0.00    +0.000 A 
ATOM     23  C   UNL     1      61.997  61.105  65.908  0.00  0.00    +0.000 A 
ATOM     24  C   UNL     1      61.747  61.550  66.556  0.00  0.00    +0.000 A 
ENDROOT
TORSDOF 0
ENDMDL
MODEL 7
REMARK VINA RESULT:   -12.574      1.202      5.159
REMARK INTER + INTRA:         -12.574
REMARK INTER:                 -12.574
REMARK INTRA:                   0.000
REMARK UNBOUND:                 0.000
ROOT
REMARK  Name = fendiline
REMARK                            x       y       z     vdW  Elec       q    Type
REMARK                         _______ _______ _______ _____ _____    ______ ____
ATOM      1  C   UNL     1      60.508  62.892  69.074  0.00  0.00    +0.000 C 
ATOM      2  C   UNL     1      60.965  63.065  68.411  0.00  0.00    +0.000 C 
ATOM      3  N   UNL     1      61.665  63.494  68.493  0.00  0.00    +0.000 NA
ATOM      4  C   UNL     1      61.906  63.749  69.240  0.00  0.00    +0.000 C 
ATOM      5  C   UNL     1      62.607  64.178  69.322  0.00  0.00    +0.000 C 
ATOM      6  C   UNL     1      62.848  64.433  70.069  0.00  0.00    +0.000 C 
ATOM      7  C   UNL     1      63.548  64.862  70.152  0.00  0.00    +0.000 A 
ATOM      8  C   UNL     1      64.007  65.036  69.488  0.00  0.00    +0.000 A 
ATOM      9  C   UNL     1      64.706  65.465  69.571  0.00  0.00    +0.000 A 
ATOM     10  C   UNL     1      64.948  65.720  70.317  0.00  0.00    +0.000 A 
ATOM     11  C   UNL     1      64.490  65.546  70.981  0.00  0.00    +0.000 A 
ATOM     12  C   UNL     1      63.790  65.116  70.898  0.00  0.00    +0.000 A 
ATOM     13  C   UNL     1      62.391  64.259  70.732  0.00  0.00    +0.000 A 
ATOM     14  C   UNL     1      62.632  64.514  71.479  0.00  0.00    +0.000 A 
ATOM     15  C   UNL     1      62.174  64.339  72.143  0.00  0.00    +0.000 A 
ATOM     16  C   UNL     1      61.474  63.910  72.059  0.00  0.00    +0.000 A 
ATOM     17  C   UNL     1      61.233  63.656  71.313  0.00  0.00    +0.000 A 
ATOM     18  C   UNL     1      61.691  63.830  70.650  0.00  0.00    +0.000 A 
ATOM     19  C   UNL     1      60.723  62.811  67.664  0.00  0.00    +0.000 A 
ATOM     20  C   UNL     1      60.023  62.381  67.581  0.00  0.00    +0.000 A 
ATOM     21  C   UNL     1      59.782  62.127  66.834  0.00  0.00    +0.000 A 
ATOM     22  C   UNL     1      60.240  62.301  66.171  0.00  0.00    +0.000 A 
ATOM     23  C   UNL     1      60.939  62.730  66.254  0.00  0.00    +0.000 A 
ATOM     24  C   UNL     1      61.181  62.985  67.000  0.00  0.00    +0.000 A 
ENDROOT
TORSDOF 0
ENDMDL
MODEL 8
REMARK VINA RESULT:   -12.347      4.306      7.113
REMARK INTER + INTRA:         -12.347
REMARK INTER:                 -12.347
REMARK INTRA:                   0.000
REMARK UNBOUND:                 0.000
ROOT
REMARK  Name = fendiline
REMARK                            x       y       z     vdW  Elec       q    Type
REMARK                         _______ _______ _______ _____ _____    ______ ____
ATOM      1  C   UNL     1      62.794  63.856  70.767  0.00  0.00    +0.000 C 
ATOM      2  C   UNL     1      62.110  64.003  71.204  0.00  0.00    +0.000 C 
ATOM      3  N   UNL     1      62.026  64.714  71.613  0.00  0.00    +0.000 NA
ATOM      4  C   UNL     1      62.627  65.278  71.585  0.00  0.00    +0.000 C 
ATOM      5  C   UNL     1      62.544  65.990  71.995  0.00  0.00    +0.000 C 
ATOM      6  C   UNL     1      63.145  66.554  71.967  0.00  0.00    +0.000 C 
ATOM      7  C   UNL     1      63.061  67.266  72.377  0.00  0.00    +0.000 A 
ATOM      8  C   UNL     1      62.377  67.413  72.814  0.00  0.00    +0.000 A 
ATOM      9  C   UNL     1      62.294  68.124  73.222  0.00  0.00    +0.000 A 
ATOM     10  C   UNL     1      62.895  68.689  73.195  0.00  0.00    +0.000 A 
ATOM     11  C   UNL     1      63.579  68.542  72.758  0.00  0.00    +0.000 A 
ATOM     12  C   UNL     1      63.663  67.830  72.349  0.00  0.00    +0.000 A 
ATOM     13  C   UNL     1      63.828  66.407  71.530  0.00  0.00    +0.000 A 
ATOM     14  C   UNL     1      64.430  66.972  71.503  0.00  0.00    +0.000 A 
ATOM     15  C   UNL     1      65.114  66.826  71.066  0.00  0.00    +0.000 A 
ATOM     16  C   UNL     1      65.197  66.114  70.656  0.00  0.00    +0.000 A 
ATOM     17  C   UNL     1      64.596  65.549  70.684  0.00  0.00    +0.000 A 
ATOM     18  C   UNL     1      63.912  65.696  71.121  0.00  0.00    +0.000 A 
ATOM     19  C   UNL     1      61.509  63.438  71.231  0.00  0.00    +0.000 A 
ATOM     20  C   UNL     1      61.592  62.726  70.822  0.00  0.00    +0.000 A 
ATOM     21  C   UNL     1      60.991  62.162  70.850  0.00  0.00    +0.000 A 
ATOM     22  C   UNL     1      60.307  62.308  71.286  0.00  0.00    +0.000 A 
ATOM     23  C   UNL     1      60.224  63.019  71.695  0.00  0.00    +0.000 A 
ATOM     24  C   UNL     1      60.824  63.585  71.668  0.00  0.00    +0.000 A 
ENDROOT
TORSDOF 0
ENDMDL
MODEL 9
REMARK VINA RESULT:   -12.342      1.240      5.521
REMARK INTER + INTRA:         -12.342
REMARK INTER:                 -12.342
REMARK INTRA:                   0.000
REMARK UNBOUND:                 0.000
ROOT
REMARK  Name = fendiline
REMARK                            x       y       z     vdW  Elec       q    Type
REMARK                         _______ _______ _______ _____ _____    ______ ____
ATOM      1  C   UNL     1      61.716  63.287  67.544  0.00  0.00    +0.000 C 
ATOM      2  C   UNL     1      60.977  62.998  67.766  0.00  0.00    +0.000 C 
ATOM      3  N   UNL     1      60.739  63.035  68.555  0.00  0.00    +0.000 NA
ATOM      4  C   UNL     1      61.241  63.363  69.121  0.00  0.00    +0.000 C 
ATOM      5  C   UNL     1      61.004  63.401  69.911  0.00  0.00    +0.000 C 
ATOM      6  C   UNL     1      61.506  63.728  70.477  0.00  0.00    +0.000 C 
ATOM      7  C   UNL     1      61.268  63.766  71.266  0.00  0.00    +0.000 A 
ATOM      8  C   UNL     1      60.528  63.477  71.489  0.00  0.00    +0.000 A 
ATOM      9  C   UNL     1      60.291  63.515  72.277  0.00  0.00    +0.000 A 
ATOM     10  C   UNL     1      60.793  63.842  72.845  0.00  0.00    +0.000 A 
ATOM     11  C   UNL     1      61.533  64.132  72.622  0.00  0.00    +0.000 A 
ATOM     12  C   UNL     1      61.771  64.094  71.833  0.00  0.00    +0.000 A 
ATOM     13  C   UNL     1      62.245  64.017  70.254  0.00  0.00    +0.000 A 
ATOM     14  C   UNL     1      62.748  64.345  70.822  0.00  0.00    +0.000 A 
ATOM     15  C   UNL     1      63.488  64.635  70.599  0.00  0.00    +0.000 A 
ATOM     16  C   UNL     1      63.725  64.596  69.810  0.00  0.00    +0.000 A 
ATOM     17  C   UNL     1      63.223  64.269  69.243  0.00  0.00    +0.000 A 
ATOM     18  C   UNL     1      62.483  63.980  69.466  0.00  0.00    +0.000 A 
ATOM     19  C   UNL     1      60.474  62.670  67.199  0.00  0.00    +0.000 A 
ATOM     20  C   UNL     1      60.712  62.632  66.409  0.00  0.00    +0.000 A 
ATOM     21  C   UNL     1      60.209  62.304  65.843  0.00  0.00    +0.000 A 
ATOM     22  C   UNL     1      59.470  62.015  66.065  0.00  0.00    +0.000 A 
ATOM     23  C   UNL     1      59.232  62.053  66.854  0.00  0.00    +0.000 A 
ATOM     24  C   UNL     1      59.734  62.380  67.421  0.00  0.00    +0.000 A 
ENDROOT
TORSDOF 0
ENDMDL
