MODEL 1
REMARK VINA RESULT:   -12.913      0.000      0.000
REMARK INTER + INTRA:         -12.913
REMARK INTER:                 -12.913
REMARK INTRA:                   0.000
REMARK UNBOUND:                 0.000
ROOT
REMARK  Name = fenofibrate
REMARK                            x       y       z     vdW  Elec       q    Type
REMARK                         _______ _______ _______ _____ _____    ______ ____
ATOM      1  C   UNL     1      60.792  64.714  72.147  0.00  0.00    +0.000 C 
ATOM      2  C   UNL     1      60.507  64.305  71.489  0.00  0.00    +0.000 C 
ATOM      3  C   UNL     1      59.745  63.990  71.498  0.00  0.00    +0.000 C 
ATOM      4  O   UNL     1      60.985  64.212  70.823  0.00  0.00    +0.000 OA
ATOM      5  C   UNL     1      60.700  63.802  70.165  0.00  0.00    +0.000 C 
ATOM      6  O   UNL     1      59.937  63.487  70.175  0.00  0.00    +0.000 OA
ATOM      7  C   UNL     1      61.177  63.708  69.499  0.00  0.00    +0.000 C 
ATOM      8  C   UNL     1      60.573  63.290  69.124  0.00  0.00    +0.000 C 
ATOM      9  C   UNL     1      61.782  64.127  69.874  0.00  0.00    +0.000 C 
ATOM     10  O   UNL     1      61.654  63.615  68.834  0.00  0.00    +0.000 OA
ATOM     11  C   UNL     1      61.369  63.205  68.176  0.00  0.00    +0.000 A 
ATOM     12  C   UNL     1      61.847  63.112  67.510  0.00  0.00    +0.000 A 
ATOM     13  C   UNL     1      61.562  62.702  66.852  0.00  0.00    +0.000 A 
ATOM     14  C   UNL     1      60.799  62.387  66.861  0.00  0.00    +0.000 A 
ATOM     15  C   UNL     1      60.322  62.481  67.528  0.00  0.00    +0.000 A 
ATOM     16  C   UNL     1      60.607  62.890  68.185  0.00  0.00    +0.000 A 
ATOM     17  C   UNL     1      60.514  61.978  66.205  0.00  0.00    +0.000 C 
ATOM     18  O   UNL     1      59.752  61.662  66.213  0.00  0.00    +0.000 OA
ATOM     19  C   UNL     1      60.992  61.884  65.538  0.00  0.00    +0.000 A 
ATOM     20  C   UNL     1      61.755  62.200  65.529  0.00  0.00    +0.000 A 
ATOM     21  C   UNL     1      62.232  62.105  64.862  0.00  0.00    +0.000 A 
ATOM     22  C   UNL     1      61.947  61.696  64.205  0.00  0.00    +0.000 A 
ATOM     23 CL   UNL     1      62.424  61.603  63.539  0.00  0.00    +0.000 Cl
ATOM     24  C   UNL     1      61.185  61.381  64.214  0.00  0.00    +0.000 A 
ATOM     25  C   UNL     1      60.707  61.475  64.880  0.00  0.00    +0.000 A 
ENDROOT
TORSDOF 0
ENDMDL
MODEL 2
REMARK VINA RESULT:   -12.368      2.205      5.446
REMARK INTER + INTRA:         -12.368
REMARK INTER:                 -12.368
REMARK INTRA:                   0.000
REMARK UNBOUND:                 0.000
ROOT
REMARK  Name = fenofibrate
REMARK                            x       y       z     vdW  Elec       q    Type
REMARK                         _______ _______ _______ _____ _____    ______ ____
ATOM      1  C   UNL     1      61.629  61.704  63.849  0.00  0.00    +0.000 C 
ATOM      2  C   UNL     1      61.361  61.550  64.614  0.00  0.00    +0.000 C 
ATOM      3  C   UNL     1      60.912  60.875  64.765  0.00  0.00    +0.000 C 
ATOM      4  O   UNL     1      61.542  62.072  65.227  0.00  0.00    +0.000 OA
ATOM      5  C   UNL     1      61.273  61.918  65.993  0.00  0.00    +0.000 C 
ATOM      6  O   UNL     1      60.824  61.243  66.144  0.00  0.00    +0.000 OA
ATOM      7  C   UNL     1      61.453  62.440  66.605  0.00  0.00    +0.000 C 
ATOM      8  C   UNL     1      61.039  61.961  67.135  0.00  0.00    +0.000 C 
ATOM      9  C   UNL     1      61.868  62.919  66.076  0.00  0.00    +0.000 C 
ATOM     10  O   UNL     1      61.634  62.961  67.218  0.00  0.00    +0.000 OA
ATOM     11  C   UNL     1      61.365  62.807  67.983  0.00  0.00    +0.000 A 
ATOM     12  C   UNL     1      61.546  63.329  68.596  0.00  0.00    +0.000 A 
ATOM     13  C   UNL     1      61.277  63.176  69.361  0.00  0.00    +0.000 A 
ATOM     14  C   UNL     1      60.828  62.500  69.513  0.00  0.00    +0.000 A 
ATOM     15  C   UNL     1      60.648  61.979  68.899  0.00  0.00    +0.000 A 
ATOM     16  C   UNL     1      60.916  62.132  68.135  0.00  0.00    +0.000 A 
ATOM     17  C   UNL     1      60.560  62.346  70.277  0.00  0.00    +0.000 C 
ATOM     18  O   UNL     1      60.111  61.671  70.429  0.00  0.00    +0.000 OA
ATOM     19  C   UNL     1      60.740  62.868  70.891  0.00  0.00    +0.000 A 
ATOM     20  C   UNL     1      61.190  63.544  70.739  0.00  0.00    +0.000 A 
ATOM     21  C   UNL     1      61.370  64.065  71.352  0.00  0.00    +0.000 A 
ATOM     22  C   UNL     1      61.101  63.912  72.117  0.00  0.00    +0.000 A 
ATOM     23 CL   UNL     1      61.282  64.433  72.729  0.00  0.00    +0.000 Cl
ATOM     24  C   UNL     1      60.653  63.237  72.268  0.00  0.00    +0.000 A 
ATOM     25  C   UNL     1      60.472  62.715  71.655  0.00  0.00    +0.000 A 
ENDROOT
TORSDOF 0
ENDMDL
MODEL 3
REMARK VINA RESULT:   -10.925      1.687      2.680
REMARK INTER + INTRA:         -10.925
REMARK INTER:                 -10.925
REMARK INTRA:                   0.000
REMARK UNBOUND:                 0.000
ROOT
REMARK  Name = fenofibrate
REMARK                            x       y       z     vdW  Elec       q    Type
REMARK                         _______ _______ _______ _____ _____    ______ ____
ATOM      1  C   UNL     1      62.824  66.523  72.875  0.00  0.00    +0.000 C 
ATOM      2  C   UNL     1      62.916  66.128  72.157  0.00  0.00    +0.000 C 
ATOM      3  C   UNL     1      63.661  66.078  71.807  0.00  0.00    +0.000 C 
ATOM      4  O   UNL     1      62.263  65.783  71.789  0.00  0.00    +0.000 OA
ATOM      5  C   UNL     1      62.355  65.387  71.070  0.00  0.00    +0.000 C 
ATOM      6  O   UNL     1      63.101  65.337  70.721  0.00  0.00    +0.000 OA
ATOM      7  C   UNL     1      61.703  65.043  70.703  0.00  0.00    +0.000 C 
ATOM      8  C   UNL     1      62.186  64.785  70.086  0.00  0.00    +0.000 C 
ATOM      9  C   UNL     1      61.219  65.300  71.320  0.00  0.00    +0.000 C 
ATOM     10  O   UNL     1      61.050  64.698  70.335  0.00  0.00    +0.000 OA
ATOM     11  C   UNL     1      61.143  64.302  69.616  0.00  0.00    +0.000 A 
ATOM     12  C   UNL     1      60.490  63.958  69.249  0.00  0.00    +0.000 A 
ATOM     13  C   UNL     1      60.582  63.562  68.530  0.00  0.00    +0.000 A 
ATOM     14  C   UNL     1      61.328  63.511  68.180  0.00  0.00    +0.000 A 
ATOM     15  C   UNL     1      61.980  63.857  68.548  0.00  0.00    +0.000 A 
ATOM     16  C   UNL     1      61.888  64.252  69.267  0.00  0.00    +0.000 A 
ATOM     17  C   UNL     1      61.420  63.117  67.463  0.00  0.00    +0.000 C 
ATOM     18  O   UNL     1      62.165  63.066  67.112  0.00  0.00    +0.000 OA
ATOM     19  C   UNL     1      60.767  62.771  67.094  0.00  0.00    +0.000 A 
ATOM     20  C   UNL     1      60.021  62.822  67.445  0.00  0.00    +0.000 A 
ATOM     21  C   UNL     1      59.369  62.477  67.076  0.00  0.00    +0.000 A 
ATOM     22  C   UNL     1      59.461  62.081  66.358  0.00  0.00    +0.000 A 
ATOM     23 CL   UNL     1      58.809  61.737  65.990  0.00  0.00    +0.000 Cl
ATOM     24  C   UNL     1      60.206  62.031  66.008  0.00  0.00    +0.000 A 
ATOM     25  C   UNL     1      60.860  62.376  66.376  0.00  0.00    +0.000 A 
ENDROOT
TORSDOF 0
ENDMDL
MODEL 4
REMARK VINA RESULT:   -10.126     24.296     25.571
REMARK INTER + INTRA:         -10.126
REMARK INTER:                 -10.126
REMARK INTRA:                   0.000
REMARK UNBOUND:                 0.000
ROOT
REMARK  Name = fenofibrate
REMARK                            x       y       z     vdW  Elec       q    Type
REMARK                         _______ _______ _______ _____ _____    ______ ____
ATOM      1  C   UNL     1      67.550  82.248  54.847  0.00  0.00    +0.000 C 
ATOM      2  C   UNL     1      67.632  81.750  54.195  0.00  0.00    +0.000 C 
ATOM      3  C   UNL     1      66.993  81.293  53.943  0.00  0.00    +0.000 C 
ATOM      4  O   UNL     1      68.353  81.709  53.795  0.00  0.00    +0.000 OA
ATOM      5  C   UNL     1      68.434  81.210  53.142  0.00  0.00    +0.000 C 
ATOM      6  O   UNL     1      67.795  80.753  52.890  0.00  0.00    +0.000 OA
ATOM      7  C   UNL     1      69.154  81.168  52.743  0.00  0.00    +0.000 C 
ATOM      8  C   UNL     1      68.833  80.616  52.220  0.00  0.00    +0.000 C 
ATOM      9  C   UNL     1      69.477  81.720  53.266  0.00  0.00    +0.000 C 
ATOM     10  O   UNL     1      69.874  81.127  52.343  0.00  0.00    +0.000 OA
ATOM     11  C   UNL     1      69.956  80.628  51.690  0.00  0.00    +0.000 A 
ATOM     12  C   UNL     1      70.677  80.586  51.291  0.00  0.00    +0.000 A 
ATOM     13  C   UNL     1      70.758  80.088  50.638  0.00  0.00    +0.000 A 
ATOM     14  C   UNL     1      70.119  79.631  50.386  0.00  0.00    +0.000 A 
ATOM     15  C   UNL     1      69.399  79.673  50.786  0.00  0.00    +0.000 A 
ATOM     16  C   UNL     1      69.317  80.171  51.438  0.00  0.00    +0.000 A 
ATOM     17  C   UNL     1      70.200  79.133  49.734  0.00  0.00    +0.000 C 
ATOM     18  O   UNL     1      69.562  78.676  49.481  0.00  0.00    +0.000 OA
ATOM     19  C   UNL     1      70.921  79.091  49.334  0.00  0.00    +0.000 A 
ATOM     20  C   UNL     1      71.561  79.548  49.587  0.00  0.00    +0.000 A 
ATOM     21  C   UNL     1      72.281  79.506  49.186  0.00  0.00    +0.000 A 
ATOM     22  C   UNL     1      72.362  79.008  48.534  0.00  0.00    +0.000 A 
ATOM     23 CL   UNL     1      73.082  78.966  48.135  0.00  0.00    +0.000 Cl
ATOM     24  C   UNL     1      71.724  78.552  48.282  0.00  0.00    +0.000 A 
ATOM     25  C   UNL     1      71.003  78.593  48.681  0.00  0.00    +0.000 A 
ENDROOT
TORSDOF 0
ENDMDL
