MODEL 1
REMARK VINA RESULT:   -13.048      0.000      0.000
REMARK INTER + INTRA:         -13.048
REMARK INTER:                 -13.048
REMARK INTRA:                   0.000
REMARK UNBOUND:                 0.000
ROOT
REMARK  Name = flomoxef
REMARK                            x       y       z     vdW  Elec       q    Type
REMARK                         _______ _______ _______ _____ _____    ______ ____
ATOM      1  C   UNL     1      60.207  63.569  70.373  0.00  0.00    +0.000 C 
ATOM      2  O   UNL     1      60.933  63.954  70.449  0.00  0.00    +0.000 OA
ATOM      3  C   UNL     1      61.466  63.958  69.819  0.00  0.00    +0.000 C 
ATOM      4  N   UNL     1      61.996  64.400  70.270  0.00  0.00    +0.000 NA
ATOM      5  C   UNL     1      61.800  64.619  71.040  0.00  0.00    +0.000 C 
ATOM      6  O   UNL     1      62.330  65.061  71.491  0.00  0.00    +0.000 OA
ATOM      7  C   UNL     1      61.074  64.395  71.360  0.00  0.00    +0.000 C 
ATOM      8  S   UNL     1      60.877  64.613  72.131  0.00  0.00    +0.000 S 
ATOM      9  C   UNL     1      60.151  64.389  72.451  0.00  0.00    +0.000 C 
ATOM     10  F   UNL     1      59.954  64.607  73.222  0.00  0.00    +0.000 F 
ATOM     11  F   UNL     1      59.621  63.946  72.001  0.00  0.00    +0.000 F 
ATOM     12  C   UNL     1      60.935  63.515  69.368  0.00  0.00    +0.000 C 
ATOM     13  O   UNL     1      60.210  63.129  69.292  0.00  0.00    +0.000 OA
ATOM     14  C   UNL     1      60.017  62.748  68.587  0.00  0.00    +0.000 C 
ATOM     15  C   UNL     1      60.549  62.751  67.957  0.00  0.00    +0.000 C 
ATOM     16  C   UNL     1      60.356  62.369  67.251  0.00  0.00    +0.000 C 
ATOM     17  S   UNL     1      60.889  62.372  66.621  0.00  0.00    +0.000 S 
ATOM     18  C   UNL     1      60.696  61.991  65.917  0.00  0.00    +0.000 A 
ATOM     19  N   UNL     1      59.995  61.584  65.760  0.00  0.00    +0.000 NA
ATOM     20  N   UNL     1      60.036  61.291  64.991  0.00  0.00    +0.000 NA
ATOM     21  N   UNL     1      60.763  61.515  64.671  0.00  0.00    +0.000 NA
ATOM     22  N   UNL     1      61.170  61.947  65.242  0.00  0.00    +0.000 N 
ATOM     23  C   UNL     1      61.922  62.279  65.156  0.00  0.00    +0.000 C 
ATOM     24  C   UNL     1      62.332  62.190  64.446  0.00  0.00    +0.000 C 
ATOM     25  O   UNL     1      61.992  61.769  63.822  0.00  0.00    +0.000 OA
ATOM     26  C   UNL     1      61.275  63.136  68.032  0.00  0.00    +0.000 C 
ATOM     27  N   UNL     1      61.468  63.518  68.738  0.00  0.00    +0.000 N 
ATOM     28  C   UNL     1      61.998  63.961  69.189  0.00  0.00    +0.000 C 
ATOM     29  O   UNL     1      62.750  64.276  69.062  0.00  0.00    +0.000 OA
ATOM     30  C   UNL     1      61.808  63.139  67.402  0.00  0.00    +0.000 C 
ATOM     31  O   UNL     1      62.534  63.525  67.478  0.00  0.00    +0.000 OA
ATOM     32  O   UNL     1      61.615  62.758  66.698  0.00  0.00    +0.000 OA
ENDROOT
TORSDOF 0
ENDMDL
MODEL 2
REMARK VINA RESULT:   -13.032      2.560      5.864
REMARK INTER + INTRA:         -13.032
REMARK INTER:                 -13.032
REMARK INTRA:                   0.000
REMARK UNBOUND:                 0.000
ROOT
REMARK  Name = flomoxef
REMARK                            x       y       z     vdW  Elec       q    Type
REMARK                         _______ _______ _______ _____ _____    ______ ____
ATOM      1  C   UNL     1      62.104  62.646  66.022  0.00  0.00    +0.000 C 
ATOM      2  O   UNL     1      61.378  62.270  65.907  0.00  0.00    +0.000 OA
ATOM      3  C   UNL     1      60.803  62.294  66.498  0.00  0.00    +0.000 C 
ATOM      4  N   UNL     1      60.298  61.846  66.024  0.00  0.00    +0.000 NA
ATOM      5  C   UNL     1      60.543  61.601  65.276  0.00  0.00    +0.000 C 
ATOM      6  O   UNL     1      60.038  61.153  64.802  0.00  0.00    +0.000 OA
ATOM      7  C   UNL     1      61.294  61.804  65.001  0.00  0.00    +0.000 C 
ATOM      8  S   UNL     1      61.540  61.559  64.253  0.00  0.00    +0.000 S 
ATOM      9  C   UNL     1      62.290  61.762  63.978  0.00  0.00    +0.000 C 
ATOM     10  F   UNL     1      62.536  61.517  63.229  0.00  0.00    +0.000 F 
ATOM     11  F   UNL     1      62.795  62.210  64.452  0.00  0.00    +0.000 F 
ATOM     12  C   UNL     1      61.308  62.742  66.971  0.00  0.00    +0.000 C 
ATOM     13  O   UNL     1      62.033  63.118  67.087  0.00  0.00    +0.000 OA
ATOM     14  C   UNL     1      62.183  63.518  67.792  0.00  0.00    +0.000 C 
ATOM     15  C   UNL     1      61.608  63.542  68.383  0.00  0.00    +0.000 C 
ATOM     16  C   UNL     1      61.758  63.943  69.089  0.00  0.00    +0.000 C 
ATOM     17  S   UNL     1      61.183  63.967  69.680  0.00  0.00    +0.000 S 
ATOM     18  C   UNL     1      61.333  64.367  70.385  0.00  0.00    +0.000 A 
ATOM     19  N   UNL     1      62.028  64.766  70.578  0.00  0.00    +0.000 NA
ATOM     20  N   UNL     1      61.939  65.084  71.334  0.00  0.00    +0.000 NA
ATOM     21  N   UNL     1      61.188  64.881  71.608  0.00  0.00    +0.000 NA
ATOM     22  N   UNL     1      60.813  64.438  71.023  0.00  0.00    +0.000 N 
ATOM     23  C   UNL     1      60.052  64.120  71.066  0.00  0.00    +0.000 C 
ATOM     24  C   UNL     1      59.595  64.238  71.742  0.00  0.00    +0.000 C 
ATOM     25  O   UNL     1      59.898  64.671  72.376  0.00  0.00    +0.000 OA
ATOM     26  C   UNL     1      60.883  63.166  68.269  0.00  0.00    +0.000 C 
ATOM     27  N   UNL     1      60.733  62.766  67.562  0.00  0.00    +0.000 N 
ATOM     28  C   UNL     1      60.228  62.318  67.088  0.00  0.00    +0.000 C 
ATOM     29  O   UNL     1      59.463  62.018  67.172  0.00  0.00    +0.000 OA
ATOM     30  C   UNL     1      60.307  63.191  68.859  0.00  0.00    +0.000 C 
ATOM     31  O   UNL     1      59.582  62.814  68.744  0.00  0.00    +0.000 OA
ATOM     32  O   UNL     1      60.457  63.590  69.564  0.00  0.00    +0.000 OA
ENDROOT
TORSDOF 0
ENDMDL
MODEL 3
REMARK VINA RESULT:   -12.995      1.246      1.853
REMARK INTER + INTRA:         -12.995
REMARK INTER:                 -12.995
REMARK INTRA:                   0.000
REMARK UNBOUND:                 0.000
ROOT
REMARK  Name = flomoxef
REMARK                            x       y       z     vdW  Elec       q    Type
REMARK                         _______ _______ _______ _____ _____    ______ ____
ATOM      1  C   UNL     1      61.896  64.235  70.225  0.00  0.00    +0.000 C 
ATOM      2  O   UNL     1      61.359  63.729  70.595  0.00  0.00    +0.000 OA
ATOM      3  C   UNL     1      60.976  63.143  70.158  0.00  0.00    +0.000 C 
ATOM      4  N   UNL     1      60.578  62.897  70.837  0.00  0.00    +0.000 NA
ATOM      5  C   UNL     1      60.710  63.281  71.555  0.00  0.00    +0.000 C 
ATOM      6  O   UNL     1      60.311  63.035  72.234  0.00  0.00    +0.000 OA
ATOM      7  C   UNL     1      61.240  63.911  71.594  0.00  0.00    +0.000 C 
ATOM      8  S   UNL     1      61.373  64.296  72.312  0.00  0.00    +0.000 S 
ATOM      9  C   UNL     1      61.904  64.925  72.351  0.00  0.00    +0.000 C 
ATOM     10  F   UNL     1      62.037  65.310  73.069  0.00  0.00    +0.000 F 
ATOM     11  F   UNL     1      62.303  65.171  71.672  0.00  0.00    +0.000 F 
ATOM     12  C   UNL     1      61.375  63.389  69.479  0.00  0.00    +0.000 C 
ATOM     13  O   UNL     1      61.912  63.895  69.109  0.00  0.00    +0.000 OA
ATOM     14  C   UNL     1      62.066  63.815  68.303  0.00  0.00    +0.000 C 
ATOM     15  C   UNL     1      61.683  63.230  67.866  0.00  0.00    +0.000 C 
ATOM     16  C   UNL     1      61.837  63.150  67.059  0.00  0.00    +0.000 C 
ATOM     17  S   UNL     1      61.454  62.564  66.622  0.00  0.00    +0.000 S 
ATOM     18  C   UNL     1      61.608  62.485  65.816  0.00  0.00    +0.000 A 
ATOM     19  N   UNL     1      62.128  62.947  65.373  0.00  0.00    +0.000 NA
ATOM     20  N   UNL     1      62.110  62.677  64.594  0.00  0.00    +0.000 NA
ATOM     21  N   UNL     1      61.579  62.047  64.555  0.00  0.00    +0.000 NA
ATOM     22  N   UNL     1      61.269  61.928  65.309  0.00  0.00    +0.000 N 
ATOM     23  C   UNL     1      60.716  61.353  65.522  0.00  0.00    +0.000 C 
ATOM     24  C   UNL     1      60.424  60.831  64.953  0.00  0.00    +0.000 C 
ATOM     25  O   UNL     1      60.686  60.884  64.172  0.00  0.00    +0.000 OA
ATOM     26  C   UNL     1      61.146  62.724  68.235  0.00  0.00    +0.000 C 
ATOM     27  N   UNL     1      60.992  62.804  69.042  0.00  0.00    +0.000 N 
ATOM     28  C   UNL     1      60.593  62.558  69.721  0.00  0.00    +0.000 C 
ATOM     29  O   UNL     1      60.041  61.969  69.892  0.00  0.00    +0.000 OA
ATOM     30  C   UNL     1      60.763  62.138  67.798  0.00  0.00    +0.000 C 
ATOM     31  O   UNL     1      60.226  61.632  68.168  0.00  0.00    +0.000 OA
ATOM     32  O   UNL     1      60.917  62.058  66.992  0.00  0.00    +0.000 OA
ENDROOT
TORSDOF 0
ENDMDL
MODEL 4
REMARK VINA RESULT:   -12.933      2.381      5.750
REMARK INTER + INTRA:         -12.933
REMARK INTER:                 -12.933
REMARK INTRA:                   0.000
REMARK UNBOUND:                 0.000
ROOT
REMARK  Name = flomoxef
REMARK                            x       y       z     vdW  Elec       q    Type
REMARK                         _______ _______ _______ _____ _____    ______ ____
ATOM      1  C   UNL     1      59.751  63.562  68.091  0.00  0.00    +0.000 C 
ATOM      2  O   UNL     1      60.520  63.351  67.876  0.00  0.00    +0.000 OA
ATOM      3  C   UNL     1      61.163  63.655  68.294  0.00  0.00    +0.000 C 
ATOM      4  N   UNL     1      61.678  63.236  67.804  0.00  0.00    +0.000 NA
ATOM      5  C   UNL     1      61.379  62.764  67.198  0.00  0.00    +0.000 C 
ATOM      6  O   UNL     1      61.895  62.345  66.709  0.00  0.00    +0.000 OA
ATOM      7  C   UNL     1      60.565  62.710  67.081  0.00  0.00    +0.000 C 
ATOM      8  S   UNL     1      60.265  62.238  66.474  0.00  0.00    +0.000 S 
ATOM      9  C   UNL     1      59.451  62.184  66.357  0.00  0.00    +0.000 C 
ATOM     10  F   UNL     1      59.151  61.712  65.750  0.00  0.00    +0.000 F 
ATOM     11  F   UNL     1      58.935  62.603  66.846  0.00  0.00    +0.000 F 
ATOM     12  C   UNL     1      60.647  64.073  68.783  0.00  0.00    +0.000 C 
ATOM     13  O   UNL     1      59.879  64.284  68.998  0.00  0.00    +0.000 OA
ATOM     14  C   UNL     1      59.754  64.798  69.630  0.00  0.00    +0.000 C 
ATOM     15  C   UNL     1      60.397  65.102  70.049  0.00  0.00    +0.000 C 
ATOM     16  C   UNL     1      60.272  65.617  70.682  0.00  0.00    +0.000 C 
ATOM     17  S   UNL     1      60.915  65.920  71.100  0.00  0.00    +0.000 S 
ATOM     18  C   UNL     1      60.790  66.434  71.732  0.00  0.00    +0.000 A 
ATOM     19  N   UNL     1      60.057  66.694  72.010  0.00  0.00    +0.000 NA
ATOM     20  N   UNL     1      60.190  67.199  72.648  0.00  0.00    +0.000 NA
ATOM     21  N   UNL     1      61.005  67.253  72.765  0.00  0.00    +0.000 NA
ATOM     22  N   UNL     1      61.375  66.781  72.200  0.00  0.00    +0.000 N 
ATOM     23  C   UNL     1      62.189  66.672  72.115  0.00  0.00    +0.000 C 
ATOM     24  C   UNL     1      62.711  67.057  72.626  0.00  0.00    +0.000 C 
ATOM     25  O   UNL     1      62.419  67.549  73.221  0.00  0.00    +0.000 OA
ATOM     26  C   UNL     1      61.165  64.892  69.834  0.00  0.00    +0.000 C 
ATOM     27  N   UNL     1      61.290  64.377  69.201  0.00  0.00    +0.000 N 
ATOM     28  C   UNL     1      61.806  63.958  68.712  0.00  0.00    +0.000 C 
ATOM     29  O   UNL     1      62.625  63.877  68.662  0.00  0.00    +0.000 OA
ATOM     30  C   UNL     1      61.808  65.195  70.252  0.00  0.00    +0.000 C 
ATOM     31  O   UNL     1      62.576  64.984  70.037  0.00  0.00    +0.000 OA
ATOM     32  O   UNL     1      61.683  65.709  70.885  0.00  0.00    +0.000 OA
ENDROOT
TORSDOF 0
ENDMDL
MODEL 5
REMARK VINA RESULT:   -12.501      1.861      2.567
REMARK INTER + INTRA:         -12.501
REMARK INTER:                 -12.501
REMARK INTRA:                   0.000
REMARK UNBOUND:                 0.000
ROOT
REMARK  Name = flomoxef
REMARK                            x       y       z     vdW  Elec       q    Type
REMARK                         _______ _______ _______ _____ _____    ______ ____
ATOM      1  C   UNL     1      62.828  65.364  70.559  0.00  0.00    +0.000 C 
ATOM      2  O   UNL     1      62.115  65.501  70.951  0.00  0.00    +0.000 OA
ATOM      3  C   UNL     1      61.413  65.191  70.647  0.00  0.00    +0.000 C 
ATOM      4  N   UNL     1      60.994  65.527  71.273  0.00  0.00    +0.000 NA
ATOM      5  C   UNL     1      61.392  65.963  71.849  0.00  0.00    +0.000 C 
ATOM      6  O   UNL     1      60.973  66.298  72.475  0.00  0.00    +0.000 OA
ATOM      7  C   UNL     1      62.209  66.063  71.799  0.00  0.00    +0.000 C 
ATOM      8  S   UNL     1      62.608  66.498  72.375  0.00  0.00    +0.000 S 
ATOM      9  C   UNL     1      63.425  66.598  72.325  0.00  0.00    +0.000 C 
ATOM     10  F   UNL     1      63.824  67.034  72.901  0.00  0.00    +0.000 F 
ATOM     11  F   UNL     1      63.844  66.263  71.698  0.00  0.00    +0.000 F 
ATOM     12  C   UNL     1      61.832  64.856  70.020  0.00  0.00    +0.000 C 
ATOM     13  O   UNL     1      62.545  64.719  69.629  0.00  0.00    +0.000 OA
ATOM     14  C   UNL     1      62.557  64.274  68.935  0.00  0.00    +0.000 C 
ATOM     15  C   UNL     1      61.855  63.965  68.632  0.00  0.00    +0.000 C 
ATOM     16  C   UNL     1      61.867  63.519  67.937  0.00  0.00    +0.000 C 
ATOM     17  S   UNL     1      61.165  63.210  67.633  0.00  0.00    +0.000 S 
ATOM     18  C   UNL     1      61.177  62.765  66.939  0.00  0.00    +0.000 A 
ATOM     19  N   UNL     1      61.845  62.584  66.490  0.00  0.00    +0.000 NA
ATOM     20  N   UNL     1      61.604  62.129  65.845  0.00  0.00    +0.000 NA
ATOM     21  N   UNL     1      60.787  62.029  65.896  0.00  0.00    +0.000 NA
ATOM     22  N   UNL     1      60.523  62.422  66.571  0.00  0.00    +0.000 N 
ATOM     23  C   UNL     1      59.741  62.464  66.834  0.00  0.00    +0.000 C 
ATOM     24  C   UNL     1      59.142  62.092  66.406  0.00  0.00    +0.000 C 
ATOM     25  O   UNL     1      59.324  61.677  65.716  0.00  0.00    +0.000 OA
ATOM     26  C   UNL     1      61.141  64.101  69.022  0.00  0.00    +0.000 C 
ATOM     27  N   UNL     1      61.130  64.546  69.717  0.00  0.00    +0.000 N 
ATOM     28  C   UNL     1      60.711  64.882  70.343  0.00  0.00    +0.000 C 
ATOM     29  O   UNL     1      59.918  64.900  70.571  0.00  0.00    +0.000 OA
ATOM     30  C   UNL     1      60.440  63.791  68.718  0.00  0.00    +0.000 C 
ATOM     31  O   UNL     1      59.726  63.928  69.109  0.00  0.00    +0.000 OA
ATOM     32  O   UNL     1      60.452  63.346  68.024  0.00  0.00    +0.000 OA
ENDROOT
TORSDOF 0
ENDMDL
MODEL 6
REMARK VINA RESULT:   -12.335      3.069      5.676
REMARK INTER + INTRA:         -12.335
REMARK INTER:                 -12.335
REMARK INTRA:                   0.000
REMARK UNBOUND:                 0.000
ROOT
REMARK  Name = flomoxef
REMARK                            x       y       z     vdW  Elec       q    Type
REMARK                         _______ _______ _______ _____ _____    ______ ____
ATOM      1  C   UNL     1      61.700  63.535  68.498  0.00  0.00    +0.000 C 
ATOM      2  O   UNL     1      61.467  63.175  69.203  0.00  0.00    +0.000 OA
ATOM      3  C   UNL     1      61.835  63.381  69.912  0.00  0.00    +0.000 C 
ATOM      4  N   UNL     1      61.354  62.847  70.317  0.00  0.00    +0.000 NA
ATOM      5  C   UNL     1      60.796  62.402  69.906  0.00  0.00    +0.000 C 
ATOM      6  O   UNL     1      60.315  61.868  70.311  0.00  0.00    +0.000 OA
ATOM      7  C   UNL     1      60.717  62.490  69.090  0.00  0.00    +0.000 C 
ATOM      8  S   UNL     1      60.158  62.045  68.678  0.00  0.00    +0.000 S 
ATOM      9  C   UNL     1      60.079  62.133  67.863  0.00  0.00    +0.000 C 
ATOM     10  F   UNL     1      59.520  61.687  67.450  0.00  0.00    +0.000 F 
ATOM     11  F   UNL     1      60.560  62.667  67.457  0.00  0.00    +0.000 F 
ATOM     12  C   UNL     1      62.316  63.915  69.507  0.00  0.00    +0.000 C 
ATOM     13  O   UNL     1      62.549  64.275  68.802  0.00  0.00    +0.000 OA
ATOM     14  C   UNL     1      63.149  64.840  68.805  0.00  0.00    +0.000 C 
ATOM     15  C   UNL     1      63.517  65.047  69.514  0.00  0.00    +0.000 C 
ATOM     16  C   UNL     1      64.118  65.613  69.518  0.00  0.00    +0.000 C 
ATOM     17  S   UNL     1      64.486  65.819  70.227  0.00  0.00    +0.000 S 
ATOM     18  C   UNL     1      65.086  66.384  70.230  0.00  0.00    +0.000 A 
ATOM     19  N   UNL     1      65.376  66.789  69.572  0.00  0.00    +0.000 NA
ATOM     20  N   UNL     1      65.972  67.299  69.828  0.00  0.00    +0.000 NA
ATOM     21  N   UNL     1      66.050  67.211  70.644  0.00  0.00    +0.000 NA
ATOM     22  N   UNL     1      65.503  66.646  70.893  0.00  0.00    +0.000 N 
ATOM     23  C   UNL     1      65.392  66.387  71.669  0.00  0.00    +0.000 C 
ATOM     24  C   UNL     1      65.852  66.700  72.278  0.00  0.00    +0.000 C 
ATOM     25  O   UNL     1      66.424  67.272  72.111  0.00  0.00    +0.000 OA
ATOM     26  C   UNL     1      63.285  64.688  70.220  0.00  0.00    +0.000 C 
ATOM     27  N   UNL     1      62.684  64.122  70.216  0.00  0.00    +0.000 N 
ATOM     28  C   UNL     1      62.203  63.588  70.621  0.00  0.00    +0.000 C 
ATOM     29  O   UNL     1      62.124  63.356  71.409  0.00  0.00    +0.000 OA
ATOM     30  C   UNL     1      63.653  64.894  70.929  0.00  0.00    +0.000 C 
ATOM     31  O   UNL     1      63.421  64.534  71.634  0.00  0.00    +0.000 OA
ATOM     32  O   UNL     1      64.253  65.459  70.932  0.00  0.00    +0.000 OA
ENDROOT
TORSDOF 0
ENDMDL
MODEL 7
REMARK VINA RESULT:   -12.154      3.045      5.623
REMARK INTER + INTRA:         -12.154
REMARK INTER:                 -12.154
REMARK INTRA:                   0.000
REMARK UNBOUND:                 0.000
ROOT
REMARK  Name = flomoxef
REMARK                            x       y       z     vdW  Elec       q    Type
REMARK                         _______ _______ _______ _____ _____    ______ ____
ATOM      1  C   UNL     1      61.924  63.181  70.960  0.00  0.00    +0.000 C 
ATOM      2  O   UNL     1      61.728  63.249  70.162  0.00  0.00    +0.000 OA
ATOM      3  C   UNL     1      62.128  63.790  69.685  0.00  0.00    +0.000 C 
ATOM      4  N   UNL     1      61.671  63.558  69.038  0.00  0.00    +0.000 NA
ATOM      5  C   UNL     1      61.096  62.974  69.129  0.00  0.00    +0.000 C 
ATOM      6  O   UNL     1      60.639  62.741  68.482  0.00  0.00    +0.000 OA
ATOM      7  C   UNL     1      60.978  62.622  69.865  0.00  0.00    +0.000 C 
ATOM      8  S   UNL     1      60.403  62.037  69.956  0.00  0.00    +0.000 S 
ATOM      9  C   UNL     1      60.286  61.684  70.692  0.00  0.00    +0.000 C 
ATOM     10  F   UNL     1      59.711  61.099  70.783  0.00  0.00    +0.000 F 
ATOM     11  F   UNL     1      60.743  61.917  71.338  0.00  0.00    +0.000 F 
ATOM     12  C   UNL     1      62.585  64.023  70.331  0.00  0.00    +0.000 C 
ATOM     13  O   UNL     1      62.781  63.954  71.129  0.00  0.00    +0.000 OA
ATOM     14  C   UNL     1      63.377  64.425  71.450  0.00  0.00    +0.000 C 
ATOM     15  C   UNL     1      63.777  64.966  70.973  0.00  0.00    +0.000 C 
ATOM     16  C   UNL     1      64.373  65.439  71.294  0.00  0.00    +0.000 C 
ATOM     17  S   UNL     1      64.773  65.980  70.817  0.00  0.00    +0.000 S 
ATOM     18  C   UNL     1      65.368  66.451  71.137  0.00  0.00    +0.000 A 
ATOM     19  N   UNL     1      65.624  66.444  71.922  0.00  0.00    +0.000 NA
ATOM     20  N   UNL     1      66.227  67.001  72.000  0.00  0.00    +0.000 NA
ATOM     21  N   UNL     1      66.344  67.353  71.263  0.00  0.00    +0.000 NA
ATOM     22  N   UNL     1      65.814  67.014  70.730  0.00  0.00    +0.000 N 
ATOM     23  C   UNL     1      65.742  67.203  69.930  0.00  0.00    +0.000 C 
ATOM     24  C   UNL     1      66.228  67.781  69.598  0.00  0.00    +0.000 C 
ATOM     25  O   UNL     1      66.787  68.169  70.065  0.00  0.00    +0.000 OA
ATOM     26  C   UNL     1      63.581  65.036  70.174  0.00  0.00    +0.000 C 
ATOM     27  N   UNL     1      62.985  64.564  69.853  0.00  0.00    +0.000 N 
ATOM     28  C   UNL     1      62.528  64.331  69.207  0.00  0.00    +0.000 C 
ATOM     29  O   UNL     1      62.488  64.550  68.412  0.00  0.00    +0.000 OA
ATOM     30  C   UNL     1      63.981  65.577  69.697  0.00  0.00    +0.000 C 
ATOM     31  O   UNL     1      63.785  65.646  68.899  0.00  0.00    +0.000 OA
ATOM     32  O   UNL     1      64.576  66.048  70.018  0.00  0.00    +0.000 OA
ENDROOT
TORSDOF 0
ENDMDL
MODEL 8
REMARK VINA RESULT:   -11.773      3.262      4.517
REMARK INTER + INTRA:         -11.773
REMARK INTER:                 -11.773
REMARK INTRA:                   0.000
REMARK UNBOUND:                 0.000
ROOT
REMARK  Name = flomoxef
REMARK                            x       y       z     vdW  Elec       q    Type
REMARK                         _______ _______ _______ _____ _____    ______ ____
ATOM      1  C   UNL     1      64.931  65.566  71.430  0.00  0.00    +0.000 C 
ATOM      2  O   UNL     1      65.001  66.118  70.821  0.00  0.00    +0.000 OA
ATOM      3  C   UNL     1      64.487  66.087  70.176  0.00  0.00    +0.000 C 
ATOM      4  N   UNL     1      64.864  66.742  69.845  0.00  0.00    +0.000 NA
ATOM      5  C   UNL     1      65.496  67.096  70.238  0.00  0.00    +0.000 C 
ATOM      6  O   UNL     1      65.872  67.752  69.907  0.00  0.00    +0.000 OA
ATOM      7  C   UNL     1      65.753  66.796  70.961  0.00  0.00    +0.000 C 
ATOM      8  S   UNL     1      66.386  67.150  71.355  0.00  0.00    +0.000 S 
ATOM      9  C   UNL     1      66.642  66.849  72.078  0.00  0.00    +0.000 C 
ATOM     10  F   UNL     1      67.275  67.203  72.472  0.00  0.00    +0.000 F 
ATOM     11  F   UNL     1      66.266  66.194  72.409  0.00  0.00    +0.000 F 
ATOM     12  C   UNL     1      64.111  65.432  70.508  0.00  0.00    +0.000 C 
ATOM     13  O   UNL     1      64.041  64.880  71.117  0.00  0.00    +0.000 OA
ATOM     14  C   UNL     1      63.459  64.297  71.081  0.00  0.00    +0.000 C 
ATOM     15  C   UNL     1      62.945  64.266  70.436  0.00  0.00    +0.000 C 
ATOM     16  C   UNL     1      62.362  63.683  70.400  0.00  0.00    +0.000 C 
ATOM     17  S   UNL     1      61.848  63.652  69.756  0.00  0.00    +0.000 S 
ATOM     18  C   UNL     1      61.266  63.069  69.720  0.00  0.00    +0.000 A 
ATOM     19  N   UNL     1      61.131  62.483  70.285  0.00  0.00    +0.000 NA
ATOM     20  N   UNL     1      60.497  62.022  70.027  0.00  0.00    +0.000 NA
ATOM     21  N   UNL     1      60.241  62.323  69.303  0.00  0.00    +0.000 NA
ATOM     22  N   UNL     1      60.715  62.970  69.113  0.00  0.00    +0.000 N 
ATOM     23  C   UNL     1      60.652  63.436  68.435  0.00  0.00    +0.000 C 
ATOM     24  C   UNL     1      60.071  63.270  67.874  0.00  0.00    +0.000 C 
ATOM     25  O   UNL     1      59.554  62.637  67.990  0.00  0.00    +0.000 OA
ATOM     26  C   UNL     1      63.014  64.818  69.827  0.00  0.00    +0.000 C 
ATOM     27  N   UNL     1      63.597  65.401  69.863  0.00  0.00    +0.000 N 
ATOM     28  C   UNL     1      63.974  66.056  69.532  0.00  0.00    +0.000 C 
ATOM     29  O   UNL     1      63.876  66.498  68.841  0.00  0.00    +0.000 OA
ATOM     30  C   UNL     1      62.500  64.787  69.182  0.00  0.00    +0.000 C 
ATOM     31  O   UNL     1      62.570  65.339  68.573  0.00  0.00    +0.000 OA
ATOM     32  O   UNL     1      61.918  64.204  69.147  0.00  0.00    +0.000 OA
ENDROOT
TORSDOF 0
ENDMDL
MODEL 9
REMARK VINA RESULT:   -10.783     14.935     15.896
REMARK INTER + INTRA:         -10.783
REMARK INTER:                 -10.783
REMARK INTRA:                   0.000
REMARK UNBOUND:                 0.000
ROOT
REMARK  Name = flomoxef
REMARK                            x       y       z     vdW  Elec       q    Type
REMARK                         _______ _______ _______ _____ _____    ______ ____
ATOM      1  C   UNL     1      62.113  60.428  52.648  0.00  0.00    +0.000 C 
ATOM      2  O   UNL     1      62.848  60.300  53.001  0.00  0.00    +0.000 OA
ATOM      3  C   UNL     1      63.242  60.925  53.368  0.00  0.00    +0.000 C 
ATOM      4  N   UNL     1      63.863  60.418  53.564  0.00  0.00    +0.000 NA
ATOM      5  C   UNL     1      63.831  59.624  53.344  0.00  0.00    +0.000 C 
ATOM      6  O   UNL     1      64.452  59.117  53.540  0.00  0.00    +0.000 OA
ATOM      7  C   UNL     1      63.180  59.336  52.929  0.00  0.00    +0.000 C 
ATOM      8  S   UNL     1      63.148  58.542  52.708  0.00  0.00    +0.000 S 
ATOM      9  C   UNL     1      62.496  58.255  52.293  0.00  0.00    +0.000 C 
ATOM     10  F   UNL     1      62.464  57.460  52.072  0.00  0.00    +0.000 F 
ATOM     11  F   UNL     1      61.876  58.762  52.097  0.00  0.00    +0.000 F 
ATOM     12  C   UNL     1      62.622  61.432  53.172  0.00  0.00    +0.000 C 
ATOM     13  O   UNL     1      61.887  61.560  52.819  0.00  0.00    +0.000 OA
ATOM     14  C   UNL     1      61.547  62.311  52.833  0.00  0.00    +0.000 C 
ATOM     15  C   UNL     1      61.942  62.935  53.200  0.00  0.00    +0.000 C 
ATOM     16  C   UNL     1      61.602  63.687  53.214  0.00  0.00    +0.000 C 
ATOM     17  S   UNL     1      61.996  64.312  53.581  0.00  0.00    +0.000 S 
ATOM     18  C   UNL     1      61.656  65.063  53.594  0.00  0.00    +0.000 A 
ATOM     19  N   UNL     1      60.929  65.273  53.266  0.00  0.00    +0.000 NA
ATOM     20  N   UNL     1      60.807  66.076  53.408  0.00  0.00    +0.000 NA
ATOM     21  N   UNL     1      61.459  66.363  53.824  0.00  0.00    +0.000 NA
ATOM     22  N   UNL     1      61.984  65.738  53.939  0.00  0.00    +0.000 N 
ATOM     23  C   UNL     1      62.710  65.778  54.331  0.00  0.00    +0.000 C 
ATOM     24  C   UNL     1      62.966  66.495  54.649  0.00  0.00    +0.000 C 
ATOM     25  O   UNL     1      62.498  67.171  54.576  0.00  0.00    +0.000 OA
ATOM     26  C   UNL     1      62.676  62.809  53.553  0.00  0.00    +0.000 C 
ATOM     27  N   UNL     1      63.017  62.057  53.539  0.00  0.00    +0.000 N 
ATOM     28  C   UNL     1      63.637  61.549  53.735  0.00  0.00    +0.000 C 
ATOM     29  O   UNL     1      64.355  61.633  54.134  0.00  0.00    +0.000 OA
ATOM     30  C   UNL     1      63.071  63.433  53.920  0.00  0.00    +0.000 C 
ATOM     31  O   UNL     1      63.806  63.306  54.273  0.00  0.00    +0.000 OA
ATOM     32  O   UNL     1      62.731  64.184  53.934  0.00  0.00    +0.000 OA
ENDROOT
TORSDOF 0
ENDMDL
