MODEL 1
REMARK VINA RESULT:   -12.503      0.000      0.000
REMARK INTER + INTRA:         -12.503
REMARK INTER:                 -12.503
REMARK INTRA:                   0.000
REMARK UNBOUND:                 0.000
ROOT
REMARK  Name = florantyrone
REMARK                            x       y       z     vdW  Elec       q    Type
REMARK                         _______ _______ _______ _____ _____    ______ ____
ATOM      1  O   UNL     1      61.069  64.778  71.251  0.00  0.00    +0.000 OA
ATOM      2  C   UNL     1      60.771  64.354  70.609  0.00  0.00    +0.000 C 
ATOM      3  O   UNL     1      59.990  64.090  70.614  0.00  0.00    +0.000 OA
ATOM      4  C   UNL     1      61.257  64.193  69.961  0.00  0.00    +0.000 C 
ATOM      5  C   UNL     1      60.960  63.769  69.318  0.00  0.00    +0.000 C 
ATOM      6  C   UNL     1      61.445  63.608  68.671  0.00  0.00    +0.000 C 
ATOM      7  O   UNL     1      62.227  63.872  68.665  0.00  0.00    +0.000 OA
ATOM      8  C   UNL     1      61.149  63.184  68.028  0.00  0.00    +0.000 A 
ATOM      9  C   UNL     1      61.634  63.024  67.380  0.00  0.00    +0.000 A 
ATOM     10  C   UNL     1      61.336  62.600  66.738  0.00  0.00    +0.000 A 
ATOM     11  C   UNL     1      60.554  62.336  66.744  0.00  0.00    +0.000 A 
ATOM     12  C   UNL     1      60.070  62.497  67.392  0.00  0.00    +0.000 A 
ATOM     13  C   UNL     1      60.367  62.921  68.034  0.00  0.00    +0.000 A 
ATOM     14  C   UNL     1      60.416  61.934  66.038  0.00  0.00    +0.000 A 
ATOM     15  C   UNL     1      59.746  61.555  65.739  0.00  0.00    +0.000 A 
ATOM     16  C   UNL     1      59.773  61.192  64.998  0.00  0.00    +0.000 A 
ATOM     17  C   UNL     1      60.470  61.207  64.557  0.00  0.00    +0.000 A 
ATOM     18  C   UNL     1      61.140  61.585  64.855  0.00  0.00    +0.000 A 
ATOM     19  C   UNL     1      61.113  61.949  65.595  0.00  0.00    +0.000 A 
ATOM     20  C   UNL     1      61.681  62.360  66.028  0.00  0.00    +0.000 A 
ATOM     21  C   UNL     1      62.439  62.464  65.721  0.00  0.00    +0.000 A 
ATOM     22  C   UNL     1      62.630  62.155  64.979  0.00  0.00    +0.000 A 
ATOM     23  C   UNL     1      62.061  61.744  64.546  0.00  0.00    +0.000 A 
ENDROOT
TORSDOF 0
ENDMDL
MODEL 2
REMARK VINA RESULT:   -12.442      0.975      2.015
REMARK INTER + INTRA:         -12.442
REMARK INTER:                 -12.442
REMARK INTRA:                   0.000
REMARK UNBOUND:                 0.000
ROOT
REMARK  Name = florantyrone
REMARK                            x       y       z     vdW  Elec       q    Type
REMARK                         _______ _______ _______ _____ _____    ______ ____
ATOM      1  O   UNL     1      60.236  63.469  70.568  0.00  0.00    +0.000 OA
ATOM      2  C   UNL     1      60.645  63.425  69.853  0.00  0.00    +0.000 C 
ATOM      3  O   UNL     1      61.342  63.853  69.748  0.00  0.00    +0.000 OA
ATOM      4  C   UNL     1      60.356  62.951  69.241  0.00  0.00    +0.000 C 
ATOM      5  C   UNL     1      60.765  62.907  68.526  0.00  0.00    +0.000 C 
ATOM      6  C   UNL     1      60.476  62.434  67.915  0.00  0.00    +0.000 C 
ATOM      7  O   UNL     1      59.779  62.005  68.019  0.00  0.00    +0.000 OA
ATOM      8  C   UNL     1      60.885  62.389  67.199  0.00  0.00    +0.000 A 
ATOM      9  C   UNL     1      60.596  61.916  66.588  0.00  0.00    +0.000 A 
ATOM     10  C   UNL     1      61.005  61.872  65.873  0.00  0.00    +0.000 A 
ATOM     11  C   UNL     1      61.702  62.301  65.770  0.00  0.00    +0.000 A 
ATOM     12  C   UNL     1      61.991  62.774  66.381  0.00  0.00    +0.000 A 
ATOM     13  C   UNL     1      61.582  62.818  67.096  0.00  0.00    +0.000 A 
ATOM     14  C   UNL     1      61.984  62.149  65.009  0.00  0.00    +0.000 A 
ATOM     15  C   UNL     1      62.649  62.419  64.602  0.00  0.00    +0.000 A 
ATOM     16  C   UNL     1      62.791  62.166  63.829  0.00  0.00    +0.000 A 
ATOM     17  C   UNL     1      62.267  61.644  63.464  0.00  0.00    +0.000 A 
ATOM     18  C   UNL     1      61.602  61.374  63.871  0.00  0.00    +0.000 A 
ATOM     19  C   UNL     1      61.460  61.626  64.643  0.00  0.00    +0.000 A 
ATOM     20  C   UNL     1      60.856  61.455  65.177  0.00  0.00    +0.000 A 
ATOM     21  C   UNL     1      60.247  60.942  64.961  0.00  0.00    +0.000 A 
ATOM     22  C   UNL     1      60.243  60.600  64.210  0.00  0.00    +0.000 A 
ATOM     23  C   UNL     1      60.848  60.771  63.676  0.00  0.00    +0.000 A 
ENDROOT
TORSDOF 0
ENDMDL
MODEL 3
REMARK VINA RESULT:   -12.394      2.038      4.758
REMARK INTER + INTRA:         -12.394
REMARK INTER:                 -12.394
REMARK INTRA:                   0.000
REMARK UNBOUND:                 0.000
ROOT
REMARK  Name = florantyrone
REMARK                            x       y       z     vdW  Elec       q    Type
REMARK                         _______ _______ _______ _____ _____    ______ ____
ATOM      1  O   UNL     1      62.334  61.524  63.889  0.00  0.00    +0.000 OA
ATOM      2  C   UNL     1      62.091  62.017  64.502  0.00  0.00    +0.000 C 
ATOM      3  O   UNL     1      62.016  62.829  64.377  0.00  0.00    +0.000 OA
ATOM      4  C   UNL     1      61.920  61.698  65.245  0.00  0.00    +0.000 C 
ATOM      5  C   UNL     1      61.677  62.192  65.860  0.00  0.00    +0.000 C 
ATOM      6  C   UNL     1      61.507  61.874  66.602  0.00  0.00    +0.000 C 
ATOM      7  O   UNL     1      61.581  61.061  66.729  0.00  0.00    +0.000 OA
ATOM      8  C   UNL     1      61.263  62.366  67.217  0.00  0.00    +0.000 A 
ATOM      9  C   UNL     1      61.094  62.048  67.959  0.00  0.00    +0.000 A 
ATOM     10  C   UNL     1      60.850  62.541  68.573  0.00  0.00    +0.000 A 
ATOM     11  C   UNL     1      60.776  63.353  68.445  0.00  0.00    +0.000 A 
ATOM     12  C   UNL     1      60.946  63.672  67.704  0.00  0.00    +0.000 A 
ATOM     13  C   UNL     1      61.190  63.178  67.089  0.00  0.00    +0.000 A 
ATOM     14  C   UNL     1      60.527  63.700  69.151  0.00  0.00    +0.000 A 
ATOM     15  C   UNL     1      60.362  64.483  69.354  0.00  0.00    +0.000 A 
ATOM     16  C   UNL     1      60.117  64.668  70.120  0.00  0.00    +0.000 A 
ATOM     17  C   UNL     1      60.036  64.069  70.683  0.00  0.00    +0.000 A 
ATOM     18  C   UNL     1      60.201  63.287  70.480  0.00  0.00    +0.000 A 
ATOM     19  C   UNL     1      60.446  63.102  69.714  0.00  0.00    +0.000 A 
ATOM     20  C   UNL     1      60.646  62.386  69.357  0.00  0.00    +0.000 A 
ATOM     21  C   UNL     1      60.616  61.686  69.791  0.00  0.00    +0.000 A 
ATOM     22  C   UNL     1      60.387  61.701  70.584  0.00  0.00    +0.000 A 
ATOM     23  C   UNL     1      60.187  62.417  70.941  0.00  0.00    +0.000 A 
ENDROOT
TORSDOF 0
ENDMDL
MODEL 4
REMARK VINA RESULT:   -12.247      2.251      5.413
REMARK INTER + INTRA:         -12.247
REMARK INTER:                 -12.247
REMARK INTRA:                   0.000
REMARK UNBOUND:                 0.000
ROOT
REMARK  Name = florantyrone
REMARK                            x       y       z     vdW  Elec       q    Type
REMARK                         _______ _______ _______ _____ _____    ______ ____
ATOM      1  O   UNL     1      59.326  62.404  65.799  0.00  0.00    +0.000 OA
ATOM      2  C   UNL     1      59.636  62.159  66.522  0.00  0.00    +0.000 C 
ATOM      3  O   UNL     1      59.881  61.377  66.624  0.00  0.00    +0.000 OA
ATOM      4  C   UNL     1      59.703  62.696  67.147  0.00  0.00    +0.000 C 
ATOM      5  C   UNL     1      60.013  62.450  67.870  0.00  0.00    +0.000 C 
ATOM      6  C   UNL     1      60.080  62.986  68.494  0.00  0.00    +0.000 C 
ATOM      7  O   UNL     1      59.835  63.768  68.393  0.00  0.00    +0.000 OA
ATOM      8  C   UNL     1      60.390  62.741  69.218  0.00  0.00    +0.000 A 
ATOM      9  C   UNL     1      60.456  63.277  69.841  0.00  0.00    +0.000 A 
ATOM     10  C   UNL     1      60.767  63.032  70.565  0.00  0.00    +0.000 A 
ATOM     11  C   UNL     1      61.011  62.250  70.664  0.00  0.00    +0.000 A 
ATOM     12  C   UNL     1      60.945  61.714  70.041  0.00  0.00    +0.000 A 
ATOM     13  C   UNL     1      60.634  61.959  69.317  0.00  0.00    +0.000 A 
ATOM     14  C   UNL     1      61.294  62.168  71.435  0.00  0.00    +0.000 A 
ATOM     15  C   UNL     1      61.605  61.522  71.844  0.00  0.00    +0.000 A 
ATOM     16  C   UNL     1      61.847  61.608  72.629  0.00  0.00    +0.000 A 
ATOM     17  C   UNL     1      61.777  62.340  73.004  0.00  0.00    +0.000 A 
ATOM     18  C   UNL     1      61.466  62.985  72.596  0.00  0.00    +0.000 A 
ATOM     19  C   UNL     1      61.224  62.899  71.811  0.00  0.00    +0.000 A 
ATOM     20  C   UNL     1      60.898  63.433  71.273  0.00  0.00    +0.000 A 
ATOM     21  C   UNL     1      60.764  64.215  71.498  0.00  0.00    +0.000 A 
ATOM     22  C   UNL     1      60.955  64.464  72.261  0.00  0.00    +0.000 A 
ATOM     23  C   UNL     1      61.280  63.930  72.799  0.00  0.00    +0.000 A 
ENDROOT
TORSDOF 0
ENDMDL
MODEL 5
REMARK VINA RESULT:   -11.817      4.770      6.366
REMARK INTER + INTRA:         -11.817
REMARK INTER:                 -11.817
REMARK INTRA:                   0.000
REMARK UNBOUND:                 0.000
ROOT
REMARK  Name = florantyrone
REMARK                            x       y       z     vdW  Elec       q    Type
REMARK                         _______ _______ _______ _____ _____    ______ ____
ATOM      1  O   UNL     1      66.690  67.627  69.848  0.00  0.00    +0.000 OA
ATOM      2  C   UNL     1      66.021  67.465  70.301  0.00  0.00    +0.000 C 
ATOM      3  O   UNL     1      65.751  68.016  70.853  0.00  0.00    +0.000 OA
ATOM      4  C   UNL     1      65.619  66.750  70.203  0.00  0.00    +0.000 C 
ATOM      5  C   UNL     1      64.949  66.587  70.656  0.00  0.00    +0.000 C 
ATOM      6  C   UNL     1      64.548  65.873  70.558  0.00  0.00    +0.000 C 
ATOM      7  O   UNL     1      64.817  65.322  70.006  0.00  0.00    +0.000 OA
ATOM      8  C   UNL     1      63.878  65.710  71.010  0.00  0.00    +0.000 A 
ATOM      9  C   UNL     1      63.477  64.996  70.912  0.00  0.00    +0.000 A 
ATOM     10  C   UNL     1      62.807  64.834  71.365  0.00  0.00    +0.000 A 
ATOM     11  C   UNL     1      62.539  65.386  71.917  0.00  0.00    +0.000 A 
ATOM     12  C   UNL     1      62.940  66.100  72.016  0.00  0.00    +0.000 A 
ATOM     13  C   UNL     1      63.610  66.262  71.562  0.00  0.00    +0.000 A 
ATOM     14  C   UNL     1      61.868  65.074  72.282  0.00  0.00    +0.000 A 
ATOM     15  C   UNL     1      61.370  65.372  72.870  0.00  0.00    +0.000 A 
ATOM     16  C   UNL     1      60.727  64.925  73.131  0.00  0.00    +0.000 A 
ATOM     17  C   UNL     1      60.582  64.182  72.805  0.00  0.00    +0.000 A 
ATOM     18  C   UNL     1      61.079  63.884  72.217  0.00  0.00    +0.000 A 
ATOM     19  C   UNL     1      61.722  64.331  71.956  0.00  0.00    +0.000 A 
ATOM     20  C   UNL     1      62.302  64.182  71.390  0.00  0.00    +0.000 A 
ATOM     21  C   UNL     1      62.296  63.473  70.969  0.00  0.00    +0.000 A 
ATOM     22  C   UNL     1      61.709  62.911  71.115  0.00  0.00    +0.000 A 
ATOM     23  C   UNL     1      61.129  63.060  71.681  0.00  0.00    +0.000 A 
ENDROOT
TORSDOF 0
ENDMDL
MODEL 6
REMARK VINA RESULT:   -11.555      4.152      6.224
REMARK INTER + INTRA:         -11.555
REMARK INTER:                 -11.555
REMARK INTRA:                   0.000
REMARK UNBOUND:                 0.000
ROOT
REMARK  Name = florantyrone
REMARK                            x       y       z     vdW  Elec       q    Type
REMARK                         _______ _______ _______ _____ _____    ______ ____
ATOM      1  O   UNL     1      60.124  61.550  70.966  0.00  0.00    +0.000 OA
ATOM      2  C   UNL     1      60.746  62.022  70.702  0.00  0.00    +0.000 C 
ATOM      3  O   UNL     1      61.141  61.834  70.003  0.00  0.00    +0.000 OA
ATOM      4  C   UNL     1      60.974  62.687  71.137  0.00  0.00    +0.000 C 
ATOM      5  C   UNL     1      61.596  63.160  70.873  0.00  0.00    +0.000 C 
ATOM      6  C   UNL     1      61.823  63.823  71.308  0.00  0.00    +0.000 C 
ATOM      7  O   UNL     1      61.428  64.013  72.007  0.00  0.00    +0.000 OA
ATOM      8  C   UNL     1      62.445  64.296  71.044  0.00  0.00    +0.000 A 
ATOM      9  C   UNL     1      62.672  64.959  71.479  0.00  0.00    +0.000 A 
ATOM     10  C   UNL     1      63.294  65.433  71.215  0.00  0.00    +0.000 A 
ATOM     11  C   UNL     1      63.689  65.242  70.515  0.00  0.00    +0.000 A 
ATOM     12  C   UNL     1      63.461  64.579  70.080  0.00  0.00    +0.000 A 
ATOM     13  C   UNL     1      62.839  64.106  70.345  0.00  0.00    +0.000 A 
ATOM     14  C   UNL     1      64.277  65.807  70.393  0.00  0.00    +0.000 A 
ATOM     15  C   UNL     1      64.838  65.901  69.795  0.00  0.00    +0.000 A 
ATOM     16  C   UNL     1      65.366  66.534  69.820  0.00  0.00    +0.000 A 
ATOM     17  C   UNL     1      65.334  67.073  70.444  0.00  0.00    +0.000 A 
ATOM     18  C   UNL     1      64.774  66.980  71.042  0.00  0.00    +0.000 A 
ATOM     19  C   UNL     1      64.246  66.347  71.017  0.00  0.00    +0.000 A 
ATOM     20  C   UNL     1      63.638  66.115  71.525  0.00  0.00    +0.000 A 
ATOM     21  C   UNL     1      63.477  66.555  72.203  0.00  0.00    +0.000 A 
ATOM     22  C   UNL     1      63.923  67.228  72.375  0.00  0.00    +0.000 A 
ATOM     23  C   UNL     1      64.531  67.459  71.867  0.00  0.00    +0.000 A 
ENDROOT
TORSDOF 0
ENDMDL
MODEL 7
REMARK VINA RESULT:   -11.470      2.679      4.447
REMARK INTER + INTRA:         -11.470
REMARK INTER:                 -11.470
REMARK INTRA:                   0.000
REMARK UNBOUND:                 0.000
ROOT
REMARK  Name = florantyrone
REMARK                            x       y       z     vdW  Elec       q    Type
REMARK                         _______ _______ _______ _____ _____    ______ ____
ATOM      1  O   UNL     1      65.218  67.368  71.075  0.00  0.00    +0.000 OA
ATOM      2  C   UNL     1      64.721  66.737  71.260  0.00  0.00    +0.000 C 
ATOM      3  O   UNL     1      64.648  66.484  72.042  0.00  0.00    +0.000 OA
ATOM      4  C   UNL     1      64.295  66.357  70.663  0.00  0.00    +0.000 C 
ATOM      5  C   UNL     1      63.798  65.726  70.849  0.00  0.00    +0.000 C 
ATOM      6  C   UNL     1      63.373  65.347  70.252  0.00  0.00    +0.000 C 
ATOM      7  O   UNL     1      63.445  65.599  69.469  0.00  0.00    +0.000 OA
ATOM      8  C   UNL     1      62.875  64.715  70.437  0.00  0.00    +0.000 A 
ATOM      9  C   UNL     1      62.450  64.336  69.840  0.00  0.00    +0.000 A 
ATOM     10  C   UNL     1      61.953  63.705  70.026  0.00  0.00    +0.000 A 
ATOM     11  C   UNL     1      61.881  63.453  70.809  0.00  0.00    +0.000 A 
ATOM     12  C   UNL     1      62.306  63.832  71.405  0.00  0.00    +0.000 A 
ATOM     13  C   UNL     1      62.804  64.464  71.219  0.00  0.00    +0.000 A 
ATOM     14  C   UNL     1      61.352  62.820  70.824  0.00  0.00    +0.000 A 
ATOM     15  C   UNL     1      61.069  62.352  71.442  0.00  0.00    +0.000 A 
ATOM     16  C   UNL     1      60.531  61.745  71.287  0.00  0.00    +0.000 A 
ATOM     17  C   UNL     1      60.277  61.607  70.515  0.00  0.00    +0.000 A 
ATOM     18  C   UNL     1      60.560  62.075  69.897  0.00  0.00    +0.000 A 
ATOM     19  C   UNL     1      61.097  62.681  70.052  0.00  0.00    +0.000 A 
ATOM     20  C   UNL     1      61.469  63.228  69.558  0.00  0.00    +0.000 A 
ATOM     21  C   UNL     1      61.318  63.222  68.748  0.00  0.00    +0.000 A 
ATOM     22  C   UNL     1      60.796  62.667  68.429  0.00  0.00    +0.000 A 
ATOM     23  C   UNL     1      60.424  62.121  68.923  0.00  0.00    +0.000 A 
ENDROOT
TORSDOF 0
ENDMDL
MODEL 8
REMARK VINA RESULT:   -11.025     24.445     25.697
REMARK INTER + INTRA:         -11.025
REMARK INTER:                 -11.025
REMARK INTRA:                   0.000
REMARK UNBOUND:                 0.000
ROOT
REMARK  Name = florantyrone
REMARK                            x       y       z     vdW  Elec       q    Type
REMARK                         _______ _______ _______ _____ _____    ______ ____
ATOM      1  O   UNL     1      66.518  81.469  53.100  0.00  0.00    +0.000 OA
ATOM      2  C   UNL     1      67.291  81.443  52.815  0.00  0.00    +0.000 C 
ATOM      3  O   UNL     1      67.855  81.973  53.098  0.00  0.00    +0.000 OA
ATOM      4  C   UNL     1      67.501  80.884  52.244  0.00  0.00    +0.000 C 
ATOM      5  C   UNL     1      68.275  80.857  51.958  0.00  0.00    +0.000 C 
ATOM      6  C   UNL     1      68.484  80.299  51.388  0.00  0.00    +0.000 C 
ATOM      7  O   UNL     1      67.921  79.768  51.104  0.00  0.00    +0.000 OA
ATOM      8  C   UNL     1      69.258  80.271  51.102  0.00  0.00    +0.000 A 
ATOM      9  C   UNL     1      69.468  79.713  50.532  0.00  0.00    +0.000 A 
ATOM     10  C   UNL     1      70.241  79.686  50.247  0.00  0.00    +0.000 A 
ATOM     11  C   UNL     1      70.804  80.218  50.532  0.00  0.00    +0.000 A 
ATOM     12  C   UNL     1      70.594  80.776  51.102  0.00  0.00    +0.000 A 
ATOM     13  C   UNL     1      69.821  80.803  51.387  0.00  0.00    +0.000 A 
ATOM     14  C   UNL     1      71.518  80.061  50.150  0.00  0.00    +0.000 A 
ATOM     15  C   UNL     1      72.265  80.408  50.208  0.00  0.00    +0.000 A 
ATOM     16  C   UNL     1      72.888  80.127  49.746  0.00  0.00    +0.000 A 
ATOM     17  C   UNL     1      72.765  79.499  49.226  0.00  0.00    +0.000 A 
ATOM     18  C   UNL     1      72.019  79.151  49.167  0.00  0.00    +0.000 A 
ATOM     19  C   UNL     1      71.396  79.432  49.629  0.00  0.00    +0.000 A 
ATOM     20  C   UNL     1      70.607  79.201  49.689  0.00  0.00    +0.000 A 
ATOM     21  C   UNL     1      70.323  78.579  49.229  0.00  0.00    +0.000 A 
ATOM     22  C   UNL     1      70.828  78.187  48.707  0.00  0.00    +0.000 A 
ATOM     23  C   UNL     1      71.618  78.418  48.647  0.00  0.00    +0.000 A 
ENDROOT
TORSDOF 0
ENDMDL
