MODEL 1
REMARK VINA RESULT:   -12.994      0.000      0.000
REMARK INTER + INTRA:         -12.994
REMARK INTER:                 -12.994
REMARK INTRA:                   0.000
REMARK UNBOUND:                 0.000
ROOT
REMARK  Name = fluacizine
REMARK                            x       y       z     vdW  Elec       q    Type
REMARK                         _______ _______ _______ _____ _____    ______ ____
ATOM      1  C   UNL     1      64.880  66.495  69.979  0.00  0.00    +0.000 C 
ATOM      2  C   UNL     1      64.382  65.953  69.606  0.00  0.00    +0.000 C 
ATOM      3  N   UNL     1      63.849  65.510  70.052  0.00  0.00    +0.000 NA
ATOM      4  C   UNL     1      63.812  65.609  70.870  0.00  0.00    +0.000 C 
ATOM      5  C   UNL     1      64.309  66.151  71.243  0.00  0.00    +0.000 C 
ATOM      6  C   UNL     1      63.351  64.968  69.679  0.00  0.00    +0.000 C 
ATOM      7  C   UNL     1      62.816  64.524  70.126  0.00  0.00    +0.000 C 
ATOM      8  C   UNL     1      62.319  63.981  69.753  0.00  0.00    +0.000 C 
ATOM      9  O   UNL     1      62.356  63.883  68.935  0.00  0.00    +0.000 OA
ATOM     10  N   UNL     1      61.785  63.538  70.199  0.00  0.00    +0.000 N 
ATOM     11  C   UNL     1      61.749  63.637  71.016  0.00  0.00    +0.000 A 
ATOM     12  C   UNL     1      62.246  64.180  71.389  0.00  0.00    +0.000 A 
ATOM     13  C   UNL     1      62.210  64.279  72.208  0.00  0.00    +0.000 A 
ATOM     14  C   UNL     1      61.676  63.835  72.653  0.00  0.00    +0.000 A 
ATOM     15  C   UNL     1      61.178  63.293  72.281  0.00  0.00    +0.000 A 
ATOM     16  C   UNL     1      61.215  63.194  71.463  0.00  0.00    +0.000 A 
ATOM     17  S   UNL     1      60.717  62.652  71.091  0.00  0.00    +0.000 S 
ATOM     18  C   UNL     1      60.753  62.552  70.272  0.00  0.00    +0.000 A 
ATOM     19  C   UNL     1      61.287  62.996  69.827  0.00  0.00    +0.000 A 
ATOM     20  C   UNL     1      61.323  62.896  69.009  0.00  0.00    +0.000 A 
ATOM     21  C   UNL     1      60.826  62.354  68.636  0.00  0.00    +0.000 A 
ATOM     22  C   UNL     1      60.292  61.911  69.082  0.00  0.00    +0.000 A 
ATOM     23  C   UNL     1      60.256  62.010  69.899  0.00  0.00    +0.000 A 
ATOM     24  C   UNL     1      60.863  62.255  67.818  0.00  0.00    +0.000 C 
ATOM     25  F   UNL     1      60.899  62.156  67.000  0.00  0.00    +0.000 F 
ATOM     26  F   UNL     1      60.267  61.686  67.859  0.00  0.00    +0.000 F 
ATOM     27  F   UNL     1      61.458  62.824  67.775  0.00  0.00    +0.000 F 
ENDROOT
TORSDOF 0
ENDMDL
MODEL 2
REMARK VINA RESULT:   -12.904      2.696      4.067
REMARK INTER + INTRA:         -12.904
REMARK INTER:                 -12.904
REMARK INTRA:                   0.000
REMARK UNBOUND:                 0.000
ROOT
REMARK  Name = fluacizine
REMARK                            x       y       z     vdW  Elec       q    Type
REMARK                         _______ _______ _______ _____ _____    ______ ____
ATOM      1  C   UNL     1      60.021  62.002  66.530  0.00  0.00    +0.000 C 
ATOM      2  C   UNL     1      60.310  61.794  67.275  0.00  0.00    +0.000 C 
ATOM      3  N   UNL     1      60.275  62.335  67.896  0.00  0.00    +0.000 NA
ATOM      4  C   UNL     1      59.952  63.084  67.774  0.00  0.00    +0.000 C 
ATOM      5  C   UNL     1      59.664  63.292  67.030  0.00  0.00    +0.000 C 
ATOM      6  C   UNL     1      60.563  62.126  68.641  0.00  0.00    +0.000 C 
ATOM      7  C   UNL     1      60.528  62.667  69.263  0.00  0.00    +0.000 C 
ATOM      8  C   UNL     1      60.817  62.459  70.008  0.00  0.00    +0.000 C 
ATOM      9  O   UNL     1      61.140  61.709  70.129  0.00  0.00    +0.000 OA
ATOM     10  N   UNL     1      60.782  63.000  70.629  0.00  0.00    +0.000 N 
ATOM     11  C   UNL     1      60.459  63.748  70.507  0.00  0.00    +0.000 A 
ATOM     12  C   UNL     1      60.171  63.957  69.763  0.00  0.00    +0.000 A 
ATOM     13  C   UNL     1      59.848  64.706  69.640  0.00  0.00    +0.000 A 
ATOM     14  C   UNL     1      59.813  65.247  70.262  0.00  0.00    +0.000 A 
ATOM     15  C   UNL     1      60.102  65.038  71.007  0.00  0.00    +0.000 A 
ATOM     16  C   UNL     1      60.424  64.290  71.129  0.00  0.00    +0.000 A 
ATOM     17  S   UNL     1      60.712  64.081  71.873  0.00  0.00    +0.000 S 
ATOM     18  C   UNL     1      61.036  63.332  71.996  0.00  0.00    +0.000 A 
ATOM     19  C   UNL     1      61.070  62.791  71.373  0.00  0.00    +0.000 A 
ATOM     20  C   UNL     1      61.393  62.042  71.496  0.00  0.00    +0.000 A 
ATOM     21  C   UNL     1      61.681  61.834  72.241  0.00  0.00    +0.000 A 
ATOM     22  C   UNL     1      61.647  62.375  72.862  0.00  0.00    +0.000 A 
ATOM     23  C   UNL     1      61.324  63.123  72.740  0.00  0.00    +0.000 A 
ATOM     24  C   UNL     1      62.004  61.084  72.363  0.00  0.00    +0.000 C 
ATOM     25  F   UNL     1      62.327  60.335  72.486  0.00  0.00    +0.000 F 
ATOM     26  F   UNL     1      62.151  61.276  73.152  0.00  0.00    +0.000 F 
ATOM     27  F   UNL     1      61.858  60.893  71.574  0.00  0.00    +0.000 F 
ENDROOT
TORSDOF 0
ENDMDL
MODEL 3
REMARK VINA RESULT:   -12.828      2.259      2.524
REMARK INTER + INTRA:         -12.828
REMARK INTER:                 -12.828
REMARK INTRA:                   0.000
REMARK UNBOUND:                 0.000
ROOT
REMARK  Name = fluacizine
REMARK                            x       y       z     vdW  Elec       q    Type
REMARK                         _______ _______ _______ _____ _____    ______ ____
ATOM      1  C   UNL     1      59.375  67.635  71.578  0.00  0.00    +0.000 C 
ATOM      2  C   UNL     1      59.411  67.047  71.000  0.00  0.00    +0.000 C 
ATOM      3  N   UNL     1      59.728  66.308  71.183  0.00  0.00    +0.000 NA
ATOM      4  C   UNL     1      60.009  66.156  71.944  0.00  0.00    +0.000 C 
ATOM      5  C   UNL     1      59.972  66.743  72.522  0.00  0.00    +0.000 C 
ATOM      6  C   UNL     1      59.764  65.721  70.605  0.00  0.00    +0.000 C 
ATOM      7  C   UNL     1      60.082  64.981  70.788  0.00  0.00    +0.000 C 
ATOM      8  C   UNL     1      60.118  64.393  70.210  0.00  0.00    +0.000 C 
ATOM      9  O   UNL     1      59.837  64.546  69.449  0.00  0.00    +0.000 OA
ATOM     10  N   UNL     1      60.435  63.654  70.392  0.00  0.00    +0.000 N 
ATOM     11  C   UNL     1      60.715  63.502  71.153  0.00  0.00    +0.000 A 
ATOM     12  C   UNL     1      60.679  64.090  71.731  0.00  0.00    +0.000 A 
ATOM     13  C   UNL     1      60.960  63.938  72.492  0.00  0.00    +0.000 A 
ATOM     14  C   UNL     1      61.276  63.198  72.674  0.00  0.00    +0.000 A 
ATOM     15  C   UNL     1      61.313  62.611  72.096  0.00  0.00    +0.000 A 
ATOM     16  C   UNL     1      61.032  62.763  71.336  0.00  0.00    +0.000 A 
ATOM     17  S   UNL     1      61.069  62.175  70.758  0.00  0.00    +0.000 S 
ATOM     18  C   UNL     1      60.788  62.327  69.996  0.00  0.00    +0.000 A 
ATOM     19  C   UNL     1      60.471  63.067  69.814  0.00  0.00    +0.000 A 
ATOM     20  C   UNL     1      60.191  63.218  69.053  0.00  0.00    +0.000 A 
ATOM     21  C   UNL     1      60.227  62.631  68.475  0.00  0.00    +0.000 A 
ATOM     22  C   UNL     1      60.544  61.892  68.658  0.00  0.00    +0.000 A 
ATOM     23  C   UNL     1      60.824  61.740  69.418  0.00  0.00    +0.000 A 
ATOM     24  C   UNL     1      59.946  62.783  67.715  0.00  0.00    +0.000 C 
ATOM     25  F   UNL     1      59.666  62.935  66.954  0.00  0.00    +0.000 F 
ATOM     26  F   UNL     1      60.150  62.017  67.486  0.00  0.00    +0.000 F 
ATOM     27  F   UNL     1      59.743  63.549  67.943  0.00  0.00    +0.000 F 
ENDROOT
TORSDOF 0
ENDMDL
MODEL 4
REMARK VINA RESULT:   -12.547      2.010      4.107
REMARK INTER + INTRA:         -12.547
REMARK INTER:                 -12.547
REMARK INTRA:                   0.000
REMARK UNBOUND:                 0.000
ROOT
REMARK  Name = fluacizine
REMARK                            x       y       z     vdW  Elec       q    Type
REMARK                         _______ _______ _______ _____ _____    ______ ____
ATOM      1  C   UNL     1      60.726  62.161  67.363  0.00  0.00    +0.000 C 
ATOM      2  C   UNL     1      61.245  62.753  67.610  0.00  0.00    +0.000 C 
ATOM      3  N   UNL     1      61.284  62.960  68.407  0.00  0.00    +0.000 NA
ATOM      4  C   UNL     1      60.805  62.576  68.958  0.00  0.00    +0.000 C 
ATOM      5  C   UNL     1      60.286  61.984  68.711  0.00  0.00    +0.000 C 
ATOM      6  C   UNL     1      61.803  63.552  68.655  0.00  0.00    +0.000 C 
ATOM      7  C   UNL     1      61.843  63.759  69.453  0.00  0.00    +0.000 C 
ATOM      8  C   UNL     1      62.362  64.351  69.700  0.00  0.00    +0.000 C 
ATOM      9  O   UNL     1      62.841  64.735  69.149  0.00  0.00    +0.000 OA
ATOM     10  N   UNL     1      62.401  64.558  70.497  0.00  0.00    +0.000 N 
ATOM     11  C   UNL     1      61.921  64.174  71.047  0.00  0.00    +0.000 A 
ATOM     12  C   UNL     1      61.403  63.582  70.800  0.00  0.00    +0.000 A 
ATOM     13  C   UNL     1      60.922  63.198  71.350  0.00  0.00    +0.000 A 
ATOM     14  C   UNL     1      60.962  63.405  72.148  0.00  0.00    +0.000 A 
ATOM     15  C   UNL     1      61.481  63.997  72.395  0.00  0.00    +0.000 A 
ATOM     16  C   UNL     1      61.960  64.381  71.845  0.00  0.00    +0.000 A 
ATOM     17  S   UNL     1      62.479  64.973  72.092  0.00  0.00    +0.000 S 
ATOM     18  C   UNL     1      62.959  65.358  71.542  0.00  0.00    +0.000 A 
ATOM     19  C   UNL     1      62.920  65.150  70.745  0.00  0.00    +0.000 A 
ATOM     20  C   UNL     1      63.400  65.535  70.195  0.00  0.00    +0.000 A 
ATOM     21  C   UNL     1      63.918  66.126  70.442  0.00  0.00    +0.000 A 
ATOM     22  C   UNL     1      63.958  66.333  71.239  0.00  0.00    +0.000 A 
ATOM     23  C   UNL     1      63.478  65.949  71.789  0.00  0.00    +0.000 A 
ATOM     24  C   UNL     1      64.398  66.510  69.891  0.00  0.00    +0.000 C 
ATOM     25  F   UNL     1      64.878  66.895  69.342  0.00  0.00    +0.000 F 
ATOM     26  F   UNL     1      64.721  66.972  70.494  0.00  0.00    +0.000 F 
ATOM     27  F   UNL     1      64.076  66.049  69.289  0.00  0.00    +0.000 F 
ENDROOT
TORSDOF 0
ENDMDL
MODEL 5
REMARK VINA RESULT:   -12.454      2.947      4.056
REMARK INTER + INTRA:         -12.454
REMARK INTER:                 -12.454
REMARK INTRA:                   0.000
REMARK UNBOUND:                 0.000
ROOT
REMARK  Name = fluacizine
REMARK                            x       y       z     vdW  Elec       q    Type
REMARK                         _______ _______ _______ _____ _____    ______ ____
ATOM      1  C   UNL     1      61.142  62.524  66.006  0.00  0.00    +0.000 C 
ATOM      2  C   UNL     1      60.905  63.130  66.513  0.00  0.00    +0.000 C 
ATOM      3  N   UNL     1      60.823  62.984  67.320  0.00  0.00    +0.000 NA
ATOM      4  C   UNL     1      60.978  62.231  67.621  0.00  0.00    +0.000 C 
ATOM      5  C   UNL     1      61.214  61.625  67.114  0.00  0.00    +0.000 C 
ATOM      6  C   UNL     1      60.587  63.590  67.827  0.00  0.00    +0.000 C 
ATOM      7  C   UNL     1      60.504  63.444  68.635  0.00  0.00    +0.000 C 
ATOM      8  C   UNL     1      60.268  64.050  69.143  0.00  0.00    +0.000 C 
ATOM      9  O   UNL     1      60.113  64.802  68.841  0.00  0.00    +0.000 OA
ATOM     10  N   UNL     1      60.186  63.903  69.950  0.00  0.00    +0.000 N 
ATOM     11  C   UNL     1      60.340  63.151  70.250  0.00  0.00    +0.000 A 
ATOM     12  C   UNL     1      60.577  62.545  69.743  0.00  0.00    +0.000 A 
ATOM     13  C   UNL     1      60.732  61.792  70.044  0.00  0.00    +0.000 A 
ATOM     14  C   UNL     1      60.649  61.646  70.851  0.00  0.00    +0.000 A 
ATOM     15  C   UNL     1      60.413  62.252  71.358  0.00  0.00    +0.000 A 
ATOM     16  C   UNL     1      60.258  63.004  71.058  0.00  0.00    +0.000 A 
ATOM     17  S   UNL     1      60.022  63.610  71.565  0.00  0.00    +0.000 S 
ATOM     18  C   UNL     1      59.867  64.364  71.264  0.00  0.00    +0.000 A 
ATOM     19  C   UNL     1      59.949  64.509  70.457  0.00  0.00    +0.000 A 
ATOM     20  C   UNL     1      59.794  65.262  70.157  0.00  0.00    +0.000 A 
ATOM     21  C   UNL     1      59.558  65.868  70.664  0.00  0.00    +0.000 A 
ATOM     22  C   UNL     1      59.476  65.722  71.471  0.00  0.00    +0.000 A 
ATOM     23  C   UNL     1      59.630  64.970  71.772  0.00  0.00    +0.000 A 
ATOM     24  C   UNL     1      59.403  66.621  70.363  0.00  0.00    +0.000 C 
ATOM     25  F   UNL     1      59.249  67.373  70.063  0.00  0.00    +0.000 F 
ATOM     26  F   UNL     1      59.219  66.887  71.122  0.00  0.00    +0.000 F 
ATOM     27  F   UNL     1      59.587  66.355  69.604  0.00  0.00    +0.000 F 
ENDROOT
TORSDOF 0
ENDMDL
MODEL 6
REMARK VINA RESULT:   -12.173      1.956      2.578
REMARK INTER + INTRA:         -12.173
REMARK INTER:                 -12.173
REMARK INTRA:                   0.000
REMARK UNBOUND:                 0.000
ROOT
REMARK  Name = fluacizine
REMARK                            x       y       z     vdW  Elec       q    Type
REMARK                         _______ _______ _______ _____ _____    ______ ____
ATOM      1  C   UNL     1      65.573  66.500  71.078  0.00  0.00    +0.000 C 
ATOM      2  C   UNL     1      65.013  65.897  71.021  0.00  0.00    +0.000 C 
ATOM      3  N   UNL     1      64.264  65.998  71.352  0.00  0.00    +0.000 NA
ATOM      4  C   UNL     1      64.075  66.701  71.740  0.00  0.00    +0.000 C 
ATOM      5  C   UNL     1      64.636  67.304  71.797  0.00  0.00    +0.000 C 
ATOM      6  C   UNL     1      63.704  65.395  71.294  0.00  0.00    +0.000 C 
ATOM      7  C   UNL     1      62.954  65.496  71.626  0.00  0.00    +0.000 C 
ATOM      8  C   UNL     1      62.394  64.893  71.569  0.00  0.00    +0.000 C 
ATOM      9  O   UNL     1      62.583  64.190  71.180  0.00  0.00    +0.000 OA
ATOM     10  N   UNL     1      61.645  64.994  71.900  0.00  0.00    +0.000 N 
ATOM     11  C   UNL     1      61.457  65.696  72.287  0.00  0.00    +0.000 A 
ATOM     12  C   UNL     1      62.017  66.299  72.345  0.00  0.00    +0.000 A 
ATOM     13  C   UNL     1      61.829  67.003  72.733  0.00  0.00    +0.000 A 
ATOM     14  C   UNL     1      61.080  67.103  73.064  0.00  0.00    +0.000 A 
ATOM     15  C   UNL     1      60.519  66.500  73.007  0.00  0.00    +0.000 A 
ATOM     16  C   UNL     1      60.708  65.798  72.619  0.00  0.00    +0.000 A 
ATOM     17  S   UNL     1      60.147  65.195  72.562  0.00  0.00    +0.000 S 
ATOM     18  C   UNL     1      60.336  64.491  72.173  0.00  0.00    +0.000 A 
ATOM     19  C   UNL     1      61.085  64.391  71.842  0.00  0.00    +0.000 A 
ATOM     20  C   UNL     1      61.272  63.688  71.454  0.00  0.00    +0.000 A 
ATOM     21  C   UNL     1      60.712  63.085  71.397  0.00  0.00    +0.000 A 
ATOM     22  C   UNL     1      59.964  63.186  71.728  0.00  0.00    +0.000 A 
ATOM     23  C   UNL     1      59.775  63.889  72.116  0.00  0.00    +0.000 A 
ATOM     24  C   UNL     1      60.901  62.382  71.009  0.00  0.00    +0.000 C 
ATOM     25  F   UNL     1      61.089  61.679  70.621  0.00  0.00    +0.000 F 
ATOM     26  F   UNL     1      60.145  62.092  71.167  0.00  0.00    +0.000 F 
ATOM     27  F   UNL     1      61.656  62.672  70.851  0.00  0.00    +0.000 F 
ENDROOT
TORSDOF 0
ENDMDL
MODEL 7
REMARK VINA RESULT:   -10.824     14.534     16.366
REMARK INTER + INTRA:         -10.824
REMARK INTER:                 -10.824
REMARK INTRA:                   0.000
REMARK UNBOUND:                 0.000
ROOT
REMARK  Name = fluacizine
REMARK                            x       y       z     vdW  Elec       q    Type
REMARK                         _______ _______ _______ _____ _____    ______ ____
ATOM      1  C   UNL     1      62.007  63.288  53.977  0.00  0.00    +0.000 C 
ATOM      2  C   UNL     1      62.134  63.946  54.458  0.00  0.00    +0.000 C 
ATOM      3  N   UNL     1      62.010  64.705  54.159  0.00  0.00    +0.000 NA
ATOM      4  C   UNL     1      61.760  64.806  53.380  0.00  0.00    +0.000 C 
ATOM      5  C   UNL     1      61.633  64.148  52.899  0.00  0.00    +0.000 C 
ATOM      6  C   UNL     1      62.137  65.363  54.640  0.00  0.00    +0.000 C 
ATOM      7  C   UNL     1      62.013  66.123  54.341  0.00  0.00    +0.000 C 
ATOM      8  C   UNL     1      62.140  66.781  54.822  0.00  0.00    +0.000 C 
ATOM      9  O   UNL     1      62.390  66.680  55.602  0.00  0.00    +0.000 OA
ATOM     10  N   UNL     1      62.016  67.539  54.523  0.00  0.00    +0.000 N 
ATOM     11  C   UNL     1      61.766  67.640  53.744  0.00  0.00    +0.000 A 
ATOM     12  C   UNL     1      61.639  66.982  53.263  0.00  0.00    +0.000 A 
ATOM     13  C   UNL     1      61.389  67.082  52.483  0.00  0.00    +0.000 A 
ATOM     14  C   UNL     1      61.265  67.842  52.185  0.00  0.00    +0.000 A 
ATOM     15  C   UNL     1      61.392  68.500  52.666  0.00  0.00    +0.000 A 
ATOM     16  C   UNL     1      61.642  68.399  53.445  0.00  0.00    +0.000 A 
ATOM     17  S   UNL     1      61.769  69.057  53.926  0.00  0.00    +0.000 S 
ATOM     18  C   UNL     1      62.020  68.957  54.706  0.00  0.00    +0.000 A 
ATOM     19  C   UNL     1      62.143  68.198  55.004  0.00  0.00    +0.000 A 
ATOM     20  C   UNL     1      62.394  68.098  55.784  0.00  0.00    +0.000 A 
ATOM     21  C   UNL     1      62.520  68.756  56.264  0.00  0.00    +0.000 A 
ATOM     22  C   UNL     1      62.397  69.514  55.966  0.00  0.00    +0.000 A 
ATOM     23  C   UNL     1      62.147  69.615  55.187  0.00  0.00    +0.000 A 
ATOM     24  C   UNL     1      62.771  68.655  57.044  0.00  0.00    +0.000 C 
ATOM     25  F   UNL     1      63.021  68.555  57.824  0.00  0.00    +0.000 F 
ATOM     26  F   UNL     1      62.773  69.473  57.150  0.00  0.00    +0.000 F 
ATOM     27  F   UNL     1      62.769  67.837  56.939  0.00  0.00    +0.000 F 
ENDROOT
TORSDOF 0
ENDMDL
MODEL 8
REMARK VINA RESULT:   -10.578     15.262     16.794
REMARK INTER + INTRA:         -10.578
REMARK INTER:                 -10.578
REMARK INTRA:                   0.000
REMARK UNBOUND:                 0.000
ROOT
REMARK  Name = fluacizine
REMARK                            x       y       z     vdW  Elec       q    Type
REMARK                         _______ _______ _______ _____ _____    ______ ____
ATOM      1  C   UNL     1      58.934  72.180  53.820  0.00  0.00    +0.000 C 
ATOM      2  C   UNL     1      59.436  71.757  54.319  0.00  0.00    +0.000 C 
ATOM      3  N   UNL     1      59.840  71.097  54.034  0.00  0.00    +0.000 NA
ATOM      4  C   UNL     1      59.743  70.859  53.250  0.00  0.00    +0.000 C 
ATOM      5  C   UNL     1      59.241  71.283  52.751  0.00  0.00    +0.000 C 
ATOM      6  C   UNL     1      60.342  70.673  54.534  0.00  0.00    +0.000 C 
ATOM      7  C   UNL     1      60.746  70.012  54.248  0.00  0.00    +0.000 C 
ATOM      8  C   UNL     1      61.248  69.588  54.748  0.00  0.00    +0.000 C 
ATOM      9  O   UNL     1      61.345  69.825  55.532  0.00  0.00    +0.000 OA
ATOM     10  N   UNL     1      61.652  68.928  54.463  0.00  0.00    +0.000 N 
ATOM     11  C   UNL     1      61.554  68.692  53.679  0.00  0.00    +0.000 A 
ATOM     12  C   UNL     1      61.052  69.116  53.180  0.00  0.00    +0.000 A 
ATOM     13  C   UNL     1      60.955  68.879  52.395  0.00  0.00    +0.000 A 
ATOM     14  C   UNL     1      61.359  68.218  52.111  0.00  0.00    +0.000 A 
ATOM     15  C   UNL     1      61.861  67.795  52.610  0.00  0.00    +0.000 A 
ATOM     16  C   UNL     1      61.958  68.031  53.394  0.00  0.00    +0.000 A 
ATOM     17  S   UNL     1      62.460  67.608  53.893  0.00  0.00    +0.000 S 
ATOM     18  C   UNL     1      62.558  67.844  54.678  0.00  0.00    +0.000 A 
ATOM     19  C   UNL     1      62.153  68.505  54.962  0.00  0.00    +0.000 A 
ATOM     20  C   UNL     1      62.251  68.741  55.746  0.00  0.00    +0.000 A 
ATOM     21  C   UNL     1      62.753  68.317  56.246  0.00  0.00    +0.000 A 
ATOM     22  C   UNL     1      63.157  67.657  55.961  0.00  0.00    +0.000 A 
ATOM     23  C   UNL     1      63.060  67.421  55.177  0.00  0.00    +0.000 A 
ATOM     24  C   UNL     1      62.850  68.554  57.030  0.00  0.00    +0.000 C 
ATOM     25  F   UNL     1      62.949  68.790  57.814  0.00  0.00    +0.000 F 
ATOM     26  F   UNL     1      63.374  67.928  57.155  0.00  0.00    +0.000 F 
ATOM     27  F   UNL     1      62.328  69.180  56.906  0.00  0.00    +0.000 F 
ENDROOT
TORSDOF 0
ENDMDL
MODEL 9
REMARK VINA RESULT:   -10.052     15.624     17.263
REMARK INTER + INTRA:         -10.052
REMARK INTER:                 -10.052
REMARK INTRA:                   0.000
REMARK UNBOUND:                 0.000
ROOT
REMARK  Name = fluacizine
REMARK                            x       y       z     vdW  Elec       q    Type
REMARK                         _______ _______ _______ _____ _____    ______ ____
ATOM      1  C   UNL     1      61.674  63.481  53.606  0.00  0.00    +0.000 C 
ATOM      2  C   UNL     1      61.689  64.213  53.225  0.00  0.00    +0.000 C 
ATOM      3  N   UNL     1      61.870  64.895  53.651  0.00  0.00    +0.000 NA
ATOM      4  C   UNL     1      62.037  64.846  54.458  0.00  0.00    +0.000 C 
ATOM      5  C   UNL     1      62.022  64.114  54.839  0.00  0.00    +0.000 C 
ATOM      6  C   UNL     1      61.886  65.627  53.271  0.00  0.00    +0.000 C 
ATOM      7  C   UNL     1      62.067  66.310  53.698  0.00  0.00    +0.000 C 
ATOM      8  C   UNL     1      62.082  67.042  53.317  0.00  0.00    +0.000 C 
ATOM      9  O   UNL     1      61.916  67.091  52.511  0.00  0.00    +0.000 OA
ATOM     10  N   UNL     1      62.264  67.724  53.744  0.00  0.00    +0.000 N 
ATOM     11  C   UNL     1      62.430  67.675  54.550  0.00  0.00    +0.000 A 
ATOM     12  C   UNL     1      62.414  66.943  54.930  0.00  0.00    +0.000 A 
ATOM     13  C   UNL     1      62.581  66.894  55.737  0.00  0.00    +0.000 A 
ATOM     14  C   UNL     1      62.762  67.576  56.163  0.00  0.00    +0.000 A 
ATOM     15  C   UNL     1      62.777  68.308  55.782  0.00  0.00    +0.000 A 
ATOM     16  C   UNL     1      62.611  68.357  54.977  0.00  0.00    +0.000 A 
ATOM     17  S   UNL     1      62.626  69.089  54.596  0.00  0.00    +0.000 S 
ATOM     18  C   UNL     1      62.460  69.139  53.789  0.00  0.00    +0.000 A 
ATOM     19  C   UNL     1      62.279  68.456  53.363  0.00  0.00    +0.000 A 
ATOM     20  C   UNL     1      62.113  68.506  52.557  0.00  0.00    +0.000 A 
ATOM     21  C   UNL     1      62.128  69.238  52.177  0.00  0.00    +0.000 A 
ATOM     22  C   UNL     1      62.309  69.920  52.603  0.00  0.00    +0.000 A 
ATOM     23  C   UNL     1      62.475  69.871  53.409  0.00  0.00    +0.000 A 
ATOM     24  C   UNL     1      61.962  69.287  51.370  0.00  0.00    +0.000 C 
ATOM     25  F   UNL     1      61.796  69.337  50.563  0.00  0.00    +0.000 F 
ATOM     26  F   UNL     1      62.075  70.104  51.396  0.00  0.00    +0.000 F 
ATOM     27  F   UNL     1      61.848  68.471  51.343  0.00  0.00    +0.000 F 
ENDROOT
TORSDOF 0
ENDMDL
