MODEL 1
REMARK VINA RESULT:   -12.436      0.000      0.000
REMARK INTER + INTRA:         -12.436
REMARK INTER:                 -12.436
REMARK INTRA:                   0.000
REMARK UNBOUND:                 0.000
ROOT
REMARK  Name = flubendazole
REMARK                            x       y       z     vdW  Elec       q    Type
REMARK                         _______ _______ _______ _____ _____    ______ ____
ATOM      1  C   UNL     1      61.777  64.754  70.774  0.00  0.00    +0.000 C 
ATOM      2  O   UNL     1      62.111  64.538  70.052  0.00  0.00    +0.000 OA
ATOM      3  C   UNL     1      61.667  64.108  69.505  0.00  0.00    +0.000 C 
ATOM      4  O   UNL     1      60.889  63.895  69.680  0.00  0.00    +0.000 OA
ATOM      5  N   UNL     1      62.001  63.892  68.782  0.00  0.00    +0.000 NA
ATOM      6  C   UNL     1      61.557  63.463  68.234  0.00  0.00    +0.000 C 
ATOM      7  N   UNL     1      61.815  63.209  67.493  0.00  0.00    +0.000 NA
ATOM      8  C   UNL     1      61.195  62.802  67.133  0.00  0.00    +0.000 C 
ATOM      9  C   UNL     1      60.553  62.804  67.652  0.00  0.00    +0.000 C 
ATOM     10  N   UNL     1      60.776  63.212  68.332  0.00  0.00    +0.000 NA
ATOM     11  C   UNL     1      59.848  62.433  67.437  0.00  0.00    +0.000 C 
ATOM     12  C   UNL     1      59.784  62.060  66.704  0.00  0.00    +0.000 C 
ATOM     13  C   UNL     1      60.426  62.058  66.186  0.00  0.00    +0.000 C 
ATOM     14  C   UNL     1      61.131  62.429  66.400  0.00  0.00    +0.000 C 
ATOM     15  C   UNL     1      60.363  61.686  65.452  0.00  0.00    +0.000 C 
ATOM     16  O   UNL     1      59.657  61.315  65.238  0.00  0.00    +0.000 OA
ATOM     17  C   UNL     1      61.005  61.684  64.934  0.00  0.00    +0.000 A 
ATOM     18  C   UNL     1      60.940  61.311  64.200  0.00  0.00    +0.000 A 
ATOM     19  C   UNL     1      61.582  61.309  63.682  0.00  0.00    +0.000 A 
ATOM     20  C   UNL     1      62.288  61.679  63.896  0.00  0.00    +0.000 A 
ATOM     21  F   UNL     1      62.929  61.677  63.378  0.00  0.00    +0.000 F 
ATOM     22  C   UNL     1      62.351  62.052  64.630  0.00  0.00    +0.000 A 
ATOM     23  C   UNL     1      61.709  62.054  65.148  0.00  0.00    +0.000 A 
ENDROOT
TORSDOF 0
ENDMDL
MODEL 2
REMARK VINA RESULT:   -10.858      4.225      5.515
REMARK INTER + INTRA:         -10.858
REMARK INTER:                 -10.858
REMARK INTRA:                   0.000
REMARK UNBOUND:                 0.000
ROOT
REMARK  Name = flubendazole
REMARK                            x       y       z     vdW  Elec       q    Type
REMARK                         _______ _______ _______ _____ _____    ______ ____
ATOM      1  C   UNL     1      65.780  67.363  69.930  0.00  0.00    +0.000 C 
ATOM      2  O   UNL     1      65.308  66.751  69.644  0.00  0.00    +0.000 OA
ATOM      3  C   UNL     1      64.748  66.398  70.136  0.00  0.00    +0.000 C 
ATOM      4  O   UNL     1      64.660  66.656  70.914  0.00  0.00    +0.000 OA
ATOM      5  N   UNL     1      64.275  65.784  69.850  0.00  0.00    +0.000 NA
ATOM      6  C   UNL     1      63.715  65.431  70.342  0.00  0.00    +0.000 C 
ATOM      7  N   UNL     1      63.206  64.816  70.134  0.00  0.00    +0.000 NA
ATOM      8  C   UNL     1      62.742  64.636  70.792  0.00  0.00    +0.000 C 
ATOM      9  C   UNL     1      62.965  65.140  71.406  0.00  0.00    +0.000 C 
ATOM     10  N   UNL     1      63.566  65.631  71.129  0.00  0.00    +0.000 NA
ATOM     11  C   UNL     1      62.590  65.085  72.140  0.00  0.00    +0.000 C 
ATOM     12  C   UNL     1      61.995  64.528  72.259  0.00  0.00    +0.000 C 
ATOM     13  C   UNL     1      61.772  64.024  71.644  0.00  0.00    +0.000 C 
ATOM     14  C   UNL     1      62.146  64.078  70.911  0.00  0.00    +0.000 C 
ATOM     15  C   UNL     1      61.176  63.466  71.763  0.00  0.00    +0.000 C 
ATOM     16  O   UNL     1      60.802  63.412  72.497  0.00  0.00    +0.000 OA
ATOM     17  C   UNL     1      60.954  62.963  71.148  0.00  0.00    +0.000 A 
ATOM     18  C   UNL     1      60.357  62.405  71.268  0.00  0.00    +0.000 A 
ATOM     19  C   UNL     1      60.135  61.902  70.653  0.00  0.00    +0.000 A 
ATOM     20  C   UNL     1      60.509  61.956  69.919  0.00  0.00    +0.000 A 
ATOM     21  F   UNL     1      60.287  61.452  69.304  0.00  0.00    +0.000 F 
ATOM     22  C   UNL     1      61.105  62.514  69.801  0.00  0.00    +0.000 A 
ATOM     23  C   UNL     1      61.327  63.017  70.415  0.00  0.00    +0.000 A 
ENDROOT
TORSDOF 0
ENDMDL
MODEL 3
REMARK VINA RESULT:   -10.780      5.565      7.176
REMARK INTER + INTRA:         -10.780
REMARK INTER:                 -10.780
REMARK INTRA:                   0.000
REMARK UNBOUND:                 0.000
ROOT
REMARK  Name = flubendazole
REMARK                            x       y       z     vdW  Elec       q    Type
REMARK                         _______ _______ _______ _____ _____    ______ ____
ATOM      1  C   UNL     1      60.045  63.555  71.670  0.00  0.00    +0.000 C 
ATOM      2  O   UNL     1      60.763  63.798  71.994  0.00  0.00    +0.000 OA
ATOM      3  C   UNL     1      61.290  64.243  71.542  0.00  0.00    +0.000 C 
ATOM      4  O   UNL     1      61.098  64.446  70.765  0.00  0.00    +0.000 OA
ATOM      5  N   UNL     1      62.009  64.487  71.866  0.00  0.00    +0.000 NA
ATOM      6  C   UNL     1      62.536  64.933  71.414  0.00  0.00    +0.000 C 
ATOM      7  N   UNL     1      63.270  65.214  71.662  0.00  0.00    +0.000 NA
ATOM      8  C   UNL     1      63.608  65.630  71.035  0.00  0.00    +0.000 C 
ATOM      9  C   UNL     1      63.083  65.606  70.400  0.00  0.00    +0.000 C 
ATOM     10  N   UNL     1      62.420  65.175  70.633  0.00  0.00    +0.000 NA
ATOM     11  C   UNL     1      63.277  65.981  69.691  0.00  0.00    +0.000 C 
ATOM     12  C   UNL     1      63.995  66.378  69.617  0.00  0.00    +0.000 C 
ATOM     13  C   UNL     1      64.521  66.402  70.252  0.00  0.00    +0.000 C 
ATOM     14  C   UNL     1      64.328  66.028  70.962  0.00  0.00    +0.000 C 
ATOM     15  C   UNL     1      65.240  66.799  70.179  0.00  0.00    +0.000 C 
ATOM     16  O   UNL     1      65.433  67.174  69.469  0.00  0.00    +0.000 OA
ATOM     17  C   UNL     1      65.765  66.823  70.814  0.00  0.00    +0.000 A 
ATOM     18  C   UNL     1      66.484  67.221  70.740  0.00  0.00    +0.000 A 
ATOM     19  C   UNL     1      67.010  67.245  71.375  0.00  0.00    +0.000 A 
ATOM     20  C   UNL     1      66.816  66.870  72.085  0.00  0.00    +0.000 A 
ATOM     21  F   UNL     1      67.342  66.894  72.721  0.00  0.00    +0.000 F 
ATOM     22  C   UNL     1      66.097  66.473  72.158  0.00  0.00    +0.000 A 
ATOM     23  C   UNL     1      65.572  66.449  71.523  0.00  0.00    +0.000 A 
ENDROOT
TORSDOF 0
ENDMDL
MODEL 4
REMARK VINA RESULT:   -10.698      3.606      5.088
REMARK INTER + INTRA:         -10.698
REMARK INTER:                 -10.698
REMARK INTRA:                   0.000
REMARK UNBOUND:                 0.000
ROOT
REMARK  Name = flubendazole
REMARK                            x       y       z     vdW  Elec       q    Type
REMARK                         _______ _______ _______ _____ _____    ______ ____
ATOM      1  C   UNL     1      62.703  68.225  73.031  0.00  0.00    +0.000 C 
ATOM      2  O   UNL     1      62.461  67.816  72.358  0.00  0.00    +0.000 OA
ATOM      3  C   UNL     1      62.284  67.011  72.406  0.00  0.00    +0.000 C 
ATOM      4  O   UNL     1      62.350  66.616  73.126  0.00  0.00    +0.000 OA
ATOM      5  N   UNL     1      62.041  66.601  71.731  0.00  0.00    +0.000 NA
ATOM      6  C   UNL     1      61.864  65.797  71.779  0.00  0.00    +0.000 C 
ATOM      7  N   UNL     1      61.616  65.317  71.156  0.00  0.00    +0.000 NA
ATOM      8  C   UNL     1      61.504  64.555  71.450  0.00  0.00    +0.000 C 
ATOM      9  C   UNL     1      61.682  64.564  72.256  0.00  0.00    +0.000 C 
ATOM     10  N   UNL     1      61.905  65.331  72.459  0.00  0.00    +0.000 NA
ATOM     11  C   UNL     1      61.619  63.871  72.699  0.00  0.00    +0.000 C 
ATOM     12  C   UNL     1      61.377  63.170  72.338  0.00  0.00    +0.000 C 
ATOM     13  C   UNL     1      61.198  63.162  71.533  0.00  0.00    +0.000 C 
ATOM     14  C   UNL     1      61.262  63.854  71.088  0.00  0.00    +0.000 C 
ATOM     15  C   UNL     1      60.956  62.461  71.171  0.00  0.00    +0.000 C 
ATOM     16  O   UNL     1      60.892  61.768  71.616  0.00  0.00    +0.000 OA
ATOM     17  C   UNL     1      60.777  62.452  70.366  0.00  0.00    +0.000 A 
ATOM     18  C   UNL     1      60.535  61.751  70.005  0.00  0.00    +0.000 A 
ATOM     19  C   UNL     1      60.357  61.742  69.199  0.00  0.00    +0.000 A 
ATOM     20  C   UNL     1      60.420  62.435  68.755  0.00  0.00    +0.000 A 
ATOM     21  F   UNL     1      60.242  62.427  67.949  0.00  0.00    +0.000 F 
ATOM     22  C   UNL     1      60.662  63.136  69.117  0.00  0.00    +0.000 A 
ATOM     23  C   UNL     1      60.841  63.144  69.922  0.00  0.00    +0.000 A 
ENDROOT
TORSDOF 0
ENDMDL
MODEL 5
REMARK VINA RESULT:   -10.661      1.746      2.171
REMARK INTER + INTRA:         -10.661
REMARK INTER:                 -10.661
REMARK INTRA:                   0.000
REMARK UNBOUND:                 0.000
ROOT
REMARK  Name = flubendazole
REMARK                            x       y       z     vdW  Elec       q    Type
REMARK                         _______ _______ _______ _____ _____    ______ ____
ATOM      1  C   UNL     1      59.341  66.950  70.719  0.00  0.00    +0.000 C 
ATOM      2  O   UNL     1      59.637  66.731  69.982  0.00  0.00    +0.000 OA
ATOM      3  C   UNL     1      59.807  65.939  69.824  0.00  0.00    +0.000 C 
ATOM      4  O   UNL     1      59.680  65.366  70.404  0.00  0.00    +0.000 OA
ATOM      5  N   UNL     1      60.103  65.719  69.085  0.00  0.00    +0.000 NA
ATOM      6  C   UNL     1      60.273  64.927  68.928  0.00  0.00    +0.000 C 
ATOM      7  N   UNL     1      60.570  64.626  68.220  0.00  0.00    +0.000 NA
ATOM      8  C   UNL     1      60.656  63.811  68.306  0.00  0.00    +0.000 C 
ATOM      9  C   UNL     1      60.412  63.607  69.067  0.00  0.00    +0.000 C 
ATOM     10  N   UNL     1      60.175  64.297  69.452  0.00  0.00    +0.000 NA
ATOM     11  C   UNL     1      60.437  62.819  69.310  0.00  0.00    +0.000 C 
ATOM     12  C   UNL     1      60.706  62.236  68.794  0.00  0.00    +0.000 C 
ATOM     13  C   UNL     1      60.950  62.439  68.033  0.00  0.00    +0.000 C 
ATOM     14  C   UNL     1      60.925  63.227  67.788  0.00  0.00    +0.000 C 
ATOM     15  C   UNL     1      61.219  61.856  67.515  0.00  0.00    +0.000 C 
ATOM     16  O   UNL     1      61.244  61.068  67.760  0.00  0.00    +0.000 OA
ATOM     17  C   UNL     1      61.464  62.060  66.754  0.00  0.00    +0.000 A 
ATOM     18  C   UNL     1      61.733  61.475  66.238  0.00  0.00    +0.000 A 
ATOM     19  C   UNL     1      61.977  61.679  65.476  0.00  0.00    +0.000 A 
ATOM     20  C   UNL     1      61.952  62.467  65.232  0.00  0.00    +0.000 A 
ATOM     21  F   UNL     1      62.196  62.671  64.471  0.00  0.00    +0.000 F 
ATOM     22  C   UNL     1      61.683  63.051  65.749  0.00  0.00    +0.000 A 
ATOM     23  C   UNL     1      61.439  62.847  66.510  0.00  0.00    +0.000 A 
ENDROOT
TORSDOF 0
ENDMDL
MODEL 6
REMARK VINA RESULT:   -10.644      2.871      4.313
REMARK INTER + INTRA:         -10.644
REMARK INTER:                 -10.644
REMARK INTRA:                   0.000
REMARK UNBOUND:                 0.000
ROOT
REMARK  Name = flubendazole
REMARK                            x       y       z     vdW  Elec       q    Type
REMARK                         _______ _______ _______ _____ _____    ______ ____
ATOM      1  C   UNL     1      58.584  67.323  73.196  0.00  0.00    +0.000 C 
ATOM      2  O   UNL     1      58.758  67.103  72.421  0.00  0.00    +0.000 OA
ATOM      3  C   UNL     1      59.012  66.336  72.256  0.00  0.00    +0.000 C 
ATOM      4  O   UNL     1      59.092  65.788  72.868  0.00  0.00    +0.000 OA
ATOM      5  N   UNL     1      59.186  66.116  71.480  0.00  0.00    +0.000 NA
ATOM      6  C   UNL     1      59.440  65.348  71.316  0.00  0.00    +0.000 C 
ATOM      7  N   UNL     1      59.633  65.050  70.572  0.00  0.00    +0.000 NA
ATOM      8  C   UNL     1      59.858  64.262  70.664  0.00  0.00    +0.000 C 
ATOM      9  C   UNL     1      59.803  64.072  71.465  0.00  0.00    +0.000 C 
ATOM     10  N   UNL     1      59.545  64.743  71.868  0.00  0.00    +0.000 NA
ATOM     11  C   UNL     1      59.996  63.313  71.723  0.00  0.00    +0.000 C 
ATOM     12  C   UNL     1      60.243  62.743  71.181  0.00  0.00    +0.000 C 
ATOM     13  C   UNL     1      60.298  62.932  70.379  0.00  0.00    +0.000 C 
ATOM     14  C   UNL     1      60.105  63.691  70.120  0.00  0.00    +0.000 C 
ATOM     15  C   UNL     1      60.545  62.362  69.836  0.00  0.00    +0.000 C 
ATOM     16  O   UNL     1      60.738  61.602  70.095  0.00  0.00    +0.000 OA
ATOM     17  C   UNL     1      60.599  62.552  69.035  0.00  0.00    +0.000 A 
ATOM     18  C   UNL     1      60.846  61.981  68.493  0.00  0.00    +0.000 A 
ATOM     19  C   UNL     1      60.901  62.170  67.692  0.00  0.00    +0.000 A 
ATOM     20  C   UNL     1      60.708  62.930  67.433  0.00  0.00    +0.000 A 
ATOM     21  F   UNL     1      60.762  63.119  66.632  0.00  0.00    +0.000 F 
ATOM     22  C   UNL     1      60.461  63.500  67.976  0.00  0.00    +0.000 A 
ATOM     23  C   UNL     1      60.406  63.310  68.777  0.00  0.00    +0.000 A 
ENDROOT
TORSDOF 0
ENDMDL
MODEL 7
REMARK VINA RESULT:   -10.450      4.071      6.913
REMARK INTER + INTRA:         -10.450
REMARK INTER:                 -10.450
REMARK INTRA:                   0.000
REMARK UNBOUND:                 0.000
ROOT
REMARK  Name = flubendazole
REMARK                            x       y       z     vdW  Elec       q    Type
REMARK                         _______ _______ _______ _____ _____    ______ ____
ATOM      1  C   UNL     1      59.830  64.344  68.705  0.00  0.00    +0.000 C 
ATOM      2  O   UNL     1      60.533  64.739  68.534  0.00  0.00    +0.000 OA
ATOM      3  C   UNL     1      61.064  64.917  69.140  0.00  0.00    +0.000 C 
ATOM      4  O   UNL     1      60.892  64.699  69.917  0.00  0.00    +0.000 OA
ATOM      5  N   UNL     1      61.768  65.312  68.969  0.00  0.00    +0.000 NA
ATOM      6  C   UNL     1      62.299  65.490  69.575  0.00  0.00    +0.000 C 
ATOM      7  N   UNL     1      63.020  65.880  69.489  0.00  0.00    +0.000 NA
ATOM      8  C   UNL     1      63.369  65.940  70.234  0.00  0.00    +0.000 C 
ATOM      9  C   UNL     1      62.863  65.586  70.781  0.00  0.00    +0.000 C 
ATOM     10  N   UNL     1      62.202  65.307  70.374  0.00  0.00    +0.000 NA
ATOM     11  C   UNL     1      63.070  65.562  71.580  0.00  0.00    +0.000 C 
ATOM     12  C   UNL     1      63.782  65.893  71.831  0.00  0.00    +0.000 C 
ATOM     13  C   UNL     1      64.288  66.247  71.284  0.00  0.00    +0.000 C 
ATOM     14  C   UNL     1      64.082  66.271  70.485  0.00  0.00    +0.000 C 
ATOM     15  C   UNL     1      65.001  66.578  71.534  0.00  0.00    +0.000 C 
ATOM     16  O   UNL     1      65.208  66.554  72.333  0.00  0.00    +0.000 OA
ATOM     17  C   UNL     1      65.507  66.932  70.987  0.00  0.00    +0.000 A 
ATOM     18  C   UNL     1      66.220  67.263  71.239  0.00  0.00    +0.000 A 
ATOM     19  C   UNL     1      66.726  67.617  70.692  0.00  0.00    +0.000 A 
ATOM     20  C   UNL     1      66.519  67.640  69.893  0.00  0.00    +0.000 A 
ATOM     21  F   UNL     1      67.025  67.994  69.346  0.00  0.00    +0.000 F 
ATOM     22  C   UNL     1      65.806  67.309  69.643  0.00  0.00    +0.000 A 
ATOM     23  C   UNL     1      65.300  66.955  70.190  0.00  0.00    +0.000 A 
ENDROOT
TORSDOF 0
ENDMDL
MODEL 8
REMARK VINA RESULT:   -10.300      1.967      3.134
REMARK INTER + INTRA:         -10.300
REMARK INTER:                 -10.300
REMARK INTRA:                   0.000
REMARK UNBOUND:                 0.000
ROOT
REMARK  Name = flubendazole
REMARK                            x       y       z     vdW  Elec       q    Type
REMARK                         _______ _______ _______ _____ _____    ______ ____
ATOM      1  C   UNL     1      64.434  66.505  71.723  0.00  0.00    +0.000 C 
ATOM      2  O   UNL     1      64.206  66.267  70.967  0.00  0.00    +0.000 OA
ATOM      3  C   UNL     1      63.656  65.659  70.875  0.00  0.00    +0.000 C 
ATOM      4  O   UNL     1      63.335  65.289  71.538  0.00  0.00    +0.000 OA
ATOM      5  N   UNL     1      63.427  65.421  70.118  0.00  0.00    +0.000 NA
ATOM      6  C   UNL     1      62.877  64.813  70.026  0.00  0.00    +0.000 C 
ATOM      7  N   UNL     1      62.597  64.517  69.309  0.00  0.00    +0.000 NA
ATOM      8  C   UNL     1      62.058  63.916  69.475  0.00  0.00    +0.000 C 
ATOM      9  C   UNL     1      62.005  63.840  70.294  0.00  0.00    +0.000 C 
ATOM     10  N   UNL     1      62.511  64.394  70.635  0.00  0.00    +0.000 NA
ATOM     11  C   UNL     1      61.501  63.275  70.624  0.00  0.00    +0.000 C 
ATOM     12  C   UNL     1      61.052  62.786  70.134  0.00  0.00    +0.000 C 
ATOM     13  C   UNL     1      61.105  62.863  69.315  0.00  0.00    +0.000 C 
ATOM     14  C   UNL     1      61.608  63.427  68.984  0.00  0.00    +0.000 C 
ATOM     15  C   UNL     1      60.656  62.374  68.825  0.00  0.00    +0.000 C 
ATOM     16  O   UNL     1      60.153  61.809  69.155  0.00  0.00    +0.000 OA
ATOM     17  C   UNL     1      60.710  62.450  68.005  0.00  0.00    +0.000 A 
ATOM     18  C   UNL     1      60.260  61.962  67.515  0.00  0.00    +0.000 A 
ATOM     19  C   UNL     1      60.313  62.038  66.696  0.00  0.00    +0.000 A 
ATOM     20  C   UNL     1      60.817  62.603  66.365  0.00  0.00    +0.000 A 
ATOM     21  F   UNL     1      60.870  62.679  65.546  0.00  0.00    +0.000 F 
ATOM     22  C   UNL     1      61.266  63.091  66.856  0.00  0.00    +0.000 A 
ATOM     23  C   UNL     1      61.212  63.015  67.675  0.00  0.00    +0.000 A 
ENDROOT
TORSDOF 0
ENDMDL
MODEL 9
REMARK VINA RESULT:   -10.161      5.186      6.450
REMARK INTER + INTRA:         -10.161
REMARK INTER:                 -10.161
REMARK INTRA:                   0.000
REMARK UNBOUND:                 0.000
ROOT
REMARK  Name = flubendazole
REMARK                            x       y       z     vdW  Elec       q    Type
REMARK                         _______ _______ _______ _____ _____    ______ ____
ATOM      1  C   UNL     1      66.632  67.988  69.951  0.00  0.00    +0.000 C 
ATOM      2  O   UNL     1      65.963  67.850  70.412  0.00  0.00    +0.000 OA
ATOM      3  C   UNL     1      65.533  67.152  70.316  0.00  0.00    +0.000 C 
ATOM      4  O   UNL     1      65.772  66.593  69.758  0.00  0.00    +0.000 OA
ATOM      5  N   UNL     1      64.863  67.013  70.777  0.00  0.00    +0.000 NA
ATOM      6  C   UNL     1      64.433  66.315  70.680  0.00  0.00    +0.000 C 
ATOM      7  N   UNL     1      63.755  66.101  71.099  0.00  0.00    +0.000 NA
ATOM      8  C   UNL     1      63.509  65.363  70.826  0.00  0.00    +0.000 C 
ATOM      9  C   UNL     1      64.035  65.121  70.237  0.00  0.00    +0.000 C 
ATOM     10  N   UNL     1      64.605  65.709  70.147  0.00  0.00    +0.000 NA
ATOM     11  C   UNL     1      63.924  64.396  69.860  0.00  0.00    +0.000 C 
ATOM     12  C   UNL     1      63.290  63.913  70.070  0.00  0.00    +0.000 C 
ATOM     13  C   UNL     1      62.765  64.155  70.658  0.00  0.00    +0.000 C 
ATOM     14  C   UNL     1      62.874  64.880  71.036  0.00  0.00    +0.000 C 
ATOM     15  C   UNL     1      62.130  63.673  70.869  0.00  0.00    +0.000 C 
ATOM     16  O   UNL     1      62.020  62.947  70.491  0.00  0.00    +0.000 OA
ATOM     17  C   UNL     1      61.605  63.915  71.457  0.00  0.00    +0.000 A 
ATOM     18  C   UNL     1      60.970  63.431  71.668  0.00  0.00    +0.000 A 
ATOM     19  C   UNL     1      60.445  63.673  72.256  0.00  0.00    +0.000 A 
ATOM     20  C   UNL     1      60.554  64.399  72.634  0.00  0.00    +0.000 A 
ATOM     21  F   UNL     1      60.029  64.641  73.222  0.00  0.00    +0.000 F 
ATOM     22  C   UNL     1      61.189  64.882  72.423  0.00  0.00    +0.000 A 
ATOM     23  C   UNL     1      61.714  64.639  71.835  0.00  0.00    +0.000 A 
ENDROOT
TORSDOF 0
ENDMDL
