MODEL 1
REMARK VINA RESULT:   -10.789      0.000      0.000
REMARK INTER + INTRA:         -10.789
REMARK INTER:                 -10.789
REMARK INTRA:                   0.000
REMARK UNBOUND:                 0.000
ROOT
REMARK  Name = fludiazepam
REMARK                            x       y       z     vdW  Elec       q    Type
REMARK                         _______ _______ _______ _____ _____    ______ ____
ATOM      1  C   UNL     1      60.104  63.432  68.483  0.00  0.00    +0.000 C 
ATOM      2  N   UNL     1      60.618  63.222  67.871  0.00  0.00    +0.000 N 
ATOM      3  C   UNL     1      60.278  62.803  67.247  0.00  0.00    +0.000 A 
ATOM      4  C   UNL     1      59.472  62.677  67.371  0.00  0.00    +0.000 A 
ATOM      5  C   UNL     1      59.027  62.267  66.811  0.00  0.00    +0.000 A 
ATOM      6  C   UNL     1      59.388  61.981  66.127  0.00  0.00    +0.000 A 
ATOM      7 CL   UNL     1      58.944  61.571  65.566  0.00  0.00    +0.000 Cl
ATOM      8  C   UNL     1      60.194  62.106  66.002  0.00  0.00    +0.000 A 
ATOM      9  C   UNL     1      60.639  62.517  66.563  0.00  0.00    +0.000 A 
ATOM     10  C   UNL     1      61.429  62.581  66.333  0.00  0.00    +0.000 C 
ATOM     11  N   UNL     1      62.052  62.946  66.730  0.00  0.00    +0.000 NA
ATOM     12  C   UNL     1      62.040  63.338  67.457  0.00  0.00    +0.000 C 
ATOM     13  C   UNL     1      61.402  63.461  67.964  0.00  0.00    +0.000 C 
ATOM     14  O   UNL     1      61.570  63.877  68.657  0.00  0.00    +0.000 OA
ATOM     15  C   UNL     1      61.620  62.234  65.609  0.00  0.00    +0.000 A 
ATOM     16  C   UNL     1      61.036  61.854  65.167  0.00  0.00    +0.000 A 
ATOM     17  F   UNL     1      60.261  61.821  65.447  0.00  0.00    +0.000 F 
ATOM     18  C   UNL     1      61.228  61.507  64.443  0.00  0.00    +0.000 A 
ATOM     19  C   UNL     1      62.002  61.539  64.162  0.00  0.00    +0.000 A 
ATOM     20  C   UNL     1      62.587  61.919  64.605  0.00  0.00    +0.000 A 
ATOM     21  C   UNL     1      62.395  62.266  65.328  0.00  0.00    +0.000 A 
ENDROOT
TORSDOF 0
ENDMDL
MODEL 2
REMARK VINA RESULT:   -10.109      2.626      3.710
REMARK INTER + INTRA:         -10.109
REMARK INTER:                 -10.109
REMARK INTRA:                   0.000
REMARK UNBOUND:                 0.000
ROOT
REMARK  Name = fludiazepam
REMARK                            x       y       z     vdW  Elec       q    Type
REMARK                         _______ _______ _______ _____ _____    ______ ____
ATOM      1  C   UNL     1      62.364  64.181  71.640  0.00  0.00    +0.000 C 
ATOM      2  N   UNL     1      62.189  64.028  70.848  0.00  0.00    +0.000 N 
ATOM      3  C   UNL     1      61.673  63.399  70.710  0.00  0.00    +0.000 A 
ATOM      4  C   UNL     1      61.435  63.044  71.416  0.00  0.00    +0.000 A 
ATOM      5  C   UNL     1      60.917  62.402  71.401  0.00  0.00    +0.000 A 
ATOM      6  C   UNL     1      60.638  62.115  70.680  0.00  0.00    +0.000 A 
ATOM      7 CL   UNL     1      60.120  61.473  70.664  0.00  0.00    +0.000 Cl
ATOM      8  C   UNL     1      60.876  62.469  69.974  0.00  0.00    +0.000 A 
ATOM      9  C   UNL     1      61.394  63.111  69.989  0.00  0.00    +0.000 A 
ATOM     10  C   UNL     1      61.561  63.382  69.228  0.00  0.00    +0.000 C 
ATOM     11  N   UNL     1      62.048  64.007  69.000  0.00  0.00    +0.000 NA
ATOM     12  C   UNL     1      62.490  64.516  69.477  0.00  0.00    +0.000 C 
ATOM     13  C   UNL     1      62.552  64.525  70.299  0.00  0.00    +0.000 C 
ATOM     14  O   UNL     1      63.043  65.109  70.614  0.00  0.00    +0.000 OA
ATOM     15  C   UNL     1      61.191  62.973  68.614  0.00  0.00    +0.000 A 
ATOM     16  C   UNL     1      60.692  62.338  68.782  0.00  0.00    +0.000 A 
ATOM     17  F   UNL     1      60.562  62.112  69.565  0.00  0.00    +0.000 F 
ATOM     18  C   UNL     1      60.323  61.930  68.168  0.00  0.00    +0.000 A 
ATOM     19  C   UNL     1      60.453  62.156  67.386  0.00  0.00    +0.000 A 
ATOM     20  C   UNL     1      60.952  62.791  67.217  0.00  0.00    +0.000 A 
ATOM     21  C   UNL     1      61.321  63.199  67.831  0.00  0.00    +0.000 A 
ENDROOT
TORSDOF 0
ENDMDL
MODEL 3
REMARK VINA RESULT:   -10.022      3.875      5.136
REMARK INTER + INTRA:         -10.022
REMARK INTER:                 -10.022
REMARK INTRA:                   0.000
REMARK UNBOUND:                 0.000
ROOT
REMARK  Name = fludiazepam
REMARK                            x       y       z     vdW  Elec       q    Type
REMARK                         _______ _______ _______ _____ _____    ______ ____
ATOM      1  C   UNL     1      62.843  65.865  71.073  0.00  0.00    +0.000 C 
ATOM      2  N   UNL     1      62.474  65.249  70.666  0.00  0.00    +0.000 N 
ATOM      3  C   UNL     1      62.141  64.659  71.137  0.00  0.00    +0.000 A 
ATOM      4  C   UNL     1      62.251  64.815  71.940  0.00  0.00    +0.000 A 
ATOM      5  C   UNL     1      61.959  64.291  72.506  0.00  0.00    +0.000 A 
ATOM      6  C   UNL     1      61.557  63.611  72.269  0.00  0.00    +0.000 A 
ATOM      7 CL   UNL     1      61.264  63.086  72.835  0.00  0.00    +0.000 Cl
ATOM      8  C   UNL     1      61.446  63.454  71.467  0.00  0.00    +0.000 A 
ATOM      9  C   UNL     1      61.739  63.979  70.900  0.00  0.00    +0.000 A 
ATOM     10  C   UNL     1      61.570  63.721  70.135  0.00  0.00    +0.000 C 
ATOM     11  N   UNL     1      61.762  64.079  69.418  0.00  0.00    +0.000 NA
ATOM     12  C   UNL     1      62.170  64.785  69.288  0.00  0.00    +0.000 C 
ATOM     13  C   UNL     1      62.487  65.305  69.844  0.00  0.00    +0.000 C 
ATOM     14  O   UNL     1      62.867  65.970  69.535  0.00  0.00    +0.000 OA
ATOM     15  C   UNL     1      61.154  63.010  70.081  0.00  0.00    +0.000 A 
ATOM     16  C   UNL     1      60.935  62.606  70.766  0.00  0.00    +0.000 A 
ATOM     17  F   UNL     1      61.132  62.913  71.506  0.00  0.00    +0.000 F 
ATOM     18  C   UNL     1      60.520  61.896  70.711  0.00  0.00    +0.000 A 
ATOM     19  C   UNL     1      60.323  61.589  69.972  0.00  0.00    +0.000 A 
ATOM     20  C   UNL     1      60.542  61.993  69.286  0.00  0.00    +0.000 A 
ATOM     21  C   UNL     1      60.958  62.703  69.341  0.00  0.00    +0.000 A 
ENDROOT
TORSDOF 0
ENDMDL
MODEL 4
REMARK VINA RESULT:    -9.896      3.519      5.084
REMARK INTER + INTRA:          -9.896
REMARK INTER:                  -9.896
REMARK INTRA:                   0.000
REMARK UNBOUND:                 0.000
ROOT
REMARK  Name = fludiazepam
REMARK                            x       y       z     vdW  Elec       q    Type
REMARK                         _______ _______ _______ _____ _____    ______ ____
ATOM      1  C   UNL     1      59.734  65.493  69.288  0.00  0.00    +0.000 C 
ATOM      2  N   UNL     1      60.038  65.111  69.953  0.00  0.00    +0.000 N 
ATOM      3  C   UNL     1      60.252  64.321  69.845  0.00  0.00    +0.000 A 
ATOM      4  C   UNL     1      60.112  64.073  69.071  0.00  0.00    +0.000 A 
ATOM      5  C   UNL     1      60.288  63.300  68.846  0.00  0.00    +0.000 A 
ATOM      6  C   UNL     1      60.604  62.773  69.397  0.00  0.00    +0.000 A 
ATOM      7 CL   UNL     1      60.781  61.999  69.173  0.00  0.00    +0.000 Cl
ATOM      8  C   UNL     1      60.745  63.020  70.171  0.00  0.00    +0.000 A 
ATOM      9  C   UNL     1      60.568  63.794  70.396  0.00  0.00    +0.000 A 
ATOM     10  C   UNL     1      60.749  63.927  71.189  0.00  0.00    +0.000 C 
ATOM     11  N   UNL     1      60.658  64.618  71.629  0.00  0.00    +0.000 NA
ATOM     12  C   UNL     1      60.363  65.350  71.383  0.00  0.00    +0.000 C 
ATOM     13  C   UNL     1      60.088  65.568  70.637  0.00  0.00    +0.000 C 
ATOM     14  O   UNL     1      59.827  66.348  70.567  0.00  0.00    +0.000 OA
ATOM     15  C   UNL     1      61.062  63.281  71.598  0.00  0.00    +0.000 A 
ATOM     16  C   UNL     1      61.175  62.563  71.209  0.00  0.00    +0.000 A 
ATOM     17  F   UNL     1      60.976  62.489  70.412  0.00  0.00    +0.000 F 
ATOM     18  C   UNL     1      61.488  61.919  71.617  0.00  0.00    +0.000 A 
ATOM     19  C   UNL     1      61.688  61.992  72.414  0.00  0.00    +0.000 A 
ATOM     20  C   UNL     1      61.574  62.711  72.803  0.00  0.00    +0.000 A 
ATOM     21  C   UNL     1      61.261  63.355  72.395  0.00  0.00    +0.000 A 
ENDROOT
TORSDOF 0
ENDMDL
MODEL 5
REMARK VINA RESULT:    -9.879      3.107      4.739
REMARK INTER + INTRA:          -9.879
REMARK INTER:                  -9.879
REMARK INTRA:                   0.000
REMARK UNBOUND:                 0.000
ROOT
REMARK  Name = fludiazepam
REMARK                            x       y       z     vdW  Elec       q    Type
REMARK                         _______ _______ _______ _____ _____    ______ ____
ATOM      1  C   UNL     1      60.249  61.884  68.563  0.00  0.00    +0.000 C 
ATOM      2  N   UNL     1      60.787  62.476  68.767  0.00  0.00    +0.000 N 
ATOM      3  C   UNL     1      60.925  62.570  69.575  0.00  0.00    +0.000 A 
ATOM      4  C   UNL     1      60.483  62.035  70.022  0.00  0.00    +0.000 A 
ATOM      5  C   UNL     1      60.541  62.037  70.844  0.00  0.00    +0.000 A 
ATOM      6  C   UNL     1      61.042  62.574  71.221  0.00  0.00    +0.000 A 
ATOM      7 CL   UNL     1      61.100  62.576  72.044  0.00  0.00    +0.000 Cl
ATOM      8  C   UNL     1      61.484  63.109  70.775  0.00  0.00    +0.000 A 
ATOM      9  C   UNL     1      61.426  63.107  69.952  0.00  0.00    +0.000 A 
ATOM     10  C   UNL     1      61.911  63.682  69.614  0.00  0.00    +0.000 C 
ATOM     11  N   UNL     1      62.016  63.862  68.816  0.00  0.00    +0.000 NA
ATOM     12  C   UNL     1      61.661  63.512  68.158  0.00  0.00    +0.000 C 
ATOM     13  C   UNL     1      61.114  62.895  68.137  0.00  0.00    +0.000 C 
ATOM     14  O   UNL     1      60.861  62.667  67.385  0.00  0.00    +0.000 OA
ATOM     15  C   UNL     1      62.350  64.137  70.145  0.00  0.00    +0.000 A 
ATOM     16  C   UNL     1      62.285  64.001  70.956  0.00  0.00    +0.000 A 
ATOM     17  F   UNL     1      61.782  63.410  71.237  0.00  0.00    +0.000 F 
ATOM     18  C   UNL     1      62.724  64.456  71.486  0.00  0.00    +0.000 A 
ATOM     19  C   UNL     1      63.227  65.046  71.206  0.00  0.00    +0.000 A 
ATOM     20  C   UNL     1      63.291  65.182  70.394  0.00  0.00    +0.000 A 
ATOM     21  C   UNL     1      62.853  64.727  69.864  0.00  0.00    +0.000 A 
ENDROOT
TORSDOF 0
ENDMDL
MODEL 6
REMARK VINA RESULT:    -9.828      5.359      6.920
REMARK INTER + INTRA:          -9.828
REMARK INTER:                  -9.828
REMARK INTRA:                   0.000
REMARK UNBOUND:                 0.000
ROOT
REMARK  Name = fludiazepam
REMARK                            x       y       z     vdW  Elec       q    Type
REMARK                         _______ _______ _______ _____ _____    ______ ____
ATOM      1  C   UNL     1      61.966  64.242  70.656  0.00  0.00    +0.000 C 
ATOM      2  N   UNL     1      62.646  64.683  70.498  0.00  0.00    +0.000 N 
ATOM      3  C   UNL     1      62.836  65.259  71.056  0.00  0.00    +0.000 A 
ATOM      4  C   UNL     1      62.290  65.274  71.674  0.00  0.00    +0.000 A 
ATOM      5  C   UNL     1      62.380  65.812  72.292  0.00  0.00    +0.000 A 
ATOM      6  C   UNL     1      63.016  66.337  72.292  0.00  0.00    +0.000 A 
ATOM      7 CL   UNL     1      63.107  66.876  72.910  0.00  0.00    +0.000 Cl
ATOM      8  C   UNL     1      63.563  66.323  71.675  0.00  0.00    +0.000 A 
ATOM      9  C   UNL     1      63.473  65.784  71.056  0.00  0.00    +0.000 A 
ATOM     10  C   UNL     1      64.076  65.862  70.499  0.00  0.00    +0.000 C 
ATOM     11  N   UNL     1      64.191  65.434  69.803  0.00  0.00    +0.000 NA
ATOM     12  C   UNL     1      63.732  64.822  69.493  0.00  0.00    +0.000 C 
ATOM     13  C   UNL     1      63.044  64.488  69.802  0.00  0.00    +0.000 C 
ATOM     14  O   UNL     1      62.711  63.879  69.356  0.00  0.00    +0.000 OA
ATOM     15  C   UNL     1      64.638  66.445  70.658  0.00  0.00    +0.000 A 
ATOM     16  C   UNL     1      64.573  66.904  71.340  0.00  0.00    +0.000 A 
ATOM     17  F   UNL     1      63.947  66.781  71.863  0.00  0.00    +0.000 F 
ATOM     18  C   UNL     1      65.135  67.487  71.499  0.00  0.00    +0.000 A 
ATOM     19  C   UNL     1      65.761  67.610  70.977  0.00  0.00    +0.000 A 
ATOM     20  C   UNL     1      65.826  67.150  70.294  0.00  0.00    +0.000 A 
ATOM     21  C   UNL     1      65.264  66.568  70.135  0.00  0.00    +0.000 A 
ENDROOT
TORSDOF 0
ENDMDL
MODEL 7
REMARK VINA RESULT:    -9.788      5.611      6.942
REMARK INTER + INTRA:          -9.788
REMARK INTER:                  -9.788
REMARK INTRA:                   0.000
REMARK UNBOUND:                 0.000
ROOT
REMARK  Name = fludiazepam
REMARK                            x       y       z     vdW  Elec       q    Type
REMARK                         _______ _______ _______ _____ _____    ______ ____
ATOM      1  C   UNL     1      61.706  64.596  72.021  0.00  0.00    +0.000 C 
ATOM      2  N   UNL     1      62.278  65.191  71.992  0.00  0.00    +0.000 N 
ATOM      3  C   UNL     1      62.872  65.090  71.429  0.00  0.00    +0.000 A 
ATOM      4  C   UNL     1      62.766  64.393  71.000  0.00  0.00    +0.000 A 
ATOM      5  C   UNL     1      63.302  64.187  70.408  0.00  0.00    +0.000 A 
ATOM      6  C   UNL     1      63.944  64.678  70.244  0.00  0.00    +0.000 A 
ATOM      7 CL   UNL     1      64.480  64.473  69.652  0.00  0.00    +0.000 Cl
ATOM      8  C   UNL     1      64.051  65.375  70.672  0.00  0.00    +0.000 A 
ATOM      9  C   UNL     1      63.514  65.581  71.265  0.00  0.00    +0.000 A 
ATOM     10  C   UNL     1      63.721  66.294  71.624  0.00  0.00    +0.000 C 
ATOM     11  N   UNL     1      63.336  66.693  72.235  0.00  0.00    +0.000 NA
ATOM     12  C   UNL     1      62.649  66.476  72.638  0.00  0.00    +0.000 C 
ATOM     13  C   UNL     1      62.179  65.808  72.530  0.00  0.00    +0.000 C 
ATOM     14  O   UNL     1      61.522  65.749  73.026  0.00  0.00    +0.000 OA
ATOM     15  C   UNL     1      64.403  66.657  71.332  0.00  0.00    +0.000 A 
ATOM     16  C   UNL     1      64.829  66.304  70.721  0.00  0.00    +0.000 A 
ATOM     17  F   UNL     1      64.574  65.588  70.400  0.00  0.00    +0.000 F 
ATOM     18  C   UNL     1      65.510  66.667  70.431  0.00  0.00    +0.000 A 
ATOM     19  C   UNL     1      65.765  67.382  70.751  0.00  0.00    +0.000 A 
ATOM     20  C   UNL     1      65.338  67.736  71.363  0.00  0.00    +0.000 A 
ATOM     21  C   UNL     1      64.657  67.373  71.653  0.00  0.00    +0.000 A 
ENDROOT
TORSDOF 0
ENDMDL
MODEL 8
REMARK VINA RESULT:    -9.760      5.636      6.544
REMARK INTER + INTRA:          -9.760
REMARK INTER:                  -9.760
REMARK INTRA:                   0.000
REMARK UNBOUND:                 0.000
ROOT
REMARK  Name = fludiazepam
REMARK                            x       y       z     vdW  Elec       q    Type
REMARK                         _______ _______ _______ _____ _____    ______ ____
ATOM      1  C   UNL     1      63.198  67.124  71.924  0.00  0.00    +0.000 C 
ATOM      2  N   UNL     1      62.785  66.435  72.115  0.00  0.00    +0.000 N 
ATOM      3  C   UNL     1      62.922  65.788  71.622  0.00  0.00    +0.000 A 
ATOM      4  C   UNL     1      63.460  65.973  71.024  0.00  0.00    +0.000 A 
ATOM      5  C   UNL     1      63.674  65.401  70.470  0.00  0.00    +0.000 A 
ATOM      6  C   UNL     1      63.350  64.644  70.513  0.00  0.00    +0.000 A 
ATOM      7 CL   UNL     1      63.563  64.071  69.959  0.00  0.00    +0.000 Cl
ATOM      8  C   UNL     1      62.812  64.458  71.110  0.00  0.00    +0.000 A 
ATOM      9  C   UNL     1      62.598  65.031  71.665  0.00  0.00    +0.000 A 
ATOM     10  C   UNL     1      62.057  64.734  72.212  0.00  0.00    +0.000 C 
ATOM     11  N   UNL     1      61.706  65.119  72.850  0.00  0.00    +0.000 NA
ATOM     12  C   UNL     1      61.810  65.899  73.100  0.00  0.00    +0.000 C 
ATOM     13  C   UNL     1      62.290  66.485  72.772  0.00  0.00    +0.000 C 
ATOM     14  O   UNL     1      62.273  67.216  73.154  0.00  0.00    +0.000 OA
ATOM     15  C   UNL     1      61.838  63.945  72.105  0.00  0.00    +0.000 A 
ATOM     16  C   UNL     1      62.157  63.508  71.483  0.00  0.00    +0.000 A 
ATOM     17  F   UNL     1      62.695  63.859  70.966  0.00  0.00    +0.000 F 
ATOM     18  C   UNL     1      61.937  62.720  71.377  0.00  0.00    +0.000 A 
ATOM     19  C   UNL     1      61.399  62.369  71.893  0.00  0.00    +0.000 A 
ATOM     20  C   UNL     1      61.080  62.806  72.517  0.00  0.00    +0.000 A 
ATOM     21  C   UNL     1      61.299  63.593  72.622  0.00  0.00    +0.000 A 
ENDROOT
TORSDOF 0
ENDMDL
MODEL 9
REMARK VINA RESULT:    -9.354      5.467      6.584
REMARK INTER + INTRA:          -9.354
REMARK INTER:                  -9.354
REMARK INTRA:                   0.000
REMARK UNBOUND:                 0.000
ROOT
REMARK  Name = fludiazepam
REMARK                            x       y       z     vdW  Elec       q    Type
REMARK                         _______ _______ _______ _____ _____    ______ ____
ATOM      1  C   UNL     1      59.594  66.549  73.159  0.00  0.00    +0.000 C 
ATOM      2  N   UNL     1      59.610  65.802  72.808  0.00  0.00    +0.000 N 
ATOM      3  C   UNL     1      60.359  65.502  72.641  0.00  0.00    +0.000 A 
ATOM      4  C   UNL     1      60.953  66.029  72.866  0.00  0.00    +0.000 A 
ATOM      5  C   UNL     1      61.745  65.834  72.746  0.00  0.00    +0.000 A 
ATOM      6  C   UNL     1      61.945  65.112  72.400  0.00  0.00    +0.000 A 
ATOM      7 CL   UNL     1      62.737  64.916  72.280  0.00  0.00    +0.000 Cl
ATOM      8  C   UNL     1      61.352  64.584  72.175  0.00  0.00    +0.000 A 
ATOM      9  C   UNL     1      60.559  64.780  72.295  0.00  0.00    +0.000 A 
ATOM     10  C   UNL     1      60.057  64.180  72.032  0.00  0.00    +0.000 C 
ATOM     11  N   UNL     1      59.233  64.153  72.049  0.00  0.00    +0.000 NA
ATOM     12  C   UNL     1      58.706  64.721  72.335  0.00  0.00    +0.000 C 
ATOM     13  C   UNL     1      58.874  65.455  72.672  0.00  0.00    +0.000 C 
ATOM     14  O   UNL     1      58.219  65.900  72.904  0.00  0.00    +0.000 OA
ATOM     15  C   UNL     1      60.430  63.518  71.708  0.00  0.00    +0.000 A 
ATOM     16  C   UNL     1      61.253  63.489  71.665  0.00  0.00    +0.000 A 
ATOM     17  F   UNL     1      61.704  64.120  71.944  0.00  0.00    +0.000 F 
ATOM     18  C   UNL     1      61.625  62.827  71.341  0.00  0.00    +0.000 A 
ATOM     19  C   UNL     1      61.175  62.196  71.062  0.00  0.00    +0.000 A 
ATOM     20  C   UNL     1      60.351  62.225  71.105  0.00  0.00    +0.000 A 
ATOM     21  C   UNL     1      59.979  62.887  71.429  0.00  0.00    +0.000 A 
ENDROOT
TORSDOF 0
ENDMDL
