MODEL 1
REMARK VINA RESULT:   -14.899      0.000      0.000
REMARK INTER + INTRA:         -14.899
REMARK INTER:                 -14.899
REMARK INTRA:                   0.000
REMARK UNBOUND:                 0.000
ROOT
REMARK  Name = fludrocortisone acetate
REMARK                            x       y       z     vdW  Elec       q    Type
REMARK                         _______ _______ _______ _____ _____    ______ ____
ATOM      1  C   UNL     1      61.820  65.052  70.795  0.00  0.00    +0.000 C 
ATOM      2  C   UNL     1      61.911  64.693  70.058  0.00  0.00    +0.000 C 
ATOM      3  O   UNL     1      62.631  64.744  69.659  0.00  0.00    +0.000 OA
ATOM      4  O   UNL     1      61.280  64.284  69.719  0.00  0.00    +0.000 OA
ATOM      5  C   UNL     1      61.370  63.925  68.981  0.00  0.00    +0.000 C 
ATOM      6  C   UNL     1      60.739  63.515  68.642  0.00  0.00    +0.000 C 
ATOM      7  O   UNL     1      60.018  63.464  69.040  0.00  0.00    +0.000 OA
ATOM      8  C   UNL     1      60.829  63.156  67.905  0.00  0.00    +0.000 C 
ATOM      9  O   UNL     1      60.044  62.929  68.015  0.00  0.00    +0.000 OA
ATOM     10  C   UNL     1      61.596  63.458  67.947  0.00  0.00    +0.000 C 
ATOM     11  C   UNL     1      61.996  63.239  67.260  0.00  0.00    +0.000 C 
ATOM     12  C   UNL     1      61.476  62.801  66.792  0.00  0.00    +0.000 C 
ATOM     13  C   UNL     1      61.566  62.443  66.055  0.00  0.00    +0.000 C 
ATOM     14  C   UNL     1      62.287  62.493  65.656  0.00  0.00    +0.000 C 
ATOM     15  C   UNL     1      62.377  62.135  64.918  0.00  0.00    +0.000 C 
ATOM     16  C   UNL     1      61.746  61.725  64.580  0.00  0.00    +0.000 C 
ATOM     17  C   UNL     1      61.836  61.366  63.842  0.00  0.00    +0.000 C 
ATOM     18  C   UNL     1      61.206  60.957  63.503  0.00  0.00    +0.000 C 
ATOM     19  O   UNL     1      61.295  60.598  62.766  0.00  0.00    +0.000 OA
ATOM     20  C   UNL     1      60.485  60.906  63.901  0.00  0.00    +0.000 C 
ATOM     21  C   UNL     1      60.395  61.265  64.638  0.00  0.00    +0.000 C 
ATOM     22  C   UNL     1      61.025  61.674  64.978  0.00  0.00    +0.000 C 
ATOM     23  C   UNL     1      60.304  61.623  65.376  0.00  0.00    +0.000 C 
ATOM     24  C   UNL     1      60.935  62.033  65.715  0.00  0.00    +0.000 C 
ATOM     25  F   UNL     1      60.150  61.806  65.826  0.00  0.00    +0.000 F 
ATOM     26  C   UNL     1      60.214  61.982  66.113  0.00  0.00    +0.000 C 
ATOM     27  O   UNL     1      59.584  61.572  65.774  0.00  0.00    +0.000 OA
ATOM     28  C   UNL     1      60.125  62.340  66.851  0.00  0.00    +0.000 C 
ATOM     29  C   UNL     1      60.756  62.750  67.190  0.00  0.00    +0.000 C 
ATOM     30  C   UNL     1      60.071  62.746  67.651  0.00  0.00    +0.000 C 
ENDROOT
TORSDOF 0
ENDMDL
MODEL 2
REMARK VINA RESULT:   -14.472      1.742      5.248
REMARK INTER + INTRA:         -14.472
REMARK INTER:                 -14.472
REMARK INTRA:                   0.000
REMARK UNBOUND:                 0.000
ROOT
REMARK  Name = fludrocortisone acetate
REMARK                            x       y       z     vdW  Elec       q    Type
REMARK                         _______ _______ _______ _____ _____    ______ ____
ATOM      1  C   UNL     1      60.942  61.128  63.819  0.00  0.00    +0.000 C 
ATOM      2  C   UNL     1      60.852  61.194  64.637  0.00  0.00    +0.000 C 
ATOM      3  O   UNL     1      60.451  60.610  65.057  0.00  0.00    +0.000 OA
ATOM      4  O   UNL     1      61.165  61.846  65.034  0.00  0.00    +0.000 OA
ATOM      5  C   UNL     1      61.076  61.913  65.851  0.00  0.00    +0.000 C 
ATOM      6  C   UNL     1      61.389  62.565  66.249  0.00  0.00    +0.000 C 
ATOM      7  O   UNL     1      61.792  63.150  65.829  0.00  0.00    +0.000 OA
ATOM      8  C   UNL     1      61.300  62.632  67.066  0.00  0.00    +0.000 C 
ATOM      9  O   UNL     1      61.720  63.335  66.968  0.00  0.00    +0.000 OA
ATOM     10  C   UNL     1      60.899  61.915  66.994  0.00  0.00    +0.000 C 
ATOM     11  C   UNL     1      60.649  61.685  67.746  0.00  0.00    +0.000 C 
ATOM     12  C   UNL     1      60.896  62.260  68.283  0.00  0.00    +0.000 C 
ATOM     13  C   UNL     1      60.807  62.327  69.101  0.00  0.00    +0.000 C 
ATOM     14  C   UNL     1      60.404  61.742  69.521  0.00  0.00    +0.000 C 
ATOM     15  C   UNL     1      60.315  61.809  70.339  0.00  0.00    +0.000 C 
ATOM     16  C   UNL     1      60.628  62.461  70.735  0.00  0.00    +0.000 C 
ATOM     17  C   UNL     1      60.539  62.528  71.554  0.00  0.00    +0.000 C 
ATOM     18  C   UNL     1      60.852  63.179  71.950  0.00  0.00    +0.000 C 
ATOM     19  O   UNL     1      60.763  63.246  72.767  0.00  0.00    +0.000 OA
ATOM     20  C   UNL     1      61.254  63.765  71.530  0.00  0.00    +0.000 C 
ATOM     21  C   UNL     1      61.343  63.698  70.713  0.00  0.00    +0.000 C 
ATOM     22  C   UNL     1      61.031  63.046  70.315  0.00  0.00    +0.000 C 
ATOM     23  C   UNL     1      61.433  63.632  69.895  0.00  0.00    +0.000 C 
ATOM     24  C   UNL     1      61.120  62.979  69.498  0.00  0.00    +0.000 C 
ATOM     25  F   UNL     1      61.540  63.683  69.400  0.00  0.00    +0.000 F 
ATOM     26  C   UNL     1      61.522  63.565  69.078  0.00  0.00    +0.000 C 
ATOM     27  O   UNL     1      61.835  64.216  69.476  0.00  0.00    +0.000 OA
ATOM     28  C   UNL     1      61.611  63.498  68.261  0.00  0.00    +0.000 C 
ATOM     29  C   UNL     1      61.298  62.845  67.863  0.00  0.00    +0.000 C 
ATOM     30  C   UNL     1      61.685  63.384  67.372  0.00  0.00    +0.000 C 
ENDROOT
TORSDOF 0
ENDMDL
MODEL 3
REMARK VINA RESULT:   -14.202      4.768      6.787
REMARK INTER + INTRA:         -14.202
REMARK INTER:                 -14.202
REMARK INTRA:                   0.000
REMARK UNBOUND:                 0.000
ROOT
REMARK  Name = fludrocortisone acetate
REMARK                            x       y       z     vdW  Elec       q    Type
REMARK                         _______ _______ _______ _____ _____    ______ ____
ATOM      1  C   UNL     1      60.128  61.612  70.969  0.00  0.00    +0.000 C 
ATOM      2  C   UNL     1      60.733  62.132  70.759  0.00  0.00    +0.000 C 
ATOM      3  O   UNL     1      61.127  62.041  70.041  0.00  0.00    +0.000 OA
ATOM      4  O   UNL     1      60.944  62.746  71.270  0.00  0.00    +0.000 OA
ATOM      5  C   UNL     1      61.549  63.266  71.062  0.00  0.00    +0.000 C 
ATOM      6  C   UNL     1      61.760  63.879  71.572  0.00  0.00    +0.000 C 
ATOM      7  O   UNL     1      61.366  63.972  72.291  0.00  0.00    +0.000 OA
ATOM      8  C   UNL     1      62.365  64.400  71.364  0.00  0.00    +0.000 C 
ATOM      9  O   UNL     1      62.198  64.750  72.091  0.00  0.00    +0.000 OA
ATOM     10  C   UNL     1      62.407  63.940  70.679  0.00  0.00    +0.000 C 
ATOM     11  C   UNL     1      63.003  64.250  70.200  0.00  0.00    +0.000 C 
ATOM     12  C   UNL     1      63.330  64.901  70.588  0.00  0.00    +0.000 C 
ATOM     13  C   UNL     1      63.935  65.421  70.379  0.00  0.00    +0.000 C 
ATOM     14  C   UNL     1      64.329  65.329  69.660  0.00  0.00    +0.000 C 
ATOM     15  C   UNL     1      64.934  65.850  69.452  0.00  0.00    +0.000 C 
ATOM     16  C   UNL     1      65.145  66.462  69.962  0.00  0.00    +0.000 C 
ATOM     17  C   UNL     1      65.751  66.983  69.753  0.00  0.00    +0.000 C 
ATOM     18  C   UNL     1      65.961  67.595  70.264  0.00  0.00    +0.000 C 
ATOM     19  O   UNL     1      66.566  68.116  70.055  0.00  0.00    +0.000 OA
ATOM     20  C   UNL     1      65.568  67.688  70.983  0.00  0.00    +0.000 C 
ATOM     21  C   UNL     1      64.962  67.167  71.191  0.00  0.00    +0.000 C 
ATOM     22  C   UNL     1      64.751  66.555  70.681  0.00  0.00    +0.000 C 
ATOM     23  C   UNL     1      64.357  66.647  71.400  0.00  0.00    +0.000 C 
ATOM     24  C   UNL     1      64.146  66.034  70.890  0.00  0.00    +0.000 C 
ATOM     25  F   UNL     1      63.978  66.385  71.617  0.00  0.00    +0.000 F 
ATOM     26  C   UNL     1      63.752  66.127  71.609  0.00  0.00    +0.000 C 
ATOM     27  O   UNL     1      63.964  66.740  72.118  0.00  0.00    +0.000 OA
ATOM     28  C   UNL     1      63.147  65.606  71.817  0.00  0.00    +0.000 C 
ATOM     29  C   UNL     1      62.936  64.993  71.306  0.00  0.00    +0.000 C 
ATOM     30  C   UNL     1      62.495  65.017  72.004  0.00  0.00    +0.000 C 
ENDROOT
TORSDOF 0
ENDMDL
MODEL 4
REMARK VINA RESULT:   -13.708      2.030      5.471
REMARK INTER + INTRA:         -13.708
REMARK INTER:                 -13.708
REMARK INTRA:                   0.000
REMARK UNBOUND:                 0.000
ROOT
REMARK  Name = fludrocortisone acetate
REMARK                            x       y       z     vdW  Elec       q    Type
REMARK                         _______ _______ _______ _____ _____    ______ ____
ATOM      1  C   UNL     1      61.961  61.867  64.789  0.00  0.00    +0.000 C 
ATOM      2  C   UNL     1      61.713  62.323  65.430  0.00  0.00    +0.000 C 
ATOM      3  O   UNL     1      61.615  63.137  65.345  0.00  0.00    +0.000 OA
ATOM      4  O   UNL     1      61.565  61.964  66.158  0.00  0.00    +0.000 OA
ATOM      5  C   UNL     1      61.317  62.420  66.800  0.00  0.00    +0.000 C 
ATOM      6  C   UNL     1      61.168  62.061  67.528  0.00  0.00    +0.000 C 
ATOM      7  O   UNL     1      61.267  61.246  67.614  0.00  0.00    +0.000 OA
ATOM      8  C   UNL     1      60.921  62.516  68.169  0.00  0.00    +0.000 C 
ATOM      9  O   UNL     1      60.918  61.796  68.570  0.00  0.00    +0.000 OA
ATOM     10  C   UNL     1      60.975  63.143  67.635  0.00  0.00    +0.000 C 
ATOM     11  C   UNL     1      60.761  63.835  68.030  0.00  0.00    +0.000 C 
ATOM     12  C   UNL     1      60.574  63.636  68.808  0.00  0.00    +0.000 C 
ATOM     13  C   UNL     1      60.326  64.092  69.450  0.00  0.00    +0.000 C 
ATOM     14  C   UNL     1      60.227  64.907  69.364  0.00  0.00    +0.000 C 
ATOM     15  C   UNL     1      59.980  65.362  70.006  0.00  0.00    +0.000 C 
ATOM     16  C   UNL     1      59.831  65.003  70.733  0.00  0.00    +0.000 C 
ATOM     17  C   UNL     1      59.583  65.460  71.375  0.00  0.00    +0.000 C 
ATOM     18  C   UNL     1      59.435  65.100  72.102  0.00  0.00    +0.000 C 
ATOM     19  O   UNL     1      59.187  65.556  72.744  0.00  0.00    +0.000 OA
ATOM     20  C   UNL     1      59.533  64.286  72.189  0.00  0.00    +0.000 C 
ATOM     21  C   UNL     1      59.781  63.830  71.547  0.00  0.00    +0.000 C 
ATOM     22  C   UNL     1      59.930  64.188  70.820  0.00  0.00    +0.000 C 
ATOM     23  C   UNL     1      60.028  63.374  70.906  0.00  0.00    +0.000 C 
ATOM     24  C   UNL     1      60.177  63.733  70.178  0.00  0.00    +0.000 C 
ATOM     25  F   UNL     1      60.174  63.012  70.579  0.00  0.00    +0.000 F 
ATOM     26  C   UNL     1      60.276  62.918  70.265  0.00  0.00    +0.000 C 
ATOM     27  O   UNL     1      60.127  62.560  70.992  0.00  0.00    +0.000 OA
ATOM     28  C   UNL     1      60.523  62.463  69.623  0.00  0.00    +0.000 C 
ATOM     29  C   UNL     1      60.672  62.822  68.895  0.00  0.00    +0.000 C 
ATOM     30  C   UNL     1      60.794  62.005  68.898  0.00  0.00    +0.000 C 
ENDROOT
TORSDOF 0
ENDMDL
MODEL 5
REMARK VINA RESULT:   -13.418      4.947      6.318
REMARK INTER + INTRA:         -13.418
REMARK INTER:                 -13.418
REMARK INTRA:                   0.000
REMARK UNBOUND:                 0.000
ROOT
REMARK  Name = fludrocortisone acetate
REMARK                            x       y       z     vdW  Elec       q    Type
REMARK                         _______ _______ _______ _____ _____    ______ ____
ATOM      1  C   UNL     1      63.489  69.496  73.166  0.00  0.00    +0.000 C 
ATOM      2  C   UNL     1      63.351  68.731  72.892  0.00  0.00    +0.000 C 
ATOM      3  O   UNL     1      63.950  68.314  72.508  0.00  0.00    +0.000 OA
ATOM      4  O   UNL     1      62.611  68.381  73.002  0.00  0.00    +0.000 OA
ATOM      5  C   UNL     1      62.472  67.615  72.728  0.00  0.00    +0.000 C 
ATOM      6  C   UNL     1      61.732  67.266  72.838  0.00  0.00    +0.000 C 
ATOM      7  O   UNL     1      61.132  67.682  73.222  0.00  0.00    +0.000 OA
ATOM      8  C   UNL     1      61.593  66.500  72.564  0.00  0.00    +0.000 C 
ATOM      9  O   UNL     1      60.839  66.618  72.876  0.00  0.00    +0.000 OA
ATOM     10  C   UNL     1      62.377  66.542  72.309  0.00  0.00    +0.000 C 
ATOM     11  C   UNL     1      62.564  65.826  71.943  0.00  0.00    +0.000 C 
ATOM     12  C   UNL     1      61.897  65.343  71.972  0.00  0.00    +0.000 C 
ATOM     13  C   UNL     1      61.758  64.577  71.698  0.00  0.00    +0.000 C 
ATOM     14  C   UNL     1      62.358  64.160  71.314  0.00  0.00    +0.000 C 
ATOM     15  C   UNL     1      62.219  63.395  71.040  0.00  0.00    +0.000 C 
ATOM     16  C   UNL     1      61.480  63.046  71.150  0.00  0.00    +0.000 C 
ATOM     17  C   UNL     1      61.341  62.280  70.876  0.00  0.00    +0.000 C 
ATOM     18  C   UNL     1      60.602  61.931  70.986  0.00  0.00    +0.000 C 
ATOM     19  O   UNL     1      60.462  61.165  70.712  0.00  0.00    +0.000 OA
ATOM     20  C   UNL     1      60.001  62.347  71.370  0.00  0.00    +0.000 C 
ATOM     21  C   UNL     1      60.141  63.112  71.644  0.00  0.00    +0.000 C 
ATOM     22  C   UNL     1      60.879  63.462  71.534  0.00  0.00    +0.000 C 
ATOM     23  C   UNL     1      60.279  63.878  71.918  0.00  0.00    +0.000 C 
ATOM     24  C   UNL     1      61.018  64.228  71.808  0.00  0.00    +0.000 C 
ATOM     25  F   UNL     1      60.264  64.346  72.120  0.00  0.00    +0.000 F 
ATOM     26  C   UNL     1      60.418  64.644  72.192  0.00  0.00    +0.000 C 
ATOM     27  O   UNL     1      59.680  64.294  72.301  0.00  0.00    +0.000 OA
ATOM     28  C   UNL     1      60.557  65.409  72.465  0.00  0.00    +0.000 C 
ATOM     29  C   UNL     1      61.297  65.759  72.355  0.00  0.00    +0.000 C 
ATOM     30  C   UNL     1      60.753  66.240  72.747  0.00  0.00    +0.000 C 
ENDROOT
TORSDOF 0
ENDMDL
MODEL 6
REMARK VINA RESULT:   -13.346      4.196      5.705
REMARK INTER + INTRA:         -13.346
REMARK INTER:                 -13.346
REMARK INTRA:                   0.000
REMARK UNBOUND:                 0.000
ROOT
REMARK  Name = fludrocortisone acetate
REMARK                            x       y       z     vdW  Elec       q    Type
REMARK                         _______ _______ _______ _____ _____    ______ ____
ATOM      1  C   UNL     1      66.771  67.687  70.632  0.00  0.00    +0.000 C 
ATOM      2  C   UNL     1      66.130  67.212  70.840  0.00  0.00    +0.000 C 
ATOM      3  O   UNL     1      65.867  67.190  71.621  0.00  0.00    +0.000 OA
ATOM      4  O   UNL     1      65.750  66.757  70.265  0.00  0.00    +0.000 OA
ATOM      5  C   UNL     1      65.109  66.281  70.473  0.00  0.00    +0.000 C 
ATOM      6  C   UNL     1      64.730  65.826  69.898  0.00  0.00    +0.000 C 
ATOM      7  O   UNL     1      64.992  65.846  69.116  0.00  0.00    +0.000 OA
ATOM      8  C   UNL     1      64.089  65.350  70.105  0.00  0.00    +0.000 C 
ATOM      9  O   UNL     1      64.088  65.150  69.305  0.00  0.00    +0.000 OA
ATOM     10  C   UNL     1      64.223  65.649  70.863  0.00  0.00    +0.000 C 
ATOM     11  C   UNL     1      63.664  65.316  71.371  0.00  0.00    +0.000 C 
ATOM     12  C   UNL     1      63.185  64.812  70.928  0.00  0.00    +0.000 C 
ATOM     13  C   UNL     1      62.544  64.336  71.135  0.00  0.00    +0.000 C 
ATOM     14  C   UNL     1      62.281  64.315  71.917  0.00  0.00    +0.000 C 
ATOM     15  C   UNL     1      61.640  63.839  72.125  0.00  0.00    +0.000 C 
ATOM     16  C   UNL     1      61.262  63.385  71.550  0.00  0.00    +0.000 C 
ATOM     17  C   UNL     1      60.620  62.908  71.758  0.00  0.00    +0.000 C 
ATOM     18  C   UNL     1      60.241  62.454  71.183  0.00  0.00    +0.000 C 
ATOM     19  O   UNL     1      59.600  61.978  71.391  0.00  0.00    +0.000 OA
ATOM     20  C   UNL     1      60.503  62.475  70.401  0.00  0.00    +0.000 C 
ATOM     21  C   UNL     1      61.144  62.950  70.194  0.00  0.00    +0.000 C 
ATOM     22  C   UNL     1      61.524  63.405  70.768  0.00  0.00    +0.000 C 
ATOM     23  C   UNL     1      61.786  63.426  69.986  0.00  0.00    +0.000 C 
ATOM     24  C   UNL     1      62.165  63.881  70.561  0.00  0.00    +0.000 C 
ATOM     25  F   UNL     1      62.164  63.681  69.760  0.00  0.00    +0.000 F 
ATOM     26  C   UNL     1      62.427  63.902  69.779  0.00  0.00    +0.000 C 
ATOM     27  O   UNL     1      62.048  63.447  69.205  0.00  0.00    +0.000 OA
ATOM     28  C   UNL     1      63.068  64.377  69.571  0.00  0.00    +0.000 C 
ATOM     29  C   UNL     1      63.447  64.832  70.146  0.00  0.00    +0.000 C 
ATOM     30  C   UNL     1      63.770  64.909  69.390  0.00  0.00    +0.000 C 
ENDROOT
TORSDOF 0
ENDMDL
MODEL 7
REMARK VINA RESULT:   -13.250      6.501      7.738
REMARK INTER + INTRA:         -13.250
REMARK INTER:                 -13.250
REMARK INTRA:                   0.000
REMARK UNBOUND:                 0.000
ROOT
REMARK  Name = fludrocortisone acetate
REMARK                            x       y       z     vdW  Elec       q    Type
REMARK                         _______ _______ _______ _____ _____    ______ ____
ATOM      1  C   UNL     1      57.855  65.341  72.831  0.00  0.00    +0.000 C 
ATOM      2  C   UNL     1      58.643  65.360  72.589  0.00  0.00    +0.000 C 
ATOM      3  O   UNL     1      58.952  64.744  72.137  0.00  0.00    +0.000 OA
ATOM      4  O   UNL     1      59.124  65.997  72.800  0.00  0.00    +0.000 OA
ATOM      5  C   UNL     1      59.912  66.017  72.559  0.00  0.00    +0.000 C 
ATOM      6  C   UNL     1      60.393  66.654  72.770  0.00  0.00    +0.000 C 
ATOM      7  O   UNL     1      60.085  67.271  73.222  0.00  0.00    +0.000 OA
ATOM      8  C   UNL     1      61.181  66.674  72.528  0.00  0.00    +0.000 C 
ATOM      9  O   UNL     1      61.198  67.391  72.934  0.00  0.00    +0.000 OA
ATOM     10  C   UNL     1      61.000  65.951  72.172  0.00  0.00    +0.000 C 
ATOM     11  C   UNL     1      61.680  65.675  71.795  0.00  0.00    +0.000 C 
ATOM     12  C   UNL     1      62.281  66.226  71.918  0.00  0.00    +0.000 C 
ATOM     13  C   UNL     1      63.070  66.246  71.676  0.00  0.00    +0.000 C 
ATOM     14  C   UNL     1      63.379  65.629  71.223  0.00  0.00    +0.000 C 
ATOM     15  C   UNL     1      64.167  65.649  70.982  0.00  0.00    +0.000 C 
ATOM     16  C   UNL     1      64.647  66.286  71.193  0.00  0.00    +0.000 C 
ATOM     17  C   UNL     1      65.436  66.305  70.951  0.00  0.00    +0.000 C 
ATOM     18  C   UNL     1      65.915  66.942  71.162  0.00  0.00    +0.000 C 
ATOM     19  O   UNL     1      66.704  66.962  70.921  0.00  0.00    +0.000 OA
ATOM     20  C   UNL     1      65.608  67.559  71.615  0.00  0.00    +0.000 C 
ATOM     21  C   UNL     1      64.819  67.539  71.857  0.00  0.00    +0.000 C 
ATOM     22  C   UNL     1      64.339  66.903  71.646  0.00  0.00    +0.000 C 
ATOM     23  C   UNL     1      64.031  67.520  72.099  0.00  0.00    +0.000 C 
ATOM     24  C   UNL     1      63.550  66.883  71.888  0.00  0.00    +0.000 C 
ATOM     25  F   UNL     1      63.567  67.601  72.294  0.00  0.00    +0.000 F 
ATOM     26  C   UNL     1      63.242  67.500  72.340  0.00  0.00    +0.000 C 
ATOM     27  O   UNL     1      63.723  68.136  72.551  0.00  0.00    +0.000 OA
ATOM     28  C   UNL     1      62.454  67.480  72.582  0.00  0.00    +0.000 C 
ATOM     29  C   UNL     1      61.973  66.843  72.371  0.00  0.00    +0.000 C 
ATOM     30  C   UNL     1      61.590  67.417  72.823  0.00  0.00    +0.000 C 
ENDROOT
TORSDOF 0
ENDMDL
MODEL 8
REMARK VINA RESULT:   -12.211      2.404      4.503
REMARK INTER + INTRA:         -12.211
REMARK INTER:                 -12.211
REMARK INTRA:                   0.000
REMARK UNBOUND:                 0.000
ROOT
REMARK  Name = fludrocortisone acetate
REMARK                            x       y       z     vdW  Elec       q    Type
REMARK                         _______ _______ _______ _____ _____    ______ ____
ATOM      1  C   UNL     1      62.807  68.464  73.212  0.00  0.00    +0.000 C 
ATOM      2  C   UNL     1      62.416  67.958  72.691  0.00  0.00    +0.000 C 
ATOM      3  O   UNL     1      61.593  67.968  72.643  0.00  0.00    +0.000 OA
ATOM      4  O   UNL     1      62.850  67.441  72.216  0.00  0.00    +0.000 OA
ATOM      5  C   UNL     1      62.460  66.935  71.694  0.00  0.00    +0.000 C 
ATOM      6  C   UNL     1      62.894  66.417  71.219  0.00  0.00    +0.000 C 
ATOM      7  O   UNL     1      63.718  66.406  71.266  0.00  0.00    +0.000 OA
ATOM      8  C   UNL     1      62.504  65.911  70.697  0.00  0.00    +0.000 C 
ATOM      9  O   UNL     1      63.266  65.661  70.506  0.00  0.00    +0.000 OA
ATOM     10  C   UNL     1      61.823  66.268  70.997  0.00  0.00    +0.000 C 
ATOM     11  C   UNL     1      61.171  65.929  70.621  0.00  0.00    +0.000 C 
ATOM     12  C   UNL     1      61.449  65.364  70.088  0.00  0.00    +0.000 C 
ATOM     13  C   UNL     1      61.059  64.858  69.566  0.00  0.00    +0.000 C 
ATOM     14  C   UNL     1      60.235  64.869  69.519  0.00  0.00    +0.000 C 
ATOM     15  C   UNL     1      59.846  64.363  68.997  0.00  0.00    +0.000 C 
ATOM     16  C   UNL     1      60.280  63.846  68.523  0.00  0.00    +0.000 C 
ATOM     17  C   UNL     1      59.889  63.340  68.000  0.00  0.00    +0.000 C 
ATOM     18  C   UNL     1      60.323  62.823  67.526  0.00  0.00    +0.000 C 
ATOM     19  O   UNL     1      59.933  62.317  67.004  0.00  0.00    +0.000 OA
ATOM     20  C   UNL     1      61.146  62.812  67.573  0.00  0.00    +0.000 C 
ATOM     21  C   UNL     1      61.536  63.318  68.095  0.00  0.00    +0.000 C 
ATOM     22  C   UNL     1      61.103  63.835  68.570  0.00  0.00    +0.000 C 
ATOM     23  C   UNL     1      61.927  63.824  68.617  0.00  0.00    +0.000 C 
ATOM     24  C   UNL     1      61.493  64.341  69.092  0.00  0.00    +0.000 C 
ATOM     25  F   UNL     1      62.256  64.090  68.900  0.00  0.00    +0.000 F 
ATOM     26  C   UNL     1      62.317  64.330  69.139  0.00  0.00    +0.000 C 
ATOM     27  O   UNL     1      62.749  63.813  68.664  0.00  0.00    +0.000 OA
ATOM     28  C   UNL     1      62.706  64.836  69.661  0.00  0.00    +0.000 C 
ATOM     29  C   UNL     1      62.273  65.353  70.135  0.00  0.00    +0.000 C 
ATOM     30  C   UNL     1      63.090  65.404  70.242  0.00  0.00    +0.000 C 
ENDROOT
TORSDOF 0
ENDMDL
