MODEL 1
REMARK VINA RESULT:   -15.555      0.000      0.000
REMARK INTER + INTRA:         -15.555
REMARK INTER:                 -15.555
REMARK INTRA:                   0.000
REMARK UNBOUND:                 0.000
ROOT
REMARK  Name = flumetasone acetate
REMARK                            x       y       z     vdW  Elec       q    Type
REMARK                         _______ _______ _______ _____ _____    ______ ____
ATOM      1  C   UNL     1      60.135  63.542  69.480  0.00  0.00    +0.000 C 
ATOM      2  C   UNL     1      60.458  63.304  68.758  0.00  0.00    +0.000 C 
ATOM      3  C   UNL     1      60.067  62.880  68.168  0.00  0.00    +0.000 C 
ATOM      4  C   UNL     1      60.595  62.763  67.546  0.00  0.00    +0.000 C 
ATOM      5  C   UNL     1      60.515  62.382  66.819  0.00  0.00    +0.000 C 
ATOM      6  C   UNL     1      59.798  62.030  66.613  0.00  0.00    +0.000 C 
ATOM      7  C   UNL     1      59.718  61.649  65.886  0.00  0.00    +0.000 C 
ATOM      8  F   UNL     1      59.001  61.297  65.681  0.00  0.00    +0.000 F 
ATOM      9  C   UNL     1      60.357  61.619  65.365  0.00  0.00    +0.000 C 
ATOM     10  C   UNL     1      60.276  61.237  64.637  0.00  0.00    +0.000 C 
ATOM     11  C   UNL     1      60.915  61.208  64.115  0.00  0.00    +0.000 C 
ATOM     12  O   UNL     1      60.835  60.826  63.388  0.00  0.00    +0.000 OA
ATOM     13  C   UNL     1      61.632  61.559  64.320  0.00  0.00    +0.000 C 
ATOM     14  C   UNL     1      61.712  61.940  65.047  0.00  0.00    +0.000 C 
ATOM     15  C   UNL     1      61.074  61.971  65.570  0.00  0.00    +0.000 C 
ATOM     16  C   UNL     1      61.792  62.322  65.774  0.00  0.00    +0.000 C 
ATOM     17  C   UNL     1      61.154  62.352  66.297  0.00  0.00    +0.000 C 
ATOM     18  F   UNL     1      61.941  62.576  66.190  0.00  0.00    +0.000 F 
ATOM     19  C   UNL     1      61.871  62.703  66.502  0.00  0.00    +0.000 C 
ATOM     20  O   UNL     1      62.509  62.673  65.979  0.00  0.00    +0.000 OA
ATOM     21  C   UNL     1      61.951  63.085  67.229  0.00  0.00    +0.000 C 
ATOM     22  C   UNL     1      61.312  63.114  67.751  0.00  0.00    +0.000 C 
ATOM     23  C   UNL     1      61.993  63.489  68.030  0.00  0.00    +0.000 C 
ATOM     24  C   UNL     1      61.228  63.449  68.501  0.00  0.00    +0.000 C 
ATOM     25  O   UNL     1      61.994  63.747  68.559  0.00  0.00    +0.000 OA
ATOM     26  C   UNL     1      61.476  63.862  69.171  0.00  0.00    +0.000 C 
ATOM     27  O   UNL     1      62.247  64.153  69.213  0.00  0.00    +0.000 OA
ATOM     28  C   UNL     1      60.954  63.983  69.797  0.00  0.00    +0.000 C 
ATOM     29  O   UNL     1      61.202  64.396  70.467  0.00  0.00    +0.000 OA
ATOM     30  C   UNL     1      60.680  64.518  71.094  0.00  0.00    +0.000 C 
ATOM     31  O   UNL     1      60.928  64.930  71.764  0.00  0.00    +0.000 OA
ATOM     32  C   UNL     1      59.909  64.226  71.051  0.00  0.00    +0.000 C 
ENDROOT
TORSDOF 0
ENDMDL
MODEL 2
REMARK VINA RESULT:   -15.157      1.558      4.939
REMARK INTER + INTRA:         -15.157
REMARK INTER:                 -15.157
REMARK INTRA:                   0.000
REMARK UNBOUND:                 0.000
ROOT
REMARK  Name = flumetasone acetate
REMARK                            x       y       z     vdW  Elec       q    Type
REMARK                         _______ _______ _______ _____ _____    ______ ____
ATOM      1  C   UNL     1      60.663  61.418  66.467  0.00  0.00    +0.000 C 
ATOM      2  C   UNL     1      60.825  61.850  67.150  0.00  0.00    +0.000 C 
ATOM      3  C   UNL     1      60.565  61.669  67.912  0.00  0.00    +0.000 C 
ATOM      4  C   UNL     1      60.855  62.247  68.424  0.00  0.00    +0.000 C 
ATOM      5  C   UNL     1      60.776  62.353  69.238  0.00  0.00    +0.000 C 
ATOM      6  C   UNL     1      60.336  61.815  69.684  0.00  0.00    +0.000 C 
ATOM      7  C   UNL     1      60.257  61.921  70.498  0.00  0.00    +0.000 C 
ATOM      8  F   UNL     1      59.817  61.383  70.943  0.00  0.00    +0.000 F 
ATOM      9  C   UNL     1      60.617  62.564  70.867  0.00  0.00    +0.000 C 
ATOM     10  C   UNL     1      60.537  62.670  71.682  0.00  0.00    +0.000 C 
ATOM     11  C   UNL     1      60.898  63.313  72.051  0.00  0.00    +0.000 C 
ATOM     12  O   UNL     1      60.819  63.419  72.865  0.00  0.00    +0.000 OA
ATOM     13  C   UNL     1      61.338  63.851  71.606  0.00  0.00    +0.000 C 
ATOM     14  C   UNL     1      61.417  63.746  70.792  0.00  0.00    +0.000 C 
ATOM     15  C   UNL     1      61.057  63.102  70.422  0.00  0.00    +0.000 C 
ATOM     16  C   UNL     1      61.497  63.640  69.977  0.00  0.00    +0.000 C 
ATOM     17  C   UNL     1      61.136  62.997  69.608  0.00  0.00    +0.000 C 
ATOM     18  F   UNL     1      61.604  63.664  69.480  0.00  0.00    +0.000 F 
ATOM     19  C   UNL     1      61.576  63.535  69.163  0.00  0.00    +0.000 C 
ATOM     20  O   UNL     1      61.936  64.178  69.533  0.00  0.00    +0.000 OA
ATOM     21  C   UNL     1      61.655  63.429  68.349  0.00  0.00    +0.000 C 
ATOM     22  C   UNL     1      61.295  62.785  67.980  0.00  0.00    +0.000 C 
ATOM     23  C   UNL     1      61.715  63.275  67.465  0.00  0.00    +0.000 C 
ATOM     24  C   UNL     1      61.277  62.540  67.192  0.00  0.00    +0.000 C 
ATOM     25  O   UNL     1      61.739  63.152  66.891  0.00  0.00    +0.000 OA
ATOM     26  C   UNL     1      61.454  62.585  66.387  0.00  0.00    +0.000 C 
ATOM     27  O   UNL     1      61.919  63.205  66.102  0.00  0.00    +0.000 OA
ATOM     28  C   UNL     1      61.168  62.012  65.869  0.00  0.00    +0.000 C 
ATOM     29  O   UNL     1      61.346  62.058  65.064  0.00  0.00    +0.000 OA
ATOM     30  C   UNL     1      61.060  61.483  64.545  0.00  0.00    +0.000 C 
ATOM     31  O   UNL     1      61.238  61.529  63.741  0.00  0.00    +0.000 OA
ATOM     32  C   UNL     1      60.595  60.865  64.831  0.00  0.00    +0.000 C 
ENDROOT
TORSDOF 0
ENDMDL
MODEL 3
REMARK VINA RESULT:   -14.608      3.745      5.441
REMARK INTER + INTRA:         -14.608
REMARK INTER:                 -14.608
REMARK INTRA:                   0.000
REMARK UNBOUND:                 0.000
ROOT
REMARK  Name = flumetasone acetate
REMARK                            x       y       z     vdW  Elec       q    Type
REMARK                         _______ _______ _______ _____ _____    ______ ____
ATOM      1  C   UNL     1      64.695  66.443  71.119  0.00  0.00    +0.000 C 
ATOM      2  C   UNL     1      64.144  65.867  70.906  0.00  0.00    +0.000 C 
ATOM      3  C   UNL     1      63.596  65.511  71.410  0.00  0.00    +0.000 C 
ATOM      4  C   UNL     1      63.157  64.971  70.968  0.00  0.00    +0.000 C 
ATOM      5  C   UNL     1      62.542  64.461  71.173  0.00  0.00    +0.000 C 
ATOM      6  C   UNL     1      62.264  64.439  71.950  0.00  0.00    +0.000 C 
ATOM      7  C   UNL     1      61.649  63.929  72.154  0.00  0.00    +0.000 C 
ATOM      8  F   UNL     1      61.373  63.908  72.931  0.00  0.00    +0.000 F 
ATOM      9  C   UNL     1      61.310  63.442  71.581  0.00  0.00    +0.000 C 
ATOM     10  C   UNL     1      60.694  62.932  71.787  0.00  0.00    +0.000 C 
ATOM     11  C   UNL     1      60.355  62.445  71.214  0.00  0.00    +0.000 C 
ATOM     12  O   UNL     1      59.740  61.935  71.418  0.00  0.00    +0.000 OA
ATOM     13  C   UNL     1      60.632  62.466  70.437  0.00  0.00    +0.000 C 
ATOM     14  C   UNL     1      61.247  62.976  70.232  0.00  0.00    +0.000 C 
ATOM     15  C   UNL     1      61.587  63.464  70.804  0.00  0.00    +0.000 C 
ATOM     16  C   UNL     1      61.863  63.485  70.027  0.00  0.00    +0.000 C 
ATOM     17  C   UNL     1      62.202  63.973  70.600  0.00  0.00    +0.000 C 
ATOM     18  F   UNL     1      62.230  63.759  69.804  0.00  0.00    +0.000 F 
ATOM     19  C   UNL     1      62.479  63.995  69.823  0.00  0.00    +0.000 C 
ATOM     20  O   UNL     1      62.139  63.507  69.251  0.00  0.00    +0.000 OA
ATOM     21  C   UNL     1      63.094  64.504  69.619  0.00  0.00    +0.000 C 
ATOM     22  C   UNL     1      63.434  64.992  70.191  0.00  0.00    +0.000 C 
ATOM     23  C   UNL     1      63.766  65.074  69.440  0.00  0.00    +0.000 C 
ATOM     24  C   UNL     1      64.044  65.547  70.152  0.00  0.00    +0.000 C 
ATOM     25  O   UNL     1      64.206  65.454  69.350  0.00  0.00    +0.000 OA
ATOM     26  C   UNL     1      64.637  65.986  69.784  0.00  0.00    +0.000 C 
ATOM     27  O   UNL     1      64.786  65.881  68.979  0.00  0.00    +0.000 OA
ATOM     28  C   UNL     1      65.080  66.528  70.218  0.00  0.00    +0.000 C 
ATOM     29  O   UNL     1      65.673  66.967  69.849  0.00  0.00    +0.000 OA
ATOM     30  C   UNL     1      66.117  67.510  70.284  0.00  0.00    +0.000 C 
ATOM     31  O   UNL     1      66.710  67.949  69.915  0.00  0.00    +0.000 OA
ATOM     32  C   UNL     1      65.966  67.614  71.089  0.00  0.00    +0.000 C 
ENDROOT
TORSDOF 0
ENDMDL
MODEL 4
REMARK VINA RESULT:   -14.565      4.218      6.202
REMARK INTER + INTRA:         -14.565
REMARK INTER:                 -14.565
REMARK INTRA:                   0.000
REMARK UNBOUND:                 0.000
ROOT
REMARK  Name = flumetasone acetate
REMARK                            x       y       z     vdW  Elec       q    Type
REMARK                         _______ _______ _______ _____ _____    ______ ____
ATOM      1  C   UNL     1      61.614  64.152  71.718  0.00  0.00    +0.000 C 
ATOM      2  C   UNL     1      62.235  64.533  71.330  0.00  0.00    +0.000 C 
ATOM      3  C   UNL     1      62.696  65.144  71.638  0.00  0.00    +0.000 C 
ATOM      4  C   UNL     1      63.250  65.358  71.065  0.00  0.00    +0.000 C 
ATOM      5  C   UNL     1      63.847  65.927  71.060  0.00  0.00    +0.000 C 
ATOM      6  C   UNL     1      63.967  66.406  71.721  0.00  0.00    +0.000 C 
ATOM      7  C   UNL     1      64.564  66.975  71.716  0.00  0.00    +0.000 C 
ATOM      8  F   UNL     1      64.683  67.453  72.378  0.00  0.00    +0.000 F 
ATOM      9  C   UNL     1      65.042  67.064  71.050  0.00  0.00    +0.000 C 
ATOM     10  C   UNL     1      65.640  67.634  71.046  0.00  0.00    +0.000 C 
ATOM     11  C   UNL     1      66.117  67.724  70.379  0.00  0.00    +0.000 C 
ATOM     12  O   UNL     1      66.715  68.293  70.374  0.00  0.00    +0.000 OA
ATOM     13  C   UNL     1      65.999  67.245  69.718  0.00  0.00    +0.000 C 
ATOM     14  C   UNL     1      65.401  66.676  69.723  0.00  0.00    +0.000 C 
ATOM     15  C   UNL     1      64.923  66.586  70.389  0.00  0.00    +0.000 C 
ATOM     16  C   UNL     1      64.804  66.107  69.727  0.00  0.00    +0.000 C 
ATOM     17  C   UNL     1      64.326  66.017  70.394  0.00  0.00    +0.000 C 
ATOM     18  F   UNL     1      64.470  65.734  69.632  0.00  0.00    +0.000 F 
ATOM     19  C   UNL     1      64.207  65.538  69.732  0.00  0.00    +0.000 C 
ATOM     20  O   UNL     1      64.685  65.629  69.067  0.00  0.00    +0.000 OA
ATOM     21  C   UNL     1      63.609  64.969  69.737  0.00  0.00    +0.000 C 
ATOM     22  C   UNL     1      63.131  64.879  70.404  0.00  0.00    +0.000 C 
ATOM     23  C   UNL     1      62.948  64.363  69.786  0.00  0.00    +0.000 C 
ATOM     24  C   UNL     1      62.503  64.369  70.567  0.00  0.00    +0.000 C 
ATOM     25  O   UNL     1      62.510  63.975  69.843  0.00  0.00    +0.000 OA
ATOM     26  C   UNL     1      61.965  63.765  70.406  0.00  0.00    +0.000 C 
ATOM     27  O   UNL     1      61.985  63.380  69.675  0.00  0.00    +0.000 OA
ATOM     28  C   UNL     1      61.409  63.545  70.973  0.00  0.00    +0.000 C 
ATOM     29  O   UNL     1      60.871  62.941  70.810  0.00  0.00    +0.000 OA
ATOM     30  C   UNL     1      60.314  62.720  71.378  0.00  0.00    +0.000 C 
ATOM     31  O   UNL     1      59.776  62.116  71.216  0.00  0.00    +0.000 OA
ATOM     32  C   UNL     1      60.295  63.105  72.107  0.00  0.00    +0.000 C 
ENDROOT
TORSDOF 0
ENDMDL
MODEL 5
REMARK VINA RESULT:   -14.525      2.067      5.696
REMARK INTER + INTRA:         -14.525
REMARK INTER:                 -14.525
REMARK INTRA:                   0.000
REMARK UNBOUND:                 0.000
ROOT
REMARK  Name = flumetasone acetate
REMARK                            x       y       z     vdW  Elec       q    Type
REMARK                         _______ _______ _______ _____ _____    ______ ____
ATOM      1  C   UNL     1      60.883  63.488  67.564  0.00  0.00    +0.000 C 
ATOM      2  C   UNL     1      60.655  63.612  68.347  0.00  0.00    +0.000 C 
ATOM      3  C   UNL     1      60.425  64.333  68.677  0.00  0.00    +0.000 C 
ATOM      4  C   UNL     1      60.244  64.203  69.471  0.00  0.00    +0.000 C 
ATOM      5  C   UNL     1      59.987  64.710  70.068  0.00  0.00    +0.000 C 
ATOM      6  C   UNL     1      59.868  65.511  69.908  0.00  0.00    +0.000 C 
ATOM      7  C   UNL     1      59.611  66.018  70.506  0.00  0.00    +0.000 C 
ATOM      8  F   UNL     1      59.493  66.818  70.345  0.00  0.00    +0.000 F 
ATOM      9  C   UNL     1      59.472  65.724  71.264  0.00  0.00    +0.000 C 
ATOM     10  C   UNL     1      59.215  66.232  71.862  0.00  0.00    +0.000 C 
ATOM     11  C   UNL     1      59.076  65.938  72.620  0.00  0.00    +0.000 C 
ATOM     12  O   UNL     1      58.819  66.445  73.218  0.00  0.00    +0.000 OA
ATOM     13  C   UNL     1      59.194  65.138  72.781  0.00  0.00    +0.000 C 
ATOM     14  C   UNL     1      59.451  64.631  72.183  0.00  0.00    +0.000 C 
ATOM     15  C   UNL     1      59.590  64.923  71.425  0.00  0.00    +0.000 C 
ATOM     16  C   UNL     1      59.708  64.123  71.586  0.00  0.00    +0.000 C 
ATOM     17  C   UNL     1      59.847  64.416  70.827  0.00  0.00    +0.000 C 
ATOM     18  F   UNL     1      59.862  63.735  71.293  0.00  0.00    +0.000 F 
ATOM     19  C   UNL     1      59.965  63.616  70.988  0.00  0.00    +0.000 C 
ATOM     20  O   UNL     1      59.826  63.323  71.747  0.00  0.00    +0.000 OA
ATOM     21  C   UNL     1      60.222  63.109  70.391  0.00  0.00    +0.000 C 
ATOM     22  C   UNL     1      60.362  63.402  69.632  0.00  0.00    +0.000 C 
ATOM     23  C   UNL     1      60.503  62.593  69.710  0.00  0.00    +0.000 C 
ATOM     24  C   UNL     1      60.616  63.037  68.937  0.00  0.00    +0.000 C 
ATOM     25  O   UNL     1      60.686  62.277  69.249  0.00  0.00    +0.000 OA
ATOM     26  C   UNL     1      60.864  62.405  68.469  0.00  0.00    +0.000 C 
ATOM     27  O   UNL     1      60.929  61.650  68.797  0.00  0.00    +0.000 OA
ATOM     28  C   UNL     1      61.047  62.526  67.674  0.00  0.00    +0.000 C 
ATOM     29  O   UNL     1      61.295  61.893  67.207  0.00  0.00    +0.000 OA
ATOM     30  C   UNL     1      61.478  62.015  66.411  0.00  0.00    +0.000 C 
ATOM     31  O   UNL     1      61.726  61.382  65.943  0.00  0.00    +0.000 OA
ATOM     32  C   UNL     1      61.413  62.769  66.084  0.00  0.00    +0.000 C 
ENDROOT
TORSDOF 0
ENDMDL
MODEL 6
REMARK VINA RESULT:   -14.086      5.236      6.626
REMARK INTER + INTRA:         -14.086
REMARK INTER:                 -14.086
REMARK INTRA:                   0.000
REMARK UNBOUND:                 0.000
ROOT
REMARK  Name = flumetasone acetate
REMARK                            x       y       z     vdW  Elec       q    Type
REMARK                         _______ _______ _______ _____ _____    ______ ____
ATOM      1  C   UNL     1      60.975  64.966  71.115  0.00  0.00    +0.000 C 
ATOM      2  C   UNL     1      61.675  65.389  71.225  0.00  0.00    +0.000 C 
ATOM      3  C   UNL     1      62.294  65.452  70.683  0.00  0.00    +0.000 C 
ATOM      4  C   UNL     1      62.880  65.925  71.019  0.00  0.00    +0.000 C 
ATOM      5  C   UNL     1      63.614  66.176  70.740  0.00  0.00    +0.000 C 
ATOM      6  C   UNL     1      63.872  65.946  69.990  0.00  0.00    +0.000 C 
ATOM      7  C   UNL     1      64.606  66.198  69.711  0.00  0.00    +0.000 C 
ATOM      8  F   UNL     1      64.863  65.968  68.961  0.00  0.00    +0.000 F 
ATOM      9  C   UNL     1      65.083  66.679  70.181  0.00  0.00    +0.000 C 
ATOM     10  C   UNL     1      65.818  66.930  69.901  0.00  0.00    +0.000 C 
ATOM     11  C   UNL     1      66.295  67.412  70.371  0.00  0.00    +0.000 C 
ATOM     12  O   UNL     1      67.029  67.663  70.092  0.00  0.00    +0.000 OA
ATOM     13  C   UNL     1      66.038  67.642  71.121  0.00  0.00    +0.000 C 
ATOM     14  C   UNL     1      65.304  67.390  71.400  0.00  0.00    +0.000 C 
ATOM     15  C   UNL     1      64.826  66.909  70.931  0.00  0.00    +0.000 C 
ATOM     16  C   UNL     1      64.569  67.139  71.680  0.00  0.00    +0.000 C 
ATOM     17  C   UNL     1      64.092  66.658  71.210  0.00  0.00    +0.000 C 
ATOM     18  F   UNL     1      64.142  67.040  71.940  0.00  0.00    +0.000 F 
ATOM     19  C   UNL     1      63.835  66.888  71.960  0.00  0.00    +0.000 C 
ATOM     20  O   UNL     1      64.313  67.369  72.429  0.00  0.00    +0.000 OA
ATOM     21  C   UNL     1      63.101  66.637  72.239  0.00  0.00    +0.000 C 
ATOM     22  C   UNL     1      62.623  66.155  71.769  0.00  0.00    +0.000 C 
ATOM     23  C   UNL     1      62.294  66.340  72.503  0.00  0.00    +0.000 C 
ATOM     24  C   UNL     1      61.878  65.824  71.896  0.00  0.00    +0.000 C 
ATOM     25  O   UNL     1      61.765  66.133  72.652  0.00  0.00    +0.000 OA
ATOM     26  C   UNL     1      61.189  65.668  72.322  0.00  0.00    +0.000 C 
ATOM     27  O   UNL     1      61.091  65.985  73.078  0.00  0.00    +0.000 OA
ATOM     28  C   UNL     1      60.599  65.196  71.993  0.00  0.00    +0.000 C 
ATOM     29  O   UNL     1      59.910  65.040  72.420  0.00  0.00    +0.000 OA
ATOM     30  C   UNL     1      59.318  64.567  72.090  0.00  0.00    +0.000 C 
ATOM     31  O   UNL     1      58.629  64.412  72.517  0.00  0.00    +0.000 OA
ATOM     32  C   UNL     1      59.417  64.251  71.335  0.00  0.00    +0.000 C 
ENDROOT
TORSDOF 0
ENDMDL
MODEL 7
REMARK VINA RESULT:   -13.900      3.693      5.506
REMARK INTER + INTRA:         -13.900
REMARK INTER:                 -13.900
REMARK INTRA:                   0.000
REMARK UNBOUND:                 0.000
ROOT
REMARK  Name = flumetasone acetate
REMARK                            x       y       z     vdW  Elec       q    Type
REMARK                         _______ _______ _______ _____ _____    ______ ____
ATOM      1  C   UNL     1      64.651  66.191  69.844  0.00  0.00    +0.000 C 
ATOM      2  C   UNL     1      64.067  65.740  70.214  0.00  0.00    +0.000 C 
ATOM      3  C   UNL     1      63.607  65.155  69.857  0.00  0.00    +0.000 C 
ATOM      4  C   UNL     1      63.097  64.849  70.428  0.00  0.00    +0.000 C 
ATOM      5  C   UNL     1      62.520  64.261  70.394  0.00  0.00    +0.000 C 
ATOM      6  C   UNL     1      62.375  63.865  69.685  0.00  0.00    +0.000 C 
ATOM      7  C   UNL     1      61.797  63.277  69.651  0.00  0.00    +0.000 C 
ATOM      8  F   UNL     1      61.652  62.882  68.941  0.00  0.00    +0.000 F 
ATOM      9  C   UNL     1      61.365  63.085  70.326  0.00  0.00    +0.000 C 
ATOM     10  C   UNL     1      60.787  62.496  70.291  0.00  0.00    +0.000 C 
ATOM     11  C   UNL     1      60.354  62.303  70.967  0.00  0.00    +0.000 C 
ATOM     12  O   UNL     1      59.777  61.715  70.933  0.00  0.00    +0.000 OA
ATOM     13  C   UNL     1      60.499  62.698  71.677  0.00  0.00    +0.000 C 
ATOM     14  C   UNL     1      61.077  63.286  71.711  0.00  0.00    +0.000 C 
ATOM     15  C   UNL     1      61.509  63.480  71.036  0.00  0.00    +0.000 C 
ATOM     16  C   UNL     1      61.654  63.875  71.746  0.00  0.00    +0.000 C 
ATOM     17  C   UNL     1      62.087  64.068  71.070  0.00  0.00    +0.000 C 
ATOM     18  F   UNL     1      61.982  64.245  71.869  0.00  0.00    +0.000 F 
ATOM     19  C   UNL     1      62.231  64.463  71.780  0.00  0.00    +0.000 C 
ATOM     20  O   UNL     1      61.799  64.269  72.454  0.00  0.00    +0.000 OA
ATOM     21  C   UNL     1      62.809  65.051  71.814  0.00  0.00    +0.000 C 
ATOM     22  C   UNL     1      63.242  65.244  71.138  0.00  0.00    +0.000 C 
ATOM     23  C   UNL     1      63.447  65.684  71.806  0.00  0.00    +0.000 C 
ATOM     24  C   UNL     1      63.842  65.795  71.006  0.00  0.00    +0.000 C 
ATOM     25  O   UNL     1      63.868  66.093  71.774  0.00  0.00    +0.000 OA
ATOM     26  C   UNL     1      64.369  66.394  71.213  0.00  0.00    +0.000 C 
ATOM     27  O   UNL     1      64.383  66.682  71.987  0.00  0.00    +0.000 OA
ATOM     28  C   UNL     1      64.882  66.706  70.648  0.00  0.00    +0.000 C 
ATOM     29  O   UNL     1      65.409  67.306  70.856  0.00  0.00    +0.000 OA
ATOM     30  C   UNL     1      65.923  67.618  70.290  0.00  0.00    +0.000 C 
ATOM     31  O   UNL     1      66.451  68.218  70.498  0.00  0.00    +0.000 OA
ATOM     32  C   UNL     1      65.909  67.330  69.517  0.00  0.00    +0.000 C 
ENDROOT
TORSDOF 0
ENDMDL
MODEL 8
REMARK VINA RESULT:   -13.793      5.470      6.785
REMARK INTER + INTRA:         -13.793
REMARK INTER:                 -13.793
REMARK INTRA:                   0.000
REMARK UNBOUND:                 0.000
ROOT
REMARK  Name = flumetasone acetate
REMARK                            x       y       z     vdW  Elec       q    Type
REMARK                         _______ _______ _______ _____ _____    ______ ____
ATOM      1  C   UNL     1      59.847  66.325  72.824  0.00  0.00    +0.000 C 
ATOM      2  C   UNL     1      60.610  66.190  72.540  0.00  0.00    +0.000 C 
ATOM      3  C   UNL     1      61.252  66.704  72.610  0.00  0.00    +0.000 C 
ATOM      4  C   UNL     1      61.903  66.348  72.250  0.00  0.00    +0.000 C 
ATOM      5  C   UNL     1      62.683  66.598  72.150  0.00  0.00    +0.000 C 
ATOM      6  C   UNL     1      62.923  67.331  72.443  0.00  0.00    +0.000 C 
ATOM      7  C   UNL     1      63.703  67.580  72.343  0.00  0.00    +0.000 C 
ATOM      8  F   UNL     1      63.942  68.314  72.636  0.00  0.00    +0.000 F 
ATOM      9  C   UNL     1      64.243  67.096  71.951  0.00  0.00    +0.000 C 
ATOM     10  C   UNL     1      65.024  67.346  71.852  0.00  0.00    +0.000 C 
ATOM     11  C   UNL     1      65.564  66.862  71.460  0.00  0.00    +0.000 C 
ATOM     12  O   UNL     1      66.344  67.111  71.360  0.00  0.00    +0.000 OA
ATOM     13  C   UNL     1      65.325  66.129  71.167  0.00  0.00    +0.000 C 
ATOM     14  C   UNL     1      64.545  65.879  71.266  0.00  0.00    +0.000 C 
ATOM     15  C   UNL     1      64.004  66.363  71.658  0.00  0.00    +0.000 C 
ATOM     16  C   UNL     1      63.765  65.629  71.366  0.00  0.00    +0.000 C 
ATOM     17  C   UNL     1      63.224  66.114  71.758  0.00  0.00    +0.000 C 
ATOM     18  F   UNL     1      63.316  65.388  71.375  0.00  0.00    +0.000 F 
ATOM     19  C   UNL     1      62.985  65.380  71.465  0.00  0.00    +0.000 C 
ATOM     20  O   UNL     1      63.526  64.897  71.073  0.00  0.00    +0.000 OA
ATOM     21  C   UNL     1      62.205  65.131  71.565  0.00  0.00    +0.000 C 
ATOM     22  C   UNL     1      61.664  65.615  71.957  0.00  0.00    +0.000 C 
ATOM     23  C   UNL     1      61.347  64.899  71.695  0.00  0.00    +0.000 C 
ATOM     24  C   UNL     1      60.865  65.516  72.136  0.00  0.00    +0.000 C 
ATOM     25  O   UNL     1      60.781  64.772  71.794  0.00  0.00    +0.000 OA
ATOM     26  C   UNL     1      60.141  65.120  72.148  0.00  0.00    +0.000 C 
ATOM     27  O   UNL     1      60.075  64.375  71.800  0.00  0.00    +0.000 OA
ATOM     28  C   UNL     1      59.486  65.469  72.506  0.00  0.00    +0.000 C 
ATOM     29  O   UNL     1      58.762  65.072  72.517  0.00  0.00    +0.000 OA
ATOM     30  C   UNL     1      58.105  65.421  72.875  0.00  0.00    +0.000 C 
ATOM     31  O   UNL     1      57.382  65.024  72.886  0.00  0.00    +0.000 OA
ATOM     32  C   UNL     1      58.173  66.166  73.222  0.00  0.00    +0.000 C 
ENDROOT
TORSDOF 0
ENDMDL
MODEL 9
REMARK VINA RESULT:   -13.079      5.349      6.803
REMARK INTER + INTRA:         -13.079
REMARK INTER:                 -13.079
REMARK INTRA:                   0.000
REMARK UNBOUND:                 0.000
ROOT
REMARK  Name = flumetasone acetate
REMARK                            x       y       z     vdW  Elec       q    Type
REMARK                         _______ _______ _______ _____ _____    ______ ____
ATOM      1  C   UNL     1      64.095  66.218  70.814  0.00  0.00    +0.000 C 
ATOM      2  C   UNL     1      63.364  66.233  71.194  0.00  0.00    +0.000 C 
ATOM      3  C   UNL     1      62.732  65.720  71.053  0.00  0.00    +0.000 C 
ATOM      4  C   UNL     1      62.114  65.933  71.555  0.00  0.00    +0.000 C 
ATOM      5  C   UNL     1      61.356  65.624  71.659  0.00  0.00    +0.000 C 
ATOM      6  C   UNL     1      61.107  64.980  71.207  0.00  0.00    +0.000 C 
ATOM      7  C   UNL     1      60.350  64.671  71.311  0.00  0.00    +0.000 C 
ATOM      8  F   UNL     1      60.101  64.027  70.859  0.00  0.00    +0.000 F 
ATOM      9  C   UNL     1      59.841  65.006  71.867  0.00  0.00    +0.000 C 
ATOM     10  C   UNL     1      59.082  64.696  71.971  0.00  0.00    +0.000 C 
ATOM     11  C   UNL     1      58.574  65.031  72.527  0.00  0.00    +0.000 C 
ATOM     12  O   UNL     1      57.816  64.722  72.631  0.00  0.00    +0.000 OA
ATOM     13  C   UNL     1      58.822  65.675  72.979  0.00  0.00    +0.000 C 
ATOM     14  C   UNL     1      59.579  65.984  72.875  0.00  0.00    +0.000 C 
ATOM     15  C   UNL     1      60.089  65.650  72.319  0.00  0.00    +0.000 C 
ATOM     16  C   UNL     1      60.337  66.294  72.771  0.00  0.00    +0.000 C 
ATOM     17  C   UNL     1      60.847  65.959  72.215  0.00  0.00    +0.000 C 
ATOM     18  F   UNL     1      60.775  66.553  72.783  0.00  0.00    +0.000 F 
ATOM     19  C   UNL     1      61.095  66.603  72.667  0.00  0.00    +0.000 C 
ATOM     20  O   UNL     1      60.585  66.937  73.222  0.00  0.00    +0.000 OA
ATOM     21  C   UNL     1      61.852  66.912  72.563  0.00  0.00    +0.000 C 
ATOM     22  C   UNL     1      62.362  66.577  72.007  0.00  0.00    +0.000 C 
ATOM     23  C   UNL     1      62.685  67.217  72.417  0.00  0.00    +0.000 C 
ATOM     24  C   UNL     1      63.135  66.763  71.784  0.00  0.00    +0.000 C 
ATOM     25  O   UNL     1      63.233  67.396  72.302  0.00  0.00    +0.000 OA
ATOM     26  C   UNL     1      63.841  67.187  71.809  0.00  0.00    +0.000 C 
ATOM     27  O   UNL     1      63.924  67.819  72.334  0.00  0.00    +0.000 OA
ATOM     28  C   UNL     1      64.465  66.981  71.311  0.00  0.00    +0.000 C 
ATOM     29  O   UNL     1      65.171  67.406  71.336  0.00  0.00    +0.000 OA
ATOM     30  C   UNL     1      65.796  67.199  70.837  0.00  0.00    +0.000 C 
ATOM     31  O   UNL     1      66.502  67.624  70.862  0.00  0.00    +0.000 OA
ATOM     32  C   UNL     1      65.712  66.568  70.313  0.00  0.00    +0.000 C 
ENDROOT
TORSDOF 0
ENDMDL
