MODEL 1
REMARK VINA RESULT:   -14.395      0.000      0.000
REMARK INTER + INTRA:         -14.395
REMARK INTER:                 -14.395
REMARK INTRA:                   0.000
REMARK UNBOUND:                 0.000
ROOT
REMARK  Name = flumedroxone
REMARK                            x       y       z     vdW  Elec       q    Type
REMARK                         _______ _______ _______ _____ _____    ______ ____
ATOM      1  C   UNL     1      59.463  66.865  72.866  0.00  0.00    +0.000 C 
ATOM      2  C   UNL     1      59.365  66.398  72.193  0.00  0.00    +0.000 C 
ATOM      3  O   UNL     1      58.914  66.674  71.560  0.00  0.00    +0.000 OA
ATOM      4  C   UNL     1      59.720  65.654  72.153  0.00  0.00    +0.000 C 
ATOM      5  O   UNL     1      59.998  65.841  72.906  0.00  0.00    +0.000 OA
ATOM      6  C   UNL     1      59.367  65.622  71.408  0.00  0.00    +0.000 C 
ATOM      7  C   UNL     1      59.562  64.897  71.064  0.00  0.00    +0.000 C 
ATOM      8  C   UNL     1      60.035  64.481  71.597  0.00  0.00    +0.000 C 
ATOM      9  C   UNL     1      60.389  63.737  71.557  0.00  0.00    +0.000 C 
ATOM     10  C   UNL     1      60.292  63.269  70.885  0.00  0.00    +0.000 C 
ATOM     11  C   UNL     1      60.646  62.525  70.845  0.00  0.00    +0.000 C 
ATOM     12  C   UNL     1      61.098  62.250  71.478  0.00  0.00    +0.000 C 
ATOM     13  C   UNL     1      61.452  61.505  71.437  0.00  0.00    +0.000 C 
ATOM     14  C   UNL     1      61.903  61.229  72.070  0.00  0.00    +0.000 C 
ATOM     15  O   UNL     1      62.258  60.485  72.030  0.00  0.00    +0.000 OA
ATOM     16  C   UNL     1      62.001  61.696  72.743  0.00  0.00    +0.000 C 
ATOM     17  C   UNL     1      61.646  62.440  72.783  0.00  0.00    +0.000 C 
ATOM     18  C   UNL     1      61.195  62.717  72.151  0.00  0.00    +0.000 C 
ATOM     19  C   UNL     1      61.292  63.184  72.823  0.00  0.00    +0.000 C 
ATOM     20  C   UNL     1      60.841  63.461  72.190  0.00  0.00    +0.000 C 
ATOM     21  C   UNL     1      60.938  63.928  72.863  0.00  0.00    +0.000 C 
ATOM     22  C   UNL     1      60.584  64.672  72.903  0.00  0.00    +0.000 C 
ATOM     23  C   UNL     1      60.132  64.948  72.270  0.00  0.00    +0.000 C 
ATOM     24  C   UNL     1      60.180  65.475  72.904  0.00  0.00    +0.000 C 
ATOM     25  C   UNL     1      60.549  62.058  70.172  0.00  0.00    +0.000 C 
ATOM     26  F   UNL     1      60.452  61.591  69.499  0.00  0.00    +0.000 F 
ATOM     27  F   UNL     1      61.014  61.469  70.514  0.00  0.00    +0.000 F 
ATOM     28  F   UNL     1      60.084  62.648  69.830  0.00  0.00    +0.000 F 
ENDROOT
TORSDOF 0
ENDMDL
MODEL 2
REMARK VINA RESULT:   -13.908      2.687      4.141
REMARK INTER + INTRA:         -13.908
REMARK INTER:                 -13.908
REMARK INTRA:                   0.000
REMARK UNBOUND:                 0.000
ROOT
REMARK  Name = flumedroxone
REMARK                            x       y       z     vdW  Elec       q    Type
REMARK                         _______ _______ _______ _____ _____    ______ ____
ATOM      1  C   UNL     1      59.987  62.078  66.376  0.00  0.00    +0.000 C 
ATOM      2  C   UNL     1      60.517  62.635  66.675  0.00  0.00    +0.000 C 
ATOM      3  O   UNL     1      60.890  63.166  66.164  0.00  0.00    +0.000 OA
ATOM      4  C   UNL     1      60.675  62.661  67.484  0.00  0.00    +0.000 C 
ATOM      5  O   UNL     1      60.141  62.034  67.521  0.00  0.00    +0.000 OA
ATOM      6  C   UNL     1      61.177  63.283  67.279  0.00  0.00    +0.000 C 
ATOM      7  C   UNL     1      61.533  63.562  67.969  0.00  0.00    +0.000 C 
ATOM      8  C   UNL     1      61.251  63.113  68.600  0.00  0.00    +0.000 C 
ATOM      9  C   UNL     1      61.409  63.139  69.410  0.00  0.00    +0.000 C 
ATOM     10  C   UNL     1      61.939  63.696  69.710  0.00  0.00    +0.000 C 
ATOM     11  C   UNL     1      62.097  63.722  70.519  0.00  0.00    +0.000 C 
ATOM     12  C   UNL     1      61.724  63.191  71.028  0.00  0.00    +0.000 C 
ATOM     13  C   UNL     1      61.882  63.217  71.838  0.00  0.00    +0.000 C 
ATOM     14  C   UNL     1      61.510  62.686  72.348  0.00  0.00    +0.000 C 
ATOM     15  O   UNL     1      61.667  62.712  73.157  0.00  0.00    +0.000 OA
ATOM     16  C   UNL     1      60.980  62.129  72.049  0.00  0.00    +0.000 C 
ATOM     17  C   UNL     1      60.822  62.104  71.239  0.00  0.00    +0.000 C 
ATOM     18  C   UNL     1      61.194  62.634  70.729  0.00  0.00    +0.000 C 
ATOM     19  C   UNL     1      60.664  62.077  70.430  0.00  0.00    +0.000 C 
ATOM     20  C   UNL     1      61.036  62.608  69.920  0.00  0.00    +0.000 C 
ATOM     21  C   UNL     1      60.506  62.051  69.621  0.00  0.00    +0.000 C 
ATOM     22  C   UNL     1      60.349  62.025  68.812  0.00  0.00    +0.000 C 
ATOM     23  C   UNL     1      60.721  62.556  68.301  0.00  0.00    +0.000 C 
ATOM     24  C   UNL     1      60.207  62.032  67.924  0.00  0.00    +0.000 C 
ATOM     25  C   UNL     1      62.627  64.279  70.818  0.00  0.00    +0.000 C 
ATOM     26  F   UNL     1      63.157  64.836  71.117  0.00  0.00    +0.000 F 
ATOM     27  F   UNL     1      62.503  63.988  71.580  0.00  0.00    +0.000 F 
ATOM     28  F   UNL     1      62.750  64.570  70.056  0.00  0.00    +0.000 F 
ENDROOT
TORSDOF 0
ENDMDL
MODEL 3
REMARK VINA RESULT:   -13.546      4.191      5.002
REMARK INTER + INTRA:         -13.546
REMARK INTER:                 -13.546
REMARK INTRA:                   0.000
REMARK UNBOUND:                 0.000
ROOT
REMARK  Name = flumedroxone
REMARK                            x       y       z     vdW  Elec       q    Type
REMARK                         _______ _______ _______ _____ _____    ______ ____
ATOM      1  C   UNL     1      61.014  62.854  71.817  0.00  0.00    +0.000 C 
ATOM      2  C   UNL     1      61.169  63.568  72.199  0.00  0.00    +0.000 C 
ATOM      3  O   UNL     1      60.728  63.787  72.861  0.00  0.00    +0.000 OA
ATOM      4  C   UNL     1      61.766  64.064  71.918  0.00  0.00    +0.000 C 
ATOM      5  O   UNL     1      61.868  63.477  71.349  0.00  0.00    +0.000 OA
ATOM      6  C   UNL     1      61.539  64.549  72.547  0.00  0.00    +0.000 C 
ATOM      7  C   UNL     1      62.017  65.221  72.536  0.00  0.00    +0.000 C 
ATOM      8  C   UNL     1      62.539  65.153  71.901  0.00  0.00    +0.000 C 
ATOM      9  C   UNL     1      63.136  65.648  71.621  0.00  0.00    +0.000 C 
ATOM     10  C   UNL     1      63.292  66.364  72.002  0.00  0.00    +0.000 C 
ATOM     11  C   UNL     1      63.888  66.859  71.722  0.00  0.00    +0.000 C 
ATOM     12  C   UNL     1      64.329  66.640  71.060  0.00  0.00    +0.000 C 
ATOM     13  C   UNL     1      64.926  67.137  70.780  0.00  0.00    +0.000 C 
ATOM     14  C   UNL     1      65.367  66.918  70.119  0.00  0.00    +0.000 C 
ATOM     15  O   UNL     1      65.964  67.414  69.839  0.00  0.00    +0.000 OA
ATOM     16  C   UNL     1      65.212  66.203  69.737  0.00  0.00    +0.000 C 
ATOM     17  C   UNL     1      64.615  65.707  70.017  0.00  0.00    +0.000 C 
ATOM     18  C   UNL     1      64.174  65.925  70.679  0.00  0.00    +0.000 C 
ATOM     19  C   UNL     1      64.019  65.211  70.297  0.00  0.00    +0.000 C 
ATOM     20  C   UNL     1      63.577  65.430  70.959  0.00  0.00    +0.000 C 
ATOM     21  C   UNL     1      63.422  64.715  70.577  0.00  0.00    +0.000 C 
ATOM     22  C   UNL     1      62.825  64.219  70.857  0.00  0.00    +0.000 C 
ATOM     23  C   UNL     1      62.384  64.438  71.519  0.00  0.00    +0.000 C 
ATOM     24  C   UNL     1      62.167  63.710  71.196  0.00  0.00    +0.000 C 
ATOM     25  C   UNL     1      64.044  67.574  72.104  0.00  0.00    +0.000 C 
ATOM     26  F   UNL     1      64.199  68.289  72.486  0.00  0.00    +0.000 F 
ATOM     27  F   UNL     1      64.643  67.734  71.560  0.00  0.00    +0.000 F 
ATOM     28  F   UNL     1      63.444  67.414  72.648  0.00  0.00    +0.000 F 
ENDROOT
TORSDOF 0
ENDMDL
MODEL 4
REMARK VINA RESULT:   -13.522      4.207      4.645
REMARK INTER + INTRA:         -13.522
REMARK INTER:                 -13.522
REMARK INTRA:                   0.000
REMARK UNBOUND:                 0.000
ROOT
REMARK  Name = flumedroxone
REMARK                            x       y       z     vdW  Elec       q    Type
REMARK                         _______ _______ _______ _____ _____    ______ ____
ATOM      1  C   UNL     1      66.200  67.535  70.092  0.00  0.00    +0.000 C 
ATOM      2  C   UNL     1      65.761  67.269  70.738  0.00  0.00    +0.000 C 
ATOM      3  O   UNL     1      65.924  67.555  71.495  0.00  0.00    +0.000 OA
ATOM      4  C   UNL     1      65.158  66.717  70.626  0.00  0.00    +0.000 C 
ATOM      5  O   UNL     1      65.379  66.763  69.834  0.00  0.00    +0.000 OA
ATOM      6  C   UNL     1      65.062  66.786  71.443  0.00  0.00    +0.000 C 
ATOM      7  C   UNL     1      64.446  66.286  71.671  0.00  0.00    +0.000 C 
ATOM      8  C   UNL     1      64.162  65.908  70.995  0.00  0.00    +0.000 C 
ATOM      9  C   UNL     1      63.559  65.356  70.884  0.00  0.00    +0.000 C 
ATOM     10  C   UNL     1      63.119  65.089  71.529  0.00  0.00    +0.000 C 
ATOM     11  C   UNL     1      62.516  64.537  71.418  0.00  0.00    +0.000 C 
ATOM     12  C   UNL     1      62.354  64.252  70.661  0.00  0.00    +0.000 C 
ATOM     13  C   UNL     1      61.750  63.699  70.551  0.00  0.00    +0.000 C 
ATOM     14  C   UNL     1      61.588  63.413  69.794  0.00  0.00    +0.000 C 
ATOM     15  O   UNL     1      60.985  62.861  69.683  0.00  0.00    +0.000 OA
ATOM     16  C   UNL     1      62.027  63.680  69.149  0.00  0.00    +0.000 C 
ATOM     17  C   UNL     1      62.630  64.232  69.260  0.00  0.00    +0.000 C 
ATOM     18  C   UNL     1      62.793  64.518  70.016  0.00  0.00    +0.000 C 
ATOM     19  C   UNL     1      63.233  64.784  69.370  0.00  0.00    +0.000 C 
ATOM     20  C   UNL     1      63.396  65.070  70.127  0.00  0.00    +0.000 C 
ATOM     21  C   UNL     1      63.835  65.336  69.482  0.00  0.00    +0.000 C 
ATOM     22  C   UNL     1      64.438  65.888  69.593  0.00  0.00    +0.000 C 
ATOM     23  C   UNL     1      64.601  66.174  70.350  0.00  0.00    +0.000 C 
ATOM     24  C   UNL     1      65.085  66.490  69.760  0.00  0.00    +0.000 C 
ATOM     25  C   UNL     1      62.077  64.271  72.063  0.00  0.00    +0.000 C 
ATOM     26  F   UNL     1      61.638  64.005  72.709  0.00  0.00    +0.000 F 
ATOM     27  F   UNL     1      61.635  63.787  71.563  0.00  0.00    +0.000 F 
ATOM     28  F   UNL     1      62.519  64.755  72.564  0.00  0.00    +0.000 F 
ENDROOT
TORSDOF 0
ENDMDL
MODEL 5
REMARK VINA RESULT:   -13.425      1.549      2.580
REMARK INTER + INTRA:         -13.425
REMARK INTER:                 -13.425
REMARK INTRA:                   0.000
REMARK UNBOUND:                 0.000
ROOT
REMARK  Name = flumedroxone
REMARK                            x       y       z     vdW  Elec       q    Type
REMARK                         _______ _______ _______ _____ _____    ______ ____
ATOM      1  C   UNL     1      59.215  67.343  71.389  0.00  0.00    +0.000 C 
ATOM      2  C   UNL     1      59.314  66.597  71.729  0.00  0.00    +0.000 C 
ATOM      3  O   UNL     1      59.213  66.497  72.542  0.00  0.00    +0.000 OA
ATOM      4  C   UNL     1      59.513  65.952  71.255  0.00  0.00    +0.000 C 
ATOM      5  O   UNL     1      59.493  66.504  70.643  0.00  0.00    +0.000 OA
ATOM      6  C   UNL     1      59.491  65.533  71.966  0.00  0.00    +0.000 C 
ATOM      7  C   UNL     1      59.672  64.745  71.804  0.00  0.00    +0.000 C 
ATOM      8  C   UNL     1      59.806  64.676  70.993  0.00  0.00    +0.000 C 
ATOM      9  C   UNL     1      60.006  64.030  70.520  0.00  0.00    +0.000 C 
ATOM     10  C   UNL     1      60.104  63.284  70.859  0.00  0.00    +0.000 C 
ATOM     11  C   UNL     1      60.303  62.639  70.385  0.00  0.00    +0.000 C 
ATOM     12  C   UNL     1      60.404  62.740  69.573  0.00  0.00    +0.000 C 
ATOM     13  C   UNL     1      60.603  62.093  69.099  0.00  0.00    +0.000 C 
ATOM     14  C   UNL     1      60.703  62.194  68.287  0.00  0.00    +0.000 C 
ATOM     15  O   UNL     1      60.902  61.548  67.813  0.00  0.00    +0.000 OA
ATOM     16  C   UNL     1      60.605  62.939  67.947  0.00  0.00    +0.000 C 
ATOM     17  C   UNL     1      60.406  63.584  68.421  0.00  0.00    +0.000 C 
ATOM     18  C   UNL     1      60.305  63.485  69.233  0.00  0.00    +0.000 C 
ATOM     19  C   UNL     1      60.207  64.230  68.894  0.00  0.00    +0.000 C 
ATOM     20  C   UNL     1      60.106  64.130  69.707  0.00  0.00    +0.000 C 
ATOM     21  C   UNL     1      60.008  64.876  69.367  0.00  0.00    +0.000 C 
ATOM     22  C   UNL     1      59.808  65.521  69.841  0.00  0.00    +0.000 C 
ATOM     23  C   UNL     1      59.708  65.421  70.654  0.00  0.00    +0.000 C 
ATOM     24  C   UNL     1      59.592  66.196  70.394  0.00  0.00    +0.000 C 
ATOM     25  C   UNL     1      60.402  61.894  70.725  0.00  0.00    +0.000 C 
ATOM     26  F   UNL     1      60.500  61.148  71.064  0.00  0.00    +0.000 F 
ATOM     27  F   UNL     1      60.575  61.578  69.982  0.00  0.00    +0.000 F 
ATOM     28  F   UNL     1      60.229  62.209  71.467  0.00  0.00    +0.000 F 
ENDROOT
TORSDOF 0
ENDMDL
MODEL 6
REMARK VINA RESULT:   -13.216      3.909      4.119
REMARK INTER + INTRA:         -13.216
REMARK INTER:                 -13.216
REMARK INTRA:                   0.000
REMARK UNBOUND:                 0.000
ROOT
REMARK  Name = flumedroxone
REMARK                            x       y       z     vdW  Elec       q    Type
REMARK                         _______ _______ _______ _____ _____    ______ ____
ATOM      1  C   UNL     1      65.884  67.625  70.968  0.00  0.00    +0.000 C 
ATOM      2  C   UNL     1      65.583  67.167  70.352  0.00  0.00    +0.000 C 
ATOM      3  O   UNL     1      65.903  67.233  69.594  0.00  0.00    +0.000 OA
ATOM      4  C   UNL     1      64.962  66.643  70.492  0.00  0.00    +0.000 C 
ATOM      5  O   UNL     1      65.015  66.922  71.266  0.00  0.00    +0.000 OA
ATOM      6  C   UNL     1      65.037  66.472  69.688  0.00  0.00    +0.000 C 
ATOM      7  C   UNL     1      64.474  65.902  69.494  0.00  0.00    +0.000 C 
ATOM      8  C   UNL     1      64.050  65.719  70.178  0.00  0.00    +0.000 C 
ATOM      9  C   UNL     1      63.429  65.195  70.319  0.00  0.00    +0.000 C 
ATOM     10  C   UNL     1      63.127  64.737  69.702  0.00  0.00    +0.000 C 
ATOM     11  C   UNL     1      62.505  64.213  69.843  0.00  0.00    +0.000 C 
ATOM     12  C   UNL     1      62.186  64.148  70.601  0.00  0.00    +0.000 C 
ATOM     13  C   UNL     1      61.564  63.623  70.741  0.00  0.00    +0.000 C 
ATOM     14  C   UNL     1      61.244  63.557  71.498  0.00  0.00    +0.000 C 
ATOM     15  O   UNL     1      60.623  63.034  71.639  0.00  0.00    +0.000 OA
ATOM     16  C   UNL     1      61.545  64.015  72.115  0.00  0.00    +0.000 C 
ATOM     17  C   UNL     1      62.166  64.539  71.974  0.00  0.00    +0.000 C 
ATOM     18  C   UNL     1      62.487  64.605  71.217  0.00  0.00    +0.000 C 
ATOM     19  C   UNL     1      62.788  65.063  71.834  0.00  0.00    +0.000 C 
ATOM     20  C   UNL     1      63.108  65.129  71.076  0.00  0.00    +0.000 C 
ATOM     21  C   UNL     1      63.409  65.587  71.693  0.00  0.00    +0.000 C 
ATOM     22  C   UNL     1      64.031  66.111  71.552  0.00  0.00    +0.000 C 
ATOM     23  C   UNL     1      64.351  66.177  70.795  0.00  0.00    +0.000 C 
ATOM     24  C   UNL     1      64.707  66.668  71.354  0.00  0.00    +0.000 C 
ATOM     25  C   UNL     1      62.205  63.755  69.226  0.00  0.00    +0.000 C 
ATOM     26  F   UNL     1      61.904  63.298  68.610  0.00  0.00    +0.000 F 
ATOM     27  F   UNL     1      61.661  63.415  69.745  0.00  0.00    +0.000 F 
ATOM     28  F   UNL     1      62.748  64.096  68.708  0.00  0.00    +0.000 F 
ENDROOT
TORSDOF 0
ENDMDL
MODEL 7
REMARK VINA RESULT:   -13.128      1.752      2.505
REMARK INTER + INTRA:         -13.128
REMARK INTER:                 -13.128
REMARK INTRA:                   0.000
REMARK UNBOUND:                 0.000
ROOT
REMARK  Name = flumedroxone
REMARK                            x       y       z     vdW  Elec       q    Type
REMARK                         _______ _______ _______ _____ _____    ______ ____
ATOM      1  C   UNL     1      61.837  67.875  72.038  0.00  0.00    +0.000 C 
ATOM      2  C   UNL     1      62.013  67.211  72.494  0.00  0.00    +0.000 C 
ATOM      3  O   UNL     1      62.390  67.298  73.222  0.00  0.00    +0.000 OA
ATOM      4  C   UNL     1      61.810  66.459  72.222  0.00  0.00    +0.000 C 
ATOM      5  O   UNL     1      61.514  66.868  71.571  0.00  0.00    +0.000 OA
ATOM      6  C   UNL     1      62.149  66.206  72.930  0.00  0.00    +0.000 C 
ATOM      7  C   UNL     1      62.094  65.383  72.960  0.00  0.00    +0.000 C 
ATOM      8  C   UNL     1      61.722  65.127  72.270  0.00  0.00    +0.000 C 
ATOM      9  C   UNL     1      61.520  64.375  71.998  0.00  0.00    +0.000 C 
ATOM     10  C   UNL     1      61.695  63.710  72.453  0.00  0.00    +0.000 C 
ATOM     11  C   UNL     1      61.493  62.958  72.181  0.00  0.00    +0.000 C 
ATOM     12  C   UNL     1      61.115  62.872  71.453  0.00  0.00    +0.000 C 
ATOM     13  C   UNL     1      60.913  62.118  71.181  0.00  0.00    +0.000 C 
ATOM     14  C   UNL     1      60.535  62.032  70.453  0.00  0.00    +0.000 C 
ATOM     15  O   UNL     1      60.333  61.280  70.181  0.00  0.00    +0.000 OA
ATOM     16  C   UNL     1      60.360  62.696  69.997  0.00  0.00    +0.000 C 
ATOM     17  C   UNL     1      60.562  63.448  70.269  0.00  0.00    +0.000 C 
ATOM     18  C   UNL     1      60.940  63.536  70.997  0.00  0.00    +0.000 C 
ATOM     19  C   UNL     1      60.764  64.201  70.541  0.00  0.00    +0.000 C 
ATOM     20  C   UNL     1      61.142  64.288  71.269  0.00  0.00    +0.000 C 
ATOM     21  C   UNL     1      60.966  64.952  70.813  0.00  0.00    +0.000 C 
ATOM     22  C   UNL     1      61.168  65.704  71.085  0.00  0.00    +0.000 C 
ATOM     23  C   UNL     1      61.546  65.792  71.814  0.00  0.00    +0.000 C 
ATOM     24  C   UNL     1      61.406  66.504  71.420  0.00  0.00    +0.000 C 
ATOM     25  C   UNL     1      61.669  62.294  72.637  0.00  0.00    +0.000 C 
ATOM     26  F   UNL     1      61.844  61.629  73.093  0.00  0.00    +0.000 F 
ATOM     27  F   UNL     1      61.334  61.809  72.060  0.00  0.00    +0.000 F 
ATOM     28  F   UNL     1      62.003  62.779  73.215  0.00  0.00    +0.000 F 
ENDROOT
TORSDOF 0
ENDMDL
MODEL 8
REMARK VINA RESULT:   -12.450      3.744      4.788
REMARK INTER + INTRA:         -12.450
REMARK INTER:                 -12.450
REMARK INTRA:                   0.000
REMARK UNBOUND:                 0.000
ROOT
REMARK  Name = flumedroxone
REMARK                            x       y       z     vdW  Elec       q    Type
REMARK                         _______ _______ _______ _____ _____    ______ ____
ATOM      1  C   UNL     1      59.097  64.760  72.521  0.00  0.00    +0.000 C 
ATOM      2  C   UNL     1      59.333  65.511  72.769  0.00  0.00    +0.000 C 
ATOM      3  O   UNL     1      58.793  66.010  73.144  0.00  0.00    +0.000 OA
ATOM      4  C   UNL     1      60.108  65.763  72.642  0.00  0.00    +0.000 C 
ATOM      5  O   UNL     1      60.202  65.020  72.298  0.00  0.00    +0.000 OA
ATOM      6  C   UNL     1      59.852  66.455  73.013  0.00  0.00    +0.000 C 
ATOM      7  C   UNL     1      60.489  66.978  73.043  0.00  0.00    +0.000 C 
ATOM      8  C   UNL     1      61.138  66.611  72.691  0.00  0.00    +0.000 C 
ATOM      9  C   UNL     1      61.914  66.863  72.564  0.00  0.00    +0.000 C 
ATOM     10  C   UNL     1      62.150  67.614  72.812  0.00  0.00    +0.000 C 
ATOM     11  C   UNL     1      62.925  67.865  72.685  0.00  0.00    +0.000 C 
ATOM     12  C   UNL     1      63.464  67.366  72.310  0.00  0.00    +0.000 C 
ATOM     13  C   UNL     1      64.240  67.619  72.183  0.00  0.00    +0.000 C 
ATOM     14  C   UNL     1      64.779  67.120  71.809  0.00  0.00    +0.000 C 
ATOM     15  O   UNL     1      65.554  67.371  71.682  0.00  0.00    +0.000 OA
ATOM     16  C   UNL     1      64.544  66.369  71.561  0.00  0.00    +0.000 C 
ATOM     17  C   UNL     1      63.768  66.117  71.688  0.00  0.00    +0.000 C 
ATOM     18  C   UNL     1      63.229  66.615  72.062  0.00  0.00    +0.000 C 
ATOM     19  C   UNL     1      62.993  65.865  71.814  0.00  0.00    +0.000 C 
ATOM     20  C   UNL     1      62.453  66.364  72.189  0.00  0.00    +0.000 C 
ATOM     21  C   UNL     1      62.218  65.613  71.941  0.00  0.00    +0.000 C 
ATOM     22  C   UNL     1      61.443  65.361  72.068  0.00  0.00    +0.000 C 
ATOM     23  C   UNL     1      60.903  65.860  72.443  0.00  0.00    +0.000 C 
ATOM     24  C   UNL     1      60.589  65.128  72.227  0.00  0.00    +0.000 C 
ATOM     25  C   UNL     1      63.160  68.616  72.933  0.00  0.00    +0.000 C 
ATOM     26  F   UNL     1      63.395  69.367  73.181  0.00  0.00    +0.000 F 
ATOM     27  F   UNL     1      63.919  68.474  72.643  0.00  0.00    +0.000 F 
ATOM     28  F   UNL     1      62.401  68.758  73.222  0.00  0.00    +0.000 F 
ENDROOT
TORSDOF 0
ENDMDL
MODEL 9
REMARK VINA RESULT:   -12.432      2.503      3.732
REMARK INTER + INTRA:         -12.432
REMARK INTER:                 -12.432
REMARK INTRA:                   0.000
REMARK UNBOUND:                 0.000
ROOT
REMARK  Name = flumedroxone
REMARK                            x       y       z     vdW  Elec       q    Type
REMARK                         _______ _______ _______ _____ _____    ______ ____
ATOM      1  C   UNL     1      64.879  65.690  70.610  0.00  0.00    +0.000 C 
ATOM      2  C   UNL     1      64.376  65.040  70.532  0.00  0.00    +0.000 C 
ATOM      3  O   UNL     1      64.629  64.369  70.124  0.00  0.00    +0.000 OA
ATOM      4  C   UNL     1      63.620  65.063  70.862  0.00  0.00    +0.000 C 
ATOM      5  O   UNL     1      63.843  65.818  71.106  0.00  0.00    +0.000 OA
ATOM      6  C   UNL     1      63.555  64.302  70.549  0.00  0.00    +0.000 C 
ATOM      7  C   UNL     1      62.805  64.013  70.736  0.00  0.00    +0.000 C 
ATOM      8  C   UNL     1      62.407  64.594  71.165  0.00  0.00    +0.000 C 
ATOM      9  C   UNL     1      61.652  64.616  71.495  0.00  0.00    +0.000 C 
ATOM     10  C   UNL     1      61.147  63.967  71.417  0.00  0.00    +0.000 C 
ATOM     11  C   UNL     1      60.392  63.990  71.747  0.00  0.00    +0.000 C 
ATOM     12  C   UNL     1      60.140  64.661  72.154  0.00  0.00    +0.000 C 
ATOM     13  C   UNL     1      59.383  64.683  72.484  0.00  0.00    +0.000 C 
ATOM     14  C   UNL     1      59.132  65.355  72.891  0.00  0.00    +0.000 C 
ATOM     15  O   UNL     1      58.376  65.377  73.221  0.00  0.00    +0.000 OA
ATOM     16  C   UNL     1      59.635  66.004  72.970  0.00  0.00    +0.000 C 
ATOM     17  C   UNL     1      60.390  65.981  72.640  0.00  0.00    +0.000 C 
ATOM     18  C   UNL     1      60.643  65.311  72.232  0.00  0.00    +0.000 C 
ATOM     19  C   UNL     1      61.147  65.960  72.310  0.00  0.00    +0.000 C 
ATOM     20  C   UNL     1      61.399  65.288  71.902  0.00  0.00    +0.000 C 
ATOM     21  C   UNL     1      61.902  65.937  71.981  0.00  0.00    +0.000 C 
ATOM     22  C   UNL     1      62.658  65.914  71.651  0.00  0.00    +0.000 C 
ATOM     23  C   UNL     1      62.910  65.243  71.243  0.00  0.00    +0.000 C 
ATOM     24  C   UNL     1      63.472  65.847  71.276  0.00  0.00    +0.000 C 
ATOM     25  C   UNL     1      59.888  63.341  71.668  0.00  0.00    +0.000 C 
ATOM     26  F   UNL     1      59.385  62.692  71.590  0.00  0.00    +0.000 F 
ATOM     27  F   UNL     1      59.306  63.741  72.094  0.00  0.00    +0.000 F 
ATOM     28  F   UNL     1      60.471  62.941  71.243  0.00  0.00    +0.000 F 
ENDROOT
TORSDOF 0
ENDMDL
