MODEL 1
REMARK VINA RESULT:   -14.338      0.000      0.000
REMARK INTER + INTRA:         -14.338
REMARK INTER:                 -14.338
REMARK INTRA:                   0.000
REMARK UNBOUND:                 0.000
ROOT
REMARK  Name = flumetasone
REMARK                            x       y       z     vdW  Elec       q    Type
REMARK                         _______ _______ _______ _____ _____    ______ ____
ATOM      1  C   UNL     1      61.906  63.889  68.550  0.00  0.00    +0.000 C 
ATOM      2  C   UNL     1      61.584  63.447  67.932  0.00  0.00    +0.000 C 
ATOM      3  C   UNL     1      61.978  63.215  67.245  0.00  0.00    +0.000 C 
ATOM      4  C   UNL     1      61.449  62.785  66.781  0.00  0.00    +0.000 C 
ATOM      5  C   UNL     1      61.530  62.420  66.046  0.00  0.00    +0.000 C 
ATOM      6  C   UNL     1      62.251  62.454  65.645  0.00  0.00    +0.000 C 
ATOM      7  C   UNL     1      62.332  62.088  64.910  0.00  0.00    +0.000 C 
ATOM      8  F   UNL     1      63.053  62.122  64.511  0.00  0.00    +0.000 F 
ATOM      9  C   UNL     1      61.693  61.689  64.576  0.00  0.00    +0.000 C 
ATOM     10  C   UNL     1      61.775  61.324  63.839  0.00  0.00    +0.000 C 
ATOM     11  C   UNL     1      61.135  60.925  63.505  0.00  0.00    +0.000 C 
ATOM     12  O   UNL     1      61.217  60.560  62.770  0.00  0.00    +0.000 OA
ATOM     13  C   UNL     1      60.415  60.891  63.904  0.00  0.00    +0.000 C 
ATOM     14  C   UNL     1      60.333  61.256  64.640  0.00  0.00    +0.000 C 
ATOM     15  C   UNL     1      60.972  61.655  64.975  0.00  0.00    +0.000 C 
ATOM     16  C   UNL     1      60.251  61.621  65.375  0.00  0.00    +0.000 C 
ATOM     17  C   UNL     1      60.891  62.021  65.710  0.00  0.00    +0.000 C 
ATOM     18  F   UNL     1      60.101  61.810  65.824  0.00  0.00    +0.000 F 
ATOM     19  C   UNL     1      60.170  61.986  66.110  0.00  0.00    +0.000 C 
ATOM     20  O   UNL     1      59.531  61.587  65.774  0.00  0.00    +0.000 OA
ATOM     21  C   UNL     1      60.088  62.352  66.845  0.00  0.00    +0.000 C 
ATOM     22  C   UNL     1      60.728  62.751  67.180  0.00  0.00    +0.000 C 
ATOM     23  C   UNL     1      60.044  62.763  67.643  0.00  0.00    +0.000 C 
ATOM     24  C   UNL     1      60.811  63.160  67.892  0.00  0.00    +0.000 C 
ATOM     25  O   UNL     1      60.041  63.040  68.162  0.00  0.00    +0.000 OA
ATOM     26  C   UNL     1      60.561  63.463  68.618  0.00  0.00    +0.000 C 
ATOM     27  O   UNL     1      59.786  63.333  68.873  0.00  0.00    +0.000 OA
ATOM     28  C   UNL     1      61.083  63.894  69.088  0.00  0.00    +0.000 C 
ATOM     29  O   UNL     1      60.832  64.195  69.814  0.00  0.00    +0.000 OA
ENDROOT
TORSDOF 0
ENDMDL
MODEL 2
REMARK VINA RESULT:   -13.857      2.155      5.232
REMARK INTER + INTRA:         -13.857
REMARK INTER:                 -13.857
REMARK INTRA:                   0.000
REMARK UNBOUND:                 0.000
ROOT
REMARK  Name = flumetasone
REMARK                            x       y       z     vdW  Elec       q    Type
REMARK                         _______ _______ _______ _____ _____    ______ ____
ATOM      1  C   UNL     1      59.921  61.700  66.823  0.00  0.00    +0.000 C 
ATOM      2  C   UNL     1      60.297  62.078  67.453  0.00  0.00    +0.000 C 
ATOM      3  C   UNL     1      60.161  61.937  68.255  0.00  0.00    +0.000 C 
ATOM      4  C   UNL     1      60.655  62.435  68.688  0.00  0.00    +0.000 C 
ATOM      5  C   UNL     1      60.761  62.538  69.500  0.00  0.00    +0.000 C 
ATOM      6  C   UNL     1      60.320  62.089  70.034  0.00  0.00    +0.000 C 
ATOM      7  C   UNL     1      60.425  62.192  70.845  0.00  0.00    +0.000 C 
ATOM      8  F   UNL     1      59.984  61.743  71.378  0.00  0.00    +0.000 F 
ATOM      9  C   UNL     1      60.972  62.744  71.123  0.00  0.00    +0.000 C 
ATOM     10  C   UNL     1      61.077  62.846  71.936  0.00  0.00    +0.000 C 
ATOM     11  C   UNL     1      61.623  63.398  72.213  0.00  0.00    +0.000 C 
ATOM     12  O   UNL     1      61.729  63.501  73.025  0.00  0.00    +0.000 OA
ATOM     13  C   UNL     1      62.064  63.847  71.680  0.00  0.00    +0.000 C 
ATOM     14  C   UNL     1      61.959  63.745  70.868  0.00  0.00    +0.000 C 
ATOM     15  C   UNL     1      61.413  63.193  70.590  0.00  0.00    +0.000 C 
ATOM     16  C   UNL     1      61.854  63.642  70.056  0.00  0.00    +0.000 C 
ATOM     17  C   UNL     1      61.307  63.090  69.778  0.00  0.00    +0.000 C 
ATOM     18  F   UNL     1      61.863  63.654  69.547  0.00  0.00    +0.000 F 
ATOM     19  C   UNL     1      61.748  63.539  69.245  0.00  0.00    +0.000 C 
ATOM     20  O   UNL     1      62.294  64.091  69.524  0.00  0.00    +0.000 OA
ATOM     21  C   UNL     1      61.643  63.436  68.433  0.00  0.00    +0.000 C 
ATOM     22  C   UNL     1      61.096  62.884  68.155  0.00  0.00    +0.000 C 
ATOM     23  C   UNL     1      61.496  63.292  67.558  0.00  0.00    +0.000 C 
ATOM     24  C   UNL     1      60.875  62.664  67.391  0.00  0.00    +0.000 C 
ATOM     25  O   UNL     1      61.381  63.178  66.993  0.00  0.00    +0.000 OA
ATOM     26  C   UNL     1      60.896  62.689  66.567  0.00  0.00    +0.000 C 
ATOM     27  O   UNL     1      61.409  63.210  66.183  0.00  0.00    +0.000 OA
ATOM     28  C   UNL     1      60.405  62.194  66.126  0.00  0.00    +0.000 C 
ATOM     29  O   UNL     1      60.427  62.220  65.302  0.00  0.00    +0.000 OA
ENDROOT
TORSDOF 0
ENDMDL
MODEL 3
REMARK VINA RESULT:   -13.775      0.991      4.096
REMARK INTER + INTRA:         -13.775
REMARK INTER:                 -13.775
REMARK INTRA:                   0.000
REMARK UNBOUND:                 0.000
ROOT
REMARK  Name = flumetasone
REMARK                            x       y       z     vdW  Elec       q    Type
REMARK                         _______ _______ _______ _____ _____    ______ ____
ATOM      1  C   UNL     1      62.581  61.796  63.965  0.00  0.00    +0.000 C 
ATOM      2  C   UNL     1      62.085  61.907  64.615  0.00  0.00    +0.000 C 
ATOM      3  C   UNL     1      62.271  62.322  65.303  0.00  0.00    +0.000 C 
ATOM      4  C   UNL     1      61.617  62.293  65.804  0.00  0.00    +0.000 C 
ATOM      5  C   UNL     1      61.483  62.606  66.556  0.00  0.00    +0.000 C 
ATOM      6  C   UNL     1      62.074  63.039  66.935  0.00  0.00    +0.000 C 
ATOM      7  C   UNL     1      61.940  63.351  67.686  0.00  0.00    +0.000 C 
ATOM      8  F   UNL     1      62.532  63.785  68.064  0.00  0.00    +0.000 F 
ATOM      9  C   UNL     1      61.215  63.230  68.059  0.00  0.00    +0.000 C 
ATOM     10  C   UNL     1      61.081  63.543  68.812  0.00  0.00    +0.000 C 
ATOM     11  C   UNL     1      60.355  63.421  69.185  0.00  0.00    +0.000 C 
ATOM     12  O   UNL     1      60.221  63.733  69.936  0.00  0.00    +0.000 OA
ATOM     13  C   UNL     1      59.764  62.988  68.807  0.00  0.00    +0.000 C 
ATOM     14  C   UNL     1      59.898  62.676  68.055  0.00  0.00    +0.000 C 
ATOM     15  C   UNL     1      60.623  62.796  67.681  0.00  0.00    +0.000 C 
ATOM     16  C   UNL     1      60.031  62.363  67.303  0.00  0.00    +0.000 C 
ATOM     17  C   UNL     1      60.757  62.484  66.930  0.00  0.00    +0.000 C 
ATOM     18  F   UNL     1      60.015  62.133  66.849  0.00  0.00    +0.000 F 
ATOM     19  C   UNL     1      60.166  62.051  66.552  0.00  0.00    +0.000 C 
ATOM     20  O   UNL     1      59.441  61.930  66.926  0.00  0.00    +0.000 OA
ATOM     21  C   UNL     1      60.300  61.739  65.800  0.00  0.00    +0.000 C 
ATOM     22  C   UNL     1      61.026  61.860  65.426  0.00  0.00    +0.000 C 
ATOM     23  C   UNL     1      60.489  61.417  64.982  0.00  0.00    +0.000 C 
ATOM     24  C   UNL     1      61.314  61.621  64.691  0.00  0.00    +0.000 C 
ATOM     25  O   UNL     1      60.637  61.218  64.449  0.00  0.00    +0.000 OA
ATOM     26  C   UNL     1      61.280  61.247  63.957  0.00  0.00    +0.000 C 
ATOM     27  O   UNL     1      60.594  60.847  63.730  0.00  0.00    +0.000 OA
ATOM     28  C   UNL     1      61.930  61.271  63.450  0.00  0.00    +0.000 C 
ATOM     29  O   UNL     1      61.895  60.896  62.716  0.00  0.00    +0.000 OA
ENDROOT
TORSDOF 0
ENDMDL
MODEL 4
REMARK VINA RESULT:   -13.744      5.329      6.921
REMARK INTER + INTRA:         -13.744
REMARK INTER:                 -13.744
REMARK INTRA:                   0.000
REMARK UNBOUND:                 0.000
ROOT
REMARK  Name = flumetasone
REMARK                            x       y       z     vdW  Elec       q    Type
REMARK                         _______ _______ _______ _____ _____    ______ ____
ATOM      1  C   UNL     1      61.342  64.151  72.541  0.00  0.00    +0.000 C 
ATOM      2  C   UNL     1      61.951  64.438  72.064  0.00  0.00    +0.000 C 
ATOM      3  C   UNL     1      62.397  65.118  72.202  0.00  0.00    +0.000 C 
ATOM      4  C   UNL     1      62.943  65.194  71.588  0.00  0.00    +0.000 C 
ATOM      5  C   UNL     1      63.525  65.758  71.434  0.00  0.00    +0.000 C 
ATOM      6  C   UNL     1      63.634  66.391  71.952  0.00  0.00    +0.000 C 
ATOM      7  C   UNL     1      64.216  66.955  71.797  0.00  0.00    +0.000 C 
ATOM      8  F   UNL     1      64.325  67.588  72.315  0.00  0.00    +0.000 F 
ATOM      9  C   UNL     1      64.688  66.886  71.125  0.00  0.00    +0.000 C 
ATOM     10  C   UNL     1      65.271  67.451  70.970  0.00  0.00    +0.000 C 
ATOM     11  C   UNL     1      65.743  67.382  70.298  0.00  0.00    +0.000 C 
ATOM     12  O   UNL     1      66.325  67.945  70.143  0.00  0.00    +0.000 OA
ATOM     13  C   UNL     1      65.634  66.749  69.780  0.00  0.00    +0.000 C 
ATOM     14  C   UNL     1      65.052  66.185  69.934  0.00  0.00    +0.000 C 
ATOM     15  C   UNL     1      64.579  66.253  70.606  0.00  0.00    +0.000 C 
ATOM     16  C   UNL     1      64.471  65.621  70.088  0.00  0.00    +0.000 C 
ATOM     17  C   UNL     1      63.998  65.689  70.761  0.00  0.00    +0.000 C 
ATOM     18  F   UNL     1      64.146  65.228  70.093  0.00  0.00    +0.000 F 
ATOM     19  C   UNL     1      63.889  65.057  70.243  0.00  0.00    +0.000 C 
ATOM     20  O   UNL     1      64.362  64.989  69.571  0.00  0.00    +0.000 OA
ATOM     21  C   UNL     1      63.307  64.493  70.397  0.00  0.00    +0.000 C 
ATOM     22  C   UNL     1      62.834  64.562  71.070  0.00  0.00    +0.000 C 
ATOM     23  C   UNL     1      62.662  63.902  70.604  0.00  0.00    +0.000 C 
ATOM     24  C   UNL     1      62.221  64.093  71.364  0.00  0.00    +0.000 C 
ATOM     25  O   UNL     1      62.234  63.531  70.762  0.00  0.00    +0.000 OA
ATOM     26  C   UNL     1      61.699  63.455  71.365  0.00  0.00    +0.000 C 
ATOM     27  O   UNL     1      61.725  62.900  70.755  0.00  0.00    +0.000 OA
ATOM     28  C   UNL     1      61.151  63.371  71.975  0.00  0.00    +0.000 C 
ATOM     29  O   UNL     1      60.628  62.732  71.976  0.00  0.00    +0.000 OA
ENDROOT
TORSDOF 0
ENDMDL
MODEL 5
REMARK VINA RESULT:   -13.399      5.087      6.210
REMARK INTER + INTRA:         -13.399
REMARK INTER:                 -13.399
REMARK INTRA:                   0.000
REMARK UNBOUND:                 0.000
ROOT
REMARK  Name = flumetasone
REMARK                            x       y       z     vdW  Elec       q    Type
REMARK                         _______ _______ _______ _____ _____    ______ ____
ATOM      1  C   UNL     1      59.374  66.007  70.227  0.00  0.00    +0.000 C 
ATOM      2  C   UNL     1      59.763  65.441  70.685  0.00  0.00    +0.000 C 
ATOM      3  C   UNL     1      59.942  64.670  70.455  0.00  0.00    +0.000 C 
ATOM      4  C   UNL     1      60.330  64.300  71.081  0.00  0.00    +0.000 C 
ATOM      5  C   UNL     1      60.637  63.539  71.169  0.00  0.00    +0.000 C 
ATOM      6  C   UNL     1      60.576  62.996  70.552  0.00  0.00    +0.000 C 
ATOM      7  C   UNL     1      60.882  62.235  70.640  0.00  0.00    +0.000 C 
ATOM      8  F   UNL     1      60.821  61.692  70.022  0.00  0.00    +0.000 F 
ATOM      9  C   UNL     1      61.249  62.018  71.346  0.00  0.00    +0.000 C 
ATOM     10  C   UNL     1      61.556  61.256  71.433  0.00  0.00    +0.000 C 
ATOM     11  C   UNL     1      61.923  61.039  72.139  0.00  0.00    +0.000 C 
ATOM     12  O   UNL     1      62.229  60.278  72.227  0.00  0.00    +0.000 OA
ATOM     13  C   UNL     1      61.984  61.582  72.757  0.00  0.00    +0.000 C 
ATOM     14  C   UNL     1      61.678  62.343  72.669  0.00  0.00    +0.000 C 
ATOM     15  C   UNL     1      61.311  62.561  71.964  0.00  0.00    +0.000 C 
ATOM     16  C   UNL     1      61.372  63.104  72.582  0.00  0.00    +0.000 C 
ATOM     17  C   UNL     1      61.004  63.322  71.875  0.00  0.00    +0.000 C 
ATOM     18  F   UNL     1      61.219  63.588  72.627  0.00  0.00    +0.000 F 
ATOM     19  C   UNL     1      61.066  63.865  72.493  0.00  0.00    +0.000 C 
ATOM     20  O   UNL     1      61.433  63.647  73.199  0.00  0.00    +0.000 OA
ATOM     21  C   UNL     1      60.760  64.626  72.405  0.00  0.00    +0.000 C 
ATOM     22  C   UNL     1      60.392  64.843  71.699  0.00  0.00    +0.000 C 
ATOM     23  C   UNL     1      60.412  65.443  72.266  0.00  0.00    +0.000 C 
ATOM     24  C   UNL     1      60.041  65.549  71.455  0.00  0.00    +0.000 C 
ATOM     25  O   UNL     1      60.178  65.969  72.150  0.00  0.00    +0.000 OA
ATOM     26  C   UNL     1      59.796  66.333  71.535  0.00  0.00    +0.000 C 
ATOM     27  O   UNL     1      59.941  66.740  72.239  0.00  0.00    +0.000 OA
ATOM     28  C   UNL     1      59.407  66.709  70.914  0.00  0.00    +0.000 C 
ATOM     29  O   UNL     1      59.162  67.493  70.995  0.00  0.00    +0.000 OA
ENDROOT
TORSDOF 0
ENDMDL
MODEL 6
REMARK VINA RESULT:   -13.361      4.775      6.418
REMARK INTER + INTRA:         -13.361
REMARK INTER:                 -13.361
REMARK INTRA:                   0.000
REMARK UNBOUND:                 0.000
ROOT
REMARK  Name = flumetasone
REMARK                            x       y       z     vdW  Elec       q    Type
REMARK                         _______ _______ _______ _____ _____    ______ ____
ATOM      1  C   UNL     1      64.916  67.064  71.523  0.00  0.00    +0.000 C 
ATOM      2  C   UNL     1      64.421  66.453  71.272  0.00  0.00    +0.000 C 
ATOM      3  C   UNL     1      63.816  66.106  71.712  0.00  0.00    +0.000 C 
ATOM      4  C   UNL     1      63.466  65.521  71.249  0.00  0.00    +0.000 C 
ATOM      5  C   UNL     1      62.844  65.000  71.394  0.00  0.00    +0.000 C 
ATOM      6  C   UNL     1      62.454  65.014  72.121  0.00  0.00    +0.000 C 
ATOM      7  C   UNL     1      61.832  64.493  72.267  0.00  0.00    +0.000 C 
ATOM      8  F   UNL     1      61.443  64.508  72.994  0.00  0.00    +0.000 F 
ATOM      9  C   UNL     1      61.599  63.957  71.685  0.00  0.00    +0.000 C 
ATOM     10  C   UNL     1      60.976  63.435  71.831  0.00  0.00    +0.000 C 
ATOM     11  C   UNL     1      60.743  62.899  71.250  0.00  0.00    +0.000 C 
ATOM     12  O   UNL     1      60.121  62.377  71.395  0.00  0.00    +0.000 OA
ATOM     13  C   UNL     1      61.132  62.884  70.522  0.00  0.00    +0.000 C 
ATOM     14  C   UNL     1      61.755  63.405  70.377  0.00  0.00    +0.000 C 
ATOM     15  C   UNL     1      61.988  63.941  70.958  0.00  0.00    +0.000 C 
ATOM     16  C   UNL     1      62.377  63.926  70.230  0.00  0.00    +0.000 C 
ATOM     17  C   UNL     1      62.611  64.463  70.812  0.00  0.00    +0.000 C 
ATOM     18  F   UNL     1      62.765  64.200  70.045  0.00  0.00    +0.000 F 
ATOM     19  C   UNL     1      63.000  64.447  70.085  0.00  0.00    +0.000 C 
ATOM     20  O   UNL     1      62.766  63.911  69.504  0.00  0.00    +0.000 OA
ATOM     21  C   UNL     1      63.622  64.969  69.939  0.00  0.00    +0.000 C 
ATOM     22  C   UNL     1      63.855  65.506  70.521  0.00  0.00    +0.000 C 
ATOM     23  C   UNL     1      64.294  65.554  69.824  0.00  0.00    +0.000 C 
ATOM     24  C   UNL     1      64.446  66.082  70.535  0.00  0.00    +0.000 C 
ATOM     25  O   UNL     1      64.729  65.946  69.773  0.00  0.00    +0.000 OA
ATOM     26  C   UNL     1      65.073  66.522  70.229  0.00  0.00    +0.000 C 
ATOM     27  O   UNL     1      65.345  66.373  69.464  0.00  0.00    +0.000 OA
ATOM     28  C   UNL     1      65.428  67.108  70.686  0.00  0.00    +0.000 C 
ATOM     29  O   UNL     1      66.055  67.548  70.379  0.00  0.00    +0.000 OA
ENDROOT
TORSDOF 0
ENDMDL
MODEL 7
REMARK VINA RESULT:   -12.681      4.462      6.170
REMARK INTER + INTRA:         -12.681
REMARK INTER:                 -12.681
REMARK INTRA:                   0.000
REMARK UNBOUND:                 0.000
ROOT
REMARK  Name = flumetasone
REMARK                            x       y       z     vdW  Elec       q    Type
REMARK                         _______ _______ _______ _____ _____    ______ ____
ATOM      1  C   UNL     1      63.760  66.869  71.214  0.00  0.00    +0.000 C 
ATOM      2  C   UNL     1      63.232  66.254  71.370  0.00  0.00    +0.000 C 
ATOM      3  C   UNL     1      63.041  65.637  70.857  0.00  0.00    +0.000 C 
ATOM      4  C   UNL     1      62.493  65.150  71.236  0.00  0.00    +0.000 C 
ATOM      5  C   UNL     1      62.110  64.460  70.998  0.00  0.00    +0.000 C 
ATOM      6  C   UNL     1      62.256  64.143  70.250  0.00  0.00    +0.000 C 
ATOM      7  C   UNL     1      61.873  63.453  70.012  0.00  0.00    +0.000 C 
ATOM      8  F   UNL     1      62.020  63.137  69.264  0.00  0.00    +0.000 F 
ATOM      9  C   UNL     1      61.342  63.080  70.521  0.00  0.00    +0.000 C 
ATOM     10  C   UNL     1      60.958  62.389  70.282  0.00  0.00    +0.000 C 
ATOM     11  C   UNL     1      60.428  62.015  70.792  0.00  0.00    +0.000 C 
ATOM     12  O   UNL     1      60.044  61.325  70.554  0.00  0.00    +0.000 OA
ATOM     13  C   UNL     1      60.281  62.332  71.539  0.00  0.00    +0.000 C 
ATOM     14  C   UNL     1      60.665  63.022  71.777  0.00  0.00    +0.000 C 
ATOM     15  C   UNL     1      61.195  63.396  71.269  0.00  0.00    +0.000 C 
ATOM     16  C   UNL     1      61.048  63.712  72.017  0.00  0.00    +0.000 C 
ATOM     17  C   UNL     1      61.579  64.086  71.507  0.00  0.00    +0.000 C 
ATOM     18  F   UNL     1      61.229  64.125  72.254  0.00  0.00    +0.000 F 
ATOM     19  C   UNL     1      61.432  64.403  72.255  0.00  0.00    +0.000 C 
ATOM     20  O   UNL     1      60.901  64.028  72.763  0.00  0.00    +0.000 OA
ATOM     21  C   UNL     1      61.815  65.093  72.493  0.00  0.00    +0.000 C 
ATOM     22  C   UNL     1      62.346  65.467  71.984  0.00  0.00    +0.000 C 
ATOM     23  C   UNL     1      62.255  65.846  72.711  0.00  0.00    +0.000 C 
ATOM     24  C   UNL     1      62.803  66.149  72.067  0.00  0.00    +0.000 C 
ATOM     25  O   UNL     1      62.554  66.338  72.829  0.00  0.00    +0.000 OA
ATOM     26  C   UNL     1      63.092  66.816  72.457  0.00  0.00    +0.000 C 
ATOM     27  O   UNL     1      62.833  66.990  73.221  0.00  0.00    +0.000 OA
ATOM     28  C   UNL     1      63.639  67.307  72.085  0.00  0.00    +0.000 C 
ATOM     29  O   UNL     1      63.929  67.974  72.476  0.00  0.00    +0.000 OA
ENDROOT
TORSDOF 0
ENDMDL
MODEL 8
REMARK VINA RESULT:   -12.066      6.139      7.607
REMARK INTER + INTRA:         -12.066
REMARK INTER:                 -12.066
REMARK INTRA:                   0.000
REMARK UNBOUND:                 0.000
ROOT
REMARK  Name = flumetasone
REMARK                            x       y       z     vdW  Elec       q    Type
REMARK                         _______ _______ _______ _____ _____    ______ ____
ATOM      1  C   UNL     1      60.335  66.331  70.198  0.00  0.00    +0.000 C 
ATOM      2  C   UNL     1      61.059  66.515  70.548  0.00  0.00    +0.000 C 
ATOM      3  C   UNL     1      61.803  66.403  70.210  0.00  0.00    +0.000 C 
ATOM      4  C   UNL     1      62.370  66.662  70.750  0.00  0.00    +0.000 C 
ATOM      5  C   UNL     1      63.194  66.685  70.718  0.00  0.00    +0.000 C 
ATOM      6  C   UNL     1      63.589  66.414  70.045  0.00  0.00    +0.000 C 
ATOM      7  C   UNL     1      64.412  66.438  70.012  0.00  0.00    +0.000 C 
ATOM      8  F   UNL     1      64.806  66.167  69.340  0.00  0.00    +0.000 F 
ATOM      9  C   UNL     1      64.842  66.732  70.652  0.00  0.00    +0.000 C 
ATOM     10  C   UNL     1      65.667  66.756  70.618  0.00  0.00    +0.000 C 
ATOM     11  C   UNL     1      66.096  67.050  71.258  0.00  0.00    +0.000 C 
ATOM     12  O   UNL     1      66.920  67.074  71.225  0.00  0.00    +0.000 OA
ATOM     13  C   UNL     1      65.702  67.321  71.930  0.00  0.00    +0.000 C 
ATOM     14  C   UNL     1      64.879  67.298  71.963  0.00  0.00    +0.000 C 
ATOM     15  C   UNL     1      64.448  67.003  71.324  0.00  0.00    +0.000 C 
ATOM     16  C   UNL     1      64.055  67.275  71.997  0.00  0.00    +0.000 C 
ATOM     17  C   UNL     1      63.624  66.980  71.357  0.00  0.00    +0.000 C 
ATOM     18  F   UNL     1      63.559  67.302  72.114  0.00  0.00    +0.000 F 
ATOM     19  C   UNL     1      63.231  67.251  72.030  0.00  0.00    +0.000 C 
ATOM     20  O   UNL     1      63.661  67.545  72.668  0.00  0.00    +0.000 OA
ATOM     21  C   UNL     1      62.407  67.227  72.062  0.00  0.00    +0.000 C 
ATOM     22  C   UNL     1      61.977  66.933  71.423  0.00  0.00    +0.000 C 
ATOM     23  C   UNL     1      61.509  67.183  72.055  0.00  0.00    +0.000 C 
ATOM     24  C   UNL     1      61.166  66.842  71.298  0.00  0.00    +0.000 C 
ATOM     25  O   UNL     1      60.923  67.144  72.026  0.00  0.00    +0.000 OA
ATOM     26  C   UNL     1      60.366  66.890  71.495  0.00  0.00    +0.000 C 
ATOM     27  O   UNL     1      60.140  67.195  72.228  0.00  0.00    +0.000 OA
ATOM     28  C   UNL     1      59.793  66.634  70.960  0.00  0.00    +0.000 C 
ATOM     29  O   UNL     1      58.994  66.682  71.157  0.00  0.00    +0.000 OA
ENDROOT
TORSDOF 0
ENDMDL
MODEL 9
REMARK VINA RESULT:   -11.487     12.689     14.781
REMARK INTER + INTRA:         -11.487
REMARK INTER:                 -11.487
REMARK INTRA:                   0.000
REMARK UNBOUND:                 0.000
ROOT
REMARK  Name = flumetasone
REMARK                            x       y       z     vdW  Elec       q    Type
REMARK                         _______ _______ _______ _____ _____    ______ ____
ATOM      1  C   UNL     1      61.638  69.882  51.110  0.00  0.00    +0.000 C 
ATOM      2  C   UNL     1      61.811  69.479  51.809  0.00  0.00    +0.000 C 
ATOM      3  C   UNL     1      61.885  69.816  52.558  0.00  0.00    +0.000 C 
ATOM      4  C   UNL     1      62.059  69.214  53.093  0.00  0.00    +0.000 C 
ATOM      5  C   UNL     1      62.192  69.219  53.907  0.00  0.00    +0.000 C 
ATOM      6  C   UNL     1      62.158  69.929  54.326  0.00  0.00    +0.000 C 
ATOM      7  C   UNL     1      62.291  69.935  55.140  0.00  0.00    +0.000 C 
ATOM      8  F   UNL     1      62.257  70.645  55.558  0.00  0.00    +0.000 F 
ATOM      9  C   UNL     1      62.457  69.230  55.535  0.00  0.00    +0.000 C 
ATOM     10  C   UNL     1      62.589  69.237  56.351  0.00  0.00    +0.000 C 
ATOM     11  C   UNL     1      62.755  68.532  56.746  0.00  0.00    +0.000 C 
ATOM     12  O   UNL     1      62.887  68.538  57.560  0.00  0.00    +0.000 OA
ATOM     13  C   UNL     1      62.789  67.822  56.328  0.00  0.00    +0.000 C 
ATOM     14  C   UNL     1      62.656  67.816  55.514  0.00  0.00    +0.000 C 
ATOM     15  C   UNL     1      62.490  68.520  55.117  0.00  0.00    +0.000 C 
ATOM     16  C   UNL     1      62.524  67.810  54.699  0.00  0.00    +0.000 C 
ATOM     17  C   UNL     1      62.358  68.514  54.303  0.00  0.00    +0.000 C 
ATOM     18  F   UNL     1      62.459  67.701  54.206  0.00  0.00    +0.000 F 
ATOM     19  C   UNL     1      62.391  67.804  53.885  0.00  0.00    +0.000 C 
ATOM     20  O   UNL     1      62.558  67.100  54.281  0.00  0.00    +0.000 OA
ATOM     21  C   UNL     1      62.259  67.798  53.071  0.00  0.00    +0.000 C 
ATOM     22  C   UNL     1      62.093  68.503  52.675  0.00  0.00    +0.000 C 
ATOM     23  C   UNL     1      62.108  67.838  52.186  0.00  0.00    +0.000 C 
ATOM     24  C   UNL     1      61.939  68.667  51.881  0.00  0.00    +0.000 C 
ATOM     25  O   UNL     1      62.006  67.892  51.609  0.00  0.00    +0.000 OA
ATOM     26  C   UNL     1      61.835  68.484  51.083  0.00  0.00    +0.000 C 
ATOM     27  O   UNL     1      61.906  67.702  50.827  0.00  0.00    +0.000 OA
ATOM     28  C   UNL     1      61.661  69.080  50.542  0.00  0.00    +0.000 C 
ATOM     29  O   UNL     1      61.557  68.896  49.744  0.00  0.00    +0.000 OA
ENDROOT
TORSDOF 0
ENDMDL
