MODEL 1
REMARK VINA RESULT:   -16.869      0.000      0.000
REMARK INTER + INTRA:         -16.869
REMARK INTER:                 -16.869
REMARK INTRA:                   0.000
REMARK UNBOUND:                 0.000
ROOT
REMARK  Name = flumetasone pivalate
REMARK                            x       y       z     vdW  Elec       q    Type
REMARK                         _______ _______ _______ _____ _____    ______ ____
ATOM      1  C   UNL     1      60.119  63.456  69.492  0.00  0.00    +0.000 C 
ATOM      2  C   UNL     1      60.445  63.233  68.768  0.00  0.00    +0.000 C 
ATOM      3  C   UNL     1      60.057  62.819  68.169  0.00  0.00    +0.000 C 
ATOM      4  C   UNL     1      60.588  62.715  67.546  0.00  0.00    +0.000 C 
ATOM      5  C   UNL     1      60.512  62.347  66.812  0.00  0.00    +0.000 C 
ATOM      6  C   UNL     1      59.796  61.998  66.596  0.00  0.00    +0.000 C 
ATOM      7  C   UNL     1      59.721  61.630  65.862  0.00  0.00    +0.000 C 
ATOM      8  F   UNL     1      59.005  61.281  65.648  0.00  0.00    +0.000 F 
ATOM      9  C   UNL     1      60.361  61.612  65.343  0.00  0.00    +0.000 C 
ATOM     10  C   UNL     1      60.285  61.244  64.607  0.00  0.00    +0.000 C 
ATOM     11  C   UNL     1      60.926  61.225  64.088  0.00  0.00    +0.000 C 
ATOM     12  O   UNL     1      60.850  60.858  63.354  0.00  0.00    +0.000 OA
ATOM     13  C   UNL     1      61.642  61.575  64.303  0.00  0.00    +0.000 C 
ATOM     14  C   UNL     1      61.717  61.942  65.037  0.00  0.00    +0.000 C 
ATOM     15  C   UNL     1      61.077  61.961  65.557  0.00  0.00    +0.000 C 
ATOM     16  C   UNL     1      61.794  62.310  65.772  0.00  0.00    +0.000 C 
ATOM     17  C   UNL     1      61.153  62.329  66.292  0.00  0.00    +0.000 C 
ATOM     18  F   UNL     1      61.940  62.557  66.193  0.00  0.00    +0.000 F 
ATOM     19  C   UNL     1      61.869  62.678  66.506  0.00  0.00    +0.000 C 
ATOM     20  O   UNL     1      62.509  62.659  65.986  0.00  0.00    +0.000 OA
ATOM     21  C   UNL     1      61.944  63.046  67.241  0.00  0.00    +0.000 C 
ATOM     22  C   UNL     1      61.304  63.064  67.761  0.00  0.00    +0.000 C 
ATOM     23  C   UNL     1      61.982  63.435  68.050  0.00  0.00    +0.000 C 
ATOM     24  C   UNL     1      61.216  63.384  68.516  0.00  0.00    +0.000 C 
ATOM     25  O   UNL     1      61.981  63.682  68.583  0.00  0.00    +0.000 OA
ATOM     26  C   UNL     1      61.460  63.785  69.195  0.00  0.00    +0.000 C 
ATOM     27  O   UNL     1      62.230  64.077  69.246  0.00  0.00    +0.000 OA
ATOM     28  C   UNL     1      60.935  63.893  69.821  0.00  0.00    +0.000 C 
ATOM     29  O   UNL     1      61.180  64.294  70.500  0.00  0.00    +0.000 OA
ATOM     30  C   UNL     1      60.654  64.402  71.127  0.00  0.00    +0.000 C 
ATOM     31  O   UNL     1      59.885  64.110  71.075  0.00  0.00    +0.000 OA
ATOM     32  C   UNL     1      60.899  64.803  71.806  0.00  0.00    +0.000 C 
ATOM     33  C   UNL     1      61.144  65.203  72.483  0.00  0.00    +0.000 C 
ATOM     34  C   UNL     1      60.151  64.697  72.138  0.00  0.00    +0.000 C 
ATOM     35  C   UNL     1      61.647  64.909  71.473  0.00  0.00    +0.000 C 
ENDROOT
TORSDOF 0
ENDMDL
MODEL 2
REMARK VINA RESULT:   -16.740      0.899      1.720
REMARK INTER + INTRA:         -16.740
REMARK INTER:                 -16.740
REMARK INTRA:                   0.000
REMARK UNBOUND:                 0.000
ROOT
REMARK  Name = flumetasone pivalate
REMARK                            x       y       z     vdW  Elec       q    Type
REMARK                         _______ _______ _______ _____ _____    ______ ____
ATOM      1  C   UNL     1      62.032  64.055  69.238  0.00  0.00    +0.000 C 
ATOM      2  C   UNL     1      61.656  63.633  68.637  0.00  0.00    +0.000 C 
ATOM      3  C   UNL     1      61.991  63.410  67.917  0.00  0.00    +0.000 C 
ATOM      4  C   UNL     1      61.421  63.000  67.486  0.00  0.00    +0.000 C 
ATOM      5  C   UNL     1      61.439  62.650  66.739  0.00  0.00    +0.000 C 
ATOM      6  C   UNL     1      62.127  62.681  66.285  0.00  0.00    +0.000 C 
ATOM      7  C   UNL     1      62.145  62.331  65.539  0.00  0.00    +0.000 C 
ATOM      8  F   UNL     1      62.834  62.362  65.085  0.00  0.00    +0.000 F 
ATOM      9  C   UNL     1      61.475  61.950  65.246  0.00  0.00    +0.000 C 
ATOM     10  C   UNL     1      61.494  61.600  64.498  0.00  0.00    +0.000 C 
ATOM     11  C   UNL     1      60.823  61.219  64.205  0.00  0.00    +0.000 C 
ATOM     12  O   UNL     1      60.841  60.869  63.459  0.00  0.00    +0.000 OA
ATOM     13  C   UNL     1      60.135  61.188  64.659  0.00  0.00    +0.000 C 
ATOM     14  C   UNL     1      60.117  61.538  65.405  0.00  0.00    +0.000 C 
ATOM     15  C   UNL     1      60.786  61.919  65.699  0.00  0.00    +0.000 C 
ATOM     16  C   UNL     1      60.098  61.887  66.152  0.00  0.00    +0.000 C 
ATOM     17  C   UNL     1      60.768  62.269  66.446  0.00  0.00    +0.000 C 
ATOM     18  F   UNL     1      59.986  62.068  66.615  0.00  0.00    +0.000 F 
ATOM     19  C   UNL     1      60.080  62.237  66.899  0.00  0.00    +0.000 C 
ATOM     20  O   UNL     1      59.410  61.856  66.605  0.00  0.00    +0.000 OA
ATOM     21  C   UNL     1      60.062  62.587  67.646  0.00  0.00    +0.000 C 
ATOM     22  C   UNL     1      60.732  62.968  67.939  0.00  0.00    +0.000 C 
ATOM     23  C   UNL     1      60.086  62.981  68.453  0.00  0.00    +0.000 C 
ATOM     24  C   UNL     1      60.877  63.360  68.651  0.00  0.00    +0.000 C 
ATOM     25  O   UNL     1      60.128  63.246  68.976  0.00  0.00    +0.000 OA
ATOM     26  C   UNL     1      60.689  63.650  69.400  0.00  0.00    +0.000 C 
ATOM     27  O   UNL     1      59.934  63.527  69.712  0.00  0.00    +0.000 OA
ATOM     28  C   UNL     1      61.253  64.061  69.837  0.00  0.00    +0.000 C 
ATOM     29  O   UNL     1      61.064  64.351  70.587  0.00  0.00    +0.000 OA
ATOM     30  C   UNL     1      61.630  64.763  71.024  0.00  0.00    +0.000 C 
ATOM     31  O   UNL     1      62.384  64.885  70.712  0.00  0.00    +0.000 OA
ATOM     32  C   UNL     1      61.441  65.053  71.774  0.00  0.00    +0.000 C 
ATOM     33  C   UNL     1      61.252  65.342  72.522  0.00  0.00    +0.000 C 
ATOM     34  C   UNL     1      62.203  65.361  71.847  0.00  0.00    +0.000 C 
ATOM     35  C   UNL     1      60.679  64.744  71.701  0.00  0.00    +0.000 C 
ENDROOT
TORSDOF 0
ENDMDL
MODEL 3
REMARK VINA RESULT:   -16.482      1.873      5.730
REMARK INTER + INTRA:         -16.482
REMARK INTER:                 -16.482
REMARK INTRA:                   0.000
REMARK UNBOUND:                 0.000
ROOT
REMARK  Name = flumetasone pivalate
REMARK                            x       y       z     vdW  Elec       q    Type
REMARK                         _______ _______ _______ _____ _____    ______ ____
ATOM      1  C   UNL     1      61.066  63.611  67.165  0.00  0.00    +0.000 C 
ATOM      2  C   UNL     1      60.843  63.603  67.960  0.00  0.00    +0.000 C 
ATOM      3  C   UNL     1      60.578  64.251  68.396  0.00  0.00    +0.000 C 
ATOM      4  C   UNL     1      60.417  63.994  69.163  0.00  0.00    +0.000 C 
ATOM      5  C   UNL     1      60.141  64.390  69.831  0.00  0.00    +0.000 C 
ATOM      6  C   UNL     1      59.975  65.198  69.794  0.00  0.00    +0.000 C 
ATOM      7  C   UNL     1      59.699  65.594  70.463  0.00  0.00    +0.000 C 
ATOM      8  F   UNL     1      59.533  66.401  70.424  0.00  0.00    +0.000 F 
ATOM      9  C   UNL     1      59.590  65.183  71.169  0.00  0.00    +0.000 C 
ATOM     10  C   UNL     1      59.313  65.580  71.838  0.00  0.00    +0.000 C 
ATOM     11  C   UNL     1      59.204  65.169  72.545  0.00  0.00    +0.000 C 
ATOM     12  O   UNL     1      58.928  65.565  73.213  0.00  0.00    +0.000 OA
ATOM     13  C   UNL     1      59.370  64.362  72.583  0.00  0.00    +0.000 C 
ATOM     14  C   UNL     1      59.645  63.966  71.914  0.00  0.00    +0.000 C 
ATOM     15  C   UNL     1      59.755  64.376  71.207  0.00  0.00    +0.000 C 
ATOM     16  C   UNL     1      59.921  63.568  71.246  0.00  0.00    +0.000 C 
ATOM     17  C   UNL     1      60.031  63.979  70.539  0.00  0.00    +0.000 C 
ATOM     18  F   UNL     1      60.092  63.239  70.897  0.00  0.00    +0.000 F 
ATOM     19  C   UNL     1      60.197  63.172  70.577  0.00  0.00    +0.000 C 
ATOM     20  O   UNL     1      60.087  62.762  71.284  0.00  0.00    +0.000 OA
ATOM     21  C   UNL     1      60.473  62.776  69.908  0.00  0.00    +0.000 C 
ATOM     22  C   UNL     1      60.583  63.187  69.201  0.00  0.00    +0.000 C 
ATOM     23  C   UNL     1      60.772  62.384  69.156  0.00  0.00    +0.000 C 
ATOM     24  C   UNL     1      60.847  62.945  68.457  0.00  0.00    +0.000 C 
ATOM     25  O   UNL     1      60.965  62.153  68.652  0.00  0.00    +0.000 OA
ATOM     26  C   UNL     1      61.123  62.405  67.898  0.00  0.00    +0.000 C 
ATOM     27  O   UNL     1      61.236  61.615  68.109  0.00  0.00    +0.000 OA
ATOM     28  C   UNL     1      61.286  62.654  67.129  0.00  0.00    +0.000 C 
ATOM     29  O   UNL     1      61.562  62.114  66.570  0.00  0.00    +0.000 OA
ATOM     30  C   UNL     1      61.725  62.363  65.801  0.00  0.00    +0.000 C 
ATOM     31  O   UNL     1      61.612  63.153  65.591  0.00  0.00    +0.000 OA
ATOM     32  C   UNL     1      62.002  61.823  65.242  0.00  0.00    +0.000 C 
ATOM     33  C   UNL     1      62.278  61.283  64.684  0.00  0.00    +0.000 C 
ATOM     34  C   UNL     1      62.030  62.423  64.676  0.00  0.00    +0.000 C 
ATOM     35  C   UNL     1      61.973  61.223  65.808  0.00  0.00    +0.000 C 
ENDROOT
TORSDOF 0
ENDMDL
MODEL 4
REMARK VINA RESULT:   -16.395      1.545      5.497
REMARK INTER + INTRA:         -16.395
REMARK INTER:                 -16.395
REMARK INTRA:                   0.000
REMARK UNBOUND:                 0.000
ROOT
REMARK  Name = flumetasone pivalate
REMARK                            x       y       z     vdW  Elec       q    Type
REMARK                         _______ _______ _______ _____ _____    ______ ____
ATOM      1  C   UNL     1      60.616  61.571  67.002  0.00  0.00    +0.000 C 
ATOM      2  C   UNL     1      60.804  62.039  67.655  0.00  0.00    +0.000 C 
ATOM      3  C   UNL     1      60.501  61.952  68.417  0.00  0.00    +0.000 C 
ATOM      4  C   UNL     1      60.838  62.535  68.893  0.00  0.00    +0.000 C 
ATOM      5  C   UNL     1      60.745  62.716  69.693  0.00  0.00    +0.000 C 
ATOM      6  C   UNL     1      60.234  62.268  70.162  0.00  0.00    +0.000 C 
ATOM      7  C   UNL     1      60.142  62.450  70.961  0.00  0.00    +0.000 C 
ATOM      8  F   UNL     1      59.631  62.002  71.429  0.00  0.00    +0.000 F 
ATOM      9  C   UNL     1      60.560  63.079  71.291  0.00  0.00    +0.000 C 
ATOM     10  C   UNL     1      60.467  63.260  72.092  0.00  0.00    +0.000 C 
ATOM     11  C   UNL     1      60.885  63.889  72.423  0.00  0.00    +0.000 C 
ATOM     12  O   UNL     1      60.793  64.071  73.222  0.00  0.00    +0.000 OA
ATOM     13  C   UNL     1      61.396  64.338  71.955  0.00  0.00    +0.000 C 
ATOM     14  C   UNL     1      61.489  64.156  71.155  0.00  0.00    +0.000 C 
ATOM     15  C   UNL     1      61.071  63.527  70.824  0.00  0.00    +0.000 C 
ATOM     16  C   UNL     1      61.582  63.975  70.356  0.00  0.00    +0.000 C 
ATOM     17  C   UNL     1      61.163  63.346  70.024  0.00  0.00    +0.000 C 
ATOM     18  F   UNL     1      61.707  63.946  69.863  0.00  0.00    +0.000 F 
ATOM     19  C   UNL     1      61.674  63.794  69.556  0.00  0.00    +0.000 C 
ATOM     20  O   UNL     1      62.092  64.423  69.888  0.00  0.00    +0.000 OA
ATOM     21  C   UNL     1      61.767  63.613  68.757  0.00  0.00    +0.000 C 
ATOM     22  C   UNL     1      61.348  62.983  68.426  0.00  0.00    +0.000 C 
ATOM     23  C   UNL     1      61.837  63.380  67.892  0.00  0.00    +0.000 C 
ATOM     24  C   UNL     1      61.328  62.677  67.659  0.00  0.00    +0.000 C 
ATOM     25  O   UNL     1      61.865  63.208  67.330  0.00  0.00    +0.000 OA
ATOM     26  C   UNL     1      61.535  62.635  66.862  0.00  0.00    +0.000 C 
ATOM     27  O   UNL     1      62.075  63.175  66.548  0.00  0.00    +0.000 OA
ATOM     28  C   UNL     1      61.203  62.055  66.379  0.00  0.00    +0.000 C 
ATOM     29  O   UNL     1      61.411  62.014  65.582  0.00  0.00    +0.000 OA
ATOM     30  C   UNL     1      61.078  61.433  65.099  0.00  0.00    +0.000 C 
ATOM     31  O   UNL     1      60.539  60.894  65.413  0.00  0.00    +0.000 OA
ATOM     32  C   UNL     1      61.286  61.392  64.301  0.00  0.00    +0.000 C 
ATOM     33  C   UNL     1      61.493  61.351  63.504  0.00  0.00    +0.000 C 
ATOM     34  C   UNL     1      60.783  60.745  64.203  0.00  0.00    +0.000 C 
ATOM     35  C   UNL     1      61.789  62.038  64.398  0.00  0.00    +0.000 C 
ENDROOT
TORSDOF 0
ENDMDL
MODEL 5
REMARK VINA RESULT:   -14.834      1.869      6.003
REMARK INTER + INTRA:         -14.834
REMARK INTER:                 -14.834
REMARK INTRA:                   0.000
REMARK UNBOUND:                 0.000
ROOT
REMARK  Name = flumetasone pivalate
REMARK                            x       y       z     vdW  Elec       q    Type
REMARK                         _______ _______ _______ _____ _____    ______ ____
ATOM      1  C   UNL     1      61.910  63.135  67.728  0.00  0.00    +0.000 C 
ATOM      2  C   UNL     1      61.677  63.602  68.367  0.00  0.00    +0.000 C 
ATOM      3  C   UNL     1      62.179  63.950  68.922  0.00  0.00    +0.000 C 
ATOM      4  C   UNL     1      61.713  64.367  69.460  0.00  0.00    +0.000 C 
ATOM      5  C   UNL     1      61.906  64.817  70.124  0.00  0.00    +0.000 C 
ATOM      6  C   UNL     1      62.695  64.908  70.347  0.00  0.00    +0.000 C 
ATOM      7  C   UNL     1      62.888  65.358  71.011  0.00  0.00    +0.000 C 
ATOM      8  F   UNL     1      63.677  65.448  71.232  0.00  0.00    +0.000 F 
ATOM      9  C   UNL     1      62.291  65.717  71.452  0.00  0.00    +0.000 C 
ATOM     10  C   UNL     1      62.484  66.168  72.117  0.00  0.00    +0.000 C 
ATOM     11  C   UNL     1      61.888  66.527  72.558  0.00  0.00    +0.000 C 
ATOM     12  O   UNL     1      62.080  66.977  73.222  0.00  0.00    +0.000 OA
ATOM     13  C   UNL     1      61.098  66.436  72.336  0.00  0.00    +0.000 C 
ATOM     14  C   UNL     1      60.906  65.986  71.672  0.00  0.00    +0.000 C 
ATOM     15  C   UNL     1      61.501  65.627  71.230  0.00  0.00    +0.000 C 
ATOM     16  C   UNL     1      60.712  65.536  71.009  0.00  0.00    +0.000 C 
ATOM     17  C   UNL     1      61.309  65.176  70.566  0.00  0.00    +0.000 C 
ATOM     18  F   UNL     1      60.493  65.284  70.624  0.00  0.00    +0.000 F 
ATOM     19  C   UNL     1      60.519  65.086  70.345  0.00  0.00    +0.000 C 
ATOM     20  O   UNL     1      59.924  65.446  70.787  0.00  0.00    +0.000 OA
ATOM     21  C   UNL     1      60.327  64.636  69.681  0.00  0.00    +0.000 C 
ATOM     22  C   UNL     1      60.924  64.276  69.239  0.00  0.00    +0.000 C 
ATOM     23  C   UNL     1      60.162  64.137  68.951  0.00  0.00    +0.000 C 
ATOM     24  C   UNL     1      60.901  63.803  68.563  0.00  0.00    +0.000 C 
ATOM     25  O   UNL     1      60.082  63.807  68.472  0.00  0.00    +0.000 OA
ATOM     26  C   UNL     1      60.539  63.398  67.942  0.00  0.00    +0.000 C 
ATOM     27  O   UNL     1      59.717  63.412  67.865  0.00  0.00    +0.000 OA
ATOM     28  C   UNL     1      60.997  62.979  67.400  0.00  0.00    +0.000 C 
ATOM     29  O   UNL     1      60.634  62.574  66.779  0.00  0.00    +0.000 OA
ATOM     30  C   UNL     1      61.093  62.154  66.236  0.00  0.00    +0.000 C 
ATOM     31  O   UNL     1      61.914  62.141  66.314  0.00  0.00    +0.000 OA
ATOM     32  C   UNL     1      60.730  61.749  65.616  0.00  0.00    +0.000 C 
ATOM     33  C   UNL     1      60.368  61.344  64.996  0.00  0.00    +0.000 C 
ATOM     34  C   UNL     1      61.470  61.499  65.347  0.00  0.00    +0.000 C 
ATOM     35  C   UNL     1      59.991  61.999  65.885  0.00  0.00    +0.000 C 
ENDROOT
TORSDOF 0
ENDMDL
MODEL 6
REMARK VINA RESULT:   -14.378      5.275      6.856
REMARK INTER + INTRA:         -14.378
REMARK INTER:                 -14.378
REMARK INTRA:                   0.000
REMARK UNBOUND:                 0.000
ROOT
REMARK  Name = flumetasone pivalate
REMARK                            x       y       z     vdW  Elec       q    Type
REMARK                         _______ _______ _______ _____ _____    ______ ____
ATOM      1  C   UNL     1      63.423  65.905  70.979  0.00  0.00    +0.000 C 
ATOM      2  C   UNL     1      62.695  66.024  71.347  0.00  0.00    +0.000 C 
ATOM      3  C   UNL     1      62.052  65.506  71.331  0.00  0.00    +0.000 C 
ATOM      4  C   UNL     1      61.442  65.843  71.770  0.00  0.00    +0.000 C 
ATOM      5  C   UNL     1      60.679  65.583  71.945  0.00  0.00    +0.000 C 
ATOM      6  C   UNL     1      60.414  64.856  71.657  0.00  0.00    +0.000 C 
ATOM      7  C   UNL     1      59.651  64.596  71.832  0.00  0.00    +0.000 C 
ATOM      8  F   UNL     1      59.387  63.870  71.543  0.00  0.00    +0.000 F 
ATOM      9  C   UNL     1      59.153  65.062  72.295  0.00  0.00    +0.000 C 
ATOM     10  C   UNL     1      58.389  64.801  72.470  0.00  0.00    +0.000 C 
ATOM     11  C   UNL     1      57.891  65.267  72.933  0.00  0.00    +0.000 C 
ATOM     12  O   UNL     1      57.128  65.007  73.108  0.00  0.00    +0.000 OA
ATOM     13  C   UNL     1      58.155  65.993  73.222  0.00  0.00    +0.000 C 
ATOM     14  C   UNL     1      58.918  66.254  73.047  0.00  0.00    +0.000 C 
ATOM     15  C   UNL     1      59.417  65.788  72.584  0.00  0.00    +0.000 C 
ATOM     16  C   UNL     1      59.681  66.515  72.873  0.00  0.00    +0.000 C 
ATOM     17  C   UNL     1      60.180  66.049  72.409  0.00  0.00    +0.000 C 
ATOM     18  F   UNL     1      60.124  66.760  72.823  0.00  0.00    +0.000 F 
ATOM     19  C   UNL     1      60.444  66.775  72.698  0.00  0.00    +0.000 C 
ATOM     20  O   UNL     1      59.945  67.240  73.161  0.00  0.00    +0.000 OA
ATOM     21  C   UNL     1      61.207  67.035  72.523  0.00  0.00    +0.000 C 
ATOM     22  C   UNL     1      61.706  66.569  72.059  0.00  0.00    +0.000 C 
ATOM     23  C   UNL     1      62.045  67.279  72.308  0.00  0.00    +0.000 C 
ATOM     24  C   UNL     1      62.480  66.681  71.798  0.00  0.00    +0.000 C 
ATOM     25  O   UNL     1      62.595  67.416  72.153  0.00  0.00    +0.000 OA
ATOM     26  C   UNL     1      63.196  67.085  71.721  0.00  0.00    +0.000 C 
ATOM     27  O   UNL     1      63.294  67.820  72.084  0.00  0.00    +0.000 OA
ATOM     28  C   UNL     1      63.811  66.755  71.284  0.00  0.00    +0.000 C 
ATOM     29  O   UNL     1      64.527  67.159  71.208  0.00  0.00    +0.000 OA
ATOM     30  C   UNL     1      65.143  66.829  70.769  0.00  0.00    +0.000 C 
ATOM     31  O   UNL     1      65.043  66.094  70.408  0.00  0.00    +0.000 OA
ATOM     32  C   UNL     1      65.858  67.233  70.693  0.00  0.00    +0.000 C 
ATOM     33  C   UNL     1      66.573  67.637  70.618  0.00  0.00    +0.000 C 
ATOM     34  C   UNL     1      66.157  66.618  70.231  0.00  0.00    +0.000 C 
ATOM     35  C   UNL     1      65.560  67.848  71.155  0.00  0.00    +0.000 C 
ENDROOT
TORSDOF 0
ENDMDL
