MODEL 1
REMARK VINA RESULT:   -11.732      0.000      0.000
REMARK INTER + INTRA:         -11.732
REMARK INTER:                 -11.732
REMARK INTRA:                   0.000
REMARK UNBOUND:                 0.000
ROOT
REMARK  Name = flunoxaprofen
REMARK                            x       y       z     vdW  Elec       q    Type
REMARK                         _______ _______ _______ _____ _____    ______ ____
ATOM      1  C   UNL     1      60.333  61.627  70.162  0.00  0.00    +0.000 C 
ATOM      2  C   UNL     1      60.554  62.408  70.014  0.00  0.00    +0.000 C 
ATOM      3  C   UNL     1      60.502  62.971  70.615  0.00  0.00    +0.000 C 
ATOM      4  O   UNL     1      60.229  62.755  71.362  0.00  0.00    +0.000 OA
ATOM      5  O   UNL     1      60.723  63.752  70.467  0.00  0.00    +0.000 OA
ATOM      6  C   UNL     1      60.827  62.625  69.267  0.00  0.00    +0.000 A 
ATOM      7  C   UNL     1      60.878  62.061  68.667  0.00  0.00    +0.000 A 
ATOM      8  C   UNL     1      61.151  62.278  67.919  0.00  0.00    +0.000 A 
ATOM      9  C   UNL     1      61.372  63.059  67.772  0.00  0.00    +0.000 A 
ATOM     10  O   UNL     1      61.619  63.110  66.986  0.00  0.00    +0.000 OA
ATOM     11  C   UNL     1      61.550  62.361  66.648  0.00  0.00    +0.000 A 
ATOM     12  N   UNL     1      61.261  61.847  67.225  0.00  0.00    +0.000 NA
ATOM     13  C   UNL     1      61.738  62.160  65.870  0.00  0.00    +0.000 A 
ATOM     14  C   UNL     1      61.640  61.383  65.609  0.00  0.00    +0.000 A 
ATOM     15  C   UNL     1      61.827  61.183  64.831  0.00  0.00    +0.000 A 
ATOM     16  C   UNL     1      62.112  61.760  64.314  0.00  0.00    +0.000 A 
ATOM     17  F   UNL     1      62.300  61.560  63.536  0.00  0.00    +0.000 F 
ATOM     18  C   UNL     1      62.210  62.536  64.575  0.00  0.00    +0.000 A 
ATOM     19  C   UNL     1      62.023  62.736  65.353  0.00  0.00    +0.000 A 
ATOM     20  C   UNL     1      61.321  63.623  68.372  0.00  0.00    +0.000 A 
ATOM     21  C   UNL     1      61.048  63.405  69.119  0.00  0.00    +0.000 A 
ENDROOT
TORSDOF 0
ENDMDL
MODEL 2
REMARK VINA RESULT:   -11.604      0.880      1.359
REMARK INTER + INTRA:         -11.604
REMARK INTER:                 -11.604
REMARK INTRA:                   0.000
REMARK UNBOUND:                 0.000
ROOT
REMARK  Name = flunoxaprofen
REMARK                            x       y       z     vdW  Elec       q    Type
REMARK                         _______ _______ _______ _____ _____    ______ ____
ATOM      1  C   UNL     1      61.966  64.181  69.393  0.00  0.00    +0.000 C 
ATOM      2  C   UNL     1      61.307  63.684  69.400  0.00  0.00    +0.000 C 
ATOM      3  C   UNL     1      60.833  63.638  70.074  0.00  0.00    +0.000 C 
ATOM      4  O   UNL     1      61.016  64.088  70.740  0.00  0.00    +0.000 OA
ATOM      5  O   UNL     1      60.175  63.141  70.081  0.00  0.00    +0.000 OA
ATOM      6  C   UNL     1      61.124  63.233  68.735  0.00  0.00    +0.000 A 
ATOM      7  C   UNL     1      61.599  63.279  68.062  0.00  0.00    +0.000 A 
ATOM      8  C   UNL     1      61.416  62.828  67.396  0.00  0.00    +0.000 A 
ATOM      9  C   UNL     1      60.757  62.331  67.403  0.00  0.00    +0.000 A 
ATOM     10  O   UNL     1      60.714  61.955  66.670  0.00  0.00    +0.000 OA
ATOM     11  C   UNL     1      61.345  62.220  66.210  0.00  0.00    +0.000 A 
ATOM     12  N   UNL     1      61.778  62.759  66.659  0.00  0.00    +0.000 NA
ATOM     13  C   UNL     1      61.513  61.986  65.437  0.00  0.00    +0.000 A 
ATOM     14  C   UNL     1      62.168  62.300  65.044  0.00  0.00    +0.000 A 
ATOM     15  C   UNL     1      62.336  62.066  64.271  0.00  0.00    +0.000 A 
ATOM     16  C   UNL     1      61.849  61.519  63.891  0.00  0.00    +0.000 A 
ATOM     17  F   UNL     1      62.017  61.285  63.118  0.00  0.00    +0.000 F 
ATOM     18  C   UNL     1      61.196  61.205  64.283  0.00  0.00    +0.000 A 
ATOM     19  C   UNL     1      61.027  61.439  65.056  0.00  0.00    +0.000 A 
ATOM     20  C   UNL     1      60.282  62.285  68.076  0.00  0.00    +0.000 A 
ATOM     21  C   UNL     1      60.466  62.736  68.742  0.00  0.00    +0.000 A 
ENDROOT
TORSDOF 0
ENDMDL
MODEL 3
REMARK VINA RESULT:   -11.016      2.248      4.868
REMARK INTER + INTRA:         -11.016
REMARK INTER:                 -11.016
REMARK INTRA:                   0.000
REMARK UNBOUND:                 0.000
ROOT
REMARK  Name = flunoxaprofen
REMARK                            x       y       z     vdW  Elec       q    Type
REMARK                         _______ _______ _______ _____ _____    ______ ____
ATOM      1  C   UNL     1      62.534  61.984  64.408  0.00  0.00    +0.000 C 
ATOM      2  C   UNL     1      61.754  61.755  64.549  0.00  0.00    +0.000 C 
ATOM      3  C   UNL     1      61.340  61.330  63.976  0.00  0.00    +0.000 C 
ATOM      4  O   UNL     1      61.704  61.134  63.263  0.00  0.00    +0.000 OA
ATOM      5  O   UNL     1      60.560  61.100  64.116  0.00  0.00    +0.000 OA
ATOM      6  C   UNL     1      61.389  61.951  65.261  0.00  0.00    +0.000 A 
ATOM      7  C   UNL     1      61.803  62.376  65.834  0.00  0.00    +0.000 A 
ATOM      8  C   UNL     1      61.438  62.573  66.547  0.00  0.00    +0.000 A 
ATOM      9  C   UNL     1      60.658  62.343  66.688  0.00  0.00    +0.000 A 
ATOM     10  O   UNL     1      60.444  62.613  67.437  0.00  0.00    +0.000 OA
ATOM     11  C   UNL     1      61.092  63.010  67.760  0.00  0.00    +0.000 A 
ATOM     12  N   UNL     1      61.705  62.984  67.209  0.00  0.00    +0.000 NA
ATOM     13  C   UNL     1      61.120  63.368  68.502  0.00  0.00    +0.000 A 
ATOM     14  C   UNL     1      61.810  63.747  68.751  0.00  0.00    +0.000 A 
ATOM     15  C   UNL     1      61.839  64.106  69.494  0.00  0.00    +0.000 A 
ATOM     16  C   UNL     1      61.177  64.086  69.987  0.00  0.00    +0.000 A 
ATOM     17  F   UNL     1      61.206  64.445  70.729  0.00  0.00    +0.000 F 
ATOM     18  C   UNL     1      60.488  63.708  69.738  0.00  0.00    +0.000 A 
ATOM     19  C   UNL     1      60.459  63.350  68.995  0.00  0.00    +0.000 A 
ATOM     20  C   UNL     1      60.243  61.917  66.115  0.00  0.00    +0.000 A 
ATOM     21  C   UNL     1      60.609  61.722  65.402  0.00  0.00    +0.000 A 
ENDROOT
TORSDOF 0
ENDMDL
MODEL 4
REMARK VINA RESULT:   -10.498      4.400      5.673
REMARK INTER + INTRA:         -10.498
REMARK INTER:                 -10.498
REMARK INTRA:                   0.000
REMARK UNBOUND:                 0.000
ROOT
REMARK  Name = flunoxaprofen
REMARK                            x       y       z     vdW  Elec       q    Type
REMARK                         _______ _______ _______ _____ _____    ______ ____
ATOM      1  C   UNL     1      61.479  63.685  72.477  0.00  0.00    +0.000 C 
ATOM      2  C   UNL     1      61.539  63.544  71.666  0.00  0.00    +0.000 C 
ATOM      3  C   UNL     1      61.049  62.985  71.308  0.00  0.00    +0.000 C 
ATOM      4  O   UNL     1      60.501  62.567  71.759  0.00  0.00    +0.000 OA
ATOM      5  O   UNL     1      61.109  62.844  70.497  0.00  0.00    +0.000 OA
ATOM      6  C   UNL     1      62.088  63.962  71.215  0.00  0.00    +0.000 A 
ATOM      7  C   UNL     1      62.576  64.521  71.573  0.00  0.00    +0.000 A 
ATOM      8  C   UNL     1      63.126  64.940  71.122  0.00  0.00    +0.000 A 
ATOM      9  C   UNL     1      63.186  64.799  70.312  0.00  0.00    +0.000 A 
ATOM     10  O   UNL     1      63.774  65.292  70.010  0.00  0.00    +0.000 OA
ATOM     11  C   UNL     1      64.078  65.737  70.634  0.00  0.00    +0.000 A 
ATOM     12  N   UNL     1      63.677  65.519  71.321  0.00  0.00    +0.000 NA
ATOM     13  C   UNL     1      64.677  66.302  70.581  0.00  0.00    +0.000 A 
ATOM     14  C   UNL     1      64.925  66.706  71.257  0.00  0.00    +0.000 A 
ATOM     15  C   UNL     1      65.525  67.270  71.203  0.00  0.00    +0.000 A 
ATOM     16  C   UNL     1      65.876  67.430  70.474  0.00  0.00    +0.000 A 
ATOM     17  F   UNL     1      66.476  67.995  70.420  0.00  0.00    +0.000 F 
ATOM     18  C   UNL     1      65.629  67.027  69.799  0.00  0.00    +0.000 A 
ATOM     19  C   UNL     1      65.029  66.462  69.852  0.00  0.00    +0.000 A 
ATOM     20  C   UNL     1      62.697  64.240  69.952  0.00  0.00    +0.000 A 
ATOM     21  C   UNL     1      62.148  63.822  70.404  0.00  0.00    +0.000 A 
ENDROOT
TORSDOF 0
ENDMDL
MODEL 5
REMARK VINA RESULT:   -10.438      4.546      6.227
REMARK INTER + INTRA:         -10.438
REMARK INTER:                 -10.438
REMARK INTRA:                   0.000
REMARK UNBOUND:                 0.000
ROOT
REMARK  Name = flunoxaprofen
REMARK                            x       y       z     vdW  Elec       q    Type
REMARK                         _______ _______ _______ _____ _____    ______ ____
ATOM      1  C   UNL     1      65.618  66.856  71.649  0.00  0.00    +0.000 C 
ATOM      2  C   UNL     1      65.379  66.776  70.863  0.00  0.00    +0.000 C 
ATOM      3  C   UNL     1      65.794  67.164  70.265  0.00  0.00    +0.000 C 
ATOM      4  O   UNL     1      66.447  67.631  70.451  0.00  0.00    +0.000 OA
ATOM      5  O   UNL     1      65.555  67.084  69.479  0.00  0.00    +0.000 OA
ATOM      6  C   UNL     1      64.726  66.309  70.677  0.00  0.00    +0.000 A 
ATOM      7  C   UNL     1      64.312  65.921  71.275  0.00  0.00    +0.000 A 
ATOM      8  C   UNL     1      63.658  65.453  71.090  0.00  0.00    +0.000 A 
ATOM      9  C   UNL     1      63.419  65.373  70.304  0.00  0.00    +0.000 A 
ATOM     10  O   UNL     1      62.759  64.879  70.288  0.00  0.00    +0.000 OA
ATOM     11  C   UNL     1      62.590  64.654  71.063  0.00  0.00    +0.000 A 
ATOM     12  N   UNL     1      63.146  65.009  71.558  0.00  0.00    +0.000 NA
ATOM     13  C   UNL     1      61.974  64.160  71.301  0.00  0.00    +0.000 A 
ATOM     14  C   UNL     1      61.872  63.982  72.101  0.00  0.00    +0.000 A 
ATOM     15  C   UNL     1      61.256  63.489  72.339  0.00  0.00    +0.000 A 
ATOM     16  C   UNL     1      60.740  63.173  71.777  0.00  0.00    +0.000 A 
ATOM     17  F   UNL     1      60.124  62.679  72.015  0.00  0.00    +0.000 F 
ATOM     18  C   UNL     1      60.841  63.350  70.978  0.00  0.00    +0.000 A 
ATOM     19  C   UNL     1      61.458  63.843  70.740  0.00  0.00    +0.000 A 
ATOM     20  C   UNL     1      63.834  65.761  69.704  0.00  0.00    +0.000 A 
ATOM     21  C   UNL     1      64.487  66.228  69.892  0.00  0.00    +0.000 A 
ENDROOT
TORSDOF 0
ENDMDL
MODEL 6
REMARK VINA RESULT:   -10.191      2.737      4.656
REMARK INTER + INTRA:         -10.191
REMARK INTER:                 -10.191
REMARK INTRA:                   0.000
REMARK UNBOUND:                 0.000
ROOT
REMARK  Name = flunoxaprofen
REMARK                            x       y       z     vdW  Elec       q    Type
REMARK                         _______ _______ _______ _____ _____    ______ ____
ATOM      1  C   UNL     1      61.180  62.482  65.900  0.00  0.00    +0.000 C 
ATOM      2  C   UNL     1      60.590  62.416  66.472  0.00  0.00    +0.000 C 
ATOM      3  C   UNL     1      59.868  62.065  66.281  0.00  0.00    +0.000 C 
ATOM      4  O   UNL     1      59.737  61.780  65.519  0.00  0.00    +0.000 OA
ATOM      5  O   UNL     1      59.278  61.999  66.854  0.00  0.00    +0.000 OA
ATOM      6  C   UNL     1      60.722  62.701  67.234  0.00  0.00    +0.000 A 
ATOM      7  C   UNL     1      61.443  63.052  67.425  0.00  0.00    +0.000 A 
ATOM      8  C   UNL     1      61.575  63.338  68.188  0.00  0.00    +0.000 A 
ATOM      9  C   UNL     1      60.985  63.272  68.760  0.00  0.00    +0.000 A 
ATOM     10  O   UNL     1      61.271  63.601  69.460  0.00  0.00    +0.000 OA
ATOM     11  C   UNL     1      62.037  63.870  69.321  0.00  0.00    +0.000 A 
ATOM     12  N   UNL     1      62.225  63.707  68.534  0.00  0.00    +0.000 NA
ATOM     13  C   UNL     1      62.530  64.237  69.871  0.00  0.00    +0.000 A 
ATOM     14  C   UNL     1      63.288  64.479  69.650  0.00  0.00    +0.000 A 
ATOM     15  C   UNL     1      63.781  64.846  70.201  0.00  0.00    +0.000 A 
ATOM     16  C   UNL     1      63.516  64.972  70.972  0.00  0.00    +0.000 A 
ATOM     17  F   UNL     1      64.008  65.340  71.522  0.00  0.00    +0.000 F 
ATOM     18  C   UNL     1      62.759  64.732  71.193  0.00  0.00    +0.000 A 
ATOM     19  C   UNL     1      62.266  64.364  70.642  0.00  0.00    +0.000 A 
ATOM     20  C   UNL     1      60.262  62.920  68.570  0.00  0.00    +0.000 A 
ATOM     21  C   UNL     1      60.131  62.635  67.807  0.00  0.00    +0.000 A 
ENDROOT
TORSDOF 0
ENDMDL
MODEL 7
REMARK VINA RESULT:    -9.518      4.550      5.800
REMARK INTER + INTRA:          -9.518
REMARK INTER:                  -9.518
REMARK INTRA:                   0.000
REMARK UNBOUND:                 0.000
ROOT
REMARK  Name = flunoxaprofen
REMARK                            x       y       z     vdW  Elec       q    Type
REMARK                         _______ _______ _______ _____ _____    ______ ____
ATOM      1  C   UNL     1      61.936  62.132  72.852  0.00  0.00    +0.000 C 
ATOM      2  C   UNL     1      61.591  62.023  72.111  0.00  0.00    +0.000 C 
ATOM      3  C   UNL     1      61.631  61.286  71.742  0.00  0.00    +0.000 C 
ATOM      4  O   UNL     1      62.016  60.659  72.114  0.00  0.00    +0.000 OA
ATOM      5  O   UNL     1      61.286  61.177  71.001  0.00  0.00    +0.000 OA
ATOM      6  C   UNL     1      61.206  62.651  71.739  0.00  0.00    +0.000 A 
ATOM      7  C   UNL     1      61.167  63.387  72.108  0.00  0.00    +0.000 A 
ATOM      8  C   UNL     1      60.782  64.015  71.736  0.00  0.00    +0.000 A 
ATOM      9  C   UNL     1      60.437  63.906  70.995  0.00  0.00    +0.000 A 
ATOM     10  O   UNL     1      60.097  64.621  70.764  0.00  0.00    +0.000 OA
ATOM     11  C   UNL     1      60.232  65.172  71.363  0.00  0.00    +0.000 A 
ATOM     12  N   UNL     1      60.655  64.797  71.963  0.00  0.00    +0.000 NA
ATOM     13  C   UNL     1      59.987  65.960  71.361  0.00  0.00    +0.000 A 
ATOM     14  C   UNL     1      60.163  66.449  72.003  0.00  0.00    +0.000 A 
ATOM     15  C   UNL     1      59.918  67.237  72.001  0.00  0.00    +0.000 A 
ATOM     16  C   UNL     1      59.497  67.536  71.358  0.00  0.00    +0.000 A 
ATOM     17  F   UNL     1      59.252  68.323  71.356  0.00  0.00    +0.000 F 
ATOM     18  C   UNL     1      59.320  67.048  70.717  0.00  0.00    +0.000 A 
ATOM     19  C   UNL     1      59.565  66.260  70.719  0.00  0.00    +0.000 A 
ATOM     20  C   UNL     1      60.476  63.169  70.625  0.00  0.00    +0.000 A 
ATOM     21  C   UNL     1      60.861  62.542  70.998  0.00  0.00    +0.000 A 
ENDROOT
TORSDOF 0
ENDMDL
MODEL 8
REMARK VINA RESULT:    -9.497      2.773      4.057
REMARK INTER + INTRA:          -9.497
REMARK INTER:                  -9.497
REMARK INTRA:                   0.000
REMARK UNBOUND:                 0.000
ROOT
REMARK  Name = flunoxaprofen
REMARK                            x       y       z     vdW  Elec       q    Type
REMARK                         _______ _______ _______ _____ _____    ______ ____
ATOM      1  C   UNL     1      63.089  66.605  71.299  0.00  0.00    +0.000 C 
ATOM      2  C   UNL     1      62.720  66.103  71.840  0.00  0.00    +0.000 C 
ATOM      3  C   UNL     1      62.743  66.279  72.646  0.00  0.00    +0.000 C 
ATOM      4  O   UNL     1      63.134  66.955  72.910  0.00  0.00    +0.000 OA
ATOM      5  O   UNL     1      62.375  65.777  73.188  0.00  0.00    +0.000 OA
ATOM      6  C   UNL     1      62.330  65.427  71.576  0.00  0.00    +0.000 A 
ATOM      7  C   UNL     1      62.307  65.252  70.771  0.00  0.00    +0.000 A 
ATOM      8  C   UNL     1      61.916  64.575  70.506  0.00  0.00    +0.000 A 
ATOM      9  C   UNL     1      61.548  64.074  71.047  0.00  0.00    +0.000 A 
ATOM     10  O   UNL     1      61.207  63.451  70.627  0.00  0.00    +0.000 OA
ATOM     11  C   UNL     1      61.365  63.568  69.826  0.00  0.00    +0.000 A 
ATOM     12  N   UNL     1      61.803  64.262  69.752  0.00  0.00    +0.000 NA
ATOM     13  C   UNL     1      61.126  63.076  69.209  0.00  0.00    +0.000 A 
ATOM     14  C   UNL     1      61.326  63.264  68.430  0.00  0.00    +0.000 A 
ATOM     15  C   UNL     1      61.087  62.773  67.812  0.00  0.00    +0.000 A 
ATOM     16  C   UNL     1      60.648  62.092  67.973  0.00  0.00    +0.000 A 
ATOM     17  F   UNL     1      60.410  61.600  67.355  0.00  0.00    +0.000 F 
ATOM     18  C   UNL     1      60.449  61.904  68.750  0.00  0.00    +0.000 A 
ATOM     19  C   UNL     1      60.688  62.396  69.368  0.00  0.00    +0.000 A 
ATOM     20  C   UNL     1      61.570  64.249  71.854  0.00  0.00    +0.000 A 
ATOM     21  C   UNL     1      61.961  64.925  72.118  0.00  0.00    +0.000 A 
ENDROOT
TORSDOF 0
ENDMDL
MODEL 9
REMARK VINA RESULT:    -9.273      6.717      6.995
REMARK INTER + INTRA:          -9.273
REMARK INTER:                  -9.273
REMARK INTRA:                   0.000
REMARK UNBOUND:                 0.000
ROOT
REMARK  Name = flunoxaprofen
REMARK                            x       y       z     vdW  Elec       q    Type
REMARK                         _______ _______ _______ _____ _____    ______ ____
ATOM      1  C   UNL     1      60.155  67.381  71.862  0.00  0.00    +0.000 C 
ATOM      2  C   UNL     1      60.418  66.743  72.316  0.00  0.00    +0.000 C 
ATOM      3  C   UNL     1      59.874  66.282  72.732  0.00  0.00    +0.000 C 
ATOM      4  O   UNL     1      59.070  66.459  72.695  0.00  0.00    +0.000 OA
ATOM      5  O   UNL     1      60.137  65.645  73.185  0.00  0.00    +0.000 OA
ATOM      6  C   UNL     1      61.222  66.567  72.352  0.00  0.00    +0.000 A 
ATOM      7  C   UNL     1      61.765  67.028  71.936  0.00  0.00    +0.000 A 
ATOM      8  C   UNL     1      62.570  66.852  71.973  0.00  0.00    +0.000 A 
ATOM      9  C   UNL     1      62.832  66.215  72.426  0.00  0.00    +0.000 A 
ATOM     10  O   UNL     1      63.653  66.174  72.358  0.00  0.00    +0.000 OA
ATOM     11  C   UNL     1      63.898  66.786  71.862  0.00  0.00    +0.000 A 
ATOM     12  N   UNL     1      63.229  67.205  71.625  0.00  0.00    +0.000 NA
ATOM     13  C   UNL     1      64.677  66.950  71.643  0.00  0.00    +0.000 A 
ATOM     14  C   UNL     1      64.839  67.585  71.141  0.00  0.00    +0.000 A 
ATOM     15  C   UNL     1      65.617  67.749  70.922  0.00  0.00    +0.000 A 
ATOM     16  C   UNL     1      66.233  67.279  71.205  0.00  0.00    +0.000 A 
ATOM     17  F   UNL     1      67.011  67.443  70.986  0.00  0.00    +0.000 F 
ATOM     18  C   UNL     1      66.071  66.645  71.707  0.00  0.00    +0.000 A 
ATOM     19  C   UNL     1      65.293  66.481  71.926  0.00  0.00    +0.000 A 
ATOM     20  C   UNL     1      62.289  65.753  72.843  0.00  0.00    +0.000 A 
ATOM     21  C   UNL     1      61.485  65.930  72.805  0.00  0.00    +0.000 A 
ENDROOT
TORSDOF 0
ENDMDL
