MODEL 1
REMARK VINA RESULT:   -11.720      0.000      0.000
REMARK INTER + INTRA:         -11.720
REMARK INTER:                 -11.720
REMARK INTRA:                   0.000
REMARK UNBOUND:                 0.000
ROOT
REMARK  Name = flunixin
REMARK                            x       y       z     vdW  Elec       q    Type
REMARK                         _______ _______ _______ _____ _____    ______ ____
ATOM      1  C   UNL     1      60.674  61.254  64.183  0.00  0.00    +0.000 C 
ATOM      2  C   UNL     1      61.363  61.622  64.453  0.00  0.00    +0.000 A 
ATOM      3  C   UNL     1      61.364  62.015  65.178  0.00  0.00    +0.000 A 
ATOM      4  N   UNL     1      60.677  62.042  65.634  0.00  0.00    +0.000 NA
ATOM      5  C   UNL     1      60.677  62.435  66.359  0.00  0.00    +0.000 A 
ATOM      6  C   UNL     1      59.991  62.462  66.814  0.00  0.00    +0.000 A 
ATOM      7  C   UNL     1      59.991  62.856  67.540  0.00  0.00    +0.000 A 
ATOM      8  C   UNL     1      60.679  63.223  67.809  0.00  0.00    +0.000 A 
ATOM      9  C   UNL     1      61.367  63.196  67.353  0.00  0.00    +0.000 A 
ATOM     10  N   UNL     1      61.366  62.802  66.628  0.00  0.00    +0.000 NA
ATOM     11  C   UNL     1      59.302  62.095  66.545  0.00  0.00    +0.000 C 
ATOM     12  O   UNL     1      58.615  62.123  67.001  0.00  0.00    +0.000 OA
ATOM     13  O   UNL     1      59.301  61.702  65.820  0.00  0.00    +0.000 OA
ATOM     14  C   UNL     1      62.052  62.382  65.448  0.00  0.00    +0.000 A 
ATOM     15  C   UNL     1      62.740  62.355  64.992  0.00  0.00    +0.000 A 
ATOM     16  C   UNL     1      62.738  61.961  64.267  0.00  0.00    +0.000 A 
ATOM     17  C   UNL     1      62.050  61.595  63.997  0.00  0.00    +0.000 A 
ATOM     18  C   UNL     1      62.049  61.201  63.273  0.00  0.00    +0.000 C 
ATOM     19  F   UNL     1      62.048  60.808  62.547  0.00  0.00    +0.000 F 
ATOM     20  F   UNL     1      61.255  61.005  63.380  0.00  0.00    +0.000 F 
ATOM     21  F   UNL     1      62.843  61.397  63.165  0.00  0.00    +0.000 F 
ENDROOT
TORSDOF 0
ENDMDL
MODEL 2
REMARK VINA RESULT:   -11.649      1.234      1.832
REMARK INTER + INTRA:         -11.649
REMARK INTER:                 -11.649
REMARK INTRA:                   0.000
REMARK UNBOUND:                 0.000
ROOT
REMARK  Name = flunixin
REMARK                            x       y       z     vdW  Elec       q    Type
REMARK                         _______ _______ _______ _____ _____    ______ ____
ATOM      1  C   UNL     1      62.587  62.343  64.926  0.00  0.00    +0.000 C 
ATOM      2  C   UNL     1      61.870  61.957  64.790  0.00  0.00    +0.000 A 
ATOM      3  C   UNL     1      61.274  61.980  65.361  0.00  0.00    +0.000 A 
ATOM      4  N   UNL     1      61.394  62.389  66.067  0.00  0.00    +0.000 NA
ATOM      5  C   UNL     1      60.799  62.412  66.637  0.00  0.00    +0.000 A 
ATOM      6  C   UNL     1      60.919  62.820  67.343  0.00  0.00    +0.000 A 
ATOM      7  C   UNL     1      60.324  62.844  67.914  0.00  0.00    +0.000 A 
ATOM      8  C   UNL     1      59.607  62.458  67.778  0.00  0.00    +0.000 A 
ATOM      9  C   UNL     1      59.487  62.048  67.071  0.00  0.00    +0.000 A 
ATOM     10  N   UNL     1      60.083  62.026  66.501  0.00  0.00    +0.000 NA
ATOM     11  C   UNL     1      61.636  63.207  67.479  0.00  0.00    +0.000 C 
ATOM     12  O   UNL     1      61.756  63.616  68.186  0.00  0.00    +0.000 OA
ATOM     13  O   UNL     1      62.232  63.184  66.910  0.00  0.00    +0.000 OA
ATOM     14  C   UNL     1      60.558  61.594  65.225  0.00  0.00    +0.000 A 
ATOM     15  C   UNL     1      60.437  61.185  64.518  0.00  0.00    +0.000 A 
ATOM     16  C   UNL     1      61.033  61.162  63.948  0.00  0.00    +0.000 A 
ATOM     17  C   UNL     1      61.749  61.548  64.084  0.00  0.00    +0.000 A 
ATOM     18  C   UNL     1      62.344  61.525  63.514  0.00  0.00    +0.000 C 
ATOM     19  F   UNL     1      62.941  61.503  62.943  0.00  0.00    +0.000 F 
ATOM     20  F   UNL     1      62.828  61.985  64.000  0.00  0.00    +0.000 F 
ATOM     21  F   UNL     1      61.862  61.067  63.027  0.00  0.00    +0.000 F 
ENDROOT
TORSDOF 0
ENDMDL
MODEL 3
REMARK VINA RESULT:   -10.538      6.311      7.700
REMARK INTER + INTRA:         -10.538
REMARK INTER:                 -10.538
REMARK INTRA:                   0.000
REMARK UNBOUND:                 0.000
ROOT
REMARK  Name = flunixin
REMARK                            x       y       z     vdW  Elec       q    Type
REMARK                         _______ _______ _______ _____ _____    ______ ____
ATOM      1  C   UNL     1      65.004  66.260  69.547  0.00  0.00    +0.000 C 
ATOM      2  C   UNL     1      64.893  66.553  70.312  0.00  0.00    +0.000 A 
ATOM      3  C   UNL     1      64.305  66.233  70.794  0.00  0.00    +0.000 A 
ATOM      4  N   UNL     1      63.828  65.622  70.514  0.00  0.00    +0.000 NA
ATOM      5  C   UNL     1      63.240  65.303  70.997  0.00  0.00    +0.000 A 
ATOM      6  C   UNL     1      62.763  64.692  70.717  0.00  0.00    +0.000 A 
ATOM      7  C   UNL     1      62.174  64.372  71.199  0.00  0.00    +0.000 A 
ATOM      8  C   UNL     1      62.064  64.665  71.963  0.00  0.00    +0.000 A 
ATOM      9  C   UNL     1      62.542  65.277  72.244  0.00  0.00    +0.000 A 
ATOM     10  N   UNL     1      63.129  65.595  71.760  0.00  0.00    +0.000 NA
ATOM     11  C   UNL     1      62.873  64.399  69.953  0.00  0.00    +0.000 C 
ATOM     12  O   UNL     1      62.395  63.787  69.673  0.00  0.00    +0.000 OA
ATOM     13  O   UNL     1      63.461  64.717  69.470  0.00  0.00    +0.000 OA
ATOM     14  C   UNL     1      64.195  66.526  71.558  0.00  0.00    +0.000 A 
ATOM     15  C   UNL     1      64.673  67.138  71.839  0.00  0.00    +0.000 A 
ATOM     16  C   UNL     1      65.260  67.456  71.355  0.00  0.00    +0.000 A 
ATOM     17  C   UNL     1      65.371  67.164  70.592  0.00  0.00    +0.000 A 
ATOM     18  C   UNL     1      65.958  67.483  70.109  0.00  0.00    +0.000 C 
ATOM     19  F   UNL     1      66.546  67.802  69.626  0.00  0.00    +0.000 F 
ATOM     20  F   UNL     1      65.747  66.961  69.506  0.00  0.00    +0.000 F 
ATOM     21  F   UNL     1      66.170  68.005  70.711  0.00  0.00    +0.000 F 
ENDROOT
TORSDOF 0
ENDMDL
MODEL 4
REMARK VINA RESULT:   -10.503      5.098      6.518
REMARK INTER + INTRA:         -10.503
REMARK INTER:                 -10.503
REMARK INTRA:                   0.000
REMARK UNBOUND:                 0.000
ROOT
REMARK  Name = flunixin
REMARK                            x       y       z     vdW  Elec       q    Type
REMARK                         _______ _______ _______ _____ _____    ______ ____
ATOM      1  C   UNL     1      61.335  61.773  70.922  0.00  0.00    +0.000 C 
ATOM      2  C   UNL     1      61.298  62.347  71.514  0.00  0.00    +0.000 A 
ATOM      3  C   UNL     1      60.992  63.094  71.345  0.00  0.00    +0.000 A 
ATOM      4  N   UNL     1      60.722  63.268  70.586  0.00  0.00    +0.000 NA
ATOM      5  C   UNL     1      60.415  64.015  70.417  0.00  0.00    +0.000 A 
ATOM      6  C   UNL     1      60.146  64.189  69.657  0.00  0.00    +0.000 A 
ATOM      7  C   UNL     1      59.839  64.936  69.488  0.00  0.00    +0.000 A 
ATOM      8  C   UNL     1      59.802  65.509  70.080  0.00  0.00    +0.000 A 
ATOM      9  C   UNL     1      60.072  65.336  70.841  0.00  0.00    +0.000 A 
ATOM     10  N   UNL     1      60.379  64.589  71.008  0.00  0.00    +0.000 NA
ATOM     11  C   UNL     1      60.183  63.614  69.065  0.00  0.00    +0.000 C 
ATOM     12  O   UNL     1      59.913  63.788  68.304  0.00  0.00    +0.000 OA
ATOM     13  O   UNL     1      60.489  62.868  69.233  0.00  0.00    +0.000 OA
ATOM     14  C   UNL     1      60.955  63.668  71.937  0.00  0.00    +0.000 A 
ATOM     15  C   UNL     1      61.225  63.494  72.698  0.00  0.00    +0.000 A 
ATOM     16  C   UNL     1      61.531  62.747  72.865  0.00  0.00    +0.000 A 
ATOM     17  C   UNL     1      61.568  62.173  72.274  0.00  0.00    +0.000 A 
ATOM     18  C   UNL     1      61.874  61.427  72.442  0.00  0.00    +0.000 C 
ATOM     19  F   UNL     1      62.181  60.679  72.610  0.00  0.00    +0.000 F 
ATOM     20  F   UNL     1      61.740  61.195  71.661  0.00  0.00    +0.000 F 
ATOM     21  F   UNL     1      62.009  61.657  73.222  0.00  0.00    +0.000 F 
ENDROOT
TORSDOF 0
ENDMDL
MODEL 5
REMARK VINA RESULT:   -10.491      2.533      4.142
REMARK INTER + INTRA:         -10.491
REMARK INTER:                 -10.491
REMARK INTRA:                   0.000
REMARK UNBOUND:                 0.000
ROOT
REMARK  Name = flunixin
REMARK                            x       y       z     vdW  Elec       q    Type
REMARK                         _______ _______ _______ _____ _____    ______ ____
ATOM      1  C   UNL     1      61.639  63.294  67.021  0.00  0.00    +0.000 C 
ATOM      2  C   UNL     1      60.930  62.873  66.994  0.00  0.00    +0.000 A 
ATOM      3  C   UNL     1      60.763  62.386  66.349  0.00  0.00    +0.000 A 
ATOM      4  N   UNL     1      61.304  62.321  65.731  0.00  0.00    +0.000 NA
ATOM      5  C   UNL     1      61.138  61.834  65.085  0.00  0.00    +0.000 A 
ATOM      6  C   UNL     1      61.679  61.768  64.467  0.00  0.00    +0.000 A 
ATOM      7  C   UNL     1      61.513  61.282  63.822  0.00  0.00    +0.000 A 
ATOM      8  C   UNL     1      60.804  60.861  63.795  0.00  0.00    +0.000 A 
ATOM      9  C   UNL     1      60.261  60.927  64.414  0.00  0.00    +0.000 A 
ATOM     10  N   UNL     1      60.429  61.413  65.059  0.00  0.00    +0.000 NA
ATOM     11  C   UNL     1      62.389  62.190  64.494  0.00  0.00    +0.000 C 
ATOM     12  O   UNL     1      62.931  62.124  63.875  0.00  0.00    +0.000 OA
ATOM     13  O   UNL     1      62.556  62.676  65.138  0.00  0.00    +0.000 OA
ATOM     14  C   UNL     1      60.054  61.965  66.322  0.00  0.00    +0.000 A 
ATOM     15  C   UNL     1      59.511  62.031  66.941  0.00  0.00    +0.000 A 
ATOM     16  C   UNL     1      59.679  62.518  67.586  0.00  0.00    +0.000 A 
ATOM     17  C   UNL     1      60.388  62.939  67.612  0.00  0.00    +0.000 A 
ATOM     18  C   UNL     1      60.555  63.425  68.257  0.00  0.00    +0.000 C 
ATOM     19  F   UNL     1      60.722  63.912  68.902  0.00  0.00    +0.000 F 
ATOM     20  F   UNL     1      61.277  63.630  67.915  0.00  0.00    +0.000 F 
ATOM     21  F   UNL     1      59.833  63.220  68.599  0.00  0.00    +0.000 F 
ENDROOT
TORSDOF 0
ENDMDL
MODEL 6
REMARK VINA RESULT:   -10.206      6.758      7.838
REMARK INTER + INTRA:         -10.206
REMARK INTER:                 -10.206
REMARK INTRA:                   0.000
REMARK UNBOUND:                 0.000
ROOT
REMARK  Name = flunixin
REMARK                            x       y       z     vdW  Elec       q    Type
REMARK                         _______ _______ _______ _____ _____    ______ ____
ATOM      1  C   UNL     1      64.438  67.093  71.678  0.00  0.00    +0.000 C 
ATOM      2  C   UNL     1      64.531  66.612  71.013  0.00  0.00    +0.000 A 
ATOM      3  C   UNL     1      64.034  65.963  70.902  0.00  0.00    +0.000 A 
ATOM      4  N   UNL     1      63.444  65.795  71.452  0.00  0.00    +0.000 NA
ATOM      5  C   UNL     1      62.947  65.146  71.341  0.00  0.00    +0.000 A 
ATOM      6  C   UNL     1      62.357  64.977  71.891  0.00  0.00    +0.000 A 
ATOM      7  C   UNL     1      61.860  64.328  71.779  0.00  0.00    +0.000 A 
ATOM      8  C   UNL     1      61.954  63.847  71.116  0.00  0.00    +0.000 A 
ATOM      9  C   UNL     1      62.544  64.016  70.564  0.00  0.00    +0.000 A 
ATOM     10  N   UNL     1      63.041  64.665  70.677  0.00  0.00    +0.000 NA
ATOM     11  C   UNL     1      62.264  65.459  72.556  0.00  0.00    +0.000 C 
ATOM     12  O   UNL     1      61.673  65.290  73.107  0.00  0.00    +0.000 OA
ATOM     13  O   UNL     1      62.760  66.107  72.668  0.00  0.00    +0.000 OA
ATOM     14  C   UNL     1      64.128  65.482  70.238  0.00  0.00    +0.000 A 
ATOM     15  C   UNL     1      64.718  65.650  69.686  0.00  0.00    +0.000 A 
ATOM     16  C   UNL     1      65.214  66.299  69.799  0.00  0.00    +0.000 A 
ATOM     17  C   UNL     1      65.121  66.780  70.463  0.00  0.00    +0.000 A 
ATOM     18  C   UNL     1      65.617  67.429  70.575  0.00  0.00    +0.000 C 
ATOM     19  F   UNL     1      66.114  68.078  70.687  0.00  0.00    +0.000 F 
ATOM     20  F   UNL     1      65.223  67.610  71.277  0.00  0.00    +0.000 F 
ATOM     21  F   UNL     1      66.012  67.249  69.873  0.00  0.00    +0.000 F 
ENDROOT
TORSDOF 0
ENDMDL
MODEL 7
REMARK VINA RESULT:   -10.197      3.881      5.246
REMARK INTER + INTRA:         -10.197
REMARK INTER:                 -10.197
REMARK INTRA:                   0.000
REMARK UNBOUND:                 0.000
ROOT
REMARK  Name = flunixin
REMARK                            x       y       z     vdW  Elec       q    Type
REMARK                         _______ _______ _______ _____ _____    ______ ____
ATOM      1  C   UNL     1      61.536  63.676  68.656  0.00  0.00    +0.000 C 
ATOM      2  C   UNL     1      61.162  63.031  69.010  0.00  0.00    +0.000 A 
ATOM      3  C   UNL     1      61.175  62.947  69.831  0.00  0.00    +0.000 A 
ATOM      4  N   UNL     1      61.561  63.506  70.298  0.00  0.00    +0.000 NA
ATOM      5  C   UNL     1      61.573  63.422  71.118  0.00  0.00    +0.000 A 
ATOM      6  C   UNL     1      61.959  63.982  71.585  0.00  0.00    +0.000 A 
ATOM      7  C   UNL     1      61.972  63.898  72.405  0.00  0.00    +0.000 A 
ATOM      8  C   UNL     1      61.599  63.253  72.760  0.00  0.00    +0.000 A 
ATOM      9  C   UNL     1      61.212  62.692  72.293  0.00  0.00    +0.000 A 
ATOM     10  N   UNL     1      61.200  62.778  71.472  0.00  0.00    +0.000 NA
ATOM     11  C   UNL     1      62.334  64.627  71.230  0.00  0.00    +0.000 C 
ATOM     12  O   UNL     1      62.720  65.187  71.697  0.00  0.00    +0.000 OA
ATOM     13  O   UNL     1      62.321  64.711  70.410  0.00  0.00    +0.000 OA
ATOM     14  C   UNL     1      60.801  62.302  70.185  0.00  0.00    +0.000 A 
ATOM     15  C   UNL     1      60.414  61.741  69.718  0.00  0.00    +0.000 A 
ATOM     16  C   UNL     1      60.402  61.826  68.898  0.00  0.00    +0.000 A 
ATOM     17  C   UNL     1      60.776  62.471  68.544  0.00  0.00    +0.000 A 
ATOM     18  C   UNL     1      60.763  62.555  67.724  0.00  0.00    +0.000 C 
ATOM     19  F   UNL     1      60.751  62.640  66.903  0.00  0.00    +0.000 F 
ATOM     20  F   UNL     1      61.202  63.251  67.788  0.00  0.00    +0.000 F 
ATOM     21  F   UNL     1      60.324  61.860  67.659  0.00  0.00    +0.000 F 
ENDROOT
TORSDOF 0
ENDMDL
MODEL 8
REMARK VINA RESULT:   -10.166      7.357      8.011
REMARK INTER + INTRA:         -10.166
REMARK INTER:                 -10.166
REMARK INTRA:                   0.000
REMARK UNBOUND:                 0.000
ROOT
REMARK  Name = flunixin
REMARK                            x       y       z     vdW  Elec       q    Type
REMARK                         _______ _______ _______ _____ _____    ______ ____
ATOM      1  C   UNL     1      61.885  64.512  72.827  0.00  0.00    +0.000 C 
ATOM      2  C   UNL     1      61.188  64.299  72.438  0.00  0.00    +0.000 A 
ATOM      3  C   UNL     1      60.722  64.878  72.080  0.00  0.00    +0.000 A 
ATOM      4  N   UNL     1      60.951  65.670  72.111  0.00  0.00    +0.000 NA
ATOM      5  C   UNL     1      60.484  66.249  71.753  0.00  0.00    +0.000 A 
ATOM      6  C   UNL     1      60.713  67.040  71.784  0.00  0.00    +0.000 A 
ATOM      7  C   UNL     1      60.246  67.620  71.427  0.00  0.00    +0.000 A 
ATOM      8  C   UNL     1      59.551  67.406  71.038  0.00  0.00    +0.000 A 
ATOM      9  C   UNL     1      59.321  66.614  71.007  0.00  0.00    +0.000 A 
ATOM     10  N   UNL     1      59.789  66.036  71.365  0.00  0.00    +0.000 NA
ATOM     11  C   UNL     1      61.409  67.254  72.174  0.00  0.00    +0.000 C 
ATOM     12  O   UNL     1      61.638  68.046  72.204  0.00  0.00    +0.000 OA
ATOM     13  O   UNL     1      61.876  66.676  72.531  0.00  0.00    +0.000 OA
ATOM     14  C   UNL     1      60.026  64.665  71.691  0.00  0.00    +0.000 A 
ATOM     15  C   UNL     1      59.797  63.872  71.660  0.00  0.00    +0.000 A 
ATOM     16  C   UNL     1      60.264  63.294  72.018  0.00  0.00    +0.000 A 
ATOM     17  C   UNL     1      60.960  63.508  72.407  0.00  0.00    +0.000 A 
ATOM     18  C   UNL     1      61.426  62.929  72.764  0.00  0.00    +0.000 C 
ATOM     19  F   UNL     1      61.893  62.350  73.122  0.00  0.00    +0.000 F 
ATOM     20  F   UNL     1      61.960  63.509  73.007  0.00  0.00    +0.000 F 
ATOM     21  F   UNL     1      60.893  62.348  72.522  0.00  0.00    +0.000 F 
ENDROOT
TORSDOF 0
ENDMDL
MODEL 9
REMARK VINA RESULT:   -10.010      5.661      6.846
REMARK INTER + INTRA:         -10.010
REMARK INTER:                 -10.010
REMARK INTRA:                   0.000
REMARK UNBOUND:                 0.000
ROOT
REMARK  Name = flunixin
REMARK                            x       y       z     vdW  Elec       q    Type
REMARK                         _______ _______ _______ _____ _____    ______ ____
ATOM      1  C   UNL     1      61.762  62.676  70.323  0.00  0.00    +0.000 C 
ATOM      2  C   UNL     1      61.343  63.044  70.933  0.00  0.00    +0.000 A 
ATOM      3  C   UNL     1      61.636  63.735  71.276  0.00  0.00    +0.000 A 
ATOM      4  N   UNL     1      62.346  64.058  71.010  0.00  0.00    +0.000 NA
ATOM      5  C   UNL     1      62.640  64.749  71.353  0.00  0.00    +0.000 A 
ATOM      6  C   UNL     1      63.350  65.073  71.087  0.00  0.00    +0.000 A 
ATOM      7  C   UNL     1      63.643  65.764  71.430  0.00  0.00    +0.000 A 
ATOM      8  C   UNL     1      63.225  66.131  72.039  0.00  0.00    +0.000 A 
ATOM      9  C   UNL     1      62.514  65.807  72.306  0.00  0.00    +0.000 A 
ATOM     10  N   UNL     1      62.222  65.116  71.962  0.00  0.00    +0.000 NA
ATOM     11  C   UNL     1      63.768  64.705  70.477  0.00  0.00    +0.000 C 
ATOM     12  O   UNL     1      64.479  65.030  70.211  0.00  0.00    +0.000 OA
ATOM     13  O   UNL     1      63.475  64.015  70.134  0.00  0.00    +0.000 OA
ATOM     14  C   UNL     1      61.218  64.102  71.885  0.00  0.00    +0.000 A 
ATOM     15  C   UNL     1      60.507  63.778  72.152  0.00  0.00    +0.000 A 
ATOM     16  C   UNL     1      60.215  63.087  71.809  0.00  0.00    +0.000 A 
ATOM     17  C   UNL     1      60.633  62.720  71.199  0.00  0.00    +0.000 A 
ATOM     18  C   UNL     1      60.341  62.030  70.857  0.00  0.00    +0.000 C 
ATOM     19  F   UNL     1      60.048  61.338  70.513  0.00  0.00    +0.000 F 
ATOM     20  F   UNL     1      60.992  62.004  70.351  0.00  0.00    +0.000 F 
ATOM     21  F   UNL     1      59.689  62.054  71.362  0.00  0.00    +0.000 F 
ENDROOT
TORSDOF 0
ENDMDL
