MODEL 1
REMARK VINA RESULT:    -7.609      0.000      0.000
REMARK INTER + INTRA:          -7.609
REMARK INTER:                  -7.609
REMARK INTRA:                   0.000
REMARK UNBOUND:                 0.000
ROOT
REMARK  Name = fluoresone
REMARK                            x       y       z     vdW  Elec       q    Type
REMARK                         _______ _______ _______ _____ _____    ______ ____
ATOM      1  C   UNL     1      59.762  62.360  67.051  0.00  0.00    +0.000 C 
ATOM      2  C   UNL     1      60.524  62.627  66.882  0.00  0.00    +0.000 C 
ATOM      3  S   UNL     1      60.901  62.386  66.188  0.00  0.00    +0.000 S 
ATOM      4  O   UNL     1      60.238  61.938  65.983  0.00  0.00    +0.000 OA
ATOM      5  O   UNL     1      61.564  62.833  66.392  0.00  0.00    +0.000 OA
ATOM      6  C   UNL     1      61.278  62.145  65.495  0.00  0.00    +0.000 A 
ATOM      7  C   UNL     1      62.040  62.411  65.325  0.00  0.00    +0.000 A 
ATOM      8  C   UNL     1      62.416  62.170  64.632  0.00  0.00    +0.000 A 
ATOM      9  C   UNL     1      62.031  61.663  64.109  0.00  0.00    +0.000 A 
ATOM     10  F   UNL     1      62.408  61.421  63.415  0.00  0.00    +0.000 F 
ATOM     11  C   UNL     1      61.269  61.395  64.278  0.00  0.00    +0.000 A 
ATOM     12  C   UNL     1      60.892  61.637  64.971  0.00  0.00    +0.000 A 
ENDROOT
TORSDOF 0
ENDMDL
MODEL 2
REMARK VINA RESULT:    -6.924      1.791      2.989
REMARK INTER + INTRA:          -6.924
REMARK INTER:                  -6.924
REMARK INTRA:                   0.000
REMARK UNBOUND:                 0.000
ROOT
REMARK  Name = fluoresone
REMARK                            x       y       z     vdW  Elec       q    Type
REMARK                         _______ _______ _______ _____ _____    ______ ____
ATOM      1  C   UNL     1      62.375  61.738  64.468  0.00  0.00    +0.000 C 
ATOM      2  C   UNL     1      61.576  61.530  64.485  0.00  0.00    +0.000 C 
ATOM      3  S   UNL     1      61.100  61.771  65.116  0.00  0.00    +0.000 S 
ATOM      4  O   UNL     1      61.749  62.150  65.460  0.00  0.00    +0.000 OA
ATOM      5  O   UNL     1      60.453  61.393  64.772  0.00  0.00    +0.000 OA
ATOM      6  C   UNL     1      60.626  62.012  65.745  0.00  0.00    +0.000 A 
ATOM      7  C   UNL     1      59.828  61.805  65.762  0.00  0.00    +0.000 A 
ATOM      8  C   UNL     1      59.352  62.045  66.392  0.00  0.00    +0.000 A 
ATOM      9  C   UNL     1      59.675  62.493  67.004  0.00  0.00    +0.000 A 
ATOM     10  F   UNL     1      59.199  62.734  67.635  0.00  0.00    +0.000 F 
ATOM     11  C   UNL     1      60.474  62.701  66.988  0.00  0.00    +0.000 A 
ATOM     12  C   UNL     1      60.949  62.460  66.358  0.00  0.00    +0.000 A 
ENDROOT
TORSDOF 0
ENDMDL
MODEL 3
REMARK VINA RESULT:    -6.434      1.583      2.098
REMARK INTER + INTRA:          -6.434
REMARK INTER:                  -6.434
REMARK INTRA:                   0.000
REMARK UNBOUND:                 0.000
ROOT
REMARK  Name = fluoresone
REMARK                            x       y       z     vdW  Elec       q    Type
REMARK                         _______ _______ _______ _____ _____    ______ ____
ATOM      1  C   UNL     1      60.583  63.745  68.795  0.00  0.00    +0.000 C 
ATOM      2  C   UNL     1      61.123  63.475  68.233  0.00  0.00    +0.000 C 
ATOM      3  S   UNL     1      60.858  63.046  67.579  0.00  0.00    +0.000 S 
ATOM      4  O   UNL     1      60.081  63.112  67.851  0.00  0.00    +0.000 OA
ATOM      5  O   UNL     1      61.634  62.981  67.306  0.00  0.00    +0.000 OA
ATOM      6  C   UNL     1      60.593  62.619  66.926  0.00  0.00    +0.000 A 
ATOM      7  C   UNL     1      61.131  62.348  66.363  0.00  0.00    +0.000 A 
ATOM      8  C   UNL     1      60.866  61.920  65.710  0.00  0.00    +0.000 A 
ATOM      9  C   UNL     1      60.062  61.763  65.619  0.00  0.00    +0.000 A 
ATOM     10  F   UNL     1      59.796  61.335  64.965  0.00  0.00    +0.000 F 
ATOM     11  C   UNL     1      59.522  62.033  66.181  0.00  0.00    +0.000 A 
ATOM     12  C   UNL     1      59.787  62.461  66.835  0.00  0.00    +0.000 A 
ENDROOT
TORSDOF 0
ENDMDL
MODEL 4
REMARK VINA RESULT:    -6.265      6.191      6.910
REMARK INTER + INTRA:          -6.265
REMARK INTER:                  -6.265
REMARK INTRA:                   0.000
REMARK UNBOUND:                 0.000
ROOT
REMARK  Name = fluoresone
REMARK                            x       y       z     vdW  Elec       q    Type
REMARK                         _______ _______ _______ _____ _____    ______ ____
ATOM      1  C   UNL     1      60.028  65.259  72.854  0.00  0.00    +0.000 C 
ATOM      2  C   UNL     1      59.821  64.780  72.215  0.00  0.00    +0.000 C 
ATOM      3  S   UNL     1      60.221  64.068  72.088  0.00  0.00    +0.000 S 
ATOM      4  O   UNL     1      60.690  64.212  72.752  0.00  0.00    +0.000 OA
ATOM      5  O   UNL     1      59.753  63.924  71.424  0.00  0.00    +0.000 OA
ATOM      6  C   UNL     1      60.619  63.358  71.960  0.00  0.00    +0.000 A 
ATOM      7  C   UNL     1      60.414  62.878  71.322  0.00  0.00    +0.000 A 
ATOM      8  C   UNL     1      60.813  62.167  71.195  0.00  0.00    +0.000 A 
ATOM      9  C   UNL     1      61.418  61.937  71.706  0.00  0.00    +0.000 A 
ATOM     10  F   UNL     1      61.817  61.225  71.578  0.00  0.00    +0.000 F 
ATOM     11  C   UNL     1      61.624  62.416  72.345  0.00  0.00    +0.000 A 
ATOM     12  C   UNL     1      61.225  63.127  72.472  0.00  0.00    +0.000 A 
ENDROOT
TORSDOF 0
ENDMDL
MODEL 5
REMARK VINA RESULT:    -6.230      5.034      5.875
REMARK INTER + INTRA:          -6.230
REMARK INTER:                  -6.230
REMARK INTRA:                   0.000
REMARK UNBOUND:                 0.000
ROOT
REMARK  Name = fluoresone
REMARK                            x       y       z     vdW  Elec       q    Type
REMARK                         _______ _______ _______ _____ _____    ______ ____
ATOM      1  C   UNL     1      61.898  64.209  72.441  0.00  0.00    +0.000 C 
ATOM      2  C   UNL     1      61.615  63.435  72.486  0.00  0.00    +0.000 C 
ATOM      3  S   UNL     1      61.320  63.064  71.810  0.00  0.00    +0.000 S 
ATOM      4  O   UNL     1      61.477  63.744  71.368  0.00  0.00    +0.000 OA
ATOM      5  O   UNL     1      61.163  62.385  72.251  0.00  0.00    +0.000 OA
ATOM      6  C   UNL     1      61.026  62.694  71.135  0.00  0.00    +0.000 A 
ATOM      7  C   UNL     1      60.743  61.920  71.179  0.00  0.00    +0.000 A 
ATOM      8  C   UNL     1      60.448  61.550  70.503  0.00  0.00    +0.000 A 
ATOM      9  C   UNL     1      60.437  61.952  69.784  0.00  0.00    +0.000 A 
ATOM     10  F   UNL     1      60.142  61.581  69.107  0.00  0.00    +0.000 F 
ATOM     11  C   UNL     1      60.720  62.726  69.739  0.00  0.00    +0.000 A 
ATOM     12  C   UNL     1      61.014  63.097  70.414  0.00  0.00    +0.000 A 
ENDROOT
TORSDOF 0
ENDMDL
MODEL 6
REMARK VINA RESULT:    -6.226      6.960      7.667
REMARK INTER + INTRA:          -6.226
REMARK INTER:                  -6.226
REMARK INTRA:                   0.000
REMARK UNBOUND:                 0.000
ROOT
REMARK  Name = fluoresone
REMARK                            x       y       z     vdW  Elec       q    Type
REMARK                         _______ _______ _______ _____ _____    ______ ____
ATOM      1  C   UNL     1      63.437  64.528  69.731  0.00  0.00    +0.000 C 
ATOM      2  C   UNL     1      63.708  64.803  70.460  0.00  0.00    +0.000 C 
ATOM      3  S   UNL     1      64.244  65.430  70.492  0.00  0.00    +0.000 S 
ATOM      4  O   UNL     1      64.241  65.475  69.667  0.00  0.00    +0.000 OA
ATOM      5  O   UNL     1      64.248  65.386  71.316  0.00  0.00    +0.000 OA
ATOM      6  C   UNL     1      64.779  66.056  70.523  0.00  0.00    +0.000 A 
ATOM      7  C   UNL     1      65.051  66.331  71.252  0.00  0.00    +0.000 A 
ATOM      8  C   UNL     1      65.586  66.958  71.283  0.00  0.00    +0.000 A 
ATOM      9  C   UNL     1      65.851  67.310  70.586  0.00  0.00    +0.000 A 
ATOM     10  F   UNL     1      66.387  67.937  70.617  0.00  0.00    +0.000 F 
ATOM     11  C   UNL     1      65.580  67.035  69.856  0.00  0.00    +0.000 A 
ATOM     12  C   UNL     1      65.044  66.409  69.825  0.00  0.00    +0.000 A 
ENDROOT
TORSDOF 0
ENDMDL
MODEL 7
REMARK VINA RESULT:    -6.093     24.439     25.024
REMARK INTER + INTRA:          -6.093
REMARK INTER:                  -6.093
REMARK INTRA:                   0.000
REMARK UNBOUND:                 0.000
ROOT
REMARK  Name = fluoresone
REMARK                            x       y       z     vdW  Elec       q    Type
REMARK                         _______ _______ _______ _____ _____    ______ ____
ATOM      1  C   UNL     1      69.379  80.311  51.619  0.00  0.00    +0.000 C 
ATOM      2  C   UNL     1      70.083  80.482  51.224  0.00  0.00    +0.000 C 
ATOM      3  S   UNL     1      70.341  79.993  50.610  0.00  0.00    +0.000 S 
ATOM      4  O   UNL     1      69.676  79.514  50.713  0.00  0.00    +0.000 OA
ATOM      5  O   UNL     1      71.005  80.471  50.508  0.00  0.00    +0.000 OA
ATOM      6  C   UNL     1      70.598  79.505  49.998  0.00  0.00    +0.000 A 
ATOM      7  C   UNL     1      71.302  79.674  49.603  0.00  0.00    +0.000 A 
ATOM      8  C   UNL     1      71.559  79.186  48.990  0.00  0.00    +0.000 A 
ATOM      9  C   UNL     1      71.113  78.528  48.772  0.00  0.00    +0.000 A 
ATOM     10  F   UNL     1      71.371  78.039  48.158  0.00  0.00    +0.000 F 
ATOM     11  C   UNL     1      70.409  78.357  49.167  0.00  0.00    +0.000 A 
ATOM     12  C   UNL     1      70.151  78.845  49.780  0.00  0.00    +0.000 A 
ENDROOT
TORSDOF 0
ENDMDL
MODEL 8
REMARK VINA RESULT:    -5.927      5.969      6.926
REMARK INTER + INTRA:          -5.927
REMARK INTER:                  -5.927
REMARK INTRA:                   0.000
REMARK UNBOUND:                 0.000
ROOT
REMARK  Name = fluoresone
REMARK                            x       y       z     vdW  Elec       q    Type
REMARK                         _______ _______ _______ _____ _____    ______ ____
ATOM      1  C   UNL     1      63.413  64.619  69.652  0.00  0.00    +0.000 C 
ATOM      2  C   UNL     1      63.177  64.965  70.363  0.00  0.00    +0.000 C 
ATOM      3  S   UNL     1      62.730  64.530  70.904  0.00  0.00    +0.000 S 
ATOM      4  O   UNL     1      62.744  63.880  70.395  0.00  0.00    +0.000 OA
ATOM      5  O   UNL     1      62.715  65.179  71.413  0.00  0.00    +0.000 OA
ATOM      6  C   UNL     1      62.283  64.097  71.445  0.00  0.00    +0.000 A 
ATOM      7  C   UNL     1      62.047  64.441  72.156  0.00  0.00    +0.000 A 
ATOM      8  C   UNL     1      61.600  64.007  72.697  0.00  0.00    +0.000 A 
ATOM      9  C   UNL     1      61.389  63.229  72.526  0.00  0.00    +0.000 A 
ATOM     10  F   UNL     1      60.942  62.794  73.068  0.00  0.00    +0.000 F 
ATOM     11  C   UNL     1      61.625  62.883  71.815  0.00  0.00    +0.000 A 
ATOM     12  C   UNL     1      62.072  63.317  71.274  0.00  0.00    +0.000 A 
ENDROOT
TORSDOF 0
ENDMDL
MODEL 9
REMARK VINA RESULT:    -5.434      6.153      7.001
REMARK INTER + INTRA:          -5.434
REMARK INTER:                  -5.434
REMARK INTRA:                   0.000
REMARK UNBOUND:                 0.000
ROOT
REMARK  Name = fluoresone
REMARK                            x       y       z     vdW  Elec       q    Type
REMARK                         _______ _______ _______ _____ _____    ______ ____
ATOM      1  C   UNL     1      59.072  67.050  71.594  0.00  0.00    +0.000 C 
ATOM      2  C   UNL     1      59.034  66.380  72.075  0.00  0.00    +0.000 C 
ATOM      3  S   UNL     1      59.322  65.657  71.798  0.00  0.00    +0.000 S 
ATOM      4  O   UNL     1      59.532  66.014  71.083  0.00  0.00    +0.000 OA
ATOM      5  O   UNL     1      59.113  65.300  72.512  0.00  0.00    +0.000 OA
ATOM      6  C   UNL     1      59.609  64.936  71.522  0.00  0.00    +0.000 A 
ATOM      7  C   UNL     1      59.572  64.265  72.002  0.00  0.00    +0.000 A 
ATOM      8  C   UNL     1      59.860  63.543  71.725  0.00  0.00    +0.000 A 
ATOM      9  C   UNL     1      60.184  63.491  70.970  0.00  0.00    +0.000 A 
ATOM     10  F   UNL     1      60.472  62.768  70.693  0.00  0.00    +0.000 F 
ATOM     11  C   UNL     1      60.222  64.161  70.489  0.00  0.00    +0.000 A 
ATOM     12  C   UNL     1      59.935  64.883  70.765  0.00  0.00    +0.000 A 
ENDROOT
TORSDOF 0
ENDMDL
