MODEL 1
REMARK VINA RESULT:   -13.021      0.000      0.000
REMARK INTER + INTRA:         -13.021
REMARK INTER:                 -13.021
REMARK INTRA:                   0.000
REMARK UNBOUND:                 0.000
ROOT
REMARK  Name = fluphenazine decanoate
REMARK                            x       y       z     vdW  Elec       q    Type
REMARK                         _______ _______ _______ _____ _____    ______ ____
ATOM      1  C   UNL     1      59.365  73.108  49.738  0.00  0.00    +0.000 C 
ATOM      2  C   UNL     1      59.600  72.317  49.748  0.00  0.00    +0.000 C 
ATOM      3  C   UNL     1      59.737  71.936  50.467  0.00  0.00    +0.000 C 
ATOM      4  C   UNL     1      59.971  71.146  50.477  0.00  0.00    +0.000 C 
ATOM      5  C   UNL     1      60.108  70.765  51.196  0.00  0.00    +0.000 C 
ATOM      6  C   UNL     1      60.342  69.974  51.207  0.00  0.00    +0.000 C 
ATOM      7  C   UNL     1      60.479  69.593  51.926  0.00  0.00    +0.000 C 
ATOM      8  C   UNL     1      60.714  68.803  51.936  0.00  0.00    +0.000 C 
ATOM      9  C   UNL     1      60.851  68.422  52.655  0.00  0.00    +0.000 C 
ATOM     10  C   UNL     1      61.085  67.631  52.665  0.00  0.00    +0.000 C 
ATOM     11  O   UNL     1      61.182  67.221  51.956  0.00  0.00    +0.000 OA
ATOM     12  O   UNL     1      61.222  67.250  53.384  0.00  0.00    +0.000 OA
ATOM     13  C   UNL     1      61.456  66.460  53.394  0.00  0.00    +0.000 C 
ATOM     14  C   UNL     1      61.593  66.079  54.113  0.00  0.00    +0.000 C 
ATOM     15  N   UNL     1      61.827  65.288  54.123  0.00  0.00    +0.000 NA
ATOM     16  C   UNL     1      61.964  64.908  54.842  0.00  0.00    +0.000 C 
ATOM     17  C   UNL     1      62.199  64.117  54.853  0.00  0.00    +0.000 C 
ATOM     18  N   UNL     1      62.296  63.706  54.144  0.00  0.00    +0.000 NA
ATOM     19  C   UNL     1      62.531  62.915  54.153  0.00  0.00    +0.000 C 
ATOM     20  C   UNL     1      62.629  62.505  53.445  0.00  0.00    +0.000 C 
ATOM     21  C   UNL     1      62.863  61.714  53.455  0.00  0.00    +0.000 C 
ATOM     22  N   UNL     1      62.961  61.304  52.746  0.00  0.00    +0.000 N 
ATOM     23  C   UNL     1      62.824  61.684  52.026  0.00  0.00    +0.000 A 
ATOM     24  C   UNL     1      62.589  62.475  52.017  0.00  0.00    +0.000 A 
ATOM     25  C   UNL     1      62.453  62.856  51.297  0.00  0.00    +0.000 A 
ATOM     26  C   UNL     1      62.550  62.446  50.589  0.00  0.00    +0.000 A 
ATOM     27  C   UNL     1      62.785  61.655  50.598  0.00  0.00    +0.000 A 
ATOM     28  C   UNL     1      62.922  61.274  51.318  0.00  0.00    +0.000 A 
ATOM     29  S   UNL     1      63.156  60.483  51.328  0.00  0.00    +0.000 S 
ATOM     30  C   UNL     1      63.293  60.103  52.047  0.00  0.00    +0.000 A 
ATOM     31  C   UNL     1      63.195  60.513  52.755  0.00  0.00    +0.000 A 
ATOM     32  C   UNL     1      63.332  60.132  53.475  0.00  0.00    +0.000 A 
ATOM     33  C   UNL     1      63.566  59.342  53.484  0.00  0.00    +0.000 A 
ATOM     34  C   UNL     1      63.664  58.932  52.776  0.00  0.00    +0.000 A 
ATOM     35  C   UNL     1      63.527  59.312  52.057  0.00  0.00    +0.000 A 
ATOM     36  C   UNL     1      63.703  58.961  54.204  0.00  0.00    +0.000 C 
ATOM     37  F   UNL     1      63.840  58.581  54.923  0.00  0.00    +0.000 F 
ATOM     38  F   UNL     1      63.895  58.268  53.801  0.00  0.00    +0.000 F 
ATOM     39  F   UNL     1      63.511  59.655  54.608  0.00  0.00    +0.000 F 
ATOM     40  C   UNL     1      62.159  64.087  53.424  0.00  0.00    +0.000 C 
ATOM     41  C   UNL     1      61.925  64.878  53.414  0.00  0.00    +0.000 C 
ENDROOT
TORSDOF 0
ENDMDL
MODEL 2
REMARK VINA RESULT:   -12.846      2.399      3.241
REMARK INTER + INTRA:         -12.846
REMARK INTER:                 -12.846
REMARK INTRA:                   0.000
REMARK UNBOUND:                 0.000
ROOT
REMARK  Name = fluphenazine decanoate
REMARK                            x       y       z     vdW  Elec       q    Type
REMARK                         _______ _______ _______ _____ _____    ______ ____
ATOM      1  C   UNL     1      57.128  75.565  53.292  0.00  0.00    +0.000 C 
ATOM      2  C   UNL     1      57.342  74.781  53.156  0.00  0.00    +0.000 C 
ATOM      3  C   UNL     1      57.928  74.427  53.616  0.00  0.00    +0.000 C 
ATOM      4  C   UNL     1      58.143  73.643  53.480  0.00  0.00    +0.000 C 
ATOM      5  C   UNL     1      58.729  73.289  53.940  0.00  0.00    +0.000 C 
ATOM      6  C   UNL     1      58.944  72.505  53.804  0.00  0.00    +0.000 C 
ATOM      7  C   UNL     1      59.530  72.151  54.265  0.00  0.00    +0.000 C 
ATOM      8  C   UNL     1      59.745  71.367  54.129  0.00  0.00    +0.000 C 
ATOM      9  C   UNL     1      60.331  71.013  54.589  0.00  0.00    +0.000 C 
ATOM     10  C   UNL     1      60.546  70.229  54.453  0.00  0.00    +0.000 C 
ATOM     11  O   UNL     1      60.175  69.797  53.856  0.00  0.00    +0.000 OA
ATOM     12  O   UNL     1      61.132  69.875  54.913  0.00  0.00    +0.000 OA
ATOM     13  C   UNL     1      61.347  69.091  54.777  0.00  0.00    +0.000 C 
ATOM     14  C   UNL     1      61.933  68.737  55.238  0.00  0.00    +0.000 C 
ATOM     15  N   UNL     1      62.148  67.953  55.102  0.00  0.00    +0.000 NA
ATOM     16  C   UNL     1      62.734  67.599  55.562  0.00  0.00    +0.000 C 
ATOM     17  C   UNL     1      62.949  66.814  55.426  0.00  0.00    +0.000 C 
ATOM     18  N   UNL     1      62.578  66.383  54.829  0.00  0.00    +0.000 NA
ATOM     19  C   UNL     1      62.793  65.598  54.692  0.00  0.00    +0.000 C 
ATOM     20  C   UNL     1      62.422  65.167  54.096  0.00  0.00    +0.000 C 
ATOM     21  C   UNL     1      62.636  64.382  53.959  0.00  0.00    +0.000 C 
ATOM     22  N   UNL     1      62.265  63.951  53.361  0.00  0.00    +0.000 N 
ATOM     23  C   UNL     1      61.679  64.303  52.900  0.00  0.00    +0.000 A 
ATOM     24  C   UNL     1      61.464  65.089  53.037  0.00  0.00    +0.000 A 
ATOM     25  C   UNL     1      60.878  65.442  52.576  0.00  0.00    +0.000 A 
ATOM     26  C   UNL     1      60.507  65.011  51.979  0.00  0.00    +0.000 A 
ATOM     27  C   UNL     1      60.722  64.226  51.843  0.00  0.00    +0.000 A 
ATOM     28  C   UNL     1      61.308  63.872  52.304  0.00  0.00    +0.000 A 
ATOM     29  S   UNL     1      61.523  63.088  52.167  0.00  0.00    +0.000 S 
ATOM     30  C   UNL     1      62.109  62.735  52.628  0.00  0.00    +0.000 A 
ATOM     31  C   UNL     1      62.479  63.166  53.225  0.00  0.00    +0.000 A 
ATOM     32  C   UNL     1      63.066  62.812  53.686  0.00  0.00    +0.000 A 
ATOM     33  C   UNL     1      63.280  62.028  53.549  0.00  0.00    +0.000 A 
ATOM     34  C   UNL     1      62.910  61.597  52.952  0.00  0.00    +0.000 A 
ATOM     35  C   UNL     1      62.324  61.950  52.491  0.00  0.00    +0.000 A 
ATOM     36  C   UNL     1      63.867  61.674  54.010  0.00  0.00    +0.000 C 
ATOM     37  F   UNL     1      64.453  61.322  54.471  0.00  0.00    +0.000 F 
ATOM     38  F   UNL     1      63.777  60.973  53.587  0.00  0.00    +0.000 F 
ATOM     39  F   UNL     1      63.957  62.377  54.434  0.00  0.00    +0.000 F 
ATOM     40  C   UNL     1      61.991  66.736  54.368  0.00  0.00    +0.000 C 
ATOM     41  C   UNL     1      61.777  67.521  54.504  0.00  0.00    +0.000 C 
ENDROOT
TORSDOF 0
ENDMDL
MODEL 3
REMARK VINA RESULT:   -12.151      1.898      2.303
REMARK INTER + INTRA:         -12.151
REMARK INTER:                 -12.151
REMARK INTRA:                   0.000
REMARK UNBOUND:                 0.000
ROOT
REMARK  Name = fluphenazine decanoate
REMARK                            x       y       z     vdW  Elec       q    Type
REMARK                         _______ _______ _______ _____ _____    ______ ____
ATOM      1  C   UNL     1      59.008  72.708  53.834  0.00  0.00    +0.000 C 
ATOM      2  C   UNL     1      59.019  71.909  53.632  0.00  0.00    +0.000 C 
ATOM      3  C   UNL     1      59.655  71.434  53.858  0.00  0.00    +0.000 C 
ATOM      4  C   UNL     1      59.666  70.635  53.656  0.00  0.00    +0.000 C 
ATOM      5  C   UNL     1      60.301  70.160  53.882  0.00  0.00    +0.000 C 
ATOM      6  C   UNL     1      60.312  69.361  53.680  0.00  0.00    +0.000 C 
ATOM      7  C   UNL     1      60.948  68.886  53.907  0.00  0.00    +0.000 C 
ATOM      8  C   UNL     1      60.959  68.087  53.704  0.00  0.00    +0.000 C 
ATOM      9  C   UNL     1      61.595  67.612  53.931  0.00  0.00    +0.000 C 
ATOM     10  C   UNL     1      61.606  66.813  53.728  0.00  0.00    +0.000 C 
ATOM     11  O   UNL     1      60.981  66.488  53.299  0.00  0.00    +0.000 OA
ATOM     12  O   UNL     1      62.242  66.338  53.955  0.00  0.00    +0.000 OA
ATOM     13  C   UNL     1      62.253  65.539  53.753  0.00  0.00    +0.000 C 
ATOM     14  C   UNL     1      62.888  65.064  53.979  0.00  0.00    +0.000 C 
ATOM     15  N   UNL     1      62.900  64.265  53.777  0.00  0.00    +0.000 NA
ATOM     16  C   UNL     1      63.535  63.791  54.003  0.00  0.00    +0.000 C 
ATOM     17  C   UNL     1      63.546  62.991  53.801  0.00  0.00    +0.000 C 
ATOM     18  N   UNL     1      62.922  62.666  53.371  0.00  0.00    +0.000 NA
ATOM     19  C   UNL     1      62.933  61.865  53.168  0.00  0.00    +0.000 C 
ATOM     20  C   UNL     1      62.309  61.540  52.739  0.00  0.00    +0.000 C 
ATOM     21  C   UNL     1      62.319  60.741  52.537  0.00  0.00    +0.000 C 
ATOM     22  N   UNL     1      61.694  60.416  52.107  0.00  0.00    +0.000 N 
ATOM     23  C   UNL     1      61.058  60.889  51.880  0.00  0.00    +0.000 A 
ATOM     24  C   UNL     1      61.047  61.690  52.083  0.00  0.00    +0.000 A 
ATOM     25  C   UNL     1      60.411  62.164  51.856  0.00  0.00    +0.000 A 
ATOM     26  C   UNL     1      59.787  61.839  51.427  0.00  0.00    +0.000 A 
ATOM     27  C   UNL     1      59.798  61.039  51.224  0.00  0.00    +0.000 A 
ATOM     28  C   UNL     1      60.434  60.565  51.451  0.00  0.00    +0.000 A 
ATOM     29  S   UNL     1      60.445  59.765  51.248  0.00  0.00    +0.000 S 
ATOM     30  C   UNL     1      61.081  59.291  51.475  0.00  0.00    +0.000 A 
ATOM     31  C   UNL     1      61.705  59.616  51.904  0.00  0.00    +0.000 A 
ATOM     32  C   UNL     1      62.341  59.142  52.131  0.00  0.00    +0.000 A 
ATOM     33  C   UNL     1      62.351  58.342  51.928  0.00  0.00    +0.000 A 
ATOM     34  C   UNL     1      61.727  58.017  51.499  0.00  0.00    +0.000 A 
ATOM     35  C   UNL     1      61.092  58.491  51.272  0.00  0.00    +0.000 A 
ATOM     36  C   UNL     1      62.988  57.868  52.155  0.00  0.00    +0.000 C 
ATOM     37  F   UNL     1      63.624  57.394  52.382  0.00  0.00    +0.000 F 
ATOM     38  F   UNL     1      62.634  57.219  51.791  0.00  0.00    +0.000 F 
ATOM     39  F   UNL     1      63.342  58.518  52.521  0.00  0.00    +0.000 F 
ATOM     40  C   UNL     1      62.285  63.140  53.144  0.00  0.00    +0.000 C 
ATOM     41  C   UNL     1      62.275  63.940  53.347  0.00  0.00    +0.000 C 
ENDROOT
TORSDOF 0
ENDMDL
MODEL 4
REMARK VINA RESULT:   -11.887      2.445      3.274
REMARK INTER + INTRA:         -11.887
REMARK INTER:                 -11.887
REMARK INTRA:                   0.000
REMARK UNBOUND:                 0.000
ROOT
REMARK  Name = fluphenazine decanoate
REMARK                            x       y       z     vdW  Elec       q    Type
REMARK                         _______ _______ _______ _____ _____    ______ ____
ATOM      1  C   UNL     1      58.224  74.202  55.626  0.00  0.00    +0.000 C 
ATOM      2  C   UNL     1      58.527  73.436  55.601  0.00  0.00    +0.000 C 
ATOM      3  C   UNL     1      58.704  73.085  54.875  0.00  0.00    +0.000 C 
ATOM      4  C   UNL     1      59.007  72.319  54.850  0.00  0.00    +0.000 C 
ATOM      5  C   UNL     1      59.185  71.968  54.124  0.00  0.00    +0.000 C 
ATOM      6  C   UNL     1      59.487  71.202  54.099  0.00  0.00    +0.000 C 
ATOM      7  C   UNL     1      59.665  70.852  53.373  0.00  0.00    +0.000 C 
ATOM      8  C   UNL     1      59.968  70.085  53.348  0.00  0.00    +0.000 C 
ATOM      9  C   UNL     1      60.146  69.735  52.622  0.00  0.00    +0.000 C 
ATOM     10  C   UNL     1      60.448  68.968  52.597  0.00  0.00    +0.000 C 
ATOM     11  O   UNL     1      60.573  68.551  53.297  0.00  0.00    +0.000 OA
ATOM     12  O   UNL     1      60.626  68.618  51.871  0.00  0.00    +0.000 OA
ATOM     13  C   UNL     1      60.928  67.852  51.846  0.00  0.00    +0.000 C 
ATOM     14  C   UNL     1      61.106  67.501  51.120  0.00  0.00    +0.000 C 
ATOM     15  N   UNL     1      61.409  66.735  51.095  0.00  0.00    +0.000 NA
ATOM     16  C   UNL     1      61.586  66.385  50.370  0.00  0.00    +0.000 C 
ATOM     17  C   UNL     1      61.889  65.618  50.344  0.00  0.00    +0.000 C 
ATOM     18  N   UNL     1      62.015  65.201  51.044  0.00  0.00    +0.000 NA
ATOM     19  C   UNL     1      62.318  64.433  51.019  0.00  0.00    +0.000 C 
ATOM     20  C   UNL     1      62.443  64.016  51.719  0.00  0.00    +0.000 C 
ATOM     21  C   UNL     1      62.746  63.250  51.694  0.00  0.00    +0.000 C 
ATOM     22  N   UNL     1      62.871  62.832  52.395  0.00  0.00    +0.000 N 
ATOM     23  C   UNL     1      62.694  63.181  53.121  0.00  0.00    +0.000 A 
ATOM     24  C   UNL     1      62.390  63.949  53.146  0.00  0.00    +0.000 A 
ATOM     25  C   UNL     1      62.213  64.299  53.873  0.00  0.00    +0.000 A 
ATOM     26  C   UNL     1      62.338  63.882  54.572  0.00  0.00    +0.000 A 
ATOM     27  C   UNL     1      62.641  63.115  54.547  0.00  0.00    +0.000 A 
ATOM     28  C   UNL     1      62.819  62.765  53.821  0.00  0.00    +0.000 A 
ATOM     29  S   UNL     1      63.121  61.998  53.796  0.00  0.00    +0.000 S 
ATOM     30  C   UNL     1      63.299  61.649  53.070  0.00  0.00    +0.000 A 
ATOM     31  C   UNL     1      63.174  62.065  52.370  0.00  0.00    +0.000 A 
ATOM     32  C   UNL     1      63.351  61.716  51.644  0.00  0.00    +0.000 A 
ATOM     33  C   UNL     1      63.654  60.949  51.619  0.00  0.00    +0.000 A 
ATOM     34  C   UNL     1      63.779  60.532  52.319  0.00  0.00    +0.000 A 
ATOM     35  C   UNL     1      63.602  60.881  53.045  0.00  0.00    +0.000 A 
ATOM     36  C   UNL     1      63.832  60.599  50.893  0.00  0.00    +0.000 C 
ATOM     37  F   UNL     1      64.009  60.250  50.167  0.00  0.00    +0.000 F 
ATOM     38  F   UNL     1      64.078  59.916  51.283  0.00  0.00    +0.000 F 
ATOM     39  F   UNL     1      63.584  61.283  50.503  0.00  0.00    +0.000 F 
ATOM     40  C   UNL     1      61.837  65.551  51.771  0.00  0.00    +0.000 C 
ATOM     41  C   UNL     1      61.534  66.318  51.795  0.00  0.00    +0.000 C 
ENDROOT
TORSDOF 0
ENDMDL
MODEL 5
REMARK VINA RESULT:   -11.769      3.940      8.823
REMARK INTER + INTRA:         -11.769
REMARK INTER:                 -11.769
REMARK INTRA:                   0.000
REMARK UNBOUND:                 0.000
ROOT
REMARK  Name = fluphenazine decanoate
REMARK                            x       y       z     vdW  Elec       q    Type
REMARK                         _______ _______ _______ _____ _____    ______ ____
ATOM      1  C   UNL     1      64.579  57.134  48.104  0.00  0.00    +0.000 C 
ATOM      2  C   UNL     1      64.359  57.916  48.244  0.00  0.00    +0.000 C 
ATOM      3  C   UNL     1      64.210  58.171  49.014  0.00  0.00    +0.000 C 
ATOM      4  C   UNL     1      63.990  58.954  49.155  0.00  0.00    +0.000 C 
ATOM      5  C   UNL     1      63.840  59.209  49.925  0.00  0.00    +0.000 C 
ATOM      6  C   UNL     1      63.621  59.991  50.065  0.00  0.00    +0.000 C 
ATOM      7  C   UNL     1      63.471  60.247  50.835  0.00  0.00    +0.000 C 
ATOM      8  C   UNL     1      63.252  61.029  50.975  0.00  0.00    +0.000 C 
ATOM      9  C   UNL     1      63.102  61.285  51.746  0.00  0.00    +0.000 C 
ATOM     10  C   UNL     1      62.882  62.067  51.886  0.00  0.00    +0.000 C 
ATOM     11  O   UNL     1      62.811  62.594  51.256  0.00  0.00    +0.000 OA
ATOM     12  O   UNL     1      62.733  62.322  52.656  0.00  0.00    +0.000 OA
ATOM     13  C   UNL     1      62.513  63.104  52.796  0.00  0.00    +0.000 C 
ATOM     14  C   UNL     1      62.364  63.360  53.567  0.00  0.00    +0.000 C 
ATOM     15  N   UNL     1      62.144  64.142  53.707  0.00  0.00    +0.000 NA
ATOM     16  C   UNL     1      61.995  64.397  54.477  0.00  0.00    +0.000 C 
ATOM     17  C   UNL     1      61.775  65.180  54.617  0.00  0.00    +0.000 C 
ATOM     18  N   UNL     1      61.704  65.707  53.987  0.00  0.00    +0.000 NA
ATOM     19  C   UNL     1      61.484  66.491  54.127  0.00  0.00    +0.000 C 
ATOM     20  C   UNL     1      61.413  67.018  53.498  0.00  0.00    +0.000 C 
ATOM     21  C   UNL     1      61.193  67.800  53.637  0.00  0.00    +0.000 C 
ATOM     22  N   UNL     1      61.122  68.328  53.007  0.00  0.00    +0.000 N 
ATOM     23  C   UNL     1      61.271  68.074  52.237  0.00  0.00    +0.000 A 
ATOM     24  C   UNL     1      61.491  67.290  52.097  0.00  0.00    +0.000 A 
ATOM     25  C   UNL     1      61.640  67.035  51.326  0.00  0.00    +0.000 A 
ATOM     26  C   UNL     1      61.569  67.562  50.696  0.00  0.00    +0.000 A 
ATOM     27  C   UNL     1      61.349  68.346  50.836  0.00  0.00    +0.000 A 
ATOM     28  C   UNL     1      61.200  68.601  51.607  0.00  0.00    +0.000 A 
ATOM     29  S   UNL     1      60.980  69.384  51.747  0.00  0.00    +0.000 S 
ATOM     30  C   UNL     1      60.831  69.638  52.517  0.00  0.00    +0.000 A 
ATOM     31  C   UNL     1      60.902  69.111  53.147  0.00  0.00    +0.000 A 
ATOM     32  C   UNL     1      60.753  69.366  53.918  0.00  0.00    +0.000 A 
ATOM     33  C   UNL     1      60.533  70.148  54.057  0.00  0.00    +0.000 A 
ATOM     34  C   UNL     1      60.462  70.676  53.428  0.00  0.00    +0.000 A 
ATOM     35  C   UNL     1      60.611  70.421  52.657  0.00  0.00    +0.000 A 
ATOM     36  C   UNL     1      60.384  70.404  54.828  0.00  0.00    +0.000 C 
ATOM     37  F   UNL     1      60.235  70.658  55.598  0.00  0.00    +0.000 F 
ATOM     38  F   UNL     1      60.216  71.159  54.545  0.00  0.00    +0.000 F 
ATOM     39  F   UNL     1      60.552  69.646  55.111  0.00  0.00    +0.000 F 
ATOM     40  C   UNL     1      61.853  65.452  53.216  0.00  0.00    +0.000 C 
ATOM     41  C   UNL     1      62.073  64.670  53.077  0.00  0.00    +0.000 C 
ENDROOT
TORSDOF 0
ENDMDL
MODEL 6
REMARK VINA RESULT:   -11.646      4.381      7.017
REMARK INTER + INTRA:         -11.646
REMARK INTER:                 -11.646
REMARK INTRA:                   0.000
REMARK UNBOUND:                 0.000
ROOT
REMARK  Name = fluphenazine decanoate
REMARK                            x       y       z     vdW  Elec       q    Type
REMARK                         _______ _______ _______ _____ _____    ______ ____
ATOM      1  C   UNL     1      58.641  79.433  48.964  0.00  0.00    +0.000 C 
ATOM      2  C   UNL     1      58.898  78.801  49.427  0.00  0.00    +0.000 C 
ATOM      3  C   UNL     1      58.770  78.025  49.176  0.00  0.00    +0.000 C 
ATOM      4  C   UNL     1      59.027  77.394  49.639  0.00  0.00    +0.000 C 
ATOM      5  C   UNL     1      58.898  76.618  49.388  0.00  0.00    +0.000 C 
ATOM      6  C   UNL     1      59.155  75.986  49.851  0.00  0.00    +0.000 C 
ATOM      7  C   UNL     1      59.027  75.211  49.600  0.00  0.00    +0.000 C 
ATOM      8  C   UNL     1      59.284  74.579  50.063  0.00  0.00    +0.000 C 
ATOM      9  C   UNL     1      59.155  73.803  49.812  0.00  0.00    +0.000 C 
ATOM     10  C   UNL     1      59.412  73.172  50.275  0.00  0.00    +0.000 C 
ATOM     11  O   UNL     1      59.798  73.314  50.990  0.00  0.00    +0.000 OA
ATOM     12  O   UNL     1      59.284  72.396  50.024  0.00  0.00    +0.000 OA
ATOM     13  C   UNL     1      59.540  71.764  50.487  0.00  0.00    +0.000 C 
ATOM     14  C   UNL     1      59.412  70.989  50.236  0.00  0.00    +0.000 C 
ATOM     15  N   UNL     1      59.669  70.357  50.699  0.00  0.00    +0.000 NA
ATOM     16  C   UNL     1      59.540  69.582  50.448  0.00  0.00    +0.000 C 
ATOM     17  C   UNL     1      59.797  68.950  50.911  0.00  0.00    +0.000 C 
ATOM     18  N   UNL     1      60.183  69.092  51.626  0.00  0.00    +0.000 NA
ATOM     19  C   UNL     1      60.441  68.460  52.090  0.00  0.00    +0.000 C 
ATOM     20  C   UNL     1      60.826  68.602  52.804  0.00  0.00    +0.000 C 
ATOM     21  C   UNL     1      61.083  67.971  53.268  0.00  0.00    +0.000 C 
ATOM     22  N   UNL     1      61.469  68.114  53.983  0.00  0.00    +0.000 N 
ATOM     23  C   UNL     1      61.598  68.888  54.235  0.00  0.00    +0.000 A 
ATOM     24  C   UNL     1      61.341  69.521  53.771  0.00  0.00    +0.000 A 
ATOM     25  C   UNL     1      61.470  70.297  54.023  0.00  0.00    +0.000 A 
ATOM     26  C   UNL     1      61.855  70.439  54.737  0.00  0.00    +0.000 A 
ATOM     27  C   UNL     1      62.112  69.807  55.201  0.00  0.00    +0.000 A 
ATOM     28  C   UNL     1      61.984  69.031  54.949  0.00  0.00    +0.000 A 
ATOM     29  S   UNL     1      62.241  68.399  55.413  0.00  0.00    +0.000 S 
ATOM     30  C   UNL     1      62.112  67.625  55.161  0.00  0.00    +0.000 A 
ATOM     31  C   UNL     1      61.727  67.482  54.447  0.00  0.00    +0.000 A 
ATOM     32  C   UNL     1      61.598  66.706  54.195  0.00  0.00    +0.000 A 
ATOM     33  C   UNL     1      61.855  66.075  54.659  0.00  0.00    +0.000 A 
ATOM     34  C   UNL     1      62.240  66.217  55.373  0.00  0.00    +0.000 A 
ATOM     35  C   UNL     1      62.369  66.992  55.625  0.00  0.00    +0.000 A 
ATOM     36  C   UNL     1      61.726  65.299  54.407  0.00  0.00    +0.000 C 
ATOM     37  F   UNL     1      61.597  64.524  54.155  0.00  0.00    +0.000 F 
ATOM     38  F   UNL     1      62.097  65.017  55.087  0.00  0.00    +0.000 F 
ATOM     39  F   UNL     1      61.355  65.582  53.726  0.00  0.00    +0.000 F 
ATOM     40  C   UNL     1      60.312  69.868  51.878  0.00  0.00    +0.000 C 
ATOM     41  C   UNL     1      60.055  70.500  51.414  0.00  0.00    +0.000 C 
ENDROOT
TORSDOF 0
ENDMDL
MODEL 7
REMARK VINA RESULT:   -11.645      4.932     10.034
REMARK INTER + INTRA:         -11.645
REMARK INTER:                 -11.645
REMARK INTRA:                   0.000
REMARK UNBOUND:                 0.000
ROOT
REMARK  Name = fluphenazine decanoate
REMARK                            x       y       z     vdW  Elec       q    Type
REMARK                         _______ _______ _______ _____ _____    ______ ____
ATOM      1  C   UNL     1      64.212  59.350  53.252  0.00  0.00    +0.000 C 
ATOM      2  C   UNL     1      63.828  60.048  53.040  0.00  0.00    +0.000 C 
ATOM      3  C   UNL     1      63.864  60.707  53.536  0.00  0.00    +0.000 C 
ATOM      4  C   UNL     1      63.480  61.404  53.323  0.00  0.00    +0.000 C 
ATOM      5  C   UNL     1      63.516  62.063  53.819  0.00  0.00    +0.000 C 
ATOM      6  C   UNL     1      63.132  62.761  53.606  0.00  0.00    +0.000 C 
ATOM      7  C   UNL     1      63.168  63.420  54.102  0.00  0.00    +0.000 C 
ATOM      8  C   UNL     1      62.784  64.118  53.890  0.00  0.00    +0.000 C 
ATOM      9  C   UNL     1      62.820  64.777  54.385  0.00  0.00    +0.000 C 
ATOM     10  C   UNL     1      62.436  65.475  54.173  0.00  0.00    +0.000 C 
ATOM     11  O   UNL     1      62.014  65.514  53.464  0.00  0.00    +0.000 OA
ATOM     12  O   UNL     1      62.472  66.134  54.668  0.00  0.00    +0.000 OA
ATOM     13  C   UNL     1      62.088  66.831  54.456  0.00  0.00    +0.000 C 
ATOM     14  C   UNL     1      62.124  67.491  54.951  0.00  0.00    +0.000 C 
ATOM     15  N   UNL     1      61.739  68.188  54.739  0.00  0.00    +0.000 NA
ATOM     16  C   UNL     1      61.776  68.846  55.234  0.00  0.00    +0.000 C 
ATOM     17  C   UNL     1      61.391  69.545  55.022  0.00  0.00    +0.000 C 
ATOM     18  N   UNL     1      60.970  69.585  54.314  0.00  0.00    +0.000 NA
ATOM     19  C   UNL     1      60.585  70.283  54.101  0.00  0.00    +0.000 C 
ATOM     20  C   UNL     1      60.164  70.323  53.393  0.00  0.00    +0.000 C 
ATOM     21  C   UNL     1      59.779  71.021  53.180  0.00  0.00    +0.000 C 
ATOM     22  N   UNL     1      59.358  71.060  52.472  0.00  0.00    +0.000 N 
ATOM     23  C   UNL     1      59.321  70.402  51.976  0.00  0.00    +0.000 A 
ATOM     24  C   UNL     1      59.706  69.704  52.189  0.00  0.00    +0.000 A 
ATOM     25  C   UNL     1      59.669  69.045  51.693  0.00  0.00    +0.000 A 
ATOM     26  C   UNL     1      59.248  69.084  50.986  0.00  0.00    +0.000 A 
ATOM     27  C   UNL     1      58.863  69.783  50.773  0.00  0.00    +0.000 A 
ATOM     28  C   UNL     1      58.900  70.442  51.269  0.00  0.00    +0.000 A 
ATOM     29  S   UNL     1      58.515  71.140  51.056  0.00  0.00    +0.000 S 
ATOM     30  C   UNL     1      58.552  71.798  51.552  0.00  0.00    +0.000 A 
ATOM     31  C   UNL     1      58.973  71.758  52.259  0.00  0.00    +0.000 A 
ATOM     32  C   UNL     1      59.010  72.417  52.755  0.00  0.00    +0.000 A 
ATOM     33  C   UNL     1      58.625  73.115  52.542  0.00  0.00    +0.000 A 
ATOM     34  C   UNL     1      58.204  73.155  51.835  0.00  0.00    +0.000 A 
ATOM     35  C   UNL     1      58.167  72.497  51.339  0.00  0.00    +0.000 A 
ATOM     36  C   UNL     1      58.662  73.774  53.038  0.00  0.00    +0.000 C 
ATOM     37  F   UNL     1      58.699  74.432  53.534  0.00  0.00    +0.000 F 
ATOM     38  F   UNL     1      58.197  74.200  52.507  0.00  0.00    +0.000 F 
ATOM     39  F   UNL     1      59.128  73.347  53.570  0.00  0.00    +0.000 F 
ATOM     40  C   UNL     1      60.933  68.926  53.818  0.00  0.00    +0.000 C 
ATOM     41  C   UNL     1      61.318  68.228  54.031  0.00  0.00    +0.000 C 
ENDROOT
TORSDOF 0
ENDMDL
MODEL 8
REMARK VINA RESULT:   -11.562      1.790      2.464
REMARK INTER + INTRA:         -11.562
REMARK INTER:                 -11.562
REMARK INTRA:                   0.000
REMARK UNBOUND:                 0.000
ROOT
REMARK  Name = fluphenazine decanoate
REMARK                            x       y       z     vdW  Elec       q    Type
REMARK                         _______ _______ _______ _____ _____    ______ ____
ATOM      1  C   UNL     1      59.399  73.427  49.977  0.00  0.00    +0.000 C 
ATOM      2  C   UNL     1      59.734  72.736  50.278  0.00  0.00    +0.000 C 
ATOM      3  C   UNL     1      59.433  72.000  50.055  0.00  0.00    +0.000 C 
ATOM      4  C   UNL     1      59.768  71.309  50.356  0.00  0.00    +0.000 C 
ATOM      5  C   UNL     1      59.468  70.574  50.133  0.00  0.00    +0.000 C 
ATOM      6  C   UNL     1      59.802  69.883  50.434  0.00  0.00    +0.000 C 
ATOM      7  C   UNL     1      59.502  69.147  50.211  0.00  0.00    +0.000 C 
ATOM      8  C   UNL     1      59.836  68.456  50.512  0.00  0.00    +0.000 C 
ATOM      9  C   UNL     1      59.536  67.721  50.289  0.00  0.00    +0.000 C 
ATOM     10  C   UNL     1      59.870  67.030  50.590  0.00  0.00    +0.000 C 
ATOM     11  O   UNL     1      60.505  67.074  51.114  0.00  0.00    +0.000 OA
ATOM     12  O   UNL     1      59.570  66.294  50.367  0.00  0.00    +0.000 OA
ATOM     13  C   UNL     1      59.904  65.603  50.667  0.00  0.00    +0.000 C 
ATOM     14  C   UNL     1      59.604  64.868  50.444  0.00  0.00    +0.000 C 
ATOM     15  N   UNL     1      59.938  64.177  50.745  0.00  0.00    +0.000 NA
ATOM     16  C   UNL     1      59.638  63.442  50.522  0.00  0.00    +0.000 C 
ATOM     17  C   UNL     1      59.972  62.751  50.823  0.00  0.00    +0.000 C 
ATOM     18  N   UNL     1      60.607  62.794  51.348  0.00  0.00    +0.000 NA
ATOM     19  C   UNL     1      60.942  62.103  51.650  0.00  0.00    +0.000 C 
ATOM     20  C   UNL     1      61.577  62.146  52.174  0.00  0.00    +0.000 C 
ATOM     21  C   UNL     1      61.912  61.456  52.475  0.00  0.00    +0.000 C 
ATOM     22  N   UNL     1      62.547  61.499  53.000  0.00  0.00    +0.000 N 
ATOM     23  C   UNL     1      62.848  62.234  53.224  0.00  0.00    +0.000 A 
ATOM     24  C   UNL     1      62.513  62.926  52.922  0.00  0.00    +0.000 A 
ATOM     25  C   UNL     1      62.814  63.661  53.146  0.00  0.00    +0.000 A 
ATOM     26  C   UNL     1      63.448  63.705  53.670  0.00  0.00    +0.000 A 
ATOM     27  C   UNL     1      63.783  63.013  53.971  0.00  0.00    +0.000 A 
ATOM     28  C   UNL     1      63.482  62.278  53.748  0.00  0.00    +0.000 A 
ATOM     29  S   UNL     1      63.817  61.587  54.049  0.00  0.00    +0.000 S 
ATOM     30  C   UNL     1      63.516  60.852  53.825  0.00  0.00    +0.000 A 
ATOM     31  C   UNL     1      62.882  60.809  53.301  0.00  0.00    +0.000 A 
ATOM     32  C   UNL     1      62.581  60.073  53.078  0.00  0.00    +0.000 A 
ATOM     33  C   UNL     1      62.916  59.382  53.379  0.00  0.00    +0.000 A 
ATOM     34  C   UNL     1      63.550  59.426  53.903  0.00  0.00    +0.000 A 
ATOM     35  C   UNL     1      63.851  60.160  54.127  0.00  0.00    +0.000 A 
ATOM     36  C   UNL     1      62.615  58.646  53.156  0.00  0.00    +0.000 C 
ATOM     37  F   UNL     1      62.314  57.912  52.932  0.00  0.00    +0.000 F 
ATOM     38  F   UNL     1      63.174  58.273  53.632  0.00  0.00    +0.000 F 
ATOM     39  F   UNL     1      62.055  59.021  52.678  0.00  0.00    +0.000 F 
ATOM     40  C   UNL     1      60.908  63.530  51.572  0.00  0.00    +0.000 C 
ATOM     41  C   UNL     1      60.573  64.221  51.270  0.00  0.00    +0.000 C 
ENDROOT
TORSDOF 0
ENDMDL
