MODEL 1
REMARK VINA RESULT:   -16.263      0.000      0.000
REMARK INTER + INTRA:         -16.263
REMARK INTER:                 -16.263
REMARK INTRA:                   0.000
REMARK UNBOUND:                 0.000
ROOT
REMARK  Name = fluprostenol
REMARK                            x       y       z     vdW  Elec       q    Type
REMARK                         _______ _______ _______ _____ _____    ______ ____
ATOM      1  O   UNL     1      62.012  63.483  67.922  0.00  0.00    +0.000 OA
ATOM      2  C   UNL     1      61.536  62.809  67.909  0.00  0.00    +0.000 C 
ATOM      3  C   UNL     1      61.455  62.374  67.212  0.00  0.00    +0.000 C 
ATOM      4  O   UNL     1      61.851  62.614  66.528  0.00  0.00    +0.000 OA
ATOM      5  C   UNL     1      61.770  62.180  65.831  0.00  0.00    +0.000 A 
ATOM      6  C   UNL     1      62.166  62.419  65.148  0.00  0.00    +0.000 A 
ATOM      7  C   UNL     1      62.085  61.985  64.451  0.00  0.00    +0.000 A 
ATOM      8  C   UNL     1      61.609  61.311  64.437  0.00  0.00    +0.000 A 
ATOM      9  C   UNL     1      61.214  61.071  65.121  0.00  0.00    +0.000 A 
ATOM     10  C   UNL     1      61.294  61.506  65.818  0.00  0.00    +0.000 A 
ATOM     11  C   UNL     1      62.481  62.224  63.768  0.00  0.00    +0.000 C 
ATOM     12  F   UNL     1      62.876  62.464  63.085  0.00  0.00    +0.000 F 
ATOM     13  F   UNL     1      62.802  62.864  64.178  0.00  0.00    +0.000 F 
ATOM     14  F   UNL     1      62.159  61.584  63.358  0.00  0.00    +0.000 F 
ATOM     15  C   UNL     1      61.140  62.569  68.592  0.00  0.00    +0.000 C 
ATOM     16  C   UNL     1      61.221  63.004  69.289  0.00  0.00    +0.000 C 
ATOM     17  C   UNL     1      60.825  62.764  69.972  0.00  0.00    +0.000 C 
ATOM     18  C   UNL     1      60.333  62.106  70.041  0.00  0.00    +0.000 C 
ATOM     19  O   UNL     1      60.149  61.571  69.441  0.00  0.00    +0.000 OA
ATOM     20  C   UNL     1      60.056  62.076  70.818  0.00  0.00    +0.000 C 
ATOM     21  C   UNL     1      60.377  62.716  71.228  0.00  0.00    +0.000 C 
ATOM     22  O   UNL     1      60.246  62.898  72.022  0.00  0.00    +0.000 OA
ATOM     23  C   UNL     1      60.853  63.141  70.705  0.00  0.00    +0.000 C 
ATOM     24  C   UNL     1      61.280  63.823  70.884  0.00  0.00    +0.000 C 
ATOM     25  C   UNL     1      61.734  64.190  70.301  0.00  0.00    +0.000 C 
ATOM     26  C   UNL     1      62.162  64.873  70.480  0.00  0.00    +0.000 C 
ATOM     27  C   UNL     1      62.136  65.188  71.242  0.00  0.00    +0.000 C 
ATOM     28  C   UNL     1      62.564  65.871  71.420  0.00  0.00    +0.000 C 
ATOM     29  C   UNL     1      62.537  66.186  72.182  0.00  0.00    +0.000 C 
ATOM     30  C   UNL     1      62.966  66.869  72.361  0.00  0.00    +0.000 C 
ATOM     31  O   UNL     1      62.939  67.183  73.123  0.00  0.00    +0.000 OA
ATOM     32  O   UNL     1      63.419  67.236  71.778  0.00  0.00    +0.000 OA
ENDROOT
TORSDOF 0
ENDMDL
MODEL 2
REMARK VINA RESULT:   -15.829      3.252      6.284
REMARK INTER + INTRA:         -15.829
REMARK INTER:                 -15.829
REMARK INTRA:                   0.000
REMARK UNBOUND:                 0.000
ROOT
REMARK  Name = fluprostenol
REMARK                            x       y       z     vdW  Elec       q    Type
REMARK                         _______ _______ _______ _____ _____    ______ ____
ATOM      1  O   UNL     1      63.125  64.896  69.421  0.00  0.00    +0.000 OA
ATOM      2  C   UNL     1      63.225  64.859  70.239  0.00  0.00    +0.000 C 
ATOM      3  C   UNL     1      63.806  65.316  70.605  0.00  0.00    +0.000 C 
ATOM      4  O   UNL     1      64.289  65.810  70.153  0.00  0.00    +0.000 OA
ATOM      5  C   UNL     1      64.869  66.267  70.519  0.00  0.00    +0.000 A 
ATOM      6  C   UNL     1      65.352  66.761  70.067  0.00  0.00    +0.000 A 
ATOM      7  C   UNL     1      65.933  67.217  70.433  0.00  0.00    +0.000 A 
ATOM      8  C   UNL     1      66.033  67.181  71.252  0.00  0.00    +0.000 A 
ATOM      9  C   UNL     1      65.550  66.686  71.704  0.00  0.00    +0.000 A 
ATOM     10  C   UNL     1      64.969  66.229  71.337  0.00  0.00    +0.000 A 
ATOM     11  C   UNL     1      66.415  67.712  69.982  0.00  0.00    +0.000 C 
ATOM     12  F   UNL     1      66.896  68.206  69.529  0.00  0.00    +0.000 F 
ATOM     13  F   UNL     1      66.022  67.469  69.298  0.00  0.00    +0.000 F 
ATOM     14  F   UNL     1      66.808  67.954  70.666  0.00  0.00    +0.000 F 
ATOM     15  C   UNL     1      62.743  64.365  70.691  0.00  0.00    +0.000 C 
ATOM     16  C   UNL     1      62.162  63.908  70.325  0.00  0.00    +0.000 C 
ATOM     17  C   UNL     1      61.680  63.414  70.777  0.00  0.00    +0.000 C 
ATOM     18  C   UNL     1      61.715  63.320  71.596  0.00  0.00    +0.000 C 
ATOM     19  O   UNL     1      62.237  63.702  72.106  0.00  0.00    +0.000 OA
ATOM     20  C   UNL     1      61.135  62.775  71.814  0.00  0.00    +0.000 C 
ATOM     21  C   UNL     1      60.742  62.532  71.130  0.00  0.00    +0.000 C 
ATOM     22  O   UNL     1      60.121  61.990  71.094  0.00  0.00    +0.000 OA
ATOM     23  C   UNL     1      61.079  62.928  70.489  0.00  0.00    +0.000 C 
ATOM     24  C   UNL     1      60.854  62.850  69.700  0.00  0.00    +0.000 C 
ATOM     25  C   UNL     1      61.244  63.283  69.115  0.00  0.00    +0.000 C 
ATOM     26  C   UNL     1      61.019  63.205  68.325  0.00  0.00    +0.000 C 
ATOM     27  C   UNL     1      60.404  62.695  68.120  0.00  0.00    +0.000 C 
ATOM     28  C   UNL     1      60.180  62.617  67.329  0.00  0.00    +0.000 C 
ATOM     29  C   UNL     1      59.565  62.106  67.124  0.00  0.00    +0.000 C 
ATOM     30  C   UNL     1      59.340  62.029  66.333  0.00  0.00    +0.000 C 
ATOM     31  O   UNL     1      58.726  61.518  66.128  0.00  0.00    +0.000 OA
ATOM     32  O   UNL     1      59.730  62.462  65.749  0.00  0.00    +0.000 OA
ENDROOT
TORSDOF 0
ENDMDL
