MODEL 1
REMARK VINA RESULT:   -15.904      0.000      0.000
REMARK INTER + INTRA:         -15.904
REMARK INTER:                 -15.904
REMARK INTRA:                   0.000
REMARK UNBOUND:                 0.000
ROOT
REMARK  Name = flurithromycin
REMARK                            x       y       z     vdW  Elec       q    Type
REMARK                         _______ _______ _______ _____ _____    ______ ____
ATOM      1  C   UNL     1      62.035  70.199  52.730  0.00  0.00    +0.000 C 
ATOM      2  C   UNL     1      62.150  69.930  53.501  0.00  0.00    +0.000 C 
ATOM      3  C   UNL     1      62.165  69.120  53.657  0.00  0.00    +0.000 C 
ATOM      4  O   UNL     1      62.050  69.389  52.885  0.00  0.00    +0.000 OA
ATOM      5  C   UNL     1      61.950  68.850  52.270  0.00  0.00    +0.000 C 
ATOM      6  O   UNL     1      61.835  69.119  51.500  0.00  0.00    +0.000 OA
ATOM      7  C   UNL     1      61.965  68.040  52.426  0.00  0.00    +0.000 C 
ATOM      8  C   UNL     1      61.840  67.969  51.614  0.00  0.00    +0.000 C 
ATOM      9  C   UNL     1      62.080  67.769  53.197  0.00  0.00    +0.000 C 
ATOM     10  O   UNL     1      61.980  67.230  52.582  0.00  0.00    +0.000 OA
ATOM     11  C   UNL     1      61.865  67.499  51.811  0.00  0.00    +0.000 C 
ATOM     12  C   UNL     1      61.850  68.310  51.655  0.00  0.00    +0.000 C 
ATOM     13  C   UNL     1      61.735  68.579  50.884  0.00  0.00    +0.000 C 
ATOM     14  C   UNL     1      61.803  69.300  51.279  0.00  0.00    +0.000 C 
ATOM     15  O   UNL     1      61.644  69.100  50.250  0.00  0.00    +0.000 OA
ATOM     16  C   UNL     1      61.672  69.914  50.378  0.00  0.00    +0.000 C 
ATOM     17  C   UNL     1      61.635  68.039  50.268  0.00  0.00    +0.000 C 
ATOM     18  O   UNL     1      61.520  68.309  49.497  0.00  0.00    +0.000 OA
ATOM     19  C   UNL     1      61.650  67.228  50.424  0.00  0.00    +0.000 C 
ATOM     20  C   UNL     1      61.550  66.689  49.808  0.00  0.00    +0.000 C 
ATOM     21  O   UNL     1      61.765  66.959  51.195  0.00  0.00    +0.000 OA
ATOM     22  C   UNL     1      62.095  66.960  53.352  0.00  0.00    +0.000 C 
ATOM     23  C   UNL     1      61.995  66.420  52.737  0.00  0.00    +0.000 C 
ATOM     24  C   UNL     1      62.210  66.690  54.124  0.00  0.00    +0.000 C 
ATOM     25  O   UNL     1      62.225  65.880  54.280  0.00  0.00    +0.000 OA
ATOM     26  C   UNL     1      62.125  65.340  53.663  0.00  0.00    +0.000 C 
ATOM     27  O   UNL     1      62.010  65.610  52.893  0.00  0.00    +0.000 OA
ATOM     28  C   UNL     1      61.910  65.070  52.278  0.00  0.00    +0.000 C 
ATOM     29  C   UNL     1      61.795  65.339  51.506  0.00  0.00    +0.000 C 
ATOM     30  C   UNL     1      61.925  64.259  52.434  0.00  0.00    +0.000 C 
ATOM     31  C   UNL     1      62.040  63.990  53.204  0.00  0.00    +0.000 C 
ATOM     32  C   UNL     1      62.140  64.529  53.819  0.00  0.00    +0.000 C 
ATOM     33  O   UNL     1      62.255  64.260  54.591  0.00  0.00    +0.000 OA
ATOM     34  N   UNL     1      62.055  63.179  53.360  0.00  0.00    +0.000 NA
ATOM     35  C   UNL     1      61.955  62.639  52.745  0.00  0.00    +0.000 C 
ATOM     36  C   UNL     1      62.170  62.909  54.131  0.00  0.00    +0.000 C 
ATOM     37  C   UNL     1      62.310  67.231  54.739  0.00  0.00    +0.000 C 
ATOM     38  C   UNL     1      62.282  66.415  54.612  0.00  0.00    +0.000 C 
ATOM     39  O   UNL     1      62.367  66.522  55.159  0.00  0.00    +0.000 OA
ATOM     40  C   UNL     1      62.425  66.961  55.510  0.00  0.00    +0.000 C 
ATOM     41  C   UNL     1      62.525  67.501  56.125  0.00  0.00    +0.000 C 
ATOM     42  C   UNL     1      62.582  66.793  56.546  0.00  0.00    +0.000 C 
ATOM     43  F   UNL     1      62.645  67.795  56.887  0.00  0.00    +0.000 F 
ATOM     44  C   UNL     1      62.510  68.310  55.970  0.00  0.00    +0.000 C 
ATOM     45  O   UNL     1      62.611  68.851  56.586  0.00  0.00    +0.000 OA
ATOM     46  C   UNL     1      62.395  68.581  55.199  0.00  0.00    +0.000 C 
ATOM     47  C   UNL     1      62.295  68.040  54.583  0.00  0.00    +0.000 C 
ATOM     48  C   UNL     1      62.380  69.391  55.043  0.00  0.00    +0.000 C 
ATOM     49  O   UNL     1      62.481  69.930  55.658  0.00  0.00    +0.000 OA
ATOM     50  C   UNL     1      62.265  69.660  54.272  0.00  0.00    +0.000 C 
ATOM     51  C   UNL     1      62.311  70.449  54.511  0.00  0.00    +0.000 C 
ATOM     52  O   UNL     1      62.194  70.302  53.759  0.00  0.00    +0.000 OA
ENDROOT
TORSDOF 0
ENDMDL
MODEL 2
REMARK VINA RESULT:   -15.780      1.665      5.038
REMARK INTER + INTRA:         -15.780
REMARK INTER:                 -15.780
REMARK INTRA:                   0.000
REMARK UNBOUND:                 0.000
ROOT
REMARK  Name = flurithromycin
REMARK                            x       y       z     vdW  Elec       q    Type
REMARK                         _______ _______ _______ _____ _____    ______ ____
ATOM      1  C   UNL     1      62.175  65.675  55.194  0.00  0.00    +0.000 C 
ATOM      2  C   UNL     1      62.027  65.293  54.478  0.00  0.00    +0.000 C 
ATOM      3  C   UNL     1      61.952  65.732  53.784  0.00  0.00    +0.000 C 
ATOM      4  O   UNL     1      62.099  66.115  54.500  0.00  0.00    +0.000 OA
ATOM      5  C   UNL     1      62.171  66.936  54.523  0.00  0.00    +0.000 C 
ATOM      6  O   UNL     1      62.318  67.317  55.238  0.00  0.00    +0.000 OA
ATOM      7  C   UNL     1      62.096  67.375  53.829  0.00  0.00    +0.000 C 
ATOM      8  C   UNL     1      62.229  68.020  54.325  0.00  0.00    +0.000 C 
ATOM      9  C   UNL     1      61.948  66.994  53.112  0.00  0.00    +0.000 C 
ATOM     10  O   UNL     1      62.020  67.815  53.135  0.00  0.00    +0.000 OA
ATOM     11  C   UNL     1      62.167  68.197  53.850  0.00  0.00    +0.000 C 
ATOM     12  C   UNL     1      62.243  67.757  54.545  0.00  0.00    +0.000 C 
ATOM     13  C   UNL     1      62.390  68.139  55.261  0.00  0.00    +0.000 C 
ATOM     14  C   UNL     1      62.367  67.356  55.519  0.00  0.00    +0.000 C 
ATOM     15  O   UNL     1      62.530  68.248  56.067  0.00  0.00    +0.000 OA
ATOM     16  C   UNL     1      62.557  67.598  56.573  0.00  0.00    +0.000 C 
ATOM     17  C   UNL     1      62.462  68.961  55.284  0.00  0.00    +0.000 C 
ATOM     18  O   UNL     1      62.610  69.342  56.000  0.00  0.00    +0.000 OA
ATOM     19  C   UNL     1      62.387  69.401  54.590  0.00  0.00    +0.000 C 
ATOM     20  C   UNL     1      62.459  70.222  54.612  0.00  0.00    +0.000 C 
ATOM     21  O   UNL     1      62.239  69.019  53.874  0.00  0.00    +0.000 OA
ATOM     22  C   UNL     1      61.873  67.434  52.419  0.00  0.00    +0.000 C 
ATOM     23  C   UNL     1      61.945  68.255  52.441  0.00  0.00    +0.000 C 
ATOM     24  C   UNL     1      61.725  67.052  51.702  0.00  0.00    +0.000 C 
ATOM     25  O   UNL     1      61.650  67.491  51.008  0.00  0.00    +0.000 OA
ATOM     26  C   UNL     1      61.722  68.313  51.031  0.00  0.00    +0.000 C 
ATOM     27  O   UNL     1      61.869  68.695  51.747  0.00  0.00    +0.000 OA
ATOM     28  C   UNL     1      61.941  69.516  51.770  0.00  0.00    +0.000 C 
ATOM     29  C   UNL     1      62.088  69.898  52.486  0.00  0.00    +0.000 C 
ATOM     30  C   UNL     1      61.865  69.956  51.075  0.00  0.00    +0.000 C 
ATOM     31  C   UNL     1      61.718  69.574  50.359  0.00  0.00    +0.000 C 
ATOM     32  C   UNL     1      61.646  68.754  50.336  0.00  0.00    +0.000 C 
ATOM     33  O   UNL     1      61.499  68.371  49.620  0.00  0.00    +0.000 OA
ATOM     34  N   UNL     1      61.642  70.014  49.665  0.00  0.00    +0.000 NA
ATOM     35  C   UNL     1      61.714  70.836  49.687  0.00  0.00    +0.000 C 
ATOM     36  C   UNL     1      61.495  69.633  48.949  0.00  0.00    +0.000 C 
ATOM     37  C   UNL     1      61.653  66.230  51.680  0.00  0.00    +0.000 C 
ATOM     38  C   UNL     1      61.626  66.881  51.173  0.00  0.00    +0.000 C 
ATOM     39  O   UNL     1      61.539  66.406  50.882  0.00  0.00    +0.000 OA
ATOM     40  C   UNL     1      61.506  65.848  50.963  0.00  0.00    +0.000 C 
ATOM     41  C   UNL     1      61.434  65.027  50.941  0.00  0.00    +0.000 C 
ATOM     42  C   UNL     1      61.320  65.202  50.142  0.00  0.00    +0.000 C 
ATOM     43  F   UNL     1      61.322  64.266  50.641  0.00  0.00    +0.000 F 
ATOM     44  C   UNL     1      61.509  64.588  51.634  0.00  0.00    +0.000 C 
ATOM     45  O   UNL     1      61.438  63.765  51.612  0.00  0.00    +0.000 OA
ATOM     46  C   UNL     1      61.657  64.969  52.351  0.00  0.00    +0.000 C 
ATOM     47  C   UNL     1      61.729  65.791  52.373  0.00  0.00    +0.000 C 
ATOM     48  C   UNL     1      61.732  64.529  53.045  0.00  0.00    +0.000 C 
ATOM     49  O   UNL     1      61.660  63.708  53.022  0.00  0.00    +0.000 OA
ATOM     50  C   UNL     1      61.880  64.911  53.761  0.00  0.00    +0.000 C 
ATOM     51  C   UNL     1      61.887  64.196  54.174  0.00  0.00    +0.000 C 
ATOM     52  O   UNL     1      62.006  64.849  54.574  0.00  0.00    +0.000 OA
ENDROOT
TORSDOF 0
ENDMDL
MODEL 3
REMARK VINA RESULT:   -15.622      1.407      4.012
REMARK INTER + INTRA:         -15.622
REMARK INTER:                 -15.622
REMARK INTRA:                   0.000
REMARK UNBOUND:                 0.000
ROOT
REMARK  Name = flurithromycin
REMARK                            x       y       z     vdW  Elec       q    Type
REMARK                         _______ _______ _______ _____ _____    ______ ____
ATOM      1  C   UNL     1      61.913  65.160  54.726  0.00  0.00    +0.000 C 
ATOM      2  C   UNL     1      62.041  65.938  54.970  0.00  0.00    +0.000 C 
ATOM      3  C   UNL     1      62.034  66.550  54.417  0.00  0.00    +0.000 C 
ATOM      4  O   UNL     1      61.907  65.772  54.173  0.00  0.00    +0.000 OA
ATOM      5  C   UNL     1      61.772  65.605  53.377  0.00  0.00    +0.000 C 
ATOM      6  O   UNL     1      61.645  64.828  53.133  0.00  0.00    +0.000 OA
ATOM      7  C   UNL     1      61.766  66.217  52.823  0.00  0.00    +0.000 C 
ATOM      8  C   UNL     1      61.616  65.612  52.284  0.00  0.00    +0.000 C 
ATOM      9  C   UNL     1      61.893  66.995  53.066  0.00  0.00    +0.000 C 
ATOM     10  O   UNL     1      61.759  66.829  52.269  0.00  0.00    +0.000 OA
ATOM     11  C   UNL     1      61.631  66.052  52.026  0.00  0.00    +0.000 C 
ATOM     12  C   UNL     1      61.638  65.439  52.581  0.00  0.00    +0.000 C 
ATOM     13  C   UNL     1      61.510  64.661  52.337  0.00  0.00    +0.000 C 
ATOM     14  C   UNL     1      61.612  64.543  53.146  0.00  0.00    +0.000 C 
ATOM     15  O   UNL     1      61.418  63.842  52.375  0.00  0.00    +0.000 OA
ATOM     16  C   UNL     1      61.476  63.454  53.100  0.00  0.00    +0.000 C 
ATOM     17  C   UNL     1      61.376  64.494  51.540  0.00  0.00    +0.000 C 
ATOM     18  O   UNL     1      61.248  63.717  51.297  0.00  0.00    +0.000 OA
ATOM     19  C   UNL     1      61.369  65.107  50.985  0.00  0.00    +0.000 C 
ATOM     20  C   UNL     1      61.235  64.940  50.189  0.00  0.00    +0.000 C 
ATOM     21  O   UNL     1      61.497  65.884  51.229  0.00  0.00    +0.000 OA
ATOM     22  C   UNL     1      61.887  67.606  52.513  0.00  0.00    +0.000 C 
ATOM     23  C   UNL     1      61.752  67.440  51.716  0.00  0.00    +0.000 C 
ATOM     24  C   UNL     1      62.014  68.385  52.756  0.00  0.00    +0.000 C 
ATOM     25  O   UNL     1      62.008  68.996  52.202  0.00  0.00    +0.000 OA
ATOM     26  C   UNL     1      61.873  68.829  51.405  0.00  0.00    +0.000 C 
ATOM     27  O   UNL     1      61.746  68.052  51.162  0.00  0.00    +0.000 OA
ATOM     28  C   UNL     1      61.611  67.886  50.366  0.00  0.00    +0.000 C 
ATOM     29  C   UNL     1      61.483  67.108  50.122  0.00  0.00    +0.000 C 
ATOM     30  C   UNL     1      61.605  68.498  49.812  0.00  0.00    +0.000 C 
ATOM     31  C   UNL     1      61.732  69.275  50.055  0.00  0.00    +0.000 C 
ATOM     32  C   UNL     1      61.867  69.442  50.851  0.00  0.00    +0.000 C 
ATOM     33  O   UNL     1      61.994  70.220  51.095  0.00  0.00    +0.000 OA
ATOM     34  N   UNL     1      61.726  69.887  49.501  0.00  0.00    +0.000 NA
ATOM     35  C   UNL     1      61.591  69.721  48.705  0.00  0.00    +0.000 C 
ATOM     36  C   UNL     1      61.853  70.665  49.744  0.00  0.00    +0.000 C 
ATOM     37  C   UNL     1      62.149  68.550  53.553  0.00  0.00    +0.000 C 
ATOM     38  C   UNL     1      62.091  68.939  52.827  0.00  0.00    +0.000 C 
ATOM     39  O   UNL     1      62.194  69.312  53.237  0.00  0.00    +0.000 OA
ATOM     40  C   UNL     1      62.276  69.329  53.796  0.00  0.00    +0.000 C 
ATOM     41  C   UNL     1      62.411  69.494  54.593  0.00  0.00    +0.000 C 
ATOM     42  C   UNL     1      62.456  70.257  54.278  0.00  0.00    +0.000 C 
ATOM     43  F   UNL     1      62.561  69.926  55.280  0.00  0.00    +0.000 F 
ATOM     44  C   UNL     1      62.417  68.884  55.146  0.00  0.00    +0.000 C 
ATOM     45  O   UNL     1      62.552  69.050  55.943  0.00  0.00    +0.000 OA
ATOM     46  C   UNL     1      62.290  68.106  54.903  0.00  0.00    +0.000 C 
ATOM     47  C   UNL     1      62.155  67.939  54.106  0.00  0.00    +0.000 C 
ATOM     48  C   UNL     1      62.296  67.494  55.457  0.00  0.00    +0.000 C 
ATOM     49  O   UNL     1      62.431  67.660  56.253  0.00  0.00    +0.000 OA
ATOM     50  C   UNL     1      62.169  66.716  55.213  0.00  0.00    +0.000 C 
ATOM     51  C   UNL     1      62.246  66.432  55.984  0.00  0.00    +0.000 C 
ATOM     52  O   UNL     1      62.104  65.920  55.420  0.00  0.00    +0.000 OA
ENDROOT
TORSDOF 0
ENDMDL
MODEL 4
REMARK VINA RESULT:   -15.318      1.275      3.780
REMARK INTER + INTRA:         -15.318
REMARK INTER:                 -15.318
REMARK INTRA:                   0.000
REMARK UNBOUND:                 0.000
ROOT
REMARK  Name = flurithromycin
REMARK                            x       y       z     vdW  Elec       q    Type
REMARK                         _______ _______ _______ _____ _____    ______ ____
ATOM      1  C   UNL     1      61.959  70.125  52.515  0.00  0.00    +0.000 C 
ATOM      2  C   UNL     1      61.842  69.686  51.827  0.00  0.00    +0.000 C 
ATOM      3  C   UNL     1      61.836  68.862  51.859  0.00  0.00    +0.000 C 
ATOM      4  O   UNL     1      61.954  69.301  52.548  0.00  0.00    +0.000 OA
ATOM      5  C   UNL     1      62.065  68.916  53.269  0.00  0.00    +0.000 C 
ATOM      6  O   UNL     1      62.182  69.355  53.957  0.00  0.00    +0.000 OA
ATOM      7  C   UNL     1      62.059  68.092  53.302  0.00  0.00    +0.000 C 
ATOM      8  C   UNL     1      62.191  68.209  54.107  0.00  0.00    +0.000 C 
ATOM      9  C   UNL     1      61.942  67.652  52.614  0.00  0.00    +0.000 C 
ATOM     10  O   UNL     1      62.053  67.268  53.335  0.00  0.00    +0.000 OA
ATOM     11  C   UNL     1      62.170  67.707  54.023  0.00  0.00    +0.000 C 
ATOM     12  C   UNL     1      62.176  68.532  53.990  0.00  0.00    +0.000 C 
ATOM     13  C   UNL     1      62.293  68.971  54.679  0.00  0.00    +0.000 C 
ATOM     14  C   UNL     1      62.213  69.582  54.131  0.00  0.00    +0.000 C 
ATOM     15  O   UNL     1      62.383  69.623  55.176  0.00  0.00    +0.000 OA
ATOM     16  C   UNL     1      62.343  70.387  54.867  0.00  0.00    +0.000 C 
ATOM     17  C   UNL     1      62.405  68.587  55.400  0.00  0.00    +0.000 C 
ATOM     18  O   UNL     1      62.522  69.026  56.088  0.00  0.00    +0.000 OA
ATOM     19  C   UNL     1      62.399  67.762  55.433  0.00  0.00    +0.000 C 
ATOM     20  C   UNL     1      62.510  67.377  56.154  0.00  0.00    +0.000 C 
ATOM     21  O   UNL     1      62.282  67.323  54.745  0.00  0.00    +0.000 OA
ATOM     22  C   UNL     1      61.936  66.829  52.647  0.00  0.00    +0.000 C 
ATOM     23  C   UNL     1      62.048  66.443  53.368  0.00  0.00    +0.000 C 
ATOM     24  C   UNL     1      61.819  66.389  51.958  0.00  0.00    +0.000 C 
ATOM     25  O   UNL     1      61.813  65.564  51.991  0.00  0.00    +0.000 OA
ATOM     26  C   UNL     1      61.925  65.180  52.713  0.00  0.00    +0.000 C 
ATOM     27  O   UNL     1      62.042  65.619  53.401  0.00  0.00    +0.000 OA
ATOM     28  C   UNL     1      62.153  65.235  54.122  0.00  0.00    +0.000 C 
ATOM     29  C   UNL     1      62.270  65.674  54.810  0.00  0.00    +0.000 C 
ATOM     30  C   UNL     1      62.147  64.410  54.155  0.00  0.00    +0.000 C 
ATOM     31  C   UNL     1      62.030  63.971  53.467  0.00  0.00    +0.000 C 
ATOM     32  C   UNL     1      61.919  64.355  52.746  0.00  0.00    +0.000 C 
ATOM     33  O   UNL     1      61.802  63.916  52.057  0.00  0.00    +0.000 OA
ATOM     34  N   UNL     1      62.025  63.146  53.500  0.00  0.00    +0.000 NA
ATOM     35  C   UNL     1      62.136  62.761  54.221  0.00  0.00    +0.000 C 
ATOM     36  C   UNL     1      61.908  62.706  52.812  0.00  0.00    +0.000 C 
ATOM     37  C   UNL     1      61.708  66.774  51.238  0.00  0.00    +0.000 C 
ATOM     38  C   UNL     1      61.748  66.009  51.547  0.00  0.00    +0.000 C 
ATOM     39  O   UNL     1      61.657  65.988  50.990  0.00  0.00    +0.000 OA
ATOM     40  C   UNL     1      61.591  66.334  50.549  0.00  0.00    +0.000 C 
ATOM     41  C   UNL     1      61.479  66.719  49.828  0.00  0.00    +0.000 C 
ATOM     42  C   UNL     1      61.429  65.933  49.580  0.00  0.00    +0.000 C 
ATOM     43  F   UNL     1      61.350  66.831  49.020  0.00  0.00    +0.000 F 
ATOM     44  C   UNL     1      61.485  67.543  49.795  0.00  0.00    +0.000 C 
ATOM     45  O   UNL     1      61.374  67.928  49.073  0.00  0.00    +0.000 OA
ATOM     46  C   UNL     1      61.602  67.983  50.483  0.00  0.00    +0.000 C 
ATOM     47  C   UNL     1      61.714  67.597  51.205  0.00  0.00    +0.000 C 
ATOM     48  C   UNL     1      61.608  68.807  50.450  0.00  0.00    +0.000 C 
ATOM     49  O   UNL     1      61.497  69.191  49.729  0.00  0.00    +0.000 OA
ATOM     50  C   UNL     1      61.725  69.246  51.139  0.00  0.00    +0.000 C 
ATOM     51  C   UNL     1      61.668  69.959  50.727  0.00  0.00    +0.000 C 
ATOM     52  O   UNL     1      61.792  69.989  51.491  0.00  0.00    +0.000 OA
ENDROOT
TORSDOF 0
ENDMDL
MODEL 5
REMARK VINA RESULT:   -15.051      3.278      7.105
REMARK INTER + INTRA:         -15.051
REMARK INTER:                 -15.051
REMARK INTRA:                   0.000
REMARK UNBOUND:                 0.000
ROOT
REMARK  Name = flurithromycin
REMARK                            x       y       z     vdW  Elec       q    Type
REMARK                         _______ _______ _______ _____ _____    ______ ____
ATOM      1  C   UNL     1      61.694  58.912  52.618  0.00  0.00    +0.000 C 
ATOM      2  C   UNL     1      62.282  59.363  52.982  0.00  0.00    +0.000 C 
ATOM      3  C   UNL     1      62.270  60.185  52.917  0.00  0.00    +0.000 C 
ATOM      4  O   UNL     1      61.682  59.734  52.554  0.00  0.00    +0.000 OA
ATOM      5  C   UNL     1      61.083  60.105  52.126  0.00  0.00    +0.000 C 
ATOM      6  O   UNL     1      60.495  59.655  51.763  0.00  0.00    +0.000 OA
ATOM      7  C   UNL     1      61.071  60.928  52.061  0.00  0.00    +0.000 C 
ATOM      8  C   UNL     1      60.391  60.796  51.614  0.00  0.00    +0.000 C 
ATOM      9  C   UNL     1      61.658  61.379  52.424  0.00  0.00    +0.000 C 
ATOM     10  O   UNL     1      61.059  61.750  51.996  0.00  0.00    +0.000 OA
ATOM     11  C   UNL     1      60.471  61.299  51.633  0.00  0.00    +0.000 C 
ATOM     12  C   UNL     1      60.483  60.476  51.698  0.00  0.00    +0.000 C 
ATOM     13  C   UNL     1      59.895  60.025  51.335  0.00  0.00    +0.000 C 
ATOM     14  C   UNL     1      60.345  59.425  51.678  0.00  0.00    +0.000 C 
ATOM     15  O   UNL     1      59.464  59.366  51.091  0.00  0.00    +0.000 OA
ATOM     16  C   UNL     1      59.710  58.609  51.308  0.00  0.00    +0.000 C 
ATOM     17  C   UNL     1      59.295  60.396  50.907  0.00  0.00    +0.000 C 
ATOM     18  O   UNL     1      58.708  59.946  50.544  0.00  0.00    +0.000 OA
ATOM     19  C   UNL     1      59.283  61.219  50.842  0.00  0.00    +0.000 C 
ATOM     20  C   UNL     1      58.684  61.590  50.414  0.00  0.00    +0.000 C 
ATOM     21  O   UNL     1      59.871  61.670  51.205  0.00  0.00    +0.000 OA
ATOM     22  C   UNL     1      61.646  62.201  52.359  0.00  0.00    +0.000 C 
ATOM     23  C   UNL     1      61.047  62.572  51.931  0.00  0.00    +0.000 C 
ATOM     24  C   UNL     1      62.234  62.652  52.722  0.00  0.00    +0.000 C 
ATOM     25  O   UNL     1      62.222  63.474  52.657  0.00  0.00    +0.000 OA
ATOM     26  C   UNL     1      61.622  63.845  52.229  0.00  0.00    +0.000 C 
ATOM     27  O   UNL     1      61.035  63.395  51.866  0.00  0.00    +0.000 OA
ATOM     28  C   UNL     1      60.435  63.765  51.438  0.00  0.00    +0.000 C 
ATOM     29  C   UNL     1      59.847  63.315  51.075  0.00  0.00    +0.000 C 
ATOM     30  C   UNL     1      60.423  64.589  51.373  0.00  0.00    +0.000 C 
ATOM     31  C   UNL     1      61.011  65.039  51.736  0.00  0.00    +0.000 C 
ATOM     32  C   UNL     1      61.610  64.669  52.164  0.00  0.00    +0.000 C 
ATOM     33  O   UNL     1      62.198  65.119  52.527  0.00  0.00    +0.000 OA
ATOM     34  N   UNL     1      60.998  65.862  51.671  0.00  0.00    +0.000 NA
ATOM     35  C   UNL     1      60.399  66.233  51.244  0.00  0.00    +0.000 C 
ATOM     36  C   UNL     1      61.586  66.313  52.034  0.00  0.00    +0.000 C 
ATOM     37  C   UNL     1      62.833  62.280  53.150  0.00  0.00    +0.000 C 
ATOM     38  C   UNL     1      62.588  63.038  52.933  0.00  0.00    +0.000 C 
ATOM     39  O   UNL     1      63.056  63.070  53.245  0.00  0.00    +0.000 OA
ATOM     40  C   UNL     1      63.421  62.732  53.513  0.00  0.00    +0.000 C 
ATOM     41  C   UNL     1      64.021  62.360  53.941  0.00  0.00    +0.000 C 
ATOM     42  C   UNL     1      64.245  63.150  54.036  0.00  0.00    +0.000 C 
ATOM     43  F   UNL     1      64.698  62.263  54.402  0.00  0.00    +0.000 F 
ATOM     44  C   UNL     1      64.033  61.539  54.006  0.00  0.00    +0.000 C 
ATOM     45  O   UNL     1      64.633  61.167  54.434  0.00  0.00    +0.000 OA
ATOM     46  C   UNL     1      63.446  61.087  53.643  0.00  0.00    +0.000 C 
ATOM     47  C   UNL     1      62.845  61.459  53.215  0.00  0.00    +0.000 C 
ATOM     48  C   UNL     1      63.458  60.265  53.708  0.00  0.00    +0.000 C 
ATOM     49  O   UNL     1      64.057  59.894  54.136  0.00  0.00    +0.000 OA
ATOM     50  C   UNL     1      62.869  59.814  53.345  0.00  0.00    +0.000 C 
ATOM     51  C   UNL     1      63.202  59.109  53.617  0.00  0.00    +0.000 C 
ATOM     52  O   UNL     1      62.559  59.066  53.188  0.00  0.00    +0.000 OA
ENDROOT
TORSDOF 0
ENDMDL
MODEL 6
REMARK VINA RESULT:   -14.987      1.593      4.897
REMARK INTER + INTRA:         -14.987
REMARK INTER:                 -14.987
REMARK INTRA:                   0.000
REMARK UNBOUND:                 0.000
ROOT
REMARK  Name = flurithromycin
REMARK                            x       y       z     vdW  Elec       q    Type
REMARK                         _______ _______ _______ _____ _____    ______ ____
ATOM      1  C   UNL     1      61.527  64.814  50.335  0.00  0.00    +0.000 C 
ATOM      2  C   UNL     1      61.538  65.617  50.142  0.00  0.00    +0.000 C 
ATOM      3  C   UNL     1      61.636  66.181  50.736  0.00  0.00    +0.000 C 
ATOM      4  O   UNL     1      61.624  65.378  50.928  0.00  0.00    +0.000 OA
ATOM      5  C   UNL     1      61.710  65.140  51.713  0.00  0.00    +0.000 C 
ATOM      6  O   UNL     1      61.698  64.339  51.904  0.00  0.00    +0.000 OA
ATOM      7  C   UNL     1      61.808  65.705  52.307  0.00  0.00    +0.000 C 
ATOM      8  C   UNL     1      61.840  65.049  52.805  0.00  0.00    +0.000 C 
ATOM      9  C   UNL     1      61.820  66.507  52.116  0.00  0.00    +0.000 C 
ATOM     10  O   UNL     1      61.905  66.269  52.901  0.00  0.00    +0.000 OA
ATOM     11  C   UNL     1      61.893  65.467  53.092  0.00  0.00    +0.000 C 
ATOM     12  C   UNL     1      61.796  64.902  52.498  0.00  0.00    +0.000 C 
ATOM     13  C   UNL     1      61.784  64.100  52.690  0.00  0.00    +0.000 C 
ATOM     14  C   UNL     1      61.682  64.054  51.873  0.00  0.00    +0.000 C 
ATOM     15  O   UNL     1      61.736  63.282  52.597  0.00  0.00    +0.000 OA
ATOM     16  C   UNL     1      61.630  62.957  51.847  0.00  0.00    +0.000 C 
ATOM     17  C   UNL     1      61.870  63.861  53.475  0.00  0.00    +0.000 C 
ATOM     18  O   UNL     1      61.858  63.060  53.666  0.00  0.00    +0.000 OA
ATOM     19  C   UNL     1      61.967  64.426  54.069  0.00  0.00    +0.000 C 
ATOM     20  C   UNL     1      62.053  64.188  54.854  0.00  0.00    +0.000 C 
ATOM     21  O   UNL     1      61.979  65.229  53.877  0.00  0.00    +0.000 OA
ATOM     22  C   UNL     1      61.917  67.071  52.709  0.00  0.00    +0.000 C 
ATOM     23  C   UNL     1      62.003  66.834  53.494  0.00  0.00    +0.000 C 
ATOM     24  C   UNL     1      61.929  67.874  52.518  0.00  0.00    +0.000 C 
ATOM     25  O   UNL     1      62.027  68.438  53.111  0.00  0.00    +0.000 OA
ATOM     26  C   UNL     1      62.112  68.200  53.897  0.00  0.00    +0.000 C 
ATOM     27  O   UNL     1      62.101  67.398  54.088  0.00  0.00    +0.000 OA
ATOM     28  C   UNL     1      62.186  67.160  54.873  0.00  0.00    +0.000 C 
ATOM     29  C   UNL     1      62.174  66.357  55.065  0.00  0.00    +0.000 C 
ATOM     30  C   UNL     1      62.284  67.725  55.467  0.00  0.00    +0.000 C 
ATOM     31  C   UNL     1      62.296  68.527  55.276  0.00  0.00    +0.000 C 
ATOM     32  C   UNL     1      62.210  68.765  54.491  0.00  0.00    +0.000 C 
ATOM     33  O   UNL     1      62.222  69.567  54.299  0.00  0.00    +0.000 OA
ATOM     34  N   UNL     1      62.393  69.091  55.870  0.00  0.00    +0.000 NA
ATOM     35  C   UNL     1      62.479  68.854  56.655  0.00  0.00    +0.000 C 
ATOM     36  C   UNL     1      62.405  69.893  55.679  0.00  0.00    +0.000 C 
ATOM     37  C   UNL     1      61.843  68.111  51.732  0.00  0.00    +0.000 C 
ATOM     38  C   UNL     1      61.950  68.437  52.484  0.00  0.00    +0.000 C 
ATOM     39  O   UNL     1      61.920  68.847  52.098  0.00  0.00    +0.000 OA
ATOM     40  C   UNL     1      61.855  68.914  51.541  0.00  0.00    +0.000 C 
ATOM     41  C   UNL     1      61.769  69.152  50.756  0.00  0.00    +0.000 C 
ATOM     42  C   UNL     1      61.846  69.889  51.121  0.00  0.00    +0.000 C 
ATOM     43  F   UNL     1      61.710  69.646  50.097  0.00  0.00    +0.000 F 
ATOM     44  C   UNL     1      61.672  68.588  50.163  0.00  0.00    +0.000 C 
ATOM     45  O   UNL     1      61.586  68.826  49.377  0.00  0.00    +0.000 OA
ATOM     46  C   UNL     1      61.660  67.786  50.353  0.00  0.00    +0.000 C 
ATOM     47  C   UNL     1      61.746  67.548  51.139  0.00  0.00    +0.000 C 
ATOM     48  C   UNL     1      61.562  67.221  49.760  0.00  0.00    +0.000 C 
ATOM     49  O   UNL     1      61.476  67.459  48.975  0.00  0.00    +0.000 OA
ATOM     50  C   UNL     1      61.550  66.419  49.952  0.00  0.00    +0.000 C 
ATOM     51  C   UNL     1      61.444  66.203  49.162  0.00  0.00    +0.000 C 
ATOM     52  O   UNL     1      61.484  65.638  49.692  0.00  0.00    +0.000 OA
ENDROOT
TORSDOF 0
ENDMDL
MODEL 7
REMARK VINA RESULT:   -14.958      3.733      6.382
REMARK INTER + INTRA:         -14.958
REMARK INTER:                 -14.958
REMARK INTRA:                   0.000
REMARK UNBOUND:                 0.000
ROOT
REMARK  Name = flurithromycin
REMARK                            x       y       z     vdW  Elec       q    Type
REMARK                         _______ _______ _______ _____ _____    ______ ____
ATOM      1  C   UNL     1      63.252  63.751  53.417  0.00  0.00    +0.000 C 
ATOM      2  C   UNL     1      63.442  62.971  53.607  0.00  0.00    +0.000 C 
ATOM      3  C   UNL     1      62.981  62.352  53.316  0.00  0.00    +0.000 C 
ATOM      4  O   UNL     1      62.791  63.132  53.125  0.00  0.00    +0.000 OA
ATOM      5  C   UNL     1      62.142  63.293  52.644  0.00  0.00    +0.000 C 
ATOM      6  O   UNL     1      61.952  64.072  52.454  0.00  0.00    +0.000 OA
ATOM      7  C   UNL     1      61.681  62.673  52.352  0.00  0.00    +0.000 C 
ATOM      8  C   UNL     1      61.247  63.278  51.997  0.00  0.00    +0.000 C 
ATOM      9  C   UNL     1      61.870  61.893  52.542  0.00  0.00    +0.000 C 
ATOM     10  O   UNL     1      61.221  62.054  52.061  0.00  0.00    +0.000 OA
ATOM     11  C   UNL     1      61.031  62.833  51.871  0.00  0.00    +0.000 C 
ATOM     12  C   UNL     1      61.492  63.453  52.162  0.00  0.00    +0.000 C 
ATOM     13  C   UNL     1      61.302  64.233  51.972  0.00  0.00    +0.000 C 
ATOM     14  C   UNL     1      61.967  64.359  52.444  0.00  0.00    +0.000 C 
ATOM     15  O   UNL     1      61.344  65.057  51.946  0.00  0.00    +0.000 OA
ATOM     16  C   UNL     1      61.942  65.453  52.352  0.00  0.00    +0.000 C 
ATOM     17  C   UNL     1      60.652  64.395  51.490  0.00  0.00    +0.000 C 
ATOM     18  O   UNL     1      60.463  65.174  51.300  0.00  0.00    +0.000 OA
ATOM     19  C   UNL     1      60.191  63.775  51.198  0.00  0.00    +0.000 C 
ATOM     20  C   UNL     1      59.541  63.936  50.717  0.00  0.00    +0.000 C 
ATOM     21  O   UNL     1      60.381  62.995  51.389  0.00  0.00    +0.000 OA
ATOM     22  C   UNL     1      61.410  61.275  52.251  0.00  0.00    +0.000 C 
ATOM     23  C   UNL     1      60.760  61.435  51.770  0.00  0.00    +0.000 C 
ATOM     24  C   UNL     1      61.599  60.494  52.442  0.00  0.00    +0.000 C 
ATOM     25  O   UNL     1      61.139  59.875  52.150  0.00  0.00    +0.000 OA
ATOM     26  C   UNL     1      60.489  60.036  51.668  0.00  0.00    +0.000 C 
ATOM     27  O   UNL     1      60.299  60.816  51.478  0.00  0.00    +0.000 OA
ATOM     28  C   UNL     1      59.650  60.976  50.997  0.00  0.00    +0.000 C 
ATOM     29  C   UNL     1      59.460  61.756  50.806  0.00  0.00    +0.000 C 
ATOM     30  C   UNL     1      59.188  60.356  50.705  0.00  0.00    +0.000 C 
ATOM     31  C   UNL     1      59.378  59.577  50.895  0.00  0.00    +0.000 C 
ATOM     32  C   UNL     1      60.027  59.416  51.377  0.00  0.00    +0.000 C 
ATOM     33  O   UNL     1      60.217  58.636  51.567  0.00  0.00    +0.000 OA
ATOM     34  N   UNL     1      58.917  58.958  50.604  0.00  0.00    +0.000 NA
ATOM     35  C   UNL     1      58.267  59.118  50.122  0.00  0.00    +0.000 C 
ATOM     36  C   UNL     1      59.106  58.178  50.794  0.00  0.00    +0.000 C 
ATOM     37  C   UNL     1      62.250  60.334  52.923  0.00  0.00    +0.000 C 
ATOM     38  C   UNL     1      61.651  59.937  52.517  0.00  0.00    +0.000 C 
ATOM     39  O   UNL     1      61.982  59.566  52.782  0.00  0.00    +0.000 OA
ATOM     40  C   UNL     1      62.439  59.553  53.114  0.00  0.00    +0.000 C 
ATOM     41  C   UNL     1      63.089  59.393  53.595  0.00  0.00    +0.000 C 
ATOM     42  C   UNL     1      62.822  58.624  53.454  0.00  0.00    +0.000 C 
ATOM     43  F   UNL     1      63.647  58.965  54.028  0.00  0.00    +0.000 F 
ATOM     44  C   UNL     1      63.549  60.011  53.887  0.00  0.00    +0.000 C 
ATOM     45  O   UNL     1      64.200  59.850  54.369  0.00  0.00    +0.000 OA
ATOM     46  C   UNL     1      63.360  60.791  53.697  0.00  0.00    +0.000 C 
ATOM     47  C   UNL     1      62.710  60.952  53.214  0.00  0.00    +0.000 C 
ATOM     48  C   UNL     1      63.821  61.411  53.988  0.00  0.00    +0.000 C 
ATOM     49  O   UNL     1      64.471  61.250  54.469  0.00  0.00    +0.000 OA
ATOM     50  C   UNL     1      63.631  62.191  53.797  0.00  0.00    +0.000 C 
ATOM     51  C   UNL     1      64.266  62.482  54.237  0.00  0.00    +0.000 C 
ATOM     52  O   UNL     1      63.811  62.993  53.873  0.00  0.00    +0.000 OA
ENDROOT
TORSDOF 0
ENDMDL
MODEL 8
REMARK VINA RESULT:   -14.693      3.693      6.935
REMARK INTER + INTRA:         -14.693
REMARK INTER:                 -14.693
REMARK INTRA:                   0.000
REMARK UNBOUND:                 0.000
ROOT
REMARK  Name = flurithromycin
REMARK                            x       y       z     vdW  Elec       q    Type
REMARK                         _______ _______ _______ _____ _____    ______ ____
ATOM      1  C   UNL     1      64.159  60.932  54.040  0.00  0.00    +0.000 C 
ATOM      2  C   UNL     1      63.989  61.735  53.949  0.00  0.00    +0.000 C 
ATOM      3  C   UNL     1      63.333  61.969  53.506  0.00  0.00    +0.000 C 
ATOM      4  O   UNL     1      63.503  61.167  53.597  0.00  0.00    +0.000 OA
ATOM      5  C   UNL     1      63.019  60.600  53.246  0.00  0.00    +0.000 C 
ATOM      6  O   UNL     1      63.189  59.799  53.337  0.00  0.00    +0.000 OA
ATOM      7  C   UNL     1      62.364  60.835  52.803  0.00  0.00    +0.000 C 
ATOM      8  C   UNL     1      62.251  60.025  52.699  0.00  0.00    +0.000 C 
ATOM      9  C   UNL     1      62.193  61.637  52.711  0.00  0.00    +0.000 C 
ATOM     10  O   UNL     1      61.708  61.070  52.360  0.00  0.00    +0.000 OA
ATOM     11  C   UNL     1      61.878  60.268  52.451  0.00  0.00    +0.000 C 
ATOM     12  C   UNL     1      62.534  60.033  52.894  0.00  0.00    +0.000 C 
ATOM     13  C   UNL     1      62.704  59.231  52.985  0.00  0.00    +0.000 C 
ATOM     14  C   UNL     1      63.323  59.559  53.421  0.00  0.00    +0.000 C 
ATOM     15  O   UNL     1      63.090  58.543  53.227  0.00  0.00    +0.000 OA
ATOM     16  C   UNL     1      63.767  58.593  53.695  0.00  0.00    +0.000 C 
ATOM     17  C   UNL     1      62.220  58.663  52.633  0.00  0.00    +0.000 C 
ATOM     18  O   UNL     1      62.390  57.861  52.724  0.00  0.00    +0.000 OA
ATOM     19  C   UNL     1      61.564  58.898  52.190  0.00  0.00    +0.000 C 
ATOM     20  C   UNL     1      61.079  58.331  51.838  0.00  0.00    +0.000 C 
ATOM     21  O   UNL     1      61.394  59.700  52.099  0.00  0.00    +0.000 OA
ATOM     22  C   UNL     1      61.538  61.871  52.269  0.00  0.00    +0.000 C 
ATOM     23  C   UNL     1      61.053  61.305  51.917  0.00  0.00    +0.000 C 
ATOM     24  C   UNL     1      61.368  62.674  52.178  0.00  0.00    +0.000 C 
ATOM     25  O   UNL     1      60.712  62.909  51.735  0.00  0.00    +0.000 OA
ATOM     26  C   UNL     1      60.228  62.341  51.383  0.00  0.00    +0.000 C 
ATOM     27  O   UNL     1      60.398  61.539  51.474  0.00  0.00    +0.000 OA
ATOM     28  C   UNL     1      59.913  60.972  51.123  0.00  0.00    +0.000 C 
ATOM     29  C   UNL     1      60.083  60.170  51.214  0.00  0.00    +0.000 C 
ATOM     30  C   UNL     1      59.257  61.208  50.680  0.00  0.00    +0.000 C 
ATOM     31  C   UNL     1      59.087  62.009  50.589  0.00  0.00    +0.000 C 
ATOM     32  C   UNL     1      59.572  62.576  50.940  0.00  0.00    +0.000 C 
ATOM     33  O   UNL     1      59.402  63.378  50.849  0.00  0.00    +0.000 OA
ATOM     34  N   UNL     1      58.432  62.244  50.146  0.00  0.00    +0.000 NA
ATOM     35  C   UNL     1      57.947  61.677  49.794  0.00  0.00    +0.000 C 
ATOM     36  C   UNL     1      58.261  63.046  50.054  0.00  0.00    +0.000 C 
ATOM     37  C   UNL     1      61.853  63.241  52.530  0.00  0.00    +0.000 C 
ATOM     38  C   UNL     1      61.174  63.191  52.062  0.00  0.00    +0.000 C 
ATOM     39  O   UNL     1      61.298  63.732  52.165  0.00  0.00    +0.000 OA
ATOM     40  C   UNL     1      61.682  64.043  52.439  0.00  0.00    +0.000 C 
ATOM     41  C   UNL     1      62.167  64.610  52.791  0.00  0.00    +0.000 C 
ATOM     42  C   UNL     1      61.613  65.102  52.426  0.00  0.00    +0.000 C 
ATOM     43  F   UNL     1      62.460  65.348  53.016  0.00  0.00    +0.000 F 
ATOM     44  C   UNL     1      62.822  64.375  53.233  0.00  0.00    +0.000 C 
ATOM     45  O   UNL     1      63.307  64.943  53.585  0.00  0.00    +0.000 OA
ATOM     46  C   UNL     1      62.993  63.574  53.324  0.00  0.00    +0.000 C 
ATOM     47  C   UNL     1      62.507  63.006  52.972  0.00  0.00    +0.000 C 
ATOM     48  C   UNL     1      63.648  63.339  53.767  0.00  0.00    +0.000 C 
ATOM     49  O   UNL     1      64.132  63.906  54.119  0.00  0.00    +0.000 OA
ATOM     50  C   UNL     1      63.818  62.536  53.858  0.00  0.00    +0.000 C 
ATOM     51  C   UNL     1      64.482  62.701  54.320  0.00  0.00    +0.000 C 
ATOM     52  O   UNL     1      64.312  61.958  54.179  0.00  0.00    +0.000 OA
ENDROOT
TORSDOF 0
ENDMDL
MODEL 9
REMARK VINA RESULT:   -14.202      1.692      2.219
REMARK INTER + INTRA:         -14.202
REMARK INTER:                 -14.202
REMARK INTRA:                   0.000
REMARK UNBOUND:                 0.000
ROOT
REMARK  Name = flurithromycin
REMARK                            x       y       z     vdW  Elec       q    Type
REMARK                         _______ _______ _______ _____ _____    ______ ____
ATOM      1  C   UNL     1      60.507  70.762  54.213  0.00  0.00    +0.000 C 
ATOM      2  C   UNL     1      61.018  70.235  54.591  0.00  0.00    +0.000 C 
ATOM      3  C   UNL     1      61.181  69.503  54.247  0.00  0.00    +0.000 C 
ATOM      4  O   UNL     1      60.670  70.030  53.870  0.00  0.00    +0.000 OA
ATOM      5  C   UNL     1      60.323  69.826  53.151  0.00  0.00    +0.000 C 
ATOM      6  O   UNL     1      59.813  70.353  52.775  0.00  0.00    +0.000 OA
ATOM      7  C   UNL     1      60.486  69.093  52.808  0.00  0.00    +0.000 C 
ATOM      8  C   UNL     1      59.977  69.355  52.214  0.00  0.00    +0.000 C 
ATOM      9  C   UNL     1      60.996  68.566  53.184  0.00  0.00    +0.000 C 
ATOM     10  O   UNL     1      60.649  68.361  52.465  0.00  0.00    +0.000 OA
ATOM     11  C   UNL     1      60.139  68.888  52.088  0.00  0.00    +0.000 C 
ATOM     12  C   UNL     1      59.976  69.621  52.432  0.00  0.00    +0.000 C 
ATOM     13  C   UNL     1      59.466  70.149  52.055  0.00  0.00    +0.000 C 
ATOM     14  C   UNL     1      59.659  70.590  52.724  0.00  0.00    +0.000 C 
ATOM     15  O   UNL     1      59.023  70.829  51.911  0.00  0.00    +0.000 OA
ATOM     16  C   UNL     1      59.039  71.453  52.450  0.00  0.00    +0.000 C 
ATOM     17  C   UNL     1      59.118  69.944  51.335  0.00  0.00    +0.000 C 
ATOM     18  O   UNL     1      58.608  70.471  50.958  0.00  0.00    +0.000 OA
ATOM     19  C   UNL     1      59.281  69.211  50.991  0.00  0.00    +0.000 C 
ATOM     20  C   UNL     1      58.934  69.007  50.272  0.00  0.00    +0.000 C 
ATOM     21  O   UNL     1      59.792  68.684  51.368  0.00  0.00    +0.000 OA
ATOM     22  C   UNL     1      61.159  67.834  52.841  0.00  0.00    +0.000 C 
ATOM     23  C   UNL     1      60.812  67.629  52.121  0.00  0.00    +0.000 C 
ATOM     24  C   UNL     1      61.670  67.306  53.218  0.00  0.00    +0.000 C 
ATOM     25  O   UNL     1      61.833  66.574  52.875  0.00  0.00    +0.000 OA
ATOM     26  C   UNL     1      61.486  66.370  52.155  0.00  0.00    +0.000 C 
ATOM     27  O   UNL     1      60.976  66.897  51.778  0.00  0.00    +0.000 OA
ATOM     28  C   UNL     1      60.628  66.692  51.059  0.00  0.00    +0.000 C 
ATOM     29  C   UNL     1      60.118  67.219  50.682  0.00  0.00    +0.000 C 
ATOM     30  C   UNL     1      60.792  65.959  50.715  0.00  0.00    +0.000 C 
ATOM     31  C   UNL     1      61.302  65.432  51.092  0.00  0.00    +0.000 C 
ATOM     32  C   UNL     1      61.649  65.636  51.811  0.00  0.00    +0.000 C 
ATOM     33  O   UNL     1      62.159  65.109  52.188  0.00  0.00    +0.000 OA
ATOM     34  N   UNL     1      61.465  64.700  50.749  0.00  0.00    +0.000 NA
ATOM     35  C   UNL     1      61.118  64.494  50.029  0.00  0.00    +0.000 C 
ATOM     36  C   UNL     1      61.975  64.172  51.125  0.00  0.00    +0.000 C 
ATOM     37  C   UNL     1      62.017  67.511  53.938  0.00  0.00    +0.000 C 
ATOM     38  C   UNL     1      62.001  66.886  53.398  0.00  0.00    +0.000 C 
ATOM     39  O   UNL     1      62.340  66.759  53.831  0.00  0.00    +0.000 OA
ATOM     40  C   UNL     1      62.528  66.983  54.314  0.00  0.00    +0.000 C 
ATOM     41  C   UNL     1      62.875  67.188  55.034  0.00  0.00    +0.000 C 
ATOM     42  C   UNL     1      63.198  66.436  54.928  0.00  0.00    +0.000 C 
ATOM     43  F   UNL     1      63.334  67.132  55.717  0.00  0.00    +0.000 F 
ATOM     44  C   UNL     1      62.712  67.920  55.377  0.00  0.00    +0.000 C 
ATOM     45  O   UNL     1      63.059  68.125  56.097  0.00  0.00    +0.000 OA
ATOM     46  C   UNL     1      62.202  68.448  55.001  0.00  0.00    +0.000 C 
ATOM     47  C   UNL     1      61.854  68.243  54.280  0.00  0.00    +0.000 C 
ATOM     48  C   UNL     1      62.039  69.180  55.344  0.00  0.00    +0.000 C 
ATOM     49  O   UNL     1      62.386  69.384  56.063  0.00  0.00    +0.000 OA
ATOM     50  C   UNL     1      61.528  69.707  54.967  0.00  0.00    +0.000 C 
ATOM     51  C   UNL     1      61.617  70.267  55.568  0.00  0.00    +0.000 C 
ATOM     52  O   UNL     1      61.152  70.442  54.973  0.00  0.00    +0.000 OA
ENDROOT
TORSDOF 0
ENDMDL
