MODEL 1
REMARK VINA RESULT:    -6.593      0.000      0.000
REMARK INTER + INTRA:          -6.593
REMARK INTER:                  -6.593
REMARK INTRA:                   0.000
REMARK UNBOUND:                 0.000
ROOT
REMARK  Name = flurotyl
REMARK                            x       y       z     vdW  Elec       q    Type
REMARK                         _______ _______ _______ _____ _____    ______ ____
ATOM      1  F   UNL     1      58.951  61.988  66.216  0.00  0.00    +0.000 F 
ATOM      2  C   UNL     1      59.754  61.980  66.031  0.00  0.00    +0.000 C 
ATOM      3  F   UNL     1      59.935  62.198  66.806  0.00  0.00    +0.000 F 
ATOM      4  F   UNL     1      59.575  61.762  65.256  0.00  0.00    +0.000 F 
ATOM      5  C   UNL     1      60.559  61.972  65.846  0.00  0.00    +0.000 C 
ATOM      6  O   UNL     1      60.805  61.779  65.084  0.00  0.00    +0.000 OA
ATOM      7  C   UNL     1      61.609  61.771  64.899  0.00  0.00    +0.000 C 
ATOM      8  C   UNL     1      61.855  61.578  64.135  0.00  0.00    +0.000 C 
ATOM      9  F   UNL     1      62.101  61.386  63.372  0.00  0.00    +0.000 F 
ATOM     10  F   UNL     1      62.641  61.681  64.363  0.00  0.00    +0.000 F 
ATOM     11  F   UNL     1      61.069  61.476  63.908  0.00  0.00    +0.000 F 
ENDROOT
TORSDOF 0
ENDMDL
MODEL 2
REMARK VINA RESULT:    -6.588      0.105      2.900
REMARK INTER + INTRA:          -6.588
REMARK INTER:                  -6.588
REMARK INTRA:                   0.000
REMARK UNBOUND:                 0.000
ROOT
REMARK  Name = flurotyl
REMARK                            x       y       z     vdW  Elec       q    Type
REMARK                         _______ _______ _______ _____ _____    ______ ____
ATOM      1  F   UNL     1      62.194  61.445  63.496  0.00  0.00    +0.000 F 
ATOM      2  C   UNL     1      61.905  61.631  64.246  0.00  0.00    +0.000 C 
ATOM      3  F   UNL     1      62.675  61.760  64.510  0.00  0.00    +0.000 F 
ATOM      4  F   UNL     1      61.134  61.501  63.982  0.00  0.00    +0.000 F 
ATOM      5  C   UNL     1      61.616  61.817  64.996  0.00  0.00    +0.000 C 
ATOM      6  O   UNL     1      60.806  61.798  65.143  0.00  0.00    +0.000 OA
ATOM      7  C   UNL     1      60.517  61.984  65.893  0.00  0.00    +0.000 C 
ATOM      8  C   UNL     1      59.705  61.965  66.039  0.00  0.00    +0.000 C 
ATOM      9  F   UNL     1      58.894  61.946  66.186  0.00  0.00    +0.000 F 
ATOM     10  F   UNL     1      59.841  62.192  66.821  0.00  0.00    +0.000 F 
ATOM     11  F   UNL     1      59.569  61.739  65.257  0.00  0.00    +0.000 F 
ENDROOT
TORSDOF 0
ENDMDL
MODEL 3
REMARK VINA RESULT:    -6.453     17.129     17.631
REMARK INTER + INTRA:          -6.453
REMARK INTER:                  -6.453
REMARK INTRA:                   0.000
REMARK UNBOUND:                 0.000
ROOT
REMARK  Name = flurotyl
REMARK                            x       y       z     vdW  Elec       q    Type
REMARK                         _______ _______ _______ _____ _____    ______ ____
ATOM      1  F   UNL     1      66.321  75.920  60.978  0.00  0.00    +0.000 F 
ATOM      2  C   UNL     1      66.005  76.406  60.392  0.00  0.00    +0.000 C 
ATOM      3  F   UNL     1      65.740  75.741  59.983  0.00  0.00    +0.000 F 
ATOM      4  F   UNL     1      66.270  77.073  60.801  0.00  0.00    +0.000 F 
ATOM      5  C   UNL     1      65.689  76.893  59.805  0.00  0.00    +0.000 C 
ATOM      6  O   UNL     1      65.760  77.712  59.866  0.00  0.00    +0.000 OA
ATOM      7  C   UNL     1      65.443  78.198  59.280  0.00  0.00    +0.000 C 
ATOM      8  C   UNL     1      65.514  79.018  59.341  0.00  0.00    +0.000 C 
ATOM      9  F   UNL     1      65.585  79.838  59.402  0.00  0.00    +0.000 F 
ATOM     10  F   UNL     1      65.108  79.106  58.628  0.00  0.00    +0.000 F 
ATOM     11  F   UNL     1      65.921  78.930  60.053  0.00  0.00    +0.000 F 
ENDROOT
TORSDOF 0
ENDMDL
MODEL 4
REMARK VINA RESULT:    -6.262      9.711     10.265
REMARK INTER + INTRA:          -6.262
REMARK INTER:                  -6.262
REMARK INTRA:                   0.000
REMARK UNBOUND:                 0.000
ROOT
REMARK  Name = flurotyl
REMARK                            x       y       z     vdW  Elec       q    Type
REMARK                         _______ _______ _______ _____ _____    ______ ____
ATOM      1  F   UNL     1      67.820  66.700  73.067  0.00  0.00    +0.000 F 
ATOM      2  C   UNL     1      67.207  66.701  72.515  0.00  0.00    +0.000 C 
ATOM      3  F   UNL     1      66.775  66.185  72.992  0.00  0.00    +0.000 F 
ATOM      4  F   UNL     1      67.638  67.218  72.036  0.00  0.00    +0.000 F 
ATOM      5  C   UNL     1      66.594  66.703  71.962  0.00  0.00    +0.000 C 
ATOM      6  O   UNL     1      66.660  67.150  71.273  0.00  0.00    +0.000 OA
ATOM      7  C   UNL     1      66.048  67.151  70.720  0.00  0.00    +0.000 C 
ATOM      8  C   UNL     1      66.115  67.599  70.031  0.00  0.00    +0.000 C 
ATOM      9  F   UNL     1      66.182  68.046  69.341  0.00  0.00    +0.000 F 
ATOM     10  F   UNL     1      65.368  67.341  69.791  0.00  0.00    +0.000 F 
ATOM     11  F   UNL     1      66.861  67.856  70.270  0.00  0.00    +0.000 F 
ENDROOT
TORSDOF 0
ENDMDL
MODEL 5
REMARK VINA RESULT:    -5.969      1.756      1.928
REMARK INTER + INTRA:          -5.969
REMARK INTER:                  -5.969
REMARK INTRA:                   0.000
REMARK UNBOUND:                 0.000
ROOT
REMARK  Name = flurotyl
REMARK                            x       y       z     vdW  Elec       q    Type
REMARK                         _______ _______ _______ _____ _____    ______ ____
ATOM      1  F   UNL     1      60.817  62.611  68.384  0.00  0.00    +0.000 F 
ATOM      2  C   UNL     1      61.029  62.782  67.605  0.00  0.00    +0.000 C 
ATOM      3  F   UNL     1      60.667  63.520  67.669  0.00  0.00    +0.000 F 
ATOM      4  F   UNL     1      61.392  62.043  67.540  0.00  0.00    +0.000 F 
ATOM      5  C   UNL     1      61.241  62.953  66.826  0.00  0.00    +0.000 C 
ATOM      6  O   UNL     1      61.660  62.400  66.381  0.00  0.00    +0.000 OA
ATOM      7  C   UNL     1      61.872  62.571  65.603  0.00  0.00    +0.000 C 
ATOM      8  C   UNL     1      62.291  62.018  65.158  0.00  0.00    +0.000 C 
ATOM      9  F   UNL     1      62.711  61.464  64.713  0.00  0.00    +0.000 F 
ATOM     10  F   UNL     1      62.293  62.536  64.515  0.00  0.00    +0.000 F 
ATOM     11  F   UNL     1      62.289  61.500  65.800  0.00  0.00    +0.000 F 
ENDROOT
TORSDOF 0
ENDMDL
MODEL 6
REMARK VINA RESULT:    -5.783      4.973      6.140
REMARK INTER + INTRA:          -5.783
REMARK INTER:                  -5.783
REMARK INTRA:                   0.000
REMARK UNBOUND:                 0.000
ROOT
REMARK  Name = flurotyl
REMARK                            x       y       z     vdW  Elec       q    Type
REMARK                         _______ _______ _______ _____ _____    ______ ____
ATOM      1  F   UNL     1      61.375  62.735  73.050  0.00  0.00    +0.000 F 
ATOM      2  C   UNL     1      61.333  62.831  72.232  0.00  0.00    +0.000 C 
ATOM      3  F   UNL     1      61.772  63.526  72.290  0.00  0.00    +0.000 F 
ATOM      4  F   UNL     1      60.893  62.135  72.172  0.00  0.00    +0.000 F 
ATOM      5  C   UNL     1      61.290  62.927  71.413  0.00  0.00    +0.000 C 
ATOM      6  O   UNL     1      60.889  62.373  70.953  0.00  0.00    +0.000 OA
ATOM      7  C   UNL     1      60.846  62.468  70.135  0.00  0.00    +0.000 C 
ATOM      8  C   UNL     1      60.445  61.914  69.675  0.00  0.00    +0.000 C 
ATOM      9  F   UNL     1      60.043  61.360  69.215  0.00  0.00    +0.000 F 
ATOM     10  F   UNL     1      60.628  62.345  68.996  0.00  0.00    +0.000 F 
ATOM     11  F   UNL     1      60.261  61.483  70.354  0.00  0.00    +0.000 F 
ENDROOT
TORSDOF 0
ENDMDL
MODEL 7
REMARK VINA RESULT:    -5.770     16.048     17.009
REMARK INTER + INTRA:          -5.770
REMARK INTER:                  -5.770
REMARK INTRA:                   0.000
REMARK UNBOUND:                 0.000
ROOT
REMARK  Name = flurotyl
REMARK                            x       y       z     vdW  Elec       q    Type
REMARK                         _______ _______ _______ _____ _____    ______ ____
ATOM      1  F   UNL     1      60.301  78.432  73.222  0.00  0.00    +0.000 F 
ATOM      2  C   UNL     1      59.649  77.950  73.070  0.00  0.00    +0.000 C 
ATOM      3  F   UNL     1      59.156  78.611  73.089  0.00  0.00    +0.000 F 
ATOM      4  F   UNL     1      60.141  77.288  73.051  0.00  0.00    +0.000 F 
ATOM      5  C   UNL     1      58.996  77.468  72.917  0.00  0.00    +0.000 C 
ATOM      6  O   UNL     1      59.096  76.655  72.825  0.00  0.00    +0.000 OA
ATOM      7  C   UNL     1      58.445  76.173  72.673  0.00  0.00    +0.000 C 
ATOM      8  C   UNL     1      58.545  75.359  72.580  0.00  0.00    +0.000 C 
ATOM      9  F   UNL     1      58.646  74.546  72.488  0.00  0.00    +0.000 F 
ATOM     10  F   UNL     1      57.734  75.273  72.457  0.00  0.00    +0.000 F 
ATOM     11  F   UNL     1      59.357  75.446  72.703  0.00  0.00    +0.000 F 
ENDROOT
TORSDOF 0
ENDMDL
MODEL 8
REMARK VINA RESULT:    -5.544      3.564      5.212
REMARK INTER + INTRA:          -5.544
REMARK INTER:                  -5.544
REMARK INTRA:                   0.000
REMARK UNBOUND:                 0.000
ROOT
REMARK  Name = flurotyl
REMARK                            x       y       z     vdW  Elec       q    Type
REMARK                         _______ _______ _______ _____ _____    ______ ____
ATOM      1  F   UNL     1      59.952  62.858  67.439  0.00  0.00    +0.000 F 
ATOM      2  C   UNL     1      60.195  62.413  68.089  0.00  0.00    +0.000 C 
ATOM      3  F   UNL     1      60.491  61.834  67.582  0.00  0.00    +0.000 F 
ATOM      4  F   UNL     1      59.899  62.992  68.598  0.00  0.00    +0.000 F 
ATOM      5  C   UNL     1      60.439  61.967  68.740  0.00  0.00    +0.000 C 
ATOM      6  O   UNL     1      60.305  62.245  69.504  0.00  0.00    +0.000 OA
ATOM      7  C   UNL     1      60.548  61.800  70.154  0.00  0.00    +0.000 C 
ATOM      8  C   UNL     1      60.414  62.079  70.919  0.00  0.00    +0.000 C 
ATOM      9  F   UNL     1      60.280  62.357  71.684  0.00  0.00    +0.000 F 
ATOM     10  F   UNL     1      60.773  61.403  71.228  0.00  0.00    +0.000 F 
ATOM     11  F   UNL     1      60.055  62.754  70.610  0.00  0.00    +0.000 F 
ENDROOT
TORSDOF 0
ENDMDL
MODEL 9
REMARK VINA RESULT:    -5.510      7.961      8.735
REMARK INTER + INTRA:          -5.510
REMARK INTER:                  -5.510
REMARK INTRA:                   0.000
REMARK UNBOUND:                 0.000
ROOT
REMARK  Name = flurotyl
REMARK                            x       y       z     vdW  Elec       q    Type
REMARK                         _______ _______ _______ _____ _____    ______ ____
ATOM      1  F   UNL     1      66.409  68.176  69.436  0.00  0.00    +0.000 F 
ATOM      2  C   UNL     1      66.120  67.602  69.953  0.00  0.00    +0.000 C 
ATOM      3  F   UNL     1      66.775  67.711  70.441  0.00  0.00    +0.000 F 
ATOM      4  F   UNL     1      65.463  67.492  69.465  0.00  0.00    +0.000 F 
ATOM      5  C   UNL     1      65.830  67.027  70.470  0.00  0.00    +0.000 C 
ATOM      6  O   UNL     1      65.118  66.646  70.307  0.00  0.00    +0.000 OA
ATOM      7  C   UNL     1      64.829  66.072  70.823  0.00  0.00    +0.000 C 
ATOM      8  C   UNL     1      64.116  65.690  70.659  0.00  0.00    +0.000 C 
ATOM      9  F   UNL     1      63.403  65.308  70.495  0.00  0.00    +0.000 F 
ATOM     10  F   UNL     1      64.194  65.247  71.351  0.00  0.00    +0.000 F 
ATOM     11  F   UNL     1      64.038  66.133  69.967  0.00  0.00    +0.000 F 
ENDROOT
TORSDOF 0
ENDMDL
