MODEL 1
REMARK VINA RESULT:   -10.942      0.000      0.000
REMARK INTER + INTRA:         -10.942
REMARK INTER:                 -10.942
REMARK INTRA:                   0.000
REMARK UNBOUND:                 0.000
ROOT
REMARK  Name = flutamide
REMARK                            x       y       z     vdW  Elec       q    Type
REMARK                         _______ _______ _______ _____ _____    ______ ____
ATOM      1  C   UNL     1      61.265  63.149  68.540  0.00  0.00    +0.000 C 
ATOM      2  C   UNL     1      60.918  62.654  67.978  0.00  0.00    +0.000 C 
ATOM      3  C   UNL     1      60.232  62.234  68.163  0.00  0.00    +0.000 C 
ATOM      4  C   UNL     1      61.258  62.580  67.230  0.00  0.00    +0.000 C 
ATOM      5  O   UNL     1      61.944  63.000  67.044  0.00  0.00    +0.000 OA
ATOM      6  N   UNL     1      60.911  62.085  66.667  0.00  0.00    +0.000 NA
ATOM      7  C   UNL     1      61.250  62.010  65.920  0.00  0.00    +0.000 A 
ATOM      8  C   UNL     1      60.905  61.516  65.357  0.00  0.00    +0.000 A 
ATOM      9  C   UNL     1      61.244  61.441  64.609  0.00  0.00    +0.000 A 
ATOM     10  C   UNL     1      61.929  61.860  64.423  0.00  0.00    +0.000 A 
ATOM     11  C   UNL     1      62.276  62.355  64.985  0.00  0.00    +0.000 A 
ATOM     12  C   UNL     1      61.937  62.430  65.734  0.00  0.00    +0.000 A 
ATOM     13  N   UNL     1      62.269  61.785  63.674  0.00  0.00    +0.000 N 
ATOM     14  O   UNL     1      61.923  61.291  63.112  0.00  0.00    +0.000 OA
ATOM     15  O   UNL     1      62.955  62.205  63.489  0.00  0.00    +0.000 OA
ATOM     16  C   UNL     1      60.898  60.947  64.047  0.00  0.00    +0.000 C 
ATOM     17  F   UNL     1      60.552  60.452  63.484  0.00  0.00    +0.000 F 
ATOM     18  F   UNL     1      61.490  61.145  63.507  0.00  0.00    +0.000 F 
ATOM     19  F   UNL     1      60.306  60.747  64.586  0.00  0.00    +0.000 F 
ENDROOT
TORSDOF 0
ENDMDL
MODEL 2
REMARK VINA RESULT:   -10.129      2.452      4.436
REMARK INTER + INTRA:         -10.129
REMARK INTER:                 -10.129
REMARK INTRA:                   0.000
REMARK UNBOUND:                 0.000
ROOT
REMARK  Name = flutamide
REMARK                            x       y       z     vdW  Elec       q    Type
REMARK                         _______ _______ _______ _____ _____    ______ ____
ATOM      1  C   UNL     1      62.024  62.337  64.593  0.00  0.00    +0.000 C 
ATOM      2  C   UNL     1      61.630  61.975  65.221  0.00  0.00    +0.000 C 
ATOM      3  C   UNL     1      61.261  61.244  65.112  0.00  0.00    +0.000 C 
ATOM      4  C   UNL     1      61.603  62.344  65.958  0.00  0.00    +0.000 C 
ATOM      5  O   UNL     1      61.971  63.075  66.067  0.00  0.00    +0.000 OA
ATOM      6  N   UNL     1      61.209  61.983  66.587  0.00  0.00    +0.000 NA
ATOM      7  C   UNL     1      61.182  62.351  67.323  0.00  0.00    +0.000 A 
ATOM      8  C   UNL     1      60.788  61.991  67.952  0.00  0.00    +0.000 A 
ATOM      9  C   UNL     1      60.762  62.360  68.689  0.00  0.00    +0.000 A 
ATOM     10  C   UNL     1      61.130  63.090  68.798  0.00  0.00    +0.000 A 
ATOM     11  C   UNL     1      61.524  63.451  68.170  0.00  0.00    +0.000 A 
ATOM     12  C   UNL     1      61.551  63.082  67.433  0.00  0.00    +0.000 A 
ATOM     13  N   UNL     1      61.104  63.459  69.536  0.00  0.00    +0.000 N 
ATOM     14  O   UNL     1      60.710  63.098  70.164  0.00  0.00    +0.000 OA
ATOM     15  O   UNL     1      61.472  64.190  69.645  0.00  0.00    +0.000 OA
ATOM     16  C   UNL     1      60.368  61.999  69.317  0.00  0.00    +0.000 C 
ATOM     17  F   UNL     1      59.974  61.638  69.946  0.00  0.00    +0.000 F 
ATOM     18  F   UNL     1      60.565  62.634  69.806  0.00  0.00    +0.000 F 
ATOM     19  F   UNL     1      60.171  61.364  68.829  0.00  0.00    +0.000 F 
ENDROOT
TORSDOF 0
ENDMDL
MODEL 3
REMARK VINA RESULT:    -9.651      1.710      3.687
REMARK INTER + INTRA:          -9.651
REMARK INTER:                  -9.651
REMARK INTRA:                   0.000
REMARK UNBOUND:                 0.000
ROOT
REMARK  Name = flutamide
REMARK                            x       y       z     vdW  Elec       q    Type
REMARK                         _______ _______ _______ _____ _____    ______ ____
ATOM      1  C   UNL     1      62.622  61.298  63.187  0.00  0.00    +0.000 C 
ATOM      2  C   UNL     1      61.871  61.265  63.527  0.00  0.00    +0.000 C 
ATOM      3  C   UNL     1      61.259  60.867  63.143  0.00  0.00    +0.000 C 
ATOM      4  C   UNL     1      61.731  61.632  64.253  0.00  0.00    +0.000 C 
ATOM      5  O   UNL     1      62.343  62.030  64.639  0.00  0.00    +0.000 OA
ATOM      6  N   UNL     1      60.980  61.599  64.595  0.00  0.00    +0.000 NA
ATOM      7  C   UNL     1      60.841  61.965  65.320  0.00  0.00    +0.000 A 
ATOM      8  C   UNL     1      60.091  61.933  65.661  0.00  0.00    +0.000 A 
ATOM      9  C   UNL     1      59.951  62.300  66.387  0.00  0.00    +0.000 A 
ATOM     10  C   UNL     1      60.562  62.698  66.771  0.00  0.00    +0.000 A 
ATOM     11  C   UNL     1      61.313  62.731  66.431  0.00  0.00    +0.000 A 
ATOM     12  C   UNL     1      61.452  62.364  65.705  0.00  0.00    +0.000 A 
ATOM     13  N   UNL     1      60.422  63.065  67.498  0.00  0.00    +0.000 N 
ATOM     14  O   UNL     1      59.672  63.032  67.839  0.00  0.00    +0.000 OA
ATOM     15  O   UNL     1      61.034  63.463  67.883  0.00  0.00    +0.000 OA
ATOM     16  C   UNL     1      59.201  62.267  66.727  0.00  0.00    +0.000 C 
ATOM     17  F   UNL     1      58.450  62.235  67.068  0.00  0.00    +0.000 F 
ATOM     18  F   UNL     1      59.473  62.709  67.369  0.00  0.00    +0.000 F 
ATOM     19  F   UNL     1      58.928  61.826  66.086  0.00  0.00    +0.000 F 
ENDROOT
TORSDOF 0
ENDMDL
MODEL 4
REMARK VINA RESULT:    -9.573      4.605      6.571
REMARK INTER + INTRA:          -9.573
REMARK INTER:                  -9.573
REMARK INTRA:                   0.000
REMARK UNBOUND:                 0.000
ROOT
REMARK  Name = flutamide
REMARK                            x       y       z     vdW  Elec       q    Type
REMARK                         _______ _______ _______ _____ _____    ______ ____
ATOM      1  C   UNL     1      59.962  62.898  67.708  0.00  0.00    +0.000 C 
ATOM      2  C   UNL     1      60.301  62.365  68.239  0.00  0.00    +0.000 C 
ATOM      3  C   UNL     1      60.490  61.600  67.993  0.00  0.00    +0.000 C 
ATOM      4  C   UNL     1      60.452  62.597  69.016  0.00  0.00    +0.000 C 
ATOM      5  O   UNL     1      60.262  63.362  69.262  0.00  0.00    +0.000 OA
ATOM      6  N   UNL     1      60.791  62.065  69.548  0.00  0.00    +0.000 NA
ATOM      7  C   UNL     1      60.941  62.297  70.324  0.00  0.00    +0.000 A 
ATOM      8  C   UNL     1      61.281  61.765  70.856  0.00  0.00    +0.000 A 
ATOM      9  C   UNL     1      61.431  61.997  71.633  0.00  0.00    +0.000 A 
ATOM     10  C   UNL     1      61.242  62.761  71.879  0.00  0.00    +0.000 A 
ATOM     11  C   UNL     1      60.903  63.294  71.348  0.00  0.00    +0.000 A 
ATOM     12  C   UNL     1      60.752  63.062  70.570  0.00  0.00    +0.000 A 
ATOM     13  N   UNL     1      61.393  62.994  72.657  0.00  0.00    +0.000 N 
ATOM     14  O   UNL     1      61.732  62.462  73.187  0.00  0.00    +0.000 OA
ATOM     15  O   UNL     1      61.204  63.758  72.902  0.00  0.00    +0.000 OA
ATOM     16  C   UNL     1      61.770  61.465  72.163  0.00  0.00    +0.000 C 
ATOM     17  F   UNL     1      62.110  60.933  72.695  0.00  0.00    +0.000 F 
ATOM     18  F   UNL     1      61.748  62.040  72.755  0.00  0.00    +0.000 F 
ATOM     19  F   UNL     1      61.793  60.890  71.573  0.00  0.00    +0.000 F 
ENDROOT
TORSDOF 0
ENDMDL
MODEL 5
REMARK VINA RESULT:    -9.429      1.776      2.351
REMARK INTER + INTRA:          -9.429
REMARK INTER:                  -9.429
REMARK INTRA:                   0.000
REMARK UNBOUND:                 0.000
ROOT
REMARK  Name = flutamide
REMARK                            x       y       z     vdW  Elec       q    Type
REMARK                         _______ _______ _______ _____ _____    ______ ____
ATOM      1  C   UNL     1      61.287  64.887  69.795  0.00  0.00    +0.000 C 
ATOM      2  C   UNL     1      60.705  64.528  69.333  0.00  0.00    +0.000 C 
ATOM      3  C   UNL     1      59.907  64.652  69.502  0.00  0.00    +0.000 C 
ATOM      4  C   UNL     1      60.922  64.044  68.701  0.00  0.00    +0.000 C 
ATOM      5  O   UNL     1      61.720  63.919  68.530  0.00  0.00    +0.000 OA
ATOM      6  N   UNL     1      60.340  63.684  68.238  0.00  0.00    +0.000 NA
ATOM      7  C   UNL     1      60.556  63.200  67.607  0.00  0.00    +0.000 A 
ATOM      8  C   UNL     1      59.975  62.841  67.144  0.00  0.00    +0.000 A 
ATOM      9  C   UNL     1      60.192  62.357  66.512  0.00  0.00    +0.000 A 
ATOM     10  C   UNL     1      60.989  62.232  66.343  0.00  0.00    +0.000 A 
ATOM     11  C   UNL     1      61.571  62.591  66.804  0.00  0.00    +0.000 A 
ATOM     12  C   UNL     1      61.354  63.075  67.437  0.00  0.00    +0.000 A 
ATOM     13  N   UNL     1      61.205  61.747  65.710  0.00  0.00    +0.000 N 
ATOM     14  O   UNL     1      60.624  61.388  65.248  0.00  0.00    +0.000 OA
ATOM     15  O   UNL     1      62.003  61.623  65.540  0.00  0.00    +0.000 OA
ATOM     16  C   UNL     1      59.611  61.998  66.051  0.00  0.00    +0.000 C 
ATOM     17  F   UNL     1      59.029  61.638  65.588  0.00  0.00    +0.000 F 
ATOM     18  F   UNL     1      60.196  61.646  65.587  0.00  0.00    +0.000 F 
ATOM     19  F   UNL     1      59.025  62.349  66.513  0.00  0.00    +0.000 F 
ENDROOT
TORSDOF 0
ENDMDL
MODEL 6
REMARK VINA RESULT:    -9.322      6.817      8.414
REMARK INTER + INTRA:          -9.322
REMARK INTER:                  -9.322
REMARK INTRA:                   0.000
REMARK UNBOUND:                 0.000
ROOT
REMARK  Name = flutamide
REMARK                            x       y       z     vdW  Elec       q    Type
REMARK                         _______ _______ _______ _____ _____    ______ ____
ATOM      1  C   UNL     1      61.859  65.122  70.196  0.00  0.00    +0.000 C 
ATOM      2  C   UNL     1      62.439  65.609  69.869  0.00  0.00    +0.000 C 
ATOM      3  C   UNL     1      62.328  65.938  69.120  0.00  0.00    +0.000 C 
ATOM      4  C   UNL     1      63.130  65.767  70.290  0.00  0.00    +0.000 C 
ATOM      5  O   UNL     1      63.241  65.438  71.039  0.00  0.00    +0.000 OA
ATOM      6  N   UNL     1      63.711  66.254  69.963  0.00  0.00    +0.000 NA
ATOM      7  C   UNL     1      64.401  66.412  70.384  0.00  0.00    +0.000 A 
ATOM      8  C   UNL     1      64.982  66.899  70.058  0.00  0.00    +0.000 A 
ATOM      9  C   UNL     1      65.673  67.057  70.480  0.00  0.00    +0.000 A 
ATOM     10  C   UNL     1      65.784  66.728  71.227  0.00  0.00    +0.000 A 
ATOM     11  C   UNL     1      65.204  66.241  71.555  0.00  0.00    +0.000 A 
ATOM     12  C   UNL     1      64.513  66.083  71.133  0.00  0.00    +0.000 A 
ATOM     13  N   UNL     1      66.476  66.887  71.650  0.00  0.00    +0.000 N 
ATOM     14  O   UNL     1      67.056  67.373  71.323  0.00  0.00    +0.000 OA
ATOM     15  O   UNL     1      66.587  66.558  72.398  0.00  0.00    +0.000 OA
ATOM     16  C   UNL     1      66.253  67.543  70.153  0.00  0.00    +0.000 C 
ATOM     17  F   UNL     1      66.834  68.031  69.826  0.00  0.00    +0.000 F 
ATOM     18  F   UNL     1      66.717  67.445  70.828  0.00  0.00    +0.000 F 
ATOM     19  F   UNL     1      65.791  67.642  69.477  0.00  0.00    +0.000 F 
ENDROOT
TORSDOF 0
ENDMDL
MODEL 7
REMARK VINA RESULT:    -9.162      5.627      7.038
REMARK INTER + INTRA:          -9.162
REMARK INTER:                  -9.162
REMARK INTRA:                   0.000
REMARK UNBOUND:                 0.000
ROOT
REMARK  Name = flutamide
REMARK                            x       y       z     vdW  Elec       q    Type
REMARK                         _______ _______ _______ _____ _____    ______ ____
ATOM      1  C   UNL     1      66.164  67.614  69.980  0.00  0.00    +0.000 C 
ATOM      2  C   UNL     1      65.698  67.195  70.517  0.00  0.00    +0.000 C 
ATOM      3  C   UNL     1      65.774  67.333  71.327  0.00  0.00    +0.000 C 
ATOM      4  C   UNL     1      65.156  66.637  70.243  0.00  0.00    +0.000 C 
ATOM      5  O   UNL     1      65.079  66.498  69.433  0.00  0.00    +0.000 OA
ATOM      6  N   UNL     1      64.689  66.217  70.780  0.00  0.00    +0.000 NA
ATOM      7  C   UNL     1      64.147  65.660  70.507  0.00  0.00    +0.000 A 
ATOM      8  C   UNL     1      63.680  65.241  71.042  0.00  0.00    +0.000 A 
ATOM      9  C   UNL     1      63.138  64.682  70.769  0.00  0.00    +0.000 A 
ATOM     10  C   UNL     1      63.062  64.544  69.960  0.00  0.00    +0.000 A 
ATOM     11  C   UNL     1      63.528  64.963  69.423  0.00  0.00    +0.000 A 
ATOM     12  C   UNL     1      64.071  65.521  69.697  0.00  0.00    +0.000 A 
ATOM     13  N   UNL     1      62.519  63.985  69.686  0.00  0.00    +0.000 N 
ATOM     14  O   UNL     1      62.053  63.566  70.222  0.00  0.00    +0.000 OA
ATOM     15  O   UNL     1      62.443  63.846  68.876  0.00  0.00    +0.000 OA
ATOM     16  C   UNL     1      62.672  64.264  71.305  0.00  0.00    +0.000 C 
ATOM     17  F   UNL     1      62.205  63.844  71.841  0.00  0.00    +0.000 F 
ATOM     18  F   UNL     1      62.314  63.861  70.680  0.00  0.00    +0.000 F 
ATOM     19  F   UNL     1      63.029  64.666  71.930  0.00  0.00    +0.000 F 
ENDROOT
TORSDOF 0
ENDMDL
MODEL 8
REMARK VINA RESULT:    -9.024      4.078      5.180
REMARK INTER + INTRA:          -9.024
REMARK INTER:                  -9.024
REMARK INTRA:                   0.000
REMARK UNBOUND:                 0.000
ROOT
REMARK  Name = flutamide
REMARK                            x       y       z     vdW  Elec       q    Type
REMARK                         _______ _______ _______ _____ _____    ______ ____
ATOM      1  C   UNL     1      63.371  66.051  70.289  0.00  0.00    +0.000 C 
ATOM      2  C   UNL     1      62.967  65.426  70.645  0.00  0.00    +0.000 C 
ATOM      3  C   UNL     1      62.975  65.342  71.466  0.00  0.00    +0.000 C 
ATOM      4  C   UNL     1      62.554  64.884  70.179  0.00  0.00    +0.000 C 
ATOM      5  O   UNL     1      62.546  64.967  69.358  0.00  0.00    +0.000 OA
ATOM      6  N   UNL     1      62.149  64.258  70.535  0.00  0.00    +0.000 NA
ATOM      7  C   UNL     1      61.737  63.717  70.070  0.00  0.00    +0.000 A 
ATOM      8  C   UNL     1      61.332  63.092  70.424  0.00  0.00    +0.000 A 
ATOM      9  C   UNL     1      60.919  62.550  69.959  0.00  0.00    +0.000 A 
ATOM     10  C   UNL     1      60.911  62.633  69.139  0.00  0.00    +0.000 A 
ATOM     11  C   UNL     1      61.316  63.258  68.783  0.00  0.00    +0.000 A 
ATOM     12  C   UNL     1      61.729  63.800  69.248  0.00  0.00    +0.000 A 
ATOM     13  N   UNL     1      60.498  62.091  68.673  0.00  0.00    +0.000 N 
ATOM     14  O   UNL     1      60.094  61.466  69.028  0.00  0.00    +0.000 OA
ATOM     15  O   UNL     1      60.490  62.175  67.852  0.00  0.00    +0.000 OA
ATOM     16  C   UNL     1      60.515  61.926  70.314  0.00  0.00    +0.000 C 
ATOM     17  F   UNL     1      60.110  61.300  70.670  0.00  0.00    +0.000 F 
ATOM     18  F   UNL     1      60.272  61.660  69.572  0.00  0.00    +0.000 F 
ATOM     19  F   UNL     1      60.758  62.190  71.057  0.00  0.00    +0.000 F 
ENDROOT
TORSDOF 0
ENDMDL
MODEL 9
REMARK VINA RESULT:    -8.788      5.871      6.910
REMARK INTER + INTRA:          -8.788
REMARK INTER:                  -8.788
REMARK INTRA:                   0.000
REMARK UNBOUND:                 0.000
ROOT
REMARK  Name = flutamide
REMARK                            x       y       z     vdW  Elec       q    Type
REMARK                         _______ _______ _______ _____ _____    ______ ____
ATOM      1  C   UNL     1      64.487  66.028  69.544  0.00  0.00    +0.000 C 
ATOM      2  C   UNL     1      64.201  65.741  70.263  0.00  0.00    +0.000 C 
ATOM      3  C   UNL     1      64.525  66.008  70.973  0.00  0.00    +0.000 C 
ATOM      4  C   UNL     1      63.589  65.188  70.272  0.00  0.00    +0.000 C 
ATOM      5  O   UNL     1      63.263  64.920  69.562  0.00  0.00    +0.000 OA
ATOM      6  N   UNL     1      63.302  64.901  70.991  0.00  0.00    +0.000 NA
ATOM      7  C   UNL     1      62.691  64.348  71.000  0.00  0.00    +0.000 A 
ATOM      8  C   UNL     1      62.405  64.061  71.718  0.00  0.00    +0.000 A 
ATOM      9  C   UNL     1      61.793  63.507  71.727  0.00  0.00    +0.000 A 
ATOM     10  C   UNL     1      61.468  63.240  71.018  0.00  0.00    +0.000 A 
ATOM     11  C   UNL     1      61.754  63.527  70.299  0.00  0.00    +0.000 A 
ATOM     12  C   UNL     1      62.366  64.080  70.290  0.00  0.00    +0.000 A 
ATOM     13  N   UNL     1      60.856  62.686  71.027  0.00  0.00    +0.000 N 
ATOM     14  O   UNL     1      60.570  62.400  71.745  0.00  0.00    +0.000 OA
ATOM     15  O   UNL     1      60.531  62.420  70.317  0.00  0.00    +0.000 OA
ATOM     16  C   UNL     1      61.507  63.221  72.445  0.00  0.00    +0.000 C 
ATOM     17  F   UNL     1      61.220  62.934  73.164  0.00  0.00    +0.000 F 
ATOM     18  F   UNL     1      60.966  62.747  72.041  0.00  0.00    +0.000 F 
ATOM     19  F   UNL     1      62.048  63.694  72.850  0.00  0.00    +0.000 F 
ENDROOT
TORSDOF 0
ENDMDL
