MODEL 1
REMARK VINA RESULT:   -22.316      0.000      0.000
REMARK INTER + INTRA:         -22.316
REMARK INTER:                 -22.316
REMARK INTRA:                   0.000
REMARK UNBOUND:                 0.000
ROOT
REMARK  Name = fondaparinux
REMARK                            x       y       z     vdW  Elec       q    Type
REMARK                         _______ _______ _______ _____ _____    ______ ____
ATOM      1  C   UNL     1      59.273  72.517  52.815  0.00  0.00    +0.000 C 
ATOM      2  O   UNL     1      59.548  71.842  53.202  0.00  0.00    +0.000 OA
ATOM      3  C   UNL     1      59.706  71.157  52.773  0.00  0.00    +0.000 C 
ATOM      4  O   UNL     1      59.590  71.144  51.957  0.00  0.00    +0.000 OA
ATOM      5  C   UNL     1      59.748  70.457  51.527  0.00  0.00    +0.000 C 
ATOM      6  C   UNL     1      59.631  70.446  50.711  0.00  0.00    +0.000 C 
ATOM      7  O   UNL     1      59.789  69.760  50.281  0.00  0.00    +0.000 OA
ATOM      8  S   UNL     1      59.672  69.747  49.465  0.00  0.00    +0.000 S 
ATOM      9  O   UNL     1      59.922  68.962  49.440  0.00  0.00    +0.000 OA
ATOM     10  O   UNL     1      59.422  70.533  49.489  0.00  0.00    +0.000 OA
ATOM     11  O   UNL     1      59.556  69.735  48.648  0.00  0.00    +0.000 OA
ATOM     12  C   UNL     1      60.023  69.784  51.915  0.00  0.00    +0.000 C 
ATOM     13  O   UNL     1      60.181  69.097  51.485  0.00  0.00    +0.000 OA
ATOM     14  C   UNL     1      60.456  68.422  51.873  0.00  0.00    +0.000 C 
ATOM     15  O   UNL     1      60.572  68.434  52.689  0.00  0.00    +0.000 OA
ATOM     16  C   UNL     1      60.848  67.759  53.077  0.00  0.00    +0.000 C 
ATOM     17  C   UNL     1      61.006  67.073  52.647  0.00  0.00    +0.000 C 
ATOM     18  O   UNL     1      61.281  66.399  53.035  0.00  0.00    +0.000 OA
ATOM     19  C   UNL     1      61.439  65.711  52.605  0.00  0.00    +0.000 C 
ATOM     20  O   UNL     1      61.322  65.700  51.789  0.00  0.00    +0.000 OA
ATOM     21  C   UNL     1      61.481  65.013  51.360  0.00  0.00    +0.000 C 
ATOM     22  C   UNL     1      61.363  65.002  50.543  0.00  0.00    +0.000 C 
ATOM     23  O   UNL     1      61.089  65.676  50.156  0.00  0.00    +0.000 OA
ATOM     24  S   UNL     1      60.972  65.664  49.339  0.00  0.00    +0.000 S 
ATOM     25  O   UNL     1      60.855  65.652  48.522  0.00  0.00    +0.000 OA
ATOM     26  O   UNL     1      61.222  64.878  49.315  0.00  0.00    +0.000 OA
ATOM     27  O   UNL     1      60.722  66.450  49.363  0.00  0.00    +0.000 OA
ATOM     28  C   UNL     1      61.755  64.339  51.747  0.00  0.00    +0.000 C 
ATOM     29  O   UNL     1      61.913  63.653  51.317  0.00  0.00    +0.000 OA
ATOM     30  C   UNL     1      62.189  62.978  51.705  0.00  0.00    +0.000 C 
ATOM     31  O   UNL     1      62.305  62.990  52.521  0.00  0.00    +0.000 OA
ATOM     32  C   UNL     1      62.580  62.315  52.909  0.00  0.00    +0.000 C 
ATOM     33  C   UNL     1      62.739  61.628  52.480  0.00  0.00    +0.000 C 
ATOM     34  O   UNL     1      63.014  60.954  52.866  0.00  0.00    +0.000 OA
ATOM     35  C   UNL     1      63.172  60.268  52.437  0.00  0.00    +0.000 C 
ATOM     36  O   UNL     1      63.055  60.255  51.621  0.00  0.00    +0.000 OA
ATOM     37  C   UNL     1      63.213  59.569  51.192  0.00  0.00    +0.000 C 
ATOM     38  C   UNL     1      63.096  59.558  50.375  0.00  0.00    +0.000 C 
ATOM     39  O   UNL     1      63.255  58.870  49.945  0.00  0.00    +0.000 OA
ATOM     40  S   UNL     1      63.138  58.858  49.129  0.00  0.00    +0.000 S 
ATOM     41  O   UNL     1      63.388  58.072  49.104  0.00  0.00    +0.000 OA
ATOM     42  O   UNL     1      62.888  59.645  49.153  0.00  0.00    +0.000 OA
ATOM     43  O   UNL     1      63.021  58.846  48.312  0.00  0.00    +0.000 OA
ATOM     44  C   UNL     1      63.488  58.895  51.579  0.00  0.00    +0.000 C 
ATOM     45  O   UNL     1      63.646  58.208  51.149  0.00  0.00    +0.000 OA
ATOM     46  C   UNL     1      63.605  58.907  52.395  0.00  0.00    +0.000 C 
ATOM     47  O   UNL     1      63.880  58.232  52.783  0.00  0.00    +0.000 OA
ATOM     48  C   UNL     1      63.447  59.593  52.824  0.00  0.00    +0.000 C 
ATOM     49  N   UNL     1      63.563  59.605  53.641  0.00  0.00    +0.000 NA
ATOM     50  S   UNL     1      63.839  58.930  54.029  0.00  0.00    +0.000 S 
ATOM     51  O   UNL     1      63.862  58.528  53.309  0.00  0.00    +0.000 OA
ATOM     52  O   UNL     1      64.113  58.256  54.416  0.00  0.00    +0.000 OA
ATOM     53  O   UNL     1      63.815  59.333  54.748  0.00  0.00    +0.000 OA
ATOM     54  C   UNL     1      62.622  61.616  51.662  0.00  0.00    +0.000 C 
ATOM     55  O   UNL     1      62.780  60.931  51.233  0.00  0.00    +0.000 OA
ATOM     56  C   UNL     1      62.347  62.291  51.276  0.00  0.00    +0.000 C 
ATOM     57  O   UNL     1      62.230  62.279  50.458  0.00  0.00    +0.000 OA
ATOM     58  C   UNL     1      62.697  62.328  53.725  0.00  0.00    +0.000 C 
ATOM     59  O   UNL     1      62.972  61.653  54.112  0.00  0.00    +0.000 OA
ATOM     60  O   UNL     1      62.539  63.014  54.155  0.00  0.00    +0.000 OA
ATOM     61  C   UNL     1      61.872  64.351  52.563  0.00  0.00    +0.000 C 
ATOM     62  O   UNL     1      62.147  63.677  52.951  0.00  0.00    +0.000 OA
ATOM     63  S   UNL     1      62.264  63.688  53.767  0.00  0.00    +0.000 S 
ATOM     64  O   UNL     1      62.014  64.474  53.791  0.00  0.00    +0.000 OA
ATOM     65  O   UNL     1      62.514  62.902  53.743  0.00  0.00    +0.000 OA
ATOM     66  O   UNL     1      62.381  63.700  54.583  0.00  0.00    +0.000 OA
ATOM     67  C   UNL     1      61.714  65.037  52.993  0.00  0.00    +0.000 C 
ATOM     68  N   UNL     1      61.831  65.049  53.809  0.00  0.00    +0.000 NA
ATOM     69  S   UNL     1      61.672  65.736  54.239  0.00  0.00    +0.000 S 
ATOM     70  O   UNL     1      61.899  65.354  54.934  0.00  0.00    +0.000 OA
ATOM     71  O   UNL     1      61.514  66.422  54.667  0.00  0.00    +0.000 OA
ATOM     72  O   UNL     1      61.446  66.119  53.543  0.00  0.00    +0.000 OA
ATOM     73  C   UNL     1      60.889  67.061  51.831  0.00  0.00    +0.000 C 
ATOM     74  O   UNL     1      61.047  66.374  51.401  0.00  0.00    +0.000 OA
ATOM     75  C   UNL     1      60.614  67.735  51.443  0.00  0.00    +0.000 C 
ATOM     76  O   UNL     1      60.497  67.724  50.627  0.00  0.00    +0.000 OA
ATOM     77  S   UNL     1      60.222  68.398  50.240  0.00  0.00    +0.000 S 
ATOM     78  O   UNL     1      60.198  68.801  50.958  0.00  0.00    +0.000 OA
ATOM     79  O   UNL     1      60.246  67.995  49.520  0.00  0.00    +0.000 OA
ATOM     80  O   UNL     1      59.947  69.072  49.851  0.00  0.00    +0.000 OA
ATOM     81  C   UNL     1      60.964  67.772  53.893  0.00  0.00    +0.000 C 
ATOM     82  O   UNL     1      60.806  68.458  54.323  0.00  0.00    +0.000 OA
ATOM     83  O   UNL     1      61.239  67.097  54.281  0.00  0.00    +0.000 OA
ATOM     84  C   UNL     1      60.140  69.795  52.731  0.00  0.00    +0.000 C 
ATOM     85  O   UNL     1      60.414  69.121  53.119  0.00  0.00    +0.000 OA
ATOM     86  C   UNL     1      59.981  70.481  53.161  0.00  0.00    +0.000 C 
ATOM     87  N   UNL     1      60.098  70.494  53.977  0.00  0.00    +0.000 NA
ATOM     88  S   UNL     1      59.940  71.180  54.406  0.00  0.00    +0.000 S 
ATOM     89  O   UNL     1      59.782  71.866  54.835  0.00  0.00    +0.000 OA
ATOM     90  O   UNL     1      59.714  71.562  53.711  0.00  0.00    +0.000 OA
ATOM     91  O   UNL     1      60.166  70.797  55.101  0.00  0.00    +0.000 OA
ENDROOT
TORSDOF 0
ENDMDL
MODEL 2
REMARK VINA RESULT:   -21.825      1.713      9.155
REMARK INTER + INTRA:         -21.825
REMARK INTER:                 -21.825
REMARK INTRA:                   0.000
REMARK UNBOUND:                 0.000
ROOT
REMARK  Name = fondaparinux
REMARK                            x       y       z     vdW  Elec       q    Type
REMARK                         _______ _______ _______ _____ _____    ______ ____
ATOM      1  C   UNL     1      64.359  60.741  52.027  0.00  0.00    +0.000 C 
ATOM      2  O   UNL     1      64.172  61.387  52.504  0.00  0.00    +0.000 OA
ATOM      3  C   UNL     1      63.761  62.027  52.189  0.00  0.00    +0.000 C 
ATOM      4  O   UNL     1      63.537  62.024  51.395  0.00  0.00    +0.000 OA
ATOM      5  C   UNL     1      63.125  62.665  51.079  0.00  0.00    +0.000 C 
ATOM      6  C   UNL     1      62.902  62.660  50.284  0.00  0.00    +0.000 C 
ATOM      7  O   UNL     1      62.490  63.301  49.968  0.00  0.00    +0.000 OA
ATOM      8  S   UNL     1      62.266  63.298  49.174  0.00  0.00    +0.000 S 
ATOM      9  O   UNL     1      61.921  64.040  49.267  0.00  0.00    +0.000 OA
ATOM     10  O   UNL     1      62.612  62.554  49.081  0.00  0.00    +0.000 OA
ATOM     11  O   UNL     1      62.042  63.293  48.380  0.00  0.00    +0.000 OA
ATOM     12  C   UNL     1      62.938  63.310  51.556  0.00  0.00    +0.000 C 
ATOM     13  O   UNL     1      62.527  63.952  51.240  0.00  0.00    +0.000 OA
ATOM     14  C   UNL     1      62.340  64.598  51.718  0.00  0.00    +0.000 C 
ATOM     15  O   UNL     1      62.564  64.602  52.512  0.00  0.00    +0.000 OA
ATOM     16  C   UNL     1      62.376  65.249  52.990  0.00  0.00    +0.000 C 
ATOM     17  C   UNL     1      61.965  65.890  52.674  0.00  0.00    +0.000 C 
ATOM     18  O   UNL     1      61.778  66.536  53.151  0.00  0.00    +0.000 OA
ATOM     19  C   UNL     1      61.366  67.178  52.835  0.00  0.00    +0.000 C 
ATOM     20  O   UNL     1      61.143  67.173  52.041  0.00  0.00    +0.000 OA
ATOM     21  C   UNL     1      60.731  67.815  51.725  0.00  0.00    +0.000 C 
ATOM     22  C   UNL     1      60.508  67.810  50.931  0.00  0.00    +0.000 C 
ATOM     23  O   UNL     1      60.695  67.164  50.453  0.00  0.00    +0.000 OA
ATOM     24  S   UNL     1      60.471  67.159  49.659  0.00  0.00    +0.000 S 
ATOM     25  O   UNL     1      60.247  67.155  48.865  0.00  0.00    +0.000 OA
ATOM     26  O   UNL     1      60.125  67.903  49.753  0.00  0.00    +0.000 OA
ATOM     27  O   UNL     1      60.816  66.417  49.566  0.00  0.00    +0.000 OA
ATOM     28  C   UNL     1      60.544  68.460  52.203  0.00  0.00    +0.000 C 
ATOM     29  O   UNL     1      60.133  69.102  51.887  0.00  0.00    +0.000 OA
ATOM     30  C   UNL     1      59.945  69.748  52.365  0.00  0.00    +0.000 C 
ATOM     31  O   UNL     1      60.170  69.752  53.159  0.00  0.00    +0.000 OA
ATOM     32  C   UNL     1      59.982  70.399  53.637  0.00  0.00    +0.000 C 
ATOM     33  C   UNL     1      59.571  71.040  53.320  0.00  0.00    +0.000 C 
ATOM     34  O   UNL     1      59.383  71.686  53.798  0.00  0.00    +0.000 OA
ATOM     35  C   UNL     1      58.973  72.327  53.482  0.00  0.00    +0.000 C 
ATOM     36  O   UNL     1      58.748  72.323  52.688  0.00  0.00    +0.000 OA
ATOM     37  C   UNL     1      58.337  72.965  52.372  0.00  0.00    +0.000 C 
ATOM     38  C   UNL     1      58.113  72.960  51.578  0.00  0.00    +0.000 C 
ATOM     39  O   UNL     1      57.702  73.602  51.261  0.00  0.00    +0.000 OA
ATOM     40  S   UNL     1      57.478  73.597  50.468  0.00  0.00    +0.000 S 
ATOM     41  O   UNL     1      57.132  74.341  50.560  0.00  0.00    +0.000 OA
ATOM     42  O   UNL     1      57.824  72.853  50.374  0.00  0.00    +0.000 OA
ATOM     43  O   UNL     1      57.254  73.593  49.673  0.00  0.00    +0.000 OA
ATOM     44  C   UNL     1      58.150  73.610  52.849  0.00  0.00    +0.000 C 
ATOM     45  O   UNL     1      57.738  74.252  52.533  0.00  0.00    +0.000 OA
ATOM     46  C   UNL     1      58.374  73.615  53.643  0.00  0.00    +0.000 C 
ATOM     47  O   UNL     1      58.187  74.260  54.121  0.00  0.00    +0.000 OA
ATOM     48  C   UNL     1      58.785  72.973  53.959  0.00  0.00    +0.000 C 
ATOM     49  N   UNL     1      59.009  72.977  54.754  0.00  0.00    +0.000 NA
ATOM     50  S   UNL     1      58.822  73.624  55.232  0.00  0.00    +0.000 S 
ATOM     51  O   UNL     1      58.455  73.991  54.591  0.00  0.00    +0.000 OA
ATOM     52  O   UNL     1      58.635  74.269  55.709  0.00  0.00    +0.000 OA
ATOM     53  O   UNL     1      59.188  73.256  55.872  0.00  0.00    +0.000 OA
ATOM     54  C   UNL     1      59.347  71.036  52.526  0.00  0.00    +0.000 C 
ATOM     55  O   UNL     1      58.936  71.677  52.210  0.00  0.00    +0.000 OA
ATOM     56  C   UNL     1      59.534  70.390  52.049  0.00  0.00    +0.000 C 
ATOM     57  O   UNL     1      59.310  70.385  51.254  0.00  0.00    +0.000 OA
ATOM     58  C   UNL     1      60.206  70.403  54.430  0.00  0.00    +0.000 C 
ATOM     59  O   UNL     1      60.019  71.049  54.908  0.00  0.00    +0.000 OA
ATOM     60  O   UNL     1      60.618  69.761  54.747  0.00  0.00    +0.000 OA
ATOM     61  C   UNL     1      60.768  68.465  52.997  0.00  0.00    +0.000 C 
ATOM     62  O   UNL     1      60.581  69.111  53.475  0.00  0.00    +0.000 OA
ATOM     63  S   UNL     1      60.805  69.116  54.269  0.00  0.00    +0.000 S 
ATOM     64  O   UNL     1      61.150  68.373  54.175  0.00  0.00    +0.000 OA
ATOM     65  O   UNL     1      60.459  69.859  54.362  0.00  0.00    +0.000 OA
ATOM     66  O   UNL     1      61.029  69.120  55.062  0.00  0.00    +0.000 OA
ATOM     67  C   UNL     1      61.179  67.824  53.313  0.00  0.00    +0.000 C 
ATOM     68  N   UNL     1      61.403  67.828  54.107  0.00  0.00    +0.000 NA
ATOM     69  S   UNL     1      61.815  67.186  54.423  0.00  0.00    +0.000 S 
ATOM     70  O   UNL     1      61.836  67.562  55.158  0.00  0.00    +0.000 OA
ATOM     71  O   UNL     1      62.226  66.545  54.739  0.00  0.00    +0.000 OA
ATOM     72  O   UNL     1      61.794  66.811  53.689  0.00  0.00    +0.000 OA
ATOM     73  C   UNL     1      61.741  65.885  51.880  0.00  0.00    +0.000 C 
ATOM     74  O   UNL     1      61.330  66.528  51.563  0.00  0.00    +0.000 OA
ATOM     75  C   UNL     1      61.928  65.240  51.402  0.00  0.00    +0.000 C 
ATOM     76  O   UNL     1      61.705  65.235  50.608  0.00  0.00    +0.000 OA
ATOM     77  S   UNL     1      61.892  64.590  50.130  0.00  0.00    +0.000 S 
ATOM     78  O   UNL     1      62.258  64.222  50.770  0.00  0.00    +0.000 OA
ATOM     79  O   UNL     1      61.525  64.957  49.489  0.00  0.00    +0.000 OA
ATOM     80  O   UNL     1      62.079  63.944  49.652  0.00  0.00    +0.000 OA
ATOM     81  C   UNL     1      62.601  65.253  53.784  0.00  0.00    +0.000 C 
ATOM     82  O   UNL     1      63.012  64.611  54.100  0.00  0.00    +0.000 OA
ATOM     83  O   UNL     1      62.413  65.899  54.262  0.00  0.00    +0.000 OA
ATOM     84  C   UNL     1      63.162  63.315  52.350  0.00  0.00    +0.000 C 
ATOM     85  O   UNL     1      62.975  63.961  52.828  0.00  0.00    +0.000 OA
ATOM     86  C   UNL     1      63.573  62.674  52.667  0.00  0.00    +0.000 C 
ATOM     87  N   UNL     1      63.798  62.678  53.460  0.00  0.00    +0.000 NA
ATOM     88  S   UNL     1      64.208  62.037  53.776  0.00  0.00    +0.000 S 
ATOM     89  O   UNL     1      64.620  61.396  54.092  0.00  0.00    +0.000 OA
ATOM     90  O   UNL     1      64.187  61.662  53.042  0.00  0.00    +0.000 OA
ATOM     91  O   UNL     1      64.230  62.413  54.511  0.00  0.00    +0.000 OA
ENDROOT
TORSDOF 0
ENDMDL
MODEL 3
REMARK VINA RESULT:   -21.508      0.832      8.782
REMARK INTER + INTRA:         -21.508
REMARK INTER:                 -21.508
REMARK INTRA:                   0.000
REMARK UNBOUND:                 0.000
ROOT
REMARK  Name = fondaparinux
REMARK                            x       y       z     vdW  Elec       q    Type
REMARK                         _______ _______ _______ _____ _____    ______ ____
ATOM      1  C   UNL     1      63.876  57.884  52.343  0.00  0.00    +0.000 C 
ATOM      2  O   UNL     1      63.717  58.577  52.761  0.00  0.00    +0.000 OA
ATOM      3  C   UNL     1      63.440  59.244  52.364  0.00  0.00    +0.000 C 
ATOM      4  O   UNL     1      63.321  59.220  51.548  0.00  0.00    +0.000 OA
ATOM      5  C   UNL     1      63.044  59.888  51.151  0.00  0.00    +0.000 C 
ATOM      6  C   UNL     1      62.926  59.862  50.335  0.00  0.00    +0.000 C 
ATOM      7  O   UNL     1      62.649  60.530  49.938  0.00  0.00    +0.000 OA
ATOM      8  S   UNL     1      62.531  60.506  49.122  0.00  0.00    +0.000 S 
ATOM      9  O   UNL     1      62.279  61.291  49.134  0.00  0.00    +0.000 OA
ATOM     10  O   UNL     1      62.783  59.720  49.109  0.00  0.00    +0.000 OA
ATOM     11  O   UNL     1      62.413  60.482  48.305  0.00  0.00    +0.000 OA
ATOM     12  C   UNL     1      62.885  60.580  51.570  0.00  0.00    +0.000 C 
ATOM     13  O   UNL     1      62.608  61.248  51.173  0.00  0.00    +0.000 OA
ATOM     14  C   UNL     1      62.449  61.941  51.592  0.00  0.00    +0.000 C 
ATOM     15  O   UNL     1      62.567  61.965  52.408  0.00  0.00    +0.000 OA
ATOM     16  C   UNL     1      62.407  62.658  52.828  0.00  0.00    +0.000 C 
ATOM     17  C   UNL     1      62.130  63.326  52.430  0.00  0.00    +0.000 C 
ATOM     18  O   UNL     1      61.971  64.018  52.849  0.00  0.00    +0.000 OA
ATOM     19  C   UNL     1      61.694  64.687  52.452  0.00  0.00    +0.000 C 
ATOM     20  O   UNL     1      61.576  64.662  51.636  0.00  0.00    +0.000 OA
ATOM     21  C   UNL     1      61.298  65.330  51.239  0.00  0.00    +0.000 C 
ATOM     22  C   UNL     1      61.181  65.304  50.423  0.00  0.00    +0.000 C 
ATOM     23  O   UNL     1      61.340  64.612  50.004  0.00  0.00    +0.000 OA
ATOM     24  S   UNL     1      61.222  64.587  49.188  0.00  0.00    +0.000 S 
ATOM     25  O   UNL     1      61.103  64.563  48.372  0.00  0.00    +0.000 OA
ATOM     26  O   UNL     1      60.970  65.373  49.200  0.00  0.00    +0.000 OA
ATOM     27  O   UNL     1      61.473  63.802  49.175  0.00  0.00    +0.000 OA
ATOM     28  C   UNL     1      61.139  66.022  51.658  0.00  0.00    +0.000 C 
ATOM     29  O   UNL     1      60.862  66.690  51.261  0.00  0.00    +0.000 OA
ATOM     30  C   UNL     1      60.703  67.383  51.680  0.00  0.00    +0.000 C 
ATOM     31  O   UNL     1      60.821  67.407  52.496  0.00  0.00    +0.000 OA
ATOM     32  C   UNL     1      60.662  68.100  52.915  0.00  0.00    +0.000 C 
ATOM     33  C   UNL     1      60.384  68.768  52.518  0.00  0.00    +0.000 C 
ATOM     34  O   UNL     1      60.225  69.461  52.937  0.00  0.00    +0.000 OA
ATOM     35  C   UNL     1      59.948  70.128  52.540  0.00  0.00    +0.000 C 
ATOM     36  O   UNL     1      59.830  70.104  51.724  0.00  0.00    +0.000 OA
ATOM     37  C   UNL     1      59.553  70.772  51.327  0.00  0.00    +0.000 C 
ATOM     38  C   UNL     1      59.435  70.746  50.511  0.00  0.00    +0.000 C 
ATOM     39  O   UNL     1      59.157  71.415  50.113  0.00  0.00    +0.000 OA
ATOM     40  S   UNL     1      59.039  71.390  49.298  0.00  0.00    +0.000 S 
ATOM     41  O   UNL     1      58.787  72.176  49.310  0.00  0.00    +0.000 OA
ATOM     42  O   UNL     1      59.291  70.604  49.285  0.00  0.00    +0.000 OA
ATOM     43  O   UNL     1      58.921  71.366  48.481  0.00  0.00    +0.000 OA
ATOM     44  C   UNL     1      59.394  71.464  51.746  0.00  0.00    +0.000 C 
ATOM     45  O   UNL     1      59.116  72.132  51.348  0.00  0.00    +0.000 OA
ATOM     46  C   UNL     1      59.512  71.489  52.561  0.00  0.00    +0.000 C 
ATOM     47  O   UNL     1      59.352  72.181  52.981  0.00  0.00    +0.000 OA
ATOM     48  C   UNL     1      59.789  70.821  52.958  0.00  0.00    +0.000 C 
ATOM     49  N   UNL     1      59.907  70.845  53.775  0.00  0.00    +0.000 NA
ATOM     50  S   UNL     1      59.748  71.539  54.194  0.00  0.00    +0.000 S 
ATOM     51  O   UNL     1      59.520  71.909  53.494  0.00  0.00    +0.000 OA
ATOM     52  O   UNL     1      59.589  72.231  54.613  0.00  0.00    +0.000 OA
ATOM     53  O   UNL     1      59.976  71.167  54.894  0.00  0.00    +0.000 OA
ATOM     54  C   UNL     1      60.266  68.744  51.701  0.00  0.00    +0.000 C 
ATOM     55  O   UNL     1      59.989  69.411  51.305  0.00  0.00    +0.000 OA
ATOM     56  C   UNL     1      60.426  68.051  51.283  0.00  0.00    +0.000 C 
ATOM     57  O   UNL     1      60.307  68.026  50.466  0.00  0.00    +0.000 OA
ATOM     58  C   UNL     1      60.780  68.124  53.731  0.00  0.00    +0.000 C 
ATOM     59  O   UNL     1      60.621  68.817  54.150  0.00  0.00    +0.000 OA
ATOM     60  O   UNL     1      61.057  67.456  54.128  0.00  0.00    +0.000 OA
ATOM     61  C   UNL     1      61.257  66.047  52.474  0.00  0.00    +0.000 C 
ATOM     62  O   UNL     1      61.098  66.739  52.893  0.00  0.00    +0.000 OA
ATOM     63  S   UNL     1      61.216  66.764  53.710  0.00  0.00    +0.000 S 
ATOM     64  O   UNL     1      61.468  65.979  53.696  0.00  0.00    +0.000 OA
ATOM     65  O   UNL     1      60.964  67.550  53.722  0.00  0.00    +0.000 OA
ATOM     66  O   UNL     1      61.334  66.789  54.525  0.00  0.00    +0.000 OA
ATOM     67  C   UNL     1      61.535  65.379  52.871  0.00  0.00    +0.000 C 
ATOM     68  N   UNL     1      61.652  65.404  53.687  0.00  0.00    +0.000 NA
ATOM     69  S   UNL     1      61.930  64.735  54.085  0.00  0.00    +0.000 S 
ATOM     70  O   UNL     1      61.906  65.150  54.798  0.00  0.00    +0.000 OA
ATOM     71  O   UNL     1      62.207  64.068  54.481  0.00  0.00    +0.000 OA
ATOM     72  O   UNL     1      61.954  64.321  53.371  0.00  0.00    +0.000 OA
ATOM     73  C   UNL     1      62.012  63.301  51.614  0.00  0.00    +0.000 C 
ATOM     74  O   UNL     1      61.735  63.969  51.217  0.00  0.00    +0.000 OA
ATOM     75  C   UNL     1      62.171  62.609  51.195  0.00  0.00    +0.000 C 
ATOM     76  O   UNL     1      62.053  62.583  50.379  0.00  0.00    +0.000 OA
ATOM     77  S   UNL     1      62.212  61.891  49.960  0.00  0.00    +0.000 S 
ATOM     78  O   UNL     1      62.441  61.520  50.660  0.00  0.00    +0.000 OA
ATOM     79  O   UNL     1      61.984  62.262  49.259  0.00  0.00    +0.000 OA
ATOM     80  O   UNL     1      62.371  61.199  49.540  0.00  0.00    +0.000 OA
ATOM     81  C   UNL     1      62.526  62.682  53.644  0.00  0.00    +0.000 C 
ATOM     82  O   UNL     1      62.803  62.014  54.041  0.00  0.00    +0.000 OA
ATOM     83  O   UNL     1      62.366  63.376  54.063  0.00  0.00    +0.000 OA
ATOM     84  C   UNL     1      63.003  60.605  52.387  0.00  0.00    +0.000 C 
ATOM     85  O   UNL     1      62.844  61.297  52.805  0.00  0.00    +0.000 OA
ATOM     86  C   UNL     1      63.280  59.937  52.784  0.00  0.00    +0.000 C 
ATOM     87  N   UNL     1      63.399  59.961  53.600  0.00  0.00    +0.000 NA
ATOM     88  S   UNL     1      63.675  59.294  53.996  0.00  0.00    +0.000 S 
ATOM     89  O   UNL     1      63.953  58.626  54.393  0.00  0.00    +0.000 OA
ATOM     90  O   UNL     1      63.699  58.880  53.283  0.00  0.00    +0.000 OA
ATOM     91  O   UNL     1      63.652  59.708  54.709  0.00  0.00    +0.000 OA
ENDROOT
TORSDOF 0
ENDMDL
MODEL 4
REMARK VINA RESULT:   -21.241      1.111      3.580
REMARK INTER + INTRA:         -21.241
REMARK INTER:                 -21.241
REMARK INTRA:                   0.000
REMARK UNBOUND:                 0.000
ROOT
REMARK  Name = fondaparinux
REMARK                            x       y       z     vdW  Elec       q    Type
REMARK                         _______ _______ _______ _____ _____    ______ ____
ATOM      1  C   UNL     1      59.348  72.606  51.267  0.00  0.00    +0.000 C 
ATOM      2  O   UNL     1      59.491  71.917  50.836  0.00  0.00    +0.000 OA
ATOM      3  C   UNL     1      59.744  71.234  51.222  0.00  0.00    +0.000 C 
ATOM      4  O   UNL     1      59.856  71.239  52.039  0.00  0.00    +0.000 OA
ATOM      5  C   UNL     1      60.110  70.556  52.426  0.00  0.00    +0.000 C 
ATOM      6  C   UNL     1      60.221  70.562  53.243  0.00  0.00    +0.000 C 
ATOM      7  O   UNL     1      60.475  69.878  53.630  0.00  0.00    +0.000 OA
ATOM      8  S   UNL     1      60.587  69.883  54.447  0.00  0.00    +0.000 S 
ATOM      9  O   UNL     1      60.815  69.092  54.421  0.00  0.00    +0.000 OA
ATOM     10  O   UNL     1      60.358  70.676  54.473  0.00  0.00    +0.000 OA
ATOM     11  O   UNL     1      60.699  69.889  55.265  0.00  0.00    +0.000 OA
ATOM     12  C   UNL     1      60.252  69.867  51.995  0.00  0.00    +0.000 C 
ATOM     13  O   UNL     1      60.506  69.184  52.381  0.00  0.00    +0.000 OA
ATOM     14  C   UNL     1      60.648  68.494  51.950  0.00  0.00    +0.000 C 
ATOM     15  O   UNL     1      60.536  68.490  51.133  0.00  0.00    +0.000 OA
ATOM     16  C   UNL     1      60.679  67.800  50.701  0.00  0.00    +0.000 C 
ATOM     17  C   UNL     1      60.932  67.117  51.088  0.00  0.00    +0.000 C 
ATOM     18  O   UNL     1      61.075  66.428  50.657  0.00  0.00    +0.000 OA
ATOM     19  C   UNL     1      61.329  65.744  51.043  0.00  0.00    +0.000 C 
ATOM     20  O   UNL     1      61.440  65.750  51.860  0.00  0.00    +0.000 OA
ATOM     21  C   UNL     1      61.694  65.067  52.246  0.00  0.00    +0.000 C 
ATOM     22  C   UNL     1      61.805  65.073  53.064  0.00  0.00    +0.000 C 
ATOM     23  O   UNL     1      61.663  65.761  53.495  0.00  0.00    +0.000 OA
ATOM     24  S   UNL     1      61.775  65.767  54.313  0.00  0.00    +0.000 S 
ATOM     25  O   UNL     1      61.887  65.772  55.130  0.00  0.00    +0.000 OA
ATOM     26  O   UNL     1      62.004  64.974  54.287  0.00  0.00    +0.000 OA
ATOM     27  O   UNL     1      61.546  66.559  54.338  0.00  0.00    +0.000 OA
ATOM     28  C   UNL     1      61.836  64.378  51.816  0.00  0.00    +0.000 C 
ATOM     29  O   UNL     1      62.090  63.695  52.202  0.00  0.00    +0.000 OA
ATOM     30  C   UNL     1      62.232  63.005  51.771  0.00  0.00    +0.000 C 
ATOM     31  O   UNL     1      62.120  63.001  50.953  0.00  0.00    +0.000 OA
ATOM     32  C   UNL     1      62.263  62.311  50.522  0.00  0.00    +0.000 C 
ATOM     33  C   UNL     1      62.517  61.628  50.908  0.00  0.00    +0.000 C 
ATOM     34  O   UNL     1      62.659  60.939  50.478  0.00  0.00    +0.000 OA
ATOM     35  C   UNL     1      62.913  60.256  50.864  0.00  0.00    +0.000 C 
ATOM     36  O   UNL     1      63.024  60.261  51.681  0.00  0.00    +0.000 OA
ATOM     37  C   UNL     1      63.278  59.578  52.067  0.00  0.00    +0.000 C 
ATOM     38  C   UNL     1      63.390  59.584  52.885  0.00  0.00    +0.000 C 
ATOM     39  O   UNL     1      63.644  58.900  53.272  0.00  0.00    +0.000 OA
ATOM     40  S   UNL     1      63.755  58.905  54.088  0.00  0.00    +0.000 S 
ATOM     41  O   UNL     1      63.984  58.113  54.063  0.00  0.00    +0.000 OA
ATOM     42  O   UNL     1      63.526  59.698  54.114  0.00  0.00    +0.000 OA
ATOM     43  O   UNL     1      63.867  58.911  54.906  0.00  0.00    +0.000 OA
ATOM     44  C   UNL     1      63.420  58.889  51.636  0.00  0.00    +0.000 C 
ATOM     45  O   UNL     1      63.674  58.205  52.023  0.00  0.00    +0.000 OA
ATOM     46  C   UNL     1      63.309  58.884  50.820  0.00  0.00    +0.000 C 
ATOM     47  O   UNL     1      63.451  58.195  50.388  0.00  0.00    +0.000 OA
ATOM     48  C   UNL     1      63.055  59.567  50.433  0.00  0.00    +0.000 C 
ATOM     49  N   UNL     1      62.943  59.562  49.615  0.00  0.00    +0.000 NA
ATOM     50  S   UNL     1      63.086  58.872  49.184  0.00  0.00    +0.000 S 
ATOM     51  O   UNL     1      63.296  58.481  49.879  0.00  0.00    +0.000 OA
ATOM     52  O   UNL     1      63.228  58.184  48.753  0.00  0.00    +0.000 OA
ATOM     53  O   UNL     1      62.875  59.263  48.490  0.00  0.00    +0.000 OA
ATOM     54  C   UNL     1      62.628  61.633  51.726  0.00  0.00    +0.000 C 
ATOM     55  O   UNL     1      62.882  60.951  52.112  0.00  0.00    +0.000 OA
ATOM     56  C   UNL     1      62.486  62.322  52.157  0.00  0.00    +0.000 C 
ATOM     57  O   UNL     1      62.598  62.327  52.975  0.00  0.00    +0.000 OA
ATOM     58  C   UNL     1      62.151  62.306  49.705  0.00  0.00    +0.000 C 
ATOM     59  O   UNL     1      62.293  61.617  49.274  0.00  0.00    +0.000 OA
ATOM     60  O   UNL     1      61.897  62.989  49.318  0.00  0.00    +0.000 OA
ATOM     61  C   UNL     1      61.725  64.372  50.998  0.00  0.00    +0.000 C 
ATOM     62  O   UNL     1      61.867  63.684  50.567  0.00  0.00    +0.000 OA
ATOM     63  S   UNL     1      61.755  63.678  49.749  0.00  0.00    +0.000 S 
ATOM     64  O   UNL     1      61.527  64.470  49.776  0.00  0.00    +0.000 OA
ATOM     65  O   UNL     1      61.984  62.885  49.724  0.00  0.00    +0.000 OA
ATOM     66  O   UNL     1      61.644  63.672  48.933  0.00  0.00    +0.000 OA
ATOM     67  C   UNL     1      61.471  65.056  50.612  0.00  0.00    +0.000 C 
ATOM     68  N   UNL     1      61.359  65.050  49.795  0.00  0.00    +0.000 NA
ATOM     69  S   UNL     1      61.105  65.734  49.408  0.00  0.00    +0.000 S 
ATOM     70  O   UNL     1      61.123  65.333  48.687  0.00  0.00    +0.000 OA
ATOM     71  O   UNL     1      60.852  66.416  49.022  0.00  0.00    +0.000 OA
ATOM     72  O   UNL     1      61.087  66.135  50.129  0.00  0.00    +0.000 OA
ATOM     73  C   UNL     1      61.044  67.123  51.905  0.00  0.00    +0.000 C 
ATOM     74  O   UNL     1      61.298  66.439  52.292  0.00  0.00    +0.000 OA
ATOM     75  C   UNL     1      60.902  67.811  52.336  0.00  0.00    +0.000 C 
ATOM     76  O   UNL     1      61.013  67.817  53.154  0.00  0.00    +0.000 OA
ATOM     77  S   UNL     1      60.871  68.506  53.585  0.00  0.00    +0.000 S 
ATOM     78  O   UNL     1      60.660  68.897  52.890  0.00  0.00    +0.000 OA
ATOM     79  O   UNL     1      61.082  68.115  54.280  0.00  0.00    +0.000 OA
ATOM     80  O   UNL     1      60.729  69.194  54.016  0.00  0.00    +0.000 OA
ATOM     81  C   UNL     1      60.567  67.795  49.884  0.00  0.00    +0.000 C 
ATOM     82  O   UNL     1      60.313  68.478  49.498  0.00  0.00    +0.000 OA
ATOM     83  O   UNL     1      60.709  67.106  49.453  0.00  0.00    +0.000 OA
ATOM     84  C   UNL     1      60.140  69.861  51.177  0.00  0.00    +0.000 C 
ATOM     85  O   UNL     1      60.282  69.173  50.746  0.00  0.00    +0.000 OA
ATOM     86  C   UNL     1      59.887  70.544  50.791  0.00  0.00    +0.000 C 
ATOM     87  N   UNL     1      59.775  70.540  49.974  0.00  0.00    +0.000 NA
ATOM     88  S   UNL     1      59.521  71.222  49.588  0.00  0.00    +0.000 S 
ATOM     89  O   UNL     1      59.267  71.905  49.201  0.00  0.00    +0.000 OA
ATOM     90  O   UNL     1      59.504  71.623  50.309  0.00  0.00    +0.000 OA
ATOM     91  O   UNL     1      59.539  70.821  48.867  0.00  0.00    +0.000 OA
ENDROOT
TORSDOF 0
ENDMDL
MODEL 5
REMARK VINA RESULT:   -21.091      1.152      9.506
REMARK INTER + INTRA:         -21.091
REMARK INTER:                 -21.091
REMARK INTRA:                   0.000
REMARK UNBOUND:                 0.000
ROOT
REMARK  Name = fondaparinux
REMARK                            x       y       z     vdW  Elec       q    Type
REMARK                         _______ _______ _______ _____ _____    ______ ____
ATOM      1  C   UNL     1      63.877  57.200  50.339  0.00  0.00    +0.000 C 
ATOM      2  O   UNL     1      63.639  57.901  49.975  0.00  0.00    +0.000 OA
ATOM      3  C   UNL     1      63.464  58.564  50.432  0.00  0.00    +0.000 C 
ATOM      4  O   UNL     1      63.527  58.528  51.253  0.00  0.00    +0.000 OA
ATOM      5  C   UNL     1      63.352  59.192  51.711  0.00  0.00    +0.000 C 
ATOM      6  C   UNL     1      63.416  59.154  52.533  0.00  0.00    +0.000 C 
ATOM      7  O   UNL     1      63.241  59.818  52.990  0.00  0.00    +0.000 OA
ATOM      8  S   UNL     1      63.304  59.782  53.812  0.00  0.00    +0.000 S 
ATOM      9  O   UNL     1      63.065  60.569  53.866  0.00  0.00    +0.000 OA
ATOM     10  O   UNL     1      63.542  58.993  53.758  0.00  0.00    +0.000 OA
ATOM     11  O   UNL     1      63.367  59.745  54.634  0.00  0.00    +0.000 OA
ATOM     12  C   UNL     1      63.114  59.892  51.347  0.00  0.00    +0.000 C 
ATOM     13  O   UNL     1      62.939  60.556  51.804  0.00  0.00    +0.000 OA
ATOM     14  C   UNL     1      62.701  61.257  51.439  0.00  0.00    +0.000 C 
ATOM     15  O   UNL     1      62.638  61.293  50.618  0.00  0.00    +0.000 OA
ATOM     16  C   UNL     1      62.400  61.995  50.253  0.00  0.00    +0.000 C 
ATOM     17  C   UNL     1      62.225  62.659  50.711  0.00  0.00    +0.000 C 
ATOM     18  O   UNL     1      61.987  63.359  50.346  0.00  0.00    +0.000 OA
ATOM     19  C   UNL     1      61.812  64.024  50.804  0.00  0.00    +0.000 C 
ATOM     20  O   UNL     1      61.875  63.987  51.625  0.00  0.00    +0.000 OA
ATOM     21  C   UNL     1      61.700  64.651  52.083  0.00  0.00    +0.000 C 
ATOM     22  C   UNL     1      61.764  64.613  52.905  0.00  0.00    +0.000 C 
ATOM     23  O   UNL     1      62.001  63.913  53.269  0.00  0.00    +0.000 OA
ATOM     24  S   UNL     1      62.065  63.876  54.091  0.00  0.00    +0.000 S 
ATOM     25  O   UNL     1      62.128  63.839  54.912  0.00  0.00    +0.000 OA
ATOM     26  O   UNL     1      61.826  64.664  54.144  0.00  0.00    +0.000 OA
ATOM     27  O   UNL     1      62.303  63.088  54.037  0.00  0.00    +0.000 OA
ATOM     28  C   UNL     1      61.462  65.351  51.718  0.00  0.00    +0.000 C 
ATOM     29  O   UNL     1      61.287  66.015  52.176  0.00  0.00    +0.000 OA
ATOM     30  C   UNL     1      61.049  66.716  51.811  0.00  0.00    +0.000 C 
ATOM     31  O   UNL     1      60.986  66.753  50.990  0.00  0.00    +0.000 OA
ATOM     32  C   UNL     1      60.748  67.454  50.625  0.00  0.00    +0.000 C 
ATOM     33  C   UNL     1      60.573  68.118  51.082  0.00  0.00    +0.000 C 
ATOM     34  O   UNL     1      60.335  68.819  50.719  0.00  0.00    +0.000 OA
ATOM     35  C   UNL     1      60.160  69.482  51.175  0.00  0.00    +0.000 C 
ATOM     36  O   UNL     1      60.223  69.446  51.997  0.00  0.00    +0.000 OA
ATOM     37  C   UNL     1      60.048  70.110  52.454  0.00  0.00    +0.000 C 
ATOM     38  C   UNL     1      60.112  70.072  53.276  0.00  0.00    +0.000 C 
ATOM     39  O   UNL     1      59.936  70.737  53.734  0.00  0.00    +0.000 OA
ATOM     40  S   UNL     1      60.000  70.700  54.555  0.00  0.00    +0.000 S 
ATOM     41  O   UNL     1      59.761  71.488  54.610  0.00  0.00    +0.000 OA
ATOM     42  O   UNL     1      60.238  69.912  54.502  0.00  0.00    +0.000 OA
ATOM     43  O   UNL     1      60.063  70.663  55.378  0.00  0.00    +0.000 OA
ATOM     44  C   UNL     1      59.810  70.810  52.090  0.00  0.00    +0.000 C 
ATOM     45  O   UNL     1      59.635  71.475  52.548  0.00  0.00    +0.000 OA
ATOM     46  C   UNL     1      59.747  70.847  51.269  0.00  0.00    +0.000 C 
ATOM     47  O   UNL     1      59.509  71.548  50.904  0.00  0.00    +0.000 OA
ATOM     48  C   UNL     1      59.922  70.183  50.812  0.00  0.00    +0.000 C 
ATOM     49  N   UNL     1      59.859  70.220  49.989  0.00  0.00    +0.000 NA
ATOM     50  S   UNL     1      59.621  70.922  49.625  0.00  0.00    +0.000 S 
ATOM     51  O   UNL     1      59.556  71.283  50.363  0.00  0.00    +0.000 OA
ATOM     52  O   UNL     1      59.383  71.622  49.260  0.00  0.00    +0.000 OA
ATOM     53  O   UNL     1      59.685  70.560  48.887  0.00  0.00    +0.000 OA
ATOM     54  C   UNL     1      60.636  68.081  51.905  0.00  0.00    +0.000 C 
ATOM     55  O   UNL     1      60.461  68.745  52.362  0.00  0.00    +0.000 OA
ATOM     56  C   UNL     1      60.874  67.380  52.269  0.00  0.00    +0.000 C 
ATOM     57  O   UNL     1      60.937  67.344  53.091  0.00  0.00    +0.000 OA
ATOM     58  C   UNL     1      60.685  67.490  49.803  0.00  0.00    +0.000 C 
ATOM     59  O   UNL     1      60.447  68.191  49.440  0.00  0.00    +0.000 OA
ATOM     60  O   UNL     1      60.860  66.826  49.346  0.00  0.00    +0.000 OA
ATOM     61  C   UNL     1      61.399  65.389  50.896  0.00  0.00    +0.000 C 
ATOM     62  O   UNL     1      61.161  66.089  50.532  0.00  0.00    +0.000 OA
ATOM     63  S   UNL     1      61.098  66.126  49.710  0.00  0.00    +0.000 S 
ATOM     64  O   UNL     1      61.336  65.338  49.657  0.00  0.00    +0.000 OA
ATOM     65  O   UNL     1      60.859  66.914  49.765  0.00  0.00    +0.000 OA
ATOM     66  O   UNL     1      61.034  66.163  48.889  0.00  0.00    +0.000 OA
ATOM     67  C   UNL     1      61.574  64.725  50.439  0.00  0.00    +0.000 C 
ATOM     68  N   UNL     1      61.511  64.762  49.618  0.00  0.00    +0.000 NA
ATOM     69  S   UNL     1      61.686  64.097  49.160  0.00  0.00    +0.000 S 
ATOM     70  O   UNL     1      61.512  64.523  48.475  0.00  0.00    +0.000 OA
ATOM     71  O   UNL     1      61.861  63.434  48.703  0.00  0.00    +0.000 OA
ATOM     72  O   UNL     1      61.860  63.671  49.845  0.00  0.00    +0.000 OA
ATOM     73  C   UNL     1      62.288  62.621  51.532  0.00  0.00    +0.000 C 
ATOM     74  O   UNL     1      62.113  63.286  51.990  0.00  0.00    +0.000 OA
ATOM     75  C   UNL     1      62.526  61.921  51.897  0.00  0.00    +0.000 C 
ATOM     76  O   UNL     1      62.590  61.884  52.719  0.00  0.00    +0.000 OA
ATOM     77  S   UNL     1      62.827  61.183  53.083  0.00  0.00    +0.000 S 
ATOM     78  O   UNL     1      62.892  60.822  52.345  0.00  0.00    +0.000 OA
ATOM     79  O   UNL     1      62.763  61.545  53.822  0.00  0.00    +0.000 OA
ATOM     80  O   UNL     1      63.066  60.483  53.448  0.00  0.00    +0.000 OA
ATOM     81  C   UNL     1      62.337  62.031  49.432  0.00  0.00    +0.000 C 
ATOM     82  O   UNL     1      62.512  61.367  48.974  0.00  0.00    +0.000 OA
ATOM     83  O   UNL     1      62.099  62.733  49.067  0.00  0.00    +0.000 OA
ATOM     84  C   UNL     1      63.051  59.929  50.525  0.00  0.00    +0.000 C 
ATOM     85  O   UNL     1      62.813  60.629  50.160  0.00  0.00    +0.000 OA
ATOM     86  C   UNL     1      63.226  59.265  50.067  0.00  0.00    +0.000 C 
ATOM     87  N   UNL     1      63.163  59.302  49.246  0.00  0.00    +0.000 NA
ATOM     88  S   UNL     1      63.338  58.638  48.789  0.00  0.00    +0.000 S 
ATOM     89  O   UNL     1      63.513  57.974  48.331  0.00  0.00    +0.000 OA
ATOM     90  O   UNL     1      63.512  58.213  49.474  0.00  0.00    +0.000 OA
ATOM     91  O   UNL     1      63.164  59.064  48.104  0.00  0.00    +0.000 OA
ENDROOT
TORSDOF 0
ENDMDL
MODEL 6
REMARK VINA RESULT:   -19.968      1.583      9.667
REMARK INTER + INTRA:         -19.968
REMARK INTER:                 -19.968
REMARK INTRA:                   0.000
REMARK UNBOUND:                 0.000
ROOT
REMARK  Name = fondaparinux
REMARK                            x       y       z     vdW  Elec       q    Type
REMARK                         _______ _______ _______ _____ _____    ______ ____
ATOM      1  C   UNL     1      64.249  60.015  50.289  0.00  0.00    +0.000 C 
ATOM      2  O   UNL     1      63.950  60.702  49.945  0.00  0.00    +0.000 OA
ATOM      3  C   UNL     1      63.690  61.322  50.421  0.00  0.00    +0.000 C 
ATOM      4  O   UNL     1      63.728  61.257  51.243  0.00  0.00    +0.000 OA
ATOM      5  C   UNL     1      63.468  61.878  51.719  0.00  0.00    +0.000 C 
ATOM      6  C   UNL     1      63.507  61.811  52.541  0.00  0.00    +0.000 C 
ATOM      7  O   UNL     1      63.246  62.432  53.017  0.00  0.00    +0.000 OA
ATOM      8  S   UNL     1      63.285  62.366  53.839  0.00  0.00    +0.000 S 
ATOM      9  O   UNL     1      62.962  63.121  53.915  0.00  0.00    +0.000 OA
ATOM     10  O   UNL     1      63.608  61.610  53.763  0.00  0.00    +0.000 OA
ATOM     11  O   UNL     1      63.323  62.300  54.661  0.00  0.00    +0.000 OA
ATOM     12  C   UNL     1      63.170  62.564  51.375  0.00  0.00    +0.000 C 
ATOM     13  O   UNL     1      62.909  63.186  51.851  0.00  0.00    +0.000 OA
ATOM     14  C   UNL     1      62.610  63.874  51.506  0.00  0.00    +0.000 C 
ATOM     15  O   UNL     1      62.572  63.939  50.685  0.00  0.00    +0.000 OA
ATOM     16  C   UNL     1      62.273  64.627  50.340  0.00  0.00    +0.000 C 
ATOM     17  C   UNL     1      62.013  65.248  50.817  0.00  0.00    +0.000 C 
ATOM     18  O   UNL     1      61.715  65.935  50.472  0.00  0.00    +0.000 OA
ATOM     19  C   UNL     1      61.454  66.557  50.949  0.00  0.00    +0.000 C 
ATOM     20  O   UNL     1      61.492  66.490  51.770  0.00  0.00    +0.000 OA
ATOM     21  C   UNL     1      61.232  67.112  52.247  0.00  0.00    +0.000 C 
ATOM     22  C   UNL     1      61.271  67.044  53.068  0.00  0.00    +0.000 C 
ATOM     23  O   UNL     1      61.569  66.358  53.413  0.00  0.00    +0.000 OA
ATOM     24  S   UNL     1      61.608  66.291  54.234  0.00  0.00    +0.000 S 
ATOM     25  O   UNL     1      61.646  66.225  55.056  0.00  0.00    +0.000 OA
ATOM     26  O   UNL     1      61.285  67.047  54.310  0.00  0.00    +0.000 OA
ATOM     27  O   UNL     1      61.930  65.536  54.158  0.00  0.00    +0.000 OA
ATOM     28  C   UNL     1      60.934  67.798  51.902  0.00  0.00    +0.000 C 
ATOM     29  O   UNL     1      60.673  68.419  52.379  0.00  0.00    +0.000 OA
ATOM     30  C   UNL     1      60.374  69.107  52.034  0.00  0.00    +0.000 C 
ATOM     31  O   UNL     1      60.336  69.173  51.212  0.00  0.00    +0.000 OA
ATOM     32  C   UNL     1      60.037  69.861  50.867  0.00  0.00    +0.000 C 
ATOM     33  C   UNL     1      59.777  70.482  51.344  0.00  0.00    +0.000 C 
ATOM     34  O   UNL     1      59.478  71.170  51.000  0.00  0.00    +0.000 OA
ATOM     35  C   UNL     1      59.218  71.790  51.476  0.00  0.00    +0.000 C 
ATOM     36  O   UNL     1      59.256  71.724  52.297  0.00  0.00    +0.000 OA
ATOM     37  C   UNL     1      58.996  72.345  52.774  0.00  0.00    +0.000 C 
ATOM     38  C   UNL     1      59.035  72.278  53.595  0.00  0.00    +0.000 C 
ATOM     39  O   UNL     1      58.774  72.900  54.073  0.00  0.00    +0.000 OA
ATOM     40  S   UNL     1      58.813  72.834  54.893  0.00  0.00    +0.000 S 
ATOM     41  O   UNL     1      58.490  73.589  54.970  0.00  0.00    +0.000 OA
ATOM     42  O   UNL     1      59.136  72.078  54.817  0.00  0.00    +0.000 OA
ATOM     43  O   UNL     1      58.851  72.767  55.716  0.00  0.00    +0.000 OA
ATOM     44  C   UNL     1      58.698  73.032  52.429  0.00  0.00    +0.000 C 
ATOM     45  O   UNL     1      58.437  73.654  52.906  0.00  0.00    +0.000 OA
ATOM     46  C   UNL     1      58.659  73.099  51.608  0.00  0.00    +0.000 C 
ATOM     47  O   UNL     1      58.361  73.786  51.263  0.00  0.00    +0.000 OA
ATOM     48  C   UNL     1      58.919  72.478  51.132  0.00  0.00    +0.000 C 
ATOM     49  N   UNL     1      58.881  72.544  50.310  0.00  0.00    +0.000 NA
ATOM     50  S   UNL     1      58.582  73.232  49.965  0.00  0.00    +0.000 S 
ATOM     51  O   UNL     1      58.454  73.552  50.714  0.00  0.00    +0.000 OA
ATOM     52  O   UNL     1      58.284  73.919  49.620  0.00  0.00    +0.000 OA
ATOM     53  O   UNL     1      58.710  72.912  49.216  0.00  0.00    +0.000 OA
ATOM     54  C   UNL     1      59.815  70.416  52.166  0.00  0.00    +0.000 C 
ATOM     55  O   UNL     1      59.555  71.036  52.642  0.00  0.00    +0.000 OA
ATOM     56  C   UNL     1      60.114  69.728  52.510  0.00  0.00    +0.000 C 
ATOM     57  O   UNL     1      60.152  69.662  53.332  0.00  0.00    +0.000 OA
ATOM     58  C   UNL     1      59.999  69.927  50.046  0.00  0.00    +0.000 C 
ATOM     59  O   UNL     1      59.700  70.614  49.702  0.00  0.00    +0.000 OA
ATOM     60  O   UNL     1      60.259  69.306  49.569  0.00  0.00    +0.000 OA
ATOM     61  C   UNL     1      60.895  67.865  51.080  0.00  0.00    +0.000 C 
ATOM     62  O   UNL     1      60.597  68.552  50.736  0.00  0.00    +0.000 OA
ATOM     63  S   UNL     1      60.558  68.619  49.914  0.00  0.00    +0.000 S 
ATOM     64  O   UNL     1      60.881  67.864  49.839  0.00  0.00    +0.000 OA
ATOM     65  O   UNL     1      60.235  69.375  49.991  0.00  0.00    +0.000 OA
ATOM     66  O   UNL     1      60.519  68.686  49.093  0.00  0.00    +0.000 OA
ATOM     67  C   UNL     1      61.155  67.244  50.604  0.00  0.00    +0.000 C 
ATOM     68  N   UNL     1      61.117  67.311  49.783  0.00  0.00    +0.000 NA
ATOM     69  S   UNL     1      61.377  66.689  49.306  0.00  0.00    +0.000 S 
ATOM     70  O   UNL     1      61.183  67.124  48.632  0.00  0.00    +0.000 OA
ATOM     71  O   UNL     1      61.637  66.069  48.830  0.00  0.00    +0.000 OA
ATOM     72  O   UNL     1      61.572  66.254  49.979  0.00  0.00    +0.000 OA
ATOM     73  C   UNL     1      62.052  65.181  51.638  0.00  0.00    +0.000 C 
ATOM     74  O   UNL     1      61.791  65.803  52.115  0.00  0.00    +0.000 OA
ATOM     75  C   UNL     1      62.350  64.495  51.983  0.00  0.00    +0.000 C 
ATOM     76  O   UNL     1      62.389  64.428  52.805  0.00  0.00    +0.000 OA
ATOM     77  S   UNL     1      62.687  63.741  53.149  0.00  0.00    +0.000 S 
ATOM     78  O   UNL     1      62.815  63.421  52.400  0.00  0.00    +0.000 OA
ATOM     79  O   UNL     1      62.559  64.060  53.899  0.00  0.00    +0.000 OA
ATOM     80  O   UNL     1      62.986  63.053  53.495  0.00  0.00    +0.000 OA
ATOM     81  C   UNL     1      62.235  64.693  49.519  0.00  0.00    +0.000 C 
ATOM     82  O   UNL     1      62.495  64.072  49.042  0.00  0.00    +0.000 OA
ATOM     83  O   UNL     1      61.936  65.381  49.174  0.00  0.00    +0.000 OA
ATOM     84  C   UNL     1      63.131  62.631  50.553  0.00  0.00    +0.000 C 
ATOM     85  O   UNL     1      62.833  63.318  50.208  0.00  0.00    +0.000 OA
ATOM     86  C   UNL     1      63.391  62.010  50.076  0.00  0.00    +0.000 C 
ATOM     87  N   UNL     1      63.353  62.076  49.255  0.00  0.00    +0.000 NA
ATOM     88  S   UNL     1      63.613  61.456  48.779  0.00  0.00    +0.000 S 
ATOM     89  O   UNL     1      63.873  60.835  48.302  0.00  0.00    +0.000 OA
ATOM     90  O   UNL     1      63.808  61.021  49.452  0.00  0.00    +0.000 OA
ATOM     91  O   UNL     1      63.418  61.891  48.106  0.00  0.00    +0.000 OA
ENDROOT
TORSDOF 0
ENDMDL
MODEL 7
REMARK VINA RESULT:   -19.459      1.687      8.727
REMARK INTER + INTRA:         -19.459
REMARK INTER:                 -19.459
REMARK INTRA:                   0.000
REMARK UNBOUND:                 0.000
ROOT
REMARK  Name = fondaparinux
REMARK                            x       y       z     vdW  Elec       q    Type
REMARK                         _______ _______ _______ _____ _____    ______ ____
ATOM      1  C   UNL     1      62.152  57.128  50.144  0.00  0.00    +0.000 C 
ATOM      2  O   UNL     1      62.381  57.736  50.652  0.00  0.00    +0.000 OA
ATOM      3  C   UNL     1      62.042  58.483  50.580  0.00  0.00    +0.000 C 
ATOM      4  O   UNL     1      61.472  58.624  50.000  0.00  0.00    +0.000 OA
ATOM      5  C   UNL     1      61.132  59.372  49.927  0.00  0.00    +0.000 C 
ATOM      6  C   UNL     1      60.562  59.511  49.347  0.00  0.00    +0.000 C 
ATOM      7  O   UNL     1      60.222  60.259  49.274  0.00  0.00    +0.000 OA
ATOM      8  S   UNL     1      59.653  60.400  48.694  0.00  0.00    +0.000 S 
ATOM      9  O   UNL     1      59.589  61.182  48.946  0.00  0.00    +0.000 OA
ATOM     10  O   UNL     1      59.717  59.616  48.443  0.00  0.00    +0.000 OA
ATOM     11  O   UNL     1      59.083  60.540  48.114  0.00  0.00    +0.000 OA
ATOM     12  C   UNL     1      61.361  59.980  50.435  0.00  0.00    +0.000 C 
ATOM     13  O   UNL     1      61.021  60.728  50.363  0.00  0.00    +0.000 OA
ATOM     14  C   UNL     1      61.251  61.337  50.871  0.00  0.00    +0.000 C 
ATOM     15  O   UNL     1      61.820  61.196  51.451  0.00  0.00    +0.000 OA
ATOM     16  C   UNL     1      62.050  61.805  51.959  0.00  0.00    +0.000 C 
ATOM     17  C   UNL     1      61.709  62.553  51.887  0.00  0.00    +0.000 C 
ATOM     18  O   UNL     1      61.939  63.161  52.395  0.00  0.00    +0.000 OA
ATOM     19  C   UNL     1      61.598  63.910  52.322  0.00  0.00    +0.000 C 
ATOM     20  O   UNL     1      61.029  64.050  51.742  0.00  0.00    +0.000 OA
ATOM     21  C   UNL     1      60.689  64.798  51.670  0.00  0.00    +0.000 C 
ATOM     22  C   UNL     1      60.120  64.937  51.089  0.00  0.00    +0.000 C 
ATOM     23  O   UNL     1      59.890  64.329  50.582  0.00  0.00    +0.000 OA
ATOM     24  S   UNL     1      59.321  64.469  50.001  0.00  0.00    +0.000 S 
ATOM     25  O   UNL     1      58.751  64.609  49.421  0.00  0.00    +0.000 OA
ATOM     26  O   UNL     1      59.257  65.252  50.253  0.00  0.00    +0.000 OA
ATOM     27  O   UNL     1      59.385  63.686  49.750  0.00  0.00    +0.000 OA
ATOM     28  C   UNL     1      60.918  65.405  52.178  0.00  0.00    +0.000 C 
ATOM     29  O   UNL     1      60.578  66.153  52.105  0.00  0.00    +0.000 OA
ATOM     30  C   UNL     1      60.808  66.762  52.614  0.00  0.00    +0.000 C 
ATOM     31  O   UNL     1      61.377  66.622  53.194  0.00  0.00    +0.000 OA
ATOM     32  C   UNL     1      61.607  67.231  53.702  0.00  0.00    +0.000 C 
ATOM     33  C   UNL     1      61.267  67.979  53.630  0.00  0.00    +0.000 C 
ATOM     34  O   UNL     1      61.496  68.587  54.137  0.00  0.00    +0.000 OA
ATOM     35  C   UNL     1      61.156  69.335  54.065  0.00  0.00    +0.000 C 
ATOM     36  O   UNL     1      60.586  69.475  53.485  0.00  0.00    +0.000 OA
ATOM     37  C   UNL     1      60.246  70.223  53.413  0.00  0.00    +0.000 C 
ATOM     38  C   UNL     1      59.677  70.363  52.832  0.00  0.00    +0.000 C 
ATOM     39  O   UNL     1      59.336  71.112  52.760  0.00  0.00    +0.000 OA
ATOM     40  S   UNL     1      58.767  71.251  52.180  0.00  0.00    +0.000 S 
ATOM     41  O   UNL     1      58.703  72.035  52.431  0.00  0.00    +0.000 OA
ATOM     42  O   UNL     1      58.831  70.467  51.928  0.00  0.00    +0.000 OA
ATOM     43  O   UNL     1      58.197  71.391  51.599  0.00  0.00    +0.000 OA
ATOM     44  C   UNL     1      60.476  70.831  53.920  0.00  0.00    +0.000 C 
ATOM     45  O   UNL     1      60.135  71.580  53.848  0.00  0.00    +0.000 OA
ATOM     46  C   UNL     1      61.045  70.691  54.500  0.00  0.00    +0.000 C 
ATOM     47  O   UNL     1      61.275  71.299  55.009  0.00  0.00    +0.000 OA
ATOM     48  C   UNL     1      61.385  69.943  54.573  0.00  0.00    +0.000 C 
ATOM     49  N   UNL     1      61.955  69.803  55.153  0.00  0.00    +0.000 NA
ATOM     50  S   UNL     1      62.184  70.412  55.662  0.00  0.00    +0.000 S 
ATOM     51  O   UNL     1      61.659  70.924  55.285  0.00  0.00    +0.000 OA
ATOM     52  O   UNL     1      62.414  71.020  56.169  0.00  0.00    +0.000 OA
ATOM     53  O   UNL     1      62.709  69.900  56.038  0.00  0.00    +0.000 OA
ATOM     54  C   UNL     1      60.697  68.119  53.049  0.00  0.00    +0.000 C 
ATOM     55  O   UNL     1      60.357  68.866  52.977  0.00  0.00    +0.000 OA
ATOM     56  C   UNL     1      60.468  67.511  52.541  0.00  0.00    +0.000 C 
ATOM     57  O   UNL     1      59.898  67.651  51.961  0.00  0.00    +0.000 OA
ATOM     58  C   UNL     1      62.176  67.090  54.282  0.00  0.00    +0.000 C 
ATOM     59  O   UNL     1      62.405  67.699  54.790  0.00  0.00    +0.000 OA
ATOM     60  O   UNL     1      62.516  66.342  54.354  0.00  0.00    +0.000 OA
ATOM     61  C   UNL     1      61.488  65.266  52.758  0.00  0.00    +0.000 C 
ATOM     62  O   UNL     1      61.717  65.874  53.266  0.00  0.00    +0.000 OA
ATOM     63  S   UNL     1      62.287  65.734  53.847  0.00  0.00    +0.000 S 
ATOM     64  O   UNL     1      62.350  64.952  53.595  0.00  0.00    +0.000 OA
ATOM     65  O   UNL     1      62.223  66.518  54.098  0.00  0.00    +0.000 OA
ATOM     66  O   UNL     1      62.856  65.595  54.427  0.00  0.00    +0.000 OA
ATOM     67  C   UNL     1      61.828  64.518  52.831  0.00  0.00    +0.000 C 
ATOM     68  N   UNL     1      62.397  64.378  53.411  0.00  0.00    +0.000 NA
ATOM     69  S   UNL     1      62.738  63.629  53.483  0.00  0.00    +0.000 S 
ATOM     70  O   UNL     1      63.199  63.900  54.111  0.00  0.00    +0.000 OA
ATOM     71  O   UNL     1      63.077  62.882  53.555  0.00  0.00    +0.000 OA
ATOM     72  O   UNL     1      62.276  63.359  52.855  0.00  0.00    +0.000 OA
ATOM     73  C   UNL     1      61.140  62.693  51.306  0.00  0.00    +0.000 C 
ATOM     74  O   UNL     1      60.799  63.442  51.234  0.00  0.00    +0.000 OA
ATOM     75  C   UNL     1      60.911  62.085  50.799  0.00  0.00    +0.000 C 
ATOM     76  O   UNL     1      60.341  62.224  50.218  0.00  0.00    +0.000 OA
ATOM     77  S   UNL     1      60.112  61.616  49.710  0.00  0.00    +0.000 S 
ATOM     78  O   UNL     1      60.636  61.104  50.087  0.00  0.00    +0.000 OA
ATOM     79  O   UNL     1      59.586  62.129  49.333  0.00  0.00    +0.000 OA
ATOM     80  O   UNL     1      59.882  61.008  49.202  0.00  0.00    +0.000 OA
ATOM     81  C   UNL     1      62.619  61.665  52.539  0.00  0.00    +0.000 C 
ATOM     82  O   UNL     1      62.959  60.916  52.612  0.00  0.00    +0.000 OA
ATOM     83  O   UNL     1      62.849  62.274  53.048  0.00  0.00    +0.000 OA
ATOM     84  C   UNL     1      61.931  59.840  51.016  0.00  0.00    +0.000 C 
ATOM     85  O   UNL     1      62.160  60.448  51.523  0.00  0.00    +0.000 OA
ATOM     86  C   UNL     1      62.271  59.092  51.088  0.00  0.00    +0.000 C 
ATOM     87  N   UNL     1      62.840  58.952  51.668  0.00  0.00    +0.000 NA
ATOM     88  S   UNL     1      63.180  58.205  51.740  0.00  0.00    +0.000 S 
ATOM     89  O   UNL     1      63.520  57.456  51.813  0.00  0.00    +0.000 OA
ATOM     90  O   UNL     1      62.719  57.934  51.112  0.00  0.00    +0.000 OA
ATOM     91  O   UNL     1      63.641  58.475  52.369  0.00  0.00    +0.000 OA
ENDROOT
TORSDOF 0
ENDMDL
