MODEL 1
REMARK VINA RESULT:   -12.476      0.000      0.000
REMARK INTER + INTRA:         -12.476
REMARK INTER:                 -12.476
REMARK INTRA:                   0.000
REMARK UNBOUND:                 0.000
ROOT
REMARK  Name = formoterol
REMARK                            x       y       z     vdW  Elec       q    Type
REMARK                         _______ _______ _______ _____ _____    ______ ____
ATOM      1  C   UNL     1      60.657  60.385  63.317  0.00  0.00    +0.000 C 
ATOM      2  O   UNL     1      61.262  60.947  63.287  0.00  0.00    +0.000 OA
ATOM      3  C   UNL     1      61.454  61.382  63.962  0.00  0.00    +0.000 A 
ATOM      4  C   UNL     1      62.058  61.943  63.933  0.00  0.00    +0.000 A 
ATOM      5  C   UNL     1      62.251  62.378  64.608  0.00  0.00    +0.000 A 
ATOM      6  C   UNL     1      61.839  62.250  65.311  0.00  0.00    +0.000 A 
ATOM      7  C   UNL     1      62.032  62.685  65.985  0.00  0.00    +0.000 C 
ATOM      8  C   UNL     1      61.620  62.558  66.689  0.00  0.00    +0.000 C 
ATOM      9  C   UNL     1      61.016  61.997  66.719  0.00  0.00    +0.000 C 
ATOM     10  N   UNL     1      61.813  62.993  67.363  0.00  0.00    +0.000 NA
ATOM     11  C   UNL     1      61.401  62.866  68.068  0.00  0.00    +0.000 C 
ATOM     12  C   UNL     1      61.594  63.300  68.742  0.00  0.00    +0.000 C 
ATOM     13  O   UNL     1      62.197  63.861  68.712  0.00  0.00    +0.000 OA
ATOM     14  C   UNL     1      61.182  63.173  69.446  0.00  0.00    +0.000 A 
ATOM     15  C   UNL     1      61.375  63.608  70.120  0.00  0.00    +0.000 A 
ATOM     16  C   UNL     1      60.963  63.481  70.824  0.00  0.00    +0.000 A 
ATOM     17  N   UNL     1      61.156  63.915  71.498  0.00  0.00    +0.000 NA
ATOM     18  C   UNL     1      60.744  63.788  72.202  0.00  0.00    +0.000 C 
ATOM     19  O   UNL     1      60.937  64.223  72.876  0.00  0.00    +0.000 OA
ATOM     20  C   UNL     1      60.359  62.920  70.853  0.00  0.00    +0.000 A 
ATOM     21  O   UNL     1      59.948  62.793  71.557  0.00  0.00    +0.000 OA
ATOM     22  C   UNL     1      60.167  62.485  70.178  0.00  0.00    +0.000 A 
ATOM     23  C   UNL     1      60.578  62.612  69.475  0.00  0.00    +0.000 A 
ATOM     24  C   UNL     1      61.235  61.689  65.341  0.00  0.00    +0.000 A 
ATOM     25  C   UNL     1      61.043  61.255  64.667  0.00  0.00    +0.000 A 
ENDROOT
TORSDOF 0
ENDMDL
MODEL 2
REMARK VINA RESULT:   -11.927      1.239      1.832
REMARK INTER + INTRA:         -11.927
REMARK INTER:                 -11.927
REMARK INTRA:                   0.000
REMARK UNBOUND:                 0.000
ROOT
REMARK  Name = formoterol
REMARK                            x       y       z     vdW  Elec       q    Type
REMARK                         _______ _______ _______ _____ _____    ______ ____
ATOM      1  C   UNL     1      62.068  61.425  63.604  0.00  0.00    +0.000 C 
ATOM      2  O   UNL     1      61.296  61.294  63.866  0.00  0.00    +0.000 OA
ATOM      3  C   UNL     1      61.067  61.543  64.619  0.00  0.00    +0.000 A 
ATOM      4  C   UNL     1      60.296  61.412  64.880  0.00  0.00    +0.000 A 
ATOM      5  C   UNL     1      60.067  61.661  65.633  0.00  0.00    +0.000 A 
ATOM      6  C   UNL     1      60.610  62.041  66.124  0.00  0.00    +0.000 A 
ATOM      7  C   UNL     1      60.381  62.289  66.876  0.00  0.00    +0.000 C 
ATOM      8  C   UNL     1      60.924  62.670  67.368  0.00  0.00    +0.000 C 
ATOM      9  C   UNL     1      61.695  62.801  67.107  0.00  0.00    +0.000 C 
ATOM     10  N   UNL     1      60.695  62.919  68.120  0.00  0.00    +0.000 NA
ATOM     11  C   UNL     1      61.238  63.299  68.612  0.00  0.00    +0.000 C 
ATOM     12  C   UNL     1      61.009  63.548  69.364  0.00  0.00    +0.000 C 
ATOM     13  O   UNL     1      60.238  63.417  69.625  0.00  0.00    +0.000 OA
ATOM     14  C   UNL     1      61.552  63.928  69.856  0.00  0.00    +0.000 A 
ATOM     15  C   UNL     1      61.323  64.177  70.608  0.00  0.00    +0.000 A 
ATOM     16  C   UNL     1      61.866  64.558  71.100  0.00  0.00    +0.000 A 
ATOM     17  N   UNL     1      61.637  64.806  71.852  0.00  0.00    +0.000 NA
ATOM     18  C   UNL     1      62.180  65.187  72.344  0.00  0.00    +0.000 C 
ATOM     19  O   UNL     1      61.951  65.435  73.096  0.00  0.00    +0.000 OA
ATOM     20  C   UNL     1      62.637  64.689  70.839  0.00  0.00    +0.000 A 
ATOM     21  O   UNL     1      63.180  65.069  71.330  0.00  0.00    +0.000 OA
ATOM     22  C   UNL     1      62.866  64.440  70.086  0.00  0.00    +0.000 A 
ATOM     23  C   UNL     1      62.323  64.060  69.595  0.00  0.00    +0.000 A 
ATOM     24  C   UNL     1      61.381  62.172  65.863  0.00  0.00    +0.000 A 
ATOM     25  C   UNL     1      61.610  61.923  65.111  0.00  0.00    +0.000 A 
ENDROOT
TORSDOF 0
ENDMDL
MODEL 3
REMARK VINA RESULT:   -11.517      3.282      4.425
REMARK INTER + INTRA:         -11.517
REMARK INTER:                 -11.517
REMARK INTRA:                   0.000
REMARK UNBOUND:                 0.000
ROOT
REMARK  Name = formoterol
REMARK                            x       y       z     vdW  Elec       q    Type
REMARK                         _______ _______ _______ _____ _____    ______ ____
ATOM      1  C   UNL     1      59.667  62.343  66.133  0.00  0.00    +0.000 C 
ATOM      2  O   UNL     1      59.557  62.012  66.882  0.00  0.00    +0.000 OA
ATOM      3  C   UNL     1      60.019  62.268  67.517  0.00  0.00    +0.000 A 
ATOM      4  C   UNL     1      59.910  61.937  68.265  0.00  0.00    +0.000 A 
ATOM      5  C   UNL     1      60.371  62.192  68.900  0.00  0.00    +0.000 A 
ATOM      6  C   UNL     1      60.941  62.777  68.786  0.00  0.00    +0.000 A 
ATOM      7  C   UNL     1      61.402  63.032  69.421  0.00  0.00    +0.000 C 
ATOM      8  C   UNL     1      61.973  63.617  69.308  0.00  0.00    +0.000 C 
ATOM      9  C   UNL     1      62.082  63.948  68.560  0.00  0.00    +0.000 C 
ATOM     10  N   UNL     1      62.434  63.872  69.943  0.00  0.00    +0.000 NA
ATOM     11  C   UNL     1      63.005  64.457  69.829  0.00  0.00    +0.000 C 
ATOM     12  C   UNL     1      63.466  64.712  70.464  0.00  0.00    +0.000 C 
ATOM     13  O   UNL     1      63.357  64.382  71.211  0.00  0.00    +0.000 OA
ATOM     14  C   UNL     1      64.037  65.297  70.351  0.00  0.00    +0.000 A 
ATOM     15  C   UNL     1      64.497  65.552  70.986  0.00  0.00    +0.000 A 
ATOM     16  C   UNL     1      65.068  66.138  70.872  0.00  0.00    +0.000 A 
ATOM     17  N   UNL     1      65.529  66.392  71.507  0.00  0.00    +0.000 NA
ATOM     18  C   UNL     1      66.100  66.978  71.394  0.00  0.00    +0.000 C 
ATOM     19  O   UNL     1      66.561  67.232  72.029  0.00  0.00    +0.000 OA
ATOM     20  C   UNL     1      65.177  66.468  70.124  0.00  0.00    +0.000 A 
ATOM     21  O   UNL     1      65.748  67.053  70.011  0.00  0.00    +0.000 OA
ATOM     22  C   UNL     1      64.716  66.212  69.490  0.00  0.00    +0.000 A 
ATOM     23  C   UNL     1      64.146  65.628  69.603  0.00  0.00    +0.000 A 
ATOM     24  C   UNL     1      61.051  63.108  68.038  0.00  0.00    +0.000 A 
ATOM     25  C   UNL     1      60.590  62.853  67.404  0.00  0.00    +0.000 A 
ENDROOT
TORSDOF 0
ENDMDL
MODEL 4
REMARK VINA RESULT:   -10.297      2.035      2.624
REMARK INTER + INTRA:         -10.297
REMARK INTER:                 -10.297
REMARK INTRA:                   0.000
REMARK UNBOUND:                 0.000
ROOT
REMARK  Name = formoterol
REMARK                            x       y       z     vdW  Elec       q    Type
REMARK                         _______ _______ _______ _____ _____    ______ ____
ATOM      1  C   UNL     1      62.198  60.409  66.231  0.00  0.00    +0.000 C 
ATOM      2  O   UNL     1      61.953  61.057  65.781  0.00  0.00    +0.000 OA
ATOM      3  C   UNL     1      61.623  61.715  66.152  0.00  0.00    +0.000 A 
ATOM      4  C   UNL     1      61.378  62.362  65.703  0.00  0.00    +0.000 A 
ATOM      5  C   UNL     1      61.048  63.022  66.074  0.00  0.00    +0.000 A 
ATOM      6  C   UNL     1      60.962  63.033  66.894  0.00  0.00    +0.000 A 
ATOM      7  C   UNL     1      60.632  63.691  67.265  0.00  0.00    +0.000 C 
ATOM      8  C   UNL     1      60.546  63.703  68.086  0.00  0.00    +0.000 C 
ATOM      9  C   UNL     1      60.791  63.056  68.535  0.00  0.00    +0.000 C 
ATOM     10  N   UNL     1      60.216  64.362  68.456  0.00  0.00    +0.000 NA
ATOM     11  C   UNL     1      60.130  64.373  69.277  0.00  0.00    +0.000 C 
ATOM     12  C   UNL     1      59.800  65.032  69.648  0.00  0.00    +0.000 C 
ATOM     13  O   UNL     1      59.556  65.678  69.199  0.00  0.00    +0.000 OA
ATOM     14  C   UNL     1      59.714  65.044  70.469  0.00  0.00    +0.000 A 
ATOM     15  C   UNL     1      59.384  65.702  70.839  0.00  0.00    +0.000 A 
ATOM     16  C   UNL     1      59.298  65.714  71.660  0.00  0.00    +0.000 A 
ATOM     17  N   UNL     1      58.968  66.373  72.031  0.00  0.00    +0.000 NA
ATOM     18  C   UNL     1      58.882  66.384  72.852  0.00  0.00    +0.000 C 
ATOM     19  O   UNL     1      58.552  67.043  73.222  0.00  0.00    +0.000 OA
ATOM     20  C   UNL     1      59.543  65.067  72.110  0.00  0.00    +0.000 A 
ATOM     21  O   UNL     1      59.457  65.078  72.930  0.00  0.00    +0.000 OA
ATOM     22  C   UNL     1      59.873  64.408  71.738  0.00  0.00    +0.000 A 
ATOM     23  C   UNL     1      59.959  64.396  70.918  0.00  0.00    +0.000 A 
ATOM     24  C   UNL     1      61.207  62.385  67.344  0.00  0.00    +0.000 A 
ATOM     25  C   UNL     1      61.537  61.727  66.973  0.00  0.00    +0.000 A 
ENDROOT
TORSDOF 0
ENDMDL
