MODEL 1
REMARK VINA RESULT:    -9.128      0.000      0.000
REMARK INTER + INTRA:          -9.128
REMARK INTER:                  -9.128
REMARK INTRA:                   0.000
REMARK UNBOUND:                 0.000
ROOT
REMARK  Name = forodesine
REMARK                            x       y       z     vdW  Elec       q    Type
REMARK                         _______ _______ _______ _____ _____    ______ ____
ATOM      1  O   UNK     1      61.717  64.214  69.149  0.00  0.00    +0.000 OA
ATOM      2  C   UNK     1      61.928  63.868  68.430  0.00  0.00    +0.000 C 
ATOM      3  C   UNK     1      61.360  63.473  67.980  0.00  0.00    +0.000 C 
ATOM      4  N   UNK     1      61.488  63.102  67.255  0.00  0.00    +0.000 NA
ATOM      5  C   UNK     1      60.772  62.780  67.002  0.00  0.00    +0.000 C 
ATOM      6  C   UNK     1      60.201  62.952  67.572  0.00  0.00    +0.000 C 
ATOM      7  O   UNK     1      59.405  62.733  67.544  0.00  0.00    +0.000 OA
ATOM      8  C   UNK     1      60.564  63.380  68.177  0.00  0.00    +0.000 C 
ATOM      9  O   UNK     1      60.196  63.665  68.858  0.00  0.00    +0.000 OA
ATOM     10  C   UNK     1      60.649  62.360  66.304  0.00  0.00    +0.000 C 
ATOM     11  C   UNK     1      59.932  62.037  66.051  0.00  0.00    +0.000 C 
ATOM     12  N   UNK     1      60.060  61.667  65.326  0.00  0.00    +0.000 NA
ATOM     13  C   UNK     1      60.856  61.760  65.130  0.00  0.00    +0.000 C 
ATOM     14  C   UNK     1      61.219  62.188  65.734  0.00  0.00    +0.000 C 
ATOM     15  N   UNK     1      62.024  62.366  65.686  0.00  0.00    +0.000 NA
ATOM     16  C   UNK     1      62.464  62.116  65.036  0.00  0.00    +0.000 C 
ATOM     17  N   UNK     1      62.101  61.688  64.432  0.00  0.00    +0.000 NA
ATOM     18  C   UNK     1      61.297  61.509  64.478  0.00  0.00    +0.000 C 
ATOM     19  O   UNK     1      60.933  61.081  63.874  0.00  0.00    +0.000 OA
ENDROOT
TORSDOF 0
ENDMDL
MODEL 2
REMARK VINA RESULT:    -9.044      0.885      3.559
REMARK INTER + INTRA:          -9.044
REMARK INTER:                  -9.044
REMARK INTRA:                   0.000
REMARK UNBOUND:                 0.000
ROOT
REMARK  Name = forodesine
REMARK                            x       y       z     vdW  Elec       q    Type
REMARK                         _______ _______ _______ _____ _____    ______ ____
ATOM      1  O   UNK     1      62.439  61.625  63.662  0.00  0.00    +0.000 OA
ATOM      2  C   UNK     1      62.417  61.983  64.405  0.00  0.00    +0.000 C 
ATOM      3  C   UNK     1      61.730  61.945  64.861  0.00  0.00    +0.000 C 
ATOM      4  N   UNK     1      61.625  62.274  65.609  0.00  0.00    +0.000 NA
ATOM      5  C   UNK     1      60.858  62.104  65.859  0.00  0.00    +0.000 C 
ATOM      6  C   UNK     1      60.487  61.668  65.264  0.00  0.00    +0.000 C 
ATOM      7  O   UNK     1      59.714  61.381  65.282  0.00  0.00    +0.000 OA
ATOM      8  C   UNK     1      61.026  61.570  64.647  0.00  0.00    +0.000 C 
ATOM      9  O   UNK     1      60.886  61.167  63.940  0.00  0.00    +0.000 OA
ATOM     10  C   UNK     1      60.520  62.328  66.577  0.00  0.00    +0.000 C 
ATOM     11  C   UNK     1      59.752  62.158  66.826  0.00  0.00    +0.000 C 
ATOM     12  N   UNK     1      59.648  62.487  67.575  0.00  0.00    +0.000 NA
ATOM     13  C   UNK     1      60.351  62.862  67.789  0.00  0.00    +0.000 C 
ATOM     14  C   UNK     1      60.890  62.764  67.172  0.00  0.00    +0.000 C 
ATOM     15  N   UNK     1      61.648  63.084  67.232  0.00  0.00    +0.000 NA
ATOM     16  C   UNK     1      61.867  63.501  67.908  0.00  0.00    +0.000 C 
ATOM     17  N   UNK     1      61.328  63.600  68.525  0.00  0.00    +0.000 NA
ATOM     18  C   UNK     1      60.570  63.280  68.466  0.00  0.00    +0.000 C 
ATOM     19  O   UNK     1      60.031  63.378  69.083  0.00  0.00    +0.000 OA
ENDROOT
TORSDOF 0
ENDMDL
MODEL 3
REMARK VINA RESULT:    -8.263      1.515      3.927
REMARK INTER + INTRA:          -8.263
REMARK INTER:                  -8.263
REMARK INTRA:                   0.000
REMARK UNBOUND:                 0.000
ROOT
REMARK  Name = forodesine
REMARK                            x       y       z     vdW  Elec       q    Type
REMARK                         _______ _______ _______ _____ _____    ______ ____
ATOM      1  O   UNK     1      61.681  62.387  65.065  0.00  0.00    +0.000 OA
ATOM      2  C   UNK     1      61.933  62.738  65.768  0.00  0.00    +0.000 C 
ATOM      3  C   UNK     1      61.463  62.689  66.445  0.00  0.00    +0.000 C 
ATOM      4  N   UNK     1      61.640  63.011  67.183  0.00  0.00    +0.000 NA
ATOM      5  C   UNK     1      61.020  62.831  67.696  0.00  0.00    +0.000 C 
ATOM      6  C   UNK     1      60.459  62.397  67.275  0.00  0.00    +0.000 C 
ATOM      7  O   UNK     1      59.748  62.103  67.574  0.00  0.00    +0.000 OA
ATOM      8  C   UNK     1      60.732  62.310  66.501  0.00  0.00    +0.000 C 
ATOM      9  O   UNK     1      60.343  61.913  65.891  0.00  0.00    +0.000 OA
ATOM     10  C   UNK     1      60.970  63.046  68.491  0.00  0.00    +0.000 C 
ATOM     11  C   UNK     1      60.350  62.866  69.004  0.00  0.00    +0.000 C 
ATOM     12  N   UNK     1      60.528  63.188  69.742  0.00  0.00    +0.000 NA
ATOM     13  C   UNK     1      61.258  63.567  69.685  0.00  0.00    +0.000 C 
ATOM     14  C   UNK     1      61.531  63.479  68.912  0.00  0.00    +0.000 C 
ATOM     15  N   UNK     1      62.256  63.806  68.692  0.00  0.00    +0.000 NA
ATOM     16  C   UNK     1      62.708  64.219  69.244  0.00  0.00    +0.000 C 
ATOM     17  N   UNK     1      62.434  64.307  70.018  0.00  0.00    +0.000 NA
ATOM     18  C   UNK     1      61.709  63.981  70.239  0.00  0.00    +0.000 C 
ATOM     19  O   UNK     1      61.436  64.068  71.012  0.00  0.00    +0.000 OA
ENDROOT
TORSDOF 0
ENDMDL
MODEL 4
REMARK VINA RESULT:    -8.095      5.176      6.553
REMARK INTER + INTRA:          -8.095
REMARK INTER:                  -8.095
REMARK INTRA:                   0.000
REMARK UNBOUND:                 0.000
ROOT
REMARK  Name = forodesine
REMARK                            x       y       z     vdW  Elec       q    Type
REMARK                         _______ _______ _______ _____ _____    ______ ____
ATOM      1  O   UNK     1      61.484  63.845  72.063  0.00  0.00    +0.000 OA
ATOM      2  C   UNK     1      62.059  64.437  72.087  0.00  0.00    +0.000 C 
ATOM      3  C   UNK     1      62.549  64.562  71.435  0.00  0.00    +0.000 C 
ATOM      4  N   UNK     1      63.145  65.128  71.378  0.00  0.00    +0.000 NA
ATOM      5  C   UNK     1      63.494  65.059  70.634  0.00  0.00    +0.000 C 
ATOM      6  C   UNK     1      63.113  64.449  70.231  0.00  0.00    +0.000 C 
ATOM      7  O   UNK     1      63.286  64.190  69.466  0.00  0.00    +0.000 OA
ATOM      8  C   UNK     1      62.529  64.141  70.726  0.00  0.00    +0.000 C 
ATOM      9  O   UNK     1      62.016  63.521  70.543  0.00  0.00    +0.000 OA
ATOM     10  C   UNK     1      64.114  65.519  70.345  0.00  0.00    +0.000 C 
ATOM     11  C   UNK     1      64.463  65.450  69.600  0.00  0.00    +0.000 C 
ATOM     12  N   UNK     1      65.059  66.017  69.544  0.00  0.00    +0.000 NA
ATOM     13  C   UNK     1      65.078  66.437  70.253  0.00  0.00    +0.000 C 
ATOM     14  C   UNK     1      64.494  66.130  70.748  0.00  0.00    +0.000 C 
ATOM     15  N   UNK     1      64.385  66.446  71.502  0.00  0.00    +0.000 NA
ATOM     16  C   UNK     1      64.859  67.069  71.761  0.00  0.00    +0.000 C 
ATOM     17  N   UNK     1      65.443  67.376  71.266  0.00  0.00    +0.000 NA
ATOM     18  C   UNK     1      65.553  67.061  70.512  0.00  0.00    +0.000 C 
ATOM     19  O   UNK     1      66.137  67.369  70.017  0.00  0.00    +0.000 OA
ENDROOT
TORSDOF 0
ENDMDL
MODEL 5
REMARK VINA RESULT:    -8.065      3.803      4.909
REMARK INTER + INTRA:          -8.065
REMARK INTER:                  -8.065
REMARK INTRA:                   0.000
REMARK UNBOUND:                 0.000
ROOT
REMARK  Name = forodesine
REMARK                            x       y       z     vdW  Elec       q    Type
REMARK                         _______ _______ _______ _____ _____    ______ ____
ATOM      1  O   UNK     1      59.510  67.212  69.173  0.00  0.00    +0.000 OA
ATOM      2  C   UNK     1      59.712  66.415  69.098  0.00  0.00    +0.000 C 
ATOM      3  C   UNK     1      59.721  65.928  69.765  0.00  0.00    +0.000 C 
ATOM      4  N   UNK     1      59.910  65.126  69.777  0.00  0.00    +0.000 NA
ATOM      5  C   UNK     1      59.850  64.860  70.556  0.00  0.00    +0.000 C 
ATOM      6  C   UNK     1      59.623  65.500  71.026  0.00  0.00    +0.000 C 
ATOM      7  O   UNK     1      59.498  65.483  71.841  0.00  0.00    +0.000 OA
ATOM      8  C   UNK     1      59.544  66.160  70.537  0.00  0.00    +0.000 C 
ATOM      9  O   UNK     1      59.326  66.918  70.778  0.00  0.00    +0.000 OA
ATOM     10  C   UNK     1      59.991  64.092  70.818  0.00  0.00    +0.000 C 
ATOM     11  C   UNK     1      59.930  63.826  71.598  0.00  0.00    +0.000 C 
ATOM     12  N   UNK     1      60.119  63.024  71.609  0.00  0.00    +0.000 NA
ATOM     13  C   UNK     1      60.296  62.793  70.838  0.00  0.00    +0.000 C 
ATOM     14  C   UNK     1      60.217  63.453  70.349  0.00  0.00    +0.000 C 
ATOM     15  N   UNK     1      60.361  63.385  69.539  0.00  0.00    +0.000 NA
ATOM     16  C   UNK     1      60.584  62.660  69.219  0.00  0.00    +0.000 C 
ATOM     17  N   UNK     1      60.663  62.000  69.707  0.00  0.00    +0.000 NA
ATOM     18  C   UNK     1      60.519  62.065  70.517  0.00  0.00    +0.000 C 
ATOM     19  O   UNK     1      60.599  61.405  71.005  0.00  0.00    +0.000 OA
ENDROOT
TORSDOF 0
ENDMDL
MODEL 6
REMARK VINA RESULT:    -7.975      2.982      5.200
REMARK INTER + INTRA:          -7.975
REMARK INTER:                  -7.975
REMARK INTRA:                   0.000
REMARK UNBOUND:                 0.000
ROOT
REMARK  Name = forodesine
REMARK                            x       y       z     vdW  Elec       q    Type
REMARK                         _______ _______ _______ _____ _____    ______ ____
ATOM      1  O   UNK     1      61.328  62.724  67.394  0.00  0.00    +0.000 OA
ATOM      2  C   UNK     1      61.070  63.470  67.636  0.00  0.00    +0.000 C 
ATOM      3  C   UNK     1      60.808  63.585  68.410  0.00  0.00    +0.000 C 
ATOM      4  N   UNK     1      60.536  64.294  68.730  0.00  0.00    +0.000 NA
ATOM      5  C   UNK     1      60.332  64.158  69.518  0.00  0.00    +0.000 C 
ATOM      6  C   UNK     1      60.479  63.363  69.685  0.00  0.00    +0.000 C 
ATOM      7  O   UNK     1      60.354  62.989  70.410  0.00  0.00    +0.000 OA
ATOM      8  C   UNK     1      60.773  63.009  69.001  0.00  0.00    +0.000 C 
ATOM      9  O   UNK     1      60.994  62.218  68.921  0.00  0.00    +0.000 OA
ATOM     10  C   UNK     1      60.034  64.718  70.045  0.00  0.00    +0.000 C 
ATOM     11  C   UNK     1      59.831  64.581  70.833  0.00  0.00    +0.000 C 
ATOM     12  N   UNK     1      59.558  65.291  71.153  0.00  0.00    +0.000 NA
ATOM     13  C   UNK     1      59.593  65.866  70.563  0.00  0.00    +0.000 C 
ATOM     14  C   UNK     1      59.887  65.511  69.878  0.00  0.00    +0.000 C 
ATOM     15  N   UNK     1      59.983  65.959  69.191  0.00  0.00    +0.000 NA
ATOM     16  C   UNK     1      59.786  66.759  69.188  0.00  0.00    +0.000 C 
ATOM     17  N   UNK     1      59.491  67.113  69.873  0.00  0.00    +0.000 NA
ATOM     18  C   UNK     1      59.395  66.667  70.560  0.00  0.00    +0.000 C 
ATOM     19  O   UNK     1      59.101  67.022  71.244  0.00  0.00    +0.000 OA
ENDROOT
TORSDOF 0
ENDMDL
MODEL 7
REMARK VINA RESULT:    -7.929      2.530      3.634
REMARK INTER + INTRA:          -7.929
REMARK INTER:                  -7.929
REMARK INTRA:                   0.000
REMARK UNBOUND:                 0.000
ROOT
REMARK  Name = forodesine
REMARK                            x       y       z     vdW  Elec       q    Type
REMARK                         _______ _______ _______ _____ _____    ______ ____
ATOM      1  O   UNK     1      62.015  64.259  72.684  0.00  0.00    +0.000 OA
ATOM      2  C   UNK     1      61.907  64.274  71.866  0.00  0.00    +0.000 C 
ATOM      3  C   UNK     1      61.553  63.633  71.485  0.00  0.00    +0.000 C 
ATOM      4  N   UNK     1      61.409  63.569  70.676  0.00  0.00    +0.000 NA
ATOM      5  C   UNK     1      61.048  62.841  70.537  0.00  0.00    +0.000 C 
ATOM      6  C   UNK     1      60.968  62.454  71.261  0.00  0.00    +0.000 C 
ATOM      7  O   UNK     1      60.635  61.708  71.380  0.00  0.00    +0.000 OA
ATOM      8  C   UNK     1      61.280  62.944  71.847  0.00  0.00    +0.000 C 
ATOM      9  O   UNK     1      61.314  62.773  72.654  0.00  0.00    +0.000 OA
ATOM     10  C   UNK     1      60.808  62.550  69.803  0.00  0.00    +0.000 C 
ATOM     11  C   UNK     1      60.447  61.821  69.665  0.00  0.00    +0.000 C 
ATOM     12  N   UNK     1      60.303  61.758  68.855  0.00  0.00    +0.000 NA
ATOM     13  C   UNK     1      60.576  62.447  68.493  0.00  0.00    +0.000 C 
ATOM     14  C   UNK     1      60.888  62.936  69.079  0.00  0.00    +0.000 C 
ATOM     15  N   UNK     1      61.204  63.671  68.877  0.00  0.00    +0.000 NA
ATOM     16  C   UNK     1      61.208  63.916  68.090  0.00  0.00    +0.000 C 
ATOM     17  N   UNK     1      60.896  63.426  67.504  0.00  0.00    +0.000 NA
ATOM     18  C   UNK     1      60.580  62.692  67.705  0.00  0.00    +0.000 C 
ATOM     19  O   UNK     1      60.267  62.202  67.119  0.00  0.00    +0.000 OA
ENDROOT
TORSDOF 0
ENDMDL
MODEL 8
REMARK VINA RESULT:    -7.723      4.547      6.094
REMARK INTER + INTRA:          -7.723
REMARK INTER:                  -7.723
REMARK INTRA:                   0.000
REMARK UNBOUND:                 0.000
ROOT
REMARK  Name = forodesine
REMARK                            x       y       z     vdW  Elec       q    Type
REMARK                         _______ _______ _______ _____ _____    ______ ____
ATOM      1  O   UNK     1      65.644  67.323  71.535  0.00  0.00    +0.000 OA
ATOM      2  C   UNK     1      65.003  66.835  71.714  0.00  0.00    +0.000 C 
ATOM      3  C   UNK     1      64.715  66.308  71.147  0.00  0.00    +0.000 C 
ATOM      4  N   UNK     1      64.082  65.789  71.245  0.00  0.00    +0.000 NA
ATOM      5  C   UNK     1      63.985  65.368  70.542  0.00  0.00    +0.000 C 
ATOM      6  C   UNK     1      64.560  65.627  70.009  0.00  0.00    +0.000 C 
ATOM      7  O   UNK     1      64.665  65.353  69.238  0.00  0.00    +0.000 OA
ATOM      8  C   UNK     1      65.011  66.208  70.383  0.00  0.00    +0.000 C 
ATOM      9  O   UNK     1      65.646  66.617  70.051  0.00  0.00    +0.000 OA
ATOM     10  C   UNK     1      63.416  64.790  70.397  0.00  0.00    +0.000 C 
ATOM     11  C   UNK     1      63.319  64.369  69.694  0.00  0.00    +0.000 C 
ATOM     12  N   UNK     1      62.686  63.850  69.792  0.00  0.00    +0.000 NA
ATOM     13  C   UNK     1      62.391  63.950  70.555  0.00  0.00    +0.000 C 
ATOM     14  C   UNK     1      62.841  64.531  70.929  0.00  0.00    +0.000 C 
ATOM     15  N   UNK     1      62.670  64.749  71.707  0.00  0.00    +0.000 NA
ATOM     16  C   UNK     1      62.049  64.386  72.110  0.00  0.00    +0.000 C 
ATOM     17  N   UNK     1      61.598  63.805  71.736  0.00  0.00    +0.000 NA
ATOM     18  C   UNK     1      61.768  63.587  70.959  0.00  0.00    +0.000 C 
ATOM     19  O   UNK     1      61.318  63.006  70.585  0.00  0.00    +0.000 OA
ENDROOT
TORSDOF 0
ENDMDL
MODEL 9
REMARK VINA RESULT:    -7.715      2.585      4.058
REMARK INTER + INTRA:          -7.715
REMARK INTER:                  -7.715
REMARK INTRA:                   0.000
REMARK UNBOUND:                 0.000
ROOT
REMARK  Name = forodesine
REMARK                            x       y       z     vdW  Elec       q    Type
REMARK                         _______ _______ _______ _____ _____    ______ ____
ATOM      1  O   UNK     1      64.017  66.312  70.001  0.00  0.00    +0.000 OA
ATOM      2  C   UNK     1      63.556  65.794  69.554  0.00  0.00    +0.000 C 
ATOM      3  C   UNK     1      63.112  65.208  69.929  0.00  0.00    +0.000 C 
ATOM      4  N   UNK     1      62.629  64.653  69.558  0.00  0.00    +0.000 NA
ATOM      5  C   UNK     1      62.290  64.177  70.140  0.00  0.00    +0.000 C 
ATOM      6  C   UNK     1      62.565  64.439  70.873  0.00  0.00    +0.000 C 
ATOM      7  O   UNK     1      62.367  64.119  71.608  0.00  0.00    +0.000 OA
ATOM      8  C   UNK     1      63.073  65.076  70.743  0.00  0.00    +0.000 C 
ATOM      9  O   UNK     1      63.472  65.505  71.324  0.00  0.00    +0.000 OA
ATOM     10  C   UNK     1      61.770  63.551  70.013  0.00  0.00    +0.000 C 
ATOM     11  C   UNK     1      61.432  63.075  70.597  0.00  0.00    +0.000 C 
ATOM     12  N   UNK     1      60.948  62.520  70.225  0.00  0.00    +0.000 NA
ATOM     13  C   UNK     1      60.987  62.652  69.412  0.00  0.00    +0.000 C 
ATOM     14  C   UNK     1      61.495  63.290  69.281  0.00  0.00    +0.000 C 
ATOM     15  N   UNK     1      61.641  63.549  68.512  0.00  0.00    +0.000 NA
ATOM     16  C   UNK     1      61.280  63.172  67.873  0.00  0.00    +0.000 C 
ATOM     17  N   UNK     1      60.773  62.535  68.004  0.00  0.00    +0.000 NA
ATOM     18  C   UNK     1      60.626  62.275  68.773  0.00  0.00    +0.000 C 
ATOM     19  O   UNK     1      60.118  61.638  68.903  0.00  0.00    +0.000 OA
ENDROOT
TORSDOF 0
ENDMDL
