MODEL 1
REMARK VINA RESULT:   -11.479      0.000      0.000
REMARK INTER + INTRA:         -11.479
REMARK INTER:                 -11.479
REMARK INTRA:                   0.000
REMARK UNBOUND:                 0.000
ROOT
REMARK  Name = fosfluconazole
REMARK                            x       y       z     vdW  Elec       q    Type
REMARK                         _______ _______ _______ _____ _____    ______ ____
ATOM      1  O   UNL     1      60.704  61.624  69.351  0.00  0.00    +0.000 OA
ATOM      2  P   UNL     1      60.498  62.423  69.324  0.00  0.00    +0.000 P 
ATOM      3  O   UNL     1      60.243  62.331  68.544  0.00  0.00    +0.000 OA
ATOM      4  O   UNL     1      60.292  63.221  69.297  0.00  0.00    +0.000 OA
ATOM      5  O   UNL     1      60.753  62.515  70.103  0.00  0.00    +0.000 OA
ATOM      6  C   UNL     1      60.702  63.253  70.469  0.00  0.00    +0.000 C 
ATOM      7  C   UNL     1      60.652  63.990  70.836  0.00  0.00    +0.000 C 
ATOM      8  N   UNL     1      60.907  64.081  71.616  0.00  0.00    +0.000 N 
ATOM      9  C   UNL     1      61.223  63.490  72.094  0.00  0.00    +0.000 A 
ATOM     10  N   UNL     1      61.402  63.824  72.827  0.00  0.00    +0.000 NA
ATOM     11  C   UNL     1      61.196  64.622  72.801  0.00  0.00    +0.000 A 
ATOM     12  N   UNL     1      60.890  64.782  72.051  0.00  0.00    +0.000 NA
ATOM     13  C   UNL     1      60.378  63.572  69.781  0.00  0.00    +0.000 C 
ATOM     14  N   UNL     1      60.173  64.370  69.754  0.00  0.00    +0.000 N 
ATOM     15  C   UNL     1      60.258  64.914  70.369  0.00  0.00    +0.000 A 
ATOM     16  N   UNL     1      59.984  65.645  70.103  0.00  0.00    +0.000 NA
ATOM     17  C   UNL     1      59.729  65.554  69.324  0.00  0.00    +0.000 A 
ATOM     18  N   UNL     1      59.846  64.765  69.108  0.00  0.00    +0.000 NA
ATOM     19  C   UNL     1      61.026  62.932  71.157  0.00  0.00    +0.000 A 
ATOM     20  C   UNL     1      61.231  62.134  71.184  0.00  0.00    +0.000 A 
ATOM     21  F   UNL     1      61.113  61.655  70.523  0.00  0.00    +0.000 F 
ATOM     22  C   UNL     1      61.555  61.814  71.873  0.00  0.00    +0.000 A 
ATOM     23  C   UNL     1      61.673  62.293  72.534  0.00  0.00    +0.000 A 
ATOM     24  F   UNL     1      61.997  61.974  73.222  0.00  0.00    +0.000 F 
ATOM     25  C   UNL     1      61.467  63.091  72.507  0.00  0.00    +0.000 A 
ATOM     26  C   UNL     1      61.144  63.412  71.819  0.00  0.00    +0.000 A 
ENDROOT
TORSDOF 0
ENDMDL
MODEL 2
REMARK VINA RESULT:   -11.176      2.009      3.067
REMARK INTER + INTRA:         -11.176
REMARK INTER:                 -11.176
REMARK INTRA:                   0.000
REMARK UNBOUND:                 0.000
ROOT
REMARK  Name = fosfluconazole
REMARK                            x       y       z     vdW  Elec       q    Type
REMARK                         _______ _______ _______ _____ _____    ______ ____
ATOM      1  O   UNL     1      61.255  63.140  72.541  0.00  0.00    +0.000 OA
ATOM      2  P   UNL     1      61.628  63.744  72.120  0.00  0.00    +0.000 P 
ATOM      3  O   UNL     1      61.864  64.093  72.830  0.00  0.00    +0.000 OA
ATOM      4  O   UNL     1      62.001  64.347  71.699  0.00  0.00    +0.000 OA
ATOM      5  O   UNL     1      61.392  63.395  71.411  0.00  0.00    +0.000 OA
ATOM      6  C   UNL     1      61.597  63.744  70.692  0.00  0.00    +0.000 C 
ATOM      7  C   UNL     1      61.802  64.092  69.972  0.00  0.00    +0.000 C 
ATOM      8  N   UNL     1      61.566  63.743  69.263  0.00  0.00    +0.000 N 
ATOM      9  C   UNL     1      61.126  63.050  69.187  0.00  0.00    +0.000 A 
ATOM     10  N   UNL     1      61.016  62.905  68.382  0.00  0.00    +0.000 NA
ATOM     11  C   UNL     1      61.389  63.509  67.961  0.00  0.00    +0.000 A 
ATOM     12  N   UNL     1      61.729  64.027  68.506  0.00  0.00    +0.000 NA
ATOM     13  C   UNL     1      61.988  64.348  71.096  0.00  0.00    +0.000 C 
ATOM     14  N   UNL     1      62.361  64.951  70.675  0.00  0.00    +0.000 N 
ATOM     15  C   UNL     1      62.389  65.024  69.854  0.00  0.00    +0.000 A 
ATOM     16  N   UNL     1      62.816  65.706  69.672  0.00  0.00    +0.000 NA
ATOM     17  C   UNL     1      63.052  66.055  70.382  0.00  0.00    +0.000 A 
ATOM     18  N   UNL     1      62.771  65.588  71.002  0.00  0.00    +0.000 NA
ATOM     19  C   UNL     1      61.206  63.140  70.288  0.00  0.00    +0.000 A 
ATOM     20  C   UNL     1      60.833  62.536  70.709  0.00  0.00    +0.000 A 
ATOM     21  F   UNL     1      60.851  62.537  71.533  0.00  0.00    +0.000 F 
ATOM     22  C   UNL     1      60.442  61.932  70.304  0.00  0.00    +0.000 A 
ATOM     23  C   UNL     1      60.424  61.932  69.480  0.00  0.00    +0.000 A 
ATOM     24  F   UNL     1      60.034  61.328  69.076  0.00  0.00    +0.000 F 
ATOM     25  C   UNL     1      60.797  62.536  69.059  0.00  0.00    +0.000 A 
ATOM     26  C   UNL     1      61.188  63.140  69.463  0.00  0.00    +0.000 A 
ENDROOT
TORSDOF 0
ENDMDL
MODEL 3
REMARK VINA RESULT:   -11.111      1.847      2.514
REMARK INTER + INTRA:         -11.111
REMARK INTER:                 -11.111
REMARK INTRA:                   0.000
REMARK UNBOUND:                 0.000
ROOT
REMARK  Name = fosfluconazole
REMARK                            x       y       z     vdW  Elec       q    Type
REMARK                         _______ _______ _______ _____ _____    ______ ____
ATOM      1  O   UNL     1      61.443  64.702  73.133  0.00  0.00    +0.000 OA
ATOM      2  P   UNL     1      61.087  64.945  72.429  0.00  0.00    +0.000 P 
ATOM      3  O   UNL     1      61.037  65.716  72.721  0.00  0.00    +0.000 OA
ATOM      4  O   UNL     1      60.730  65.187  71.726  0.00  0.00    +0.000 OA
ATOM      5  O   UNL     1      61.136  64.175  72.139  0.00  0.00    +0.000 OA
ATOM      6  C   UNL     1      60.852  64.000  71.383  0.00  0.00    +0.000 C 
ATOM      7  C   UNL     1      60.569  63.824  70.629  0.00  0.00    +0.000 C 
ATOM      8  N   UNL     1      60.618  63.054  70.338  0.00  0.00    +0.000 N 
ATOM      9  C   UNL     1      60.935  62.406  70.736  0.00  0.00    +0.000 A 
ATOM     10  N   UNL     1      60.872  61.748  70.242  0.00  0.00    +0.000 NA
ATOM     11  C   UNL     1      60.516  61.991  69.538  0.00  0.00    +0.000 A 
ATOM     12  N   UNL     1      60.358  62.799  69.598  0.00  0.00    +0.000 NA
ATOM     13  C   UNL     1      60.631  64.789  71.284  0.00  0.00    +0.000 C 
ATOM     14  N   UNL     1      60.275  65.032  70.581  0.00  0.00    +0.000 N 
ATOM     15  C   UNL     1      60.106  64.551  69.932  0.00  0.00    +0.000 A 
ATOM     16  N   UNL     1      59.751  65.020  69.353  0.00  0.00    +0.000 NA
ATOM     17  C   UNL     1      59.702  65.790  69.644  0.00  0.00    +0.000 A 
ATOM     18  N   UNL     1      60.026  65.797  70.403  0.00  0.00    +0.000 NA
ATOM     19  C   UNL     1      61.073  63.212  71.484  0.00  0.00    +0.000 A 
ATOM     20  C   UNL     1      61.430  62.969  72.187  0.00  0.00    +0.000 A 
ATOM     21  F   UNL     1      61.565  63.514  72.790  0.00  0.00    +0.000 F 
ATOM     22  C   UNL     1      61.650  62.180  72.286  0.00  0.00    +0.000 A 
ATOM     23  C   UNL     1      61.515  61.634  71.683  0.00  0.00    +0.000 A 
ATOM     24  F   UNL     1      61.736  60.845  71.782  0.00  0.00    +0.000 F 
ATOM     25  C   UNL     1      61.159  61.877  70.980  0.00  0.00    +0.000 A 
ATOM     26  C   UNL     1      60.938  62.665  70.879  0.00  0.00    +0.000 A 
ENDROOT
TORSDOF 0
ENDMDL
MODEL 4
REMARK VINA RESULT:   -10.771      2.020      3.134
REMARK INTER + INTRA:         -10.771
REMARK INTER:                 -10.771
REMARK INTRA:                   0.000
REMARK UNBOUND:                 0.000
ROOT
REMARK  Name = fosfluconazole
REMARK                            x       y       z     vdW  Elec       q    Type
REMARK                         _______ _______ _______ _____ _____    ______ ____
ATOM      1  O   UNL     1      59.960  65.729  68.725  0.00  0.00    +0.000 OA
ATOM      2  P   UNL     1      60.023  65.575  69.533  0.00  0.00    +0.000 P 
ATOM      3  O   UNL     1      59.909  66.377  69.694  0.00  0.00    +0.000 OA
ATOM      4  O   UNL     1      60.086  65.422  70.341  0.00  0.00    +0.000 OA
ATOM      5  O   UNL     1      60.137  64.775  69.372  0.00  0.00    +0.000 OA
ATOM      6  C   UNL     1      60.248  64.241  69.992  0.00  0.00    +0.000 C 
ATOM      7  C   UNL     1      60.360  63.707  70.611  0.00  0.00    +0.000 C 
ATOM      8  N   UNL     1      60.474  62.906  70.450  0.00  0.00    +0.000 N 
ATOM      9  C   UNL     1      60.490  62.560  69.702  0.00  0.00    +0.000 A 
ATOM     10  N   UNL     1      60.618  61.750  69.798  0.00  0.00    +0.000 NA
ATOM     11  C   UNL     1      60.681  61.597  70.607  0.00  0.00    +0.000 A 
ATOM     12  N   UNL     1      60.592  62.312  71.010  0.00  0.00    +0.000 NA
ATOM     13  C   UNL     1      60.181  64.858  70.535  0.00  0.00    +0.000 C 
ATOM     14  N   UNL     1      60.244  64.705  71.343  0.00  0.00    +0.000 N 
ATOM     15  C   UNL     1      60.374  63.966  71.688  0.00  0.00    +0.000 A 
ATOM     16  N   UNL     1      60.398  64.068  72.507  0.00  0.00    +0.000 NA
ATOM     17  C   UNL     1      60.285  64.869  72.668  0.00  0.00    +0.000 A 
ATOM     18  N   UNL     1      60.189  65.262  71.949  0.00  0.00    +0.000 NA
ATOM     19  C   UNL     1      60.315  63.624  69.448  0.00  0.00    +0.000 A 
ATOM     20  C   UNL     1      60.252  63.778  68.640  0.00  0.00    +0.000 A 
ATOM     21  F   UNL     1      60.122  64.548  68.376  0.00  0.00    +0.000 F 
ATOM     22  C   UNL     1      60.319  63.160  68.097  0.00  0.00    +0.000 A 
ATOM     23  C   UNL     1      60.449  62.390  68.361  0.00  0.00    +0.000 A 
ATOM     24  F   UNL     1      60.517  61.773  67.818  0.00  0.00    +0.000 F 
ATOM     25  C   UNL     1      60.513  62.237  69.169  0.00  0.00    +0.000 A 
ATOM     26  C   UNL     1      60.446  62.853  69.713  0.00  0.00    +0.000 A 
ENDROOT
TORSDOF 0
ENDMDL
MODEL 5
REMARK VINA RESULT:   -10.702      4.282      5.022
REMARK INTER + INTRA:         -10.702
REMARK INTER:                 -10.702
REMARK INTRA:                   0.000
REMARK UNBOUND:                 0.000
ROOT
REMARK  Name = fosfluconazole
REMARK                            x       y       z     vdW  Elec       q    Type
REMARK                         _______ _______ _______ _____ _____    ______ ____
ATOM      1  O   UNL     1      62.887  68.016  72.912  0.00  0.00    +0.000 OA
ATOM      2  P   UNL     1      62.527  67.292  72.749  0.00  0.00    +0.000 P 
ATOM      3  O   UNL     1      61.884  67.504  73.222  0.00  0.00    +0.000 OA
ATOM      4  O   UNL     1      62.167  66.568  72.585  0.00  0.00    +0.000 OA
ATOM      5  O   UNL     1      63.168  67.080  72.276  0.00  0.00    +0.000 OA
ATOM      6  C   UNL     1      63.177  66.346  71.898  0.00  0.00    +0.000 C 
ATOM      7  C   UNL     1      63.186  65.613  71.519  0.00  0.00    +0.000 C 
ATOM      8  N   UNL     1      63.828  65.401  71.046  0.00  0.00    +0.000 N 
ATOM      9  C   UNL     1      64.495  65.861  70.901  0.00  0.00    +0.000 A 
ATOM     10  N   UNL     1      64.995  65.435  70.400  0.00  0.00    +0.000 NA
ATOM     11  C   UNL     1      64.634  64.712  70.236  0.00  0.00    +0.000 A 
ATOM     12  N   UNL     1      63.913  64.690  70.636  0.00  0.00    +0.000 NA
ATOM     13  C   UNL     1      62.441  66.168  72.226  0.00  0.00    +0.000 C 
ATOM     14  N   UNL     1      62.081  65.444  72.062  0.00  0.00    +0.000 N 
ATOM     15  C   UNL     1      62.388  64.847  71.583  0.00  0.00    +0.000 A 
ATOM     16  N   UNL     1      61.847  64.224  71.574  0.00  0.00    +0.000 NA
ATOM     17  C   UNL     1      61.206  64.436  72.047  0.00  0.00    +0.000 A 
ATOM     18  N   UNL     1      61.350  65.191  72.349  0.00  0.00    +0.000 NA
ATOM     19  C   UNL     1      63.912  66.524  71.570  0.00  0.00    +0.000 A 
ATOM     20  C   UNL     1      64.273  67.248  71.734  0.00  0.00    +0.000 A 
ATOM     21  F   UNL     1      63.897  67.794  72.225  0.00  0.00    +0.000 F 
ATOM     22  C   UNL     1      65.009  67.426  71.405  0.00  0.00    +0.000 A 
ATOM     23  C   UNL     1      65.384  66.881  70.914  0.00  0.00    +0.000 A 
ATOM     24  F   UNL     1      66.120  67.058  70.586  0.00  0.00    +0.000 F 
ATOM     25  C   UNL     1      65.024  66.157  70.751  0.00  0.00    +0.000 A 
ATOM     26  C   UNL     1      64.288  65.978  71.078  0.00  0.00    +0.000 A 
ENDROOT
TORSDOF 0
ENDMDL
MODEL 6
REMARK VINA RESULT:   -10.688      2.811      3.554
REMARK INTER + INTRA:         -10.688
REMARK INTER:                 -10.688
REMARK INTRA:                   0.000
REMARK UNBOUND:                 0.000
ROOT
REMARK  Name = fosfluconazole
REMARK                            x       y       z     vdW  Elec       q    Type
REMARK                         _______ _______ _______ _____ _____    ______ ____
ATOM      1  O   UNL     1      64.076  65.011  70.918  0.00  0.00    +0.000 OA
ATOM      2  P   UNL     1      63.799  65.679  71.315  0.00  0.00    +0.000 P 
ATOM      3  O   UNL     1      64.476  66.095  71.089  0.00  0.00    +0.000 OA
ATOM      4  O   UNL     1      63.521  66.347  71.711  0.00  0.00    +0.000 OA
ATOM      5  O   UNL     1      63.123  65.265  71.540  0.00  0.00    +0.000 OA
ATOM      6  C   UNL     1      62.543  65.636  71.996  0.00  0.00    +0.000 C 
ATOM      7  C   UNL     1      61.964  66.007  72.452  0.00  0.00    +0.000 C 
ATOM      8  N   UNL     1      61.288  65.592  72.677  0.00  0.00    +0.000 N 
ATOM      9  C   UNL     1      61.115  64.808  72.489  0.00  0.00    +0.000 A 
ATOM     10  N   UNL     1      60.386  64.620  72.826  0.00  0.00    +0.000 NA
ATOM     11  C   UNL     1      60.108  65.288  73.222  0.00  0.00    +0.000 A 
ATOM     12  N   UNL     1      60.666  65.890  73.131  0.00  0.00    +0.000 NA
ATOM     13  C   UNL     1      62.991  66.329  71.999  0.00  0.00    +0.000 C 
ATOM     14  N   UNL     1      62.714  66.998  72.395  0.00  0.00    +0.000 N 
ATOM     15  C   UNL     1      62.002  67.054  72.811  0.00  0.00    +0.000 A 
ATOM     16  N   UNL     1      61.947  67.818  73.118  0.00  0.00    +0.000 NA
ATOM     17  C   UNL     1      62.624  68.233  72.893  0.00  0.00    +0.000 A 
ATOM     18  N   UNL     1      63.097  67.726  72.446  0.00  0.00    +0.000 NA
ATOM     19  C   UNL     1      62.097  64.943  71.993  0.00  0.00    +0.000 A 
ATOM     20  C   UNL     1      62.375  64.275  71.596  0.00  0.00    +0.000 A 
ATOM     21  F   UNL     1      63.099  64.300  71.203  0.00  0.00    +0.000 F 
ATOM     22  C   UNL     1      61.927  63.581  71.593  0.00  0.00    +0.000 A 
ATOM     23  C   UNL     1      61.203  63.556  71.986  0.00  0.00    +0.000 A 
ATOM     24  F   UNL     1      60.755  62.863  71.984  0.00  0.00    +0.000 F 
ATOM     25  C   UNL     1      60.925  64.224  72.383  0.00  0.00    +0.000 A 
ATOM     26  C   UNL     1      61.372  64.918  72.386  0.00  0.00    +0.000 A 
ENDROOT
TORSDOF 0
ENDMDL
MODEL 7
REMARK VINA RESULT:   -10.583      1.925      2.465
REMARK INTER + INTRA:         -10.583
REMARK INTER:                 -10.583
REMARK INTRA:                   0.000
REMARK UNBOUND:                 0.000
ROOT
REMARK  Name = fosfluconazole
REMARK                            x       y       z     vdW  Elec       q    Type
REMARK                         _______ _______ _______ _____ _____    ______ ____
ATOM      1  O   UNL     1      60.498  62.207  71.677  0.00  0.00    +0.000 OA
ATOM      2  P   UNL     1      60.620  62.284  70.865  0.00  0.00    +0.000 P 
ATOM      3  O   UNL     1      60.152  61.617  70.730  0.00  0.00    +0.000 OA
ATOM      4  O   UNL     1      60.742  62.362  70.052  0.00  0.00    +0.000 OA
ATOM      5  O   UNL     1      61.087  62.950  70.999  0.00  0.00    +0.000 OA
ATOM      6  C   UNL     1      61.427  63.351  70.362  0.00  0.00    +0.000 C 
ATOM      7  C   UNL     1      61.767  63.752  69.726  0.00  0.00    +0.000 C 
ATOM      8  N   UNL     1      62.234  64.418  69.860  0.00  0.00    +0.000 N 
ATOM      9  C   UNL     1      62.410  64.746  70.595  0.00  0.00    +0.000 A 
ATOM     10  N   UNL     1      62.892  65.404  70.472  0.00  0.00    +0.000 NA
ATOM     11  C   UNL     1      63.015  65.482  69.660  0.00  0.00    +0.000 A 
ATOM     12  N   UNL     1      62.608  64.872  69.281  0.00  0.00    +0.000 NA
ATOM     13  C   UNL     1      61.083  62.812  69.840  0.00  0.00    +0.000 C 
ATOM     14  N   UNL     1      61.205  62.890  69.028  0.00  0.00    +0.000 N 
ATOM     15  C   UNL     1      61.655  63.475  68.659  0.00  0.00    +0.000 A 
ATOM     16  N   UNL     1      61.627  63.343  67.845  0.00  0.00    +0.000 NA
ATOM     17  C   UNL     1      61.160  62.677  67.711  0.00  0.00    +0.000 A 
ATOM     18  N   UNL     1      60.899  62.397  68.442  0.00  0.00    +0.000 NA
ATOM     19  C   UNL     1      61.770  63.889  70.884  0.00  0.00    +0.000 A 
ATOM     20  C   UNL     1      61.648  63.811  71.697  0.00  0.00    +0.000 A 
ATOM     21  F   UNL     1      61.182  63.196  71.986  0.00  0.00    +0.000 F 
ATOM     22  C   UNL     1      61.992  64.350  72.218  0.00  0.00    +0.000 A 
ATOM     23  C   UNL     1      62.458  64.965  71.929  0.00  0.00    +0.000 A 
ATOM     24  F   UNL     1      62.802  65.504  72.451  0.00  0.00    +0.000 F 
ATOM     25  C   UNL     1      62.580  65.043  71.117  0.00  0.00    +0.000 A 
ATOM     26  C   UNL     1      62.237  64.505  70.594  0.00  0.00    +0.000 A 
ENDROOT
TORSDOF 0
ENDMDL
MODEL 8
REMARK VINA RESULT:   -10.301      2.150      3.131
REMARK INTER + INTRA:         -10.301
REMARK INTER:                 -10.301
REMARK INTRA:                   0.000
REMARK UNBOUND:                 0.000
ROOT
REMARK  Name = fosfluconazole
REMARK                            x       y       z     vdW  Elec       q    Type
REMARK                         _______ _______ _______ _____ _____    ______ ____
ATOM      1  O   UNL     1      60.991  63.135  72.849  0.00  0.00    +0.000 OA
ATOM      2  P   UNL     1      61.387  63.362  72.161  0.00  0.00    +0.000 P 
ATOM      3  O   UNL     1      61.943  62.764  72.283  0.00  0.00    +0.000 OA
ATOM      4  O   UNL     1      61.782  63.589  71.473  0.00  0.00    +0.000 OA
ATOM      5  O   UNL     1      60.832  63.959  72.039  0.00  0.00    +0.000 OA
ATOM      6  C   UNL     1      60.897  64.455  71.382  0.00  0.00    +0.000 C 
ATOM      7  C   UNL     1      60.961  64.951  70.725  0.00  0.00    +0.000 C 
ATOM      8  N   UNL     1      60.405  65.548  70.603  0.00  0.00    +0.000 N 
ATOM      9  C   UNL     1      59.760  65.715  71.087  0.00  0.00    +0.000 A 
ATOM     10  N   UNL     1      59.353  66.354  70.759  0.00  0.00    +0.000 NA
ATOM     11  C   UNL     1      59.749  66.581  70.071  0.00  0.00    +0.000 A 
ATOM     12  N   UNL     1      60.399  66.083  69.975  0.00  0.00    +0.000 NA
ATOM     13  C   UNL     1      61.575  64.050  71.144  0.00  0.00    +0.000 C 
ATOM     14  N   UNL     1      61.971  64.277  70.457  0.00  0.00    +0.000 N 
ATOM     15  C   UNL     1      61.754  64.895  69.954  0.00  0.00    +0.000 A 
ATOM     16  N   UNL     1      62.301  64.926  69.337  0.00  0.00    +0.000 NA
ATOM     17  C   UNL     1      62.857  64.328  69.459  0.00  0.00    +0.000 A 
ATOM     18  N   UNL     1      62.652  63.928  70.151  0.00  0.00    +0.000 NA
ATOM     19  C   UNL     1      60.218  64.859  71.620  0.00  0.00    +0.000 A 
ATOM     20  C   UNL     1      59.822  64.632  72.308  0.00  0.00    +0.000 A 
ATOM     21  F   UNL     1      60.106  64.001  72.757  0.00  0.00    +0.000 F 
ATOM     22  C   UNL     1      59.143  65.036  72.545  0.00  0.00    +0.000 A 
ATOM     23  C   UNL     1      58.860  65.667  72.096  0.00  0.00    +0.000 A 
ATOM     24  F   UNL     1      58.181  66.071  72.333  0.00  0.00    +0.000 F 
ATOM     25  C   UNL     1      59.256  65.894  71.408  0.00  0.00    +0.000 A 
ATOM     26  C   UNL     1      59.934  65.490  71.170  0.00  0.00    +0.000 A 
ENDROOT
TORSDOF 0
ENDMDL
MODEL 9
REMARK VINA RESULT:   -10.297      3.222      3.925
REMARK INTER + INTRA:         -10.297
REMARK INTER:                 -10.297
REMARK INTRA:                   0.000
REMARK UNBOUND:                 0.000
ROOT
REMARK  Name = fosfluconazole
REMARK                            x       y       z     vdW  Elec       q    Type
REMARK                         _______ _______ _______ _____ _____    ______ ____
ATOM      1  O   UNL     1      63.258  66.482  72.621  0.00  0.00    +0.000 OA
ATOM      2  P   UNL     1      62.531  66.120  72.475  0.00  0.00    +0.000 P 
ATOM      3  O   UNL     1      62.229  66.446  73.171  0.00  0.00    +0.000 OA
ATOM      4  O   UNL     1      61.804  65.758  72.329  0.00  0.00    +0.000 OA
ATOM      5  O   UNL     1      62.832  65.795  71.780  0.00  0.00    +0.000 OA
ATOM      6  C   UNL     1      62.353  65.319  71.306  0.00  0.00    +0.000 C 
ATOM      7  C   UNL     1      61.875  64.843  70.831  0.00  0.00    +0.000 C 
ATOM      8  N   UNL     1      62.176  64.517  70.136  0.00  0.00    +0.000 N 
ATOM      9  C   UNL     1      62.941  64.619  69.845  0.00  0.00    +0.000 A 
ATOM     10  N   UNL     1      63.003  64.197  69.138  0.00  0.00    +0.000 NA
ATOM     11  C   UNL     1      62.276  63.835  68.993  0.00  0.00    +0.000 A 
ATOM     12  N   UNL     1      61.764  64.033  69.610  0.00  0.00    +0.000 NA
ATOM     13  C   UNL     1      61.729  65.420  71.836  0.00  0.00    +0.000 C 
ATOM     14  N   UNL     1      61.002  65.058  71.690  0.00  0.00    +0.000 N 
ATOM     15  C   UNL     1      60.819  64.582  71.041  0.00  0.00    +0.000 A 
ATOM     16  N   UNL     1      60.034  64.338  71.118  0.00  0.00    +0.000 NA
ATOM     17  C   UNL     1      59.732  64.663  71.813  0.00  0.00    +0.000 A 
ATOM     18  N   UNL     1      60.331  65.108  72.167  0.00  0.00    +0.000 NA
ATOM     19  C   UNL     1      62.978  65.218  70.777  0.00  0.00    +0.000 A 
ATOM     20  C   UNL     1      63.705  65.580  70.922  0.00  0.00    +0.000 A 
ATOM     21  F   UNL     1      63.807  66.042  71.597  0.00  0.00    +0.000 F 
ATOM     22  C   UNL     1      64.329  65.479  70.392  0.00  0.00    +0.000 A 
ATOM     23  C   UNL     1      64.227  65.016  69.717  0.00  0.00    +0.000 A 
ATOM     24  F   UNL     1      64.851  64.915  69.187  0.00  0.00    +0.000 F 
ATOM     25  C   UNL     1      63.500  64.655  69.572  0.00  0.00    +0.000 A 
ATOM     26  C   UNL     1      62.875  64.755  70.101  0.00  0.00    +0.000 A 
ENDROOT
TORSDOF 0
ENDMDL
