MODEL 1
REMARK VINA RESULT:   -13.419      0.000      0.000
REMARK INTER + INTRA:         -13.419
REMARK INTER:                 -13.419
REMARK INTRA:                   0.000
REMARK UNBOUND:                 0.000
ROOT
REMARK  Name = fosfestrol
REMARK                            x       y       z     vdW  Elec       q    Type
REMARK                         _______ _______ _______ _____ _____    ______ ____
ATOM      1  C   UNL     1      60.320  61.624  70.360  0.00  0.00    +0.000 C 
ATOM      2  C   UNL     1      60.510  62.038  69.672  0.00  0.00    +0.000 C 
ATOM      3  C   UNL     1      60.507  62.862  69.673  0.00  0.00    +0.000 C 
ATOM      4  C   UNL     1      60.697  63.277  68.985  0.00  0.00    +0.000 C 
ATOM      5  C   UNL     1      60.694  64.102  68.985  0.00  0.00    +0.000 C 
ATOM      6  C   UNL     1      60.883  64.515  68.297  0.00  0.00    +0.000 C 
ATOM      7  C   UNL     1      60.889  62.865  68.296  0.00  0.00    +0.000 A 
ATOM      8  C   UNL     1      60.892  62.040  68.295  0.00  0.00    +0.000 A 
ATOM      9  C   UNL     1      61.085  61.629  67.607  0.00  0.00    +0.000 A 
ATOM     10  C   UNL     1      61.275  62.043  66.918  0.00  0.00    +0.000 A 
ATOM     11  O   UNL     1      61.468  61.632  66.230  0.00  0.00    +0.000 OA
ATOM     12  P   UNL     1      61.657  62.046  65.542  0.00  0.00    +0.000 P 
ATOM     13  O   UNL     1      61.847  62.459  64.854  0.00  0.00    +0.000 OA
ATOM     14  O   UNL     1      61.770  61.331  65.144  0.00  0.00    +0.000 OA
ATOM     15  O   UNL     1      61.544  62.759  65.940  0.00  0.00    +0.000 OA
ATOM     16  C   UNL     1      61.272  62.869  66.919  0.00  0.00    +0.000 A 
ATOM     17  C   UNL     1      61.079  63.279  67.607  0.00  0.00    +0.000 A 
ATOM     18  C   UNL     1      60.314  63.274  70.362  0.00  0.00    +0.000 A 
ATOM     19  C   UNL     1      60.311  64.099  70.362  0.00  0.00    +0.000 A 
ATOM     20  C   UNL     1      60.118  64.511  71.051  0.00  0.00    +0.000 A 
ATOM     21  C   UNL     1      59.928  64.097  71.739  0.00  0.00    +0.000 A 
ATOM     22  O   UNL     1      59.736  64.507  72.427  0.00  0.00    +0.000 OA
ATOM     23  P   UNL     1      59.733  65.333  72.428  0.00  0.00    +0.000 P 
ATOM     24  O   UNL     1      59.730  66.159  72.429  0.00  0.00    +0.000 OA
ATOM     25  O   UNL     1      59.512  65.332  73.222  0.00  0.00    +0.000 OA
ATOM     26  O   UNL     1      59.954  65.334  71.633  0.00  0.00    +0.000 OA
ATOM     27  C   UNL     1      59.931  63.272  71.738  0.00  0.00    +0.000 A 
ATOM     28  C   UNL     1      60.124  62.861  71.049  0.00  0.00    +0.000 A 
ENDROOT
TORSDOF 0
ENDMDL
MODEL 2
REMARK VINA RESULT:   -13.158      0.972      5.478
REMARK INTER + INTRA:         -13.158
REMARK INTER:                 -13.158
REMARK INTRA:                   0.000
REMARK UNBOUND:                 0.000
ROOT
REMARK  Name = fosfestrol
REMARK                            x       y       z     vdW  Elec       q    Type
REMARK                         _______ _______ _______ _____ _____    ______ ____
ATOM      1  C   UNL     1      60.300  62.319  70.568  0.00  0.00    +0.000 C 
ATOM      2  C   UNL     1      60.140  63.127  70.527  0.00  0.00    +0.000 C 
ATOM      3  C   UNL     1      60.240  63.531  69.815  0.00  0.00    +0.000 C 
ATOM      4  C   UNL     1      60.081  64.340  69.773  0.00  0.00    +0.000 C 
ATOM      5  C   UNL     1      60.181  64.745  69.061  0.00  0.00    +0.000 C 
ATOM      6  C   UNL     1      60.022  65.553  69.020  0.00  0.00    +0.000 C 
ATOM      7  C   UNL     1      59.822  64.744  70.444  0.00  0.00    +0.000 A 
ATOM      8  C   UNL     1      59.721  64.339  71.157  0.00  0.00    +0.000 A 
ATOM      9  C   UNL     1      59.462  64.743  71.827  0.00  0.00    +0.000 A 
ATOM     10  C   UNL     1      59.303  65.552  71.786  0.00  0.00    +0.000 A 
ATOM     11  O   UNL     1      59.043  65.956  72.457  0.00  0.00    +0.000 OA
ATOM     12  P   UNL     1      58.884  66.765  72.415  0.00  0.00    +0.000 P 
ATOM     13  O   UNL     1      58.724  67.573  72.374  0.00  0.00    +0.000 OA
ATOM     14  O   UNL     1      58.676  66.764  73.214  0.00  0.00    +0.000 OA
ATOM     15  O   UNL     1      59.091  66.765  71.617  0.00  0.00    +0.000 OA
ATOM     16  C   UNL     1      59.403  65.957  71.073  0.00  0.00    +0.000 A 
ATOM     17  C   UNL     1      59.662  65.553  70.403  0.00  0.00    +0.000 A 
ATOM     18  C   UNL     1      60.500  63.127  69.144  0.00  0.00    +0.000 A 
ATOM     19  C   UNL     1      60.600  63.532  68.432  0.00  0.00    +0.000 A 
ATOM     20  C   UNL     1      60.859  63.128  67.761  0.00  0.00    +0.000 A 
ATOM     21  C   UNL     1      61.019  62.319  67.802  0.00  0.00    +0.000 A 
ATOM     22  O   UNL     1      61.278  61.915  67.132  0.00  0.00    +0.000 OA
ATOM     23  P   UNL     1      61.378  62.319  66.419  0.00  0.00    +0.000 P 
ATOM     24  O   UNL     1      61.478  62.724  65.706  0.00  0.00    +0.000 OA
ATOM     25  O   UNL     1      61.620  61.620  66.056  0.00  0.00    +0.000 OA
ATOM     26  O   UNL     1      61.136  63.019  66.783  0.00  0.00    +0.000 OA
ATOM     27  C   UNL     1      60.919  61.915  68.514  0.00  0.00    +0.000 A 
ATOM     28  C   UNL     1      60.659  62.319  69.185  0.00  0.00    +0.000 A 
ENDROOT
TORSDOF 0
ENDMDL
MODEL 3
REMARK VINA RESULT:   -12.756      4.154      5.282
REMARK INTER + INTRA:         -12.756
REMARK INTER:                 -12.756
REMARK INTRA:                   0.000
REMARK UNBOUND:                 0.000
ROOT
REMARK  Name = fosfestrol
REMARK                            x       y       z     vdW  Elec       q    Type
REMARK                         _______ _______ _______ _____ _____    ______ ____
ATOM      1  C   UNL     1      62.249  65.390  72.633  0.00  0.00    +0.000 C 
ATOM      2  C   UNL     1      62.789  65.475  72.016  0.00  0.00    +0.000 C 
ATOM      3  C   UNL     1      62.774  64.952  71.379  0.00  0.00    +0.000 C 
ATOM      4  C   UNL     1      63.314  65.038  70.761  0.00  0.00    +0.000 C 
ATOM      5  C   UNL     1      63.300  64.514  70.124  0.00  0.00    +0.000 C 
ATOM      6  C   UNL     1      63.840  64.600  69.507  0.00  0.00    +0.000 C 
ATOM      7  C   UNL     1      63.870  65.647  70.782  0.00  0.00    +0.000 A 
ATOM      8  C   UNL     1      63.886  66.171  71.420  0.00  0.00    +0.000 A 
ATOM      9  C   UNL     1      64.441  66.779  71.440  0.00  0.00    +0.000 A 
ATOM     10  C   UNL     1      64.982  66.865  70.822  0.00  0.00    +0.000 A 
ATOM     11  O   UNL     1      65.538  67.474  70.842  0.00  0.00    +0.000 OA
ATOM     12  P   UNL     1      66.079  67.559  70.225  0.00  0.00    +0.000 P 
ATOM     13  O   UNL     1      66.620  67.646  69.608  0.00  0.00    +0.000 OA
ATOM     14  O   UNL     1      66.409  68.214  70.605  0.00  0.00    +0.000 OA
ATOM     15  O   UNL     1      65.749  66.906  69.845  0.00  0.00    +0.000 OA
ATOM     16  C   UNL     1      64.967  66.341  70.184  0.00  0.00    +0.000 A 
ATOM     17  C   UNL     1      64.412  65.733  70.164  0.00  0.00    +0.000 A 
ATOM     18  C   UNL     1      62.217  64.343  71.359  0.00  0.00    +0.000 A 
ATOM     19  C   UNL     1      62.202  63.819  70.721  0.00  0.00    +0.000 A 
ATOM     20  C   UNL     1      61.646  63.210  70.701  0.00  0.00    +0.000 A 
ATOM     21  C   UNL     1      61.105  63.124  71.318  0.00  0.00    +0.000 A 
ATOM     22  O   UNL     1      60.550  62.516  71.298  0.00  0.00    +0.000 OA
ATOM     23  P   UNL     1      60.534  61.992  70.660  0.00  0.00    +0.000 P 
ATOM     24  O   UNL     1      60.519  61.468  70.022  0.00  0.00    +0.000 OA
ATOM     25  O   UNL     1      59.902  61.591  71.005  0.00  0.00    +0.000 OA
ATOM     26  O   UNL     1      61.168  62.394  70.316  0.00  0.00    +0.000 OA
ATOM     27  C   UNL     1      61.121  63.648  71.956  0.00  0.00    +0.000 A 
ATOM     28  C   UNL     1      61.677  64.257  71.976  0.00  0.00    +0.000 A 
ENDROOT
TORSDOF 0
ENDMDL
MODEL 4
REMARK VINA RESULT:   -12.308      4.262      5.318
REMARK INTER + INTRA:         -12.308
REMARK INTER:                 -12.308
REMARK INTRA:                   0.000
REMARK UNBOUND:                 0.000
ROOT
REMARK  Name = fosfestrol
REMARK                            x       y       z     vdW  Elec       q    Type
REMARK                         _______ _______ _______ _____ _____    ______ ____
ATOM      1  C   UNL     1      62.881  66.201  72.649  0.00  0.00    +0.000 C 
ATOM      2  C   UNL     1      62.753  65.590  72.111  0.00  0.00    +0.000 C 
ATOM      3  C   UNL     1      63.239  65.514  71.450  0.00  0.00    +0.000 C 
ATOM      4  C   UNL     1      63.112  64.901  70.911  0.00  0.00    +0.000 C 
ATOM      5  C   UNL     1      63.598  64.825  70.249  0.00  0.00    +0.000 C 
ATOM      6  C   UNL     1      63.470  64.213  69.712  0.00  0.00    +0.000 C 
ATOM      7  C   UNL     1      62.497  64.366  71.035  0.00  0.00    +0.000 A 
ATOM      8  C   UNL     1      62.009  64.442  71.697  0.00  0.00    +0.000 A 
ATOM      9  C   UNL     1      61.395  63.907  71.821  0.00  0.00    +0.000 A 
ATOM     10  C   UNL     1      61.267  63.294  71.283  0.00  0.00    +0.000 A 
ATOM     11  O   UNL     1      60.652  62.758  71.406  0.00  0.00    +0.000 OA
ATOM     12  P   UNL     1      60.524  62.146  70.868  0.00  0.00    +0.000 P 
ATOM     13  O   UNL     1      60.395  61.534  70.330  0.00  0.00    +0.000 OA
ATOM     14  O   UNL     1      59.887  61.881  71.322  0.00  0.00    +0.000 OA
ATOM     15  O   UNL     1      61.159  62.411  70.415  0.00  0.00    +0.000 OA
ATOM     16  C   UNL     1      61.754  63.218  70.620  0.00  0.00    +0.000 A 
ATOM     17  C   UNL     1      62.368  63.753  70.497  0.00  0.00    +0.000 A 
ATOM     18  C   UNL     1      63.855  66.050  71.326  0.00  0.00    +0.000 A 
ATOM     19  C   UNL     1      64.342  65.973  70.664  0.00  0.00    +0.000 A 
ATOM     20  C   UNL     1      64.957  66.509  70.540  0.00  0.00    +0.000 A 
ATOM     21  C   UNL     1      65.085  67.122  71.079  0.00  0.00    +0.000 A 
ATOM     22  O   UNL     1      65.699  67.657  70.955  0.00  0.00    +0.000 OA
ATOM     23  P   UNL     1      66.186  67.581  70.293  0.00  0.00    +0.000 P 
ATOM     24  O   UNL     1      66.674  67.504  69.630  0.00  0.00    +0.000 OA
ATOM     25  O   UNL     1      66.615  68.243  70.532  0.00  0.00    +0.000 OA
ATOM     26  O   UNL     1      65.757  66.918  70.054  0.00  0.00    +0.000 OA
ATOM     27  C   UNL     1      64.598  67.197  71.740  0.00  0.00    +0.000 A 
ATOM     28  C   UNL     1      63.983  66.662  71.864  0.00  0.00    +0.000 A 
ENDROOT
TORSDOF 0
ENDMDL
MODEL 5
REMARK VINA RESULT:   -11.774      4.406      6.180
REMARK INTER + INTRA:         -11.774
REMARK INTER:                 -11.774
REMARK INTRA:                   0.000
REMARK UNBOUND:                 0.000
ROOT
REMARK  Name = fosfestrol
REMARK                            x       y       z     vdW  Elec       q    Type
REMARK                         _______ _______ _______ _____ _____    ______ ____
ATOM      1  C   UNL     1      62.380  64.234  71.545  0.00  0.00    +0.000 C 
ATOM      2  C   UNL     1      61.864  64.842  71.753  0.00  0.00    +0.000 C 
ATOM      3  C   UNL     1      62.125  65.623  71.754  0.00  0.00    +0.000 C 
ATOM      4  C   UNL     1      61.609  66.232  71.962  0.00  0.00    +0.000 C 
ATOM      5  C   UNL     1      61.870  67.015  71.964  0.00  0.00    +0.000 C 
ATOM      6  C   UNL     1      61.353  67.622  72.172  0.00  0.00    +0.000 C 
ATOM      7  C   UNL     1      60.829  66.058  72.169  0.00  0.00    +0.000 A 
ATOM      8  C   UNL     1      60.567  65.275  72.168  0.00  0.00    +0.000 A 
ATOM      9  C   UNL     1      59.788  65.101  72.374  0.00  0.00    +0.000 A 
ATOM     10  C   UNL     1      59.270  65.709  72.583  0.00  0.00    +0.000 A 
ATOM     11  O   UNL     1      58.491  65.535  72.789  0.00  0.00    +0.000 OA
ATOM     12  P   UNL     1      57.974  66.144  72.997  0.00  0.00    +0.000 P 
ATOM     13  O   UNL     1      57.456  66.751  73.205  0.00  0.00    +0.000 OA
ATOM     14  O   UNL     1      57.372  65.591  73.116  0.00  0.00    +0.000 OA
ATOM     15  O   UNL     1      58.575  66.696  72.879  0.00  0.00    +0.000 OA
ATOM     16  C   UNL     1      59.533  66.492  72.584  0.00  0.00    +0.000 A 
ATOM     17  C   UNL     1      60.311  66.666  72.377  0.00  0.00    +0.000 A 
ATOM     18  C   UNL     1      62.906  65.798  71.547  0.00  0.00    +0.000 A 
ATOM     19  C   UNL     1      63.168  66.580  71.549  0.00  0.00    +0.000 A 
ATOM     20  C   UNL     1      63.947  66.755  71.342  0.00  0.00    +0.000 A 
ATOM     21  C   UNL     1      64.465  66.146  71.134  0.00  0.00    +0.000 A 
ATOM     22  O   UNL     1      65.243  66.320  70.928  0.00  0.00    +0.000 OA
ATOM     23  P   UNL     1      65.506  67.103  70.929  0.00  0.00    +0.000 P 
ATOM     24  O   UNL     1      65.768  67.886  70.930  0.00  0.00    +0.000 OA
ATOM     25  O   UNL     1      66.254  66.853  70.690  0.00  0.00    +0.000 OA
ATOM     26  O   UNL     1      64.757  67.353  71.169  0.00  0.00    +0.000 OA
ATOM     27  C   UNL     1      64.202  65.364  71.133  0.00  0.00    +0.000 A 
ATOM     28  C   UNL     1      63.423  65.190  71.340  0.00  0.00    +0.000 A 
ENDROOT
TORSDOF 0
ENDMDL
MODEL 6
REMARK VINA RESULT:   -11.680      2.295      2.865
REMARK INTER + INTRA:         -11.680
REMARK INTER:                 -11.680
REMARK INTRA:                   0.000
REMARK UNBOUND:                 0.000
ROOT
REMARK  Name = fosfestrol
REMARK                            x       y       z     vdW  Elec       q    Type
REMARK                         _______ _______ _______ _____ _____    ______ ____
ATOM      1  C   UNL     1      63.600  64.722  69.772  0.00  0.00    +0.000 C 
ATOM      2  C   UNL     1      62.820  64.576  69.551  0.00  0.00    +0.000 C 
ATOM      3  C   UNL     1      62.202  64.965  69.935  0.00  0.00    +0.000 C 
ATOM      4  C   UNL     1      61.421  64.819  69.714  0.00  0.00    +0.000 C 
ATOM      5  C   UNL     1      60.803  65.207  70.098  0.00  0.00    +0.000 C 
ATOM      6  C   UNL     1      60.022  65.061  69.877  0.00  0.00    +0.000 C 
ATOM      7  C   UNL     1      61.258  64.283  69.108  0.00  0.00    +0.000 A 
ATOM      8  C   UNL     1      61.876  63.894  68.723  0.00  0.00    +0.000 A 
ATOM      9  C   UNL     1      61.712  63.359  68.117  0.00  0.00    +0.000 A 
ATOM     10  C   UNL     1      60.931  63.213  67.896  0.00  0.00    +0.000 A 
ATOM     11  O   UNL     1      60.767  62.677  67.290  0.00  0.00    +0.000 OA
ATOM     12  P   UNL     1      59.986  62.531  67.068  0.00  0.00    +0.000 P 
ATOM     13  O   UNL     1      59.205  62.385  66.846  0.00  0.00    +0.000 OA
ATOM     14  O   UNL     1      60.248  61.997  66.496  0.00  0.00    +0.000 OA
ATOM     15  O   UNL     1      59.724  63.065  67.640  0.00  0.00    +0.000 OA
ATOM     16  C   UNL     1      60.313  63.602  68.280  0.00  0.00    +0.000 A 
ATOM     17  C   UNL     1      60.476  64.137  68.886  0.00  0.00    +0.000 A 
ATOM     18  C   UNL     1      62.366  65.501  70.542  0.00  0.00    +0.000 A 
ATOM     19  C   UNL     1      61.748  65.889  70.926  0.00  0.00    +0.000 A 
ATOM     20  C   UNL     1      61.911  66.425  71.532  0.00  0.00    +0.000 A 
ATOM     21  C   UNL     1      62.693  66.571  71.754  0.00  0.00    +0.000 A 
ATOM     22  O   UNL     1      62.856  67.106  72.359  0.00  0.00    +0.000 OA
ATOM     23  P   UNL     1      62.238  67.495  72.744  0.00  0.00    +0.000 P 
ATOM     24  O   UNL     1      61.620  67.885  73.129  0.00  0.00    +0.000 OA
ATOM     25  O   UNL     1      62.783  67.889  73.222  0.00  0.00    +0.000 OA
ATOM     26  O   UNL     1      61.693  67.101  72.266  0.00  0.00    +0.000 OA
ATOM     27  C   UNL     1      63.310  66.182  71.369  0.00  0.00    +0.000 A 
ATOM     28  C   UNL     1      63.147  65.647  70.763  0.00  0.00    +0.000 A 
ENDROOT
TORSDOF 0
ENDMDL
MODEL 7
REMARK VINA RESULT:   -11.379      4.254      5.114
REMARK INTER + INTRA:         -11.379
REMARK INTER:                 -11.379
REMARK INTRA:                   0.000
REMARK UNBOUND:                 0.000
ROOT
REMARK  Name = fosfestrol
REMARK                            x       y       z     vdW  Elec       q    Type
REMARK                         _______ _______ _______ _____ _____    ______ ____
ATOM      1  C   UNL     1      61.692  64.023  71.426  0.00  0.00    +0.000 C 
ATOM      2  C   UNL     1      62.093  64.738  71.519  0.00  0.00    +0.000 C 
ATOM      3  C   UNL     1      61.697  65.397  71.816  0.00  0.00    +0.000 C 
ATOM      4  C   UNL     1      62.098  66.113  71.909  0.00  0.00    +0.000 C 
ATOM      5  C   UNL     1      61.702  66.773  72.205  0.00  0.00    +0.000 C 
ATOM      6  C   UNL     1      62.102  67.488  72.298  0.00  0.00    +0.000 C 
ATOM      7  C   UNL     1      62.895  66.168  71.706  0.00  0.00    +0.000 A 
ATOM      8  C   UNL     1      63.292  65.507  71.409  0.00  0.00    +0.000 A 
ATOM      9  C   UNL     1      64.089  65.562  71.206  0.00  0.00    +0.000 A 
ATOM     10  C   UNL     1      64.491  66.278  71.299  0.00  0.00    +0.000 A 
ATOM     11  O   UNL     1      65.288  66.332  71.095  0.00  0.00    +0.000 OA
ATOM     12  P   UNL     1      65.689  67.048  71.189  0.00  0.00    +0.000 P 
ATOM     13  O   UNL     1      66.091  67.762  71.282  0.00  0.00    +0.000 OA
ATOM     14  O   UNL     1      66.379  66.698  70.900  0.00  0.00    +0.000 OA
ATOM     15  O   UNL     1      65.000  67.397  71.477  0.00  0.00    +0.000 OA
ATOM     16  C   UNL     1      64.094  66.938  71.595  0.00  0.00    +0.000 A 
ATOM     17  C   UNL     1      63.297  66.883  71.799  0.00  0.00    +0.000 A 
ATOM     18  C   UNL     1      60.898  65.342  72.019  0.00  0.00    +0.000 A 
ATOM     19  C   UNL     1      60.502  66.003  72.316  0.00  0.00    +0.000 A 
ATOM     20  C   UNL     1      59.705  65.948  72.519  0.00  0.00    +0.000 A 
ATOM     21  C   UNL     1      59.303  65.233  72.426  0.00  0.00    +0.000 A 
ATOM     22  O   UNL     1      58.506  65.178  72.629  0.00  0.00    +0.000 OA
ATOM     23  P   UNL     1      58.109  65.838  72.926  0.00  0.00    +0.000 P 
ATOM     24  O   UNL     1      57.712  66.499  73.223  0.00  0.00    +0.000 OA
ATOM     25  O   UNL     1      57.418  65.394  72.990  0.00  0.00    +0.000 OA
ATOM     26  O   UNL     1      58.802  66.282  72.862  0.00  0.00    +0.000 OA
ATOM     27  C   UNL     1      59.700  64.573  72.130  0.00  0.00    +0.000 A 
ATOM     28  C   UNL     1      60.498  64.628  71.926  0.00  0.00    +0.000 A 
ENDROOT
TORSDOF 0
ENDMDL
MODEL 8
REMARK VINA RESULT:   -10.529     24.798     25.967
REMARK INTER + INTRA:         -10.529
REMARK INTER:                 -10.529
REMARK INTRA:                   0.000
REMARK UNBOUND:                 0.000
ROOT
REMARK  Name = fosfestrol
REMARK                            x       y       z     vdW  Elec       q    Type
REMARK                         _______ _______ _______ _____ _____    ______ ____
ATOM      1  C   UNL     1      70.966  81.292  53.244  0.00  0.00    +0.000 C 
ATOM      2  C   UNL     1      70.658  80.924  52.573  0.00  0.00    +0.000 C 
ATOM      3  C   UNL     1      69.843  80.832  52.491  0.00  0.00    +0.000 C 
ATOM      4  C   UNL     1      69.534  80.463  51.821  0.00  0.00    +0.000 C 
ATOM      5  C   UNL     1      68.718  80.371  51.738  0.00  0.00    +0.000 C 
ATOM      6  C   UNL     1      68.410  80.003  51.068  0.00  0.00    +0.000 C 
ATOM      7  C   UNL     1      70.042  80.187  51.232  0.00  0.00    +0.000 A 
ATOM      8  C   UNL     1      70.858  80.279  51.314  0.00  0.00    +0.000 A 
ATOM      9  C   UNL     1      71.365  80.003  50.726  0.00  0.00    +0.000 A 
ATOM     10  C   UNL     1      71.057  79.634  50.054  0.00  0.00    +0.000 A 
ATOM     11  O   UNL     1      71.565  79.357  49.466  0.00  0.00    +0.000 OA
ATOM     12  P   UNL     1      71.256  78.989  48.795  0.00  0.00    +0.000 P 
ATOM     13  O   UNL     1      70.948  78.620  48.124  0.00  0.00    +0.000 OA
ATOM     14  O   UNL     1      72.020  78.882  48.502  0.00  0.00    +0.000 OA
ATOM     15  O   UNL     1      70.492  79.095  49.088  0.00  0.00    +0.000 OA
ATOM     16  C   UNL     1      70.240  79.542  49.972  0.00  0.00    +0.000 A 
ATOM     17  C   UNL     1      69.734  79.818  50.560  0.00  0.00    +0.000 A 
ATOM     18  C   UNL     1      69.335  81.108  53.081  0.00  0.00    +0.000 A 
ATOM     19  C   UNL     1      68.519  81.016  52.998  0.00  0.00    +0.000 A 
ATOM     20  C   UNL     1      68.011  81.292  53.587  0.00  0.00    +0.000 A 
ATOM     21  C   UNL     1      68.320  81.661  54.258  0.00  0.00    +0.000 A 
ATOM     22  O   UNL     1      67.813  81.937  54.846  0.00  0.00    +0.000 OA
ATOM     23  P   UNL     1      66.996  81.845  54.764  0.00  0.00    +0.000 P 
ATOM     24  O   UNL     1      66.180  81.753  54.682  0.00  0.00    +0.000 OA
ATOM     25  O   UNL     1      66.881  82.217  55.491  0.00  0.00    +0.000 OA
ATOM     26  O   UNL     1      67.112  81.473  54.037  0.00  0.00    +0.000 OA
ATOM     27  C   UNL     1      69.135  81.753  54.339  0.00  0.00    +0.000 A 
ATOM     28  C   UNL     1      69.643  81.476  53.751  0.00  0.00    +0.000 A 
ENDROOT
TORSDOF 0
ENDMDL
MODEL 9
REMARK VINA RESULT:   -10.484     24.699     26.487
REMARK INTER + INTRA:         -10.484
REMARK INTER:                 -10.484
REMARK INTRA:                   0.000
REMARK UNBOUND:                 0.000
ROOT
REMARK  Name = fosfestrol
REMARK                            x       y       z     vdW  Elec       q    Type
REMARK                         _______ _______ _______ _____ _____    ______ ____
ATOM      1  C   UNL     1      71.297  80.912  52.561  0.00  0.00    +0.000 C 
ATOM      2  C   UNL     1      70.474  80.889  52.607  0.00  0.00    +0.000 C 
ATOM      3  C   UNL     1      70.035  80.562  51.991  0.00  0.00    +0.000 C 
ATOM      4  C   UNL     1      69.212  80.539  52.037  0.00  0.00    +0.000 C 
ATOM      5  C   UNL     1      68.772  80.212  51.420  0.00  0.00    +0.000 C 
ATOM      6  C   UNL     1      67.949  80.189  51.466  0.00  0.00    +0.000 C 
ATOM      7  C   UNL     1      68.827  80.843  52.700  0.00  0.00    +0.000 A 
ATOM      8  C   UNL     1      69.267  81.171  53.318  0.00  0.00    +0.000 A 
ATOM      9  C   UNL     1      68.883  81.474  53.981  0.00  0.00    +0.000 A 
ATOM     10  C   UNL     1      68.059  81.451  54.028  0.00  0.00    +0.000 A 
ATOM     11  O   UNL     1      67.674  81.755  54.691  0.00  0.00    +0.000 OA
ATOM     12  P   UNL     1      66.851  81.732  54.737  0.00  0.00    +0.000 P 
ATOM     13  O   UNL     1      66.028  81.709  54.784  0.00  0.00    +0.000 OA
ATOM     14  O   UNL     1      66.883  82.097  55.477  0.00  0.00    +0.000 OA
ATOM     15  O   UNL     1      66.819  81.368  53.998  0.00  0.00    +0.000 OA
ATOM     16  C   UNL     1      67.620  81.124  53.410  0.00  0.00    +0.000 A 
ATOM     17  C   UNL     1      68.003  80.820  52.747  0.00  0.00    +0.000 A 
ATOM     18  C   UNL     1      70.420  80.258  51.326  0.00  0.00    +0.000 A 
ATOM     19  C   UNL     1      69.980  79.931  50.709  0.00  0.00    +0.000 A 
ATOM     20  C   UNL     1      70.365  79.627  50.046  0.00  0.00    +0.000 A 
ATOM     21  C   UNL     1      71.189  79.650  49.999  0.00  0.00    +0.000 A 
ATOM     22  O   UNL     1      71.573  79.346  49.336  0.00  0.00    +0.000 OA
ATOM     23  P   UNL     1      71.133  79.019  48.718  0.00  0.00    +0.000 P 
ATOM     24  O   UNL     1      70.694  78.691  48.101  0.00  0.00    +0.000 OA
ATOM     25  O   UNL     1      71.830  78.856  48.308  0.00  0.00    +0.000 OA
ATOM     26  O   UNL     1      70.436  79.181  49.129  0.00  0.00    +0.000 OA
ATOM     27  C   UNL     1      71.627  79.977  50.616  0.00  0.00    +0.000 A 
ATOM     28  C   UNL     1      71.243  80.281  51.280  0.00  0.00    +0.000 A 
ENDROOT
TORSDOF 0
ENDMDL
