MODEL 1
REMARK VINA RESULT:   -17.059      0.000      0.000
REMARK INTER + INTRA:         -17.059
REMARK INTER:                 -17.059
REMARK INTRA:                   0.000
REMARK UNBOUND:                 0.000
ROOT
REMARK  Name = fostemsavir
REMARK                            x       y       z     vdW  Elec       q    Type
REMARK                         _______ _______ _______ _____ _____    ______ ____
ATOM      1  C   UNL     1      62.751  68.074  73.217  0.00  0.00    +0.000 C 
ATOM      2  C   UNL     1      62.748  67.573  72.562  0.00  0.00    +0.000 A 
ATOM      3  N   UNL     1      62.092  67.170  72.263  0.00  0.00    +0.000 NA
ATOM      4  N   UNL     1      62.338  66.734  71.607  0.00  0.00    +0.000 N 
ATOM      5  C   UNL     1      63.146  66.868  71.501  0.00  0.00    +0.000 A 
ATOM      6  N   UNL     1      63.399  67.386  72.091  0.00  0.00    +0.000 NA
ATOM      7  C   UNL     1      61.861  66.251  71.141  0.00  0.00    +0.000 A 
ATOM      8  N   UNL     1      61.059  66.170  71.314  0.00  0.00    +0.000 NA
ATOM      9  C   UNL     1      60.582  65.686  70.847  0.00  0.00    +0.000 A 
ATOM     10  C   UNL     1      60.906  65.283  70.206  0.00  0.00    +0.000 A 
ATOM     11  C   UNL     1      61.709  65.363  70.031  0.00  0.00    +0.000 A 
ATOM     12  C   UNL     1      62.186  65.847  70.498  0.00  0.00    +0.000 A 
ATOM     13  N   UNL     1      62.952  65.819  70.195  0.00  0.00    +0.000 N 
ATOM     14  C   UNL     1      62.948  65.317  69.539  0.00  0.00    +0.000 A 
ATOM     15  C   UNL     1      62.180  65.035  69.439  0.00  0.00    +0.000 A 
ATOM     16  C   UNL     1      61.927  64.517  68.848  0.00  0.00    +0.000 C 
ATOM     17  O   UNL     1      62.464  64.234  68.290  0.00  0.00    +0.000 OA
ATOM     18  C   UNL     1      61.137  64.282  68.816  0.00  0.00    +0.000 C 
ATOM     19  O   UNL     1      60.599  64.566  69.375  0.00  0.00    +0.000 OA
ATOM     20  N   UNL     1      60.884  63.765  68.227  0.00  0.00    +0.000 N 
ATOM     21  C   UNL     1      60.094  63.530  68.195  0.00  0.00    +0.000 C 
ATOM     22  C   UNL     1      59.841  63.012  67.604  0.00  0.00    +0.000 C 
ATOM     23  N   UNL     1      60.378  62.729  67.046  0.00  0.00    +0.000 N 
ATOM     24  C   UNL     1      61.169  62.963  67.078  0.00  0.00    +0.000 C 
ATOM     25  C   UNL     1      61.421  63.481  67.668  0.00  0.00    +0.000 C 
ATOM     26  C   UNL     1      60.125  62.210  66.456  0.00  0.00    +0.000 C 
ATOM     27  O   UNL     1      59.335  61.976  66.424  0.00  0.00    +0.000 OA
ATOM     28  C   UNL     1      60.663  61.926  65.898  0.00  0.00    +0.000 A 
ATOM     29  C   UNL     1      60.410  61.409  65.308  0.00  0.00    +0.000 A 
ATOM     30  C   UNL     1      60.947  61.125  64.750  0.00  0.00    +0.000 A 
ATOM     31  C   UNL     1      61.737  61.359  64.782  0.00  0.00    +0.000 A 
ATOM     32  C   UNL     1      61.990  61.878  65.372  0.00  0.00    +0.000 A 
ATOM     33  C   UNL     1      61.453  62.161  65.930  0.00  0.00    +0.000 A 
ATOM     34  C   UNL     1      63.608  66.221  70.494  0.00  0.00    +0.000 C 
ATOM     35  O   UNL     1      64.343  66.139  70.130  0.00  0.00    +0.000 OA
ATOM     36  P   UNL     1      64.999  66.541  70.429  0.00  0.00    +0.000 P 
ATOM     37  O   UNL     1      64.527  66.869  71.022  0.00  0.00    +0.000 OA
ATOM     38  O   UNL     1      65.471  66.214  69.836  0.00  0.00    +0.000 OA
ATOM     39  O   UNL     1      65.654  66.944  70.727  0.00  0.00    +0.000 OA
ATOM     40  O   UNL     1      60.428  64.798  69.738  0.00  0.00    +0.000 OA
ATOM     41  C   UNL     1      59.627  64.718  69.912  0.00  0.00    +0.000 C 
ENDROOT
TORSDOF 0
ENDMDL
MODEL 2
REMARK VINA RESULT:   -14.225      1.840      6.196
REMARK INTER + INTRA:         -14.225
REMARK INTER:                 -14.225
REMARK INTRA:                   0.000
REMARK UNBOUND:                 0.000
ROOT
REMARK  Name = fostemsavir
REMARK                            x       y       z     vdW  Elec       q    Type
REMARK                         _______ _______ _______ _____ _____    ______ ____
ATOM      1  C   UNL     1      58.457  61.575  66.123  0.00  0.00    +0.000 C 
ATOM      2  C   UNL     1      59.103  61.967  66.451  0.00  0.00    +0.000 A 
ATOM      3  N   UNL     1      59.107  62.383  67.164  0.00  0.00    +0.000 NA
ATOM      4  N   UNL     1      59.865  62.686  67.279  0.00  0.00    +0.000 N 
ATOM      5  C   UNL     1      60.331  62.458  66.637  0.00  0.00    +0.000 A 
ATOM      6  N   UNL     1      59.860  62.014  66.125  0.00  0.00    +0.000 NA
ATOM      7  C   UNL     1      60.115  63.138  67.922  0.00  0.00    +0.000 A 
ATOM      8  N   UNL     1      59.585  63.324  68.526  0.00  0.00    +0.000 NA
ATOM      9  C   UNL     1      59.835  63.776  69.169  0.00  0.00    +0.000 A 
ATOM     10  C   UNL     1      60.614  64.042  69.209  0.00  0.00    +0.000 A 
ATOM     11  C   UNL     1      61.145  63.856  68.605  0.00  0.00    +0.000 A 
ATOM     12  C   UNL     1      60.895  63.404  67.961  0.00  0.00    +0.000 A 
ATOM     13  N   UNL     1      61.537  63.308  67.452  0.00  0.00    +0.000 N 
ATOM     14  C   UNL     1      62.184  63.702  67.782  0.00  0.00    +0.000 A 
ATOM     15  C   UNL     1      61.941  64.040  68.494  0.00  0.00    +0.000 A 
ATOM     16  C   UNL     1      62.412  64.484  69.005  0.00  0.00    +0.000 C 
ATOM     17  O   UNL     1      63.204  64.623  68.819  0.00  0.00    +0.000 OA
ATOM     18  C   UNL     1      62.092  64.789  69.701  0.00  0.00    +0.000 C 
ATOM     19  O   UNL     1      61.300  64.649  69.886  0.00  0.00    +0.000 OA
ATOM     20  N   UNL     1      62.563  65.233  70.212  0.00  0.00    +0.000 N 
ATOM     21  C   UNL     1      62.242  65.537  70.908  0.00  0.00    +0.000 C 
ATOM     22  C   UNL     1      62.714  65.982  71.420  0.00  0.00    +0.000 C 
ATOM     23  N   UNL     1      63.505  66.121  71.234  0.00  0.00    +0.000 N 
ATOM     24  C   UNL     1      63.826  65.816  70.538  0.00  0.00    +0.000 C 
ATOM     25  C   UNL     1      63.355  65.372  70.027  0.00  0.00    +0.000 C 
ATOM     26  C   UNL     1      63.977  66.565  71.746  0.00  0.00    +0.000 C 
ATOM     27  O   UNL     1      63.656  66.870  72.442  0.00  0.00    +0.000 OA
ATOM     28  C   UNL     1      64.769  66.705  71.561  0.00  0.00    +0.000 A 
ATOM     29  C   UNL     1      65.240  67.148  72.071  0.00  0.00    +0.000 A 
ATOM     30  C   UNL     1      66.032  67.288  71.887  0.00  0.00    +0.000 A 
ATOM     31  C   UNL     1      66.352  66.983  71.190  0.00  0.00    +0.000 A 
ATOM     32  C   UNL     1      65.881  66.539  70.679  0.00  0.00    +0.000 A 
ATOM     33  C   UNL     1      65.089  66.400  70.864  0.00  0.00    +0.000 A 
ATOM     34  C   UNL     1      61.533  62.893  66.739  0.00  0.00    +0.000 C 
ATOM     35  O   UNL     1      62.221  62.844  66.287  0.00  0.00    +0.000 OA
ATOM     36  P   UNL     1      62.217  62.429  65.574  0.00  0.00    +0.000 P 
ATOM     37  O   UNL     1      61.421  62.245  65.685  0.00  0.00    +0.000 OA
ATOM     38  O   UNL     1      63.014  62.612  65.463  0.00  0.00    +0.000 OA
ATOM     39  O   UNL     1      62.214  62.013  64.862  0.00  0.00    +0.000 OA
ATOM     40  O   UNL     1      60.864  64.494  69.853  0.00  0.00    +0.000 OA
ATOM     41  C   UNL     1      60.334  64.680  70.456  0.00  0.00    +0.000 C 
ENDROOT
TORSDOF 0
ENDMDL
