MODEL 1
REMARK VINA RESULT:    -6.235      0.000      0.000
REMARK INTER + INTRA:          -6.235
REMARK INTER:                  -6.235
REMARK INTRA:                   0.000
REMARK UNBOUND:                 0.000
ROOT
REMARK  Name = furamicid
REMARK                            x       y       z     vdW  Elec       q    Type
REMARK                         _______ _______ _______ _____ _____    ______ ____
ATOM      1  C   UNL     1      61.493  63.123  67.645  0.00  0.00    +0.000 C 
ATOM      2  O   UNL     1      61.779  62.905  66.903  0.00  0.00    +0.000 OA
ATOM      3  C   UNL     1      61.310  62.453  66.396  0.00  0.00    +0.000 C 
ATOM      4  C   UNL     1      61.597  62.234  65.654  0.00  0.00    +0.000 A 
ATOM      5  C   UNL     1      62.337  62.425  65.344  0.00  0.00    +0.000 A 
ATOM      6  C   UNL     1      62.390  62.095  64.590  0.00  0.00    +0.000 A 
ATOM      7  C   UNL     1      61.683  61.699  64.434  0.00  0.00    +0.000 A 
ATOM      8  O   UNL     1      61.193  61.785  65.091  0.00  0.00    +0.000 OA
ATOM      9  N   UNL     1      61.499  61.289  63.741  0.00  0.00    +0.000 N 
ATOM     10  O   UNL     1      62.049  61.251  63.128  0.00  0.00    +0.000 OA
ATOM     11  O   UNL     1      60.767  60.919  63.664  0.00  0.00    +0.000 OA
ENDROOT
TORSDOF 0
ENDMDL
MODEL 2
REMARK VINA RESULT:    -5.675      1.601      3.302
REMARK INTER + INTRA:          -5.675
REMARK INTER:                  -5.675
REMARK INTRA:                   0.000
REMARK UNBOUND:                 0.000
ROOT
REMARK  Name = furamicid
REMARK                            x       y       z     vdW  Elec       q    Type
REMARK                         _______ _______ _______ _____ _____    ______ ____
ATOM      1  C   UNL     1      62.567  61.787  63.739  0.00  0.00    +0.000 C 
ATOM      2  O   UNL     1      62.223  61.717  64.486  0.00  0.00    +0.000 OA
ATOM      3  C   UNL     1      62.181  62.373  64.984  0.00  0.00    +0.000 C 
ATOM      4  C   UNL     1      61.837  62.303  65.731  0.00  0.00    +0.000 A 
ATOM      5  C   UNL     1      61.512  61.616  66.053  0.00  0.00    +0.000 A 
ATOM      6  C   UNL     1      61.232  61.796  66.807  0.00  0.00    +0.000 A 
ATOM      7  C   UNL     1      61.383  62.594  66.951  0.00  0.00    +0.000 A 
ATOM      8  O   UNL     1      61.757  62.908  66.287  0.00  0.00    +0.000 OA
ATOM      9  N   UNL     1      61.193  63.007  67.641  0.00  0.00    +0.000 N 
ATOM     10  O   UNL     1      60.817  62.618  68.263  0.00  0.00    +0.000 OA
ATOM     11  O   UNL     1      61.380  63.807  67.707  0.00  0.00    +0.000 OA
ENDROOT
TORSDOF 0
ENDMDL
MODEL 3
REMARK VINA RESULT:    -5.243      3.137      4.997
REMARK INTER + INTRA:          -5.243
REMARK INTER:                  -5.243
REMARK INTRA:                   0.000
REMARK UNBOUND:                 0.000
ROOT
REMARK  Name = furamicid
REMARK                            x       y       z     vdW  Elec       q    Type
REMARK                         _______ _______ _______ _____ _____    ______ ____
ATOM      1  C   UNL     1      61.501  62.741  66.330  0.00  0.00    +0.000 C 
ATOM      2  O   UNL     1      61.223  62.451  67.050  0.00  0.00    +0.000 OA
ATOM      3  C   UNL     1      61.199  62.943  67.712  0.00  0.00    +0.000 C 
ATOM      4  C   UNL     1      60.921  62.653  68.432  0.00  0.00    +0.000 A 
ATOM      5  C   UNL     1      60.650  61.887  68.575  0.00  0.00    +0.000 A 
ATOM      6  C   UNL     1      60.427  61.839  69.367  0.00  0.00    +0.000 A 
ATOM      7  C   UNL     1      60.560  62.575  69.715  0.00  0.00    +0.000 A 
ATOM      8  O   UNL     1      60.866  63.078  69.138  0.00  0.00    +0.000 OA
ATOM      9  N   UNL     1      60.414  62.773  70.503  0.00  0.00    +0.000 N 
ATOM     10  O   UNL     1      60.105  62.208  71.019  0.00  0.00    +0.000 OA
ATOM     11  O   UNL     1      60.575  63.535  70.774  0.00  0.00    +0.000 OA
ENDROOT
TORSDOF 0
ENDMDL
MODEL 4
REMARK VINA RESULT:    -5.225      1.550      2.438
REMARK INTER + INTRA:          -5.225
REMARK INTER:                  -5.225
REMARK INTRA:                   0.000
REMARK UNBOUND:                 0.000
ROOT
REMARK  Name = furamicid
REMARK                            x       y       z     vdW  Elec       q    Type
REMARK                         _______ _______ _______ _____ _____    ______ ____
ATOM      1  C   UNL     1      60.482  62.655  69.830  0.00  0.00    +0.000 C 
ATOM      2  O   UNL     1      60.390  62.531  69.020  0.00  0.00    +0.000 OA
ATOM      3  C   UNL     1      61.049  62.538  68.523  0.00  0.00    +0.000 C 
ATOM      4  C   UNL     1      60.956  62.414  67.713  0.00  0.00    +0.000 A 
ATOM      5  C   UNL     1      60.244  62.276  67.322  0.00  0.00    +0.000 A 
ATOM      6  C   UNL     1      60.408  62.183  66.519  0.00  0.00    +0.000 A 
ATOM      7  C   UNL     1      61.222  62.263  66.414  0.00  0.00    +0.000 A 
ATOM      8  O   UNL     1      61.561  62.406  67.152  0.00  0.00    +0.000 OA
ATOM      9  N   UNL     1      61.626  62.210  65.696  0.00  0.00    +0.000 N 
ATOM     10  O   UNL     1      61.210  62.064  64.999  0.00  0.00    +0.000 OA
ATOM     11  O   UNL     1      62.445  62.303  65.676  0.00  0.00    +0.000 OA
ENDROOT
TORSDOF 0
ENDMDL
MODEL 5
REMARK VINA RESULT:    -5.147      3.170      4.283
REMARK INTER + INTRA:          -5.147
REMARK INTER:                  -5.147
REMARK INTRA:                   0.000
REMARK UNBOUND:                 0.000
ROOT
REMARK  Name = furamicid
REMARK                            x       y       z     vdW  Elec       q    Type
REMARK                         _______ _______ _______ _____ _____    ______ ____
ATOM      1  C   UNL     1      60.097  63.328  71.729  0.00  0.00    +0.000 C 
ATOM      2  O   UNL     1      60.200  62.910  71.025  0.00  0.00    +0.000 OA
ATOM      3  C   UNL     1      60.461  63.301  70.347  0.00  0.00    +0.000 C 
ATOM      4  C   UNL     1      60.564  62.884  69.643  0.00  0.00    +0.000 A 
ATOM      5  C   UNL     1      60.429  62.077  69.533  0.00  0.00    +0.000 A 
ATOM      6  C   UNL     1      60.601  61.895  68.748  0.00  0.00    +0.000 A 
ATOM      7  C   UNL     1      60.843  62.588  68.372  0.00  0.00    +0.000 A 
ATOM      8  O   UNL     1      60.820  63.200  68.925  0.00  0.00    +0.000 OA
ATOM      9  N   UNL     1      61.068  62.658  67.581  0.00  0.00    +0.000 N 
ATOM     10  O   UNL     1      61.063  61.994  67.091  0.00  0.00    +0.000 OA
ATOM     11  O   UNL     1      61.298  63.391  67.280  0.00  0.00    +0.000 OA
ENDROOT
TORSDOF 0
ENDMDL
MODEL 6
REMARK VINA RESULT:    -5.142      6.813      7.881
REMARK INTER + INTRA:          -5.142
REMARK INTER:                  -5.142
REMARK INTRA:                   0.000
REMARK UNBOUND:                 0.000
ROOT
REMARK  Name = furamicid
REMARK                            x       y       z     vdW  Elec       q    Type
REMARK                         _______ _______ _______ _____ _____    ______ ____
ATOM      1  C   UNL     1      62.788  64.437  70.904  0.00  0.00    +0.000 C 
ATOM      2  O   UNL     1      63.295  64.969  70.529  0.00  0.00    +0.000 OA
ATOM      3  C   UNL     1      63.902  65.330  70.954  0.00  0.00    +0.000 C 
ATOM      4  C   UNL     1      64.409  65.862  70.579  0.00  0.00    +0.000 A 
ATOM      5  C   UNL     1      64.377  66.086  69.786  0.00  0.00    +0.000 A 
ATOM      6  C   UNL     1      64.985  66.625  69.648  0.00  0.00    +0.000 A 
ATOM      7  C   UNL     1      65.393  66.735  70.356  0.00  0.00    +0.000 A 
ATOM      8  O   UNL     1      65.038  66.264  70.932  0.00  0.00    +0.000 OA
ATOM      9  N   UNL     1      66.044  67.231  70.469  0.00  0.00    +0.000 N 
ATOM     10  O   UNL     1      66.340  67.671  69.838  0.00  0.00    +0.000 OA
ATOM     11  O   UNL     1      66.398  67.284  71.212  0.00  0.00    +0.000 OA
ENDROOT
TORSDOF 0
ENDMDL
MODEL 7
REMARK VINA RESULT:    -5.067      5.940      7.046
REMARK INTER + INTRA:          -5.067
REMARK INTER:                  -5.067
REMARK INTRA:                   0.000
REMARK UNBOUND:                 0.000
ROOT
REMARK  Name = furamicid
REMARK                            x       y       z     vdW  Elec       q    Type
REMARK                         _______ _______ _______ _____ _____    ______ ____
ATOM      1  C   UNL     1      66.140  67.599  70.058  0.00  0.00    +0.000 C 
ATOM      2  O   UNL     1      65.675  66.947  69.859  0.00  0.00    +0.000 OA
ATOM      3  C   UNL     1      65.167  66.617  70.418  0.00  0.00    +0.000 C 
ATOM      4  C   UNL     1      64.701  65.965  70.219  0.00  0.00    +0.000 A 
ATOM      5  C   UNL     1      64.685  65.587  69.487  0.00  0.00    +0.000 A 
ATOM      6  C   UNL     1      64.144  64.966  69.533  0.00  0.00    +0.000 A 
ATOM      7  C   UNL     1      63.826  64.960  70.294  0.00  0.00    +0.000 A 
ATOM      8  O   UNL     1      64.171  65.578  70.719  0.00  0.00    +0.000 OA
ATOM      9  N   UNL     1      63.263  64.429  70.581  0.00  0.00    +0.000 N 
ATOM     10  O   UNL     1      62.967  63.837  70.089  0.00  0.00    +0.000 OA
ATOM     11  O   UNL     1      62.996  64.492  71.358  0.00  0.00    +0.000 OA
ENDROOT
TORSDOF 0
ENDMDL
MODEL 8
REMARK VINA RESULT:    -4.997      5.426      6.000
REMARK INTER + INTRA:          -4.997
REMARK INTER:                  -4.997
REMARK INTRA:                   0.000
REMARK UNBOUND:                 0.000
ROOT
REMARK  Name = furamicid
REMARK                            x       y       z     vdW  Elec       q    Type
REMARK                         _______ _______ _______ _____ _____    ______ ____
ATOM      1  C   UNL     1      63.306  64.985  71.140  0.00  0.00    +0.000 C 
ATOM      2  O   UNL     1      62.799  64.355  71.305  0.00  0.00    +0.000 OA
ATOM      3  C   UNL     1      62.365  64.004  70.697  0.00  0.00    +0.000 C 
ATOM      4  C   UNL     1      61.858  63.375  70.863  0.00  0.00    +0.000 A 
ATOM      5  C   UNL     1      61.727  63.039  71.604  0.00  0.00    +0.000 A 
ATOM      6  C   UNL     1      61.181  62.428  71.515  0.00  0.00    +0.000 A 
ATOM      7  C   UNL     1      60.973  62.386  70.717  0.00  0.00    +0.000 A 
ATOM      8  O   UNL     1      61.391  62.971  70.314  0.00  0.00    +0.000 OA
ATOM      9  N   UNL     1      60.440  61.852  70.382  0.00  0.00    +0.000 N 
ATOM     10  O   UNL     1      60.062  61.295  70.858  0.00  0.00    +0.000 OA
ATOM     11  O   UNL     1      60.287  61.876  69.573  0.00  0.00    +0.000 OA
ENDROOT
TORSDOF 0
ENDMDL
MODEL 9
REMARK VINA RESULT:    -4.904     24.231     24.882
REMARK INTER + INTRA:          -4.904
REMARK INTER:                  -4.904
REMARK INTRA:                   0.000
REMARK UNBOUND:                 0.000
ROOT
REMARK  Name = furamicid
REMARK                            x       y       z     vdW  Elec       q    Type
REMARK                         _______ _______ _______ _____ _____    ______ ____
ATOM      1  C   UNL     1      69.106  80.382  51.937  0.00  0.00    +0.000 C 
ATOM      2  O   UNL     1      69.373  79.941  51.292  0.00  0.00    +0.000 OA
ATOM      3  C   UNL     1      70.123  80.080  50.980  0.00  0.00    +0.000 C 
ATOM      4  C   UNL     1      70.390  79.639  50.335  0.00  0.00    +0.000 A 
ATOM      5  C   UNL     1      69.971  79.044  49.948  0.00  0.00    +0.000 A 
ATOM      6  C   UNL     1      70.445  78.754  49.339  0.00  0.00    +0.000 A 
ATOM      7  C   UNL     1      71.157  79.169  49.350  0.00  0.00    +0.000 A 
ATOM      8  O   UNL     1      71.124  79.717  49.965  0.00  0.00    +0.000 OA
ATOM      9  N   UNL     1      71.793  79.057  48.835  0.00  0.00    +0.000 N 
ATOM     10  O   UNL     1      71.746  78.485  48.242  0.00  0.00    +0.000 OA
ATOM     11  O   UNL     1      72.473  79.516  48.913  0.00  0.00    +0.000 OA
ENDROOT
TORSDOF 0
ENDMDL
