MODEL 1
REMARK VINA RESULT:    -6.272      0.000      0.000
REMARK INTER + INTRA:          -6.272
REMARK INTER:                  -6.272
REMARK INTRA:                   0.000
REMARK UNBOUND:                 0.000
ROOT
REMARK  Name = galactose
REMARK                            x       y       z     vdW  Elec       q    Type
REMARK                         _______ _______ _______ _____ _____    ______ ____
ATOM      1  O   UNL     1      60.347  62.444  66.787  0.00  0.00    +0.000 OA
ATOM      2  C   UNL     1      60.166  62.000  66.115  0.00  0.00    +0.000 C 
ATOM      3  C   UNL     1      60.727  61.908  65.518  0.00  0.00    +0.000 C 
ATOM      4  O   UNL     1      60.547  61.464  64.847  0.00  0.00    +0.000 OA
ATOM      5  C   UNL     1      61.109  61.373  64.249  0.00  0.00    +0.000 C 
ATOM      6  O   UNL     1      60.928  60.929  63.578  0.00  0.00    +0.000 OA
ATOM      7  C   UNL     1      61.851  61.725  64.323  0.00  0.00    +0.000 C 
ATOM      8  O   UNL     1      62.413  61.633  63.725  0.00  0.00    +0.000 OA
ATOM      9  C   UNL     1      62.032  62.169  64.995  0.00  0.00    +0.000 C 
ATOM     10  O   UNL     1      62.774  62.522  65.069  0.00  0.00    +0.000 OA
ATOM     11  C   UNL     1      61.470  62.261  65.592  0.00  0.00    +0.000 C 
ATOM     12  O   UNL     1      61.651  62.706  66.264  0.00  0.00    +0.000 OA
ENDROOT
TORSDOF 0
ENDMDL
MODEL 2
REMARK VINA RESULT:    -6.244      0.551      2.709
REMARK INTER + INTRA:          -6.244
REMARK INTER:                  -6.244
REMARK INTRA:                   0.000
REMARK UNBOUND:                 0.000
ROOT
REMARK  Name = galactose
REMARK                            x       y       z     vdW  Elec       q    Type
REMARK                         _______ _______ _______ _____ _____    ______ ____
ATOM      1  O   UNL     1      62.365  61.616  63.475  0.00  0.00    +0.000 OA
ATOM      2  C   UNL     1      62.557  62.012  64.174  0.00  0.00    +0.000 C 
ATOM      3  C   UNL     1      62.014  62.042  64.793  0.00  0.00    +0.000 C 
ATOM      4  O   UNL     1      62.206  62.438  65.491  0.00  0.00    +0.000 OA
ATOM      5  C   UNL     1      61.662  62.469  66.111  0.00  0.00    +0.000 C 
ATOM      6  O   UNL     1      61.854  62.864  66.809  0.00  0.00    +0.000 OA
ATOM      7  C   UNL     1      60.927  62.104  66.033  0.00  0.00    +0.000 C 
ATOM      8  O   UNL     1      60.383  62.135  66.654  0.00  0.00    +0.000 OA
ATOM      9  C   UNL     1      60.734  61.708  65.335  0.00  0.00    +0.000 C 
ATOM     10  O   UNL     1      59.998  61.343  65.256  0.00  0.00    +0.000 OA
ATOM     11  C   UNL     1      61.277  61.677  64.715  0.00  0.00    +0.000 C 
ATOM     12  O   UNL     1      61.085  61.281  64.017  0.00  0.00    +0.000 OA
ENDROOT
TORSDOF 0
ENDMDL
MODEL 3
REMARK VINA RESULT:    -5.475      1.693      2.857
REMARK INTER + INTRA:          -5.475
REMARK INTER:                  -5.475
REMARK INTRA:                   0.000
REMARK UNBOUND:                 0.000
ROOT
REMARK  Name = galactose
REMARK                            x       y       z     vdW  Elec       q    Type
REMARK                         _______ _______ _______ _____ _____    ______ ____
ATOM      1  O   UNL     1      61.157  63.624  69.075  0.00  0.00    +0.000 OA
ATOM      2  C   UNL     1      61.613  63.554  68.390  0.00  0.00    +0.000 C 
ATOM      3  C   UNL     1      61.309  63.164  67.731  0.00  0.00    +0.000 C 
ATOM      4  O   UNL     1      61.765  63.094  67.047  0.00  0.00    +0.000 OA
ATOM      5  C   UNL     1      61.461  62.704  66.387  0.00  0.00    +0.000 C 
ATOM      6  O   UNL     1      61.917  62.634  65.703  0.00  0.00    +0.000 OA
ATOM      7  C   UNL     1      60.702  62.383  66.411  0.00  0.00    +0.000 C 
ATOM      8  O   UNL     1      60.398  61.993  65.750  0.00  0.00    +0.000 OA
ATOM      9  C   UNL     1      60.245  62.453  67.095  0.00  0.00    +0.000 C 
ATOM     10  O   UNL     1      59.485  62.132  67.119  0.00  0.00    +0.000 OA
ATOM     11  C   UNL     1      60.549  62.843  67.755  0.00  0.00    +0.000 C 
ATOM     12  O   UNL     1      60.093  62.913  68.440  0.00  0.00    +0.000 OA
ENDROOT
TORSDOF 0
ENDMDL
MODEL 4
REMARK VINA RESULT:    -5.358      2.520      3.940
REMARK INTER + INTRA:          -5.358
REMARK INTER:                  -5.358
REMARK INTRA:                   0.000
REMARK UNBOUND:                 0.000
ROOT
REMARK  Name = galactose
REMARK                            x       y       z     vdW  Elec       q    Type
REMARK                         _______ _______ _______ _____ _____    ______ ____
ATOM      1  O   UNL     1      60.111  62.668  66.339  0.00  0.00    +0.000 OA
ATOM      2  C   UNL     1      59.929  62.236  67.019  0.00  0.00    +0.000 C 
ATOM      3  C   UNL     1      60.297  62.418  67.733  0.00  0.00    +0.000 C 
ATOM      4  O   UNL     1      60.115  61.987  68.413  0.00  0.00    +0.000 OA
ATOM      5  C   UNL     1      60.483  62.169  69.128  0.00  0.00    +0.000 C 
ATOM      6  O   UNL     1      60.300  61.738  69.807  0.00  0.00    +0.000 OA
ATOM      7  C   UNL     1      61.032  62.782  69.165  0.00  0.00    +0.000 C 
ATOM      8  O   UNL     1      61.401  62.965  69.881  0.00  0.00    +0.000 OA
ATOM      9  C   UNL     1      61.215  63.215  68.486  0.00  0.00    +0.000 C 
ATOM     10  O   UNL     1      61.765  63.828  68.522  0.00  0.00    +0.000 OA
ATOM     11  C   UNL     1      60.847  63.032  67.770  0.00  0.00    +0.000 C 
ATOM     12  O   UNL     1      61.030  63.464  67.090  0.00  0.00    +0.000 OA
ENDROOT
TORSDOF 0
ENDMDL
MODEL 5
REMARK VINA RESULT:    -5.352      3.183      4.352
REMARK INTER + INTRA:          -5.352
REMARK INTER:                  -5.352
REMARK INTRA:                   0.000
REMARK UNBOUND:                 0.000
ROOT
REMARK  Name = galactose
REMARK                            x       y       z     vdW  Elec       q    Type
REMARK                         _______ _______ _______ _____ _____    ______ ____
ATOM      1  O   UNL     1      60.132  61.607  70.502  0.00  0.00    +0.000 OA
ATOM      2  C   UNL     1      60.622  62.269  70.442  0.00  0.00    +0.000 C 
ATOM      3  C   UNL     1      60.847  62.549  69.701  0.00  0.00    +0.000 C 
ATOM      4  O   UNL     1      61.336  63.211  69.640  0.00  0.00    +0.000 OA
ATOM      5  C   UNL     1      61.562  63.491  68.898  0.00  0.00    +0.000 C 
ATOM      6  O   UNL     1      62.051  64.152  68.839  0.00  0.00    +0.000 OA
ATOM      7  C   UNL     1      61.298  63.110  68.216  0.00  0.00    +0.000 C 
ATOM      8  O   UNL     1      61.524  63.391  67.473  0.00  0.00    +0.000 OA
ATOM      9  C   UNL     1      60.809  62.449  68.275  0.00  0.00    +0.000 C 
ATOM     10  O   UNL     1      60.544  62.067  67.593  0.00  0.00    +0.000 OA
ATOM     11  C   UNL     1      60.583  62.168  69.017  0.00  0.00    +0.000 C 
ATOM     12  O   UNL     1      60.093  61.506  69.077  0.00  0.00    +0.000 OA
ENDROOT
TORSDOF 0
ENDMDL
MODEL 6
REMARK VINA RESULT:    -5.202      8.103      8.949
REMARK INTER + INTRA:          -5.202
REMARK INTER:                  -5.202
REMARK INTRA:                   0.000
REMARK UNBOUND:                 0.000
ROOT
REMARK  Name = galactose
REMARK                            x       y       z     vdW  Elec       q    Type
REMARK                         _______ _______ _______ _____ _____    ______ ____
ATOM      1  O   UNL     1      61.928  67.615  73.222  0.00  0.00    +0.000 OA
ATOM      2  C   UNL     1      61.865  67.803  72.421  0.00  0.00    +0.000 C 
ATOM      3  C   UNL     1      61.161  67.657  72.017  0.00  0.00    +0.000 C 
ATOM      4  O   UNL     1      61.097  67.844  71.217  0.00  0.00    +0.000 OA
ATOM      5  C   UNL     1      60.393  67.698  70.813  0.00  0.00    +0.000 C 
ATOM      6  O   UNL     1      60.330  67.886  70.013  0.00  0.00    +0.000 OA
ATOM      7  C   UNL     1      59.752  67.365  71.210  0.00  0.00    +0.000 C 
ATOM      8  O   UNL     1      59.046  67.219  70.806  0.00  0.00    +0.000 OA
ATOM      9  C   UNL     1      59.814  67.178  72.011  0.00  0.00    +0.000 C 
ATOM     10  O   UNL     1      59.173  66.844  72.409  0.00  0.00    +0.000 OA
ATOM     11  C   UNL     1      60.519  67.323  72.415  0.00  0.00    +0.000 C 
ATOM     12  O   UNL     1      60.582  67.136  73.217  0.00  0.00    +0.000 OA
ENDROOT
TORSDOF 0
ENDMDL
MODEL 7
REMARK VINA RESULT:    -5.099      3.535      4.638
REMARK INTER + INTRA:          -5.099
REMARK INTER:                  -5.099
REMARK INTRA:                   0.000
REMARK UNBOUND:                 0.000
ROOT
REMARK  Name = galactose
REMARK                            x       y       z     vdW  Elec       q    Type
REMARK                         _______ _______ _______ _____ _____    ______ ____
ATOM      1  O   UNL     1      62.486  64.336  70.148  0.00  0.00    +0.000 OA
ATOM      2  C   UNL     1      62.007  63.717  70.413  0.00  0.00    +0.000 C 
ATOM      3  C   UNL     1      61.573  63.271  69.873  0.00  0.00    +0.000 C 
ATOM      4  O   UNL     1      61.094  62.654  70.138  0.00  0.00    +0.000 OA
ATOM      5  C   UNL     1      60.659  62.207  69.598  0.00  0.00    +0.000 C 
ATOM      6  O   UNL     1      60.182  61.590  69.863  0.00  0.00    +0.000 OA
ATOM      7  C   UNL     1      60.703  62.378  68.792  0.00  0.00    +0.000 C 
ATOM      8  O   UNL     1      60.268  61.931  68.251  0.00  0.00    +0.000 OA
ATOM      9  C   UNL     1      61.181  62.996  68.526  0.00  0.00    +0.000 C 
ATOM     10  O   UNL     1      61.225  63.167  67.720  0.00  0.00    +0.000 OA
ATOM     11  C   UNL     1      61.616  63.442  69.067  0.00  0.00    +0.000 C 
ATOM     12  O   UNL     1      62.095  64.061  68.801  0.00  0.00    +0.000 OA
ENDROOT
TORSDOF 0
ENDMDL
MODEL 8
REMARK VINA RESULT:    -5.061      6.836      8.565
REMARK INTER + INTRA:          -5.061
REMARK INTER:                  -5.061
REMARK INTRA:                   0.000
REMARK UNBOUND:                 0.000
ROOT
REMARK  Name = galactose
REMARK                            x       y       z     vdW  Elec       q    Type
REMARK                         _______ _______ _______ _____ _____    ______ ____
ATOM      1  O   UNL     1      59.755  64.491  70.728  0.00  0.00    +0.000 OA
ATOM      2  C   UNL     1      59.767  65.311  70.635  0.00  0.00    +0.000 C 
ATOM      3  C   UNL     1      59.414  65.796  71.200  0.00  0.00    +0.000 C 
ATOM      4  O   UNL     1      59.427  66.615  71.107  0.00  0.00    +0.000 OA
ATOM      5  C   UNL     1      59.073  67.101  71.673  0.00  0.00    +0.000 C 
ATOM      6  O   UNL     1      59.086  67.920  71.579  0.00  0.00    +0.000 OA
ATOM      7  C   UNL     1      58.708  66.766  72.332  0.00  0.00    +0.000 C 
ATOM      8  O   UNL     1      58.355  67.252  72.899  0.00  0.00    +0.000 OA
ATOM      9  C   UNL     1      58.696  65.947  72.427  0.00  0.00    +0.000 C 
ATOM     10  O   UNL     1      58.330  65.612  73.086  0.00  0.00    +0.000 OA
ATOM     11  C   UNL     1      59.049  65.461  71.860  0.00  0.00    +0.000 C 
ATOM     12  O   UNL     1      59.036  64.641  71.954  0.00  0.00    +0.000 OA
ENDROOT
TORSDOF 0
ENDMDL
MODEL 9
REMARK VINA RESULT:    -5.050      7.286      8.403
REMARK INTER + INTRA:          -5.050
REMARK INTER:                  -5.050
REMARK INTRA:                   0.000
REMARK UNBOUND:                 0.000
ROOT
REMARK  Name = galactose
REMARK                            x       y       z     vdW  Elec       q    Type
REMARK                         _______ _______ _______ _____ _____    ______ ____
ATOM      1  O   UNL     1      58.184  66.689  73.211  0.00  0.00    +0.000 OA
ATOM      2  C   UNL     1      58.563  67.277  72.772  0.00  0.00    +0.000 C 
ATOM      3  C   UNL     1      58.971  67.079  72.084  0.00  0.00    +0.000 C 
ATOM      4  O   UNL     1      59.350  67.665  71.644  0.00  0.00    +0.000 OA
ATOM      5  C   UNL     1      59.758  67.467  70.956  0.00  0.00    +0.000 C 
ATOM      6  O   UNL     1      60.136  68.054  70.517  0.00  0.00    +0.000 OA
ATOM      7  C   UNL     1      59.788  66.681  70.707  0.00  0.00    +0.000 C 
ATOM      8  O   UNL     1      60.198  66.483  70.017  0.00  0.00    +0.000 OA
ATOM      9  C   UNL     1      59.410  66.094  71.145  0.00  0.00    +0.000 C 
ATOM     10  O   UNL     1      59.440  65.308  70.896  0.00  0.00    +0.000 OA
ATOM     11  C   UNL     1      59.002  66.292  71.834  0.00  0.00    +0.000 C 
ATOM     12  O   UNL     1      58.623  65.705  72.273  0.00  0.00    +0.000 OA
ENDROOT
TORSDOF 0
ENDMDL
