MODEL 1
REMARK VINA RESULT:   -15.819      0.000      0.000
REMARK INTER + INTRA:         -15.819
REMARK INTER:                 -15.819
REMARK INTRA:                   0.000
REMARK UNBOUND:                 0.000
ROOT
REMARK  Name = ganirelix
REMARK                            x       y       z     vdW  Elec       q    Type
REMARK                         _______ _______ _______ _____ _____    ______ ____
ATOM      1  C   UNL     1      82.250  66.287  56.407  0.00  0.00    +0.000 C 
ATOM      2  C   UNL     1      82.250  65.619  56.891  0.00  0.00    +0.000 C 
ATOM      3  N   UNL     1      82.250  65.704  57.712  0.00  0.00    +0.000 NA
ATOM      4  C   UNL     1      82.250  66.457  58.049  0.00  0.00    +0.000 C 
ATOM      5  N   UNL     1      82.250  66.542  58.870  0.00  0.00    +0.000 NA
ATOM      6  C   UNL     1      82.250  65.874  59.353  0.00  0.00    +0.000 C 
ATOM      7  C   UNL     1      82.250  65.959  60.174  0.00  0.00    +0.000 C 
ATOM      8  N   UNL     1      82.250  67.125  57.565  0.00  0.00    +0.000 NA
ATOM      9  C   UNL     1      82.250  67.040  56.744  0.00  0.00    +0.000 C 
ATOM     10  C   UNL     1      82.249  67.709  56.260  0.00  0.00    +0.000 C 
ATOM     11  C   UNL     1      82.249  67.624  55.440  0.00  0.00    +0.000 C 
ATOM     12  C   UNL     1      82.249  68.293  54.956  0.00  0.00    +0.000 C 
ATOM     13  C   UNL     1      82.249  68.208  54.136  0.00  0.00    +0.000 C 
ATOM     14  N   UNL     1      82.249  68.876  53.651  0.00  0.00    +0.000 NA
ATOM     15  C   UNL     1      82.249  69.628  53.989  0.00  0.00    +0.000 C 
ATOM     16  O   UNL     1      82.249  69.713  54.809  0.00  0.00    +0.000 OA
ATOM     17  C   UNL     1      82.249  70.297  53.504  0.00  0.00    +0.000 C 
ATOM     18  C   UNL     1      82.249  70.212  52.685  0.00  0.00    +0.000 C 
ATOM     19  C   UNL     1      82.249  69.459  52.347  0.00  0.00    +0.000 A 
ATOM     20  C   UNL     1      82.249  69.374  51.527  0.00  0.00    +0.000 A 
ATOM     21  C   UNL     1      82.249  68.621  51.190  0.00  0.00    +0.000 A 
ATOM     22  C   UNL     1      82.249  67.953  51.674  0.00  0.00    +0.000 A 
ATOM     23  O   UNL     1      82.250  67.200  51.337  0.00  0.00    +0.000 OA
ATOM     24  C   UNL     1      82.249  68.038  52.494  0.00  0.00    +0.000 A 
ATOM     25  C   UNL     1      82.249  68.791  52.832  0.00  0.00    +0.000 A 
ATOM     26  N   UNL     1      82.249  71.050  53.842  0.00  0.00    +0.000 NA
ATOM     27  C   UNL     1      82.249  71.718  53.357  0.00  0.00    +0.000 C 
ATOM     28  O   UNL     1      82.249  71.634  52.538  0.00  0.00    +0.000 OA
ATOM     29  CA  UNL     1      82.248  72.471  53.695  0.00  0.00    +0.000 C 
ATOM     30  C   UNL     1      82.248  72.556  54.516  0.00  0.00    +0.000 C 
ATOM     31  O   UNL     1      82.249  71.888  54.999  0.00  0.00    +0.000 OA
ATOM     32  N   UNL     1      82.248  73.140  53.211  0.00  0.00    +0.000 NA
ATOM     33  C   UNL     1      82.248  73.893  53.548  0.00  0.00    +0.000 C 
ATOM     34  O   UNL     1      82.248  73.977  54.369  0.00  0.00    +0.000 OA
ATOM     35  CA  UNL     1      82.248  74.561  53.064  0.00  0.00    +0.000 C 
ATOM     36  C   UNL     1      82.248  74.477  52.244  0.00  0.00    +0.000 C 
ATOM     37  C   UNL     1      82.248  73.723  51.907  0.00  0.00    +0.000 A 
ATOM     38  C   UNL     1      82.248  73.638  51.086  0.00  0.00    +0.000 A 
ATOM     39  N   UNL     1      82.248  72.886  50.750  0.00  0.00    +0.000 NA
ATOM     40  C   UNL     1      82.248  72.217  51.233  0.00  0.00    +0.000 A 
ATOM     41  C   UNL     1      82.248  72.302  52.054  0.00  0.00    +0.000 A 
ATOM     42  C   UNL     1      82.248  73.055  52.391  0.00  0.00    +0.000 A 
ATOM     43  N   UNL     1      82.248  75.314  53.401  0.00  0.00    +0.000 NA
ATOM     44  C   UNL     1      82.248  75.983  52.917  0.00  0.00    +0.000 C 
ATOM     45  O   UNL     1      82.248  75.898  52.097  0.00  0.00    +0.000 OA
ATOM     46  CA  UNL     1      82.248  76.735  53.254  0.00  0.00    +0.000 C 
ATOM     47  C   UNL     1      82.248  76.820  54.075  0.00  0.00    +0.000 C 
ATOM     48  C   UNL     1      82.248  76.152  54.558  0.00  0.00    +0.000 A 
ATOM     49  C   UNL     1      82.248  75.399  54.222  0.00  0.00    +0.000 A 
ATOM     50  C   UNL     1      82.248  74.731  54.705  0.00  0.00    +0.000 A 
ATOM     51  C   UNL     1      82.248  74.816  55.526  0.00  0.00    +0.000 A 
ATOM     52 CL   UNL     1      82.248  74.147  56.010  0.00  0.00    +0.000 Cl
ATOM     53  C   UNL     1      82.248  75.568  55.863  0.00  0.00    +0.000 A 
ATOM     54  C   UNL     1      82.248  76.237  55.379  0.00  0.00    +0.000 A 
ATOM     55  N   UNL     1      82.247  77.404  52.770  0.00  0.00    +0.000 NA
ATOM     56  C   UNL     1      82.247  78.157  53.107  0.00  0.00    +0.000 C 
ATOM     57  O   UNL     1      82.247  78.242  53.928  0.00  0.00    +0.000 OA
ATOM     58  CA  UNL     1      82.247  78.825  52.623  0.00  0.00    +0.000 C 
ATOM     59  C   UNL     1      82.247  78.740  51.803  0.00  0.00    +0.000 C 
ATOM     60  C   UNL     1      82.247  79.409  51.319  0.00  0.00    +0.000 A 
ATOM     61  C   UNL     1      82.247  80.162  51.656  0.00  0.00    +0.000 A 
ATOM     62  C   UNL     1      82.247  80.830  51.172  0.00  0.00    +0.000 A 
ATOM     63  C   UNL     1      82.247  81.583  51.510  0.00  0.00    +0.000 A 
ATOM     64  C   UNL     1      82.246  82.252  51.025  0.00  0.00    +0.000 A 
ATOM     65  C   UNL     1      82.246  82.167  50.205  0.00  0.00    +0.000 A 
ATOM     66  C   UNL     1      82.247  81.413  49.868  0.00  0.00    +0.000 A 
ATOM     67  C   UNL     1      82.247  80.745  50.351  0.00  0.00    +0.000 A 
ATOM     68  C   UNL     1      82.247  79.993  50.015  0.00  0.00    +0.000 A 
ATOM     69  C   UNL     1      82.247  79.324  50.498  0.00  0.00    +0.000 A 
ATOM     70  N   UNL     1      82.247  79.578  52.960  0.00  0.00    +0.000 NA
ATOM     71  C   UNL     1      82.247  79.663  53.781  0.00  0.00    +0.000 C 
ATOM     72  C   UNL     1      82.247  78.994  54.264  0.00  0.00    +0.000 C 
ATOM     73  O   UNL     1      82.247  80.417  54.117  0.00  0.00    +0.000 OA
ATOM     74  C   UNL     1      82.249  67.454  53.798  0.00  0.00    +0.000 C 
ATOM     75  O   UNL     1      82.249  67.369  52.979  0.00  0.00    +0.000 OA
ATOM     76  N   UNL     1      82.250  66.785  54.283  0.00  0.00    +0.000 NA
ATOM     77  C   UNL     1      82.250  66.033  53.945  0.00  0.00    +0.000 C 
ATOM     78  C   UNL     1      82.250  65.948  53.126  0.00  0.00    +0.000 C 
ATOM     79  C   UNL     1      82.250  65.195  52.788  0.00  0.00    +0.000 C 
ATOM     80  C   UNL     1      82.250  65.111  51.968  0.00  0.00    +0.000 C 
ATOM     81  C   UNL     1      82.250  64.527  53.272  0.00  0.00    +0.000 C 
ATOM     82  C   UNL     1      82.250  65.365  54.429  0.00  0.00    +0.000 C 
ATOM     83  O   UNL     1      82.250  65.450  55.250  0.00  0.00    +0.000 OA
ATOM     84  N   UNL     1      82.250  64.611  54.092  0.00  0.00    +0.000 NA
ATOM     85  C   UNL     1      82.250  63.944  54.576  0.00  0.00    +0.000 C 
ATOM     86  C   UNL     1      82.250  63.190  54.239  0.00  0.00    +0.000 C 
ATOM     87  C   UNL     1      82.250  62.522  54.723  0.00  0.00    +0.000 C 
ATOM     88  C   UNL     1      82.251  61.768  54.386  0.00  0.00    +0.000 C 
ATOM     89  C   UNL     1      82.251  61.101  54.870  0.00  0.00    +0.000 C 
ATOM     90  N   UNL     1      82.251  60.347  54.533  0.00  0.00    +0.000 NA
ATOM     91  C   UNL     1      82.251  59.679  55.017  0.00  0.00    +0.000 C 
ATOM     92  N   UNL     1      82.251  58.926  54.680  0.00  0.00    +0.000 NA
ATOM     93  C   UNL     1      82.251  58.258  55.164  0.00  0.00    +0.000 C 
ATOM     94  C   UNL     1      82.251  57.504  54.827  0.00  0.00    +0.000 C 
ATOM     95  N   UNL     1      82.251  59.764  55.838  0.00  0.00    +0.000 NA
ATOM     96  C   UNL     1      82.251  59.095  56.321  0.00  0.00    +0.000 C 
ATOM     97  C   UNL     1      82.251  59.180  57.142  0.00  0.00    +0.000 C 
ATOM     98  C   UNL     1      82.250  64.028  55.397  0.00  0.00    +0.000 C 
ATOM     99  O   UNL     1      82.250  64.781  55.733  0.00  0.00    +0.000 OA
ATOM    100  N   UNL     1      82.250  63.360  55.880  0.00  0.00    +0.000 N 
ATOM    101  C   UNL     1      82.250  62.576  55.624  0.00  0.00    +0.000 C 
ATOM    102  C   UNL     1      82.251  62.090  56.291  0.00  0.00    +0.000 C 
ATOM    103  C   UNL     1      82.250  62.573  56.960  0.00  0.00    +0.000 C 
ATOM    104  C   UNL     1      82.250  63.358  56.706  0.00  0.00    +0.000 C 
ATOM    105  C   UNL     1      82.250  64.025  57.192  0.00  0.00    +0.000 C 
ATOM    106  O   UNL     1      82.250  64.780  56.857  0.00  0.00    +0.000 OA
ATOM    107  N   UNL     1      82.250  63.937  58.012  0.00  0.00    +0.000 NA
ATOM    108  C   UNL     1      82.250  64.604  58.498  0.00  0.00    +0.000 C 
ATOM    109  C   UNL     1      82.250  65.358  58.164  0.00  0.00    +0.000 C 
ATOM    110  C   UNL     1      82.250  64.516  59.319  0.00  0.00    +0.000 C 
ATOM    111  N   UNL     1      82.250  63.762  59.653  0.00  0.00    +0.000 NA
ATOM    112  O   UNL     1      82.250  65.183  59.805  0.00  0.00    +0.000 OA
ENDROOT
TORSDOF 0
ENDMDL
