MODEL 1
REMARK VINA RESULT:   -11.768      0.000      0.000
REMARK INTER + INTRA:         -11.768
REMARK INTER:                 -11.768
REMARK INTRA:                   0.000
REMARK UNBOUND:                 0.000
ROOT
REMARK  Name = gatifloxacin
REMARK                            x       y       z     vdW  Elec       q    Type
REMARK                         _______ _______ _______ _____ _____    ______ ____
ATOM      1  C   UNL     1      60.311  63.862  69.297  0.00  0.00    +0.000 C 
ATOM      2  O   UNL     1      60.072  64.533  69.712  0.00  0.00    +0.000 OA
ATOM      3  C   UNL     1      59.925  64.488  70.523  0.00  0.00    +0.000 A 
ATOM      4  C   UNL     1      59.686  65.159  70.937  0.00  0.00    +0.000 A 
ATOM      5  N   UNL     1      59.594  65.878  70.541  0.00  0.00    +0.000 N 
ATOM      6  C   UNL     1      59.355  66.549  70.955  0.00  0.00    +0.000 A 
ATOM      7  C   UNL     1      59.208  66.503  71.767  0.00  0.00    +0.000 A 
ATOM      8  C   UNL     1      58.969  67.176  72.181  0.00  0.00    +0.000 C 
ATOM      9  O   UNL     1      58.822  67.130  72.991  0.00  0.00    +0.000 OA
ATOM     10  O   UNL     1      58.877  67.893  71.785  0.00  0.00    +0.000 OA
ATOM     11  C   UNL     1      59.300  65.786  72.162  0.00  0.00    +0.000 A 
ATOM     12  O   UNL     1      59.153  65.740  72.973  0.00  0.00    +0.000 OA
ATOM     13  C   UNL     1      59.539  65.113  71.748  0.00  0.00    +0.000 A 
ATOM     14  C   UNL     1      59.631  64.396  72.144  0.00  0.00    +0.000 A 
ATOM     15  C   UNL     1      59.870  63.724  71.730  0.00  0.00    +0.000 A 
ATOM     16  F   UNL     1      59.962  63.006  72.125  0.00  0.00    +0.000 F 
ATOM     17  C   UNL     1      60.017  63.770  70.918  0.00  0.00    +0.000 A 
ATOM     18  N   UNL     1      60.256  63.098  70.504  0.00  0.00    +0.000 N 
ATOM     19  C   UNL     1      60.349  62.379  70.899  0.00  0.00    +0.000 C 
ATOM     20  C   UNL     1      60.587  61.708  70.485  0.00  0.00    +0.000 C 
ATOM     21  N   UNL     1      60.734  61.753  69.675  0.00  0.00    +0.000 NA
ATOM     22  C   UNL     1      60.642  62.471  69.278  0.00  0.00    +0.000 C 
ATOM     23  C   UNL     1      60.789  62.517  68.469  0.00  0.00    +0.000 C 
ATOM     24  C   UNL     1      60.403  63.143  69.693  0.00  0.00    +0.000 C 
ATOM     25  C   UNL     1      59.741  65.923  69.731  0.00  0.00    +0.000 C 
ATOM     26  C   UNL     1      59.964  65.561  69.023  0.00  0.00    +0.000 C 
ATOM     27  C   UNL     1      59.773  66.364  69.034  0.00  0.00    +0.000 C 
ENDROOT
TORSDOF 0
ENDMDL
MODEL 2
REMARK VINA RESULT:   -11.428      1.515      4.402
REMARK INTER + INTRA:         -11.428
REMARK INTER:                 -11.428
REMARK INTRA:                   0.000
REMARK UNBOUND:                 0.000
ROOT
REMARK  Name = gatifloxacin
REMARK                            x       y       z     vdW  Elec       q    Type
REMARK                         _______ _______ _______ _____ _____    ______ ____
ATOM      1  C   UNL     1      59.964  65.232  72.097  0.00  0.00    +0.000 C 
ATOM      2  O   UNL     1      60.119  64.639  71.546  0.00  0.00    +0.000 OA
ATOM      3  C   UNL     1      60.024  64.789  70.740  0.00  0.00    +0.000 A 
ATOM      4  C   UNL     1      60.179  64.195  70.189  0.00  0.00    +0.000 A 
ATOM      5  N   UNL     1      60.430  63.451  70.443  0.00  0.00    +0.000 N 
ATOM      6  C   UNL     1      60.585  62.858  69.892  0.00  0.00    +0.000 A 
ATOM      7  C   UNL     1      60.490  63.008  69.085  0.00  0.00    +0.000 A 
ATOM      8  C   UNL     1      60.645  62.414  68.534  0.00  0.00    +0.000 C 
ATOM      9  O   UNL     1      60.550  62.564  67.729  0.00  0.00    +0.000 OA
ATOM     10  O   UNL     1      60.896  61.670  68.788  0.00  0.00    +0.000 OA
ATOM     11  C   UNL     1      60.239  63.751  68.832  0.00  0.00    +0.000 A 
ATOM     12  O   UNL     1      60.144  63.901  68.026  0.00  0.00    +0.000 OA
ATOM     13  C   UNL     1      60.084  64.345  69.383  0.00  0.00    +0.000 A 
ATOM     14  C   UNL     1      59.834  65.089  69.129  0.00  0.00    +0.000 A 
ATOM     15  C   UNL     1      59.678  65.682  69.679  0.00  0.00    +0.000 A 
ATOM     16  F   UNL     1      59.428  66.426  69.426  0.00  0.00    +0.000 F 
ATOM     17  C   UNL     1      59.774  65.532  70.486  0.00  0.00    +0.000 A 
ATOM     18  N   UNL     1      59.618  66.126  71.037  0.00  0.00    +0.000 N 
ATOM     19  C   UNL     1      59.368  66.870  70.783  0.00  0.00    +0.000 C 
ATOM     20  C   UNL     1      59.212  67.464  71.334  0.00  0.00    +0.000 C 
ATOM     21  N   UNL     1      59.307  67.314  72.140  0.00  0.00    +0.000 NA
ATOM     22  C   UNL     1      59.558  66.570  72.394  0.00  0.00    +0.000 C 
ATOM     23  C   UNL     1      59.653  66.420  73.199  0.00  0.00    +0.000 C 
ATOM     24  C   UNL     1      59.713  65.976  71.843  0.00  0.00    +0.000 C 
ATOM     25  C   UNL     1      60.525  63.301  71.248  0.00  0.00    +0.000 C 
ATOM     26  C   UNL     1      60.490  63.558  72.033  0.00  0.00    +0.000 C 
ATOM     27  C   UNL     1      60.725  62.785  71.861  0.00  0.00    +0.000 C 
ENDROOT
TORSDOF 0
ENDMDL
MODEL 3
REMARK VINA RESULT:   -11.346      1.168      2.184
REMARK INTER + INTRA:         -11.346
REMARK INTER:                 -11.346
REMARK INTRA:                   0.000
REMARK UNBOUND:                 0.000
ROOT
REMARK  Name = gatifloxacin
REMARK                            x       y       z     vdW  Elec       q    Type
REMARK                         _______ _______ _______ _____ _____    ______ ____
ATOM      1  C   UNL     1      60.370  62.935  70.918  0.00  0.00    +0.000 C 
ATOM      2  O   UNL     1      60.221  63.729  71.084  0.00  0.00    +0.000 OA
ATOM      3  C   UNL     1      60.098  64.264  70.468  0.00  0.00    +0.000 A 
ATOM      4  C   UNL     1      59.949  65.057  70.635  0.00  0.00    +0.000 A 
ATOM      5  N   UNL     1      59.923  65.317  71.418  0.00  0.00    +0.000 N 
ATOM      6  C   UNL     1      59.774  66.111  71.584  0.00  0.00    +0.000 A 
ATOM      7  C   UNL     1      59.651  66.646  70.968  0.00  0.00    +0.000 A 
ATOM      8  C   UNL     1      59.502  67.440  71.135  0.00  0.00    +0.000 C 
ATOM      9  O   UNL     1      59.379  67.975  70.519  0.00  0.00    +0.000 OA
ATOM     10  O   UNL     1      59.476  67.700  71.917  0.00  0.00    +0.000 OA
ATOM     11  C   UNL     1      59.678  66.387  70.186  0.00  0.00    +0.000 A 
ATOM     12  O   UNL     1      59.555  66.922  69.570  0.00  0.00    +0.000 OA
ATOM     13  C   UNL     1      59.827  65.593  70.018  0.00  0.00    +0.000 A 
ATOM     14  C   UNL     1      59.853  65.334  69.236  0.00  0.00    +0.000 A 
ATOM     15  C   UNL     1      60.002  64.540  69.069  0.00  0.00    +0.000 A 
ATOM     16  F   UNL     1      60.028  64.280  68.287  0.00  0.00    +0.000 F 
ATOM     17  C   UNL     1      60.125  64.005  69.686  0.00  0.00    +0.000 A 
ATOM     18  N   UNL     1      60.274  63.210  69.519  0.00  0.00    +0.000 N 
ATOM     19  C   UNL     1      60.300  62.950  68.736  0.00  0.00    +0.000 C 
ATOM     20  C   UNL     1      60.449  62.157  68.569  0.00  0.00    +0.000 C 
ATOM     21  N   UNL     1      60.572  61.622  69.185  0.00  0.00    +0.000 NA
ATOM     22  C   UNL     1      60.546  61.881  69.968  0.00  0.00    +0.000 C 
ATOM     23  C   UNL     1      60.668  61.347  70.583  0.00  0.00    +0.000 C 
ATOM     24  C   UNL     1      60.396  62.676  70.135  0.00  0.00    +0.000 C 
ATOM     25  C   UNL     1      60.046  64.782  72.034  0.00  0.00    +0.000 C 
ATOM     26  C   UNL     1      60.203  64.014  72.293  0.00  0.00    +0.000 C 
ATOM     27  C   UNL     1      60.102  64.623  72.841  0.00  0.00    +0.000 C 
ENDROOT
TORSDOF 0
ENDMDL
MODEL 4
REMARK VINA RESULT:   -11.332      4.028      4.658
REMARK INTER + INTRA:         -11.332
REMARK INTER:                 -11.332
REMARK INTRA:                   0.000
REMARK UNBOUND:                 0.000
ROOT
REMARK  Name = gatifloxacin
REMARK                            x       y       z     vdW  Elec       q    Type
REMARK                         _______ _______ _______ _____ _____    ______ ____
ATOM      1  C   UNL     1      62.031  64.949  72.143  0.00  0.00    +0.000 C 
ATOM      2  O   UNL     1      62.646  65.453  71.925  0.00  0.00    +0.000 OA
ATOM      3  C   UNL     1      63.103  65.282  71.260  0.00  0.00    +0.000 A 
ATOM      4  C   UNL     1      63.718  65.786  71.042  0.00  0.00    +0.000 A 
ATOM      5  N   UNL     1      63.877  66.461  71.488  0.00  0.00    +0.000 N 
ATOM      6  C   UNL     1      64.492  66.965  71.270  0.00  0.00    +0.000 A 
ATOM      7  C   UNL     1      64.949  66.794  70.605  0.00  0.00    +0.000 A 
ATOM      8  C   UNL     1      65.565  67.299  70.387  0.00  0.00    +0.000 C 
ATOM      9  O   UNL     1      66.022  67.128  69.722  0.00  0.00    +0.000 OA
ATOM     10  O   UNL     1      65.723  67.974  70.833  0.00  0.00    +0.000 OA
ATOM     11  C   UNL     1      64.791  66.119  70.158  0.00  0.00    +0.000 A 
ATOM     12  O   UNL     1      65.249  65.948  69.493  0.00  0.00    +0.000 OA
ATOM     13  C   UNL     1      64.176  65.614  70.376  0.00  0.00    +0.000 A 
ATOM     14  C   UNL     1      64.018  64.940  69.930  0.00  0.00    +0.000 A 
ATOM     15  C   UNL     1      63.403  64.436  70.148  0.00  0.00    +0.000 A 
ATOM     16  F   UNL     1      63.244  63.760  69.701  0.00  0.00    +0.000 F 
ATOM     17  C   UNL     1      62.945  64.607  70.813  0.00  0.00    +0.000 A 
ATOM     18  N   UNL     1      62.330  64.102  71.031  0.00  0.00    +0.000 N 
ATOM     19  C   UNL     1      62.171  63.426  70.585  0.00  0.00    +0.000 C 
ATOM     20  C   UNL     1      61.556  62.922  70.803  0.00  0.00    +0.000 C 
ATOM     21  N   UNL     1      61.099  63.093  71.468  0.00  0.00    +0.000 NA
ATOM     22  C   UNL     1      61.256  63.768  71.915  0.00  0.00    +0.000 C 
ATOM     23  C   UNL     1      60.800  63.939  72.579  0.00  0.00    +0.000 C 
ATOM     24  C   UNL     1      61.872  64.273  71.696  0.00  0.00    +0.000 C 
ATOM     25  C   UNL     1      63.419  66.632  72.153  0.00  0.00    +0.000 C 
ATOM     26  C   UNL     1      62.800  66.439  72.664  0.00  0.00    +0.000 C 
ATOM     27  C   UNL     1      63.246  67.120  72.796  0.00  0.00    +0.000 C 
ENDROOT
TORSDOF 0
ENDMDL
MODEL 5
REMARK VINA RESULT:   -11.256      4.099      4.550
REMARK INTER + INTRA:         -11.256
REMARK INTER:                 -11.256
REMARK INTRA:                   0.000
REMARK UNBOUND:                 0.000
ROOT
REMARK  Name = gatifloxacin
REMARK                            x       y       z     vdW  Elec       q    Type
REMARK                         _______ _______ _______ _____ _____    ______ ____
ATOM      1  C   UNL     1      62.374  64.108  70.987  0.00  0.00    +0.000 C 
ATOM      2  O   UNL     1      63.000  64.626  70.841  0.00  0.00    +0.000 OA
ATOM      3  C   UNL     1      63.107  65.289  71.320  0.00  0.00    +0.000 A 
ATOM      4  C   UNL     1      63.732  65.806  71.174  0.00  0.00    +0.000 A 
ATOM      5  N   UNL     1      64.251  65.662  70.549  0.00  0.00    +0.000 N 
ATOM      6  C   UNL     1      64.876  66.179  70.403  0.00  0.00    +0.000 A 
ATOM      7  C   UNL     1      64.983  66.843  70.883  0.00  0.00    +0.000 A 
ATOM      8  C   UNL     1      65.609  67.360  70.737  0.00  0.00    +0.000 C 
ATOM      9  O   UNL     1      65.716  68.023  71.215  0.00  0.00    +0.000 OA
ATOM     10  O   UNL     1      66.128  67.215  70.112  0.00  0.00    +0.000 OA
ATOM     11  C   UNL     1      64.465  66.988  71.507  0.00  0.00    +0.000 A 
ATOM     12  O   UNL     1      64.572  67.651  71.986  0.00  0.00    +0.000 OA
ATOM     13  C   UNL     1      63.839  66.470  71.654  0.00  0.00    +0.000 A 
ATOM     14  C   UNL     1      63.321  66.616  72.278  0.00  0.00    +0.000 A 
ATOM     15  C   UNL     1      62.695  66.099  72.424  0.00  0.00    +0.000 A 
ATOM     16  F   UNL     1      62.176  66.244  73.049  0.00  0.00    +0.000 F 
ATOM     17  C   UNL     1      62.588  65.435  71.944  0.00  0.00    +0.000 A 
ATOM     18  N   UNL     1      61.962  64.917  72.091  0.00  0.00    +0.000 N 
ATOM     19  C   UNL     1      61.443  65.062  72.716  0.00  0.00    +0.000 C 
ATOM     20  C   UNL     1      60.818  64.545  72.862  0.00  0.00    +0.000 C 
ATOM     21  N   UNL     1      60.711  63.882  72.383  0.00  0.00    +0.000 NA
ATOM     22  C   UNL     1      61.229  63.736  71.758  0.00  0.00    +0.000 C 
ATOM     23  C   UNL     1      61.123  63.074  71.279  0.00  0.00    +0.000 C 
ATOM     24  C   UNL     1      61.855  64.254  71.612  0.00  0.00    +0.000 C 
ATOM     25  C   UNL     1      64.144  64.998  70.070  0.00  0.00    +0.000 C 
ATOM     26  C   UNL     1      63.721  64.316  69.878  0.00  0.00    +0.000 C 
ATOM     27  C   UNL     1      64.381  64.531  69.433  0.00  0.00    +0.000 C 
ENDROOT
TORSDOF 0
ENDMDL
MODEL 6
REMARK VINA RESULT:   -11.239      2.140      2.185
REMARK INTER + INTRA:         -11.239
REMARK INTER:                 -11.239
REMARK INTRA:                   0.000
REMARK UNBOUND:                 0.000
ROOT
REMARK  Name = gatifloxacin
REMARK                            x       y       z     vdW  Elec       q    Type
REMARK                         _______ _______ _______ _____ _____    ______ ____
ATOM      1  C   UNL     1      61.103  63.660  69.408  0.00  0.00    +0.000 C 
ATOM      2  O   UNL     1      61.410  64.290  69.843  0.00  0.00    +0.000 OA
ATOM      3  C   UNL     1      61.476  64.233  70.664  0.00  0.00    +0.000 A 
ATOM      4  C   UNL     1      61.783  64.863  71.097  0.00  0.00    +0.000 A 
ATOM      5  N   UNL     1      62.023  65.552  70.712  0.00  0.00    +0.000 N 
ATOM      6  C   UNL     1      62.330  66.182  71.146  0.00  0.00    +0.000 A 
ATOM      7  C   UNL     1      62.396  66.125  71.967  0.00  0.00    +0.000 A 
ATOM      8  C   UNL     1      62.703  66.756  72.401  0.00  0.00    +0.000 C 
ATOM      9  O   UNL     1      62.769  66.698  73.221  0.00  0.00    +0.000 OA
ATOM     10  O   UNL     1      62.943  67.444  72.015  0.00  0.00    +0.000 OA
ATOM     11  C   UNL     1      62.156  65.437  72.353  0.00  0.00    +0.000 A 
ATOM     12  O   UNL     1      62.222  65.379  73.173  0.00  0.00    +0.000 OA
ATOM     13  C   UNL     1      61.849  64.806  71.919  0.00  0.00    +0.000 A 
ATOM     14  C   UNL     1      61.609  64.118  72.304  0.00  0.00    +0.000 A 
ATOM     15  C   UNL     1      61.302  63.487  71.870  0.00  0.00    +0.000 A 
ATOM     16  F   UNL     1      61.061  62.798  72.256  0.00  0.00    +0.000 F 
ATOM     17  C   UNL     1      61.236  63.545  71.049  0.00  0.00    +0.000 A 
ATOM     18  N   UNL     1      60.929  62.914  70.615  0.00  0.00    +0.000 N 
ATOM     19  C   UNL     1      60.688  62.225  71.001  0.00  0.00    +0.000 C 
ATOM     20  C   UNL     1      60.382  61.594  70.567  0.00  0.00    +0.000 C 
ATOM     21  N   UNL     1      60.315  61.652  69.746  0.00  0.00    +0.000 NA
ATOM     22  C   UNL     1      60.556  62.340  69.360  0.00  0.00    +0.000 C 
ATOM     23  C   UNL     1      60.490  62.397  68.541  0.00  0.00    +0.000 C 
ATOM     24  C   UNL     1      60.863  62.971  69.795  0.00  0.00    +0.000 C 
ATOM     25  C   UNL     1      61.957  65.610  69.892  0.00  0.00    +0.000 C 
ATOM     26  C   UNL     1      61.742  65.278  69.167  0.00  0.00    +0.000 C 
ATOM     27  C   UNL     1      62.057  66.040  69.195  0.00  0.00    +0.000 C 
ENDROOT
TORSDOF 0
ENDMDL
MODEL 7
REMARK VINA RESULT:   -11.182      1.814      3.876
REMARK INTER + INTRA:         -11.182
REMARK INTER:                 -11.182
REMARK INTRA:                   0.000
REMARK UNBOUND:                 0.000
ROOT
REMARK  Name = gatifloxacin
REMARK                            x       y       z     vdW  Elec       q    Type
REMARK                         _______ _______ _______ _____ _____    ______ ____
ATOM      1  C   UNL     1      60.018  65.417  70.067  0.00  0.00    +0.000 C 
ATOM      2  O   UNL     1      60.333  64.699  70.322  0.00  0.00    +0.000 OA
ATOM      3  C   UNL     1      60.516  64.588  71.119  0.00  0.00    +0.000 A 
ATOM      4  C   UNL     1      60.831  63.870  71.374  0.00  0.00    +0.000 A 
ATOM      5  N   UNL     1      60.963  63.262  70.832  0.00  0.00    +0.000 N 
ATOM      6  C   UNL     1      61.278  62.544  71.087  0.00  0.00    +0.000 A 
ATOM      7  C   UNL     1      61.461  62.433  71.884  0.00  0.00    +0.000 A 
ATOM      8  C   UNL     1      61.776  61.714  72.139  0.00  0.00    +0.000 C 
ATOM      9  O   UNL     1      61.959  61.603  72.936  0.00  0.00    +0.000 OA
ATOM     10  O   UNL     1      61.908  61.106  71.598  0.00  0.00    +0.000 OA
ATOM     11  C   UNL     1      61.329  63.041  72.426  0.00  0.00    +0.000 A 
ATOM     12  O   UNL     1      61.512  62.930  73.222  0.00  0.00    +0.000 OA
ATOM     13  C   UNL     1      61.014  63.760  72.171  0.00  0.00    +0.000 A 
ATOM     14  C   UNL     1      60.882  64.367  72.713  0.00  0.00    +0.000 A 
ATOM     15  C   UNL     1      60.567  65.085  72.458  0.00  0.00    +0.000 A 
ATOM     16  F   UNL     1      60.435  65.694  72.999  0.00  0.00    +0.000 F 
ATOM     17  C   UNL     1      60.384  65.196  71.660  0.00  0.00    +0.000 A 
ATOM     18  N   UNL     1      60.069  65.915  71.406  0.00  0.00    +0.000 N 
ATOM     19  C   UNL     1      59.937  66.523  71.947  0.00  0.00    +0.000 C 
ATOM     20  C   UNL     1      59.622  67.242  71.693  0.00  0.00    +0.000 C 
ATOM     21  N   UNL     1      59.439  67.352  70.896  0.00  0.00    +0.000 NA
ATOM     22  C   UNL     1      59.570  66.745  70.354  0.00  0.00    +0.000 C 
ATOM     23  C   UNL     1      59.387  66.855  69.558  0.00  0.00    +0.000 C 
ATOM     24  C   UNL     1      59.886  66.025  70.609  0.00  0.00    +0.000 C 
ATOM     25  C   UNL     1      60.780  63.372  70.035  0.00  0.00    +0.000 C 
ATOM     26  C   UNL     1      60.492  63.851  69.428  0.00  0.00    +0.000 C 
ATOM     27  C   UNL     1      60.750  63.085  69.262  0.00  0.00    +0.000 C 
ENDROOT
TORSDOF 0
ENDMDL
MODEL 8
REMARK VINA RESULT:   -11.092      2.595      3.209
REMARK INTER + INTRA:         -11.092
REMARK INTER:                 -11.092
REMARK INTRA:                   0.000
REMARK UNBOUND:                 0.000
ROOT
REMARK  Name = gatifloxacin
REMARK                            x       y       z     vdW  Elec       q    Type
REMARK                         _______ _______ _______ _____ _____    ______ ____
ATOM      1  C   UNL     1      61.041  62.832  70.359  0.00  0.00    +0.000 C 
ATOM      2  O   UNL     1      61.344  63.433  70.836  0.00  0.00    +0.000 OA
ATOM      3  C   UNL     1      61.686  64.101  70.492  0.00  0.00    +0.000 A 
ATOM      4  C   UNL     1      61.988  64.701  70.969  0.00  0.00    +0.000 A 
ATOM      5  N   UNL     1      61.949  64.635  71.791  0.00  0.00    +0.000 N 
ATOM      6  C   UNL     1      62.252  65.236  72.268  0.00  0.00    +0.000 A 
ATOM      7  C   UNL     1      62.594  65.904  71.923  0.00  0.00    +0.000 A 
ATOM      8  C   UNL     1      62.897  66.505  72.401  0.00  0.00    +0.000 C 
ATOM      9  O   UNL     1      63.238  67.172  72.057  0.00  0.00    +0.000 OA
ATOM     10  O   UNL     1      62.857  66.438  73.222  0.00  0.00    +0.000 OA
ATOM     11  C   UNL     1      62.633  65.970  71.103  0.00  0.00    +0.000 A 
ATOM     12  O   UNL     1      62.975  66.637  70.759  0.00  0.00    +0.000 OA
ATOM     13  C   UNL     1      62.331  65.369  70.625  0.00  0.00    +0.000 A 
ATOM     14  C   UNL     1      62.370  65.435  69.804  0.00  0.00    +0.000 A 
ATOM     15  C   UNL     1      62.067  64.835  69.327  0.00  0.00    +0.000 A 
ATOM     16  F   UNL     1      62.106  64.901  68.505  0.00  0.00    +0.000 F 
ATOM     17  C   UNL     1      61.725  64.167  69.671  0.00  0.00    +0.000 A 
ATOM     18  N   UNL     1      61.422  63.566  69.193  0.00  0.00    +0.000 N 
ATOM     19  C   UNL     1      61.461  63.632  68.371  0.00  0.00    +0.000 C 
ATOM     20  C   UNL     1      61.159  63.032  67.894  0.00  0.00    +0.000 C 
ATOM     21  N   UNL     1      60.817  62.364  68.238  0.00  0.00    +0.000 NA
ATOM     22  C   UNL     1      60.777  62.297  69.060  0.00  0.00    +0.000 C 
ATOM     23  C   UNL     1      60.436  61.631  69.403  0.00  0.00    +0.000 C 
ATOM     24  C   UNL     1      61.080  62.899  69.537  0.00  0.00    +0.000 C 
ATOM     25  C   UNL     1      61.607  63.968  72.135  0.00  0.00    +0.000 C 
ATOM     26  C   UNL     1      61.235  63.235  72.058  0.00  0.00    +0.000 C 
ATOM     27  C   UNL     1      61.387  63.544  72.807  0.00  0.00    +0.000 C 
ENDROOT
TORSDOF 0
ENDMDL
MODEL 9
REMARK VINA RESULT:   -11.013      3.422      4.647
REMARK INTER + INTRA:         -11.013
REMARK INTER:                 -11.013
REMARK INTRA:                   0.000
REMARK UNBOUND:                 0.000
ROOT
REMARK  Name = gatifloxacin
REMARK                            x       y       z     vdW  Elec       q    Type
REMARK                         _______ _______ _______ _____ _____    ______ ____
ATOM      1  C   UNL     1      63.437  66.063  71.693  0.00  0.00    +0.000 C 
ATOM      2  O   UNL     1      62.848  65.486  71.667  0.00  0.00    +0.000 OA
ATOM      3  C   UNL     1      62.802  64.971  71.025  0.00  0.00    +0.000 A 
ATOM      4  C   UNL     1      62.214  64.395  71.000  0.00  0.00    +0.000 A 
ATOM      5  N   UNL     1      61.670  64.333  71.617  0.00  0.00    +0.000 N 
ATOM      6  C   UNL     1      61.081  63.757  71.592  0.00  0.00    +0.000 A 
ATOM      7  C   UNL     1      61.035  63.241  70.948  0.00  0.00    +0.000 A 
ATOM      8  C   UNL     1      60.445  62.664  70.924  0.00  0.00    +0.000 C 
ATOM      9  O   UNL     1      60.399  62.149  70.281  0.00  0.00    +0.000 OA
ATOM     10  O   UNL     1      59.902  62.602  71.541  0.00  0.00    +0.000 OA
ATOM     11  C   UNL     1      61.578  63.303  70.331  0.00  0.00    +0.000 A 
ATOM     12  O   UNL     1      61.532  62.788  69.689  0.00  0.00    +0.000 OA
ATOM     13  C   UNL     1      62.168  63.879  70.356  0.00  0.00    +0.000 A 
ATOM     14  C   UNL     1      62.711  63.941  69.739  0.00  0.00    +0.000 A 
ATOM     15  C   UNL     1      63.300  64.517  69.764  0.00  0.00    +0.000 A 
ATOM     16  F   UNL     1      63.844  64.580  69.147  0.00  0.00    +0.000 F 
ATOM     17  C   UNL     1      63.346  65.033  70.408  0.00  0.00    +0.000 A 
ATOM     18  N   UNL     1      63.935  65.610  70.432  0.00  0.00    +0.000 N 
ATOM     19  C   UNL     1      64.479  65.672  69.815  0.00  0.00    +0.000 C 
ATOM     20  C   UNL     1      65.068  66.248  69.840  0.00  0.00    +0.000 C 
ATOM     21  N   UNL     1      65.114  66.763  70.483  0.00  0.00    +0.000 NA
ATOM     22  C   UNL     1      64.571  66.702  71.101  0.00  0.00    +0.000 C 
ATOM     23  C   UNL     1      64.617  67.217  71.743  0.00  0.00    +0.000 C 
ATOM     24  C   UNL     1      63.981  66.125  71.075  0.00  0.00    +0.000 C 
ATOM     25  C   UNL     1      61.715  64.848  72.260  0.00  0.00    +0.000 C 
ATOM     26  C   UNL     1      62.083  65.479  72.646  0.00  0.00    +0.000 C 
ATOM     27  C   UNL     1      61.429  65.110  72.988  0.00  0.00    +0.000 C 
ENDROOT
TORSDOF 0
ENDMDL
