MODEL 1
REMARK VINA RESULT:   -11.924      0.000      0.000
REMARK INTER + INTRA:         -11.924
REMARK INTER:                 -11.924
REMARK INTRA:                   0.000
REMARK UNBOUND:                 0.000
ROOT
REMARK  Name = gentian violet
REMARK                            x       y       z     vdW  Elec       q    Type
REMARK                         _______ _______ _______ _____ _____    ______ ____
ATOM      1  C   UNL     1      61.881  61.214  72.380  0.00  0.00    +0.000 C 
ATOM      2  N   UNL     1      61.621  61.993  72.451  0.00  0.00    +0.000 N 
ATOM      3  C   UNL     1      61.618  62.362  73.190  0.00  0.00    +0.000 C 
ATOM      4  C   UNL     1      61.363  62.405  71.784  0.00  0.00    +0.000 A 
ATOM      5  C   UNL     1      61.102  63.184  71.856  0.00  0.00    +0.000 A 
ATOM      6  C   UNL     1      60.844  63.596  71.189  0.00  0.00    +0.000 A 
ATOM      7  C   UNL     1      60.847  63.227  70.450  0.00  0.00    +0.000 A 
ATOM      8  C   UNL     1      61.108  62.448  70.379  0.00  0.00    +0.000 A 
ATOM      9  C   UNL     1      61.366  62.037  71.046  0.00  0.00    +0.000 A 
ATOM     10  C   UNL     1      60.589  63.638  69.783  0.00  0.00    +0.000 C 
ATOM     11  C   UNL     1      60.592  63.271  69.045  0.00  0.00    +0.000 A 
ATOM     12  C   UNL     1      60.334  63.682  68.378  0.00  0.00    +0.000 A 
ATOM     13  C   UNL     1      60.337  63.314  67.640  0.00  0.00    +0.000 A 
ATOM     14  C   UNL     1      60.598  62.535  67.568  0.00  0.00    +0.000 A 
ATOM     15  C   UNL     1      60.856  62.123  68.235  0.00  0.00    +0.000 A 
ATOM     16  C   UNL     1      60.853  62.491  68.974  0.00  0.00    +0.000 A 
ATOM     17  N   UNL     1      60.601  62.167  66.831  0.00  0.00    +0.000 N 
ATOM     18  C   UNL     1      60.342  62.578  66.163  0.00  0.00    +0.000 C 
ATOM     19  C   UNL     1      60.861  61.387  66.759  0.00  0.00    +0.000 C 
ATOM     20  C   UNL     1      60.328  64.418  69.855  0.00  0.00    +0.000 C 
ATOM     21  C   UNL     1      60.326  64.787  70.594  0.00  0.00    +0.000 C 
ATOM     22  C   UNL     1      60.065  65.566  70.664  0.00  0.00    +0.000 C 
ATOM     23  C   UNL     1      59.807  65.977  69.997  0.00  0.00    +0.000 C 
ATOM     24  C   UNL     1      59.810  65.609  69.260  0.00  0.00    +0.000 C 
ATOM     25  C   UNL     1      60.070  64.830  69.188  0.00  0.00    +0.000 C 
ATOM     26  N   UNL     1      59.546  66.756  70.069  0.00  0.00    +0.000 N 
ATOM     27  C   UNL     1      59.288  67.168  69.401  0.00  0.00    +0.000 C 
ATOM     28  C   UNL     1      59.543  67.125  70.807  0.00  0.00    +0.000 C 
ENDROOT
TORSDOF 0
ENDMDL
MODEL 2
REMARK VINA RESULT:   -11.894      2.691      5.224
REMARK INTER + INTRA:         -11.894
REMARK INTER:                 -11.894
REMARK INTRA:                   0.000
REMARK UNBOUND:                 0.000
ROOT
REMARK  Name = gentian violet
REMARK                            x       y       z     vdW  Elec       q    Type
REMARK                         _______ _______ _______ _____ _____    ______ ____
ATOM      1  C   UNL     1      57.827  67.326  73.222  0.00  0.00    +0.000 C 
ATOM      2  N   UNL     1      57.864  66.533  72.999  0.00  0.00    +0.000 N 
ATOM      3  C   UNL     1      57.177  66.076  72.983  0.00  0.00    +0.000 C 
ATOM      4  C   UNL     1      58.589  66.196  72.791  0.00  0.00    +0.000 A 
ATOM      5  C   UNL     1      58.625  65.403  72.568  0.00  0.00    +0.000 A 
ATOM      6  C   UNL     1      59.349  65.066  72.360  0.00  0.00    +0.000 A 
ATOM      7  C   UNL     1      60.037  65.523  72.376  0.00  0.00    +0.000 A 
ATOM      8  C   UNL     1      59.999  66.316  72.600  0.00  0.00    +0.000 A 
ATOM      9  C   UNL     1      59.275  66.653  72.807  0.00  0.00    +0.000 A 
ATOM     10  C   UNL     1      60.760  65.187  72.169  0.00  0.00    +0.000 C 
ATOM     11  C   UNL     1      61.447  65.643  72.185  0.00  0.00    +0.000 A 
ATOM     12  C   UNL     1      62.171  65.306  71.977  0.00  0.00    +0.000 A 
ATOM     13  C   UNL     1      62.857  65.763  71.993  0.00  0.00    +0.000 A 
ATOM     14  C   UNL     1      62.821  66.556  72.217  0.00  0.00    +0.000 A 
ATOM     15  C   UNL     1      62.097  66.893  72.424  0.00  0.00    +0.000 A 
ATOM     16  C   UNL     1      61.409  66.436  72.408  0.00  0.00    +0.000 A 
ATOM     17  N   UNL     1      63.507  67.013  72.233  0.00  0.00    +0.000 N 
ATOM     18  C   UNL     1      64.232  66.676  72.025  0.00  0.00    +0.000 C 
ATOM     19  C   UNL     1      63.471  67.806  72.456  0.00  0.00    +0.000 C 
ATOM     20  C   UNL     1      60.797  64.393  71.945  0.00  0.00    +0.000 C 
ATOM     21  C   UNL     1      60.110  63.936  71.929  0.00  0.00    +0.000 C 
ATOM     22  C   UNL     1      60.148  63.143  71.705  0.00  0.00    +0.000 C 
ATOM     23  C   UNL     1      60.872  62.807  71.498  0.00  0.00    +0.000 C 
ATOM     24  C   UNL     1      61.558  63.263  71.514  0.00  0.00    +0.000 C 
ATOM     25  C   UNL     1      61.521  64.057  71.737  0.00  0.00    +0.000 C 
ATOM     26  N   UNL     1      60.909  62.014  71.274  0.00  0.00    +0.000 N 
ATOM     27  C   UNL     1      61.634  61.677  71.067  0.00  0.00    +0.000 C 
ATOM     28  C   UNL     1      60.222  61.557  71.258  0.00  0.00    +0.000 C 
ENDROOT
TORSDOF 0
ENDMDL
MODEL 3
REMARK VINA RESULT:   -11.883      2.693      4.269
REMARK INTER + INTRA:         -11.883
REMARK INTER:                 -11.883
REMARK INTRA:                   0.000
REMARK UNBOUND:                 0.000
ROOT
REMARK  Name = gentian violet
REMARK                            x       y       z     vdW  Elec       q    Type
REMARK                         _______ _______ _______ _____ _____    ______ ____
ATOM      1  C   UNL     1      57.206  66.097  72.980  0.00  0.00    +0.000 C 
ATOM      2  N   UNL     1      57.893  66.552  72.998  0.00  0.00    +0.000 N 
ATOM      3  C   UNL     1      57.858  67.345  73.222  0.00  0.00    +0.000 C 
ATOM      4  C   UNL     1      58.618  66.214  72.792  0.00  0.00    +0.000 A 
ATOM      5  C   UNL     1      59.306  66.670  72.810  0.00  0.00    +0.000 A 
ATOM      6  C   UNL     1      60.029  66.332  72.604  0.00  0.00    +0.000 A 
ATOM      7  C   UNL     1      60.066  65.539  72.379  0.00  0.00    +0.000 A 
ATOM      8  C   UNL     1      59.378  65.084  72.362  0.00  0.00    +0.000 A 
ATOM      9  C   UNL     1      58.654  65.421  72.568  0.00  0.00    +0.000 A 
ATOM     10  C   UNL     1      60.789  65.201  72.173  0.00  0.00    +0.000 C 
ATOM     11  C   UNL     1      60.826  64.408  71.949  0.00  0.00    +0.000 A 
ATOM     12  C   UNL     1      61.550  64.071  71.743  0.00  0.00    +0.000 A 
ATOM     13  C   UNL     1      61.586  63.278  71.519  0.00  0.00    +0.000 A 
ATOM     14  C   UNL     1      60.899  62.822  71.501  0.00  0.00    +0.000 A 
ATOM     15  C   UNL     1      60.175  63.160  71.707  0.00  0.00    +0.000 A 
ATOM     16  C   UNL     1      60.138  63.954  71.931  0.00  0.00    +0.000 A 
ATOM     17  N   UNL     1      60.935  62.030  71.277  0.00  0.00    +0.000 N 
ATOM     18  C   UNL     1      61.660  61.692  71.070  0.00  0.00    +0.000 C 
ATOM     19  C   UNL     1      60.247  61.573  71.259  0.00  0.00    +0.000 C 
ATOM     20  C   UNL     1      61.477  65.657  72.191  0.00  0.00    +0.000 C 
ATOM     21  C   UNL     1      61.441  66.451  72.416  0.00  0.00    +0.000 C 
ATOM     22  C   UNL     1      62.129  66.906  72.434  0.00  0.00    +0.000 C 
ATOM     23  C   UNL     1      62.853  66.568  72.227  0.00  0.00    +0.000 C 
ATOM     24  C   UNL     1      62.889  65.776  72.003  0.00  0.00    +0.000 C 
ATOM     25  C   UNL     1      62.201  65.320  71.985  0.00  0.00    +0.000 C 
ATOM     26  N   UNL     1      63.540  67.024  72.245  0.00  0.00    +0.000 N 
ATOM     27  C   UNL     1      64.264  66.685  72.039  0.00  0.00    +0.000 C 
ATOM     28  C   UNL     1      63.504  67.817  72.469  0.00  0.00    +0.000 C 
ENDROOT
TORSDOF 0
ENDMDL
MODEL 4
REMARK VINA RESULT:   -11.780      2.557      4.113
REMARK INTER + INTRA:         -11.780
REMARK INTER:                 -11.780
REMARK INTRA:                   0.000
REMARK UNBOUND:                 0.000
ROOT
REMARK  Name = gentian violet
REMARK                            x       y       z     vdW  Elec       q    Type
REMARK                         _______ _______ _______ _____ _____    ______ ____
ATOM      1  C   UNL     1      61.536  61.604  70.785  0.00  0.00    +0.000 C 
ATOM      2  N   UNL     1      60.833  61.958  71.030  0.00  0.00    +0.000 N 
ATOM      3  C   UNL     1      60.131  61.524  71.034  0.00  0.00    +0.000 C 
ATOM      4  C   UNL     1      60.831  62.747  71.272  0.00  0.00    +0.000 A 
ATOM      5  C   UNL     1      60.127  63.101  71.518  0.00  0.00    +0.000 A 
ATOM      6  C   UNL     1      60.125  63.890  71.760  0.00  0.00    +0.000 A 
ATOM      7  C   UNL     1      60.826  64.325  71.756  0.00  0.00    +0.000 A 
ATOM      8  C   UNL     1      61.529  63.970  71.511  0.00  0.00    +0.000 A 
ATOM      9  C   UNL     1      61.532  63.181  71.269  0.00  0.00    +0.000 A 
ATOM     10  C   UNL     1      60.824  65.112  71.998  0.00  0.00    +0.000 C 
ATOM     11  C   UNL     1      61.525  65.548  71.995  0.00  0.00    +0.000 A 
ATOM     12  C   UNL     1      61.523  66.336  72.237  0.00  0.00    +0.000 A 
ATOM     13  C   UNL     1      62.223  66.770  72.233  0.00  0.00    +0.000 A 
ATOM     14  C   UNL     1      62.927  66.417  71.988  0.00  0.00    +0.000 A 
ATOM     15  C   UNL     1      62.930  65.628  71.746  0.00  0.00    +0.000 A 
ATOM     16  C   UNL     1      62.228  65.193  71.749  0.00  0.00    +0.000 A 
ATOM     17  N   UNL     1      63.628  66.851  71.984  0.00  0.00    +0.000 N 
ATOM     18  C   UNL     1      63.626  67.640  72.227  0.00  0.00    +0.000 C 
ATOM     19  C   UNL     1      64.332  66.497  71.739  0.00  0.00    +0.000 C 
ATOM     20  C   UNL     1      60.120  65.467  72.244  0.00  0.00    +0.000 C 
ATOM     21  C   UNL     1      59.418  65.032  72.247  0.00  0.00    +0.000 C 
ATOM     22  C   UNL     1      58.715  65.387  72.493  0.00  0.00    +0.000 C 
ATOM     23  C   UNL     1      58.713  66.175  72.735  0.00  0.00    +0.000 C 
ATOM     24  C   UNL     1      59.414  66.609  72.731  0.00  0.00    +0.000 C 
ATOM     25  C   UNL     1      60.118  66.256  72.486  0.00  0.00    +0.000 C 
ATOM     26  N   UNL     1      58.010  66.529  72.980  0.00  0.00    +0.000 N 
ATOM     27  C   UNL     1      58.007  67.319  73.222  0.00  0.00    +0.000 C 
ATOM     28  C   UNL     1      57.308  66.095  72.984  0.00  0.00    +0.000 C 
ENDROOT
TORSDOF 0
ENDMDL
MODEL 5
REMARK VINA RESULT:   -11.764      2.548      5.081
REMARK INTER + INTRA:         -11.764
REMARK INTER:                 -11.764
REMARK INTRA:                   0.000
REMARK UNBOUND:                 0.000
ROOT
REMARK  Name = gentian violet
REMARK                            x       y       z     vdW  Elec       q    Type
REMARK                         _______ _______ _______ _____ _____    ______ ____
ATOM      1  C   UNL     1      63.556  67.651  72.238  0.00  0.00    +0.000 C 
ATOM      2  N   UNL     1      63.568  66.864  71.992  0.00  0.00    +0.000 N 
ATOM      3  C   UNL     1      64.276  66.519  71.746  0.00  0.00    +0.000 C 
ATOM      4  C   UNL     1      62.871  66.421  71.992  0.00  0.00    +0.000 A 
ATOM      5  C   UNL     1      62.883  65.634  71.745  0.00  0.00    +0.000 A 
ATOM      6  C   UNL     1      62.187  65.191  71.745  0.00  0.00    +0.000 A 
ATOM      7  C   UNL     1      61.478  65.536  71.992  0.00  0.00    +0.000 A 
ATOM      8  C   UNL     1      61.467  66.323  72.238  0.00  0.00    +0.000 A 
ATOM      9  C   UNL     1      62.164  66.766  72.238  0.00  0.00    +0.000 A 
ATOM     10  C   UNL     1      60.783  65.094  71.991  0.00  0.00    +0.000 C 
ATOM     11  C   UNL     1      60.075  65.438  72.237  0.00  0.00    +0.000 A 
ATOM     12  C   UNL     1      59.379  64.996  72.237  0.00  0.00    +0.000 A 
ATOM     13  C   UNL     1      58.671  65.340  72.483  0.00  0.00    +0.000 A 
ATOM     14  C   UNL     1      58.659  66.128  72.730  0.00  0.00    +0.000 A 
ATOM     15  C   UNL     1      59.355  66.570  72.730  0.00  0.00    +0.000 A 
ATOM     16  C   UNL     1      60.064  66.225  72.484  0.00  0.00    +0.000 A 
ATOM     17  N   UNL     1      57.952  66.472  72.976  0.00  0.00    +0.000 N 
ATOM     18  C   UNL     1      57.254  66.029  72.975  0.00  0.00    +0.000 C 
ATOM     19  C   UNL     1      57.939  67.260  73.222  0.00  0.00    +0.000 C 
ATOM     20  C   UNL     1      60.794  64.306  71.745  0.00  0.00    +0.000 C 
ATOM     21  C   UNL     1      61.503  63.961  71.498  0.00  0.00    +0.000 C 
ATOM     22  C   UNL     1      61.514  63.174  71.252  0.00  0.00    +0.000 C 
ATOM     23  C   UNL     1      60.818  62.732  71.252  0.00  0.00    +0.000 C 
ATOM     24  C   UNL     1      60.111  63.076  71.498  0.00  0.00    +0.000 C 
ATOM     25  C   UNL     1      60.098  63.864  71.745  0.00  0.00    +0.000 C 
ATOM     26  N   UNL     1      60.830  61.945  71.006  0.00  0.00    +0.000 N 
ATOM     27  C   UNL     1      60.133  61.502  71.006  0.00  0.00    +0.000 C 
ATOM     28  C   UNL     1      61.537  61.599  70.760  0.00  0.00    +0.000 C 
ENDROOT
TORSDOF 0
ENDMDL
MODEL 6
REMARK VINA RESULT:   -11.532      2.351      4.395
REMARK INTER + INTRA:         -11.532
REMARK INTER:                 -11.532
REMARK INTRA:                   0.000
REMARK UNBOUND:                 0.000
ROOT
REMARK  Name = gentian violet
REMARK                            x       y       z     vdW  Elec       q    Type
REMARK                         _______ _______ _______ _____ _____    ______ ____
ATOM      1  C   UNL     1      64.638  66.373  71.118  0.00  0.00    +0.000 C 
ATOM      2  N   UNL     1      64.450  65.904  70.466  0.00  0.00    +0.000 N 
ATOM      3  C   UNL     1      65.012  65.772  69.877  0.00  0.00    +0.000 C 
ATOM      4  C   UNL     1      63.699  65.567  70.403  0.00  0.00    +0.000 A 
ATOM      5  C   UNL     1      63.511  65.098  69.750  0.00  0.00    +0.000 A 
ATOM      6  C   UNL     1      62.761  64.761  69.687  0.00  0.00    +0.000 A 
ATOM      7  C   UNL     1      62.198  64.893  70.277  0.00  0.00    +0.000 A 
ATOM      8  C   UNL     1      62.387  65.362  70.928  0.00  0.00    +0.000 A 
ATOM      9  C   UNL     1      63.137  65.699  70.992  0.00  0.00    +0.000 A 
ATOM     10  C   UNL     1      61.448  64.557  70.213  0.00  0.00    +0.000 C 
ATOM     11  C   UNL     1      60.886  64.689  70.802  0.00  0.00    +0.000 A 
ATOM     12  C   UNL     1      60.135  64.352  70.739  0.00  0.00    +0.000 A 
ATOM     13  C   UNL     1      59.574  64.484  71.327  0.00  0.00    +0.000 A 
ATOM     14  C   UNL     1      59.761  64.953  71.980  0.00  0.00    +0.000 A 
ATOM     15  C   UNL     1      60.512  65.290  72.043  0.00  0.00    +0.000 A 
ATOM     16  C   UNL     1      61.075  65.158  71.454  0.00  0.00    +0.000 A 
ATOM     17  N   UNL     1      59.199  65.085  72.569  0.00  0.00    +0.000 N 
ATOM     18  C   UNL     1      58.448  64.748  72.506  0.00  0.00    +0.000 C 
ATOM     19  C   UNL     1      59.387  65.554  73.221  0.00  0.00    +0.000 C 
ATOM     20  C   UNL     1      61.260  64.088  69.561  0.00  0.00    +0.000 C 
ATOM     21  C   UNL     1      61.823  63.956  68.971  0.00  0.00    +0.000 C 
ATOM     22  C   UNL     1      61.634  63.487  68.319  0.00  0.00    +0.000 C 
ATOM     23  C   UNL     1      60.884  63.150  68.256  0.00  0.00    +0.000 C 
ATOM     24  C   UNL     1      60.322  63.282  68.845  0.00  0.00    +0.000 C 
ATOM     25  C   UNL     1      60.510  63.751  69.497  0.00  0.00    +0.000 C 
ATOM     26  N   UNL     1      60.696  62.682  67.604  0.00  0.00    +0.000 N 
ATOM     27  C   UNL     1      59.945  62.345  67.541  0.00  0.00    +0.000 C 
ATOM     28  C   UNL     1      61.258  62.549  67.015  0.00  0.00    +0.000 C 
ENDROOT
TORSDOF 0
ENDMDL
MODEL 7
REMARK VINA RESULT:   -10.941     25.417     26.601
REMARK INTER + INTRA:         -10.941
REMARK INTER:                 -10.941
REMARK INTRA:                   0.000
REMARK UNBOUND:                 0.000
ROOT
REMARK  Name = gentian violet
REMARK                            x       y       z     vdW  Elec       q    Type
REMARK                         _______ _______ _______ _____ _____    ______ ____
ATOM      1  C   UNL     1      72.886  81.483  53.990  0.00  0.00    +0.000 C 
ATOM      2  N   UNL     1      72.069  81.566  54.058  0.00  0.00    +0.000 N 
ATOM      3  C   UNL     1      71.744  81.920  54.729  0.00  0.00    +0.000 C 
ATOM      4  C   UNL     1      71.575  81.296  53.454  0.00  0.00    +0.000 A 
ATOM      5  C   UNL     1      70.756  81.379  53.522  0.00  0.00    +0.000 A 
ATOM      6  C   UNL     1      70.263  81.109  52.919  0.00  0.00    +0.000 A 
ATOM      7  C   UNL     1      70.587  80.755  52.247  0.00  0.00    +0.000 A 
ATOM      8  C   UNL     1      71.405  80.672  52.180  0.00  0.00    +0.000 A 
ATOM      9  C   UNL     1      71.899  80.942  52.783  0.00  0.00    +0.000 A 
ATOM     10  C   UNL     1      70.094  80.485  51.645  0.00  0.00    +0.000 C 
ATOM     11  C   UNL     1      70.418  80.131  50.974  0.00  0.00    +0.000 A 
ATOM     12  C   UNL     1      69.924  79.861  50.370  0.00  0.00    +0.000 A 
ATOM     13  C   UNL     1      70.248  79.508  49.700  0.00  0.00    +0.000 A 
ATOM     14  C   UNL     1      71.066  79.424  49.631  0.00  0.00    +0.000 A 
ATOM     15  C   UNL     1      71.560  79.695  50.234  0.00  0.00    +0.000 A 
ATOM     16  C   UNL     1      71.236  80.049  50.906  0.00  0.00    +0.000 A 
ATOM     17  N   UNL     1      71.391  79.071  48.961  0.00  0.00    +0.000 N 
ATOM     18  C   UNL     1      70.896  78.801  48.357  0.00  0.00    +0.000 C 
ATOM     19  C   UNL     1      72.209  78.988  48.892  0.00  0.00    +0.000 C 
ATOM     20  C   UNL     1      69.275  80.568  51.713  0.00  0.00    +0.000 C 
ATOM     21  C   UNL     1      68.951  80.922  52.385  0.00  0.00    +0.000 C 
ATOM     22  C   UNL     1      68.133  81.005  52.452  0.00  0.00    +0.000 C 
ATOM     23  C   UNL     1      67.639  80.735  51.849  0.00  0.00    +0.000 C 
ATOM     24  C   UNL     1      67.964  80.381  51.178  0.00  0.00    +0.000 C 
ATOM     25  C   UNL     1      68.782  80.298  51.110  0.00  0.00    +0.000 C 
ATOM     26  N   UNL     1      66.822  80.818  51.917  0.00  0.00    +0.000 N 
ATOM     27  C   UNL     1      66.328  80.547  51.313  0.00  0.00    +0.000 C 
ATOM     28  C   UNL     1      66.497  81.171  52.588  0.00  0.00    +0.000 C 
ENDROOT
TORSDOF 0
ENDMDL
MODEL 8
REMARK VINA RESULT:    -9.879     13.725     16.693
REMARK INTER + INTRA:          -9.879
REMARK INTER:                  -9.879
REMARK INTRA:                   0.000
REMARK UNBOUND:                 0.000
ROOT
REMARK  Name = gentian violet
REMARK                            x       y       z     vdW  Elec       q    Type
REMARK                         _______ _______ _______ _____ _____    ______ ____
ATOM      1  C   UNL     1      62.827  68.034  57.318  0.00  0.00    +0.000 C 
ATOM      2  N   UNL     1      62.719  68.508  56.653  0.00  0.00    +0.000 N 
ATOM      3  C   UNL     1      62.757  69.330  56.721  0.00  0.00    +0.000 C 
ATOM      4  C   UNL     1      62.572  68.161  55.918  0.00  0.00    +0.000 A 
ATOM      5  C   UNL     1      62.463  68.637  55.252  0.00  0.00    +0.000 A 
ATOM      6  C   UNL     1      62.316  68.290  54.518  0.00  0.00    +0.000 A 
ATOM      7  C   UNL     1      62.278  67.468  54.450  0.00  0.00    +0.000 A 
ATOM      8  C   UNL     1      62.387  66.994  55.116  0.00  0.00    +0.000 A 
ATOM      9  C   UNL     1      62.534  67.340  55.850  0.00  0.00    +0.000 A 
ATOM     10  C   UNL     1      62.131  67.122  53.717  0.00  0.00    +0.000 C 
ATOM     11  C   UNL     1      62.093  66.301  53.648  0.00  0.00    +0.000 A 
ATOM     12  C   UNL     1      61.946  65.954  52.914  0.00  0.00    +0.000 A 
ATOM     13  C   UNL     1      61.908  65.134  52.846  0.00  0.00    +0.000 A 
ATOM     14  C   UNL     1      62.016  64.658  53.511  0.00  0.00    +0.000 A 
ATOM     15  C   UNL     1      62.163  65.005  54.245  0.00  0.00    +0.000 A 
ATOM     16  C   UNL     1      62.202  65.827  54.314  0.00  0.00    +0.000 A 
ATOM     17  N   UNL     1      61.978  63.838  53.443  0.00  0.00    +0.000 N 
ATOM     18  C   UNL     1      61.831  63.491  52.708  0.00  0.00    +0.000 C 
ATOM     19  C   UNL     1      62.087  63.362  54.109  0.00  0.00    +0.000 C 
ATOM     20  C   UNL     1      62.022  67.597  53.050  0.00  0.00    +0.000 C 
ATOM     21  C   UNL     1      62.060  68.419  53.118  0.00  0.00    +0.000 C 
ATOM     22  C   UNL     1      61.952  68.893  52.452  0.00  0.00    +0.000 C 
ATOM     23  C   UNL     1      61.805  68.546  51.718  0.00  0.00    +0.000 C 
ATOM     24  C   UNL     1      61.767  67.726  51.650  0.00  0.00    +0.000 C 
ATOM     25  C   UNL     1      61.875  67.250  52.316  0.00  0.00    +0.000 C 
ATOM     26  N   UNL     1      61.696  69.021  51.053  0.00  0.00    +0.000 N 
ATOM     27  C   UNL     1      61.549  68.674  50.318  0.00  0.00    +0.000 C 
ATOM     28  C   UNL     1      61.734  69.842  51.120  0.00  0.00    +0.000 C 
ENDROOT
TORSDOF 0
ENDMDL
MODEL 9
REMARK VINA RESULT:    -9.878     13.731     16.883
REMARK INTER + INTRA:          -9.878
REMARK INTER:                  -9.878
REMARK INTRA:                   0.000
REMARK UNBOUND:                 0.000
ROOT
REMARK  Name = gentian violet
REMARK                            x       y       z     vdW  Elec       q    Type
REMARK                         _______ _______ _______ _____ _____    ______ ____
ATOM      1  C   UNL     1      62.771  69.338  56.716  0.00  0.00    +0.000 C 
ATOM      2  N   UNL     1      62.725  68.518  56.650  0.00  0.00    +0.000 N 
ATOM      3  C   UNL     1      62.832  68.043  57.316  0.00  0.00    +0.000 C 
ATOM      4  C   UNL     1      62.573  68.171  55.916  0.00  0.00    +0.000 A 
ATOM      5  C   UNL     1      62.527  67.350  55.850  0.00  0.00    +0.000 A 
ATOM      6  C   UNL     1      62.375  67.003  55.117  0.00  0.00    +0.000 A 
ATOM      7  C   UNL     1      62.269  67.478  54.450  0.00  0.00    +0.000 A 
ATOM      8  C   UNL     1      62.315  68.298  54.517  0.00  0.00    +0.000 A 
ATOM      9  C   UNL     1      62.467  68.645  55.250  0.00  0.00    +0.000 A 
ATOM     10  C   UNL     1      62.117  67.131  53.717  0.00  0.00    +0.000 C 
ATOM     11  C   UNL     1      62.010  67.605  53.051  0.00  0.00    +0.000 A 
ATOM     12  C   UNL     1      61.858  67.258  52.318  0.00  0.00    +0.000 A 
ATOM     13  C   UNL     1      61.752  67.733  51.652  0.00  0.00    +0.000 A 
ATOM     14  C   UNL     1      61.798  68.554  51.718  0.00  0.00    +0.000 A 
ATOM     15  C   UNL     1      61.950  68.901  52.451  0.00  0.00    +0.000 A 
ATOM     16  C   UNL     1      62.057  68.426  53.118  0.00  0.00    +0.000 A 
ATOM     17  N   UNL     1      61.692  69.028  51.052  0.00  0.00    +0.000 N 
ATOM     18  C   UNL     1      61.540  68.681  50.318  0.00  0.00    +0.000 C 
ATOM     19  C   UNL     1      61.738  69.849  51.117  0.00  0.00    +0.000 C 
ATOM     20  C   UNL     1      62.071  66.310  53.651  0.00  0.00    +0.000 C 
ATOM     21  C   UNL     1      62.177  65.835  54.318  0.00  0.00    +0.000 C 
ATOM     22  C   UNL     1      62.131  65.014  54.251  0.00  0.00    +0.000 C 
ATOM     23  C   UNL     1      61.979  64.667  53.518  0.00  0.00    +0.000 C 
ATOM     24  C   UNL     1      61.873  65.142  52.852  0.00  0.00    +0.000 C 
ATOM     25  C   UNL     1      61.919  65.963  52.918  0.00  0.00    +0.000 C 
ATOM     26  N   UNL     1      61.933  63.847  53.452  0.00  0.00    +0.000 N 
ATOM     27  C   UNL     1      61.781  63.500  52.718  0.00  0.00    +0.000 C 
ATOM     28  C   UNL     1      62.039  63.372  54.118  0.00  0.00    +0.000 C 
ENDROOT
TORSDOF 0
ENDMDL
