MODEL 1
REMARK VINA RESULT:   -15.713      0.000      0.000
REMARK INTER + INTRA:         -15.713
REMARK INTER:                 -15.713
REMARK INTRA:                   0.000
REMARK UNBOUND:                 0.000
ROOT
REMARK  Name = gestonorone caproate
REMARK                            x       y       z     vdW  Elec       q    Type
REMARK                         _______ _______ _______ _____ _____    ______ ____
ATOM      1  C   UNL     1      64.801  65.559  70.567  0.00  0.00    +0.000 C 
ATOM      2  C   UNL     1      64.015  65.314  70.505  0.00  0.00    +0.000 C 
ATOM      3  C   UNL     1      63.763  64.906  69.834  0.00  0.00    +0.000 C 
ATOM      4  C   UNL     1      62.977  64.661  69.772  0.00  0.00    +0.000 C 
ATOM      5  C   UNL     1      62.725  64.253  69.101  0.00  0.00    +0.000 C 
ATOM      6  C   UNL     1      61.939  64.008  69.039  0.00  0.00    +0.000 C 
ATOM      7  O   UNL     1      61.406  64.170  69.648  0.00  0.00    +0.000 OA
ATOM      8  O   UNL     1      61.686  63.601  68.367  0.00  0.00    +0.000 OA
ATOM      9  C   UNL     1      60.900  63.355  68.305  0.00  0.00    +0.000 C 
ATOM     10  C   UNL     1      60.099  63.184  68.398  0.00  0.00    +0.000 C 
ATOM     11  C   UNL     1      59.846  62.776  67.727  0.00  0.00    +0.000 C 
ATOM     12  C   UNL     1      60.491  62.696  67.219  0.00  0.00    +0.000 C 
ATOM     13  C   UNL     1      60.569  62.343  66.478  0.00  0.00    +0.000 C 
ATOM     14  C   UNL     1      59.918  61.985  66.120  0.00  0.00    +0.000 C 
ATOM     15  C   UNL     1      59.996  61.632  65.379  0.00  0.00    +0.000 C 
ATOM     16  C   UNL     1      60.726  61.638  64.995  0.00  0.00    +0.000 C 
ATOM     17  C   UNL     1      60.804  61.285  64.253  0.00  0.00    +0.000 C 
ATOM     18  C   UNL     1      61.534  61.290  63.869  0.00  0.00    +0.000 C 
ATOM     19  O   UNL     1      61.612  60.937  63.126  0.00  0.00    +0.000 OA
ATOM     20  C   UNL     1      62.186  61.648  64.226  0.00  0.00    +0.000 C 
ATOM     21  C   UNL     1      62.108  62.001  64.968  0.00  0.00    +0.000 C 
ATOM     22  C   UNL     1      61.378  61.995  65.352  0.00  0.00    +0.000 C 
ATOM     23  C   UNL     1      61.300  62.348  66.093  0.00  0.00    +0.000 C 
ATOM     24  C   UNL     1      61.952  62.706  66.451  0.00  0.00    +0.000 C 
ATOM     25  C   UNL     1      61.872  63.059  67.193  0.00  0.00    +0.000 C 
ATOM     26  C   UNL     1      61.143  63.054  67.577  0.00  0.00    +0.000 C 
ATOM     27  C   UNL     1      61.743  63.431  68.000  0.00  0.00    +0.000 C 
ATOM     28  C   UNL     1      60.822  63.708  69.047  0.00  0.00    +0.000 C 
ATOM     29  C   UNL     1      60.093  63.703  69.432  0.00  0.00    +0.000 C 
ATOM     30  O   UNL     1      61.076  64.116  69.719  0.00  0.00    +0.000 OA
ENDROOT
TORSDOF 0
ENDMDL
MODEL 2
REMARK VINA RESULT:   -14.930      4.004      5.495
REMARK INTER + INTRA:         -14.930
REMARK INTER:                 -14.930
REMARK INTRA:                   0.000
REMARK UNBOUND:                 0.000
ROOT
REMARK  Name = gestonorone caproate
REMARK                            x       y       z     vdW  Elec       q    Type
REMARK                         _______ _______ _______ _____ _____    ______ ____
ATOM      1  C   UNL     1      66.851  67.652  69.852  0.00  0.00    +0.000 C 
ATOM      2  C   UNL     1      66.256  67.705  70.422  0.00  0.00    +0.000 C 
ATOM      3  C   UNL     1      65.671  67.124  70.462  0.00  0.00    +0.000 C 
ATOM      4  C   UNL     1      65.077  67.176  71.032  0.00  0.00    +0.000 C 
ATOM      5  C   UNL     1      64.492  66.596  71.072  0.00  0.00    +0.000 C 
ATOM      6  C   UNL     1      63.897  66.648  71.642  0.00  0.00    +0.000 C 
ATOM      7  O   UNL     1      63.888  67.281  72.172  0.00  0.00    +0.000 OA
ATOM      8  O   UNL     1      63.313  66.068  71.682  0.00  0.00    +0.000 OA
ATOM      9  C   UNL     1      62.718  66.120  72.252  0.00  0.00    +0.000 C 
ATOM     10  C   UNL     1      62.206  66.317  72.868  0.00  0.00    +0.000 C 
ATOM     11  C   UNL     1      61.621  65.736  72.908  0.00  0.00    +0.000 C 
ATOM     12  C   UNL     1      61.772  65.181  72.317  0.00  0.00    +0.000 C 
ATOM     13  C   UNL     1      61.379  64.490  72.097  0.00  0.00    +0.000 C 
ATOM     14  C   UNL     1      60.701  64.253  72.502  0.00  0.00    +0.000 C 
ATOM     15  C   UNL     1      60.309  63.562  72.281  0.00  0.00    +0.000 C 
ATOM     16  C   UNL     1      60.595  63.108  71.654  0.00  0.00    +0.000 C 
ATOM     17  C   UNL     1      60.202  62.417  71.433  0.00  0.00    +0.000 C 
ATOM     18  C   UNL     1      60.487  61.963  70.806  0.00  0.00    +0.000 C 
ATOM     19  O   UNL     1      60.095  61.271  70.585  0.00  0.00    +0.000 OA
ATOM     20  C   UNL     1      61.166  62.200  70.400  0.00  0.00    +0.000 C 
ATOM     21  C   UNL     1      61.558  62.891  70.621  0.00  0.00    +0.000 C 
ATOM     22  C   UNL     1      61.272  63.345  71.248  0.00  0.00    +0.000 C 
ATOM     23  C   UNL     1      61.665  64.036  71.469  0.00  0.00    +0.000 C 
ATOM     24  C   UNL     1      62.344  64.273  71.064  0.00  0.00    +0.000 C 
ATOM     25  C   UNL     1      62.735  64.964  71.286  0.00  0.00    +0.000 C 
ATOM     26  C   UNL     1      62.450  65.418  71.912  0.00  0.00    +0.000 C 
ATOM     27  C   UNL     1      63.131  65.723  71.559  0.00  0.00    +0.000 C 
ATOM     28  C   UNL     1      63.111  66.811  72.473  0.00  0.00    +0.000 C 
ATOM     29  C   UNL     1      62.825  67.266  73.100  0.00  0.00    +0.000 C 
ATOM     30  O   UNL     1      63.696  67.392  72.433  0.00  0.00    +0.000 OA
ENDROOT
TORSDOF 0
ENDMDL
MODEL 3
REMARK VINA RESULT:   -14.915      1.473      2.792
REMARK INTER + INTRA:         -14.915
REMARK INTER:                 -14.915
REMARK INTRA:                   0.000
REMARK UNBOUND:                 0.000
ROOT
REMARK  Name = gestonorone caproate
REMARK                            x       y       z     vdW  Elec       q    Type
REMARK                         _______ _______ _______ _____ _____    ______ ____
ATOM      1  C   UNL     1      66.123  67.558  69.858  0.00  0.00    +0.000 C 
ATOM      2  C   UNL     1      65.594  67.105  70.301  0.00  0.00    +0.000 C 
ATOM      3  C   UNL     1      65.059  66.607  69.919  0.00  0.00    +0.000 C 
ATOM      4  C   UNL     1      64.530  66.153  70.362  0.00  0.00    +0.000 C 
ATOM      5  C   UNL     1      63.994  65.655  69.981  0.00  0.00    +0.000 C 
ATOM      6  C   UNL     1      63.465  65.202  70.424  0.00  0.00    +0.000 C 
ATOM      7  O   UNL     1      63.472  65.247  71.247  0.00  0.00    +0.000 OA
ATOM      8  O   UNL     1      62.930  64.704  70.042  0.00  0.00    +0.000 OA
ATOM      9  C   UNL     1      62.401  64.250  70.485  0.00  0.00    +0.000 C 
ATOM     10  C   UNL     1      61.949  63.872  71.062  0.00  0.00    +0.000 C 
ATOM     11  C   UNL     1      61.414  63.374  70.681  0.00  0.00    +0.000 C 
ATOM     12  C   UNL     1      61.534  63.444  69.868  0.00  0.00    +0.000 C 
ATOM     13  C   UNL     1      61.167  63.085  69.222  0.00  0.00    +0.000 C 
ATOM     14  C   UNL     1      60.557  62.543  69.343  0.00  0.00    +0.000 C 
ATOM     15  C   UNL     1      60.190  62.184  68.698  0.00  0.00    +0.000 C 
ATOM     16  C   UNL     1      60.434  62.366  67.931  0.00  0.00    +0.000 C 
ATOM     17  C   UNL     1      60.067  62.007  67.286  0.00  0.00    +0.000 C 
ATOM     18  C   UNL     1      60.310  62.188  66.519  0.00  0.00    +0.000 C 
ATOM     19  O   UNL     1      59.943  61.829  65.872  0.00  0.00    +0.000 OA
ATOM     20  C   UNL     1      60.921  62.730  66.397  0.00  0.00    +0.000 C 
ATOM     21  C   UNL     1      61.288  63.090  67.043  0.00  0.00    +0.000 C 
ATOM     22  C   UNL     1      61.044  62.907  67.810  0.00  0.00    +0.000 C 
ATOM     23  C   UNL     1      61.411  63.267  68.455  0.00  0.00    +0.000 C 
ATOM     24  C   UNL     1      62.022  63.809  68.334  0.00  0.00    +0.000 C 
ATOM     25  C   UNL     1      62.388  64.168  68.980  0.00  0.00    +0.000 C 
ATOM     26  C   UNL     1      62.145  63.986  69.746  0.00  0.00    +0.000 C 
ATOM     27  C   UNL     1      62.759  64.535  69.711  0.00  0.00    +0.000 C 
ATOM     28  C   UNL     1      62.768  64.610  71.130  0.00  0.00    +0.000 C 
ATOM     29  C   UNL     1      62.525  64.428  71.897  0.00  0.00    +0.000 C 
ATOM     30  O   UNL     1      63.304  65.109  71.512  0.00  0.00    +0.000 OA
ENDROOT
TORSDOF 0
ENDMDL
MODEL 4
REMARK VINA RESULT:   -14.643      1.920      5.601
REMARK INTER + INTRA:         -14.643
REMARK INTER:                 -14.643
REMARK INTRA:                   0.000
REMARK UNBOUND:                 0.000
ROOT
REMARK  Name = gestonorone caproate
REMARK                            x       y       z     vdW  Elec       q    Type
REMARK                         _______ _______ _______ _____ _____    ______ ____
ATOM      1  C   UNL     1      59.458  62.011  66.098  0.00  0.00    +0.000 C 
ATOM      2  C   UNL     1      59.526  62.066  66.919  0.00  0.00    +0.000 C 
ATOM      3  C   UNL     1      60.109  62.544  67.253  0.00  0.00    +0.000 C 
ATOM      4  C   UNL     1      60.177  62.599  68.075  0.00  0.00    +0.000 C 
ATOM      5  C   UNL     1      60.759  63.077  68.409  0.00  0.00    +0.000 C 
ATOM      6  C   UNL     1      60.827  63.132  69.230  0.00  0.00    +0.000 C 
ATOM      7  O   UNL     1      60.313  62.707  69.715  0.00  0.00    +0.000 OA
ATOM      8  O   UNL     1      61.410  63.610  69.564  0.00  0.00    +0.000 OA
ATOM      9  C   UNL     1      61.478  63.665  70.385  0.00  0.00    +0.000 C 
ATOM     10  C   UNL     1      61.413  63.609  71.206  0.00  0.00    +0.000 C 
ATOM     11  C   UNL     1      61.995  64.088  71.540  0.00  0.00    +0.000 C 
ATOM     12  C   UNL     1      62.421  64.439  70.926  0.00  0.00    +0.000 C 
ATOM     13  C   UNL     1      63.058  64.964  70.926  0.00  0.00    +0.000 C 
ATOM     14  C   UNL     1      63.377  65.225  71.640  0.00  0.00    +0.000 C 
ATOM     15  C   UNL     1      64.014  65.749  71.639  0.00  0.00    +0.000 C 
ATOM     16  C   UNL     1      64.331  66.012  70.924  0.00  0.00    +0.000 C 
ATOM     17  C   UNL     1      64.968  66.536  70.923  0.00  0.00    +0.000 C 
ATOM     18  C   UNL     1      65.286  66.799  70.209  0.00  0.00    +0.000 C 
ATOM     19  O   UNL     1      65.923  67.323  70.208  0.00  0.00    +0.000 OA
ATOM     20  C   UNL     1      64.966  66.537  69.494  0.00  0.00    +0.000 C 
ATOM     21  C   UNL     1      64.329  66.013  69.495  0.00  0.00    +0.000 C 
ATOM     22  C   UNL     1      64.012  65.750  70.210  0.00  0.00    +0.000 C 
ATOM     23  C   UNL     1      63.375  65.226  70.211  0.00  0.00    +0.000 C 
ATOM     24  C   UNL     1      63.055  64.964  69.496  0.00  0.00    +0.000 C 
ATOM     25  C   UNL     1      62.418  64.440  69.498  0.00  0.00    +0.000 C 
ATOM     26  C   UNL     1      62.101  64.177  70.212  0.00  0.00    +0.000 C 
ATOM     27  C   UNL     1      61.725  63.870  69.545  0.00  0.00    +0.000 C 
ATOM     28  C   UNL     1      60.841  63.141  70.386  0.00  0.00    +0.000 C 
ATOM     29  C   UNL     1      60.523  62.878  71.100  0.00  0.00    +0.000 C 
ATOM     30  O   UNL     1      60.258  62.661  70.051  0.00  0.00    +0.000 OA
ENDROOT
TORSDOF 0
ENDMDL
MODEL 5
REMARK VINA RESULT:   -14.615      2.084      5.814
REMARK INTER + INTRA:         -14.615
REMARK INTER:                 -14.615
REMARK INTRA:                   0.000
REMARK UNBOUND:                 0.000
ROOT
REMARK  Name = gestonorone caproate
REMARK                            x       y       z     vdW  Elec       q    Type
REMARK                         _______ _______ _______ _____ _____    ______ ____
ATOM      1  C   UNL     1      61.618  62.274  65.162  0.00  0.00    +0.000 C 
ATOM      2  C   UNL     1      61.321  62.046  65.898  0.00  0.00    +0.000 C 
ATOM      3  C   UNL     1      61.472  62.508  66.564  0.00  0.00    +0.000 C 
ATOM      4  C   UNL     1      61.175  62.280  67.300  0.00  0.00    +0.000 C 
ATOM      5  C   UNL     1      61.325  62.743  67.966  0.00  0.00    +0.000 C 
ATOM      6  C   UNL     1      61.028  62.514  68.702  0.00  0.00    +0.000 C 
ATOM      7  O   UNL     1      60.581  61.824  68.771  0.00  0.00    +0.000 OA
ATOM      8  O   UNL     1      61.179  62.977  69.368  0.00  0.00    +0.000 OA
ATOM      9  C   UNL     1      60.882  62.749  70.104  0.00  0.00    +0.000 C 
ATOM     10  C   UNL     1      60.520  62.387  70.752  0.00  0.00    +0.000 C 
ATOM     11  C   UNL     1      60.671  62.850  71.418  0.00  0.00    +0.000 C 
ATOM     12  C   UNL     1      61.125  63.497  71.183  0.00  0.00    +0.000 C 
ATOM     13  C   UNL     1      61.437  64.134  71.603  0.00  0.00    +0.000 C 
ATOM     14  C   UNL     1      61.306  64.197  72.415  0.00  0.00    +0.000 C 
ATOM     15  C   UNL     1      61.618  64.834  72.835  0.00  0.00    +0.000 C 
ATOM     16  C   UNL     1      62.061  65.410  72.443  0.00  0.00    +0.000 C 
ATOM     17  C   UNL     1      62.372  66.048  72.863  0.00  0.00    +0.000 C 
ATOM     18  C   UNL     1      62.815  66.623  72.472  0.00  0.00    +0.000 C 
ATOM     19  O   UNL     1      63.127  67.262  72.892  0.00  0.00    +0.000 OA
ATOM     20  C   UNL     1      62.946  66.561  71.659  0.00  0.00    +0.000 C 
ATOM     21  C   UNL     1      62.634  65.923  71.239  0.00  0.00    +0.000 C 
ATOM     22  C   UNL     1      62.191  65.348  71.631  0.00  0.00    +0.000 C 
ATOM     23  C   UNL     1      61.880  64.710  71.211  0.00  0.00    +0.000 C 
ATOM     24  C   UNL     1      62.010  64.647  70.398  0.00  0.00    +0.000 C 
ATOM     25  C   UNL     1      61.698  64.009  69.979  0.00  0.00    +0.000 C 
ATOM     26  C   UNL     1      61.256  63.434  70.370  0.00  0.00    +0.000 C 
ATOM     27  C   UNL     1      61.340  63.299  69.561  0.00  0.00    +0.000 C 
ATOM     28  C   UNL     1      60.570  62.111  69.684  0.00  0.00    +0.000 C 
ATOM     29  C   UNL     1      60.128  61.535  70.075  0.00  0.00    +0.000 C 
ATOM     30  O   UNL     1      60.420  61.648  69.017  0.00  0.00    +0.000 OA
ENDROOT
TORSDOF 0
ENDMDL
MODEL 6
REMARK VINA RESULT:   -14.499      2.309      3.424
REMARK INTER + INTRA:         -14.499
REMARK INTER:                 -14.499
REMARK INTRA:                   0.000
REMARK UNBOUND:                 0.000
ROOT
REMARK  Name = gestonorone caproate
REMARK                            x       y       z     vdW  Elec       q    Type
REMARK                         _______ _______ _______ _____ _____    ______ ____
ATOM      1  C   UNL     1      62.790  68.249  72.860  0.00  0.00    +0.000 C 
ATOM      2  C   UNL     1      62.579  67.465  73.012  0.00  0.00    +0.000 C 
ATOM      3  C   UNL     1      62.364  66.969  72.389  0.00  0.00    +0.000 C 
ATOM      4  C   UNL     1      62.153  66.185  72.540  0.00  0.00    +0.000 C 
ATOM      5  C   UNL     1      61.939  65.689  71.918  0.00  0.00    +0.000 C 
ATOM      6  C   UNL     1      61.727  64.905  72.069  0.00  0.00    +0.000 C 
ATOM      7  O   UNL     1      61.730  64.619  72.843  0.00  0.00    +0.000 OA
ATOM      8  O   UNL     1      61.513  64.408  71.446  0.00  0.00    +0.000 OA
ATOM      9  C   UNL     1      61.301  63.625  71.598  0.00  0.00    +0.000 C 
ATOM     10  C   UNL     1      61.121  62.884  71.914  0.00  0.00    +0.000 C 
ATOM     11  C   UNL     1      60.906  62.388  71.291  0.00  0.00    +0.000 C 
ATOM     12  C   UNL     1      60.954  62.821  70.590  0.00  0.00    +0.000 C 
ATOM     13  C   UNL     1      60.807  62.617  69.805  0.00  0.00    +0.000 C 
ATOM     14  C   UNL     1      60.563  61.853  69.615  0.00  0.00    +0.000 C 
ATOM     15  C   UNL     1      60.416  61.650  68.829  0.00  0.00    +0.000 C 
ATOM     16  C   UNL     1      60.513  62.212  68.233  0.00  0.00    +0.000 C 
ATOM     17  C   UNL     1      60.366  62.009  67.447  0.00  0.00    +0.000 C 
ATOM     18  C   UNL     1      60.463  62.570  66.850  0.00  0.00    +0.000 C 
ATOM     19  O   UNL     1      60.316  62.367  66.064  0.00  0.00    +0.000 OA
ATOM     20  C   UNL     1      60.708  63.336  67.040  0.00  0.00    +0.000 C 
ATOM     21  C   UNL     1      60.855  63.539  67.826  0.00  0.00    +0.000 C 
ATOM     22  C   UNL     1      60.757  62.976  68.422  0.00  0.00    +0.000 C 
ATOM     23  C   UNL     1      60.904  63.180  69.208  0.00  0.00    +0.000 C 
ATOM     24  C   UNL     1      61.149  63.945  69.398  0.00  0.00    +0.000 C 
ATOM     25  C   UNL     1      61.295  64.147  70.184  0.00  0.00    +0.000 C 
ATOM     26  C   UNL     1      61.199  63.586  70.780  0.00  0.00    +0.000 C 
ATOM     27  C   UNL     1      61.444  64.325  71.052  0.00  0.00    +0.000 C 
ATOM     28  C   UNL     1      61.448  63.828  72.384  0.00  0.00    +0.000 C 
ATOM     29  C   UNL     1      61.351  63.267  72.980  0.00  0.00    +0.000 C 
ATOM     30  O   UNL     1      61.663  64.326  73.007  0.00  0.00    +0.000 OA
ENDROOT
TORSDOF 0
ENDMDL
