MODEL 1
REMARK VINA RESULT:   -13.795      0.000      0.000
REMARK INTER + INTRA:         -13.795
REMARK INTER:                 -13.795
REMARK INTRA:                   0.000
REMARK UNBOUND:                 0.000
ROOT
REMARK  Name = gestrinone
REMARK                            x       y       z     vdW  Elec       q    Type
REMARK                         _______ _______ _______ _____ _____    ______ ____
ATOM      1  C   UNL     1      62.618  62.313  64.790  0.00  0.00    +0.000 C 
ATOM      2  C   UNL     1      61.976  61.879  64.505  0.00  0.00    +0.000 C 
ATOM      3  C   UNL     1      61.290  61.814  64.958  0.00  0.00    +0.000 C 
ATOM      4  C   UNL     1      61.885  62.264  65.313  0.00  0.00    +0.000 C 
ATOM      5  C   UNL     1      61.759  62.599  66.056  0.00  0.00    +0.000 C 
ATOM      6  C   UNL     1      61.041  62.487  66.445  0.00  0.00    +0.000 C 
ATOM      7  C   UNL     1      60.916  62.822  67.188  0.00  0.00    +0.000 C 
ATOM      8  C   UNL     1      61.510  63.272  67.542  0.00  0.00    +0.000 C 
ATOM      9  C   UNL     1      61.386  63.608  68.285  0.00  0.00    +0.000 C 
ATOM     10  C   UNL     1      60.667  63.495  68.674  0.00  0.00    +0.000 C 
ATOM     11  O   UNL     1      60.543  63.831  69.417  0.00  0.00    +0.000 OA
ATOM     12  C   UNL     1      60.073  63.045  68.319  0.00  0.00    +0.000 C 
ATOM     13  C   UNL     1      60.197  62.709  67.576  0.00  0.00    +0.000 C 
ATOM     14  C   UNL     1      59.604  62.259  67.222  0.00  0.00    +0.000 C 
ATOM     15  C   UNL     1      59.728  61.923  66.479  0.00  0.00    +0.000 C 
ATOM     16  C   UNL     1      60.447  62.037  66.090  0.00  0.00    +0.000 C 
ATOM     17  C   UNL     1      60.571  61.701  65.348  0.00  0.00    +0.000 C 
ATOM     18  C   UNL     1      60.092  61.234  64.865  0.00  0.00    +0.000 C 
ATOM     19  C   UNL     1      60.514  61.059  64.178  0.00  0.00    +0.000 C 
ATOM     20  C   UNL     1      61.254  61.418  64.236  0.00  0.00    +0.000 C 
ATOM     21  O   UNL     1      61.542  61.160  63.506  0.00  0.00    +0.000 OA
ATOM     22  C   UNL     1      62.013  61.618  63.980  0.00  0.00    +0.000 C 
ATOM     23  C   UNL     1      62.771  61.819  63.724  0.00  0.00    +0.000 C 
ENDROOT
TORSDOF 0
ENDMDL
MODEL 2
REMARK VINA RESULT:   -13.013      0.585      3.776
REMARK INTER + INTRA:         -13.013
REMARK INTER:                 -13.013
REMARK INTRA:                   0.000
REMARK UNBOUND:                 0.000
ROOT
REMARK  Name = gestrinone
REMARK                            x       y       z     vdW  Elec       q    Type
REMARK                         _______ _______ _______ _____ _____    ______ ____
ATOM      1  C   UNL     1      61.701  63.360  67.540  0.00  0.00    +0.000 C 
ATOM      2  C   UNL     1      60.927  63.087  67.635  0.00  0.00    +0.000 C 
ATOM      3  C   UNL     1      60.577  62.628  67.046  0.00  0.00    +0.000 C 
ATOM      4  C   UNL     1      61.351  62.861  66.875  0.00  0.00    +0.000 C 
ATOM      5  C   UNL     1      61.702  62.631  66.165  0.00  0.00    +0.000 C 
ATOM      6  C   UNL     1      61.283  62.170  65.626  0.00  0.00    +0.000 C 
ATOM      7  C   UNL     1      61.635  61.941  64.915  0.00  0.00    +0.000 C 
ATOM      8  C   UNL     1      62.408  62.173  64.745  0.00  0.00    +0.000 C 
ATOM      9  C   UNL     1      62.761  61.944  64.035  0.00  0.00    +0.000 C 
ATOM     10  C   UNL     1      62.340  61.482  63.496  0.00  0.00    +0.000 C 
ATOM     11  O   UNL     1      62.692  61.253  62.787  0.00  0.00    +0.000 OA
ATOM     12  C   UNL     1      61.566  61.250  63.667  0.00  0.00    +0.000 C 
ATOM     13  C   UNL     1      61.214  61.479  64.376  0.00  0.00    +0.000 C 
ATOM     14  C   UNL     1      60.441  61.247  64.547  0.00  0.00    +0.000 C 
ATOM     15  C   UNL     1      60.089  61.476  65.257  0.00  0.00    +0.000 C 
ATOM     16  C   UNL     1      60.510  61.938  65.796  0.00  0.00    +0.000 C 
ATOM     17  C   UNL     1      60.157  62.167  66.506  0.00  0.00    +0.000 C 
ATOM     18  C   UNL     1      59.409  62.023  66.823  0.00  0.00    +0.000 C 
ATOM     19  C   UNL     1      59.368  62.395  67.558  0.00  0.00    +0.000 C 
ATOM     20  C   UNL     1      60.089  62.769  67.695  0.00  0.00    +0.000 C 
ATOM     21  O   UNL     1      59.896  63.080  68.434  0.00  0.00    +0.000 OA
ATOM     22  C   UNL     1      60.630  63.222  68.124  0.00  0.00    +0.000 C 
ATOM     23  C   UNL     1      61.171  63.675  68.552  0.00  0.00    +0.000 C 
ENDROOT
TORSDOF 0
ENDMDL
MODEL 3
REMARK VINA RESULT:   -12.504      2.767      5.863
REMARK INTER + INTRA:         -12.504
REMARK INTER:                 -12.504
REMARK INTRA:                   0.000
REMARK UNBOUND:                 0.000
ROOT
REMARK  Name = gestrinone
REMARK                            x       y       z     vdW  Elec       q    Type
REMARK                         _______ _______ _______ _____ _____    ______ ____
ATOM      1  C   UNL     1      61.632  61.538  71.736  0.00  0.00    +0.000 C 
ATOM      2  C   UNL     1      61.498  62.282  72.070  0.00  0.00    +0.000 C 
ATOM      3  C   UNL     1      61.173  62.886  71.612  0.00  0.00    +0.000 C 
ATOM      4  C   UNL     1      61.275  62.175  71.205  0.00  0.00    +0.000 C 
ATOM      5  C   UNL     1      61.058  62.119  70.412  0.00  0.00    +0.000 C 
ATOM      6  C   UNL     1      60.738  62.772  70.023  0.00  0.00    +0.000 C 
ATOM      7  C   UNL     1      60.520  62.717  69.230  0.00  0.00    +0.000 C 
ATOM      8  C   UNL     1      60.622  62.005  68.823  0.00  0.00    +0.000 C 
ATOM      9  C   UNL     1      60.405  61.949  68.030  0.00  0.00    +0.000 C 
ATOM     10  C   UNL     1      60.085  62.603  67.642  0.00  0.00    +0.000 C 
ATOM     11  O   UNL     1      59.868  62.547  66.849  0.00  0.00    +0.000 OA
ATOM     12  C   UNL     1      59.983  63.314  68.049  0.00  0.00    +0.000 C 
ATOM     13  C   UNL     1      60.201  63.371  68.842  0.00  0.00    +0.000 C 
ATOM     14  C   UNL     1      60.099  64.081  69.249  0.00  0.00    +0.000 C 
ATOM     15  C   UNL     1      60.316  64.138  70.042  0.00  0.00    +0.000 C 
ATOM     16  C   UNL     1      60.636  63.483  70.430  0.00  0.00    +0.000 C 
ATOM     17  C   UNL     1      60.854  63.540  71.223  0.00  0.00    +0.000 C 
ATOM     18  C   UNL     1      60.819  64.163  71.763  0.00  0.00    +0.000 C 
ATOM     19  C   UNL     1      61.116  63.894  72.483  0.00  0.00    +0.000 C 
ATOM     20  C   UNL     1      61.335  63.105  72.390  0.00  0.00    +0.000 C 
ATOM     21  O   UNL     1      61.601  62.988  73.162  0.00  0.00    +0.000 OA
ATOM     22  C   UNL     1      61.636  62.376  72.633  0.00  0.00    +0.000 C 
ATOM     23  C   UNL     1      61.936  61.647  72.876  0.00  0.00    +0.000 C 
ENDROOT
TORSDOF 0
ENDMDL
MODEL 4
REMARK VINA RESULT:   -12.281      3.111      5.197
REMARK INTER + INTRA:         -12.281
REMARK INTER:                 -12.281
REMARK INTRA:                   0.000
REMARK UNBOUND:                 0.000
ROOT
REMARK  Name = gestrinone
REMARK                            x       y       z     vdW  Elec       q    Type
REMARK                         _______ _______ _______ _____ _____    ______ ____
ATOM      1  C   UNL     1      60.969  63.227  68.877  0.00  0.00    +0.000 C 
ATOM      2  C   UNL     1      60.715  62.562  69.296  0.00  0.00    +0.000 C 
ATOM      3  C   UNL     1      60.778  62.546  70.118  0.00  0.00    +0.000 C 
ATOM      4  C   UNL     1      61.052  63.244  69.775  0.00  0.00    +0.000 C 
ATOM      5  C   UNL     1      61.354  63.846  70.251  0.00  0.00    +0.000 C 
ATOM      6  C   UNL     1      61.383  63.751  71.070  0.00  0.00    +0.000 C 
ATOM      7  C   UNL     1      61.685  64.353  71.546  0.00  0.00    +0.000 C 
ATOM      8  C   UNL     1      61.959  65.051  71.203  0.00  0.00    +0.000 C 
ATOM      9  C   UNL     1      62.262  65.653  71.679  0.00  0.00    +0.000 C 
ATOM     10  C   UNL     1      62.289  65.557  72.498  0.00  0.00    +0.000 C 
ATOM     11  O   UNL     1      62.592  66.159  72.973  0.00  0.00    +0.000 OA
ATOM     12  C   UNL     1      62.015  64.858  72.841  0.00  0.00    +0.000 C 
ATOM     13  C   UNL     1      61.712  64.256  72.365  0.00  0.00    +0.000 C 
ATOM     14  C   UNL     1      61.438  63.558  72.707  0.00  0.00    +0.000 C 
ATOM     15  C   UNL     1      61.136  62.956  72.232  0.00  0.00    +0.000 C 
ATOM     16  C   UNL     1      61.108  63.052  71.413  0.00  0.00    +0.000 C 
ATOM     17  C   UNL     1      60.806  62.450  70.937  0.00  0.00    +0.000 C 
ATOM     18  C   UNL     1      60.497  61.706  71.116  0.00  0.00    +0.000 C 
ATOM     19  C   UNL     1      60.279  61.343  70.409  0.00  0.00    +0.000 C 
ATOM     20  C   UNL     1      60.452  61.861  69.792  0.00  0.00    +0.000 C 
ATOM     21  O   UNL     1      60.188  61.374  69.181  0.00  0.00    +0.000 OA
ATOM     22  C   UNL     1      60.491  62.104  69.004  0.00  0.00    +0.000 C 
ATOM     23  C   UNL     1      60.530  62.347  68.217  0.00  0.00    +0.000 C 
ENDROOT
TORSDOF 0
ENDMDL
MODEL 5
REMARK VINA RESULT:   -12.096      5.074      6.341
REMARK INTER + INTRA:         -12.096
REMARK INTER:                 -12.096
REMARK INTRA:                   0.000
REMARK UNBOUND:                 0.000
ROOT
REMARK  Name = gestrinone
REMARK                            x       y       z     vdW  Elec       q    Type
REMARK                         _______ _______ _______ _____ _____    ______ ____
ATOM      1  C   UNL     1      61.903  62.217  72.849  0.00  0.00    +0.000 C 
ATOM      2  C   UNL     1      61.607  61.935  72.132  0.00  0.00    +0.000 C 
ATOM      3  C   UNL     1      61.082  62.395  71.693  0.00  0.00    +0.000 C 
ATOM      4  C   UNL     1      61.331  62.748  72.397  0.00  0.00    +0.000 C 
ATOM      5  C   UNL     1      61.053  63.497  72.602  0.00  0.00    +0.000 C 
ATOM      6  C   UNL     1      60.527  63.893  72.107  0.00  0.00    +0.000 C 
ATOM      7  C   UNL     1      60.248  64.642  72.312  0.00  0.00    +0.000 C 
ATOM      8  C   UNL     1      60.497  64.995  73.016  0.00  0.00    +0.000 C 
ATOM      9  C   UNL     1      60.219  65.744  73.222  0.00  0.00    +0.000 C 
ATOM     10  C   UNL     1      59.693  66.140  72.726  0.00  0.00    +0.000 C 
ATOM     11  O   UNL     1      59.415  66.888  72.932  0.00  0.00    +0.000 OA
ATOM     12  C   UNL     1      59.444  65.787  72.022  0.00  0.00    +0.000 C 
ATOM     13  C   UNL     1      59.722  65.038  71.815  0.00  0.00    +0.000 C 
ATOM     14  C   UNL     1      59.474  64.685  71.113  0.00  0.00    +0.000 C 
ATOM     15  C   UNL     1      59.752  63.936  70.906  0.00  0.00    +0.000 C 
ATOM     16  C   UNL     1      60.278  63.541  71.403  0.00  0.00    +0.000 C 
ATOM     17  C   UNL     1      60.556  62.792  71.197  0.00  0.00    +0.000 C 
ATOM     18  C   UNL     1      60.410  62.309  70.544  0.00  0.00    +0.000 C 
ATOM     19  C   UNL     1      60.846  61.615  70.637  0.00  0.00    +0.000 C 
ATOM     20  C   UNL     1      61.261  61.668  71.347  0.00  0.00    +0.000 C 
ATOM     21  O   UNL     1      61.630  60.932  71.297  0.00  0.00    +0.000 OA
ATOM     22  C   UNL     1      61.774  61.405  71.938  0.00  0.00    +0.000 C 
ATOM     23  C   UNL     1      62.286  61.143  72.529  0.00  0.00    +0.000 C 
ENDROOT
TORSDOF 0
ENDMDL
MODEL 6
REMARK VINA RESULT:   -11.931      4.601      7.192
REMARK INTER + INTRA:         -11.931
REMARK INTER:                 -11.931
REMARK INTRA:                   0.000
REMARK UNBOUND:                 0.000
ROOT
REMARK  Name = gestrinone
REMARK                            x       y       z     vdW  Elec       q    Type
REMARK                         _______ _______ _______ _____ _____    ______ ____
ATOM      1  C   UNL     1      65.396  66.725  69.528  0.00  0.00    +0.000 C 
ATOM      2  C   UNL     1      65.356  66.982  70.311  0.00  0.00    +0.000 C 
ATOM      3  C   UNL     1      64.789  66.666  70.819  0.00  0.00    +0.000 C 
ATOM      4  C   UNL     1      64.763  66.358  70.054  0.00  0.00    +0.000 C 
ATOM      5  C   UNL     1      64.202  65.785  69.860  0.00  0.00    +0.000 C 
ATOM      6  C   UNL     1      63.667  65.520  70.429  0.00  0.00    +0.000 C 
ATOM      7  C   UNL     1      63.106  64.947  70.235  0.00  0.00    +0.000 C 
ATOM      8  C   UNL     1      63.080  64.638  69.470  0.00  0.00    +0.000 C 
ATOM      9  C   UNL     1      62.520  64.066  69.275  0.00  0.00    +0.000 C 
ATOM     10  C   UNL     1      61.985  63.802  69.844  0.00  0.00    +0.000 C 
ATOM     11  O   UNL     1      61.424  63.229  69.649  0.00  0.00    +0.000 OA
ATOM     12  C   UNL     1      62.010  64.110  70.609  0.00  0.00    +0.000 C 
ATOM     13  C   UNL     1      62.571  64.683  70.804  0.00  0.00    +0.000 C 
ATOM     14  C   UNL     1      62.597  64.992  71.569  0.00  0.00    +0.000 C 
ATOM     15  C   UNL     1      63.158  65.565  71.764  0.00  0.00    +0.000 C 
ATOM     16  C   UNL     1      63.693  65.829  71.194  0.00  0.00    +0.000 C 
ATOM     17  C   UNL     1      64.253  66.402  71.389  0.00  0.00    +0.000 C 
ATOM     18  C   UNL     1      64.410  66.804  72.092  0.00  0.00    +0.000 C 
ATOM     19  C   UNL     1      65.042  67.317  71.956  0.00  0.00    +0.000 C 
ATOM     20  C   UNL     1      65.276  67.232  71.170  0.00  0.00    +0.000 C 
ATOM     21  O   UNL     1      65.887  67.785  71.192  0.00  0.00    +0.000 OA
ATOM     22  C   UNL     1      65.733  67.390  70.503  0.00  0.00    +0.000 C 
ATOM     23  C   UNL     1      66.191  67.548  69.834  0.00  0.00    +0.000 C 
ENDROOT
TORSDOF 0
ENDMDL
MODEL 7
REMARK VINA RESULT:   -11.899      5.305      7.070
REMARK INTER + INTRA:         -11.899
REMARK INTER:                 -11.899
REMARK INTRA:                   0.000
REMARK UNBOUND:                 0.000
ROOT
REMARK  Name = gestrinone
REMARK                            x       y       z     vdW  Elec       q    Type
REMARK                         _______ _______ _______ _____ _____    ______ ____
ATOM      1  C   UNL     1      62.187  65.293  72.585  0.00  0.00    +0.000 C 
ATOM      2  C   UNL     1      62.059  64.685  72.041  0.00  0.00    +0.000 C 
ATOM      3  C   UNL     1      62.531  64.630  71.367  0.00  0.00    +0.000 C 
ATOM      4  C   UNL     1      62.722  65.264  71.860  0.00  0.00    +0.000 C 
ATOM      5  C   UNL     1      63.339  65.773  71.656  0.00  0.00    +0.000 C 
ATOM      6  C   UNL     1      63.764  65.649  70.960  0.00  0.00    +0.000 C 
ATOM      7  C   UNL     1      64.381  66.158  70.757  0.00  0.00    +0.000 C 
ATOM      8  C   UNL     1      64.572  66.792  71.250  0.00  0.00    +0.000 C 
ATOM      9  C   UNL     1      65.189  67.301  71.046  0.00  0.00    +0.000 C 
ATOM     10  C   UNL     1      65.614  67.176  70.351  0.00  0.00    +0.000 C 
ATOM     11  O   UNL     1      66.230  67.686  70.148  0.00  0.00    +0.000 OA
ATOM     12  C   UNL     1      65.422  66.543  69.858  0.00  0.00    +0.000 C 
ATOM     13  C   UNL     1      64.806  66.034  70.061  0.00  0.00    +0.000 C 
ATOM     14  C   UNL     1      64.614  65.400  69.569  0.00  0.00    +0.000 C 
ATOM     15  C   UNL     1      63.998  64.891  69.772  0.00  0.00    +0.000 C 
ATOM     16  C   UNL     1      63.573  65.016  70.468  0.00  0.00    +0.000 C 
ATOM     17  C   UNL     1      62.957  64.507  70.671  0.00  0.00    +0.000 C 
ATOM     18  C   UNL     1      62.644  63.840  70.297  0.00  0.00    +0.000 C 
ATOM     19  C   UNL     1      62.026  63.554  70.762  0.00  0.00    +0.000 C 
ATOM     20  C   UNL     1      61.956  64.042  71.423  0.00  0.00    +0.000 C 
ATOM     21  O   UNL     1      61.325  63.640  71.771  0.00  0.00    +0.000 OA
ATOM     22  C   UNL     1      61.631  64.294  72.138  0.00  0.00    +0.000 C 
ATOM     23  C   UNL     1      61.307  64.546  72.853  0.00  0.00    +0.000 C 
ENDROOT
TORSDOF 0
ENDMDL
MODEL 8
REMARK VINA RESULT:   -11.849      5.454      6.846
REMARK INTER + INTRA:         -11.849
REMARK INTER:                 -11.849
REMARK INTRA:                   0.000
REMARK UNBOUND:                 0.000
ROOT
REMARK  Name = gestrinone
REMARK                            x       y       z     vdW  Elec       q    Type
REMARK                         _______ _______ _______ _____ _____    ______ ____
ATOM      1  C   UNL     1      64.556  66.955  71.658  0.00  0.00    +0.000 C 
ATOM      2  C   UNL     1      64.786  66.692  70.909  0.00  0.00    +0.000 C 
ATOM      3  C   UNL     1      64.415  66.039  70.570  0.00  0.00    +0.000 C 
ATOM      4  C   UNL     1      64.127  66.237  71.318  0.00  0.00    +0.000 C 
ATOM      5  C   UNL     1      63.521  65.792  71.658  0.00  0.00    +0.000 C 
ATOM      6  C   UNL     1      63.202  65.150  71.251  0.00  0.00    +0.000 C 
ATOM      7  C   UNL     1      62.595  64.706  71.591  0.00  0.00    +0.000 C 
ATOM      8  C   UNL     1      62.308  64.904  72.339  0.00  0.00    +0.000 C 
ATOM      9  C   UNL     1      61.702  64.460  72.679  0.00  0.00    +0.000 C 
ATOM     10  C   UNL     1      61.383  63.818  72.271  0.00  0.00    +0.000 C 
ATOM     11  O   UNL     1      60.777  63.374  72.611  0.00  0.00    +0.000 OA
ATOM     12  C   UNL     1      61.670  63.619  71.523  0.00  0.00    +0.000 C 
ATOM     13  C   UNL     1      62.276  64.063  71.183  0.00  0.00    +0.000 C 
ATOM     14  C   UNL     1      62.564  63.866  70.436  0.00  0.00    +0.000 C 
ATOM     15  C   UNL     1      63.170  64.309  70.096  0.00  0.00    +0.000 C 
ATOM     16  C   UNL     1      63.489  64.952  70.503  0.00  0.00    +0.000 C 
ATOM     17  C   UNL     1      64.095  65.396  70.163  0.00  0.00    +0.000 C 
ATOM     18  C   UNL     1      64.488  65.333  69.440  0.00  0.00    +0.000 C 
ATOM     19  C   UNL     1      65.048  65.936  69.401  0.00  0.00    +0.000 C 
ATOM     20  C   UNL     1      65.004  66.372  70.099  0.00  0.00    +0.000 C 
ATOM     21  O   UNL     1      65.599  66.911  69.913  0.00  0.00    +0.000 OA
ATOM     22  C   UNL     1      65.215  66.974  70.622  0.00  0.00    +0.000 C 
ATOM     23  C   UNL     1      65.426  67.575  71.146  0.00  0.00    +0.000 C 
ENDROOT
TORSDOF 0
ENDMDL
MODEL 9
REMARK VINA RESULT:   -11.585      4.977      6.816
REMARK INTER + INTRA:         -11.585
REMARK INTER:                 -11.585
REMARK INTRA:                   0.000
REMARK UNBOUND:                 0.000
ROOT
REMARK  Name = gestrinone
REMARK                            x       y       z     vdW  Elec       q    Type
REMARK                         _______ _______ _______ _____ _____    ______ ____
ATOM      1  C   UNL     1      63.870  65.274  70.530  0.00  0.00    +0.000 C 
ATOM      2  C   UNL     1      63.661  65.721  71.192  0.00  0.00    +0.000 C 
ATOM      3  C   UNL     1      63.020  65.492  71.658  0.00  0.00    +0.000 C 
ATOM      4  C   UNL     1      63.164  64.993  71.016  0.00  0.00    +0.000 C 
ATOM      5  C   UNL     1      62.683  64.335  70.891  0.00  0.00    +0.000 C 
ATOM      6  C   UNL     1      62.059  64.174  71.406  0.00  0.00    +0.000 C 
ATOM      7  C   UNL     1      61.579  63.515  71.280  0.00  0.00    +0.000 C 
ATOM      8  C   UNL     1      61.722  63.016  70.639  0.00  0.00    +0.000 C 
ATOM      9  C   UNL     1      61.242  62.357  70.513  0.00  0.00    +0.000 C 
ATOM     10  C   UNL     1      60.618  62.198  71.028  0.00  0.00    +0.000 C 
ATOM     11  O   UNL     1      60.138  61.539  70.902  0.00  0.00    +0.000 OA
ATOM     12  C   UNL     1      60.475  62.696  71.670  0.00  0.00    +0.000 C 
ATOM     13  C   UNL     1      60.955  63.355  71.796  0.00  0.00    +0.000 C 
ATOM     14  C   UNL     1      60.811  63.854  72.437  0.00  0.00    +0.000 C 
ATOM     15  C   UNL     1      61.292  64.513  72.563  0.00  0.00    +0.000 C 
ATOM     16  C   UNL     1      61.915  64.673  72.047  0.00  0.00    +0.000 C 
ATOM     17  C   UNL     1      62.396  65.331  72.173  0.00  0.00    +0.000 C 
ATOM     18  C   UNL     1      62.388  65.918  72.754  0.00  0.00    +0.000 C 
ATOM     19  C   UNL     1      63.007  66.440  72.597  0.00  0.00    +0.000 C 
ATOM     20  C   UNL     1      63.397  66.177  71.920  0.00  0.00    +0.000 C 
ATOM     21  O   UNL     1      63.963  66.777  71.897  0.00  0.00    +0.000 OA
ATOM     22  C   UNL     1      63.971  66.202  71.327  0.00  0.00    +0.000 C 
ATOM     23  C   UNL     1      64.544  66.227  70.734  0.00  0.00    +0.000 C 
ENDROOT
TORSDOF 0
ENDMDL
