MODEL 1
REMARK VINA RESULT:    -5.415      0.000      0.000
REMARK INTER + INTRA:          -5.415
REMARK INTER:                  -5.415
REMARK INTRA:                   0.000
REMARK UNBOUND:                 0.000
ROOT
REMARK  Name = gimeracil
REMARK                            x       y       z     vdW  Elec       q    Type
REMARK                         _______ _______ _______ _____ _____    ______ ____
ATOM      1  O   UNL     1      60.902  61.040  63.969  0.00  0.00    +0.000 OA
ATOM      2  C   UNL     1      61.320  61.507  64.504  0.00  0.00    +0.000 A 
ATOM      3  C   UNL     1      61.000  61.672  65.246  0.00  0.00    +0.000 A 
ATOM      4  C   UNL     1      61.418  62.140  65.781  0.00  0.00    +0.000 A 
ATOM      5  O   UNL     1      61.098  62.303  66.523  0.00  0.00    +0.000 OA
ATOM      6  N   UNL     1      62.156  62.443  65.575  0.00  0.00    +0.000 NA
ATOM      7  C   UNL     1      62.477  62.280  64.832  0.00  0.00    +0.000 A 
ATOM      8  C   UNL     1      62.059  61.812  64.297  0.00  0.00    +0.000 A 
ATOM      9 CL   UNL     1      62.379  61.647  63.554  0.00  0.00    +0.000 Cl
ENDROOT
TORSDOF 0
ENDMDL
MODEL 2
REMARK VINA RESULT:    -5.339      1.468      2.276
REMARK INTER + INTRA:          -5.339
REMARK INTER:                  -5.339
REMARK INTRA:                   0.000
REMARK UNBOUND:                 0.000
ROOT
REMARK  Name = gimeracil
REMARK                            x       y       z     vdW  Elec       q    Type
REMARK                         _______ _______ _______ _____ _____    ______ ____
ATOM      1  O   UNL     1      62.017  62.584  65.932  0.00  0.00    +0.000 OA
ATOM      2  C   UNL     1      61.863  62.162  65.242  0.00  0.00    +0.000 A 
ATOM      3  C   UNL     1      62.400  62.183  64.616  0.00  0.00    +0.000 A 
ATOM      4  C   UNL     1      62.246  61.760  63.925  0.00  0.00    +0.000 A 
ATOM      5  O   UNL     1      62.783  61.782  63.300  0.00  0.00    +0.000 OA
ATOM      6  N   UNL     1      61.554  61.317  63.859  0.00  0.00    +0.000 NA
ATOM      7  C   UNL     1      61.016  61.295  64.484  0.00  0.00    +0.000 A 
ATOM      8  C   UNL     1      61.170  61.717  65.175  0.00  0.00    +0.000 A 
ATOM      9 CL   UNL     1      60.632  61.696  65.801  0.00  0.00    +0.000 Cl
ENDROOT
TORSDOF 0
ENDMDL
MODEL 3
REMARK VINA RESULT:    -4.699      8.238      8.772
REMARK INTER + INTRA:          -4.699
REMARK INTER:                  -4.699
REMARK INTRA:                   0.000
REMARK UNBOUND:                 0.000
ROOT
REMARK  Name = gimeracil
REMARK                            x       y       z     vdW  Elec       q    Type
REMARK                         _______ _______ _______ _____ _____    ______ ____
ATOM      1  O   UNL     1      65.982  67.693  69.677  0.00  0.00    +0.000 OA
ATOM      2  C   UNL     1      65.814  67.184  70.303  0.00  0.00    +0.000 A 
ATOM      3  C   UNL     1      66.240  67.240  71.007  0.00  0.00    +0.000 A 
ATOM      4  C   UNL     1      66.073  66.731  71.634  0.00  0.00    +0.000 A 
ATOM      5  O   UNL     1      66.499  66.788  72.337  0.00  0.00    +0.000 OA
ATOM      6  N   UNL     1      65.479  66.164  71.556  0.00  0.00    +0.000 NA
ATOM      7  C   UNL     1      65.051  66.107  70.853  0.00  0.00    +0.000 A 
ATOM      8  C   UNL     1      65.219  66.617  70.226  0.00  0.00    +0.000 A 
ATOM      9 CL   UNL     1      64.792  66.560  69.522  0.00  0.00    +0.000 Cl
ENDROOT
TORSDOF 0
ENDMDL
MODEL 4
REMARK VINA RESULT:    -4.627     16.273     16.877
REMARK INTER + INTRA:          -4.627
REMARK INTER:                  -4.627
REMARK INTRA:                   0.000
REMARK UNBOUND:                 0.000
ROOT
REMARK  Name = gimeracil
REMARK                            x       y       z     vdW  Elec       q    Type
REMARK                         _______ _______ _______ _____ _____    ______ ____
ATOM      1  O   UNL     1      58.842  75.087  72.227  0.00  0.00    +0.000 OA
ATOM      2  C   UNL     1      58.668  75.846  72.497  0.00  0.00    +0.000 A 
ATOM      3  C   UNL     1      59.277  76.377  72.661  0.00  0.00    +0.000 A 
ATOM      4  C   UNL     1      59.102  77.136  72.931  0.00  0.00    +0.000 A 
ATOM      5  O   UNL     1      59.712  77.666  73.095  0.00  0.00    +0.000 OA
ATOM      6  N   UNL     1      58.318  77.365  73.037  0.00  0.00    +0.000 NA
ATOM      7  C   UNL     1      57.707  76.835  72.873  0.00  0.00    +0.000 A 
ATOM      8  C   UNL     1      57.882  76.076  72.603  0.00  0.00    +0.000 A 
ATOM      9 CL   UNL     1      57.271  75.545  72.439  0.00  0.00    +0.000 Cl
ENDROOT
TORSDOF 0
ENDMDL
MODEL 5
REMARK VINA RESULT:    -4.568      8.079      8.672
REMARK INTER + INTRA:          -4.568
REMARK INTER:                  -4.568
REMARK INTRA:                   0.000
REMARK UNBOUND:                 0.000
ROOT
REMARK  Name = gimeracil
REMARK                            x       y       z     vdW  Elec       q    Type
REMARK                         _______ _______ _______ _____ _____    ______ ____
ATOM      1  O   UNL     1      66.742  67.278  71.397  0.00  0.00    +0.000 OA
ATOM      2  C   UNL     1      66.080  66.993  70.998  0.00  0.00    +0.000 A 
ATOM      3  C   UNL     1      65.570  66.463  71.370  0.00  0.00    +0.000 A 
ATOM      4  C   UNL     1      64.907  66.178  70.970  0.00  0.00    +0.000 A 
ATOM      5  O   UNL     1      64.397  65.648  71.343  0.00  0.00    +0.000 OA
ATOM      6  N   UNL     1      64.754  66.423  70.198  0.00  0.00    +0.000 NA
ATOM      7  C   UNL     1      65.265  66.954  69.825  0.00  0.00    +0.000 A 
ATOM      8  C   UNL     1      65.927  67.239  70.225  0.00  0.00    +0.000 A 
ATOM      9 CL   UNL     1      66.438  67.769  69.852  0.00  0.00    +0.000 Cl
ENDROOT
TORSDOF 0
ENDMDL
MODEL 6
REMARK VINA RESULT:    -4.320     24.841     25.291
REMARK INTER + INTRA:          -4.320
REMARK INTER:                  -4.320
REMARK INTRA:                   0.000
REMARK UNBOUND:                 0.000
ROOT
REMARK  Name = gimeracil
REMARK                            x       y       z     vdW  Elec       q    Type
REMARK                         _______ _______ _______ _____ _____    ______ ____
ATOM      1  O   UNL     1      70.211  78.129  49.582  0.00  0.00    +0.000 OA
ATOM      2  C   UNL     1      70.775  78.695  49.378  0.00  0.00    +0.000 A 
ATOM      3  C   UNL     1      71.372  78.508  48.840  0.00  0.00    +0.000 A 
ATOM      4  C   UNL     1      71.936  79.074  48.635  0.00  0.00    +0.000 A 
ATOM      5  O   UNL     1      72.532  78.887  48.098  0.00  0.00    +0.000 OA
ATOM      6  N   UNL     1      71.903  79.827  48.969  0.00  0.00    +0.000 NA
ATOM      7  C   UNL     1      71.307  80.016  49.507  0.00  0.00    +0.000 A 
ATOM      8  C   UNL     1      70.743  79.449  49.712  0.00  0.00    +0.000 A 
ATOM      9 CL   UNL     1      70.145  79.637  50.250  0.00  0.00    +0.000 Cl
ENDROOT
TORSDOF 0
ENDMDL
MODEL 7
REMARK VINA RESULT:    -4.263      5.209      5.985
REMARK INTER + INTRA:          -4.263
REMARK INTER:                  -4.263
REMARK INTRA:                   0.000
REMARK UNBOUND:                 0.000
ROOT
REMARK  Name = gimeracil
REMARK                            x       y       z     vdW  Elec       q    Type
REMARK                         _______ _______ _______ _____ _____    ______ ____
ATOM      1  O   UNL     1      60.547  64.077  70.515  0.00  0.00    +0.000 OA
ATOM      2  C   UNL     1      60.482  63.264  70.396  0.00  0.00    +0.000 A 
ATOM      3  C   UNL     1      60.503  62.955  69.631  0.00  0.00    +0.000 A 
ATOM      4  C   UNL     1      60.438  62.142  69.513  0.00  0.00    +0.000 A 
ATOM      5  O   UNL     1      60.459  61.834  68.748  0.00  0.00    +0.000 OA
ATOM      6  N   UNL     1      60.353  61.636  70.158  0.00  0.00    +0.000 NA
ATOM      7  C   UNL     1      60.332  61.944  70.924  0.00  0.00    +0.000 A 
ATOM      8  C   UNL     1      60.397  62.758  71.043  0.00  0.00    +0.000 A 
ATOM      9 CL   UNL     1      60.376  63.066  71.808  0.00  0.00    +0.000 Cl
ENDROOT
TORSDOF 0
ENDMDL
MODEL 8
REMARK VINA RESULT:    -4.026      6.389      7.148
REMARK INTER + INTRA:          -4.026
REMARK INTER:                  -4.026
REMARK INTRA:                   0.000
REMARK UNBOUND:                 0.000
ROOT
REMARK  Name = gimeracil
REMARK                            x       y       z     vdW  Elec       q    Type
REMARK                         _______ _______ _______ _____ _____    ______ ____
ATOM      1  O   UNL     1      63.608  65.959  71.774  0.00  0.00    +0.000 OA
ATOM      2  C   UNL     1      63.734  65.406  71.176  0.00  0.00    +0.000 A 
ATOM      3  C   UNL     1      63.131  64.886  70.961  0.00  0.00    +0.000 A 
ATOM      4  C   UNL     1      63.257  64.333  70.362  0.00  0.00    +0.000 A 
ATOM      5  O   UNL     1      62.654  63.813  70.148  0.00  0.00    +0.000 OA
ATOM      6  N   UNL     1      63.986  64.300  69.979  0.00  0.00    +0.000 NA
ATOM      7  C   UNL     1      64.590  64.819  70.193  0.00  0.00    +0.000 A 
ATOM      8  C   UNL     1      64.464  65.373  70.792  0.00  0.00    +0.000 A 
ATOM      9 CL   UNL     1      65.067  65.893  71.007  0.00  0.00    +0.000 Cl
ENDROOT
TORSDOF 0
ENDMDL
MODEL 9
REMARK VINA RESULT:    -4.013     11.618     12.041
REMARK INTER + INTRA:          -4.013
REMARK INTER:                  -4.013
REMARK INTRA:                   0.000
REMARK UNBOUND:                 0.000
ROOT
REMARK  Name = gimeracil
REMARK                            x       y       z     vdW  Elec       q    Type
REMARK                         _______ _______ _______ _____ _____    ______ ____
ATOM      1  O   UNL     1      62.763  67.682  56.238  0.00  0.00    +0.000 OA
ATOM      2  C   UNL     1      62.763  68.209  55.604  0.00  0.00    +0.000 A 
ATOM      3  C   UNL     1      62.404  68.947  55.680  0.00  0.00    +0.000 A 
ATOM      4  C   UNL     1      62.404  69.474  55.045  0.00  0.00    +0.000 A 
ATOM      5  O   UNL     1      62.044  70.211  55.122  0.00  0.00    +0.000 OA
ATOM      6  N   UNL     1      62.764  69.262  54.334  0.00  0.00    +0.000 NA
ATOM      7  C   UNL     1      63.124  68.524  54.257  0.00  0.00    +0.000 A 
ATOM      8  C   UNL     1      63.124  67.997  54.891  0.00  0.00    +0.000 A 
ATOM      9 CL   UNL     1      63.484  67.258  54.815  0.00  0.00    +0.000 Cl
ENDROOT
TORSDOF 0
ENDMDL
