MODEL 1
REMARK VINA RESULT:   -11.957      0.000      0.000
REMARK INTER + INTRA:         -11.957
REMARK INTER:                 -11.957
REMARK INTRA:                   0.000
REMARK UNBOUND:                 0.000
ROOT
REMARK  Name = gleptoferron
REMARK                            x       y       z     vdW  Elec       q    Type
REMARK                         _______ _______ _______ _____ _____    ______ ____
ATOM      1 FE   UNL     1      60.411  59.719  60.768  0.00  0.00    +0.000 Fe
REMARK  Name = gleptoferron
REMARK                            x       y       z     vdW  Elec       q    Type
REMARK                         _______ _______ _______ _____ _____    ______ ____
ATOM      1  O   UNL     1      60.588  60.340  62.287  0.00  0.00    +0.000 OA
ATOM      2  O   UNL     1      60.499  60.030  61.528  0.00  0.00    +0.000 OA
REMARK  Name = gleptoferron
REMARK                            x       y       z     vdW  Elec       q    Type
REMARK                         _______ _______ _______ _____ _____    ______ ____
ATOM      1  O   UNL     1      60.684  60.988  64.060  0.00  0.00    +0.000 OA
ATOM      2  C   UNL     1      60.420  61.059  64.837  0.00  0.00    +0.000 C 
ATOM      3  C   UNL     1      60.837  61.526  65.375  0.00  0.00    +0.000 C 
ATOM      4  O   UNL     1      60.572  61.597  66.153  0.00  0.00    +0.000 OA
ATOM      5  C   UNL     1      60.990  62.063  66.690  0.00  0.00    +0.000 C 
ATOM      6  O   UNL     1      60.725  62.134  67.468  0.00  0.00    +0.000 OA
ATOM      7  C   UNL     1      61.142  62.600  68.005  0.00  0.00    +0.000 C 
ATOM      8  C   UNL     1      60.878  62.672  68.783  0.00  0.00    +0.000 C 
ATOM      9  O   UNL     1      60.195  62.276  69.024  0.00  0.00    +0.000 OA
ATOM     10  C   UNL     1      61.295  63.138  69.321  0.00  0.00    +0.000 C 
ATOM     11  O   UNL     1      61.978  63.534  69.080  0.00  0.00    +0.000 OA
ATOM     12  C   UNL     1      61.031  63.209  70.098  0.00  0.00    +0.000 C 
ATOM     13  O   UNL     1      60.348  62.814  70.339  0.00  0.00    +0.000 OA
ATOM     14  C   UNL     1      61.448  63.675  70.635  0.00  0.00    +0.000 C 
ATOM     15  O   UNL     1      62.131  64.071  70.394  0.00  0.00    +0.000 OA
ATOM     16  C   UNL     1      61.184  63.747  71.414  0.00  0.00    +0.000 C 
ATOM     17  O   UNL     1      60.501  63.351  71.654  0.00  0.00    +0.000 OA
ATOM     18  C   UNL     1      61.601  64.213  71.950  0.00  0.00    +0.000 C 
ATOM     19  O   UNL     1      61.336  64.284  72.729  0.00  0.00    +0.000 OA
ATOM     20  O   UNL     1      62.284  64.608  71.709  0.00  0.00    +0.000 OA
ATOM     21  C   UNL     1      61.673  62.459  66.449  0.00  0.00    +0.000 C 
ATOM     22  O   UNL     1      62.091  62.925  66.986  0.00  0.00    +0.000 OA
ATOM     23  C   UNL     1      61.938  62.388  65.671  0.00  0.00    +0.000 C 
ATOM     24  O   UNL     1      62.621  62.783  65.430  0.00  0.00    +0.000 OA
ATOM     25  C   UNL     1      61.520  61.921  65.134  0.00  0.00    +0.000 C 
ATOM     26  O   UNL     1      61.785  61.850  64.356  0.00  0.00    +0.000 OA
ENDROOT
TORSDOF 0
ENDMDL
MODEL 2
REMARK VINA RESULT:   -11.013      2.890      7.015
REMARK INTER + INTRA:         -11.013
REMARK INTER:                 -11.013
REMARK INTRA:                   0.000
REMARK UNBOUND:                 0.000
ROOT
REMARK  Name = gleptoferron
REMARK                            x       y       z     vdW  Elec       q    Type
REMARK                         _______ _______ _______ _____ _____    ______ ____
ATOM      1 FE   UNL     1      62.697  66.730  73.222  0.00  0.00    +0.000 Fe
REMARK  Name = gleptoferron
REMARK                            x       y       z     vdW  Elec       q    Type
REMARK                         _______ _______ _______ _____ _____    ______ ____
ATOM      1  O   UNL     1      62.432  65.865  71.843  0.00  0.00    +0.000 OA
ATOM      2  O   UNL     1      62.565  66.298  72.533  0.00  0.00    +0.000 OA
REMARK  Name = gleptoferron
REMARK                            x       y       z     vdW  Elec       q    Type
REMARK                         _______ _______ _______ _____ _____    ______ ____
ATOM      1  O   UNL     1      62.236  64.925  70.215  0.00  0.00    +0.000 OA
ATOM      2  C   UNL     1      62.465  64.707  69.454  0.00  0.00    +0.000 C 
ATOM      3  C   UNL     1      62.006  64.175  69.020  0.00  0.00    +0.000 C 
ATOM      4  O   UNL     1      62.236  63.957  68.259  0.00  0.00    +0.000 OA
ATOM      5  C   UNL     1      61.777  63.426  67.825  0.00  0.00    +0.000 C 
ATOM      6  O   UNL     1      62.007  63.208  67.064  0.00  0.00    +0.000 OA
ATOM      7  C   UNL     1      61.548  62.677  66.631  0.00  0.00    +0.000 C 
ATOM      8  C   UNL     1      61.777  62.459  65.869  0.00  0.00    +0.000 C 
ATOM      9  O   UNL     1      62.466  62.772  65.540  0.00  0.00    +0.000 OA
ATOM     10  C   UNL     1      61.318  61.928  65.435  0.00  0.00    +0.000 C 
ATOM     11  O   UNL     1      60.630  61.614  65.763  0.00  0.00    +0.000 OA
ATOM     12  C   UNL     1      61.548  61.710  64.674  0.00  0.00    +0.000 C 
ATOM     13  O   UNL     1      62.237  62.023  64.345  0.00  0.00    +0.000 OA
ATOM     14  C   UNL     1      61.089  61.179  64.241  0.00  0.00    +0.000 C 
ATOM     15  O   UNL     1      60.401  60.865  64.569  0.00  0.00    +0.000 OA
ATOM     16  C   UNL     1      61.319  60.960  63.479  0.00  0.00    +0.000 C 
ATOM     17  O   UNL     1      62.007  61.274  63.150  0.00  0.00    +0.000 OA
ATOM     18  C   UNL     1      60.860  60.430  63.046  0.00  0.00    +0.000 C 
ATOM     19  O   UNL     1      61.089  60.211  62.284  0.00  0.00    +0.000 OA
ATOM     20  O   UNL     1      60.171  60.116  63.374  0.00  0.00    +0.000 OA
ATOM     21  C   UNL     1      61.088  63.113  68.153  0.00  0.00    +0.000 C 
ATOM     22  O   UNL     1      60.629  62.581  67.721  0.00  0.00    +0.000 OA
ATOM     23  C   UNL     1      60.858  63.331  68.916  0.00  0.00    +0.000 C 
ATOM     24  O   UNL     1      60.169  63.017  69.245  0.00  0.00    +0.000 OA
ATOM     25  C   UNL     1      61.318  63.862  69.348  0.00  0.00    +0.000 C 
ATOM     26  O   UNL     1      61.088  64.080  70.111  0.00  0.00    +0.000 OA
ENDROOT
TORSDOF 0
ENDMDL
MODEL 3
REMARK VINA RESULT:   -10.408      6.449      7.552
REMARK INTER + INTRA:         -10.408
REMARK INTER:                 -10.408
REMARK INTRA:                   0.000
REMARK UNBOUND:                 0.000
ROOT
REMARK  Name = gleptoferron
REMARK                            x       y       z     vdW  Elec       q    Type
REMARK                         _______ _______ _______ _____ _____    ______ ____
ATOM      1 FE   UNL     1      69.665  67.927  69.857  0.00  0.00    +0.000 Fe
REMARK  Name = gleptoferron
REMARK                            x       y       z     vdW  Elec       q    Type
REMARK                         _______ _______ _______ _____ _____    ______ ____
ATOM      1  O   UNL     1      68.099  67.605  70.267  0.00  0.00    +0.000 OA
ATOM      2  O   UNL     1      68.882  67.766  70.062  0.00  0.00    +0.000 OA
REMARK  Name = gleptoferron
REMARK                            x       y       z     vdW  Elec       q    Type
REMARK                         _______ _______ _______ _____ _____    ______ ____
ATOM      1  O   UNL     1      66.297  67.356  70.778  0.00  0.00    +0.000 OA
ATOM      2  C   UNL     1      65.576  67.602  71.092  0.00  0.00    +0.000 C 
ATOM      3  C   UNL     1      64.941  67.077  71.133  0.00  0.00    +0.000 C 
ATOM      4  O   UNL     1      64.220  67.323  71.447  0.00  0.00    +0.000 OA
ATOM      5  C   UNL     1      63.585  66.798  71.488  0.00  0.00    +0.000 C 
ATOM      6  O   UNL     1      62.864  67.044  71.802  0.00  0.00    +0.000 OA
ATOM      7  C   UNL     1      62.230  66.519  71.843  0.00  0.00    +0.000 C 
ATOM      8  C   UNL     1      61.508  66.765  72.157  0.00  0.00    +0.000 C 
ATOM      9  O   UNL     1      61.421  67.538  72.432  0.00  0.00    +0.000 OA
ATOM     10  C   UNL     1      60.873  66.239  72.198  0.00  0.00    +0.000 C 
ATOM     11  O   UNL     1      60.961  65.466  71.923  0.00  0.00    +0.000 OA
ATOM     12  C   UNL     1      60.153  66.486  72.512  0.00  0.00    +0.000 C 
ATOM     13  O   UNL     1      60.065  67.259  72.787  0.00  0.00    +0.000 OA
ATOM     14  C   UNL     1      59.519  65.961  72.553  0.00  0.00    +0.000 C 
ATOM     15  O   UNL     1      59.606  65.188  72.278  0.00  0.00    +0.000 OA
ATOM     16  C   UNL     1      58.797  66.207  72.867  0.00  0.00    +0.000 C 
ATOM     17  O   UNL     1      58.710  66.980  73.142  0.00  0.00    +0.000 OA
ATOM     18  C   UNL     1      58.163  65.682  72.908  0.00  0.00    +0.000 C 
ATOM     19  O   UNL     1      57.441  65.928  73.222  0.00  0.00    +0.000 OA
ATOM     20  O   UNL     1      58.250  64.909  72.633  0.00  0.00    +0.000 OA
ATOM     21  C   UNL     1      63.672  66.025  71.213  0.00  0.00    +0.000 C 
ATOM     22  O   UNL     1      63.038  65.498  71.253  0.00  0.00    +0.000 OA
ATOM     23  C   UNL     1      64.394  65.777  70.898  0.00  0.00    +0.000 C 
ATOM     24  O   UNL     1      64.481  65.004  70.623  0.00  0.00    +0.000 OA
ATOM     25  C   UNL     1      65.028  66.304  70.858  0.00  0.00    +0.000 C 
ATOM     26  O   UNL     1      65.750  66.056  70.543  0.00  0.00    +0.000 OA
ENDROOT
TORSDOF 0
ENDMDL
MODEL 4
REMARK VINA RESULT:   -10.151     14.131     15.022
REMARK INTER + INTRA:         -10.151
REMARK INTER:                 -10.151
REMARK INTRA:                   0.000
REMARK UNBOUND:                 0.000
ROOT
REMARK  Name = gleptoferron
REMARK                            x       y       z     vdW  Elec       q    Type
REMARK                         _______ _______ _______ _____ _____    ______ ____
ATOM      1 FE   UNL     1      62.258  71.409  55.202  0.00  0.00    +0.000 Fe
REMARK  Name = gleptoferron
REMARK                            x       y       z     vdW  Elec       q    Type
REMARK                         _______ _______ _______ _____ _____    ______ ____
ATOM      1  O   UNL     1      62.352  69.786  54.923  0.00  0.00    +0.000 OA
ATOM      2  O   UNL     1      62.305  70.598  55.062  0.00  0.00    +0.000 OA
REMARK  Name = gleptoferron
REMARK                            x       y       z     vdW  Elec       q    Type
REMARK                         _______ _______ _______ _____ _____    ______ ____
ATOM      1  O   UNL     1      62.580  67.930  54.645  0.00  0.00    +0.000 OA
ATOM      2  C   UNL     1      63.011  67.228  54.654  0.00  0.00    +0.000 C 
ATOM      3  C   UNL     1      62.661  66.524  54.403  0.00  0.00    +0.000 C 
ATOM      4  O   UNL     1      63.093  65.822  54.413  0.00  0.00    +0.000 OA
ATOM      5  C   UNL     1      62.743  65.118  54.162  0.00  0.00    +0.000 C 
ATOM      6  O   UNL     1      63.174  64.416  54.171  0.00  0.00    +0.000 OA
ATOM      7  C   UNL     1      62.824  63.713  53.921  0.00  0.00    +0.000 C 
ATOM      8  C   UNL     1      63.256  63.009  53.930  0.00  0.00    +0.000 C 
ATOM      9  O   UNL     1      64.039  63.010  54.191  0.00  0.00    +0.000 OA
ATOM     10  C   UNL     1      62.906  62.306  53.679  0.00  0.00    +0.000 C 
ATOM     11  O   UNL     1      62.123  62.305  53.419  0.00  0.00    +0.000 OA
ATOM     12  C   UNL     1      63.337  61.603  53.689  0.00  0.00    +0.000 C 
ATOM     13  O   UNL     1      64.120  61.604  53.949  0.00  0.00    +0.000 OA
ATOM     14  C   UNL     1      62.987  60.900  53.438  0.00  0.00    +0.000 C 
ATOM     15  O   UNL     1      62.204  60.900  53.178  0.00  0.00    +0.000 OA
ATOM     16  C   UNL     1      63.419  60.197  53.447  0.00  0.00    +0.000 C 
ATOM     17  O   UNL     1      64.202  60.198  53.708  0.00  0.00    +0.000 OA
ATOM     18  C   UNL     1      63.069  59.494  53.197  0.00  0.00    +0.000 C 
ATOM     19  O   UNL     1      63.501  58.791  53.206  0.00  0.00    +0.000 OA
ATOM     20  O   UNL     1      62.286  59.494  52.936  0.00  0.00    +0.000 OA
ATOM     21  C   UNL     1      61.960  65.117  53.902  0.00  0.00    +0.000 C 
ATOM     22  O   UNL     1      61.609  64.414  53.651  0.00  0.00    +0.000 OA
ATOM     23  C   UNL     1      61.527  65.820  53.892  0.00  0.00    +0.000 C 
ATOM     24  O   UNL     1      60.744  65.820  53.632  0.00  0.00    +0.000 OA
ATOM     25  C   UNL     1      61.878  66.523  54.143  0.00  0.00    +0.000 C 
ATOM     26  O   UNL     1      61.446  67.226  54.133  0.00  0.00    +0.000 OA
ENDROOT
TORSDOF 0
ENDMDL
MODEL 5
REMARK VINA RESULT:    -9.928     13.999     14.456
REMARK INTER + INTRA:          -9.928
REMARK INTER:                  -9.928
REMARK INTRA:                   0.000
REMARK UNBOUND:                 0.000
ROOT
REMARK  Name = gleptoferron
REMARK                            x       y       z     vdW  Elec       q    Type
REMARK                         _______ _______ _______ _____ _____    ______ ____
ATOM      1 FE   UNL     1      64.495  58.248  53.199  0.00  0.00    +0.000 Fe
REMARK  Name = gleptoferron
REMARK                            x       y       z     vdW  Elec       q    Type
REMARK                         _______ _______ _______ _____ _____    ______ ____
ATOM      1  O   UNL     1      64.030  59.823  53.364  0.00  0.00    +0.000 OA
ATOM      2  O   UNL     1      64.263  59.035  53.281  0.00  0.00    +0.000 OA
REMARK  Name = gleptoferron
REMARK                            x       y       z     vdW  Elec       q    Type
REMARK                         _______ _______ _______ _____ _____    ______ ____
ATOM      1  O   UNL     1      63.602  61.646  53.621  0.00  0.00    +0.000 OA
ATOM      2  C   UNL     1      63.737  62.403  53.917  0.00  0.00    +0.000 C 
ATOM      3  C   UNL     1      63.199  63.009  53.763  0.00  0.00    +0.000 C 
ATOM      4  O   UNL     1      63.334  63.767  54.059  0.00  0.00    +0.000 OA
ATOM      5  C   UNL     1      62.796  64.373  53.905  0.00  0.00    +0.000 C 
ATOM      6  O   UNL     1      62.931  65.130  54.201  0.00  0.00    +0.000 OA
ATOM      7  C   UNL     1      62.393  65.735  54.047  0.00  0.00    +0.000 C 
ATOM      8  C   UNL     1      62.528  66.494  54.344  0.00  0.00    +0.000 C 
ATOM      9  O   UNL     1      63.201  66.646  54.795  0.00  0.00    +0.000 OA
ATOM     10  C   UNL     1      61.990  67.100  54.189  0.00  0.00    +0.000 C 
ATOM     11  O   UNL     1      61.316  66.948  53.738  0.00  0.00    +0.000 OA
ATOM     12  C   UNL     1      62.125  67.857  54.486  0.00  0.00    +0.000 C 
ATOM     13  O   UNL     1      62.798  68.009  54.937  0.00  0.00    +0.000 OA
ATOM     14  C   UNL     1      61.587  68.463  54.331  0.00  0.00    +0.000 C 
ATOM     15  O   UNL     1      60.913  68.311  53.880  0.00  0.00    +0.000 OA
ATOM     16  C   UNL     1      61.722  69.221  54.628  0.00  0.00    +0.000 C 
ATOM     17  O   UNL     1      62.395  69.373  55.079  0.00  0.00    +0.000 OA
ATOM     18  C   UNL     1      61.184  69.826  54.474  0.00  0.00    +0.000 C 
ATOM     19  O   UNL     1      61.319  70.584  54.770  0.00  0.00    +0.000 OA
ATOM     20  O   UNL     1      60.510  69.674  54.023  0.00  0.00    +0.000 OA
ATOM     21  C   UNL     1      62.122  64.221  53.454  0.00  0.00    +0.000 C 
ATOM     22  O   UNL     1      61.583  64.826  53.299  0.00  0.00    +0.000 OA
ATOM     23  C   UNL     1      61.986  63.462  53.157  0.00  0.00    +0.000 C 
ATOM     24  O   UNL     1      61.312  63.310  52.706  0.00  0.00    +0.000 OA
ATOM     25  C   UNL     1      62.525  62.857  53.312  0.00  0.00    +0.000 C 
ATOM     26  O   UNL     1      62.389  62.099  53.015  0.00  0.00    +0.000 OA
ENDROOT
TORSDOF 0
ENDMDL
MODEL 6
REMARK VINA RESULT:    -9.780     14.169     14.965
REMARK INTER + INTRA:          -9.780
REMARK INTER:                  -9.780
REMARK INTRA:                   0.000
REMARK UNBOUND:                 0.000
ROOT
REMARK  Name = gleptoferron
REMARK                            x       y       z     vdW  Elec       q    Type
REMARK                         _______ _______ _______ _____ _____    ______ ____
ATOM      1 FE   UNL     1      59.928  72.529  54.560  0.00  0.00    +0.000 Fe
REMARK  Name = gleptoferron
REMARK                            x       y       z     vdW  Elec       q    Type
REMARK                         _______ _______ _______ _____ _____    ______ ____
ATOM      1  O   UNL     1      60.476  70.976  54.460  0.00  0.00    +0.000 OA
ATOM      2  O   UNL     1      60.202  71.752  54.510  0.00  0.00    +0.000 OA
REMARK  Name = gleptoferron
REMARK                            x       y       z     vdW  Elec       q    Type
REMARK                         _______ _______ _______ _____ _____    ______ ____
ATOM      1  O   UNL     1      60.989  69.163  54.303  0.00  0.00    +0.000 OA
ATOM      2  C   UNL     1      60.859  68.370  54.119  0.00  0.00    +0.000 C 
ATOM      3  C   UNL     1      61.464  67.818  54.216  0.00  0.00    +0.000 C 
ATOM      4  O   UNL     1      61.333  67.025  54.033  0.00  0.00    +0.000 OA
ATOM      5  C   UNL     1      61.939  66.473  54.130  0.00  0.00    +0.000 C 
ATOM      6  O   UNL     1      61.808  65.680  53.946  0.00  0.00    +0.000 OA
ATOM      7  C   UNL     1      62.414  65.129  54.043  0.00  0.00    +0.000 C 
ATOM      8  C   UNL     1      62.283  64.335  53.860  0.00  0.00    +0.000 C 
ATOM      9  O   UNL     1      61.546  64.093  53.579  0.00  0.00    +0.000 OA
ATOM     10  C   UNL     1      62.889  63.783  53.957  0.00  0.00    +0.000 C 
ATOM     11  O   UNL     1      63.626  64.025  54.237  0.00  0.00    +0.000 OA
ATOM     12  C   UNL     1      62.758  62.990  53.773  0.00  0.00    +0.000 C 
ATOM     13  O   UNL     1      62.021  62.748  53.493  0.00  0.00    +0.000 OA
ATOM     14  C   UNL     1      63.363  62.439  53.870  0.00  0.00    +0.000 C 
ATOM     15  O   UNL     1      64.100  62.681  54.151  0.00  0.00    +0.000 OA
ATOM     16  C   UNL     1      63.233  61.645  53.687  0.00  0.00    +0.000 C 
ATOM     17  O   UNL     1      62.496  61.403  53.406  0.00  0.00    +0.000 OA
ATOM     18  C   UNL     1      63.838  61.094  53.784  0.00  0.00    +0.000 C 
ATOM     19  O   UNL     1      63.708  60.300  53.601  0.00  0.00    +0.000 OA
ATOM     20  O   UNL     1      64.575  61.336  54.064  0.00  0.00    +0.000 OA
ATOM     21  C   UNL     1      62.676  66.715  54.410  0.00  0.00    +0.000 C 
ATOM     22  O   UNL     1      63.282  66.165  54.507  0.00  0.00    +0.000 OA
ATOM     23  C   UNL     1      62.808  67.510  54.594  0.00  0.00    +0.000 C 
ATOM     24  O   UNL     1      63.545  67.752  54.874  0.00  0.00    +0.000 OA
ATOM     25  C   UNL     1      62.201  68.060  54.497  0.00  0.00    +0.000 C 
ATOM     26  O   UNL     1      62.333  68.855  54.680  0.00  0.00    +0.000 OA
ENDROOT
TORSDOF 0
ENDMDL
MODEL 7
REMARK VINA RESULT:    -9.741      3.789      6.991
REMARK INTER + INTRA:          -9.741
REMARK INTER:                  -9.741
REMARK INTRA:                   0.000
REMARK UNBOUND:                 0.000
ROOT
REMARK  Name = gleptoferron
REMARK                            x       y       z     vdW  Elec       q    Type
REMARK                         _______ _______ _______ _____ _____    ______ ____
ATOM      1 FE   UNL     1      67.770  67.537  72.781  0.00  0.00    +0.000 Fe
REMARK  Name = gleptoferron
REMARK                            x       y       z     vdW  Elec       q    Type
REMARK                         _______ _______ _______ _____ _____    ______ ____
ATOM      1  O   UNL     1      66.570  66.805  71.917  0.00  0.00    +0.000 OA
ATOM      2  O   UNL     1      67.170  67.171  72.349  0.00  0.00    +0.000 OA
REMARK  Name = gleptoferron
REMARK                            x       y       z     vdW  Elec       q    Type
REMARK                         _______ _______ _______ _____ _____    ______ ____
ATOM      1  O   UNL     1      65.286  65.914  70.854  0.00  0.00    +0.000 OA
ATOM      2  C   UNL     1      65.049  65.423  70.236  0.00  0.00    +0.000 C 
ATOM      3  C   UNL     1      64.247  65.281  70.105  0.00  0.00    +0.000 C 
ATOM      4  O   UNL     1      64.010  64.789  69.487  0.00  0.00    +0.000 OA
ATOM      5  C   UNL     1      63.207  64.647  69.357  0.00  0.00    +0.000 C 
ATOM      6  O   UNL     1      62.971  64.155  68.738  0.00  0.00    +0.000 OA
ATOM      7  C   UNL     1      62.169  64.013  68.608  0.00  0.00    +0.000 C 
ATOM      8  C   UNL     1      61.931  63.522  67.990  0.00  0.00    +0.000 C 
ATOM      9  O   UNL     1      62.497  63.172  67.501  0.00  0.00    +0.000 OA
ATOM     10  C   UNL     1      61.129  63.379  67.859  0.00  0.00    +0.000 C 
ATOM     11  O   UNL     1      60.564  63.729  68.348  0.00  0.00    +0.000 OA
ATOM     12  C   UNL     1      60.892  62.888  67.241  0.00  0.00    +0.000 C 
ATOM     13  O   UNL     1      61.457  62.538  66.753  0.00  0.00    +0.000 OA
ATOM     14  C   UNL     1      60.091  62.746  67.111  0.00  0.00    +0.000 C 
ATOM     15  O   UNL     1      59.525  63.095  67.600  0.00  0.00    +0.000 OA
ATOM     16  C   UNL     1      59.853  62.254  66.493  0.00  0.00    +0.000 C 
ATOM     17  O   UNL     1      60.418  61.904  66.004  0.00  0.00    +0.000 OA
ATOM     18  C   UNL     1      59.051  62.112  66.363  0.00  0.00    +0.000 C 
ATOM     19  O   UNL     1      58.814  61.620  65.744  0.00  0.00    +0.000 OA
ATOM     20  O   UNL     1      58.486  62.461  66.852  0.00  0.00    +0.000 OA
ATOM     21  C   UNL     1      62.642  64.996  69.845  0.00  0.00    +0.000 C 
ATOM     22  O   UNL     1      61.840  64.855  69.716  0.00  0.00    +0.000 OA
ATOM     23  C   UNL     1      62.879  65.489  70.464  0.00  0.00    +0.000 C 
ATOM     24  O   UNL     1      62.314  65.838  70.953  0.00  0.00    +0.000 OA
ATOM     25  C   UNL     1      63.681  65.630  70.594  0.00  0.00    +0.000 C 
ATOM     26  O   UNL     1      63.918  66.122  71.213  0.00  0.00    +0.000 OA
ENDROOT
TORSDOF 0
ENDMDL
