MODEL 1
REMARK VINA RESULT:   -14.524      0.000      0.000
REMARK INTER + INTRA:         -14.524
REMARK INTER:                 -14.524
REMARK INTRA:                   0.000
REMARK UNBOUND:                 0.000
ROOT
REMARK  Name = glibenclamide
REMARK                            x       y       z     vdW  Elec       q    Type
REMARK                         _______ _______ _______ _____ _____    ______ ____
ATOM      1  C   UNL     1      59.408  64.365  72.097  0.00  0.00    +0.000 C 
ATOM      2  O   UNL     1      60.121  64.540  71.722  0.00  0.00    +0.000 OA
ATOM      3  C   UNL     1      60.677  65.020  72.097  0.00  0.00    +0.000 A 
ATOM      4  C   UNL     1      61.391  65.195  71.722  0.00  0.00    +0.000 A 
ATOM      5  C   UNL     1      61.947  65.676  72.097  0.00  0.00    +0.000 A 
ATOM      6  C   UNL     1      61.789  65.981  72.847  0.00  0.00    +0.000 A 
ATOM      7 CL   UNL     1      62.346  66.461  73.222  0.00  0.00    +0.000 Cl
ATOM      8  C   UNL     1      61.076  65.806  73.222  0.00  0.00    +0.000 A 
ATOM      9  C   UNL     1      60.520  65.326  72.847  0.00  0.00    +0.000 A 
ATOM     10  C   UNL     1      61.549  64.890  70.972  0.00  0.00    +0.000 C 
ATOM     11  O   UNL     1      62.262  65.065  70.597  0.00  0.00    +0.000 OA
ATOM     12  N   UNL     1      60.992  64.409  70.597  0.00  0.00    +0.000 NA
ATOM     13  C   UNL     1      61.150  64.104  69.847  0.00  0.00    +0.000 C 
ATOM     14  C   UNL     1      60.593  63.623  69.472  0.00  0.00    +0.000 C 
ATOM     15  C   UNL     1      60.751  63.318  68.722  0.00  0.00    +0.000 A 
ATOM     16  C   UNL     1      60.194  62.838  68.347  0.00  0.00    +0.000 A 
ATOM     17  C   UNL     1      60.352  62.532  67.597  0.00  0.00    +0.000 A 
ATOM     18  C   UNL     1      61.066  62.707  67.222  0.00  0.00    +0.000 A 
ATOM     19  C   UNL     1      61.623  63.187  67.596  0.00  0.00    +0.000 A 
ATOM     20  C   UNL     1      61.465  63.493  68.347  0.00  0.00    +0.000 A 
ATOM     21  S   UNL     1      61.224  62.402  66.472  0.00  0.00    +0.000 S 
ATOM     22  O   UNL     1      61.957  62.780  66.472  0.00  0.00    +0.000 OA
ATOM     23  O   UNL     1      60.490  62.023  66.472  0.00  0.00    +0.000 OA
ATOM     24  N   UNL     1      61.381  62.096  65.722  0.00  0.00    +0.000 NA
ATOM     25  C   UNL     1      62.095  62.271  65.347  0.00  0.00    +0.000 C 
ATOM     26  O   UNL     1      62.652  62.752  65.722  0.00  0.00    +0.000 OA
ATOM     27  N   UNL     1      62.253  61.965  64.596  0.00  0.00    +0.000 NA
ATOM     28  C   UNL     1      61.696  61.485  64.222  0.00  0.00    +0.000 C 
ATOM     29  C   UNL     1      60.982  61.310  64.597  0.00  0.00    +0.000 C 
ATOM     30  C   UNL     1      60.427  60.830  64.222  0.00  0.00    +0.000 C 
ATOM     31  C   UNL     1      60.584  60.525  63.472  0.00  0.00    +0.000 C 
ATOM     32  C   UNL     1      61.297  60.699  63.097  0.00  0.00    +0.000 C 
ATOM     33  C   UNL     1      61.854  61.180  63.472  0.00  0.00    +0.000 C 
ENDROOT
TORSDOF 0
ENDMDL
MODEL 2
REMARK VINA RESULT:   -13.906      1.467      2.111
REMARK INTER + INTRA:         -13.906
REMARK INTER:                 -13.906
REMARK INTRA:                   0.000
REMARK UNBOUND:                 0.000
ROOT
REMARK  Name = glibenclamide
REMARK                            x       y       z     vdW  Elec       q    Type
REMARK                         _______ _______ _______ _____ _____    ______ ____
ATOM      1  C   UNL     1      61.686  66.588  72.140  0.00  0.00    +0.000 C 
ATOM      2  O   UNL     1      60.973  66.336  71.811  0.00  0.00    +0.000 OA
ATOM      3  C   UNL     1      60.259  66.550  72.163  0.00  0.00    +0.000 A 
ATOM      4  C   UNL     1      59.545  66.299  71.835  0.00  0.00    +0.000 A 
ATOM      5  C   UNL     1      58.830  66.513  72.187  0.00  0.00    +0.000 A 
ATOM      6  C   UNL     1      58.830  66.978  72.869  0.00  0.00    +0.000 A 
ATOM      7 CL   UNL     1      58.115  67.192  73.221  0.00  0.00    +0.000 Cl
ATOM      8  C   UNL     1      59.544  67.230  73.197  0.00  0.00    +0.000 A 
ATOM      9  C   UNL     1      60.257  67.016  72.845  0.00  0.00    +0.000 A 
ATOM     10  C   UNL     1      59.545  65.834  71.153  0.00  0.00    +0.000 C 
ATOM     11  O   UNL     1      58.831  65.583  70.825  0.00  0.00    +0.000 OA
ATOM     12  N   UNL     1      60.260  65.620  70.801  0.00  0.00    +0.000 NA
ATOM     13  C   UNL     1      60.260  65.155  70.119  0.00  0.00    +0.000 C 
ATOM     14  C   UNL     1      60.975  64.941  69.767  0.00  0.00    +0.000 C 
ATOM     15  C   UNL     1      60.976  64.476  69.085  0.00  0.00    +0.000 A 
ATOM     16  C   UNL     1      61.691  64.262  68.733  0.00  0.00    +0.000 A 
ATOM     17  C   UNL     1      61.691  63.796  68.051  0.00  0.00    +0.000 A 
ATOM     18  C   UNL     1      60.977  63.545  67.723  0.00  0.00    +0.000 A 
ATOM     19  C   UNL     1      60.262  63.759  68.075  0.00  0.00    +0.000 A 
ATOM     20  C   UNL     1      60.262  64.224  68.757  0.00  0.00    +0.000 A 
ATOM     21  S   UNL     1      60.977  63.080  67.042  0.00  0.00    +0.000 S 
ATOM     22  O   UNL     1      60.153  63.059  67.055  0.00  0.00    +0.000 OA
ATOM     23  O   UNL     1      61.802  63.101  67.028  0.00  0.00    +0.000 OA
ATOM     24  N   UNL     1      60.978  62.615  66.360  0.00  0.00    +0.000 NA
ATOM     25  C   UNL     1      60.265  62.364  66.031  0.00  0.00    +0.000 C 
ATOM     26  O   UNL     1      59.549  62.578  66.384  0.00  0.00    +0.000 OA
ATOM     27  N   UNL     1      60.265  61.898  65.349  0.00  0.00    +0.000 NA
ATOM     28  C   UNL     1      60.980  61.684  64.997  0.00  0.00    +0.000 C 
ATOM     29  C   UNL     1      61.694  61.936  65.326  0.00  0.00    +0.000 C 
ATOM     30  C   UNL     1      62.407  61.722  64.974  0.00  0.00    +0.000 C 
ATOM     31  C   UNL     1      62.409  61.256  64.292  0.00  0.00    +0.000 C 
ATOM     32  C   UNL     1      61.695  61.005  63.963  0.00  0.00    +0.000 C 
ATOM     33  C   UNL     1      60.980  61.219  64.316  0.00  0.00    +0.000 C 
ENDROOT
TORSDOF 0
ENDMDL
MODEL 3
REMARK VINA RESULT:   -12.310     14.670     15.912
REMARK INTER + INTRA:         -12.310
REMARK INTER:                 -12.310
REMARK INTRA:                   0.000
REMARK UNBOUND:                 0.000
ROOT
REMARK  Name = glibenclamide
REMARK                            x       y       z     vdW  Elec       q    Type
REMARK                         _______ _______ _______ _____ _____    ______ ____
ATOM      1  C   UNL     1      61.131  60.643  52.393  0.00  0.00    +0.000 C 
ATOM      2  O   UNL     1      61.794  60.918  52.798  0.00  0.00    +0.000 OA
ATOM      3  C   UNL     1      62.400  60.397  52.999  0.00  0.00    +0.000 A 
ATOM      4  C   UNL     1      63.064  60.672  53.405  0.00  0.00    +0.000 A 
ATOM      5  C   UNL     1      63.670  60.150  53.607  0.00  0.00    +0.000 A 
ATOM      6  C   UNL     1      63.612  59.352  53.403  0.00  0.00    +0.000 A 
ATOM      7 CL   UNL     1      64.219  58.830  53.605  0.00  0.00    +0.000 Cl
ATOM      8  C   UNL     1      62.948  59.077  52.998  0.00  0.00    +0.000 A 
ATOM      9  C   UNL     1      62.343  59.599  52.796  0.00  0.00    +0.000 A 
ATOM     10  C   UNL     1      63.122  61.469  53.608  0.00  0.00    +0.000 C 
ATOM     11  O   UNL     1      63.786  61.745  54.013  0.00  0.00    +0.000 OA
ATOM     12  N   UNL     1      62.515  61.992  53.406  0.00  0.00    +0.000 NA
ATOM     13  C   UNL     1      62.574  62.789  53.609  0.00  0.00    +0.000 C 
ATOM     14  C   UNL     1      61.967  63.311  53.407  0.00  0.00    +0.000 C 
ATOM     15  C   UNL     1      62.025  64.108  53.611  0.00  0.00    +0.000 A 
ATOM     16  C   UNL     1      61.419  64.631  53.409  0.00  0.00    +0.000 A 
ATOM     17  C   UNL     1      61.477  65.428  53.612  0.00  0.00    +0.000 A 
ATOM     18  C   UNL     1      62.141  65.704  54.017  0.00  0.00    +0.000 A 
ATOM     19  C   UNL     1      62.747  65.182  54.219  0.00  0.00    +0.000 A 
ATOM     20  C   UNL     1      62.689  64.384  54.016  0.00  0.00    +0.000 A 
ATOM     21  S   UNL     1      62.199  66.501  54.221  0.00  0.00    +0.000 S 
ATOM     22  O   UNL     1      62.932  66.359  54.571  0.00  0.00    +0.000 OA
ATOM     23  O   UNL     1      61.465  66.643  53.870  0.00  0.00    +0.000 OA
ATOM     24  N   UNL     1      62.256  67.299  54.424  0.00  0.00    +0.000 NA
ATOM     25  C   UNL     1      62.920  67.574  54.829  0.00  0.00    +0.000 C 
ATOM     26  O   UNL     1      63.527  67.052  55.031  0.00  0.00    +0.000 OA
ATOM     27  N   UNL     1      62.978  68.372  55.032  0.00  0.00    +0.000 NA
ATOM     28  C   UNL     1      62.372  68.894  54.830  0.00  0.00    +0.000 C 
ATOM     29  C   UNL     1      61.708  68.618  54.425  0.00  0.00    +0.000 C 
ATOM     30  C   UNL     1      61.102  69.140  54.223  0.00  0.00    +0.000 C 
ATOM     31  C   UNL     1      61.159  69.938  54.426  0.00  0.00    +0.000 C 
ATOM     32  C   UNL     1      61.823  70.213  54.832  0.00  0.00    +0.000 C 
ATOM     33  C   UNL     1      62.430  69.691  55.034  0.00  0.00    +0.000 C 
ENDROOT
TORSDOF 0
ENDMDL
MODEL 4
REMARK VINA RESULT:   -12.111     14.216     15.022
REMARK INTER + INTRA:         -12.111
REMARK INTER:                 -12.111
REMARK INTRA:                   0.000
REMARK UNBOUND:                 0.000
ROOT
REMARK  Name = glibenclamide
REMARK                            x       y       z     vdW  Elec       q    Type
REMARK                         _______ _______ _______ _____ _____    ______ ____
ATOM      1  C   UNL     1      60.878  67.950  52.960  0.00  0.00    +0.000 C 
ATOM      2  O   UNL     1      61.353  67.626  53.551  0.00  0.00    +0.000 OA
ATOM      3  C   UNL     1      61.610  68.096  54.178  0.00  0.00    +0.000 A 
ATOM      4  C   UNL     1      62.084  67.771  54.770  0.00  0.00    +0.000 A 
ATOM      5  C   UNL     1      62.342  68.242  55.397  0.00  0.00    +0.000 A 
ATOM      6  C   UNL     1      62.124  69.037  55.432  0.00  0.00    +0.000 A 
ATOM      7 CL   UNL     1      62.382  69.508  56.059  0.00  0.00    +0.000 Cl
ATOM      8  C   UNL     1      61.650  69.362  54.840  0.00  0.00    +0.000 A 
ATOM      9  C   UNL     1      61.393  68.891  54.213  0.00  0.00    +0.000 A 
ATOM     10  C   UNL     1      62.301  66.977  54.735  0.00  0.00    +0.000 C 
ATOM     11  O   UNL     1      62.776  66.652  55.327  0.00  0.00    +0.000 OA
ATOM     12  N   UNL     1      62.044  66.506  54.107  0.00  0.00    +0.000 NA
ATOM     13  C   UNL     1      62.261  65.711  54.073  0.00  0.00    +0.000 C 
ATOM     14  C   UNL     1      62.004  65.240  53.445  0.00  0.00    +0.000 C 
ATOM     15  C   UNL     1      62.221  64.445  53.411  0.00  0.00    +0.000 A 
ATOM     16  C   UNL     1      61.964  63.974  52.783  0.00  0.00    +0.000 A 
ATOM     17  C   UNL     1      62.181  63.179  52.749  0.00  0.00    +0.000 A 
ATOM     18  C   UNL     1      62.656  62.855  53.340  0.00  0.00    +0.000 A 
ATOM     19  C   UNL     1      62.913  63.325  53.968  0.00  0.00    +0.000 A 
ATOM     20  C   UNL     1      62.696  64.121  54.003  0.00  0.00    +0.000 A 
ATOM     21  S   UNL     1      62.873  62.060  53.306  0.00  0.00    +0.000 S 
ATOM     22  O   UNL     1      63.295  62.144  54.009  0.00  0.00    +0.000 OA
ATOM     23  O   UNL     1      62.450  61.975  52.602  0.00  0.00    +0.000 OA
ATOM     24  N   UNL     1      63.090  61.264  53.270  0.00  0.00    +0.000 NA
ATOM     25  C   UNL     1      63.564  60.940  53.862  0.00  0.00    +0.000 C 
ATOM     26  O   UNL     1      63.822  61.411  54.489  0.00  0.00    +0.000 OA
ATOM     27  N   UNL     1      63.782  60.144  53.827  0.00  0.00    +0.000 NA
ATOM     28  C   UNL     1      63.524  59.674  53.200  0.00  0.00    +0.000 C 
ATOM     29  C   UNL     1      63.050  59.999  52.608  0.00  0.00    +0.000 C 
ATOM     30  C   UNL     1      62.793  59.528  51.982  0.00  0.00    +0.000 C 
ATOM     31  C   UNL     1      63.010  58.733  51.946  0.00  0.00    +0.000 C 
ATOM     32  C   UNL     1      63.484  58.408  52.538  0.00  0.00    +0.000 C 
ATOM     33  C   UNL     1      63.742  58.879  53.165  0.00  0.00    +0.000 C 
ENDROOT
TORSDOF 0
ENDMDL
MODEL 5
REMARK VINA RESULT:   -11.845     14.707     15.247
REMARK INTER + INTRA:         -11.845
REMARK INTER:                 -11.845
REMARK INTRA:                   0.000
REMARK UNBOUND:                 0.000
ROOT
REMARK  Name = glibenclamide
REMARK                            x       y       z     vdW  Elec       q    Type
REMARK                         _______ _______ _______ _____ _____    ______ ____
ATOM      1  C   UNL     1      63.902  67.585  54.980  0.00  0.00    +0.000 C 
ATOM      2  O   UNL     1      63.188  67.343  54.644  0.00  0.00    +0.000 OA
ATOM      3  C   UNL     1      62.585  67.892  54.519  0.00  0.00    +0.000 A 
ATOM      4  C   UNL     1      61.871  67.651  54.183  0.00  0.00    +0.000 A 
ATOM      5  C   UNL     1      61.267  68.200  54.058  0.00  0.00    +0.000 A 
ATOM      6  C   UNL     1      61.379  68.990  54.268  0.00  0.00    +0.000 A 
ATOM      7 CL   UNL     1      60.775  69.539  54.143  0.00  0.00    +0.000 Cl
ATOM      8  C   UNL     1      62.093  69.231  54.604  0.00  0.00    +0.000 A 
ATOM      9  C   UNL     1      62.695  68.682  54.729  0.00  0.00    +0.000 A 
ATOM     10  C   UNL     1      61.760  66.861  53.972  0.00  0.00    +0.000 C 
ATOM     11  O   UNL     1      61.046  66.620  53.636  0.00  0.00    +0.000 OA
ATOM     12  N   UNL     1      62.364  66.312  54.098  0.00  0.00    +0.000 NA
ATOM     13  C   UNL     1      62.252  65.522  53.887  0.00  0.00    +0.000 C 
ATOM     14  C   UNL     1      62.856  64.973  54.012  0.00  0.00    +0.000 C 
ATOM     15  C   UNL     1      62.744  64.184  53.801  0.00  0.00    +0.000 A 
ATOM     16  C   UNL     1      63.348  63.634  53.927  0.00  0.00    +0.000 A 
ATOM     17  C   UNL     1      63.237  62.845  53.716  0.00  0.00    +0.000 A 
ATOM     18  C   UNL     1      62.523  62.604  53.380  0.00  0.00    +0.000 A 
ATOM     19  C   UNL     1      61.919  63.152  53.255  0.00  0.00    +0.000 A 
ATOM     20  C   UNL     1      62.030  63.942  53.466  0.00  0.00    +0.000 A 
ATOM     21  S   UNL     1      62.411  61.814  53.169  0.00  0.00    +0.000 S 
ATOM     22  O   UNL     1      61.652  61.991  52.903  0.00  0.00    +0.000 OA
ATOM     23  O   UNL     1      63.172  61.636  53.436  0.00  0.00    +0.000 OA
ATOM     24  N   UNL     1      62.301  61.024  52.959  0.00  0.00    +0.000 NA
ATOM     25  C   UNL     1      61.587  60.783  52.623  0.00  0.00    +0.000 C 
ATOM     26  O   UNL     1      60.983  61.332  52.498  0.00  0.00    +0.000 OA
ATOM     27  N   UNL     1      61.476  59.992  52.412  0.00  0.00    +0.000 NA
ATOM     28  C   UNL     1      62.079  59.444  52.538  0.00  0.00    +0.000 C 
ATOM     29  C   UNL     1      62.793  59.685  52.874  0.00  0.00    +0.000 C 
ATOM     30  C   UNL     1      63.396  59.136  52.999  0.00  0.00    +0.000 C 
ATOM     31  C   UNL     1      63.286  58.346  52.788  0.00  0.00    +0.000 C 
ATOM     32  C   UNL     1      62.572  58.105  52.452  0.00  0.00    +0.000 C 
ATOM     33  C   UNL     1      61.968  58.654  52.327  0.00  0.00    +0.000 C 
ENDROOT
TORSDOF 0
ENDMDL
