MODEL 1
REMARK VINA RESULT:   -15.912      0.000      0.000
REMARK INTER + INTRA:         -15.912
REMARK INTER:                 -15.912
REMARK INTRA:                   0.000
REMARK UNBOUND:                 0.000
ROOT
REMARK  Name = glucametacin
REMARK                            x       y       z     vdW  Elec       q    Type
REMARK                         _______ _______ _______ _____ _____    ______ ____
ATOM      1  C   UNL     1      59.023  65.363  72.076  0.00  0.00    +0.000 C 
ATOM      2  O   UNL     1      59.071  64.952  71.362  0.00  0.00    +0.000 OA
ATOM      3  C   UNL     1      59.798  64.866  70.984  0.00  0.00    +0.000 A 
ATOM      4  C   UNL     1      59.846  64.456  70.270  0.00  0.00    +0.000 A 
ATOM      5  C   UNL     1      60.574  64.370  69.891  0.00  0.00    +0.000 A 
ATOM      6  C   UNL     1      61.254  64.695  70.226  0.00  0.00    +0.000 A 
ATOM      7  C   UNL     1      61.206  65.106  70.940  0.00  0.00    +0.000 A 
ATOM      8  C   UNL     1      60.478  65.192  71.318  0.00  0.00    +0.000 A 
ATOM      9  N   UNL     1      61.889  64.523  69.729  0.00  0.00    +0.000 N 
ATOM     10  C   UNL     1      62.675  64.744  69.853  0.00  0.00    +0.000 C 
ATOM     11  O   UNL     1      63.255  64.531  69.306  0.00  0.00    +0.000 OA
ATOM     12  C   UNL     1      62.881  65.178  70.524  0.00  0.00    +0.000 A 
ATOM     13  C   UNL     1      63.667  65.399  70.647  0.00  0.00    +0.000 A 
ATOM     14  C   UNL     1      63.872  65.833  71.318  0.00  0.00    +0.000 A 
ATOM     15  C   UNL     1      63.293  66.045  71.865  0.00  0.00    +0.000 A 
ATOM     16 CL   UNL     1      63.499  66.479  72.536  0.00  0.00    +0.000 Cl
ATOM     17  C   UNL     1      62.508  65.825  71.742  0.00  0.00    +0.000 A 
ATOM     18  C   UNL     1      62.302  65.391  71.071  0.00  0.00    +0.000 A 
ATOM     19  C   UNL     1      61.603  64.091  69.088  0.00  0.00    +0.000 A 
ATOM     20  C   UNL     1      62.050  63.805  68.457  0.00  0.00    +0.000 C 
ATOM     21  C   UNL     1      60.790  63.997  69.188  0.00  0.00    +0.000 A 
ATOM     22  C   UNL     1      60.281  63.598  68.675  0.00  0.00    +0.000 C 
ATOM     23  C   UNL     1      60.577  63.250  67.988  0.00  0.00    +0.000 C 
ATOM     24  O   UNL     1      61.382  63.300  67.814  0.00  0.00    +0.000 OA
ATOM     25  N   UNL     1      60.069  62.852  67.475  0.00  0.00    +0.000 NA
ATOM     26  C   UNL     1      60.365  62.504  66.788  0.00  0.00    +0.000 C 
ATOM     27  C   UNL     1      59.857  62.106  66.275  0.00  0.00    +0.000 C 
ATOM     28  O   UNL     1      59.052  62.056  66.448  0.00  0.00    +0.000 OA
ATOM     29  O   UNL     1      60.153  61.757  65.588  0.00  0.00    +0.000 OA
ATOM     30  C   UNL     1      60.958  61.807  65.415  0.00  0.00    +0.000 C 
ATOM     31  C   UNL     1      61.255  61.459  64.728  0.00  0.00    +0.000 C 
ATOM     32  O   UNL     1      60.746  61.061  64.215  0.00  0.00    +0.000 OA
ATOM     33  C   UNL     1      61.467  62.206  65.928  0.00  0.00    +0.000 C 
ATOM     34  O   UNL     1      62.272  62.256  65.755  0.00  0.00    +0.000 OA
ATOM     35  C   UNL     1      61.170  62.554  66.615  0.00  0.00    +0.000 C 
ATOM     36  O   UNL     1      61.679  62.952  67.128  0.00  0.00    +0.000 OA
ENDROOT
TORSDOF 0
ENDMDL
MODEL 2
REMARK VINA RESULT:   -14.647      1.064      2.562
REMARK INTER + INTRA:         -14.647
REMARK INTER:                 -14.647
REMARK INTRA:                   0.000
REMARK UNBOUND:                 0.000
ROOT
REMARK  Name = glucametacin
REMARK                            x       y       z     vdW  Elec       q    Type
REMARK                         _______ _______ _______ _____ _____    ______ ____
ATOM      1  C   UNL     1      64.173  65.514  70.935  0.00  0.00    +0.000 C 
ATOM      2  O   UNL     1      63.941  65.111  70.253  0.00  0.00    +0.000 OA
ATOM      3  C   UNL     1      63.168  64.836  70.179  0.00  0.00    +0.000 A 
ATOM      4  C   UNL     1      62.937  64.433  69.498  0.00  0.00    +0.000 A 
ATOM      5  C   UNL     1      62.163  64.157  69.423  0.00  0.00    +0.000 A 
ATOM      6  C   UNL     1      61.620  64.285  70.031  0.00  0.00    +0.000 A 
ATOM      7  C   UNL     1      61.851  64.688  70.714  0.00  0.00    +0.000 A 
ATOM      8  C   UNL     1      62.625  64.963  70.787  0.00  0.00    +0.000 A 
ATOM      9  N   UNL     1      60.900  63.952  69.804  0.00  0.00    +0.000 N 
ATOM     10  C   UNL     1      60.204  63.952  70.248  0.00  0.00    +0.000 C 
ATOM     11  O   UNL     1      59.523  63.596  69.948  0.00  0.00    +0.000 OA
ATOM     12  C   UNL     1      60.189  64.309  70.991  0.00  0.00    +0.000 A 
ATOM     13  C   UNL     1      59.493  64.309  71.435  0.00  0.00    +0.000 A 
ATOM     14  C   UNL     1      59.478  64.666  72.179  0.00  0.00    +0.000 A 
ATOM     15  C   UNL     1      60.159  65.022  72.479  0.00  0.00    +0.000 A 
ATOM     16 CL   UNL     1      60.143  65.379  73.222  0.00  0.00    +0.000 Cl
ATOM     17  C   UNL     1      60.854  65.022  72.036  0.00  0.00    +0.000 A 
ATOM     18  C   UNL     1      60.869  64.666  71.292  0.00  0.00    +0.000 A 
ATOM     19  C   UNL     1      60.998  63.619  69.056  0.00  0.00    +0.000 A 
ATOM     20  C   UNL     1      60.418  63.227  68.620  0.00  0.00    +0.000 C 
ATOM     21  C   UNL     1      61.778  63.746  68.821  0.00  0.00    +0.000 A 
ATOM     22  C   UNL     1      62.116  63.504  68.108  0.00  0.00    +0.000 C 
ATOM     23  C   UNL     1      61.661  63.094  67.555  0.00  0.00    +0.000 C 
ATOM     24  O   UNL     1      60.869  62.926  67.714  0.00  0.00    +0.000 OA
ATOM     25  N   UNL     1      61.998  62.852  66.842  0.00  0.00    +0.000 NA
ATOM     26  C   UNL     1      61.544  62.442  66.289  0.00  0.00    +0.000 C 
ATOM     27  C   UNL     1      61.880  62.200  65.576  0.00  0.00    +0.000 C 
ATOM     28  O   UNL     1      62.672  62.367  65.416  0.00  0.00    +0.000 OA
ATOM     29  O   UNL     1      61.426  61.790  65.022  0.00  0.00    +0.000 OA
ATOM     30  C   UNL     1      60.634  61.623  65.182  0.00  0.00    +0.000 C 
ATOM     31  C   UNL     1      60.179  61.214  64.629  0.00  0.00    +0.000 C 
ATOM     32  O   UNL     1      60.516  60.971  63.916  0.00  0.00    +0.000 OA
ATOM     33  C   UNL     1      60.297  61.865  65.895  0.00  0.00    +0.000 C 
ATOM     34  O   UNL     1      59.505  61.698  66.055  0.00  0.00    +0.000 OA
ATOM     35  C   UNL     1      60.752  62.275  66.448  0.00  0.00    +0.000 C 
ATOM     36  O   UNL     1      60.414  62.517  67.161  0.00  0.00    +0.000 OA
ENDROOT
TORSDOF 0
ENDMDL
MODEL 3
REMARK VINA RESULT:   -13.975      2.030      2.393
REMARK INTER + INTRA:         -13.975
REMARK INTER:                 -13.975
REMARK INTRA:                   0.000
REMARK UNBOUND:                 0.000
ROOT
REMARK  Name = glucametacin
REMARK                            x       y       z     vdW  Elec       q    Type
REMARK                         _______ _______ _______ _____ _____    ______ ____
ATOM      1  C   UNL     1      60.719  62.381  72.462  0.00  0.00    +0.000 C 
ATOM      2  O   UNL     1      60.894  62.189  71.679  0.00  0.00    +0.000 OA
ATOM      3  C   UNL     1      60.767  62.742  71.080  0.00  0.00    +0.000 A 
ATOM      4  C   UNL     1      60.942  62.549  70.298  0.00  0.00    +0.000 A 
ATOM      5  C   UNL     1      60.814  63.102  69.698  0.00  0.00    +0.000 A 
ATOM      6  C   UNL     1      60.512  63.847  69.881  0.00  0.00    +0.000 A 
ATOM      7  C   UNL     1      60.336  64.040  70.665  0.00  0.00    +0.000 A 
ATOM      8  C   UNL     1      60.464  63.487  71.264  0.00  0.00    +0.000 A 
ATOM      9  N   UNL     1      60.444  64.275  69.180  0.00  0.00    +0.000 N 
ATOM     10  C   UNL     1      60.165  65.048  69.108  0.00  0.00    +0.000 C 
ATOM     11  O   UNL     1      60.129  65.407  68.366  0.00  0.00    +0.000 OA
ATOM     12  C   UNL     1      59.922  65.462  69.779  0.00  0.00    +0.000 A 
ATOM     13  C   UNL     1      59.642  66.236  69.707  0.00  0.00    +0.000 A 
ATOM     14  C   UNL     1      59.399  66.650  70.377  0.00  0.00    +0.000 A 
ATOM     15  C   UNL     1      59.435  66.292  71.119  0.00  0.00    +0.000 A 
ATOM     16 CL   UNL     1      59.192  66.706  71.790  0.00  0.00    +0.000 Cl
ATOM     17  C   UNL     1      59.714  65.519  71.191  0.00  0.00    +0.000 A 
ATOM     18  C   UNL     1      59.957  65.105  70.521  0.00  0.00    +0.000 A 
ATOM     19  C   UNL     1      60.705  63.794  68.562  0.00  0.00    +0.000 A 
ATOM     20  C   UNL     1      60.733  64.002  67.764  0.00  0.00    +0.000 C 
ATOM     21  C   UNL     1      60.934  63.070  68.883  0.00  0.00    +0.000 A 
ATOM     22  C   UNL     1      61.230  62.425  68.462  0.00  0.00    +0.000 C 
ATOM     23  C   UNL     1      61.320  62.473  67.643  0.00  0.00    +0.000 C 
ATOM     24  O   UNL     1      61.114  63.166  67.244  0.00  0.00    +0.000 OA
ATOM     25  N   UNL     1      61.616  61.829  67.222  0.00  0.00    +0.000 NA
ATOM     26  C   UNL     1      61.706  61.877  66.403  0.00  0.00    +0.000 C 
ATOM     27  C   UNL     1      62.002  61.233  65.982  0.00  0.00    +0.000 C 
ATOM     28  O   UNL     1      62.209  60.540  66.379  0.00  0.00    +0.000 OA
ATOM     29  O   UNL     1      62.092  61.281  65.163  0.00  0.00    +0.000 OA
ATOM     30  C   UNL     1      61.886  61.974  64.765  0.00  0.00    +0.000 C 
ATOM     31  C   UNL     1      61.975  62.023  63.947  0.00  0.00    +0.000 C 
ATOM     32  O   UNL     1      62.272  61.378  63.525  0.00  0.00    +0.000 OA
ATOM     33  C   UNL     1      61.589  62.619  65.187  0.00  0.00    +0.000 C 
ATOM     34  O   UNL     1      61.383  63.311  64.789  0.00  0.00    +0.000 OA
ATOM     35  C   UNL     1      61.500  62.570  66.005  0.00  0.00    +0.000 C 
ATOM     36  O   UNL     1      61.203  63.214  66.427  0.00  0.00    +0.000 OA
ENDROOT
TORSDOF 0
ENDMDL
MODEL 4
REMARK VINA RESULT:   -13.743      2.454      5.541
REMARK INTER + INTRA:         -13.743
REMARK INTER:                 -13.743
REMARK INTRA:                   0.000
REMARK UNBOUND:                 0.000
ROOT
REMARK  Name = glucametacin
REMARK                            x       y       z     vdW  Elec       q    Type
REMARK                         _______ _______ _______ _____ _____    ______ ____
ATOM      1  C   UNL     1      59.964  61.347  71.326  0.00  0.00    +0.000 C 
ATOM      2  O   UNL     1      60.568  61.905  71.390  0.00  0.00    +0.000 OA
ATOM      3  C   UNL     1      60.837  62.302  70.719  0.00  0.00    +0.000 A 
ATOM      4  C   UNL     1      61.440  62.860  70.783  0.00  0.00    +0.000 A 
ATOM      5  C   UNL     1      61.710  63.257  70.112  0.00  0.00    +0.000 A 
ATOM      6  C   UNL     1      61.374  63.096  69.376  0.00  0.00    +0.000 A 
ATOM      7  C   UNL     1      60.769  62.537  69.311  0.00  0.00    +0.000 A 
ATOM      8  C   UNL     1      60.501  62.141  69.983  0.00  0.00    +0.000 A 
ATOM      9  N   UNL     1      61.749  63.570  68.815  0.00  0.00    +0.000 N 
ATOM     10  C   UNL     1      61.586  63.587  68.006  0.00  0.00    +0.000 C 
ATOM     11  O   UNL     1      62.008  64.093  67.510  0.00  0.00    +0.000 OA
ATOM     12  C   UNL     1      60.999  63.098  67.694  0.00  0.00    +0.000 A 
ATOM     13  C   UNL     1      60.836  63.115  66.885  0.00  0.00    +0.000 A 
ATOM     14  C   UNL     1      60.249  62.626  66.572  0.00  0.00    +0.000 A 
ATOM     15  C   UNL     1      59.826  62.121  67.069  0.00  0.00    +0.000 A 
ATOM     16 CL   UNL     1      59.240  61.632  66.756  0.00  0.00    +0.000 Cl
ATOM     17  C   UNL     1      59.989  62.103  67.877  0.00  0.00    +0.000 A 
ATOM     18  C   UNL     1      60.576  62.592  68.189  0.00  0.00    +0.000 A 
ATOM     19  C   UNL     1      62.317  64.025  69.204  0.00  0.00    +0.000 A 
ATOM     20  C   UNL     1      62.820  64.576  68.854  0.00  0.00    +0.000 C 
ATOM     21  C   UNL     1      62.292  63.831  70.006  0.00  0.00    +0.000 A 
ATOM     22  C   UNL     1      62.767  64.155  70.598  0.00  0.00    +0.000 C 
ATOM     23  C   UNL     1      63.329  64.728  70.409  0.00  0.00    +0.000 C 
ATOM     24  O   UNL     1      63.418  64.977  69.627  0.00  0.00    +0.000 OA
ATOM     25  N   UNL     1      63.804  65.051  71.000  0.00  0.00    +0.000 NA
ATOM     26  C   UNL     1      64.367  65.624  70.811  0.00  0.00    +0.000 C 
ATOM     27  C   UNL     1      64.841  65.948  71.402  0.00  0.00    +0.000 C 
ATOM     28  O   UNL     1      64.754  65.699  72.183  0.00  0.00    +0.000 OA
ATOM     29  O   UNL     1      65.404  66.521  71.213  0.00  0.00    +0.000 OA
ATOM     30  C   UNL     1      65.492  66.770  70.431  0.00  0.00    +0.000 C 
ATOM     31  C   UNL     1      66.054  67.343  70.241  0.00  0.00    +0.000 C 
ATOM     32  O   UNL     1      66.529  67.667  70.833  0.00  0.00    +0.000 OA
ATOM     33  C   UNL     1      65.017  66.446  69.839  0.00  0.00    +0.000 C 
ATOM     34  O   UNL     1      65.105  66.695  69.057  0.00  0.00    +0.000 OA
ATOM     35  C   UNL     1      64.455  65.873  70.029  0.00  0.00    +0.000 C 
ATOM     36  O   UNL     1      63.980  65.549  69.437  0.00  0.00    +0.000 OA
ENDROOT
TORSDOF 0
ENDMDL
MODEL 5
REMARK VINA RESULT:   -13.204      3.977      6.043
REMARK INTER + INTRA:         -13.204
REMARK INTER:                 -13.204
REMARK INTRA:                   0.000
REMARK UNBOUND:                 0.000
ROOT
REMARK  Name = glucametacin
REMARK                            x       y       z     vdW  Elec       q    Type
REMARK                         _______ _______ _______ _____ _____    ______ ____
ATOM      1  C   UNL     1      59.382  66.945  68.696  0.00  0.00    +0.000 C 
ATOM      2  O   UNL     1      60.189  67.007  68.858  0.00  0.00    +0.000 OA
ATOM      3  C   UNL     1      60.486  66.745  69.580  0.00  0.00    +0.000 A 
ATOM      4  C   UNL     1      61.293  66.807  69.741  0.00  0.00    +0.000 A 
ATOM      5  C   UNL     1      61.591  66.544  70.464  0.00  0.00    +0.000 A 
ATOM      6  C   UNL     1      61.082  66.219  71.026  0.00  0.00    +0.000 A 
ATOM      7  C   UNL     1      60.275  66.156  70.865  0.00  0.00    +0.000 A 
ATOM      8  C   UNL     1      59.978  66.419  70.142  0.00  0.00    +0.000 A 
ATOM      9  N   UNL     1      61.531  66.009  71.685  0.00  0.00    +0.000 N 
ATOM     10  C   UNL     1      61.244  65.663  72.378  0.00  0.00    +0.000 C 
ATOM     11  O   UNL     1      61.762  65.482  72.994  0.00  0.00    +0.000 OA
ATOM     12  C   UNL     1      60.439  65.499  72.454  0.00  0.00    +0.000 A 
ATOM     13  C   UNL     1      60.152  65.154  73.146  0.00  0.00    +0.000 A 
ATOM     14  C   UNL     1      59.348  64.990  73.222  0.00  0.00    +0.000 A 
ATOM     15  C   UNL     1      58.830  65.170  72.606  0.00  0.00    +0.000 A 
ATOM     16 CL   UNL     1      58.025  65.006  72.682  0.00  0.00    +0.000 Cl
ATOM     17  C   UNL     1      59.116  65.515  71.914  0.00  0.00    +0.000 A 
ATOM     18  C   UNL     1      59.921  65.680  71.838  0.00  0.00    +0.000 A 
ATOM     19  C   UNL     1      62.317  66.204  71.531  0.00  0.00    +0.000 A 
ATOM     20  C   UNL     1      62.955  66.088  72.041  0.00  0.00    +0.000 C 
ATOM     21  C   UNL     1      62.354  66.535  70.776  0.00  0.00    +0.000 A 
ATOM     22  C   UNL     1      63.035  66.808  70.399  0.00  0.00    +0.000 C 
ATOM     23  C   UNL     1      63.765  66.763  70.781  0.00  0.00    +0.000 C 
ATOM     24  O   UNL     1      63.814  66.444  71.541  0.00  0.00    +0.000 OA
ATOM     25  N   UNL     1      64.446  67.036  70.405  0.00  0.00    +0.000 NA
ATOM     26  C   UNL     1      65.176  66.991  70.787  0.00  0.00    +0.000 C 
ATOM     27  C   UNL     1      65.856  67.264  70.410  0.00  0.00    +0.000 C 
ATOM     28  O   UNL     1      65.808  67.583  69.651  0.00  0.00    +0.000 OA
ATOM     29  O   UNL     1      66.586  67.219  70.792  0.00  0.00    +0.000 OA
ATOM     30  C   UNL     1      66.635  66.900  71.552  0.00  0.00    +0.000 C 
ATOM     31  C   UNL     1      67.364  66.854  71.934  0.00  0.00    +0.000 C 
ATOM     32  O   UNL     1      68.045  67.128  71.557  0.00  0.00    +0.000 OA
ATOM     33  C   UNL     1      65.954  66.626  71.929  0.00  0.00    +0.000 C 
ATOM     34  O   UNL     1      66.002  66.307  72.688  0.00  0.00    +0.000 OA
ATOM     35  C   UNL     1      65.224  66.672  71.546  0.00  0.00    +0.000 C 
ATOM     36  O   UNL     1      64.543  66.398  71.923  0.00  0.00    +0.000 OA
ENDROOT
TORSDOF 0
ENDMDL
