MODEL 1
REMARK VINA RESULT:    -5.538      0.000      0.000
REMARK INTER + INTRA:          -5.538
REMARK INTER:                  -5.538
REMARK INTRA:                   0.000
REMARK UNBOUND:                 0.000
ROOT
REMARK  Name = glutamic acid
REMARK                            x       y       z     vdW  Elec       q    Type
REMARK                         _______ _______ _______ _____ _____    ______ ____
ATOM      1  N   GLU A   1      62.670  62.394  64.879  0.00  0.00    +0.000 NA
ATOM      2  CA  GLU A   1      61.941  62.008  64.895  0.00  0.00    +0.000 C 
ATOM      3  CB  GLU A   1      61.468  62.048  65.569  0.00  0.00    +0.000 C 
ATOM      4  CG  GLU A   1      61.724  62.475  66.228  0.00  0.00    +0.000 C 
ATOM      5  CD  GLU A   1      61.251  62.516  66.902  0.00  0.00    +0.000 C 
ATOM      6  OE1 GLU A   1      61.507  62.942  67.561  0.00  0.00    +0.000 OA
ATOM      7  OE2 GLU A   1      60.522  62.130  66.919  0.00  0.00    +0.000 OA
ATOM      8  C   GLU A   1      61.685  61.581  64.237  0.00  0.00    +0.000 C 
ATOM      9  O   GLU A   1      62.158  61.540  63.562  0.00  0.00    +0.000 OA
ATOM     10  OXT GLU A   1      60.957  61.195  64.253  0.00  0.00    +0.000 OA
ENDROOT
TORSDOF 0
ENDMDL
MODEL 2
REMARK VINA RESULT:    -5.494      0.906      2.756
REMARK INTER + INTRA:          -5.494
REMARK INTER:                  -5.494
REMARK INTRA:                   0.000
REMARK UNBOUND:                 0.000
ROOT
REMARK  Name = glutamic acid
REMARK                            x       y       z     vdW  Elec       q    Type
REMARK                         _______ _______ _______ _____ _____    ______ ____
ATOM      1  N   GLU A   1      61.625  62.732  66.385  0.00  0.00    +0.000 NA
ATOM      2  CA  GLU A   1      60.981  62.347  66.041  0.00  0.00    +0.000 C 
ATOM      3  CB  GLU A   1      61.062  61.988  65.303  0.00  0.00    +0.000 C 
ATOM      4  CG  GLU A   1      61.786  62.014  64.908  0.00  0.00    +0.000 C 
ATOM      5  CD  GLU A   1      61.866  61.656  64.170  0.00  0.00    +0.000 C 
ATOM      6  OE1 GLU A   1      62.590  61.682  63.775  0.00  0.00    +0.000 OA
ATOM      7  OE2 GLU A   1      61.223  61.271  63.826  0.00  0.00    +0.000 OA
ATOM      8  C   GLU A   1      60.257  62.321  66.437  0.00  0.00    +0.000 C 
ATOM      9  O   GLU A   1      60.177  62.679  67.175  0.00  0.00    +0.000 OA
ATOM     10  OXT GLU A   1      59.614  61.936  66.093  0.00  0.00    +0.000 OA
ENDROOT
TORSDOF 0
ENDMDL
MODEL 3
REMARK VINA RESULT:    -4.914      2.096      3.377
REMARK INTER + INTRA:          -4.914
REMARK INTER:                  -4.914
REMARK INTRA:                   0.000
REMARK UNBOUND:                 0.000
ROOT
REMARK  Name = glutamic acid
REMARK                            x       y       z     vdW  Elec       q    Type
REMARK                         _______ _______ _______ _____ _____    ______ ____
ATOM      1  N   GLU A   1      61.722  62.905  67.172  0.00  0.00    +0.000 NA
ATOM      2  CA  GLU A   1      61.006  63.114  67.525  0.00  0.00    +0.000 C 
ATOM      3  CB  GLU A   1      60.295  62.844  67.205  0.00  0.00    +0.000 C 
ATOM      4  CG  GLU A   1      60.300  62.366  66.533  0.00  0.00    +0.000 C 
ATOM      5  CD  GLU A   1      59.589  62.097  66.213  0.00  0.00    +0.000 C 
ATOM      6  OE1 GLU A   1      59.594  61.618  65.540  0.00  0.00    +0.000 OA
ATOM      7  OE2 GLU A   1      58.873  62.305  66.566  0.00  0.00    +0.000 OA
ATOM      8  C   GLU A   1      61.001  63.592  68.197  0.00  0.00    +0.000 C 
ATOM      9  O   GLU A   1      61.712  63.861  68.517  0.00  0.00    +0.000 OA
ATOM     10  OXT GLU A   1      60.285  63.800  68.550  0.00  0.00    +0.000 OA
ENDROOT
TORSDOF 0
ENDMDL
MODEL 4
REMARK VINA RESULT:    -4.788     17.844     18.144
REMARK INTER + INTRA:          -4.788
REMARK INTER:                  -4.788
REMARK INTRA:                   0.000
REMARK UNBOUND:                 0.000
ROOT
REMARK  Name = glutamic acid
REMARK                            x       y       z     vdW  Elec       q    Type
REMARK                         _______ _______ _______ _____ _____    ______ ____
ATOM      1  N   GLU A   1      66.814  78.502  59.222  0.00  0.00    +0.000 NA
ATOM      2  CA  GLU A   1      66.096  78.163  59.445  0.00  0.00    +0.000 C 
ATOM      3  CB  GLU A   1      65.386  78.526  59.236  0.00  0.00    +0.000 C 
ATOM      4  CG  GLU A   1      65.393  79.229  58.805  0.00  0.00    +0.000 C 
ATOM      5  CD  GLU A   1      64.683  79.592  58.596  0.00  0.00    +0.000 C 
ATOM      6  OE1 GLU A   1      64.690  80.296  58.164  0.00  0.00    +0.000 OA
ATOM      7  OE2 GLU A   1      63.965  79.253  58.818  0.00  0.00    +0.000 OA
ATOM      8  C   GLU A   1      66.090  77.459  59.876  0.00  0.00    +0.000 C 
ATOM      9  O   GLU A   1      66.800  77.096  60.085  0.00  0.00    +0.000 OA
ATOM     10  OXT GLU A   1      65.372  77.120  60.099  0.00  0.00    +0.000 OA
ENDROOT
TORSDOF 0
ENDMDL
MODEL 5
REMARK VINA RESULT:    -4.721      4.772      5.842
REMARK INTER + INTRA:          -4.721
REMARK INTER:                  -4.721
REMARK INTRA:                   0.000
REMARK UNBOUND:                 0.000
ROOT
REMARK  Name = glutamic acid
REMARK                            x       y       z     vdW  Elec       q    Type
REMARK                         _______ _______ _______ _____ _____    ______ ____
ATOM      1  N   GLU A   1      61.100  63.255  69.982  0.00  0.00    +0.000 NA
ATOM      2  CA  GLU A   1      60.834  62.678  70.508  0.00  0.00    +0.000 C 
ATOM      3  CB  GLU A   1      60.966  62.766  71.317  0.00  0.00    +0.000 C 
ATOM      4  CG  GLU A   1      61.363  63.431  71.601  0.00  0.00    +0.000 C 
ATOM      5  CD  GLU A   1      61.495  63.520  72.410  0.00  0.00    +0.000 C 
ATOM      6  OE1 GLU A   1      61.892  64.185  72.694  0.00  0.00    +0.000 OA
ATOM      7  OE2 GLU A   1      61.230  62.942  72.937  0.00  0.00    +0.000 OA
ATOM      8  C   GLU A   1      60.437  62.013  70.224  0.00  0.00    +0.000 C 
ATOM      9  O   GLU A   1      60.305  61.924  69.415  0.00  0.00    +0.000 OA
ATOM     10  OXT GLU A   1      60.172  61.435  70.751  0.00  0.00    +0.000 OA
ENDROOT
TORSDOF 0
ENDMDL
MODEL 6
REMARK VINA RESULT:    -4.685      6.235      7.551
REMARK INTER + INTRA:          -4.685
REMARK INTER:                  -4.685
REMARK INTRA:                   0.000
REMARK UNBOUND:                 0.000
ROOT
REMARK  Name = glutamic acid
REMARK                            x       y       z     vdW  Elec       q    Type
REMARK                         _______ _______ _______ _____ _____    ______ ____
ATOM      1  N   GLU A   1      65.361  66.250  71.597  0.00  0.00    +0.000 NA
ATOM      2  CA  GLU A   1      65.389  66.439  70.794  0.00  0.00    +0.000 C 
ATOM      3  CB  GLU A   1      65.028  65.944  70.242  0.00  0.00    +0.000 C 
ATOM      4  CG  GLU A   1      64.640  65.260  70.490  0.00  0.00    +0.000 C 
ATOM      5  CD  GLU A   1      64.280  64.766  69.938  0.00  0.00    +0.000 C 
ATOM      6  OE1 GLU A   1      63.892  64.081  70.187  0.00  0.00    +0.000 OA
ATOM      7  OE2 GLU A   1      64.308  64.955  69.135  0.00  0.00    +0.000 OA
ATOM      8  C   GLU A   1      65.777  67.123  70.545  0.00  0.00    +0.000 C 
ATOM      9  O   GLU A   1      66.137  67.618  71.098  0.00  0.00    +0.000 OA
ATOM     10  OXT GLU A   1      65.804  67.313  69.743  0.00  0.00    +0.000 OA
ENDROOT
TORSDOF 0
ENDMDL
MODEL 7
REMARK VINA RESULT:    -4.675     24.678     25.404
REMARK INTER + INTRA:          -4.675
REMARK INTER:                  -4.675
REMARK INTRA:                   0.000
REMARK UNBOUND:                 0.000
ROOT
REMARK  Name = glutamic acid
REMARK                            x       y       z     vdW  Elec       q    Type
REMARK                         _______ _______ _______ _____ _____    ______ ____
ATOM      1  N   GLU A   1      71.138  78.483  48.392  0.00  0.00    +0.000 NA
ATOM      2  CA  GLU A   1      71.564  78.968  48.906  0.00  0.00    +0.000 C 
ATOM      3  CB  GLU A   1      71.194  79.293  49.566  0.00  0.00    +0.000 C 
ATOM      4  CG  GLU A   1      70.397  79.135  49.714  0.00  0.00    +0.000 C 
ATOM      5  CD  GLU A   1      70.027  79.461  50.374  0.00  0.00    +0.000 C 
ATOM      6  OE1 GLU A   1      69.231  79.302  50.522  0.00  0.00    +0.000 OA
ATOM      7  OE2 GLU A   1      70.453  79.946  50.888  0.00  0.00    +0.000 OA
ATOM      8  C   GLU A   1      72.360  79.126  48.758  0.00  0.00    +0.000 C 
ATOM      9  O   GLU A   1      72.731  78.801  48.098  0.00  0.00    +0.000 OA
ATOM     10  OXT GLU A   1      72.786  79.612  49.272  0.00  0.00    +0.000 OA
ENDROOT
TORSDOF 0
ENDMDL
MODEL 8
REMARK VINA RESULT:    -4.672      5.503      6.917
REMARK INTER + INTRA:          -4.672
REMARK INTER:                  -4.672
REMARK INTRA:                   0.000
REMARK UNBOUND:                 0.000
ROOT
REMARK  Name = glutamic acid
REMARK                            x       y       z     vdW  Elec       q    Type
REMARK                         _______ _______ _______ _____ _____    ______ ____
ATOM      1  N   GLU A   1      59.737  64.105  71.583  0.00  0.00    +0.000 NA
ATOM      2  CA  GLU A   1      60.375  63.728  71.946  0.00  0.00    +0.000 C 
ATOM      3  CB  GLU A   1      60.640  63.001  71.661  0.00  0.00    +0.000 C 
ATOM      4  CG  GLU A   1      60.268  62.650  71.014  0.00  0.00    +0.000 C 
ATOM      5  CD  GLU A   1      60.533  61.923  70.729  0.00  0.00    +0.000 C 
ATOM      6  OE1 GLU A   1      60.161  61.572  70.082  0.00  0.00    +0.000 OA
ATOM      7  OE2 GLU A   1      61.171  61.546  71.092  0.00  0.00    +0.000 OA
ATOM      8  C   GLU A   1      60.747  64.079  72.593  0.00  0.00    +0.000 C 
ATOM      9  O   GLU A   1      60.481  64.806  72.878  0.00  0.00    +0.000 OA
ATOM     10  OXT GLU A   1      61.385  63.702  72.956  0.00  0.00    +0.000 OA
ENDROOT
TORSDOF 0
ENDMDL
MODEL 9
REMARK VINA RESULT:    -4.629      1.680      2.278
REMARK INTER + INTRA:          -4.629
REMARK INTER:                  -4.629
REMARK INTRA:                   0.000
REMARK UNBOUND:                 0.000
ROOT
REMARK  Name = glutamic acid
REMARK                            x       y       z     vdW  Elec       q    Type
REMARK                         _______ _______ _______ _____ _____    ______ ____
ATOM      1  N   GLU A   1      60.115  62.236  66.851  0.00  0.00    +0.000 NA
ATOM      2  CA  GLU A   1      60.878  62.502  66.682  0.00  0.00    +0.000 C 
ATOM      3  CB  GLU A   1      61.311  62.905  67.256  0.00  0.00    +0.000 C 
ATOM      4  CG  GLU A   1      60.982  63.043  68.000  0.00  0.00    +0.000 C 
ATOM      5  CD  GLU A   1      61.414  63.446  68.574  0.00  0.00    +0.000 C 
ATOM      6  OE1 GLU A   1      61.085  63.585  69.318  0.00  0.00    +0.000 OA
ATOM      7  OE2 GLU A   1      62.177  63.711  68.405  0.00  0.00    +0.000 OA
ATOM      8  C   GLU A   1      61.207  62.363  65.938  0.00  0.00    +0.000 C 
ATOM      9  O   GLU A   1      60.774  61.960  65.363  0.00  0.00    +0.000 OA
ATOM     10  OXT GLU A   1      61.969  62.628  65.769  0.00  0.00    +0.000 OA
ENDROOT
TORSDOF 0
ENDMDL
