MODEL 1
REMARK VINA RESULT:    -3.489      0.000      0.000
REMARK INTER + INTRA:          -3.489
REMARK INTER:                  -3.489
REMARK INTRA:                   0.000
REMARK UNBOUND:                 0.000
ROOT
REMARK  Name = glycerol
REMARK                            x       y       z     vdW  Elec       q    Type
REMARK                         _______ _______ _______ _____ _____    ______ ____
ATOM      1  O   UNL     1      60.905  60.929  63.551  0.00  0.00    +0.000 OA
ATOM      2  C   UNL     1      61.082  61.322  64.254  0.00  0.00    +0.000 C 
ATOM      3  C   UNL     1      61.802  61.713  64.338  0.00  0.00    +0.000 C 
ATOM      4  O   UNL     1      62.347  61.712  63.719  0.00  0.00    +0.000 OA
ATOM      5  C   UNL     1      61.979  62.107  65.042  0.00  0.00    +0.000 C 
ATOM      6  O   UNL     1      62.700  62.499  65.126  0.00  0.00    +0.000 OA
ENDROOT
TORSDOF 0
ENDMDL
MODEL 2
REMARK VINA RESULT:    -3.474      1.135      1.963
REMARK INTER + INTRA:          -3.474
REMARK INTER:                  -3.474
REMARK INTRA:                   0.000
REMARK UNBOUND:                 0.000
ROOT
REMARK  Name = glycerol
REMARK                            x       y       z     vdW  Elec       q    Type
REMARK                         _______ _______ _______ _____ _____    ______ ____
ATOM      1  O   UNL     1      61.918  62.433  66.449  0.00  0.00    +0.000 OA
ATOM      2  C   UNL     1      61.975  62.622  65.648  0.00  0.00    +0.000 C 
ATOM      3  C   UNL     1      62.223  62.053  65.106  0.00  0.00    +0.000 C 
ATOM      4  O   UNL     1      62.415  61.294  65.364  0.00  0.00    +0.000 OA
ATOM      5  C   UNL     1      62.280  62.243  64.305  0.00  0.00    +0.000 C 
ATOM      6  O   UNL     1      62.528  61.674  63.762  0.00  0.00    +0.000 OA
ENDROOT
TORSDOF 0
ENDMDL
MODEL 3
REMARK VINA RESULT:    -3.354     16.634     17.126
REMARK INTER + INTRA:          -3.354
REMARK INTER:                  -3.354
REMARK INTRA:                   0.000
REMARK UNBOUND:                 0.000
ROOT
REMARK  Name = glycerol
REMARK                            x       y       z     vdW  Elec       q    Type
REMARK                         _______ _______ _______ _____ _____    ______ ____
ATOM      1  O   UNL     1      66.009  78.848  59.117  0.00  0.00    +0.000 OA
ATOM      2  C   UNL     1      65.648  78.142  59.347  0.00  0.00    +0.000 C 
ATOM      3  C   UNL     1      66.054  77.609  59.826  0.00  0.00    +0.000 C 
ATOM      4  O   UNL     1      66.820  77.780  60.078  0.00  0.00    +0.000 OA
ATOM      5  C   UNL     1      65.693  76.903  60.056  0.00  0.00    +0.000 C 
ATOM      6  O   UNL     1      66.099  76.369  60.536  0.00  0.00    +0.000 OA
ENDROOT
TORSDOF 0
ENDMDL
MODEL 4
REMARK VINA RESULT:    -3.032      9.321      9.764
REMARK INTER + INTRA:          -3.032
REMARK INTER:                  -3.032
REMARK INTRA:                   0.000
REMARK UNBOUND:                 0.000
ROOT
REMARK  Name = glycerol
REMARK                            x       y       z     vdW  Elec       q    Type
REMARK                         _______ _______ _______ _____ _____    ______ ____
ATOM      1  O   UNL     1      66.340  67.855  69.688  0.00  0.00    +0.000 OA
ATOM      2  C   UNL     1      65.888  67.484  70.269  0.00  0.00    +0.000 C 
ATOM      3  C   UNL     1      66.247  67.212  70.959  0.00  0.00    +0.000 C 
ATOM      4  O   UNL     1      67.059  67.310  71.069  0.00  0.00    +0.000 OA
ATOM      5  C   UNL     1      65.794  66.840  71.541  0.00  0.00    +0.000 C 
ATOM      6  O   UNL     1      66.154  66.567  72.232  0.00  0.00    +0.000 OA
ENDROOT
TORSDOF 0
ENDMDL
MODEL 5
REMARK VINA RESULT:    -2.884     24.153     24.438
REMARK INTER + INTRA:          -2.884
REMARK INTER:                  -2.884
REMARK INTRA:                   0.000
REMARK UNBOUND:                 0.000
ROOT
REMARK  Name = glycerol
REMARK                            x       y       z     vdW  Elec       q    Type
REMARK                         _______ _______ _______ _____ _____    ______ ____
ATOM      1  O   UNL     1      71.024  78.380  48.227  0.00  0.00    +0.000 OA
ATOM      2  C   UNL     1      71.034  79.000  48.772  0.00  0.00    +0.000 C 
ATOM      3  C   UNL     1      70.570  78.958  49.451  0.00  0.00    +0.000 C 
ATOM      4  O   UNL     1      70.095  78.298  49.588  0.00  0.00    +0.000 OA
ATOM      5  C   UNL     1      70.580  79.578  49.996  0.00  0.00    +0.000 C 
ATOM      6  O   UNL     1      70.115  79.537  50.677  0.00  0.00    +0.000 OA
ENDROOT
TORSDOF 0
ENDMDL
MODEL 6
REMARK VINA RESULT:    -2.874      3.560      4.128
REMARK INTER + INTRA:          -2.874
REMARK INTER:                  -2.874
REMARK INTRA:                   0.000
REMARK UNBOUND:                 0.000
ROOT
REMARK  Name = glycerol
REMARK                            x       y       z     vdW  Elec       q    Type
REMARK                         _______ _______ _______ _____ _____    ______ ____
ATOM      1  O   UNL     1      60.908  63.188  66.757  0.00  0.00    +0.000 OA
ATOM      2  C   UNL     1      61.066  62.961  67.535  0.00  0.00    +0.000 C 
ATOM      3  C   UNL     1      60.556  62.445  67.925  0.00  0.00    +0.000 C 
ATOM      4  O   UNL     1      59.888  62.153  67.539  0.00  0.00    +0.000 OA
ATOM      5  C   UNL     1      60.714  62.218  68.703  0.00  0.00    +0.000 C 
ATOM      6  O   UNL     1      60.204  61.701  69.094  0.00  0.00    +0.000 OA
ENDROOT
TORSDOF 0
ENDMDL
MODEL 7
REMARK VINA RESULT:    -2.787     10.670     11.047
REMARK INTER + INTRA:          -2.787
REMARK INTER:                  -2.787
REMARK INTRA:                   0.000
REMARK UNBOUND:                 0.000
ROOT
REMARK  Name = glycerol
REMARK                            x       y       z     vdW  Elec       q    Type
REMARK                         _______ _______ _______ _____ _____    ______ ____
ATOM      1  O   UNL     1      65.308  62.528  53.741  0.00  0.00    +0.000 OA
ATOM      2  C   UNL     1      64.667  62.143  54.090  0.00  0.00    +0.000 C 
ATOM      3  C   UNL     1      64.351  61.467  53.740  0.00  0.00    +0.000 C 
ATOM      4  O   UNL     1      64.676  61.175  53.040  0.00  0.00    +0.000 OA
ATOM      5  C   UNL     1      63.710  61.082  54.089  0.00  0.00    +0.000 C 
ATOM      6  O   UNL     1      63.393  60.406  53.738  0.00  0.00    +0.000 OA
ENDROOT
TORSDOF 0
ENDMDL
MODEL 8
REMARK VINA RESULT:    -2.781     24.668     24.966
REMARK INTER + INTRA:          -2.781
REMARK INTER:                  -2.781
REMARK INTRA:                   0.000
REMARK UNBOUND:                 0.000
ROOT
REMARK  Name = glycerol
REMARK                            x       y       z     vdW  Elec       q    Type
REMARK                         _______ _______ _______ _____ _____    ______ ____
ATOM      1  O   UNL     1      70.231  78.451  49.683  0.00  0.00    +0.000 OA
ATOM      2  C   UNL     1      70.675  78.436  48.988  0.00  0.00    +0.000 C 
ATOM      3  C   UNL     1      71.398  78.828  48.952  0.00  0.00    +0.000 C 
ATOM      4  O   UNL     1      71.680  79.237  49.610  0.00  0.00    +0.000 OA
ATOM      5  C   UNL     1      71.842  78.813  48.255  0.00  0.00    +0.000 C 
ATOM      6  O   UNL     1      72.566  79.206  48.219  0.00  0.00    +0.000 OA
ENDROOT
TORSDOF 0
ENDMDL
MODEL 9
REMARK VINA RESULT:    -2.758     10.764     11.100
REMARK INTER + INTRA:          -2.758
REMARK INTER:                  -2.758
REMARK INTRA:                   0.000
REMARK UNBOUND:                 0.000
ROOT
REMARK  Name = glycerol
REMARK                            x       y       z     vdW  Elec       q    Type
REMARK                         _______ _______ _______ _____ _____    ______ ____
ATOM      1  O   UNL     1      64.079  60.106  52.712  0.00  0.00    +0.000 OA
ATOM      2  C   UNL     1      64.443  60.832  52.859  0.00  0.00    +0.000 C 
ATOM      3  C   UNL     1      64.328  61.212  53.581  0.00  0.00    +0.000 C 
ATOM      4  O   UNL     1      63.851  60.867  54.158  0.00  0.00    +0.000 OA
ATOM      5  C   UNL     1      64.692  61.939  53.727  0.00  0.00    +0.000 C 
ATOM      6  O   UNL     1      64.578  62.320  54.450  0.00  0.00    +0.000 OA
ENDROOT
TORSDOF 0
ENDMDL
