MODEL 1
REMARK VINA RESULT:    -9.966      0.000      0.000
REMARK INTER + INTRA:          -9.966
REMARK INTER:                  -9.966
REMARK INTRA:                   0.000
REMARK UNBOUND:                 0.000
ROOT
REMARK  Name = glyconiazide
REMARK                            x       y       z     vdW  Elec       q    Type
REMARK                         _______ _______ _______ _____ _____    ______ ____
ATOM      1  O   UNL     1      60.141  62.830  68.981  0.00  0.00    +0.000 OA
ATOM      2  C   UNL     1      60.896  63.140  68.859  0.00  0.00    +0.000 C 
ATOM      3  C   UNL     1      61.276  63.031  68.136  0.00  0.00    +0.000 C 
ATOM      4  N   UNL     1      60.901  62.611  67.533  0.00  0.00    +0.000 NA
ATOM      5  N   UNL     1      61.281  62.501  66.808  0.00  0.00    +0.000 NA
ATOM      6  C   UNL     1      60.906  62.080  66.205  0.00  0.00    +0.000 C 
ATOM      7  O   UNL     1      60.151  61.770  66.327  0.00  0.00    +0.000 OA
ATOM      8  C   UNL     1      61.286  61.971  65.482  0.00  0.00    +0.000 A 
ATOM      9  C   UNL     1      62.041  62.281  65.360  0.00  0.00    +0.000 A 
ATOM     10  C   UNL     1      62.420  62.171  64.637  0.00  0.00    +0.000 A 
ATOM     11  N   UNL     1      62.045  61.751  64.034  0.00  0.00    +0.000 NA
ATOM     12  C   UNL     1      61.291  61.441  64.154  0.00  0.00    +0.000 A 
ATOM     13  C   UNL     1      60.911  61.551  64.879  0.00  0.00    +0.000 A 
ATOM     14  C   UNL     1      61.271  63.560  69.462  0.00  0.00    +0.000 C 
ATOM     15  O   UNL     1      60.961  63.714  70.212  0.00  0.00    +0.000 OA
ATOM     16  C   UNL     1      61.521  64.149  70.635  0.00  0.00    +0.000 C 
ATOM     17  O   UNL     1      61.439  64.421  71.409  0.00  0.00    +0.000 OA
ATOM     18  C   UNL     1      62.176  64.265  70.147  0.00  0.00    +0.000 C 
ATOM     19  O   UNL     1      62.864  64.673  70.347  0.00  0.00    +0.000 OA
ATOM     20  C   UNL     1      62.021  63.901  69.422  0.00  0.00    +0.000 C 
ATOM     21  O   UNL     1      62.529  63.881  68.772  0.00  0.00    +0.000 OA
ENDROOT
TORSDOF 0
ENDMDL
MODEL 2
REMARK VINA RESULT:    -9.820      1.511      5.026
REMARK INTER + INTRA:          -9.820
REMARK INTER:                  -9.820
REMARK INTRA:                   0.000
REMARK UNBOUND:                 0.000
ROOT
REMARK  Name = glyconiazide
REMARK                            x       y       z     vdW  Elec       q    Type
REMARK                         _______ _______ _______ _____ _____    ______ ____
ATOM      1  O   UNL     1      59.978  61.884  66.394  0.00  0.00    +0.000 OA
ATOM      2  C   UNL     1      60.748  62.084  66.175  0.00  0.00    +0.000 C 
ATOM      3  C   UNL     1      61.234  62.495  66.699  0.00  0.00    +0.000 C 
ATOM      4  N   UNL     1      60.949  62.707  67.444  0.00  0.00    +0.000 NA
ATOM      5  N   UNL     1      61.435  63.118  67.970  0.00  0.00    +0.000 NA
ATOM      6  C   UNL     1      61.151  63.330  68.715  0.00  0.00    +0.000 C 
ATOM      7  O   UNL     1      60.381  63.130  68.934  0.00  0.00    +0.000 OA
ATOM      8  C   UNL     1      61.636  63.741  69.239  0.00  0.00    +0.000 A 
ATOM      9  C   UNL     1      62.406  63.941  69.020  0.00  0.00    +0.000 A 
ATOM     10  C   UNL     1      62.892  64.352  69.545  0.00  0.00    +0.000 A 
ATOM     11  N   UNL     1      62.607  64.564  70.290  0.00  0.00    +0.000 NA
ATOM     12  C   UNL     1      61.838  64.364  70.510  0.00  0.00    +0.000 A 
ATOM     13  C   UNL     1      61.352  63.953  69.984  0.00  0.00    +0.000 A 
ATOM     14  C   UNL     1      61.032  61.872  65.430  0.00  0.00    +0.000 C 
ATOM     15  O   UNL     1      60.613  61.462  64.849  0.00  0.00    +0.000 OA
ATOM     16  C   UNL     1      61.107  61.370  64.195  0.00  0.00    +0.000 C 
ATOM     17  O   UNL     1      60.911  60.991  63.489  0.00  0.00    +0.000 OA
ATOM     18  C   UNL     1      61.832  61.722  64.371  0.00  0.00    +0.000 C 
ATOM     19  O   UNL     1      62.488  61.758  63.872  0.00  0.00    +0.000 OA
ATOM     20  C   UNL     1      61.785  62.033  65.134  0.00  0.00    +0.000 C 
ATOM     21  O   UNL     1      62.387  62.434  65.532  0.00  0.00    +0.000 OA
ENDROOT
TORSDOF 0
ENDMDL
MODEL 3
REMARK VINA RESULT:    -9.401      2.045      5.145
REMARK INTER + INTRA:          -9.401
REMARK INTER:                  -9.401
REMARK INTRA:                   0.000
REMARK UNBOUND:                 0.000
ROOT
REMARK  Name = glyconiazide
REMARK                            x       y       z     vdW  Elec       q    Type
REMARK                         _______ _______ _______ _____ _____    ______ ____
ATOM      1  O   UNL     1      59.854  61.619  68.165  0.00  0.00    +0.000 OA
ATOM      2  C   UNL     1      60.500  62.107  68.005  0.00  0.00    +0.000 C 
ATOM      3  C   UNL     1      60.878  62.508  68.618  0.00  0.00    +0.000 C 
ATOM      4  N   UNL     1      60.609  62.421  69.394  0.00  0.00    +0.000 NA
ATOM      5  N   UNL     1      60.987  62.822  70.009  0.00  0.00    +0.000 NA
ATOM      6  C   UNL     1      60.718  62.736  70.784  0.00  0.00    +0.000 C 
ATOM      7  O   UNL     1      60.072  62.248  70.944  0.00  0.00    +0.000 OA
ATOM      8  C   UNL     1      61.096  63.136  71.398  0.00  0.00    +0.000 A 
ATOM      9  C   UNL     1      61.742  63.624  71.237  0.00  0.00    +0.000 A 
ATOM     10  C   UNL     1      62.119  64.025  71.851  0.00  0.00    +0.000 A 
ATOM     11  N   UNL     1      61.850  63.938  72.627  0.00  0.00    +0.000 NA
ATOM     12  C   UNL     1      61.205  63.451  72.788  0.00  0.00    +0.000 A 
ATOM     13  C   UNL     1      60.827  63.050  72.173  0.00  0.00    +0.000 A 
ATOM     14  C   UNL     1      60.769  62.194  67.229  0.00  0.00    +0.000 C 
ATOM     15  O   UNL     1      60.448  61.829  66.562  0.00  0.00    +0.000 OA
ATOM     16  C   UNL     1      60.886  62.070  65.905  0.00  0.00    +0.000 C 
ATOM     17  O   UNL     1      60.756  61.839  65.124  0.00  0.00    +0.000 OA
ATOM     18  C   UNL     1      61.477  62.583  66.167  0.00  0.00    +0.000 C 
ATOM     19  O   UNL     1      62.041  62.954  65.694  0.00  0.00    +0.000 OA
ATOM     20  C   UNL     1      61.404  62.659  66.985  0.00  0.00    +0.000 C 
ATOM     21  O   UNL     1      61.883  63.120  67.474  0.00  0.00    +0.000 OA
ENDROOT
TORSDOF 0
ENDMDL
MODEL 4
REMARK VINA RESULT:    -9.268      3.892      5.647
REMARK INTER + INTRA:          -9.268
REMARK INTER:                  -9.268
REMARK INTRA:                   0.000
REMARK UNBOUND:                 0.000
ROOT
REMARK  Name = glyconiazide
REMARK                            x       y       z     vdW  Elec       q    Type
REMARK                         _______ _______ _______ _____ _____    ______ ____
ATOM      1  O   UNL     1      62.510  63.879  69.323  0.00  0.00    +0.000 OA
ATOM      2  C   UNL     1      62.511  63.961  70.144  0.00  0.00    +0.000 C 
ATOM      3  C   UNL     1      63.019  64.500  70.505  0.00  0.00    +0.000 C 
ATOM      4  N   UNL     1      63.528  64.959  70.045  0.00  0.00    +0.000 NA
ATOM      5  N   UNL     1      64.038  65.499  70.406  0.00  0.00    +0.000 NA
ATOM      6  C   UNL     1      64.546  65.957  69.946  0.00  0.00    +0.000 C 
ATOM      7  O   UNL     1      64.546  65.876  69.125  0.00  0.00    +0.000 OA
ATOM      8  C   UNL     1      65.055  66.496  70.307  0.00  0.00    +0.000 A 
ATOM      9  C   UNL     1      65.056  66.578  71.129  0.00  0.00    +0.000 A 
ATOM     10  C   UNL     1      65.564  67.117  71.490  0.00  0.00    +0.000 A 
ATOM     11  N   UNL     1      66.073  67.576  71.030  0.00  0.00    +0.000 NA
ATOM     12  C   UNL     1      66.073  67.495  70.209  0.00  0.00    +0.000 A 
ATOM     13  C   UNL     1      65.564  66.955  69.847  0.00  0.00    +0.000 A 
ATOM     14  C   UNL     1      62.002  63.503  70.604  0.00  0.00    +0.000 C 
ATOM     15  O   UNL     1      61.465  62.943  70.322  0.00  0.00    +0.000 OA
ATOM     16  C   UNL     1      61.072  62.617  70.970  0.00  0.00    +0.000 C 
ATOM     17  O   UNL     1      60.487  62.036  70.941  0.00  0.00    +0.000 OA
ATOM     18  C   UNL     1      61.366  62.976  71.653  0.00  0.00    +0.000 C 
ATOM     19  O   UNL     1      61.127  62.816  72.426  0.00  0.00    +0.000 OA
ATOM     20  C   UNL     1      61.941  63.523  71.426  0.00  0.00    +0.000 C 
ATOM     21  O   UNL     1      62.378  64.006  71.933  0.00  0.00    +0.000 OA
ENDROOT
TORSDOF 0
ENDMDL
MODEL 5
REMARK VINA RESULT:    -9.156      4.301      5.769
REMARK INTER + INTRA:          -9.156
REMARK INTER:                  -9.156
REMARK INTRA:                   0.000
REMARK UNBOUND:                 0.000
ROOT
REMARK  Name = glyconiazide
REMARK                            x       y       z     vdW  Elec       q    Type
REMARK                         _______ _______ _______ _____ _____    ______ ____
ATOM      1  O   UNL     1      63.890  66.144  69.217  0.00  0.00    +0.000 OA
ATOM      2  C   UNL     1      64.202  66.114  69.981  0.00  0.00    +0.000 C 
ATOM      3  C   UNL     1      63.831  65.662  70.561  0.00  0.00    +0.000 C 
ATOM      4  N   UNL     1      63.146  65.240  70.380  0.00  0.00    +0.000 NA
ATOM      5  N   UNL     1      62.774  64.787  70.961  0.00  0.00    +0.000 NA
ATOM      6  C   UNL     1      62.089  64.364  70.779  0.00  0.00    +0.000 C 
ATOM      7  O   UNL     1      61.777  64.394  70.016  0.00  0.00    +0.000 OA
ATOM      8  C   UNL     1      61.718  63.912  71.360  0.00  0.00    +0.000 A 
ATOM      9  C   UNL     1      62.030  63.882  72.123  0.00  0.00    +0.000 A 
ATOM     10  C   UNL     1      61.659  63.430  72.704  0.00  0.00    +0.000 A 
ATOM     11  N   UNL     1      60.974  63.007  72.522  0.00  0.00    +0.000 NA
ATOM     12  C   UNL     1      60.661  63.036  71.760  0.00  0.00    +0.000 A 
ATOM     13  C   UNL     1      61.033  63.489  71.178  0.00  0.00    +0.000 A 
ATOM     14  C   UNL     1      64.887  66.537  70.162  0.00  0.00    +0.000 C 
ATOM     15  O   UNL     1      65.317  67.011  69.641  0.00  0.00    +0.000 OA
ATOM     16  C   UNL     1      65.958  67.327  70.054  0.00  0.00    +0.000 C 
ATOM     17  O   UNL     1      66.532  67.833  69.744  0.00  0.00    +0.000 OA
ATOM     18  C   UNL     1      65.924  67.049  70.830  0.00  0.00    +0.000 C 
ATOM     19  O   UNL     1      66.458  67.227  71.433  0.00  0.00    +0.000 OA
ATOM     20  C   UNL     1      65.262  66.561  70.896  0.00  0.00    +0.000 C 
ATOM     21  O   UNL     1      65.018  66.165  71.579  0.00  0.00    +0.000 OA
ENDROOT
TORSDOF 0
ENDMDL
MODEL 6
REMARK VINA RESULT:    -8.969      2.978      5.496
REMARK INTER + INTRA:          -8.969
REMARK INTER:                  -8.969
REMARK INTRA:                   0.000
REMARK UNBOUND:                 0.000
ROOT
REMARK  Name = glyconiazide
REMARK                            x       y       z     vdW  Elec       q    Type
REMARK                         _______ _______ _______ _____ _____    ______ ____
ATOM      1  O   UNL     1      61.843  63.627  70.932  0.00  0.00    +0.000 OA
ATOM      2  C   UNL     1      62.023  63.777  70.141  0.00  0.00    +0.000 C 
ATOM      3  C   UNL     1      62.613  64.321  69.948  0.00  0.00    +0.000 C 
ATOM      4  N   UNL     1      63.023  64.714  70.546  0.00  0.00    +0.000 NA
ATOM      5  N   UNL     1      63.613  65.258  70.353  0.00  0.00    +0.000 NA
ATOM      6  C   UNL     1      64.023  65.651  70.951  0.00  0.00    +0.000 C 
ATOM      7  O   UNL     1      63.843  65.500  71.742  0.00  0.00    +0.000 OA
ATOM      8  C   UNL     1      64.613  66.194  70.759  0.00  0.00    +0.000 A 
ATOM      9  C   UNL     1      64.793  66.345  69.968  0.00  0.00    +0.000 A 
ATOM     10  C   UNL     1      65.382  66.888  69.775  0.00  0.00    +0.000 A 
ATOM     11  N   UNL     1      65.793  67.281  70.373  0.00  0.00    +0.000 NA
ATOM     12  C   UNL     1      65.613  67.132  71.164  0.00  0.00    +0.000 A 
ATOM     13  C   UNL     1      65.023  66.587  71.357  0.00  0.00    +0.000 A 
ATOM     14  C   UNL     1      61.613  63.384  69.542  0.00  0.00    +0.000 C 
ATOM     15  O   UNL     1      61.012  62.829  69.651  0.00  0.00    +0.000 OA
ATOM     16  C   UNL     1      60.760  62.578  68.906  0.00  0.00    +0.000 C 
ATOM     17  O   UNL     1      60.167  62.025  68.756  0.00  0.00    +0.000 OA
ATOM     18  C   UNL     1      61.204  62.979  68.338  0.00  0.00    +0.000 C 
ATOM     19  O   UNL     1      61.134  62.897  67.520  0.00  0.00    +0.000 OA
ATOM     20  C   UNL     1      61.732  63.477  68.731  0.00  0.00    +0.000 C 
ATOM     21  O   UNL     1      62.281  63.980  68.376  0.00  0.00    +0.000 OA
ENDROOT
TORSDOF 0
ENDMDL
MODEL 7
REMARK VINA RESULT:    -8.949      2.217      3.694
REMARK INTER + INTRA:          -8.949
REMARK INTER:                  -8.949
REMARK INTRA:                   0.000
REMARK UNBOUND:                 0.000
ROOT
REMARK  Name = glyconiazide
REMARK                            x       y       z     vdW  Elec       q    Type
REMARK                         _______ _______ _______ _____ _____    ______ ____
ATOM      1  O   UNL     1      63.167  64.827  71.484  0.00  0.00    +0.000 OA
ATOM      2  C   UNL     1      63.473  65.054  70.752  0.00  0.00    +0.000 C 
ATOM      3  C   UNL     1      63.152  64.748  70.057  0.00  0.00    +0.000 C 
ATOM      4  N   UNL     1      62.524  64.214  70.093  0.00  0.00    +0.000 NA
ATOM      5  N   UNL     1      62.202  63.907  69.398  0.00  0.00    +0.000 NA
ATOM      6  C   UNL     1      61.575  63.373  69.434  0.00  0.00    +0.000 C 
ATOM      7  O   UNL     1      61.269  63.146  70.166  0.00  0.00    +0.000 OA
ATOM      8  C   UNL     1      61.254  63.067  68.739  0.00  0.00    +0.000 A 
ATOM      9  C   UNL     1      61.559  63.295  68.007  0.00  0.00    +0.000 A 
ATOM     10  C   UNL     1      61.238  62.989  67.312  0.00  0.00    +0.000 A 
ATOM     11  N   UNL     1      60.611  62.454  67.348  0.00  0.00    +0.000 NA
ATOM     12  C   UNL     1      60.304  62.227  68.079  0.00  0.00    +0.000 A 
ATOM     13  C   UNL     1      60.626  62.533  68.775  0.00  0.00    +0.000 A 
ATOM     14  C   UNL     1      64.101  65.588  70.716  0.00  0.00    +0.000 C 
ATOM     15  O   UNL     1      64.477  65.939  71.361  0.00  0.00    +0.000 OA
ATOM     16  C   UNL     1      65.072  66.433  71.072  0.00  0.00    +0.000 C 
ATOM     17  O   UNL     1      65.585  66.892  71.527  0.00  0.00    +0.000 OA
ATOM     18  C   UNL     1      65.063  66.388  70.249  0.00  0.00    +0.000 C 
ATOM     19  O   UNL     1      65.565  66.793  69.735  0.00  0.00    +0.000 OA
ATOM     20  C   UNL     1      64.463  65.866  70.029  0.00  0.00    +0.000 C 
ATOM     21  O   UNL     1      64.261  65.657  69.256  0.00  0.00    +0.000 OA
ENDROOT
TORSDOF 0
ENDMDL
MODEL 8
REMARK VINA RESULT:    -8.650      3.088      6.007
REMARK INTER + INTRA:          -8.650
REMARK INTER:                  -8.650
REMARK INTRA:                   0.000
REMARK UNBOUND:                 0.000
ROOT
REMARK  Name = glyconiazide
REMARK                            x       y       z     vdW  Elec       q    Type
REMARK                         _______ _______ _______ _____ _____    ______ ____
ATOM      1  O   UNL     1      60.908  65.244  68.665  0.00  0.00    +0.000 OA
ATOM      2  C   UNL     1      60.627  64.547  69.005  0.00  0.00    +0.000 C 
ATOM      3  C   UNL     1      60.188  64.576  69.703  0.00  0.00    +0.000 C 
ATOM      4  N   UNL     1      60.030  65.302  70.061  0.00  0.00    +0.000 NA
ATOM      5  N   UNL     1      59.591  65.332  70.759  0.00  0.00    +0.000 NA
ATOM      6  C   UNL     1      59.433  66.058  71.117  0.00  0.00    +0.000 C 
ATOM      7  O   UNL     1      59.714  66.755  70.777  0.00  0.00    +0.000 OA
ATOM      8  C   UNL     1      58.994  66.087  71.815  0.00  0.00    +0.000 A 
ATOM      9  C   UNL     1      58.713  65.390  72.155  0.00  0.00    +0.000 A 
ATOM     10  C   UNL     1      58.274  65.418  72.852  0.00  0.00    +0.000 A 
ATOM     11  N   UNL     1      58.116  66.145  73.211  0.00  0.00    +0.000 NA
ATOM     12  C   UNL     1      58.397  66.842  72.871  0.00  0.00    +0.000 A 
ATOM     13  C   UNL     1      58.836  66.813  72.173  0.00  0.00    +0.000 A 
ATOM     14  C   UNL     1      60.785  63.821  68.647  0.00  0.00    +0.000 C 
ATOM     15  O   UNL     1      61.214  63.706  67.952  0.00  0.00    +0.000 OA
ATOM     16  C   UNL     1      61.236  62.896  67.796  0.00  0.00    +0.000 C 
ATOM     17  O   UNL     1      61.608  62.536  67.155  0.00  0.00    +0.000 OA
ATOM     18  C   UNL     1      60.821  62.510  68.395  0.00  0.00    +0.000 C 
ATOM     19  O   UNL     1      60.704  61.696  68.458  0.00  0.00    +0.000 OA
ATOM     20  C   UNL     1      60.542  63.082  68.921  0.00  0.00    +0.000 C 
ATOM     21  O   UNL     1      60.097  62.940  69.602  0.00  0.00    +0.000 OA
ENDROOT
TORSDOF 0
ENDMDL
MODEL 9
REMARK VINA RESULT:    -8.322      5.946      6.891
REMARK INTER + INTRA:          -8.322
REMARK INTER:                  -8.322
REMARK INTRA:                   0.000
REMARK UNBOUND:                 0.000
ROOT
REMARK  Name = glyconiazide
REMARK                            x       y       z     vdW  Elec       q    Type
REMARK                         _______ _______ _______ _____ _____    ______ ____
ATOM      1  O   UNL     1      63.260  67.860  72.673  0.00  0.00    +0.000 OA
ATOM      2  C   UNL     1      63.325  67.161  72.239  0.00  0.00    +0.000 C 
ATOM      3  C   UNL     1      62.674  66.662  72.159  0.00  0.00    +0.000 C 
ATOM      4  N   UNL     1      61.956  66.861  72.513  0.00  0.00    +0.000 NA
ATOM      5  N   UNL     1      61.304  66.361  72.434  0.00  0.00    +0.000 NA
ATOM      6  C   UNL     1      60.586  66.560  72.788  0.00  0.00    +0.000 C 
ATOM      7  O   UNL     1      60.521  67.259  73.222  0.00  0.00    +0.000 OA
ATOM      8  C   UNL     1      59.935  66.061  72.708  0.00  0.00    +0.000 A 
ATOM      9  C   UNL     1      60.000  65.363  72.274  0.00  0.00    +0.000 A 
ATOM     10  C   UNL     1      59.349  64.864  72.194  0.00  0.00    +0.000 A 
ATOM     11  N   UNL     1      58.631  65.062  72.549  0.00  0.00    +0.000 NA
ATOM     12  C   UNL     1      58.564  65.760  72.983  0.00  0.00    +0.000 A 
ATOM     13  C   UNL     1      59.217  66.260  73.063  0.00  0.00    +0.000 A 
ATOM     14  C   UNL     1      64.043  66.962  71.884  0.00  0.00    +0.000 C 
ATOM     15  O   UNL     1      64.739  67.405  71.916  0.00  0.00    +0.000 OA
ATOM     16  C   UNL     1      65.318  67.002  71.487  0.00  0.00    +0.000 C 
ATOM     17  O   UNL     1      66.097  67.248  71.375  0.00  0.00    +0.000 OA
ATOM     18  C   UNL     1      64.979  66.311  71.190  0.00  0.00    +0.000 C 
ATOM     19  O   UNL     1      65.361  65.744  70.729  0.00  0.00    +0.000 OA
ATOM     20  C   UNL     1      64.192  66.286  71.436  0.00  0.00    +0.000 C 
ATOM     21  O   UNL     1      63.648  65.690  71.263  0.00  0.00    +0.000 OA
ENDROOT
TORSDOF 0
ENDMDL
