MODEL 1
REMARK VINA RESULT:   -17.678      0.000      0.000
REMARK INTER + INTRA:         -17.678
REMARK INTER:                 -17.678
REMARK INTRA:                   0.000
REMARK UNBOUND:                 0.000
ROOT
REMARK  Name = glycyrrhizic acid
REMARK                            x       y       z     vdW  Elec       q    Type
REMARK                         _______ _______ _______ _____ _____    ______ ____
ATOM      1  C   UNL     1      60.911  65.055  50.339  0.00  0.00    +0.000 C 
ATOM      2  C   UNL     1      61.363  64.482  50.723  0.00  0.00    +0.000 C 
ATOM      3  C   UNL     1      61.170  64.074  50.033  0.00  0.00    +0.000 C 
ATOM      4  C   UNL     1      61.748  63.767  50.868  0.00  0.00    +0.000 C 
ATOM      5  C   UNL     1      62.168  63.659  51.569  0.00  0.00    +0.000 C 
ATOM      6  C   UNL     1      62.204  64.266  52.126  0.00  0.00    +0.000 C 
ATOM      7  C   UNL     1      61.820  64.981  51.981  0.00  0.00    +0.000 C 
ATOM      8  C   UNL     1      62.240  64.874  52.683  0.00  0.00    +0.000 C 
ATOM      9  C   UNL     1      61.399  65.090  51.280  0.00  0.00    +0.000 C 
ATOM     10  C   UNL     1      61.014  65.804  51.136  0.00  0.00    +0.000 C 
ATOM     11  C   UNL     1      61.050  66.413  51.694  0.00  0.00    +0.000 C 
ATOM     12  C   UNL     1      61.471  66.305  52.394  0.00  0.00    +0.000 C 
ATOM     13  C   UNL     1      61.086  67.020  52.251  0.00  0.00    +0.000 C 
ATOM     14  C   UNL     1      61.856  65.589  52.539  0.00  0.00    +0.000 C 
ATOM     15  C   UNL     1      62.276  65.481  53.240  0.00  0.00    +0.000 C 
ATOM     16  O   UNL     1      62.661  64.767  53.384  0.00  0.00    +0.000 OA
ATOM     17  C   UNL     1      62.313  66.089  53.797  0.00  0.00    +0.000 C 
ATOM     18  C   UNL     1      61.928  66.803  53.653  0.00  0.00    +0.000 C 
ATOM     19  C   UNL     1      61.964  67.411  54.210  0.00  0.00    +0.000 C 
ATOM     20  C   UNL     1      62.385  67.304  54.911  0.00  0.00    +0.000 C 
ATOM     21  C   UNL     1      62.421  67.911  55.468  0.00  0.00    +0.000 C 
ATOM     22  C   UNL     1      62.872  67.338  55.852  0.00  0.00    +0.000 C 
ATOM     23  C   UNL     1      62.036  68.627  55.325  0.00  0.00    +0.000 C 
ATOM     24  C   UNL     1      61.615  68.734  54.623  0.00  0.00    +0.000 C 
ATOM     25  C   UNL     1      61.579  68.127  54.065  0.00  0.00    +0.000 C 
ATOM     26  C   UNL     1      61.194  68.842  53.921  0.00  0.00    +0.000 C 
ATOM     27  C   UNL     1      61.158  68.234  53.364  0.00  0.00    +0.000 C 
ATOM     28  C   UNL     1      61.122  67.627  52.807  0.00  0.00    +0.000 C 
ATOM     29  C   UNL     1      61.507  66.912  52.951  0.00  0.00    +0.000 C 
ATOM     30  C   UNL     1      61.048  67.448  52.524  0.00  0.00    +0.000 C 
ATOM     31  C   UNL     1      62.614  68.319  56.158  0.00  0.00    +0.000 C 
ATOM     32  O   UNL     1      63.078  67.957  56.737  0.00  0.00    +0.000 OA
ATOM     33  O   UNL     1      62.342  69.090  56.271  0.00  0.00    +0.000 OA
ATOM     34  O   UNL     1      61.712  63.159  50.311  0.00  0.00    +0.000 OA
ATOM     35  C   UNL     1      62.096  62.444  50.455  0.00  0.00    +0.000 C 
ATOM     36  O   UNL     1      62.060  61.837  49.898  0.00  0.00    +0.000 OA
ATOM     37  C   UNL     1      62.445  61.122  50.042  0.00  0.00    +0.000 C 
ATOM     38  C   UNL     1      62.866  61.013  50.743  0.00  0.00    +0.000 C 
ATOM     39  O   UNL     1      63.250  60.299  50.888  0.00  0.00    +0.000 OA
ATOM     40  C   UNL     1      62.902  61.621  51.300  0.00  0.00    +0.000 C 
ATOM     41  O   UNL     1      63.322  61.513  52.002  0.00  0.00    +0.000 OA
ATOM     42  C   UNL     1      62.517  62.337  51.156  0.00  0.00    +0.000 C 
ATOM     43  O   UNL     1      62.553  62.944  51.713  0.00  0.00    +0.000 OA
ATOM     44  C   UNL     1      62.974  62.836  52.414  0.00  0.00    +0.000 C 
ATOM     45  O   UNL     1      63.359  62.121  52.559  0.00  0.00    +0.000 OA
ATOM     46  C   UNL     1      63.780  62.012  53.260  0.00  0.00    +0.000 C 
ATOM     47  C   UNL     1      63.816  62.620  53.817  0.00  0.00    +0.000 C 
ATOM     48  O   UNL     1      64.236  62.512  54.518  0.00  0.00    +0.000 OA
ATOM     49  C   UNL     1      63.431  63.335  53.672  0.00  0.00    +0.000 C 
ATOM     50  O   UNL     1      63.467  63.943  54.230  0.00  0.00    +0.000 OA
ATOM     51  C   UNL     1      63.010  63.443  52.971  0.00  0.00    +0.000 C 
ATOM     52  O   UNL     1      62.625  64.158  52.827  0.00  0.00    +0.000 OA
ATOM     53  C   UNL     1      64.164  61.298  53.404  0.00  0.00    +0.000 C 
ATOM     54  O   UNL     1      64.585  61.189  54.106  0.00  0.00    +0.000 OA
ATOM     55  O   UNL     1      64.128  60.690  52.847  0.00  0.00    +0.000 OA
ATOM     56  C   UNL     1      62.409  60.514  49.484  0.00  0.00    +0.000 C 
ATOM     57  O   UNL     1      62.794  59.798  49.629  0.00  0.00    +0.000 OA
ATOM     58  O   UNL     1      61.988  60.622  48.783  0.00  0.00    +0.000 OA
ENDROOT
TORSDOF 0
ENDMDL
MODEL 2
REMARK VINA RESULT:   -17.163      1.560      6.189
REMARK INTER + INTRA:         -17.163
REMARK INTER:                 -17.163
REMARK INTRA:                   0.000
REMARK UNBOUND:                 0.000
ROOT
REMARK  Name = glycyrrhizic acid
REMARK                            x       y       z     vdW  Elec       q    Type
REMARK                         _______ _______ _______ _____ _____    ______ ____
ATOM      1  C   UNL     1      60.406  66.656  50.955  0.00  0.00    +0.000 C 
ATOM      2  C   UNL     1      60.652  67.010  51.659  0.00  0.00    +0.000 C 
ATOM      3  C   UNL     1      60.185  67.615  51.349  0.00  0.00    +0.000 C 
ATOM      4  C   UNL     1      60.736  67.574  52.255  0.00  0.00    +0.000 C 
ATOM      5  C   UNL     1      61.201  67.410  52.916  0.00  0.00    +0.000 C 
ATOM      6  C   UNL     1      61.583  66.682  52.981  0.00  0.00    +0.000 C 
ATOM      7  C   UNL     1      61.500  66.118  52.385  0.00  0.00    +0.000 C 
ATOM      8  C   UNL     1      61.966  65.954  53.046  0.00  0.00    +0.000 C 
ATOM      9  C   UNL     1      61.034  66.281  51.724  0.00  0.00    +0.000 C 
ATOM     10  C   UNL     1      60.951  65.718  51.128  0.00  0.00    +0.000 C 
ATOM     11  C   UNL     1      61.334  64.989  51.193  0.00  0.00    +0.000 C 
ATOM     12  C   UNL     1      61.799  64.825  51.854  0.00  0.00    +0.000 C 
ATOM     13  C   UNL     1      61.716  64.260  51.258  0.00  0.00    +0.000 C 
ATOM     14  C   UNL     1      61.883  65.389  52.450  0.00  0.00    +0.000 C 
ATOM     15  C   UNL     1      62.348  65.226  53.111  0.00  0.00    +0.000 C 
ATOM     16  O   UNL     1      62.431  65.789  53.706  0.00  0.00    +0.000 OA
ATOM     17  C   UNL     1      62.730  64.497  53.176  0.00  0.00    +0.000 C 
ATOM     18  C   UNL     1      62.647  63.934  52.580  0.00  0.00    +0.000 C 
ATOM     19  C   UNL     1      63.029  63.205  52.645  0.00  0.00    +0.000 C 
ATOM     20  C   UNL     1      63.495  63.041  53.306  0.00  0.00    +0.000 C 
ATOM     21  C   UNL     1      63.877  62.313  53.371  0.00  0.00    +0.000 C 
ATOM     22  C   UNL     1      64.123  62.667  54.074  0.00  0.00    +0.000 C 
ATOM     23  C   UNL     1      63.794  61.748  52.775  0.00  0.00    +0.000 C 
ATOM     24  C   UNL     1      63.328  61.912  52.114  0.00  0.00    +0.000 C 
ATOM     25  C   UNL     1      62.946  62.641  52.049  0.00  0.00    +0.000 C 
ATOM     26  C   UNL     1      62.863  62.077  51.453  0.00  0.00    +0.000 C 
ATOM     27  C   UNL     1      62.480  62.805  51.388  0.00  0.00    +0.000 C 
ATOM     28  C   UNL     1      62.098  63.533  51.323  0.00  0.00    +0.000 C 
ATOM     29  C   UNL     1      62.181  64.097  51.919  0.00  0.00    +0.000 C 
ATOM     30  C   UNL     1      61.906  63.791  51.203  0.00  0.00    +0.000 C 
ATOM     31  C   UNL     1      64.345  61.708  53.680  0.00  0.00    +0.000 C 
ATOM     32  O   UNL     1      64.724  61.809  54.407  0.00  0.00    +0.000 OA
ATOM     33  O   UNL     1      64.434  61.002  53.264  0.00  0.00    +0.000 OA
ATOM     34  O   UNL     1      60.353  68.302  52.190  0.00  0.00    +0.000 OA
ATOM     35  C   UNL     1      60.436  68.866  52.786  0.00  0.00    +0.000 C 
ATOM     36  O   UNL     1      60.054  69.594  52.721  0.00  0.00    +0.000 OA
ATOM     37  C   UNL     1      60.137  70.158  53.316  0.00  0.00    +0.000 C 
ATOM     38  C   UNL     1      60.603  69.995  53.978  0.00  0.00    +0.000 C 
ATOM     39  O   UNL     1      60.686  70.559  54.573  0.00  0.00    +0.000 OA
ATOM     40  C   UNL     1      60.985  69.267  54.043  0.00  0.00    +0.000 C 
ATOM     41  O   UNL     1      61.451  69.102  54.703  0.00  0.00    +0.000 OA
ATOM     42  C   UNL     1      60.902  68.702  53.446  0.00  0.00    +0.000 C 
ATOM     43  O   UNL     1      61.284  67.974  53.511  0.00  0.00    +0.000 OA
ATOM     44  C   UNL     1      61.750  67.810  54.173  0.00  0.00    +0.000 C 
ATOM     45  O   UNL     1      61.833  68.374  54.769  0.00  0.00    +0.000 OA
ATOM     46  C   UNL     1      62.299  68.211  55.430  0.00  0.00    +0.000 C 
ATOM     47  C   UNL     1      62.681  67.483  55.495  0.00  0.00    +0.000 C 
ATOM     48  O   UNL     1      63.146  67.319  56.156  0.00  0.00    +0.000 OA
ATOM     49  C   UNL     1      62.597  66.919  54.899  0.00  0.00    +0.000 C 
ATOM     50  O   UNL     1      62.980  66.190  54.964  0.00  0.00    +0.000 OA
ATOM     51  C   UNL     1      62.132  67.082  54.238  0.00  0.00    +0.000 C 
ATOM     52  O   UNL     1      62.048  66.518  53.641  0.00  0.00    +0.000 OA
ATOM     53  C   UNL     1      62.382  68.775  56.026  0.00  0.00    +0.000 C 
ATOM     54  O   UNL     1      62.847  68.611  56.687  0.00  0.00    +0.000 OA
ATOM     55  O   UNL     1      62.000  69.503  55.961  0.00  0.00    +0.000 OA
ATOM     56  C   UNL     1      59.754  70.887  53.251  0.00  0.00    +0.000 C 
ATOM     57  O   UNL     1      59.838  71.451  53.848  0.00  0.00    +0.000 OA
ATOM     58  O   UNL     1      59.289  71.051  52.591  0.00  0.00    +0.000 OA
ENDROOT
TORSDOF 0
ENDMDL
MODEL 3
REMARK VINA RESULT:   -17.140      1.860      6.626
REMARK INTER + INTRA:         -17.140
REMARK INTER:                 -17.140
REMARK INTRA:                   0.000
REMARK UNBOUND:                 0.000
ROOT
REMARK  Name = glycyrrhizic acid
REMARK                            x       y       z     vdW  Elec       q    Type
REMARK                         _______ _______ _______ _____ _____    ______ ____
ATOM      1  C   UNL     1      62.005  65.340  55.371  0.00  0.00    +0.000 C 
ATOM      2  C   UNL     1      61.890  65.818  54.709  0.00  0.00    +0.000 C 
ATOM      3  C   UNL     1      61.756  66.368  55.308  0.00  0.00    +0.000 C 
ATOM      4  C   UNL     1      61.729  66.487  54.254  0.00  0.00    +0.000 C 
ATOM      5  C   UNL     1      61.741  66.440  53.431  0.00  0.00    +0.000 C 
ATOM      6  C   UNL     1      61.914  65.723  53.062  0.00  0.00    +0.000 C 
ATOM      7  C   UNL     1      62.076  65.054  53.516  0.00  0.00    +0.000 C 
ATOM      8  C   UNL     1      62.088  65.006  52.693  0.00  0.00    +0.000 C 
ATOM      9  C   UNL     1      62.064  65.101  54.340  0.00  0.00    +0.000 C 
ATOM     10  C   UNL     1      62.225  64.432  54.794  0.00  0.00    +0.000 C 
ATOM     11  C   UNL     1      62.399  63.714  54.424  0.00  0.00    +0.000 C 
ATOM     12  C   UNL     1      62.411  63.667  53.601  0.00  0.00    +0.000 C 
ATOM     13  C   UNL     1      62.573  62.997  54.054  0.00  0.00    +0.000 C 
ATOM     14  C   UNL     1      62.250  64.336  53.146  0.00  0.00    +0.000 C 
ATOM     15  C   UNL     1      62.262  64.289  52.323  0.00  0.00    +0.000 C 
ATOM     16  O   UNL     1      62.101  64.958  51.869  0.00  0.00    +0.000 OA
ATOM     17  C   UNL     1      62.436  63.572  51.954  0.00  0.00    +0.000 C 
ATOM     18  C   UNL     1      62.597  62.903  52.408  0.00  0.00    +0.000 C 
ATOM     19  C   UNL     1      62.771  62.186  52.038  0.00  0.00    +0.000 C 
ATOM     20  C   UNL     1      62.783  62.138  51.215  0.00  0.00    +0.000 C 
ATOM     21  C   UNL     1      62.957  61.421  50.846  0.00  0.00    +0.000 C 
ATOM     22  C   UNL     1      62.842  61.899  50.184  0.00  0.00    +0.000 C 
ATOM     23  C   UNL     1      63.119  60.751  51.299  0.00  0.00    +0.000 C 
ATOM     24  C   UNL     1      63.107  60.799  52.124  0.00  0.00    +0.000 C 
ATOM     25  C   UNL     1      62.933  61.516  52.493  0.00  0.00    +0.000 C 
ATOM     26  C   UNL     1      63.094  60.847  52.947  0.00  0.00    +0.000 C 
ATOM     27  C   UNL     1      62.920  61.564  53.316  0.00  0.00    +0.000 C 
ATOM     28  C   UNL     1      62.747  62.281  53.686  0.00  0.00    +0.000 C 
ATOM     29  C   UNL     1      62.585  62.950  53.232  0.00  0.00    +0.000 C 
ATOM     30  C   UNL     1      62.689  62.518  53.927  0.00  0.00    +0.000 C 
ATOM     31  C   UNL     1      63.091  60.870  50.247  0.00  0.00    +0.000 C 
ATOM     32  O   UNL     1      63.036  61.099  49.455  0.00  0.00    +0.000 OA
ATOM     33  O   UNL     1      63.280  60.091  50.438  0.00  0.00    +0.000 OA
ATOM     34  O   UNL     1      61.555  67.204  54.623  0.00  0.00    +0.000 OA
ATOM     35  C   UNL     1      61.393  67.874  54.170  0.00  0.00    +0.000 C 
ATOM     36  O   UNL     1      61.219  68.591  54.539  0.00  0.00    +0.000 OA
ATOM     37  C   UNL     1      61.058  69.259  54.085  0.00  0.00    +0.000 C 
ATOM     38  C   UNL     1      61.070  69.213  53.262  0.00  0.00    +0.000 C 
ATOM     39  O   UNL     1      60.908  69.881  52.808  0.00  0.00    +0.000 OA
ATOM     40  C   UNL     1      61.244  68.496  52.892  0.00  0.00    +0.000 C 
ATOM     41  O   UNL     1      61.256  68.448  52.069  0.00  0.00    +0.000 OA
ATOM     42  C   UNL     1      61.405  67.826  53.347  0.00  0.00    +0.000 C 
ATOM     43  O   UNL     1      61.579  67.109  52.977  0.00  0.00    +0.000 OA
ATOM     44  C   UNL     1      61.591  67.062  52.153  0.00  0.00    +0.000 C 
ATOM     45  O   UNL     1      61.430  67.731  51.699  0.00  0.00    +0.000 OA
ATOM     46  C   UNL     1      61.442  67.684  50.876  0.00  0.00    +0.000 C 
ATOM     47  C   UNL     1      61.616  66.967  50.506  0.00  0.00    +0.000 C 
ATOM     48  O   UNL     1      61.628  66.920  49.683  0.00  0.00    +0.000 OA
ATOM     49  C   UNL     1      61.777  66.298  50.961  0.00  0.00    +0.000 C 
ATOM     50  O   UNL     1      61.951  65.580  50.591  0.00  0.00    +0.000 OA
ATOM     51  C   UNL     1      61.765  66.345  51.784  0.00  0.00    +0.000 C 
ATOM     52  O   UNL     1      61.927  65.676  52.239  0.00  0.00    +0.000 OA
ATOM     53  C   UNL     1      61.280  68.353  50.422  0.00  0.00    +0.000 C 
ATOM     54  O   UNL     1      61.292  68.306  49.598  0.00  0.00    +0.000 OA
ATOM     55  O   UNL     1      61.107  69.070  50.791  0.00  0.00    +0.000 OA
ATOM     56  C   UNL     1      60.884  69.977  54.455  0.00  0.00    +0.000 C 
ATOM     57  O   UNL     1      60.722  70.647  54.000  0.00  0.00    +0.000 OA
ATOM     58  O   UNL     1      60.872  70.024  55.278  0.00  0.00    +0.000 OA
ENDROOT
TORSDOF 0
ENDMDL
MODEL 4
REMARK VINA RESULT:   -17.130      1.618      3.195
REMARK INTER + INTRA:         -17.130
REMARK INTER:                 -17.130
REMARK INTRA:                   0.000
REMARK UNBOUND:                 0.000
ROOT
REMARK  Name = glycyrrhizic acid
REMARK                            x       y       z     vdW  Elec       q    Type
REMARK                         _______ _______ _______ _____ _____    ______ ____
ATOM      1  C   UNL     1      62.158  64.137  54.851  0.00  0.00    +0.000 C 
ATOM      2  C   UNL     1      62.250  63.804  54.102  0.00  0.00    +0.000 C 
ATOM      3  C   UNL     1      62.346  63.132  54.571  0.00  0.00    +0.000 C 
ATOM      4  C   UNL     1      62.375  63.237  53.516  0.00  0.00    +0.000 C 
ATOM      5  C   UNL     1      62.373  63.457  52.721  0.00  0.00    +0.000 C 
ATOM      6  C   UNL     1      62.245  64.245  52.512  0.00  0.00    +0.000 C 
ATOM      7  C   UNL     1      62.120  64.811  53.098  0.00  0.00    +0.000 C 
ATOM      8  C   UNL     1      62.117  65.033  52.303  0.00  0.00    +0.000 C 
ATOM      9  C   UNL     1      62.122  64.591  53.893  0.00  0.00    +0.000 C 
ATOM     10  C   UNL     1      61.997  65.158  54.479  0.00  0.00    +0.000 C 
ATOM     11  C   UNL     1      61.869  65.947  54.269  0.00  0.00    +0.000 C 
ATOM     12  C   UNL     1      61.867  66.167  53.475  0.00  0.00    +0.000 C 
ATOM     13  C   UNL     1      61.742  66.735  54.060  0.00  0.00    +0.000 C 
ATOM     14  C   UNL     1      61.992  65.600  52.888  0.00  0.00    +0.000 C 
ATOM     15  C   UNL     1      61.990  65.820  52.094  0.00  0.00    +0.000 C 
ATOM     16  O   UNL     1      62.115  65.254  51.508  0.00  0.00    +0.000 OA
ATOM     17  C   UNL     1      61.862  66.608  51.885  0.00  0.00    +0.000 C 
ATOM     18  C   UNL     1      61.737  67.175  52.471  0.00  0.00    +0.000 C 
ATOM     19  C   UNL     1      61.609  67.963  52.261  0.00  0.00    +0.000 C 
ATOM     20  C   UNL     1      61.606  68.184  51.467  0.00  0.00    +0.000 C 
ATOM     21  C   UNL     1      61.479  68.972  51.258  0.00  0.00    +0.000 C 
ATOM     22  C   UNL     1      61.570  68.638  50.509  0.00  0.00    +0.000 C 
ATOM     23  C   UNL     1      61.353  69.539  51.843  0.00  0.00    +0.000 C 
ATOM     24  C   UNL     1      61.356  69.318  52.639  0.00  0.00    +0.000 C 
ATOM     25  C   UNL     1      61.484  68.530  52.848  0.00  0.00    +0.000 C 
ATOM     26  C   UNL     1      61.359  69.097  53.433  0.00  0.00    +0.000 C 
ATOM     27  C   UNL     1      61.486  68.309  53.642  0.00  0.00    +0.000 C 
ATOM     28  C   UNL     1      61.614  67.521  53.851  0.00  0.00    +0.000 C 
ATOM     29  C   UNL     1      61.739  66.955  53.266  0.00  0.00    +0.000 C 
ATOM     30  C   UNL     1      61.655  67.236  54.037  0.00  0.00    +0.000 C 
ATOM     31  C   UNL     1      61.383  69.643  50.789  0.00  0.00    +0.000 C 
ATOM     32  O   UNL     1      61.430  69.584  49.967  0.00  0.00    +0.000 OA
ATOM     33  O   UNL     1      61.239  70.375  51.141  0.00  0.00    +0.000 OA
ATOM     34  O   UNL     1      62.503  62.449  53.725  0.00  0.00    +0.000 OA
ATOM     35  C   UNL     1      62.628  61.882  53.139  0.00  0.00    +0.000 C 
ATOM     36  O   UNL     1      62.756  61.094  53.348  0.00  0.00    +0.000 OA
ATOM     37  C   UNL     1      62.881  60.527  52.763  0.00  0.00    +0.000 C 
ATOM     38  C   UNL     1      62.879  60.747  51.967  0.00  0.00    +0.000 C 
ATOM     39  O   UNL     1      63.004  60.181  51.382  0.00  0.00    +0.000 OA
ATOM     40  C   UNL     1      62.751  61.535  51.758  0.00  0.00    +0.000 C 
ATOM     41  O   UNL     1      62.748  61.756  50.964  0.00  0.00    +0.000 OA
ATOM     42  C   UNL     1      62.626  62.103  52.345  0.00  0.00    +0.000 C 
ATOM     43  O   UNL     1      62.498  62.891  52.136  0.00  0.00    +0.000 OA
ATOM     44  C   UNL     1      62.495  63.111  51.340  0.00  0.00    +0.000 C 
ATOM     45  O   UNL     1      62.620  62.544  50.755  0.00  0.00    +0.000 OA
ATOM     46  C   UNL     1      62.618  62.764  49.959  0.00  0.00    +0.000 C 
ATOM     47  C   UNL     1      62.490  63.552  49.750  0.00  0.00    +0.000 C 
ATOM     48  O   UNL     1      62.488  63.772  48.956  0.00  0.00    +0.000 OA
ATOM     49  C   UNL     1      62.365  64.119  50.337  0.00  0.00    +0.000 C 
ATOM     50  O   UNL     1      62.237  64.907  50.128  0.00  0.00    +0.000 OA
ATOM     51  C   UNL     1      62.368  63.898  51.131  0.00  0.00    +0.000 C 
ATOM     52  O   UNL     1      62.242  64.465  51.718  0.00  0.00    +0.000 OA
ATOM     53  C   UNL     1      62.743  62.197  49.374  0.00  0.00    +0.000 C 
ATOM     54  O   UNL     1      62.741  62.417  48.578  0.00  0.00    +0.000 OA
ATOM     55  O   UNL     1      62.871  61.410  49.583  0.00  0.00    +0.000 OA
ATOM     56  C   UNL     1      63.009  59.738  52.972  0.00  0.00    +0.000 C 
ATOM     57  O   UNL     1      63.134  59.172  52.386  0.00  0.00    +0.000 OA
ATOM     58  O   UNL     1      63.011  59.518  53.767  0.00  0.00    +0.000 OA
ENDROOT
TORSDOF 0
ENDMDL
MODEL 5
REMARK VINA RESULT:   -16.906      2.115      4.404
REMARK INTER + INTRA:         -16.906
REMARK INTER:                 -16.906
REMARK INTRA:                   0.000
REMARK UNBOUND:                 0.000
ROOT
REMARK  Name = glycyrrhizic acid
REMARK                            x       y       z     vdW  Elec       q    Type
REMARK                         _______ _______ _______ _____ _____    ______ ____
ATOM      1  C   UNL     1      62.572  67.006  55.376  0.00  0.00    +0.000 C 
ATOM      2  C   UNL     1      62.392  66.623  54.668  0.00  0.00    +0.000 C 
ATOM      3  C   UNL     1      62.859  66.047  55.027  0.00  0.00    +0.000 C 
ATOM      4  C   UNL     1      62.373  66.041  54.084  0.00  0.00    +0.000 C 
ATOM      5  C   UNL     1      61.951  66.167  53.387  0.00  0.00    +0.000 C 
ATOM      6  C   UNL     1      61.546  66.877  53.274  0.00  0.00    +0.000 C 
ATOM      7  C   UNL     1      61.564  67.460  53.857  0.00  0.00    +0.000 C 
ATOM      8  C   UNL     1      61.141  67.587  53.160  0.00  0.00    +0.000 C 
ATOM      9  C   UNL     1      61.987  67.333  54.554  0.00  0.00    +0.000 C 
ATOM     10  C   UNL     1      62.005  67.916  55.137  0.00  0.00    +0.000 C 
ATOM     11  C   UNL     1      61.599  68.626  55.024  0.00  0.00    +0.000 C 
ATOM     12  C   UNL     1      61.177  68.753  54.327  0.00  0.00    +0.000 C 
ATOM     13  C   UNL     1      61.194  69.336  54.910  0.00  0.00    +0.000 C 
ATOM     14  C   UNL     1      61.159  68.170  53.743  0.00  0.00    +0.000 C 
ATOM     15  C   UNL     1      60.736  68.297  53.047  0.00  0.00    +0.000 C 
ATOM     16  O   UNL     1      60.718  67.715  52.464  0.00  0.00    +0.000 OA
ATOM     17  C   UNL     1      60.331  69.007  52.933  0.00  0.00    +0.000 C 
ATOM     18  C   UNL     1      60.349  69.589  53.517  0.00  0.00    +0.000 C 
ATOM     19  C   UNL     1      59.945  70.299  53.403  0.00  0.00    +0.000 C 
ATOM     20  C   UNL     1      59.522  70.426  52.706  0.00  0.00    +0.000 C 
ATOM     21  C   UNL     1      59.117  71.136  52.593  0.00  0.00    +0.000 C 
ATOM     22  C   UNL     1      58.937  70.754  51.885  0.00  0.00    +0.000 C 
ATOM     23  C   UNL     1      59.134  71.719  53.176  0.00  0.00    +0.000 C 
ATOM     24  C   UNL     1      59.557  71.592  53.874  0.00  0.00    +0.000 C 
ATOM     25  C   UNL     1      59.962  70.882  53.987  0.00  0.00    +0.000 C 
ATOM     26  C   UNL     1      59.980  71.465  54.570  0.00  0.00    +0.000 C 
ATOM     27  C   UNL     1      60.385  70.755  54.684  0.00  0.00    +0.000 C 
ATOM     28  C   UNL     1      60.790  70.045  54.797  0.00  0.00    +0.000 C 
ATOM     29  C   UNL     1      60.772  69.463  54.214  0.00  0.00    +0.000 C 
ATOM     30  C   UNL     1      60.983  69.799  54.938  0.00  0.00    +0.000 C 
ATOM     31  C   UNL     1      58.649  71.713  52.234  0.00  0.00    +0.000 C 
ATOM     32  O   UNL     1      58.328  71.577  51.485  0.00  0.00    +0.000 OA
ATOM     33  O   UNL     1      58.503  72.426  52.622  0.00  0.00    +0.000 OA
ATOM     34  O   UNL     1      62.778  65.331  54.197  0.00  0.00    +0.000 OA
ATOM     35  C   UNL     1      62.761  64.748  53.614  0.00  0.00    +0.000 C 
ATOM     36  O   UNL     1      63.166  64.038  53.727  0.00  0.00    +0.000 OA
ATOM     37  C   UNL     1      63.148  63.456  53.144  0.00  0.00    +0.000 C 
ATOM     38  C   UNL     1      62.725  63.582  52.447  0.00  0.00    +0.000 C 
ATOM     39  O   UNL     1      62.707  63.000  51.864  0.00  0.00    +0.000 OA
ATOM     40  C   UNL     1      62.320  64.292  52.333  0.00  0.00    +0.000 C 
ATOM     41  O   UNL     1      61.897  64.419  51.637  0.00  0.00    +0.000 OA
ATOM     42  C   UNL     1      62.338  64.875  52.917  0.00  0.00    +0.000 C 
ATOM     43  O   UNL     1      61.933  65.585  52.804  0.00  0.00    +0.000 OA
ATOM     44  C   UNL     1      61.510  65.711  52.107  0.00  0.00    +0.000 C 
ATOM     45  O   UNL     1      61.492  65.129  51.523  0.00  0.00    +0.000 OA
ATOM     46  C   UNL     1      61.070  65.255  50.826  0.00  0.00    +0.000 C 
ATOM     47  C   UNL     1      60.665  65.965  50.713  0.00  0.00    +0.000 C 
ATOM     48  O   UNL     1      60.242  66.092  50.016  0.00  0.00    +0.000 OA
ATOM     49  C   UNL     1      60.683  66.548  51.297  0.00  0.00    +0.000 C 
ATOM     50  O   UNL     1      60.278  67.259  51.183  0.00  0.00    +0.000 OA
ATOM     51  C   UNL     1      61.105  66.421  51.993  0.00  0.00    +0.000 C 
ATOM     52  O   UNL     1      61.124  67.004  52.577  0.00  0.00    +0.000 OA
ATOM     53  C   UNL     1      61.052  64.673  50.243  0.00  0.00    +0.000 C 
ATOM     54  O   UNL     1      60.629  64.799  49.545  0.00  0.00    +0.000 OA
ATOM     55  O   UNL     1      61.457  63.963  50.356  0.00  0.00    +0.000 OA
ATOM     56  C   UNL     1      63.553  62.745  53.258  0.00  0.00    +0.000 C 
ATOM     57  O   UNL     1      63.535  62.162  52.674  0.00  0.00    +0.000 OA
ATOM     58  O   UNL     1      63.975  62.618  53.954  0.00  0.00    +0.000 OA
ENDROOT
TORSDOF 0
ENDMDL
MODEL 6
REMARK VINA RESULT:   -16.849      1.686      3.502
REMARK INTER + INTRA:         -16.849
REMARK INTER:                 -16.849
REMARK INTRA:                   0.000
REMARK UNBOUND:                 0.000
ROOT
REMARK  Name = glycyrrhizic acid
REMARK                            x       y       z     vdW  Elec       q    Type
REMARK                         _______ _______ _______ _____ _____    ______ ____
ATOM      1  C   UNL     1      62.422  63.739  54.456  0.00  0.00    +0.000 C 
ATOM      2  C   UNL     1      61.998  63.813  53.752  0.00  0.00    +0.000 C 
ATOM      3  C   UNL     1      62.142  63.000  53.749  0.00  0.00    +0.000 C 
ATOM      4  C   UNL     1      61.625  63.605  53.047  0.00  0.00    +0.000 C 
ATOM      5  C   UNL     1      61.255  64.183  52.589  0.00  0.00    +0.000 C 
ATOM      6  C   UNL     1      61.259  64.970  52.838  0.00  0.00    +0.000 C 
ATOM      7  C   UNL     1      61.632  65.178  53.542  0.00  0.00    +0.000 C 
ATOM      8  C   UNL     1      61.263  65.756  53.086  0.00  0.00    +0.000 C 
ATOM      9  C   UNL     1      62.002  64.599  54.000  0.00  0.00    +0.000 C 
ATOM     10  C   UNL     1      62.376  64.807  54.705  0.00  0.00    +0.000 C 
ATOM     11  C   UNL     1      62.379  65.595  54.954  0.00  0.00    +0.000 C 
ATOM     12  C   UNL     1      62.010  66.173  54.497  0.00  0.00    +0.000 C 
ATOM     13  C   UNL     1      62.383  66.382  55.202  0.00  0.00    +0.000 C 
ATOM     14  C   UNL     1      61.636  65.965  53.791  0.00  0.00    +0.000 C 
ATOM     15  C   UNL     1      61.266  66.543  53.334  0.00  0.00    +0.000 C 
ATOM     16  O   UNL     1      60.893  66.335  52.629  0.00  0.00    +0.000 OA
ATOM     17  C   UNL     1      61.270  67.330  53.582  0.00  0.00    +0.000 C 
ATOM     18  C   UNL     1      61.644  67.538  54.287  0.00  0.00    +0.000 C 
ATOM     19  C   UNL     1      61.647  68.325  54.535  0.00  0.00    +0.000 C 
ATOM     20  C   UNL     1      61.278  68.904  54.078  0.00  0.00    +0.000 C 
ATOM     21  C   UNL     1      61.282  69.690  54.326  0.00  0.00    +0.000 C 
ATOM     22  C   UNL     1      60.858  69.764  53.622  0.00  0.00    +0.000 C 
ATOM     23  C   UNL     1      61.655  69.899  55.031  0.00  0.00    +0.000 C 
ATOM     24  C   UNL     1      62.025  69.320  55.489  0.00  0.00    +0.000 C 
ATOM     25  C   UNL     1      62.021  68.533  55.241  0.00  0.00    +0.000 C 
ATOM     26  C   UNL     1      62.395  68.741  55.946  0.00  0.00    +0.000 C 
ATOM     27  C   UNL     1      62.391  67.955  55.698  0.00  0.00    +0.000 C 
ATOM     28  C   UNL     1      62.387  67.168  55.450  0.00  0.00    +0.000 C 
ATOM     29  C   UNL     1      62.014  66.960  54.745  0.00  0.00    +0.000 C 
ATOM     30  C   UNL     1      62.441  66.829  55.439  0.00  0.00    +0.000 C 
ATOM     31  C   UNL     1      61.138  70.503  54.330  0.00  0.00    +0.000 C 
ATOM     32  O   UNL     1      60.716  70.851  53.711  0.00  0.00    +0.000 OA
ATOM     33  O   UNL     1      61.417  70.968  54.951  0.00  0.00    +0.000 OA
ATOM     34  O   UNL     1      61.621  62.818  52.798  0.00  0.00    +0.000 OA
ATOM     35  C   UNL     1      61.247  62.609  52.093  0.00  0.00    +0.000 C 
ATOM     36  O   UNL     1      61.244  61.822  51.845  0.00  0.00    +0.000 OA
ATOM     37  C   UNL     1      60.870  61.614  51.140  0.00  0.00    +0.000 C 
ATOM     38  C   UNL     1      60.500  62.193  50.682  0.00  0.00    +0.000 C 
ATOM     39  O   UNL     1      60.127  61.985  49.977  0.00  0.00    +0.000 OA
ATOM     40  C   UNL     1      60.504  62.979  50.930  0.00  0.00    +0.000 C 
ATOM     41  O   UNL     1      60.134  63.558  50.474  0.00  0.00    +0.000 OA
ATOM     42  C   UNL     1      60.878  63.188  51.636  0.00  0.00    +0.000 C 
ATOM     43  O   UNL     1      60.882  63.975  51.885  0.00  0.00    +0.000 OA
ATOM     44  C   UNL     1      60.512  64.553  51.427  0.00  0.00    +0.000 C 
ATOM     45  O   UNL     1      60.138  64.345  50.722  0.00  0.00    +0.000 OA
ATOM     46  C   UNL     1      59.768  64.923  50.264  0.00  0.00    +0.000 C 
ATOM     47  C   UNL     1      59.772  65.710  50.512  0.00  0.00    +0.000 C 
ATOM     48  O   UNL     1      59.402  66.288  50.055  0.00  0.00    +0.000 OA
ATOM     49  C   UNL     1      60.146  65.918  51.218  0.00  0.00    +0.000 C 
ATOM     50  O   UNL     1      60.150  66.706  51.466  0.00  0.00    +0.000 OA
ATOM     51  C   UNL     1      60.515  65.340  51.675  0.00  0.00    +0.000 C 
ATOM     52  O   UNL     1      60.889  65.548  52.380  0.00  0.00    +0.000 OA
ATOM     53  C   UNL     1      59.395  64.715  49.559  0.00  0.00    +0.000 C 
ATOM     54  O   UNL     1      59.025  65.294  49.101  0.00  0.00    +0.000 OA
ATOM     55  O   UNL     1      59.391  63.929  49.311  0.00  0.00    +0.000 OA
ATOM     56  C   UNL     1      60.866  60.827  50.892  0.00  0.00    +0.000 C 
ATOM     57  O   UNL     1      60.493  60.619  50.186  0.00  0.00    +0.000 OA
ATOM     58  O   UNL     1      61.236  60.249  51.349  0.00  0.00    +0.000 OA
ENDROOT
TORSDOF 0
ENDMDL
MODEL 7
REMARK VINA RESULT:   -16.448      1.954      6.530
REMARK INTER + INTRA:         -16.448
REMARK INTER:                 -16.448
REMARK INTRA:                   0.000
REMARK UNBOUND:                 0.000
ROOT
REMARK  Name = glycyrrhizic acid
REMARK                            x       y       z     vdW  Elec       q    Type
REMARK                         _______ _______ _______ _____ _____    ______ ____
ATOM      1  C   UNL     1      63.205  64.462  54.398  0.00  0.00    +0.000 C 
ATOM      2  C   UNL     1      62.656  64.609  53.800  0.00  0.00    +0.000 C 
ATOM      3  C   UNL     1      62.765  65.374  54.086  0.00  0.00    +0.000 C 
ATOM      4  C   UNL     1      62.145  65.021  53.301  0.00  0.00    +0.000 C 
ATOM      5  C   UNL     1      61.716  64.618  52.724  0.00  0.00    +0.000 C 
ATOM      6  C   UNL     1      61.798  63.801  52.645  0.00  0.00    +0.000 C 
ATOM      7  C   UNL     1      62.309  63.388  53.143  0.00  0.00    +0.000 C 
ATOM      8  C   UNL     1      61.881  62.984  52.566  0.00  0.00    +0.000 C 
ATOM      9  C   UNL     1      62.739  63.792  53.721  0.00  0.00    +0.000 C 
ATOM     10  C   UNL     1      63.250  63.379  54.219  0.00  0.00    +0.000 C 
ATOM     11  C   UNL     1      63.332  62.561  54.140  0.00  0.00    +0.000 C 
ATOM     12  C   UNL     1      62.903  62.157  53.563  0.00  0.00    +0.000 C 
ATOM     13  C   UNL     1      63.414  61.744  54.062  0.00  0.00    +0.000 C 
ATOM     14  C   UNL     1      62.392  62.570  53.064  0.00  0.00    +0.000 C 
ATOM     15  C   UNL     1      61.963  62.167  52.487  0.00  0.00    +0.000 C 
ATOM     16  O   UNL     1      61.452  62.579  51.989  0.00  0.00    +0.000 OA
ATOM     17  C   UNL     1      62.045  61.350  52.409  0.00  0.00    +0.000 C 
ATOM     18  C   UNL     1      62.556  60.937  52.907  0.00  0.00    +0.000 C 
ATOM     19  C   UNL     1      62.638  60.120  52.828  0.00  0.00    +0.000 C 
ATOM     20  C   UNL     1      62.210  59.715  52.251  0.00  0.00    +0.000 C 
ATOM     21  C   UNL     1      62.292  58.898  52.172  0.00  0.00    +0.000 C 
ATOM     22  C   UNL     1      61.743  59.045  51.574  0.00  0.00    +0.000 C 
ATOM     23  C   UNL     1      62.803  58.485  52.670  0.00  0.00    +0.000 C 
ATOM     24  C   UNL     1      63.232  58.889  53.248  0.00  0.00    +0.000 C 
ATOM     25  C   UNL     1      63.150  59.706  53.327  0.00  0.00    +0.000 C 
ATOM     26  C   UNL     1      63.661  59.294  53.825  0.00  0.00    +0.000 C 
ATOM     27  C   UNL     1      63.579  60.111  53.904  0.00  0.00    +0.000 C 
ATOM     28  C   UNL     1      63.496  60.928  53.983  0.00  0.00    +0.000 C 
ATOM     29  C   UNL     1      62.985  61.340  53.485  0.00  0.00    +0.000 C 
ATOM     30  C   UNL     1      63.534  61.250  54.095  0.00  0.00    +0.000 C 
ATOM     31  C   UNL     1      62.184  58.132  51.886  0.00  0.00    +0.000 C 
ATOM     32  O   UNL     1      61.663  57.995  51.260  0.00  0.00    +0.000 OA
ATOM     33  O   UNL     1      62.596  57.503  52.224  0.00  0.00    +0.000 OA
ATOM     34  O   UNL     1      62.062  65.838  53.380  0.00  0.00    +0.000 OA
ATOM     35  C   UNL     1      61.551  66.252  52.882  0.00  0.00    +0.000 C 
ATOM     36  O   UNL     1      61.469  67.069  52.961  0.00  0.00    +0.000 OA
ATOM     37  C   UNL     1      60.958  67.482  52.462  0.00  0.00    +0.000 C 
ATOM     38  C   UNL     1      60.529  67.078  51.885  0.00  0.00    +0.000 C 
ATOM     39  O   UNL     1      60.018  67.491  51.386  0.00  0.00    +0.000 OA
ATOM     40  C   UNL     1      60.611  66.261  51.806  0.00  0.00    +0.000 C 
ATOM     41  O   UNL     1      60.182  65.857  51.229  0.00  0.00    +0.000 OA
ATOM     42  C   UNL     1      61.123  65.848  52.305  0.00  0.00    +0.000 C 
ATOM     43  O   UNL     1      61.205  65.030  52.226  0.00  0.00    +0.000 OA
ATOM     44  C   UNL     1      60.776  64.627  51.648  0.00  0.00    +0.000 C 
ATOM     45  O   UNL     1      60.265  65.040  51.150  0.00  0.00    +0.000 OA
ATOM     46  C   UNL     1      59.835  64.636  50.572  0.00  0.00    +0.000 C 
ATOM     47  C   UNL     1      59.918  63.819  50.493  0.00  0.00    +0.000 C 
ATOM     48  O   UNL     1      59.489  63.416  49.916  0.00  0.00    +0.000 OA
ATOM     49  C   UNL     1      60.429  63.406  50.992  0.00  0.00    +0.000 C 
ATOM     50  O   UNL     1      60.512  62.588  50.913  0.00  0.00    +0.000 OA
ATOM     51  C   UNL     1      60.858  63.810  51.569  0.00  0.00    +0.000 C 
ATOM     52  O   UNL     1      61.370  63.397  52.068  0.00  0.00    +0.000 OA
ATOM     53  C   UNL     1      59.324  65.049  50.074  0.00  0.00    +0.000 C 
ATOM     54  O   UNL     1      58.895  64.645  49.496  0.00  0.00    +0.000 OA
ATOM     55  O   UNL     1      59.242  65.866  50.153  0.00  0.00    +0.000 OA
ATOM     56  C   UNL     1      60.876  68.300  52.541  0.00  0.00    +0.000 C 
ATOM     57  O   UNL     1      60.364  68.712  52.042  0.00  0.00    +0.000 OA
ATOM     58  O   UNL     1      61.305  68.703  53.118  0.00  0.00    +0.000 OA
ENDROOT
TORSDOF 0
ENDMDL
MODEL 8
REMARK VINA RESULT:   -15.837      1.599      2.357
REMARK INTER + INTRA:         -15.837
REMARK INTER:                 -15.837
REMARK INTRA:                   0.000
REMARK UNBOUND:                 0.000
ROOT
REMARK  Name = glycyrrhizic acid
REMARK                            x       y       z     vdW  Elec       q    Type
REMARK                         _______ _______ _______ _____ _____    ______ ____
ATOM      1  C   UNL     1      62.084  66.307  49.215  0.00  0.00    +0.000 C 
ATOM      2  C   UNL     1      62.167  65.805  49.865  0.00  0.00    +0.000 C 
ATOM      3  C   UNL     1      62.412  65.299  49.261  0.00  0.00    +0.000 C 
ATOM      4  C   UNL     1      62.335  65.128  50.306  0.00  0.00    +0.000 C 
ATOM      5  C   UNL     1      62.229  65.131  51.123  0.00  0.00    +0.000 C 
ATOM      6  C   UNL     1      61.956  65.811  51.501  0.00  0.00    +0.000 C 
ATOM      7  C   UNL     1      61.788  66.488  51.061  0.00  0.00    +0.000 C 
ATOM      8  C   UNL     1      61.682  66.492  51.879  0.00  0.00    +0.000 C 
ATOM      9  C   UNL     1      61.894  66.486  50.243  0.00  0.00    +0.000 C 
ATOM     10  C   UNL     1      61.726  67.162  49.803  0.00  0.00    +0.000 C 
ATOM     11  C   UNL     1      61.452  67.844  50.182  0.00  0.00    +0.000 C 
ATOM     12  C   UNL     1      61.347  67.846  50.999  0.00  0.00    +0.000 C 
ATOM     13  C   UNL     1      61.179  68.524  50.560  0.00  0.00    +0.000 C 
ATOM     14  C   UNL     1      61.514  67.169  51.440  0.00  0.00    +0.000 C 
ATOM     15  C   UNL     1      61.409  67.172  52.258  0.00  0.00    +0.000 C 
ATOM     16  O   UNL     1      61.576  66.495  52.697  0.00  0.00    +0.000 OA
ATOM     17  C   UNL     1      61.135  67.852  52.636  0.00  0.00    +0.000 C 
ATOM     18  C   UNL     1      60.968  68.529  52.196  0.00  0.00    +0.000 C 
ATOM     19  C   UNL     1      60.694  69.209  52.574  0.00  0.00    +0.000 C 
ATOM     20  C   UNL     1      60.588  69.213  53.392  0.00  0.00    +0.000 C 
ATOM     21  C   UNL     1      60.315  69.893  53.770  0.00  0.00    +0.000 C 
ATOM     22  C   UNL     1      60.397  69.392  54.420  0.00  0.00    +0.000 C 
ATOM     23  C   UNL     1      60.147  70.571  53.331  0.00  0.00    +0.000 C 
ATOM     24  C   UNL     1      60.253  70.568  52.512  0.00  0.00    +0.000 C 
ATOM     25  C   UNL     1      60.526  69.887  52.134  0.00  0.00    +0.000 C 
ATOM     26  C   UNL     1      60.359  70.564  51.694  0.00  0.00    +0.000 C 
ATOM     27  C   UNL     1      60.632  69.884  51.316  0.00  0.00    +0.000 C 
ATOM     28  C   UNL     1      60.906  69.203  50.938  0.00  0.00    +0.000 C 
ATOM     29  C   UNL     1      61.073  68.527  51.377  0.00  0.00    +0.000 C 
ATOM     30  C   UNL     1      61.009  68.985  50.694  0.00  0.00    +0.000 C 
ATOM     31  C   UNL     1      60.070  70.399  54.374  0.00  0.00    +0.000 C 
ATOM     32  O   UNL     1      60.058  70.134  55.156  0.00  0.00    +0.000 OA
ATOM     33  O   UNL     1      59.838  71.171  54.197  0.00  0.00    +0.000 OA
ATOM     34  O   UNL     1      62.608  64.448  49.927  0.00  0.00    +0.000 OA
ATOM     35  C   UNL     1      62.776  63.770  50.367  0.00  0.00    +0.000 C 
ATOM     36  O   UNL     1      63.050  63.090  49.989  0.00  0.00    +0.000 OA
ATOM     37  C   UNL     1      63.217  62.413  50.429  0.00  0.00    +0.000 C 
ATOM     38  C   UNL     1      63.112  62.416  51.247  0.00  0.00    +0.000 C 
ATOM     39  O   UNL     1      63.279  61.739  51.687  0.00  0.00    +0.000 OA
ATOM     40  C   UNL     1      62.838  63.096  51.625  0.00  0.00    +0.000 C 
ATOM     41  O   UNL     1      62.732  63.099  52.443  0.00  0.00    +0.000 OA
ATOM     42  C   UNL     1      62.670  63.774  51.185  0.00  0.00    +0.000 C 
ATOM     43  O   UNL     1      62.397  64.454  51.563  0.00  0.00    +0.000 OA
ATOM     44  C   UNL     1      62.291  64.457  52.381  0.00  0.00    +0.000 C 
ATOM     45  O   UNL     1      62.459  63.780  52.821  0.00  0.00    +0.000 OA
ATOM     46  C   UNL     1      62.353  63.782  53.640  0.00  0.00    +0.000 C 
ATOM     47  C   UNL     1      62.080  64.462  54.018  0.00  0.00    +0.000 C 
ATOM     48  O   UNL     1      61.974  64.465  54.835  0.00  0.00    +0.000 OA
ATOM     49  C   UNL     1      61.912  65.140  53.577  0.00  0.00    +0.000 C 
ATOM     50  O   UNL     1      61.638  65.821  53.956  0.00  0.00    +0.000 OA
ATOM     51  C   UNL     1      62.018  65.137  52.760  0.00  0.00    +0.000 C 
ATOM     52  O   UNL     1      61.850  65.814  52.319  0.00  0.00    +0.000 OA
ATOM     53  C   UNL     1      62.521  63.105  54.080  0.00  0.00    +0.000 C 
ATOM     54  O   UNL     1      62.415  63.108  54.898  0.00  0.00    +0.000 OA
ATOM     55  O   UNL     1      62.794  62.425  53.701  0.00  0.00    +0.000 OA
ATOM     56  C   UNL     1      63.491  61.732  50.050  0.00  0.00    +0.000 C 
ATOM     57  O   UNL     1      63.658  61.055  50.491  0.00  0.00    +0.000 OA
ATOM     58  O   UNL     1      63.596  61.729  49.232  0.00  0.00    +0.000 OA
ENDROOT
TORSDOF 0
ENDMDL
