MODEL 1
REMARK VINA RESULT:   -20.496      0.000      0.000
REMARK INTER + INTRA:         -20.496
REMARK INTER:                 -20.496
REMARK INTRA:                   0.000
REMARK UNBOUND:                 0.000
ROOT
REMARK  Name = goserelin
REMARK                            x       y       z     vdW  Elec       q    Type
REMARK                         _______ _______ _______ _____ _____    ______ ____
ATOM      1  C   UNL     1      61.311  65.547  49.146  0.00  0.00    +0.000 C 
ATOM      2  C   UNL     1      61.535  65.417  49.929  0.00  0.00    +0.000 C 
ATOM      3  C   UNL     1      61.914  64.715  50.139  0.00  0.00    +0.000 C 
ATOM      4  C   UNL     1      61.378  65.990  50.503  0.00  0.00    +0.000 C 
ATOM      5  C   UNL     1      61.602  65.859  51.286  0.00  0.00    +0.000 C 
ATOM      6  N   UNL     1      61.445  66.432  51.860  0.00  0.00    +0.000 NA
ATOM      7  C   UNL     1      61.066  67.134  51.650  0.00  0.00    +0.000 C 
ATOM      8  O   UNL     1      60.843  67.263  50.866  0.00  0.00    +0.000 OA
ATOM      9  C   UNL     1      60.910  67.705  52.223  0.00  0.00    +0.000 C 
ATOM     10  C   UNL     1      61.133  67.576  53.007  0.00  0.00    +0.000 C 
ATOM     11  O   UNL     1      61.513  66.874  53.217  0.00  0.00    +0.000 OA
ATOM     12  C   UNL     1      61.736  66.744  54.000  0.00  0.00    +0.000 C 
ATOM     13  C   UNL     1      62.045  66.009  53.791  0.00  0.00    +0.000 C 
ATOM     14  C   UNL     1      61.427  67.480  54.211  0.00  0.00    +0.000 C 
ATOM     15  C   UNL     1      61.959  66.615  54.784  0.00  0.00    +0.000 C 
ATOM     16  N   UNL     1      60.531  68.407  52.013  0.00  0.00    +0.000 NA
ATOM     17  C   UNL     1      60.375  68.980  52.587  0.00  0.00    +0.000 C 
ATOM     18  O   UNL     1      60.598  68.850  53.370  0.00  0.00    +0.000 OA
ATOM     19  C   UNL     1      59.995  69.682  52.377  0.00  0.00    +0.000 C 
ATOM     20  C   UNL     1      59.772  69.811  51.593  0.00  0.00    +0.000 C 
ATOM     21  C   UNL     1      59.928  69.239  51.020  0.00  0.00    +0.000 A 
ATOM     22  C   UNL     1      60.307  68.538  51.230  0.00  0.00    +0.000 A 
ATOM     23  C   UNL     1      60.464  67.965  50.656  0.00  0.00    +0.000 A 
ATOM     24  C   UNL     1      60.240  68.095  49.873  0.00  0.00    +0.000 A 
ATOM     25  O   UNL     1      60.397  67.523  49.299  0.00  0.00    +0.000 OA
ATOM     26  C   UNL     1      59.861  68.797  49.663  0.00  0.00    +0.000 A 
ATOM     27  C   UNL     1      59.705  69.369  50.236  0.00  0.00    +0.000 A 
ATOM     28  N   UNL     1      59.839  70.253  52.950  0.00  0.00    +0.000 NA
ATOM     29  C   UNL     1      59.460  70.955  52.740  0.00  0.00    +0.000 C 
ATOM     30  O   UNL     1      59.237  71.086  51.957  0.00  0.00    +0.000 OA
ATOM     31  CA  UNL     1      59.304  71.528  53.314  0.00  0.00    +0.000 C 
ATOM     32  C   UNL     1      59.527  71.398  54.097  0.00  0.00    +0.000 C 
ATOM     33  O   UNL     1      59.907  70.696  54.307  0.00  0.00    +0.000 OA
ATOM     34  N   UNL     1      58.924  72.230  53.104  0.00  0.00    +0.000 NA
ATOM     35  C   UNL     1      58.768  72.801  53.677  0.00  0.00    +0.000 C 
ATOM     36  O   UNL     1      58.992  72.672  54.461  0.00  0.00    +0.000 OA
ATOM     37  CA  UNL     1      58.389  73.503  53.467  0.00  0.00    +0.000 C 
ATOM     38  CB  UNL     1      58.233  74.076  54.041  0.00  0.00    +0.000 C 
ATOM     39  CG  UNL     1      58.456  73.946  54.825  0.00  0.00    +0.000 C 
ATOM     40  CD1 UNL     1      58.837  73.275  55.115  0.00  0.00    +0.000 C 
ATOM     41  NE1 UNL     1      58.954  73.378  55.925  0.00  0.00    +0.000 NA
ATOM     42  CE2 UNL     1      58.645  74.114  56.135  0.00  0.00    +0.000 C 
ATOM     43  CD2 UNL     1      58.337  74.465  55.455  0.00  0.00    +0.000 C 
ATOM     44  CE3 UNL     1      57.989  75.211  55.498  0.00  0.00    +0.000 C 
ATOM     45  CZ3 UNL     1      57.948  75.607  56.220  0.00  0.00    +0.000 C 
ATOM     46  CH2 UNL     1      58.255  75.256  56.901  0.00  0.00    +0.000 C 
ATOM     47  CZ2 UNL     1      58.604  74.510  56.858  0.00  0.00    +0.000 C 
ATOM     48  N   UNL     1      58.166  73.634  52.684  0.00  0.00    +0.000 NA
ATOM     49  C   UNL     1      58.322  73.061  52.110  0.00  0.00    +0.000 C 
ATOM     50  O   UNL     1      58.701  72.359  52.320  0.00  0.00    +0.000 OA
ATOM     51  CA  UNL     1      58.098  73.191  51.327  0.00  0.00    +0.000 C 
ATOM     52  CB  UNL     1      57.719  73.893  51.117  0.00  0.00    +0.000 C 
ATOM     53  CG  UNL     1      57.563  74.465  51.690  0.00  0.00    +0.000 A 
ATOM     54  CD2 UNL     1      57.753  74.413  52.492  0.00  0.00    +0.000 A 
ATOM     55  NE2 UNL     1      57.497  75.105  52.860  0.00  0.00    +0.000 NA
ATOM     56  CE1 UNL     1      57.149  75.585  52.286  0.00  0.00    +0.000 A 
ATOM     57  ND1 UNL     1      57.190  75.190  51.563  0.00  0.00    +0.000 NA
ATOM     58  N   UNL     1      58.255  72.618  50.753  0.00  0.00    +0.000 NA
ATOM     59  C   UNL     1      58.031  72.749  49.970  0.00  0.00    +0.000 C 
ATOM     60  O   UNL     1      57.652  73.451  49.760  0.00  0.00    +0.000 OA
ATOM     61  CA  UNL     1      58.188  72.176  49.396  0.00  0.00    +0.000 C 
ATOM     62  C   UNL     1      57.998  72.229  48.595  0.00  0.00    +0.000 C 
ATOM     63  C   UNL     1      58.254  71.536  48.227  0.00  0.00    +0.000 C 
ATOM     64  C   UNL     1      58.602  71.056  48.800  0.00  0.00    +0.000 C 
ATOM     65  O   UNL     1      58.933  70.311  48.674  0.00  0.00    +0.000 OA
ATOM     66  N   UNL     1      58.561  71.452  49.523  0.00  0.00    +0.000 NA
ATOM     67  C   UNL     1      61.981  65.157  51.496  0.00  0.00    +0.000 C 
ATOM     68  O   UNL     1      62.204  65.028  52.280  0.00  0.00    +0.000 OA
ATOM     69  N   UNL     1      62.137  64.586  50.923  0.00  0.00    +0.000 NA
ATOM     70  C   UNL     1      62.516  63.884  51.133  0.00  0.00    +0.000 C 
ATOM     71  C   UNL     1      62.740  63.754  51.916  0.00  0.00    +0.000 C 
ATOM     72  C   UNL     1      63.119  63.052  52.126  0.00  0.00    +0.000 C 
ATOM     73  C   UNL     1      63.342  62.923  52.910  0.00  0.00    +0.000 C 
ATOM     74  N   UNL     1      63.722  62.221  53.120  0.00  0.00    +0.000 NA
ATOM     75  C   UNL     1      63.945  62.091  53.903  0.00  0.00    +0.000 C 
ATOM     76  N   UNL     1      63.789  62.663  54.477  0.00  0.00    +0.000 NA
ATOM     77  N   UNL     1      64.324  61.389  54.113  0.00  0.00    +0.000 NA
ATOM     78  C   UNL     1      62.673  63.311  50.559  0.00  0.00    +0.000 C 
ATOM     79  O   UNL     1      63.052  62.610  50.769  0.00  0.00    +0.000 OA
ATOM     80  N   UNL     1      62.449  63.442  49.776  0.00  0.00    +0.000 N 
ATOM     81  C   UNL     1      62.068  64.113  49.485  0.00  0.00    +0.000 C 
ATOM     82  C   UNL     1      61.951  64.009  48.675  0.00  0.00    +0.000 C 
ATOM     83  C   UNL     1      62.260  63.273  48.465  0.00  0.00    +0.000 C 
ATOM     84  C   UNL     1      62.568  62.922  49.145  0.00  0.00    +0.000 C 
ATOM     85  C   UNL     1      62.931  62.183  49.188  0.00  0.00    +0.000 C 
ATOM     86  O   UNL     1      63.012  61.723  48.508  0.00  0.00    +0.000 OA
ATOM     87  N   UNL     1      63.214  61.903  49.911  0.00  0.00    +0.000 NA
ATOM     88  N   UNL     1      63.577  61.163  49.953  0.00  0.00    +0.000 NA
ATOM     89  C   UNL     1      63.860  60.883  50.676  0.00  0.00    +0.000 C 
ATOM     90  N   UNL     1      64.223  60.144  50.719  0.00  0.00    +0.000 NA
ATOM     91  O   UNL     1      63.779  61.343  51.356  0.00  0.00    +0.000 OA
ENDROOT
TORSDOF 0
ENDMDL
MODEL 2
REMARK VINA RESULT:   -19.565      1.788      4.814
REMARK INTER + INTRA:         -19.565
REMARK INTER:                 -19.565
REMARK INTRA:                   0.000
REMARK UNBOUND:                 0.000
ROOT
REMARK  Name = goserelin
REMARK                            x       y       z     vdW  Elec       q    Type
REMARK                         _______ _______ _______ _____ _____    ______ ____
ATOM      1  C   UNL     1      62.694  62.921  53.771  0.00  0.00    +0.000 C 
ATOM      2  C   UNL     1      62.429  62.761  53.007  0.00  0.00    +0.000 C 
ATOM      3  C   UNL     1      62.537  62.010  52.681  0.00  0.00    +0.000 C 
ATOM      4  C   UNL     1      62.056  63.352  52.567  0.00  0.00    +0.000 C 
ATOM      5  C   UNL     1      61.791  63.192  51.803  0.00  0.00    +0.000 C 
ATOM      6  N   UNL     1      61.419  63.784  51.364  0.00  0.00    +0.000 NA
ATOM      7  C   UNL     1      61.311  64.534  51.689  0.00  0.00    +0.000 C 
ATOM      8  O   UNL     1      61.576  64.693  52.455  0.00  0.00    +0.000 OA
ATOM      9  C   UNL     1      60.939  65.124  51.251  0.00  0.00    +0.000 C 
ATOM     10  C   UNL     1      60.673  64.965  50.486  0.00  0.00    +0.000 C 
ATOM     11  O   UNL     1      60.781  64.215  50.160  0.00  0.00    +0.000 OA
ATOM     12  C   UNL     1      60.516  64.055  49.395  0.00  0.00    +0.000 C 
ATOM     13  C   UNL     1      60.793  63.281  49.460  0.00  0.00    +0.000 C 
ATOM     14  C   UNL     1      60.239  64.830  49.329  0.00  0.00    +0.000 C 
ATOM     15  C   UNL     1      60.251  63.896  48.630  0.00  0.00    +0.000 C 
ATOM     16  N   UNL     1      60.831  65.874  51.577  0.00  0.00    +0.000 NA
ATOM     17  C   UNL     1      60.458  66.466  51.137  0.00  0.00    +0.000 C 
ATOM     18  O   UNL     1      60.193  66.306  50.373  0.00  0.00    +0.000 OA
ATOM     19  C   UNL     1      60.351  67.216  51.463  0.00  0.00    +0.000 C 
ATOM     20  C   UNL     1      60.616  67.375  52.228  0.00  0.00    +0.000 C 
ATOM     21  C   UNL     1      60.988  66.784  52.667  0.00  0.00    +0.000 A 
ATOM     22  C   UNL     1      61.096  66.034  52.341  0.00  0.00    +0.000 A 
ATOM     23  C   UNL     1      61.469  65.443  52.780  0.00  0.00    +0.000 A 
ATOM     24  C   UNL     1      61.733  65.603  53.545  0.00  0.00    +0.000 A 
ATOM     25  O   UNL     1      62.106  65.011  53.984  0.00  0.00    +0.000 OA
ATOM     26  C   UNL     1      61.626  66.353  53.871  0.00  0.00    +0.000 A 
ATOM     27  C   UNL     1      61.253  66.943  53.432  0.00  0.00    +0.000 A 
ATOM     28  N   UNL     1      59.978  67.806  51.024  0.00  0.00    +0.000 NA
ATOM     29  C   UNL     1      59.871  68.556  51.350  0.00  0.00    +0.000 C 
ATOM     30  O   UNL     1      60.135  68.716  52.115  0.00  0.00    +0.000 OA
ATOM     31  CA  UNL     1      59.498  69.148  50.911  0.00  0.00    +0.000 C 
ATOM     32  C   UNL     1      59.233  68.988  50.146  0.00  0.00    +0.000 C 
ATOM     33  O   UNL     1      59.341  68.238  49.821  0.00  0.00    +0.000 OA
ATOM     34  N   UNL     1      59.390  69.898  51.237  0.00  0.00    +0.000 NA
ATOM     35  C   UNL     1      59.018  70.488  50.798  0.00  0.00    +0.000 C 
ATOM     36  O   UNL     1      58.753  70.330  50.033  0.00  0.00    +0.000 OA
ATOM     37  CA  UNL     1      58.910  71.239  51.124  0.00  0.00    +0.000 C 
ATOM     38  CB  UNL     1      58.537  71.830  50.685  0.00  0.00    +0.000 C 
ATOM     39  CG  UNL     1      58.273  71.670  49.920  0.00  0.00    +0.000 C 
ATOM     40  CD1 UNL     1      58.341  70.950  49.524  0.00  0.00    +0.000 C 
ATOM     41  NE1 UNL     1      58.004  71.038  48.776  0.00  0.00    +0.000 NA
ATOM     42  CE2 UNL     1      57.726  71.813  48.711  0.00  0.00    +0.000 C 
ATOM     43  CD2 UNL     1      57.892  72.203  49.418  0.00  0.00    +0.000 C 
ATOM     44  CE3 UNL     1      57.676  72.993  49.513  0.00  0.00    +0.000 C 
ATOM     45  CZ3 UNL     1      57.294  73.393  48.901  0.00  0.00    +0.000 C 
ATOM     46  CH2 UNL     1      57.128  73.003  48.194  0.00  0.00    +0.000 C 
ATOM     47  CZ2 UNL     1      57.344  72.212  48.098  0.00  0.00    +0.000 C 
ATOM     48  N   UNL     1      59.175  71.399  51.889  0.00  0.00    +0.000 NA
ATOM     49  C   UNL     1      59.548  70.807  52.328  0.00  0.00    +0.000 C 
ATOM     50  O   UNL     1      59.655  70.057  52.002  0.00  0.00    +0.000 OA
ATOM     51  CA  UNL     1      59.813  70.967  53.093  0.00  0.00    +0.000 C 
ATOM     52  CB  UNL     1      59.705  71.717  53.419  0.00  0.00    +0.000 C 
ATOM     53  CG  UNL     1      59.333  72.308  52.980  0.00  0.00    +0.000 A 
ATOM     54  CD2 UNL     1      59.040  72.231  52.212  0.00  0.00    +0.000 A 
ATOM     55  NE2 UNL     1      58.714  72.955  51.989  0.00  0.00    +0.000 NA
ATOM     56  CE1 UNL     1      58.805  73.479  52.619  0.00  0.00    +0.000 A 
ATOM     57  ND1 UNL     1      59.187  73.080  53.232  0.00  0.00    +0.000 NA
ATOM     58  N   UNL     1      60.185  70.376  53.532  0.00  0.00    +0.000 NA
ATOM     59  C   UNL     1      60.450  70.536  54.297  0.00  0.00    +0.000 C 
ATOM     60  O   UNL     1      60.342  71.286  54.623  0.00  0.00    +0.000 OA
ATOM     61  CA  UNL     1      60.823  69.944  54.736  0.00  0.00    +0.000 C 
ATOM     62  C   UNL     1      61.115  70.022  55.503  0.00  0.00    +0.000 C 
ATOM     63  C   UNL     1      61.441  69.298  55.726  0.00  0.00    +0.000 C 
ATOM     64  C   UNL     1      61.351  68.772  55.096  0.00  0.00    +0.000 C 
ATOM     65  O   UNL     1      61.599  67.986  55.081  0.00  0.00    +0.000 OA
ATOM     66  N   UNL     1      60.968  69.172  54.484  0.00  0.00    +0.000 NA
ATOM     67  C   UNL     1      61.899  62.442  51.477  0.00  0.00    +0.000 C 
ATOM     68  O   UNL     1      61.634  62.283  50.712  0.00  0.00    +0.000 OA
ATOM     69  N   UNL     1      62.271  61.852  51.916  0.00  0.00    +0.000 NA
ATOM     70  C   UNL     1      62.379  61.101  51.590  0.00  0.00    +0.000 C 
ATOM     71  C   UNL     1      62.114  60.941  50.825  0.00  0.00    +0.000 C 
ATOM     72  C   UNL     1      62.222  60.191  50.499  0.00  0.00    +0.000 C 
ATOM     73  C   UNL     1      61.957  60.032  49.734  0.00  0.00    +0.000 C 
ATOM     74  N   UNL     1      62.064  59.282  49.408  0.00  0.00    +0.000 NA
ATOM     75  C   UNL     1      61.800  59.122  48.643  0.00  0.00    +0.000 C 
ATOM     76  N   UNL     1      61.427  59.714  48.204  0.00  0.00    +0.000 NA
ATOM     77  N   UNL     1      61.907  58.372  48.318  0.00  0.00    +0.000 NA
ATOM     78  C   UNL     1      62.752  60.510  52.029  0.00  0.00    +0.000 C 
ATOM     79  O   UNL     1      62.859  59.760  51.703  0.00  0.00    +0.000 OA
ATOM     80  N   UNL     1      63.017  60.670  52.794  0.00  0.00    +0.000 N 
ATOM     81  C   UNL     1      62.948  61.390  53.190  0.00  0.00    +0.000 C 
ATOM     82  C   UNL     1      63.286  61.302  53.938  0.00  0.00    +0.000 C 
ATOM     83  C   UNL     1      63.563  60.527  54.003  0.00  0.00    +0.000 C 
ATOM     84  C   UNL     1      63.397  60.137  53.296  0.00  0.00    +0.000 C 
ATOM     85  C   UNL     1      63.578  59.351  53.121  0.00  0.00    +0.000 C 
ATOM     86  O   UNL     1      63.962  58.882  53.682  0.00  0.00    +0.000 OA
ATOM     87  N   UNL     1      63.377  59.034  52.387  0.00  0.00    +0.000 NA
ATOM     88  N   UNL     1      63.559  58.248  52.213  0.00  0.00    +0.000 NA
ATOM     89  C   UNL     1      63.357  57.932  51.478  0.00  0.00    +0.000 C 
ATOM     90  N   UNL     1      63.539  57.146  51.304  0.00  0.00    +0.000 NA
ATOM     91  O   UNL     1      62.974  58.401  50.918  0.00  0.00    +0.000 OA
ENDROOT
TORSDOF 0
ENDMDL
