MODEL 1
REMARK VINA RESULT:    -9.909      0.000      0.000
REMARK INTER + INTRA:          -9.909
REMARK INTER:                  -9.909
REMARK INTRA:                   0.000
REMARK UNBOUND:                 0.000
ROOT
REMARK  Name = guaiacol carbonate
REMARK                            x       y       z     vdW  Elec       q    Type
REMARK                         _______ _______ _______ _____ _____    ______ ____
ATOM      1  C   UNL     1      62.422  61.638  64.933  0.00  0.00    +0.000 C 
ATOM      2  O   UNL     1      62.112  61.965  65.624  0.00  0.00    +0.000 OA
ATOM      3  C   UNL     1      61.297  61.952  65.756  0.00  0.00    +0.000 A 
ATOM      4  C   UNL     1      60.986  62.278  66.447  0.00  0.00    +0.000 A 
ATOM      5  O   UNL     1      61.489  62.618  67.006  0.00  0.00    +0.000 OA
ATOM      6  C   UNL     1      61.178  62.945  67.696  0.00  0.00    +0.000 C 
ATOM      7  O   UNL     1      60.364  62.932  67.828  0.00  0.00    +0.000 OA
ATOM      8  O   UNL     1      61.681  63.285  68.255  0.00  0.00    +0.000 OA
ATOM      9  C   UNL     1      61.370  63.611  68.945  0.00  0.00    +0.000 A 
ATOM     10  C   UNL     1      61.873  63.951  69.504  0.00  0.00    +0.000 A 
ATOM     11  O   UNL     1      62.687  63.964  69.372  0.00  0.00    +0.000 OA
ATOM     12  C   UNL     1      63.190  64.304  69.931  0.00  0.00    +0.000 C 
ATOM     13  C   UNL     1      61.561  64.278  70.195  0.00  0.00    +0.000 A 
ATOM     14  C   UNL     1      60.748  64.265  70.327  0.00  0.00    +0.000 A 
ATOM     15  C   UNL     1      60.245  63.925  69.768  0.00  0.00    +0.000 A 
ATOM     16  C   UNL     1      60.556  63.598  69.077  0.00  0.00    +0.000 A 
ATOM     17  C   UNL     1      60.172  62.265  66.578  0.00  0.00    +0.000 A 
ATOM     18  C   UNL     1      59.669  61.926  66.020  0.00  0.00    +0.000 A 
ATOM     19  C   UNL     1      59.981  61.599  65.329  0.00  0.00    +0.000 A 
ATOM     20  C   UNL     1      60.794  61.612  65.197  0.00  0.00    +0.000 A 
ENDROOT
TORSDOF 0
ENDMDL
MODEL 2
REMARK VINA RESULT:    -9.828      0.269      4.145
REMARK INTER + INTRA:          -9.828
REMARK INTER:                  -9.828
REMARK INTRA:                   0.000
REMARK UNBOUND:                 0.000
ROOT
REMARK  Name = guaiacol carbonate
REMARK                            x       y       z     vdW  Elec       q    Type
REMARK                         _______ _______ _______ _____ _____    ______ ____
ATOM      1  C   UNL     1      63.342  64.634  69.706  0.00  0.00    +0.000 C 
ATOM      2  O   UNL     1      62.819  64.262  69.187  0.00  0.00    +0.000 OA
ATOM      3  C   UNL     1      62.010  64.260  69.349  0.00  0.00    +0.000 A 
ATOM      4  C   UNL     1      61.486  63.888  68.832  0.00  0.00    +0.000 A 
ATOM      5  O   UNL     1      61.772  63.518  68.151  0.00  0.00    +0.000 OA
ATOM      6  C   UNL     1      61.248  63.147  67.634  0.00  0.00    +0.000 C 
ATOM      7  O   UNL     1      60.440  63.145  67.796  0.00  0.00    +0.000 OA
ATOM      8  O   UNL     1      61.533  62.777  66.953  0.00  0.00    +0.000 OA
ATOM      9  C   UNL     1      61.009  62.405  66.436  0.00  0.00    +0.000 A 
ATOM     10  C   UNL     1      61.295  62.035  65.755  0.00  0.00    +0.000 A 
ATOM     11  O   UNL     1      62.104  62.037  65.593  0.00  0.00    +0.000 OA
ATOM     12  C   UNL     1      62.389  61.668  64.913  0.00  0.00    +0.000 C 
ATOM     13  C   UNL     1      60.771  61.664  65.238  0.00  0.00    +0.000 A 
ATOM     14  C   UNL     1      59.963  61.662  65.400  0.00  0.00    +0.000 A 
ATOM     15  C   UNL     1      59.677  62.031  66.080  0.00  0.00    +0.000 A 
ATOM     16  C   UNL     1      60.201  62.403  66.598  0.00  0.00    +0.000 A 
ATOM     17  C   UNL     1      60.678  63.886  68.994  0.00  0.00    +0.000 A 
ATOM     18  C   UNL     1      60.392  64.256  69.674  0.00  0.00    +0.000 A 
ATOM     19  C   UNL     1      60.917  64.628  70.192  0.00  0.00    +0.000 A 
ATOM     20  C   UNL     1      61.725  64.630  70.030  0.00  0.00    +0.000 A 
ENDROOT
TORSDOF 0
ENDMDL
MODEL 3
REMARK VINA RESULT:    -9.472      1.351      2.687
REMARK INTER + INTRA:          -9.472
REMARK INTER:                  -9.472
REMARK INTRA:                   0.000
REMARK UNBOUND:                 0.000
ROOT
REMARK  Name = guaiacol carbonate
REMARK                            x       y       z     vdW  Elec       q    Type
REMARK                         _______ _______ _______ _____ _____    ______ ____
ATOM      1  C   UNL     1      61.481  62.747  66.477  0.00  0.00    +0.000 C 
ATOM      2  O   UNL     1      61.682  63.078  67.206  0.00  0.00    +0.000 OA
ATOM      3  C   UNL     1      61.298  62.827  67.892  0.00  0.00    +0.000 A 
ATOM      4  C   UNL     1      61.497  63.158  68.621  0.00  0.00    +0.000 A 
ATOM      5  O   UNL     1      62.082  63.739  68.664  0.00  0.00    +0.000 OA
ATOM      6  C   UNL     1      62.281  64.070  69.393  0.00  0.00    +0.000 C 
ATOM      7  O   UNL     1      61.898  63.819  70.078  0.00  0.00    +0.000 OA
ATOM      8  O   UNL     1      62.866  64.652  69.435  0.00  0.00    +0.000 OA
ATOM      9  C   UNL     1      63.065  64.982  70.164  0.00  0.00    +0.000 A 
ATOM     10  C   UNL     1      63.650  65.564  70.207  0.00  0.00    +0.000 A 
ATOM     11  O   UNL     1      64.033  65.814  69.521  0.00  0.00    +0.000 OA
ATOM     12  C   UNL     1      64.617  66.395  69.564  0.00  0.00    +0.000 C 
ATOM     13  C   UNL     1      63.849  65.894  70.936  0.00  0.00    +0.000 A 
ATOM     14  C   UNL     1      63.466  65.644  71.621  0.00  0.00    +0.000 A 
ATOM     15  C   UNL     1      62.882  65.062  71.579  0.00  0.00    +0.000 A 
ATOM     16  C   UNL     1      62.682  64.732  70.849  0.00  0.00    +0.000 A 
ATOM     17  C   UNL     1      61.114  62.907  69.306  0.00  0.00    +0.000 A 
ATOM     18  C   UNL     1      60.530  62.326  69.264  0.00  0.00    +0.000 A 
ATOM     19  C   UNL     1      60.330  61.995  68.534  0.00  0.00    +0.000 A 
ATOM     20  C   UNL     1      60.713  62.246  67.849  0.00  0.00    +0.000 A 
ENDROOT
TORSDOF 0
ENDMDL
MODEL 4
REMARK VINA RESULT:    -9.471      1.235      4.506
REMARK INTER + INTRA:          -9.471
REMARK INTER:                  -9.471
REMARK INTRA:                   0.000
REMARK UNBOUND:                 0.000
ROOT
REMARK  Name = guaiacol carbonate
REMARK                            x       y       z     vdW  Elec       q    Type
REMARK                         _______ _______ _______ _____ _____    ______ ____
ATOM      1  C   UNL     1      64.642  66.074  69.476  0.00  0.00    +0.000 C 
ATOM      2  O   UNL     1      64.027  65.533  69.374  0.00  0.00    +0.000 OA
ATOM      3  C   UNL     1      63.591  65.277  70.026  0.00  0.00    +0.000 A 
ATOM      4  C   UNL     1      62.977  64.736  69.925  0.00  0.00    +0.000 A 
ATOM      5  O   UNL     1      62.798  64.451  69.171  0.00  0.00    +0.000 OA
ATOM      6  C   UNL     1      62.183  63.910  69.070  0.00  0.00    +0.000 C 
ATOM      7  O   UNL     1      61.748  63.654  69.721  0.00  0.00    +0.000 OA
ATOM      8  O   UNL     1      62.004  63.625  68.316  0.00  0.00    +0.000 OA
ATOM      9  C   UNL     1      61.390  63.084  68.215  0.00  0.00    +0.000 A 
ATOM     10  C   UNL     1      61.211  62.799  67.461  0.00  0.00    +0.000 A 
ATOM     11  O   UNL     1      61.647  63.055  66.809  0.00  0.00    +0.000 OA
ATOM     12  C   UNL     1      61.468  62.770  66.057  0.00  0.00    +0.000 C 
ATOM     13  C   UNL     1      60.596  62.259  67.361  0.00  0.00    +0.000 A 
ATOM     14  C   UNL     1      60.161  62.003  68.012  0.00  0.00    +0.000 A 
ATOM     15  C   UNL     1      60.339  62.287  68.765  0.00  0.00    +0.000 A 
ATOM     16  C   UNL     1      60.954  62.829  68.867  0.00  0.00    +0.000 A 
ATOM     17  C   UNL     1      62.541  64.480  70.576  0.00  0.00    +0.000 A 
ATOM     18  C   UNL     1      62.719  64.765  71.329  0.00  0.00    +0.000 A 
ATOM     19  C   UNL     1      63.335  65.306  71.431  0.00  0.00    +0.000 A 
ATOM     20  C   UNL     1      63.770  65.562  70.780  0.00  0.00    +0.000 A 
ENDROOT
TORSDOF 0
ENDMDL
MODEL 5
REMARK VINA RESULT:    -9.230      3.902      6.322
REMARK INTER + INTRA:          -9.230
REMARK INTER:                  -9.230
REMARK INTRA:                   0.000
REMARK UNBOUND:                 0.000
ROOT
REMARK  Name = guaiacol carbonate
REMARK                            x       y       z     vdW  Elec       q    Type
REMARK                         _______ _______ _______ _____ _____    ______ ____
ATOM      1  C   UNL     1      66.827  66.571  72.500  0.00  0.00    +0.000 C 
ATOM      2  O   UNL     1      66.150  66.372  72.073  0.00  0.00    +0.000 OA
ATOM      3  C   UNL     1      66.019  66.707  71.330  0.00  0.00    +0.000 A 
ATOM      4  C   UNL     1      65.343  66.509  70.902  0.00  0.00    +0.000 A 
ATOM      5  O   UNL     1      64.797  65.975  71.216  0.00  0.00    +0.000 OA
ATOM      6  C   UNL     1      64.121  65.777  70.787  0.00  0.00    +0.000 C 
ATOM      7  O   UNL     1      63.990  66.112  70.046  0.00  0.00    +0.000 OA
ATOM      8  O   UNL     1      63.575  65.242  71.102  0.00  0.00    +0.000 OA
ATOM      9  C   UNL     1      62.899  65.044  70.673  0.00  0.00    +0.000 A 
ATOM     10  C   UNL     1      62.354  64.510  70.988  0.00  0.00    +0.000 A 
ATOM     11  O   UNL     1      62.485  64.175  71.730  0.00  0.00    +0.000 OA
ATOM     12  C   UNL     1      61.941  63.642  72.043  0.00  0.00    +0.000 C 
ATOM     13  C   UNL     1      61.678  64.312  70.559  0.00  0.00    +0.000 A 
ATOM     14  C   UNL     1      61.546  64.647  69.817  0.00  0.00    +0.000 A 
ATOM     15  C   UNL     1      62.091  65.180  69.503  0.00  0.00    +0.000 A 
ATOM     16  C   UNL     1      62.768  65.379  69.932  0.00  0.00    +0.000 A 
ATOM     17  C   UNL     1      65.211  66.844  70.160  0.00  0.00    +0.000 A 
ATOM     18  C   UNL     1      65.756  67.378  69.846  0.00  0.00    +0.000 A 
ATOM     19  C   UNL     1      66.433  67.576  70.275  0.00  0.00    +0.000 A 
ATOM     20  C   UNL     1      66.564  67.242  71.016  0.00  0.00    +0.000 A 
ENDROOT
TORSDOF 0
ENDMDL
MODEL 6
REMARK VINA RESULT:    -9.228      3.800      5.656
REMARK INTER + INTRA:          -9.228
REMARK INTER:                  -9.228
REMARK INTRA:                   0.000
REMARK UNBOUND:                 0.000
ROOT
REMARK  Name = guaiacol carbonate
REMARK                            x       y       z     vdW  Elec       q    Type
REMARK                         _______ _______ _______ _____ _____    ______ ____
ATOM      1  C   UNL     1      61.918  63.617  71.906  0.00  0.00    +0.000 C 
ATOM      2  O   UNL     1      62.467  64.156  71.609  0.00  0.00    +0.000 OA
ATOM      3  C   UNL     1      62.358  64.484  70.860  0.00  0.00    +0.000 A 
ATOM      4  C   UNL     1      62.906  65.024  70.562  0.00  0.00    +0.000 A 
ATOM      5  O   UNL     1      63.565  65.234  71.013  0.00  0.00    +0.000 OA
ATOM      6  C   UNL     1      64.113  65.773  70.715  0.00  0.00    +0.000 C 
ATOM      7  O   UNL     1      64.004  66.102  69.967  0.00  0.00    +0.000 OA
ATOM      8  O   UNL     1      64.772  65.984  71.167  0.00  0.00    +0.000 OA
ATOM      9  C   UNL     1      65.320  66.523  70.868  0.00  0.00    +0.000 A 
ATOM     10  C   UNL     1      65.978  66.734  71.320  0.00  0.00    +0.000 A 
ATOM     11  O   UNL     1      66.087  66.405  72.069  0.00  0.00    +0.000 OA
ATOM     12  C   UNL     1      66.745  66.616  72.519  0.00  0.00    +0.000 C 
ATOM     13  C   UNL     1      66.527  67.273  71.022  0.00  0.00    +0.000 A 
ATOM     14  C   UNL     1      66.418  67.601  70.274  0.00  0.00    +0.000 A 
ATOM     15  C   UNL     1      65.760  67.391  69.822  0.00  0.00    +0.000 A 
ATOM     16  C   UNL     1      65.211  66.851  70.120  0.00  0.00    +0.000 A 
ATOM     17  C   UNL     1      62.798  65.352  69.814  0.00  0.00    +0.000 A 
ATOM     18  C   UNL     1      62.140  65.142  69.362  0.00  0.00    +0.000 A 
ATOM     19  C   UNL     1      61.591  64.602  69.660  0.00  0.00    +0.000 A 
ATOM     20  C   UNL     1      61.700  64.274  70.408  0.00  0.00    +0.000 A 
ENDROOT
TORSDOF 0
ENDMDL
MODEL 7
REMARK VINA RESULT:    -8.835      3.606      6.369
REMARK INTER + INTRA:          -8.835
REMARK INTER:                  -8.835
REMARK INTRA:                   0.000
REMARK UNBOUND:                 0.000
ROOT
REMARK  Name = guaiacol carbonate
REMARK                            x       y       z     vdW  Elec       q    Type
REMARK                         _______ _______ _______ _____ _____    ______ ____
ATOM      1  C   UNL     1      66.422  67.984  69.546  0.00  0.00    +0.000 C 
ATOM      2  O   UNL     1      65.835  67.492  69.854  0.00  0.00    +0.000 OA
ATOM      3  C   UNL     1      65.932  67.151  70.599  0.00  0.00    +0.000 A 
ATOM      4  C   UNL     1      65.347  66.659  70.907  0.00  0.00    +0.000 A 
ATOM      5  O   UNL     1      64.663  66.508  70.470  0.00  0.00    +0.000 OA
ATOM      6  C   UNL     1      64.077  66.016  70.779  0.00  0.00    +0.000 C 
ATOM      7  O   UNL     1      64.174  65.676  71.523  0.00  0.00    +0.000 OA
ATOM      8  O   UNL     1      63.393  65.865  70.342  0.00  0.00    +0.000 OA
ATOM      9  C   UNL     1      62.807  65.373  70.650  0.00  0.00    +0.000 A 
ATOM     10  C   UNL     1      62.123  65.222  70.213  0.00  0.00    +0.000 A 
ATOM     11  O   UNL     1      62.026  65.563  69.468  0.00  0.00    +0.000 OA
ATOM     12  C   UNL     1      61.343  65.412  69.032  0.00  0.00    +0.000 C 
ATOM     13  C   UNL     1      61.538  64.730  70.522  0.00  0.00    +0.000 A 
ATOM     14  C   UNL     1      61.635  64.390  71.266  0.00  0.00    +0.000 A 
ATOM     15  C   UNL     1      62.318  64.540  71.703  0.00  0.00    +0.000 A 
ATOM     16  C   UNL     1      62.904  65.033  71.394  0.00  0.00    +0.000 A 
ATOM     17  C   UNL     1      65.444  66.319  71.651  0.00  0.00    +0.000 A 
ATOM     18  C   UNL     1      66.127  66.469  72.088  0.00  0.00    +0.000 A 
ATOM     19  C   UNL     1      66.713  66.962  71.780  0.00  0.00    +0.000 A 
ATOM     20  C   UNL     1      66.616  67.302  71.036  0.00  0.00    +0.000 A 
ENDROOT
TORSDOF 0
ENDMDL
MODEL 8
REMARK VINA RESULT:    -8.817      3.357      4.503
REMARK INTER + INTRA:          -8.817
REMARK INTER:                  -8.817
REMARK INTRA:                   0.000
REMARK UNBOUND:                 0.000
ROOT
REMARK  Name = guaiacol carbonate
REMARK                            x       y       z     vdW  Elec       q    Type
REMARK                         _______ _______ _______ _____ _____    ______ ____
ATOM      1  C   UNL     1      61.631  62.301  72.836  0.00  0.00    +0.000 C 
ATOM      2  O   UNL     1      61.333  62.848  72.295  0.00  0.00    +0.000 OA
ATOM      3  C   UNL     1      61.069  62.595  71.556  0.00  0.00    +0.000 A 
ATOM      4  C   UNL     1      60.772  63.141  71.014  0.00  0.00    +0.000 A 
ATOM      5  O   UNL     1      60.738  63.942  71.213  0.00  0.00    +0.000 OA
ATOM      6  C   UNL     1      60.441  64.488  70.671  0.00  0.00    +0.000 C 
ATOM      7  O   UNL     1      60.177  64.235  69.932  0.00  0.00    +0.000 OA
ATOM      8  O   UNL     1      60.407  65.289  70.869  0.00  0.00    +0.000 OA
ATOM      9  C   UNL     1      60.110  65.836  70.328  0.00  0.00    +0.000 A 
ATOM     10  C   UNL     1      60.076  66.636  70.526  0.00  0.00    +0.000 A 
ATOM     11  O   UNL     1      60.340  66.890  71.266  0.00  0.00    +0.000 OA
ATOM     12  C   UNL     1      60.306  67.689  71.463  0.00  0.00    +0.000 C 
ATOM     13  C   UNL     1      59.778  67.183  69.984  0.00  0.00    +0.000 A 
ATOM     14  C   UNL     1      59.515  66.930  69.246  0.00  0.00    +0.000 A 
ATOM     15  C   UNL     1      59.548  66.130  69.047  0.00  0.00    +0.000 A 
ATOM     16  C   UNL     1      59.846  65.583  69.589  0.00  0.00    +0.000 A 
ATOM     17  C   UNL     1      60.508  62.888  70.275  0.00  0.00    +0.000 A 
ATOM     18  C   UNL     1      60.542  62.089  70.077  0.00  0.00    +0.000 A 
ATOM     19  C   UNL     1      60.840  61.541  70.619  0.00  0.00    +0.000 A 
ATOM     20  C   UNL     1      61.103  61.794  71.357  0.00  0.00    +0.000 A 
ENDROOT
TORSDOF 0
ENDMDL
MODEL 9
REMARK VINA RESULT:    -8.702      4.227      5.506
REMARK INTER + INTRA:          -8.702
REMARK INTER:                  -8.702
REMARK INTRA:                   0.000
REMARK UNBOUND:                 0.000
ROOT
REMARK  Name = guaiacol carbonate
REMARK                            x       y       z     vdW  Elec       q    Type
REMARK                         _______ _______ _______ _____ _____    ______ ____
ATOM      1  C   UNL     1      59.410  65.039  73.003  0.00  0.00    +0.000 C 
ATOM      2  O   UNL     1      60.155  65.034  72.646  0.00  0.00    +0.000 OA
ATOM      3  C   UNL     1      60.389  64.389  72.189  0.00  0.00    +0.000 A 
ATOM      4  C   UNL     1      61.132  64.383  71.832  0.00  0.00    +0.000 A 
ATOM      5  O   UNL     1      61.643  65.024  71.934  0.00  0.00    +0.000 OA
ATOM      6  C   UNL     1      62.387  65.019  71.578  0.00  0.00    +0.000 C 
ATOM      7  O   UNL     1      62.620  64.374  71.120  0.00  0.00    +0.000 OA
ATOM      8  O   UNL     1      62.898  65.659  71.679  0.00  0.00    +0.000 OA
ATOM      9  C   UNL     1      63.642  65.654  71.323  0.00  0.00    +0.000 A 
ATOM     10  C   UNL     1      64.152  66.294  71.425  0.00  0.00    +0.000 A 
ATOM     11  O   UNL     1      63.918  66.940  71.882  0.00  0.00    +0.000 OA
ATOM     12  C   UNL     1      64.429  67.579  71.984  0.00  0.00    +0.000 C 
ATOM     13  C   UNL     1      64.896  66.289  71.068  0.00  0.00    +0.000 A 
ATOM     14  C   UNL     1      65.130  65.644  70.611  0.00  0.00    +0.000 A 
ATOM     15  C   UNL     1      64.620  65.004  70.509  0.00  0.00    +0.000 A 
ATOM     16  C   UNL     1      63.875  65.009  70.866  0.00  0.00    +0.000 A 
ATOM     17  C   UNL     1      61.366  63.739  71.375  0.00  0.00    +0.000 A 
ATOM     18  C   UNL     1      60.856  63.099  71.273  0.00  0.00    +0.000 A 
ATOM     19  C   UNL     1      60.111  63.104  71.630  0.00  0.00    +0.000 A 
ATOM     20  C   UNL     1      59.878  63.748  72.087  0.00  0.00    +0.000 A 
ENDROOT
TORSDOF 0
ENDMDL
