MODEL 1
REMARK VINA RESULT:    -6.379      0.000      0.000
REMARK INTER + INTRA:          -6.379
REMARK INTER:                  -6.379
REMARK INTRA:                   0.000
REMARK UNBOUND:                 0.000
ROOT
REMARK  Name = guancidine
REMARK                            x       y       z     vdW  Elec       q    Type
REMARK                         _______ _______ _______ _____ _____    ______ ____
ATOM      1  C   UNL     1      62.402  61.728  63.935  0.00  0.00    +0.000 C 
ATOM      2  C   UNL     1      62.330  62.115  64.660  0.00  0.00    +0.000 C 
ATOM      3  C   UNL     1      61.631  62.054  65.092  0.00  0.00    +0.000 C 
ATOM      4  C   UNL     1      61.309  61.573  64.504  0.00  0.00    +0.000 C 
ATOM      5  C   UNL     1      61.952  62.536  65.679  0.00  0.00    +0.000 C 
ATOM      6  N   UNL     1      60.932  61.994  65.523  0.00  0.00    +0.000 NA
ATOM      7  C   UNL     1      60.860  62.381  66.249  0.00  0.00    +0.000 C 
ATOM      8  N   UNL     1      61.487  62.828  66.542  0.00  0.00    +0.000 NA
ATOM      9  N   UNL     1      60.159  62.320  66.681  0.00  0.00    +0.000 NA
ATOM     10  C   UNL     1      60.087  62.707  67.406  0.00  0.00    +0.000 C 
ATOM     11  N   UNL     1      60.015  63.094  68.132  0.00  0.00    +0.000 NA
ENDROOT
TORSDOF 0
ENDMDL
MODEL 2
REMARK VINA RESULT:    -5.982      1.042      3.090
REMARK INTER + INTRA:          -5.982
REMARK INTER:                  -5.982
REMARK INTRA:                   0.000
REMARK UNBOUND:                 0.000
ROOT
REMARK  Name = guancidine
REMARK                            x       y       z     vdW  Elec       q    Type
REMARK                         _______ _______ _______ _____ _____    ______ ____
ATOM      1  C   UNL     1      60.105  62.750  67.763  0.00  0.00    +0.000 C 
ATOM      2  C   UNL     1      60.191  62.378  67.032  0.00  0.00    +0.000 C 
ATOM      3  C   UNL     1      60.873  62.499  66.586  0.00  0.00    +0.000 C 
ATOM      4  C   UNL     1      61.169  62.999  67.172  0.00  0.00    +0.000 C 
ATOM      5  C   UNL     1      60.578  62.000  66.000  0.00  0.00    +0.000 C 
ATOM      6  N   UNL     1      61.556  62.620  66.140  0.00  0.00    +0.000 NA
ATOM      7  C   UNL     1      61.642  62.248  65.408  0.00  0.00    +0.000 C 
ATOM      8  N   UNL     1      61.045  61.755  65.123  0.00  0.00    +0.000 NA
ATOM      9  N   UNL     1      62.325  62.369  64.961  0.00  0.00    +0.000 NA
ATOM     10  C   UNL     1      62.411  61.997  64.230  0.00  0.00    +0.000 C 
ATOM     11  N   UNL     1      62.497  61.625  63.499  0.00  0.00    +0.000 NA
ENDROOT
TORSDOF 0
ENDMDL
MODEL 3
REMARK VINA RESULT:    -5.708      2.055      4.134
REMARK INTER + INTRA:          -5.708
REMARK INTER:                  -5.708
REMARK INTRA:                   0.000
REMARK UNBOUND:                 0.000
ROOT
REMARK  Name = guancidine
REMARK                            x       y       z     vdW  Elec       q    Type
REMARK                         _______ _______ _______ _____ _____    ______ ____
ATOM      1  C   UNL     1      60.473  62.090  70.966  0.00  0.00    +0.000 C 
ATOM      2  C   UNL     1      60.387  61.918  70.163  0.00  0.00    +0.000 C 
ATOM      3  C   UNL     1      60.739  62.404  69.598  0.00  0.00    +0.000 C 
ATOM      4  C   UNL     1      61.042  62.883  70.197  0.00  0.00    +0.000 C 
ATOM      5  C   UNL     1      60.437  61.926  68.998  0.00  0.00    +0.000 C 
ATOM      6  N   UNL     1      61.091  62.890  69.033  0.00  0.00    +0.000 NA
ATOM      7  C   UNL     1      61.005  62.718  68.229  0.00  0.00    +0.000 C 
ATOM      8  N   UNL     1      60.567  62.061  67.993  0.00  0.00    +0.000 NA
ATOM      9  N   UNL     1      61.358  63.205  67.664  0.00  0.00    +0.000 NA
ATOM     10  C   UNL     1      61.272  63.034  66.862  0.00  0.00    +0.000 C 
ATOM     11  N   UNL     1      61.186  62.862  66.059  0.00  0.00    +0.000 NA
ENDROOT
TORSDOF 0
ENDMDL
MODEL 4
REMARK VINA RESULT:    -5.668      1.703      2.402
REMARK INTER + INTRA:          -5.668
REMARK INTER:                  -5.668
REMARK INTRA:                   0.000
REMARK UNBOUND:                 0.000
ROOT
REMARK  Name = guancidine
REMARK                            x       y       z     vdW  Elec       q    Type
REMARK                         _______ _______ _______ _____ _____    ______ ____
ATOM      1  C   UNL     1      59.547  61.799  65.792  0.00  0.00    +0.000 C 
ATOM      2  C   UNL     1      60.264  62.096  66.072  0.00  0.00    +0.000 C 
ATOM      3  C   UNL     1      60.300  62.455  66.813  0.00  0.00    +0.000 C 
ATOM      4  C   UNL     1      59.493  62.320  66.918  0.00  0.00    +0.000 C 
ATOM      5  C   UNL     1      61.106  62.591  66.708  0.00  0.00    +0.000 C 
ATOM      6  N   UNL     1      60.336  62.815  67.554  0.00  0.00    +0.000 NA
ATOM      7  C   UNL     1      61.054  63.112  67.834  0.00  0.00    +0.000 C 
ATOM      8  N   UNL     1      61.734  63.050  67.373  0.00  0.00    +0.000 NA
ATOM      9  N   UNL     1      61.089  63.472  68.576  0.00  0.00    +0.000 NA
ATOM     10  C   UNL     1      61.806  63.769  68.856  0.00  0.00    +0.000 C 
ATOM     11  N   UNL     1      62.523  64.066  69.136  0.00  0.00    +0.000 NA
ENDROOT
TORSDOF 0
ENDMDL
MODEL 5
REMARK VINA RESULT:    -5.601      6.306      7.066
REMARK INTER + INTRA:          -5.601
REMARK INTER:                  -5.601
REMARK INTRA:                   0.000
REMARK UNBOUND:                 0.000
ROOT
REMARK  Name = guancidine
REMARK                            x       y       z     vdW  Elec       q    Type
REMARK                         _______ _______ _______ _____ _____    ______ ____
ATOM      1  C   UNL     1      66.295  67.756  70.272  0.00  0.00    +0.000 C 
ATOM      2  C   UNL     1      65.758  67.266  69.882  0.00  0.00    +0.000 C 
ATOM      3  C   UNL     1      65.386  66.654  70.290  0.00  0.00    +0.000 C 
ATOM      4  C   UNL     1      65.791  66.866  70.977  0.00  0.00    +0.000 C 
ATOM      5  C   UNL     1      64.981  66.442  69.604  0.00  0.00    +0.000 C 
ATOM      6  N   UNL     1      65.014  66.042  70.699  0.00  0.00    +0.000 NA
ATOM      7  C   UNL     1      64.477  65.552  70.308  0.00  0.00    +0.000 C 
ATOM      8  N   UNL     1      64.312  65.674  69.509  0.00  0.00    +0.000 NA
ATOM      9  N   UNL     1      64.105  64.939  70.717  0.00  0.00    +0.000 NA
ATOM     10  C   UNL     1      63.568  64.450  70.327  0.00  0.00    +0.000 C 
ATOM     11  N   UNL     1      63.031  63.960  69.936  0.00  0.00    +0.000 NA
ENDROOT
TORSDOF 0
ENDMDL
MODEL 6
REMARK VINA RESULT:    -5.495     17.995     18.454
REMARK INTER + INTRA:          -5.495
REMARK INTER:                  -5.495
REMARK INTRA:                   0.000
REMARK UNBOUND:                 0.000
ROOT
REMARK  Name = guancidine
REMARK                            x       y       z     vdW  Elec       q    Type
REMARK                         _______ _______ _______ _____ _____    ______ ____
ATOM      1  C   UNL     1      66.422  76.980  60.113  0.00  0.00    +0.000 C 
ATOM      2  C   UNL     1      65.759  77.356  59.796  0.00  0.00    +0.000 C 
ATOM      3  C   UNL     1      65.826  78.118  59.488  0.00  0.00    +0.000 C 
ATOM      4  C   UNL     1      66.629  78.124  59.675  0.00  0.00    +0.000 C 
ATOM      5  C   UNL     1      65.023  78.112  59.300  0.00  0.00    +0.000 C 
ATOM      6  N   UNL     1      65.892  78.879  59.179  0.00  0.00    +0.000 NA
ATOM      7  C   UNL     1      65.229  79.255  58.862  0.00  0.00    +0.000 C 
ATOM      8  N   UNL     1      64.500  78.869  58.854  0.00  0.00    +0.000 NA
ATOM      9  N   UNL     1      65.296  80.018  58.553  0.00  0.00    +0.000 NA
ATOM     10  C   UNL     1      64.633  80.394  58.237  0.00  0.00    +0.000 C 
ATOM     11  N   UNL     1      63.971  80.770  57.920  0.00  0.00    +0.000 NA
ENDROOT
TORSDOF 0
ENDMDL
MODEL 7
REMARK VINA RESULT:    -5.360      6.242      6.826
REMARK INTER + INTRA:          -5.360
REMARK INTER:                  -5.360
REMARK INTRA:                   0.000
REMARK UNBOUND:                 0.000
ROOT
REMARK  Name = guancidine
REMARK                            x       y       z     vdW  Elec       q    Type
REMARK                         _______ _______ _______ _____ _____    ______ ____
ATOM      1  C   UNL     1      61.658  62.394  72.646  0.00  0.00    +0.000 C 
ATOM      2  C   UNL     1      61.403  63.168  72.775  0.00  0.00    +0.000 C 
ATOM      3  C   UNL     1      60.842  63.505  72.275  0.00  0.00    +0.000 C 
ATOM      4  C   UNL     1      60.810  62.807  71.837  0.00  0.00    +0.000 C 
ATOM      5  C   UNL     1      60.873  64.204  72.711  0.00  0.00    +0.000 C 
ATOM      6  N   UNL     1      60.280  63.843  71.775  0.00  0.00    +0.000 NA
ATOM      7  C   UNL     1      60.025  64.618  71.903  0.00  0.00    +0.000 C 
ATOM      8  N   UNL     1      60.333  65.054  72.532  0.00  0.00    +0.000 NA
ATOM      9  N   UNL     1      59.463  64.955  71.403  0.00  0.00    +0.000 NA
ATOM     10  C   UNL     1      59.208  65.730  71.531  0.00  0.00    +0.000 C 
ATOM     11  N   UNL     1      58.954  66.504  71.660  0.00  0.00    +0.000 NA
ENDROOT
TORSDOF 0
ENDMDL
MODEL 8
REMARK VINA RESULT:    -5.119     24.600     25.105
REMARK INTER + INTRA:          -5.119
REMARK INTER:                  -5.119
REMARK INTRA:                   0.000
REMARK UNBOUND:                 0.000
ROOT
REMARK  Name = guancidine
REMARK                            x       y       z     vdW  Elec       q    Type
REMARK                         _______ _______ _______ _____ _____    ______ ____
ATOM      1  C   UNL     1      71.070  78.436  48.559  0.00  0.00    +0.000 C 
ATOM      2  C   UNL     1      71.133  79.116  49.021  0.00  0.00    +0.000 C 
ATOM      3  C   UNL     1      70.643  79.217  49.676  0.00  0.00    +0.000 C 
ATOM      4  C   UNL     1      70.286  78.489  49.522  0.00  0.00    +0.000 C 
ATOM      5  C   UNL     1      70.999  79.944  49.832  0.00  0.00    +0.000 C 
ATOM      6  N   UNL     1      70.152  79.317  50.331  0.00  0.00    +0.000 NA
ATOM      7  C   UNL     1      70.216  79.998  50.794  0.00  0.00    +0.000 C 
ATOM      8  N   UNL     1      70.769  80.578  50.601  0.00  0.00    +0.000 NA
ATOM      9  N   UNL     1      69.725  80.098  51.450  0.00  0.00    +0.000 NA
ATOM     10  C   UNL     1      69.788  80.779  51.912  0.00  0.00    +0.000 C 
ATOM     11  N   UNL     1      69.851  81.459  52.374  0.00  0.00    +0.000 NA
ENDROOT
TORSDOF 0
ENDMDL
MODEL 9
REMARK VINA RESULT:    -5.075     12.248     12.835
REMARK INTER + INTRA:          -5.075
REMARK INTER:                  -5.075
REMARK INTRA:                   0.000
REMARK UNBOUND:                 0.000
ROOT
REMARK  Name = guancidine
REMARK                            x       y       z     vdW  Elec       q    Type
REMARK                         _______ _______ _______ _____ _____    ______ ____
ATOM      1  C   UNL     1      63.333  58.601  53.337  0.00  0.00    +0.000 C 
ATOM      2  C   UNL     1      63.744  59.265  53.071  0.00  0.00    +0.000 C 
ATOM      3  C   UNL     1      63.812  59.929  53.555  0.00  0.00    +0.000 C 
ATOM      4  C   UNL     1      63.377  59.547  54.142  0.00  0.00    +0.000 C 
ATOM      5  C   UNL     1      64.246  60.312  52.968  0.00  0.00    +0.000 C 
ATOM      6  N   UNL     1      63.879  60.593  54.039  0.00  0.00    +0.000 NA
ATOM      7  C   UNL     1      64.290  61.258  53.772  0.00  0.00    +0.000 C 
ATOM      8  N   UNL     1      64.633  61.258  53.022  0.00  0.00    +0.000 NA
ATOM      9  N   UNL     1      64.358  61.922  54.257  0.00  0.00    +0.000 NA
ATOM     10  C   UNL     1      64.769  62.587  53.991  0.00  0.00    +0.000 C 
ATOM     11  N   UNL     1      65.179  63.251  53.724  0.00  0.00    +0.000 NA
ENDROOT
TORSDOF 0
ENDMDL
