MODEL 1
REMARK VINA RESULT:    -5.346      0.000      0.000
REMARK INTER + INTRA:          -5.346
REMARK INTER:                  -5.346
REMARK INTRA:                   0.000
REMARK UNBOUND:                 0.000
ROOT
REMARK  Name = halothane
REMARK                            x       y       z     vdW  Elec       q    Type
REMARK                         _______ _______ _______ _____ _____    ______ ____
ATOM      1  F   UNL     1      65.782  76.553  60.490  0.00  0.00    +0.000 F 
ATOM      2  C   UNL     1      66.035  77.237  60.106  0.00  0.00    +0.000 C 
ATOM      3  F   UNL     1      65.254  77.418  59.912  0.00  0.00    +0.000 F 
ATOM      4  F   UNL     1      66.817  77.057  60.299  0.00  0.00    +0.000 F 
ATOM      5  C   UNL     1      66.289  77.922  59.721  0.00  0.00    +0.000 C 
ATOM      6 CL   UNL     1      67.093  78.108  59.696  0.00  0.00    +0.000 Cl
ATOM      7 BR   UNL     1      65.739  78.420  59.361  0.00  0.00    +0.000 Br
ENDROOT
TORSDOF 0
ENDMDL
MODEL 2
REMARK VINA RESULT:    -5.025     16.829     17.024
REMARK INTER + INTRA:          -5.025
REMARK INTER:                  -5.025
REMARK INTRA:                   0.000
REMARK UNBOUND:                 0.000
ROOT
REMARK  Name = halothane
REMARK                            x       y       z     vdW  Elec       q    Type
REMARK                         _______ _______ _______ _____ _____    ______ ____
ATOM      1  F   UNL     1      62.609  61.585  63.136  0.00  0.00    +0.000 F 
ATOM      2  C   UNL     1      62.179  61.629  63.838  0.00  0.00    +0.000 C 
ATOM      3  F   UNL     1      62.812  62.014  64.202  0.00  0.00    +0.000 F 
ATOM      4  F   UNL     1      61.546  61.245  63.476  0.00  0.00    +0.000 F 
ATOM      5  C   UNL     1      61.749  61.674  64.542  0.00  0.00    +0.000 C 
ATOM      6 CL   UNL     1      60.985  61.363  64.578  0.00  0.00    +0.000 Cl
ATOM      7 BR   UNL     1      62.082  62.029  65.207  0.00  0.00    +0.000 Br
ENDROOT
TORSDOF 0
ENDMDL
MODEL 3
REMARK VINA RESULT:    -4.981     17.029     17.216
REMARK INTER + INTRA:          -4.981
REMARK INTER:                  -4.981
REMARK INTRA:                   0.000
REMARK UNBOUND:                 0.000
ROOT
REMARK  Name = halothane
REMARK                            x       y       z     vdW  Elec       q    Type
REMARK                         _______ _______ _______ _____ _____    ______ ____
ATOM      1  F   UNL     1      60.616  60.927  64.110  0.00  0.00    +0.000 F 
ATOM      2  C   UNL     1      61.334  61.328  64.169  0.00  0.00    +0.000 C 
ATOM      3  F   UNL     1      61.182  61.485  64.965  0.00  0.00    +0.000 F 
ATOM      4  F   UNL     1      61.488  61.172  63.374  0.00  0.00    +0.000 F 
ATOM      5  C   UNL     1      62.053  61.729  64.229  0.00  0.00    +0.000 C 
ATOM      6 CL   UNL     1      62.545  61.794  63.569  0.00  0.00    +0.000 Cl
ATOM      7 BR   UNL     1      62.280  62.066  64.947  0.00  0.00    +0.000 Br
ENDROOT
TORSDOF 0
ENDMDL
MODEL 4
REMARK VINA RESULT:    -4.628     14.801     15.015
REMARK INTER + INTRA:          -4.628
REMARK INTER:                  -4.628
REMARK INTRA:                   0.000
REMARK UNBOUND:                 0.000
ROOT
REMARK  Name = halothane
REMARK                            x       y       z     vdW  Elec       q    Type
REMARK                         _______ _______ _______ _____ _____    ______ ____
ATOM      1  F   UNL     1      58.737  74.351  72.634  0.00  0.00    +0.000 F 
ATOM      2  C   UNL     1      58.444  75.118  72.557  0.00  0.00    +0.000 C 
ATOM      3  F   UNL     1      59.214  75.406  72.492  0.00  0.00    +0.000 F 
ATOM      4  F   UNL     1      57.673  74.831  72.623  0.00  0.00    +0.000 F 
ATOM      5  C   UNL     1      58.151  75.886  72.480  0.00  0.00    +0.000 C 
ATOM      6 CL   UNL     1      57.336  76.021  72.498  0.00  0.00    +0.000 Cl
ATOM      7 BR   UNL     1      58.672  76.519  72.385  0.00  0.00    +0.000 Br
ENDROOT
TORSDOF 0
ENDMDL
MODEL 5
REMARK VINA RESULT:    -4.436     14.250     14.570
REMARK INTER + INTRA:          -4.436
REMARK INTER:                  -4.436
REMARK INTRA:                   0.000
REMARK UNBOUND:                 0.000
ROOT
REMARK  Name = halothane
REMARK                            x       y       z     vdW  Elec       q    Type
REMARK                         _______ _______ _______ _____ _____    ______ ____
ATOM      1  F   UNL     1      66.349  68.146  69.518  0.00  0.00    +0.000 F 
ATOM      2  C   UNL     1      65.988  67.570  69.985  0.00  0.00    +0.000 C 
ATOM      3  F   UNL     1      66.323  67.907  70.660  0.00  0.00    +0.000 F 
ATOM      4  F   UNL     1      65.653  67.232  69.312  0.00  0.00    +0.000 F 
ATOM      5  C   UNL     1      65.627  66.993  70.453  0.00  0.00    +0.000 C 
ATOM      6 CL   UNL     1      65.156  66.413  70.103  0.00  0.00    +0.000 Cl
ATOM      7 BR   UNL     1      65.736  66.998  71.271  0.00  0.00    +0.000 Br
ENDROOT
TORSDOF 0
ENDMDL
MODEL 6
REMARK VINA RESULT:    -4.255     11.411     11.581
REMARK INTER + INTRA:          -4.255
REMARK INTER:                  -4.255
REMARK INTRA:                   0.000
REMARK UNBOUND:                 0.000
ROOT
REMARK  Name = halothane
REMARK                            x       y       z     vdW  Elec       q    Type
REMARK                         _______ _______ _______ _____ _____    ______ ____
ATOM      1  F   UNL     1      69.789  78.111  49.933  0.00  0.00    +0.000 F 
ATOM      2  C   UNL     1      70.397  78.499  49.534  0.00  0.00    +0.000 C 
ATOM      3  F   UNL     1      70.115  79.224  49.809  0.00  0.00    +0.000 F 
ATOM      4  F   UNL     1      70.679  77.775  49.257  0.00  0.00    +0.000 F 
ATOM      5  C   UNL     1      71.006  78.888  49.134  0.00  0.00    +0.000 C 
ATOM      6 CL   UNL     1      71.554  78.454  48.695  0.00  0.00    +0.000 Cl
ATOM      7 BR   UNL     1      71.066  79.710  49.173  0.00  0.00    +0.000 Br
ENDROOT
TORSDOF 0
ENDMDL
MODEL 7
REMARK VINA RESULT:    -4.225     17.615     17.834
REMARK INTER + INTRA:          -4.225
REMARK INTER:                  -4.225
REMARK INTRA:                   0.000
REMARK UNBOUND:                 0.000
ROOT
REMARK  Name = halothane
REMARK                            x       y       z     vdW  Elec       q    Type
REMARK                         _______ _______ _______ _____ _____    ______ ____
ATOM      1  F   UNL     1      59.006  61.727  65.608  0.00  0.00    +0.000 F 
ATOM      2  C   UNL     1      59.537  62.075  66.135  0.00  0.00    +0.000 C 
ATOM      3  F   UNL     1      60.151  61.950  65.598  0.00  0.00    +0.000 F 
ATOM      4  F   UNL     1      58.924  62.199  66.672  0.00  0.00    +0.000 F 
ATOM      5  C   UNL     1      60.069  62.422  66.662  0.00  0.00    +0.000 C 
ATOM      6 CL   UNL     1      59.803  62.704  67.391  0.00  0.00    +0.000 Cl
ATOM      7 BR   UNL     1      60.866  62.488  66.460  0.00  0.00    +0.000 Br
ENDROOT
TORSDOF 0
ENDMDL
MODEL 8
REMARK VINA RESULT:    -4.175     19.824     20.021
REMARK INTER + INTRA:          -4.175
REMARK INTER:                  -4.175
REMARK INTRA:                   0.000
REMARK UNBOUND:                 0.000
ROOT
REMARK  Name = halothane
REMARK                            x       y       z     vdW  Elec       q    Type
REMARK                         _______ _______ _______ _____ _____    ______ ____
ATOM      1  F   UNL     1      62.023  61.887  73.164  0.00  0.00    +0.000 F 
ATOM      2  C   UNL     1      61.642  62.395  72.638  0.00  0.00    +0.000 C 
ATOM      3  F   UNL     1      61.612  62.977  73.222  0.00  0.00    +0.000 F 
ATOM      4  F   UNL     1      61.671  61.814  72.054  0.00  0.00    +0.000 F 
ATOM      5  C   UNL     1      61.260  62.904  72.113  0.00  0.00    +0.000 C 
ATOM      6 CL   UNL     1      61.094  62.655  71.343  0.00  0.00    +0.000 Cl
ATOM      7 BR   UNL     1      61.044  63.663  72.356  0.00  0.00    +0.000 Br
ENDROOT
TORSDOF 0
ENDMDL
MODEL 9
REMARK VINA RESULT:    -3.490     15.645     15.981
REMARK INTER + INTRA:          -3.490
REMARK INTER:                  -3.490
REMARK INTRA:                   0.000
REMARK UNBOUND:                 0.000
ROOT
REMARK  Name = halothane
REMARK                            x       y       z     vdW  Elec       q    Type
REMARK                         _______ _______ _______ _____ _____    ______ ____
ATOM      1  F   UNL     1      65.342  65.566  71.409  0.00  0.00    +0.000 F 
ATOM      2  C   UNL     1      64.959  65.557  70.680  0.00  0.00    +0.000 C 
ATOM      3  F   UNL     1      64.726  64.776  70.811  0.00  0.00    +0.000 F 
ATOM      4  F   UNL     1      65.191  66.337  70.547  0.00  0.00    +0.000 F 
ATOM      5  C   UNL     1      64.575  65.547  69.948  0.00  0.00    +0.000 C 
ATOM      6 CL   UNL     1      64.585  66.218  69.468  0.00  0.00    +0.000 Cl
ATOM      7 BR   UNL     1      64.182  64.866  69.698  0.00  0.00    +0.000 Br
ENDROOT
TORSDOF 0
ENDMDL
