MODEL 1
REMARK VINA RESULT:   -10.848      0.000      0.000
REMARK INTER + INTRA:         -10.848
REMARK INTER:                 -10.848
REMARK INTRA:                   0.000
REMARK UNBOUND:                 0.000
ROOT
REMARK  Name = heptabarb
REMARK                            x       y       z     vdW  Elec       q    Type
REMARK                         _______ _______ _______ _____ _____    ______ ____
ATOM      1  C   UNL     1      60.229  61.551  65.251  0.00  0.00    +0.000 C 
ATOM      2  C   UNL     1      60.067  61.939  65.961  0.00  0.00    +0.000 C 
ATOM      3  C   UNL     1      60.651  62.396  66.322  0.00  0.00    +0.000 C 
ATOM      4  C   UNL     1      61.378  62.762  66.453  0.00  0.00    +0.000 C 
ATOM      5  O   UNL     1      61.995  62.660  65.915  0.00  0.00    +0.000 OA
ATOM      6  N   UNL     1      61.489  63.231  67.123  0.00  0.00    +0.000 NA
ATOM      7  C   UNL     1      60.873  63.333  67.662  0.00  0.00    +0.000 C 
ATOM      8  O   UNL     1      60.984  63.802  68.332  0.00  0.00    +0.000 OA
ATOM      9  N   UNL     1      60.145  62.967  67.530  0.00  0.00    +0.000 NA
ATOM     10  C   UNL     1      60.034  62.498  66.861  0.00  0.00    +0.000 C 
ATOM     11  O   UNL     1      59.307  62.132  66.730  0.00  0.00    +0.000 OA
ATOM     12  C   UNL     1      61.065  62.135  65.658  0.00  0.00    +0.000 C 
ATOM     13  C   UNL     1      60.645  61.645  65.144  0.00  0.00    +0.000 C 
ATOM     14  C   UNL     1      60.900  61.297  64.441  0.00  0.00    +0.000 C 
ATOM     15  C   UNL     1      61.639  61.353  64.078  0.00  0.00    +0.000 C 
ATOM     16  C   UNL     1      62.304  61.772  64.329  0.00  0.00    +0.000 C 
ATOM     17  C   UNL     1      62.395  62.236  65.003  0.00  0.00    +0.000 C 
ATOM     18  C   UNL     1      61.844  62.398  65.595  0.00  0.00    +0.000 C 
ENDROOT
TORSDOF 0
ENDMDL
MODEL 2
REMARK VINA RESULT:   -10.313      1.621      3.222
REMARK INTER + INTRA:         -10.313
REMARK INTER:                 -10.313
REMARK INTRA:                   0.000
REMARK UNBOUND:                 0.000
ROOT
REMARK  Name = heptabarb
REMARK                            x       y       z     vdW  Elec       q    Type
REMARK                         _______ _______ _______ _____ _____    ______ ____
ATOM      1  C   UNL     1      61.559  62.734  66.496  0.00  0.00    +0.000 C 
ATOM      2  C   UNL     1      61.879  62.457  65.789  0.00  0.00    +0.000 C 
ATOM      3  C   UNL     1      61.410  62.023  65.266  0.00  0.00    +0.000 C 
ATOM      4  C   UNL     1      60.751  61.640  64.952  0.00  0.00    +0.000 C 
ATOM      5  O   UNL     1      60.039  61.633  65.369  0.00  0.00    +0.000 OA
ATOM      6  N   UNL     1      60.804  61.263  64.220  0.00  0.00    +0.000 NA
ATOM      7  C   UNL     1      61.515  61.268  63.802  0.00  0.00    +0.000 C 
ATOM      8  O   UNL     1      61.567  60.891  63.071  0.00  0.00    +0.000 OA
ATOM      9  N   UNL     1      62.175  61.652  64.118  0.00  0.00    +0.000 NA
ATOM     10  C   UNL     1      62.122  62.029  64.849  0.00  0.00    +0.000 C 
ATOM     11  O   UNL     1      62.781  62.412  65.164  0.00  0.00    +0.000 OA
ATOM     12  C   UNL     1      60.861  62.167  65.865  0.00  0.00    +0.000 C 
ATOM     13  C   UNL     1      61.139  62.604  66.508  0.00  0.00    +0.000 C 
ATOM     14  C   UNL     1      60.731  62.837  67.186  0.00  0.00    +0.000 C 
ATOM     15  C   UNL     1      59.945  62.691  67.389  0.00  0.00    +0.000 C 
ATOM     16  C   UNL     1      59.372  62.276  66.964  0.00  0.00    +0.000 C 
ATOM     17  C   UNL     1      59.445  61.905  66.231  0.00  0.00    +0.000 C 
ATOM     18  C   UNL     1      60.107  61.856  65.742  0.00  0.00    +0.000 C 
ENDROOT
TORSDOF 0
ENDMDL
MODEL 3
REMARK VINA RESULT:    -9.549      5.330      6.381
REMARK INTER + INTRA:          -9.549
REMARK INTER:                  -9.549
REMARK INTRA:                   0.000
REMARK UNBOUND:                 0.000
ROOT
REMARK  Name = heptabarb
REMARK                            x       y       z     vdW  Elec       q    Type
REMARK                         _______ _______ _______ _____ _____    ______ ____
ATOM      1  C   UNL     1      61.619  63.019  72.479  0.00  0.00    +0.000 C 
ATOM      2  C   UNL     1      61.260  63.745  72.636  0.00  0.00    +0.000 C 
ATOM      3  C   UNL     1      60.566  63.955  72.241  0.00  0.00    +0.000 C 
ATOM      4  C   UNL     1      59.920  63.907  71.731  0.00  0.00    +0.000 C 
ATOM      5  O   UNL     1      59.814  63.238  71.260  0.00  0.00    +0.000 OA
ATOM      6  N   UNL     1      59.379  64.528  71.692  0.00  0.00    +0.000 NA
ATOM      7  C   UNL     1      59.484  65.198  72.162  0.00  0.00    +0.000 C 
ATOM      8  O   UNL     1      58.943  65.819  72.123  0.00  0.00    +0.000 OA
ATOM      9  N   UNL     1      60.131  65.245  72.673  0.00  0.00    +0.000 NA
ATOM     10  C   UNL     1      60.672  64.624  72.712  0.00  0.00    +0.000 C 
ATOM     11  O   UNL     1      61.318  64.672  73.222  0.00  0.00    +0.000 OA
ATOM     12  C   UNL     1      60.702  63.213  71.908  0.00  0.00    +0.000 C 
ATOM     13  C   UNL     1      61.373  62.816  72.176  0.00  0.00    +0.000 C 
ATOM     14  C   UNL     1      61.657  62.075  71.953  0.00  0.00    +0.000 C 
ATOM     15  C   UNL     1      61.339  61.545  71.406  0.00  0.00    +0.000 C 
ATOM     16  C   UNL     1      60.658  61.628  70.946  0.00  0.00    +0.000 C 
ATOM     17  C   UNL     1      60.129  62.259  70.921  0.00  0.00    +0.000 C 
ATOM     18  C   UNL     1      60.148  62.964  71.349  0.00  0.00    +0.000 C 
ENDROOT
TORSDOF 0
ENDMDL
MODEL 4
REMARK VINA RESULT:    -9.416      2.838      4.755
REMARK INTER + INTRA:          -9.416
REMARK INTER:                  -9.416
REMARK INTRA:                   0.000
REMARK UNBOUND:                 0.000
ROOT
REMARK  Name = heptabarb
REMARK                            x       y       z     vdW  Elec       q    Type
REMARK                         _______ _______ _______ _____ _____    ______ ____
ATOM      1  C   UNL     1      60.502  61.906  70.753  0.00  0.00    +0.000 C 
ATOM      2  C   UNL     1      60.499  61.977  69.931  0.00  0.00    +0.000 C 
ATOM      3  C   UNL     1      60.932  62.578  69.567  0.00  0.00    +0.000 C 
ATOM      4  C   UNL     1      61.425  63.233  69.479  0.00  0.00    +0.000 C 
ATOM      5  O   UNL     1      61.750  63.599  70.143  0.00  0.00    +0.000 OA
ATOM      6  N   UNL     1      61.594  63.523  68.725  0.00  0.00    +0.000 NA
ATOM      7  C   UNL     1      61.270  63.158  68.060  0.00  0.00    +0.000 C 
ATOM      8  O   UNL     1      61.440  63.448  67.306  0.00  0.00    +0.000 OA
ATOM      9  N   UNL     1      60.777  62.502  68.149  0.00  0.00    +0.000 NA
ATOM     10  C   UNL     1      60.608  62.212  68.903  0.00  0.00    +0.000 C 
ATOM     11  O   UNL     1      60.115  61.557  68.991  0.00  0.00    +0.000 OA
ATOM     12  C   UNL     1      61.106  62.734  70.358  0.00  0.00    +0.000 C 
ATOM     13  C   UNL     1      60.758  62.228  70.909  0.00  0.00    +0.000 C 
ATOM     14  C   UNL     1      60.823  62.239  71.731  0.00  0.00    +0.000 C 
ATOM     15  C   UNL     1      61.252  62.759  72.207  0.00  0.00    +0.000 C 
ATOM     16  C   UNL     1      61.722  63.397  71.976  0.00  0.00    +0.000 C 
ATOM     17  C   UNL     1      61.879  63.671  71.215  0.00  0.00    +0.000 C 
ATOM     18  C   UNL     1      61.605  63.377  70.495  0.00  0.00    +0.000 C 
ENDROOT
TORSDOF 0
ENDMDL
MODEL 5
REMARK VINA RESULT:    -9.118      3.893      5.336
REMARK INTER + INTRA:          -9.118
REMARK INTER:                  -9.118
REMARK INTRA:                   0.000
REMARK UNBOUND:                 0.000
ROOT
REMARK  Name = heptabarb
REMARK                            x       y       z     vdW  Elec       q    Type
REMARK                         _______ _______ _______ _____ _____    ______ ____
ATOM      1  C   UNL     1      60.806  61.968  71.416  0.00  0.00    +0.000 C 
ATOM      2  C   UNL     1      61.146  62.554  71.888  0.00  0.00    +0.000 C 
ATOM      3  C   UNL     1      61.420  63.252  71.544  0.00  0.00    +0.000 C 
ATOM      4  C   UNL     1      61.597  63.814  70.968  0.00  0.00    +0.000 C 
ATOM      5  O   UNL     1      61.415  63.667  70.177  0.00  0.00    +0.000 OA
ATOM      6  N   UNL     1      61.958  64.525  71.182  0.00  0.00    +0.000 NA
ATOM      7  C   UNL     1      62.141  64.673  71.973  0.00  0.00    +0.000 C 
ATOM      8  O   UNL     1      62.501  65.384  72.187  0.00  0.00    +0.000 OA
ATOM      9  N   UNL     1      61.963  64.110  72.550  0.00  0.00    +0.000 NA
ATOM     10  C   UNL     1      61.603  63.399  72.335  0.00  0.00    +0.000 C 
ATOM     11  O   UNL     1      61.425  62.837  72.911  0.00  0.00    +0.000 OA
ATOM     12  C   UNL     1      61.142  62.862  70.873  0.00  0.00    +0.000 C 
ATOM     13  C   UNL     1      60.815  62.116  71.002  0.00  0.00    +0.000 C 
ATOM     14  C   UNL     1      60.493  61.593  70.451  0.00  0.00    +0.000 C 
ATOM     15  C   UNL     1      60.418  61.687  69.635  0.00  0.00    +0.000 C 
ATOM     16  C   UNL     1      60.648  62.328  69.168  0.00  0.00    +0.000 C 
ATOM     17  C   UNL     1      61.008  63.031  69.402  0.00  0.00    +0.000 C 
ATOM     18  C   UNL     1      61.228  63.269  70.160  0.00  0.00    +0.000 C 
ENDROOT
TORSDOF 0
ENDMDL
MODEL 6
REMARK VINA RESULT:    -9.047      5.727      7.124
REMARK INTER + INTRA:          -9.047
REMARK INTER:                  -9.047
REMARK INTRA:                   0.000
REMARK UNBOUND:                 0.000
ROOT
REMARK  Name = heptabarb
REMARK                            x       y       z     vdW  Elec       q    Type
REMARK                         _______ _______ _______ _____ _____    ______ ____
ATOM      1  C   UNL     1      64.986  66.056  69.747  0.00  0.00    +0.000 C 
ATOM      2  C   UNL     1      64.396  65.498  69.893  0.00  0.00    +0.000 C 
ATOM      3  C   UNL     1      63.976  65.520  70.604  0.00  0.00    +0.000 C 
ATOM      4  C   UNL     1      63.732  65.765  71.352  0.00  0.00    +0.000 C 
ATOM      5  O   UNL     1      64.091  66.416  71.712  0.00  0.00    +0.000 OA
ATOM      6  N   UNL     1      63.128  65.360  71.741  0.00  0.00    +0.000 NA
ATOM      7  C   UNL     1      62.768  64.710  71.383  0.00  0.00    +0.000 C 
ATOM      8  O   UNL     1      62.164  64.305  71.772  0.00  0.00    +0.000 OA
ATOM      9  N   UNL     1      63.013  64.465  70.633  0.00  0.00    +0.000 NA
ATOM     10  C   UNL     1      63.617  64.870  70.244  0.00  0.00    +0.000 C 
ATOM     11  O   UNL     1      63.862  64.625  69.496  0.00  0.00    +0.000 OA
ATOM     12  C   UNL     1      64.481  66.163  70.716  0.00  0.00    +0.000 C 
ATOM     13  C   UNL     1      65.005  66.319  70.098  0.00  0.00    +0.000 C 
ATOM     14  C   UNL     1      65.572  66.915  70.043  0.00  0.00    +0.000 C 
ATOM     15  C   UNL     1      65.757  67.503  70.593  0.00  0.00    +0.000 C 
ATOM     16  C   UNL     1      65.419  67.638  71.334  0.00  0.00    +0.000 C 
ATOM     17  C   UNL     1      64.814  67.220  71.706  0.00  0.00    +0.000 C 
ATOM     18  C   UNL     1      64.397  66.564  71.432  0.00  0.00    +0.000 C 
ENDROOT
TORSDOF 0
ENDMDL
MODEL 7
REMARK VINA RESULT:    -8.723     24.725     25.601
REMARK INTER + INTRA:          -8.723
REMARK INTER:                  -8.723
REMARK INTRA:                   0.000
REMARK UNBOUND:                 0.000
ROOT
REMARK  Name = heptabarb
REMARK                            x       y       z     vdW  Elec       q    Type
REMARK                         _______ _______ _______ _____ _____    ______ ____
ATOM      1  C   UNL     1      70.576  78.687  49.081  0.00  0.00    +0.000 C 
ATOM      2  C   UNL     1      70.168  79.020  49.715  0.00  0.00    +0.000 C 
ATOM      3  C   UNL     1      70.532  79.595  50.183  0.00  0.00    +0.000 C 
ATOM      4  C   UNL     1      71.106  80.116  50.463  0.00  0.00    +0.000 C 
ATOM      5  O   UNL     1      71.839  80.164  50.088  0.00  0.00    +0.000 OA
ATOM      6  N   UNL     1      70.946  80.591  51.119  0.00  0.00    +0.000 NA
ATOM      7  C   UNL     1      70.214  80.544  51.495  0.00  0.00    +0.000 C 
ATOM      8  O   UNL     1      70.054  81.018  52.150  0.00  0.00    +0.000 OA
ATOM      9  N   UNL     1      69.639  80.022  51.214  0.00  0.00    +0.000 NA
ATOM     10  C   UNL     1      69.798  79.547  50.558  0.00  0.00    +0.000 C 
ATOM     11  O   UNL     1      69.225  79.026  50.277  0.00  0.00    +0.000 OA
ATOM     12  C   UNL     1      71.139  79.443  49.645  0.00  0.00    +0.000 C 
ATOM     13  C   UNL     1      70.974  78.875  49.070  0.00  0.00    +0.000 C 
ATOM     14  C   UNL     1      71.459  78.603  48.461  0.00  0.00    +0.000 C 
ATOM     15  C   UNL     1      72.231  78.831  48.278  0.00  0.00    +0.000 C 
ATOM     16  C   UNL     1      72.707  79.388  48.658  0.00  0.00    +0.000 C 
ATOM     17  C   UNL     1      72.529  79.853  49.314  0.00  0.00    +0.000 C 
ATOM     18  C   UNL     1      71.831  79.878  49.754  0.00  0.00    +0.000 C 
ENDROOT
TORSDOF 0
ENDMDL
MODEL 8
REMARK VINA RESULT:    -8.681      3.618      4.718
REMARK INTER + INTRA:          -8.681
REMARK INTER:                  -8.681
REMARK INTRA:                   0.000
REMARK UNBOUND:                 0.000
ROOT
REMARK  Name = heptabarb
REMARK                            x       y       z     vdW  Elec       q    Type
REMARK                         _______ _______ _______ _____ _____    ______ ____
ATOM      1  C   UNL     1      60.575  62.709  69.165  0.00  0.00    +0.000 C 
ATOM      2  C   UNL     1      60.381  63.494  69.000  0.00  0.00    +0.000 C 
ATOM      3  C   UNL     1      60.219  64.016  69.619  0.00  0.00    +0.000 C 
ATOM      4  C   UNL     1      60.111  64.299  70.385  0.00  0.00    +0.000 C 
ATOM      5  O   UNL     1      60.211  63.794  71.030  0.00  0.00    +0.000 OA
ATOM      6  N   UNL     1      59.902  65.088  70.508  0.00  0.00    +0.000 NA
ATOM      7  C   UNL     1      59.802  65.593  69.864  0.00  0.00    +0.000 C 
ATOM      8  O   UNL     1      59.593  66.382  69.987  0.00  0.00    +0.000 OA
ATOM      9  N   UNL     1      59.910  65.309  69.096  0.00  0.00    +0.000 NA
ATOM     10  C   UNL     1      60.118  64.521  68.974  0.00  0.00    +0.000 C 
ATOM     11  O   UNL     1      60.226  64.237  68.207  0.00  0.00    +0.000 OA
ATOM     12  C   UNL     1      60.375  63.329  70.048  0.00  0.00    +0.000 C 
ATOM     13  C   UNL     1      60.567  62.663  69.602  0.00  0.00    +0.000 C 
ATOM     14  C   UNL     1      60.750  61.903  69.864  0.00  0.00    +0.000 C 
ATOM     15  C   UNL     1      60.787  61.621  70.639  0.00  0.00    +0.000 C 
ATOM     16  C   UNL     1      60.650  62.030  71.342  0.00  0.00    +0.000 C 
ATOM     17  C   UNL     1      60.442  62.821  71.444  0.00  0.00    +0.000 C 
ATOM     18  C   UNL     1      60.320  63.399  70.869  0.00  0.00    +0.000 C 
ENDROOT
TORSDOF 0
ENDMDL
MODEL 9
REMARK VINA RESULT:    -8.666      1.487      2.603
REMARK INTER + INTRA:          -8.666
REMARK INTER:                  -8.666
REMARK INTRA:                   0.000
REMARK UNBOUND:                 0.000
ROOT
REMARK  Name = heptabarb
REMARK                            x       y       z     vdW  Elec       q    Type
REMARK                         _______ _______ _______ _____ _____    ______ ____
ATOM      1  C   UNL     1      61.577  62.990  66.852  0.00  0.00    +0.000 C 
ATOM      2  C   UNL     1      61.651  63.189  67.649  0.00  0.00    +0.000 C 
ATOM      3  C   UNL     1      61.034  63.027  68.172  0.00  0.00    +0.000 C 
ATOM      4  C   UNL     1      60.304  62.765  68.452  0.00  0.00    +0.000 C 
ATOM      5  O   UNL     1      59.763  62.419  67.935  0.00  0.00    +0.000 OA
ATOM      6  N   UNL     1      60.114  62.849  69.251  0.00  0.00    +0.000 NA
ATOM      7  C   UNL     1      60.654  63.195  69.769  0.00  0.00    +0.000 C 
ATOM      8  O   UNL     1      60.465  63.279  70.568  0.00  0.00    +0.000 OA
ATOM      9  N   UNL     1      61.385  63.458  69.489  0.00  0.00    +0.000 NA
ATOM     10  C   UNL     1      61.575  63.374  68.690  0.00  0.00    +0.000 C 
ATOM     11  O   UNL     1      62.304  63.636  68.410  0.00  0.00    +0.000 OA
ATOM     12  C   UNL     1      60.707  62.737  67.472  0.00  0.00    +0.000 C 
ATOM     13  C   UNL     1      61.182  62.805  66.801  0.00  0.00    +0.000 C 
ATOM     14  C   UNL     1      61.016  62.571  66.028  0.00  0.00    +0.000 C 
ATOM     15  C   UNL     1      60.334  62.209  65.735  0.00  0.00    +0.000 C 
ATOM     16  C   UNL     1      59.650  61.994  66.143  0.00  0.00    +0.000 C 
ATOM     17  C   UNL     1      59.479  62.087  66.944  0.00  0.00    +0.000 C 
ATOM     18  C   UNL     1      59.949  62.417  67.536  0.00  0.00    +0.000 C 
ENDROOT
TORSDOF 0
ENDMDL
