MODEL 1
REMARK VINA RESULT:    -8.529      0.000      0.000
REMARK INTER + INTRA:          -8.529
REMARK INTER:                  -8.529
REMARK INTRA:                   0.000
REMARK UNBOUND:                 0.000
ROOT
REMARK  Name = hexcarbacholine
REMARK                            x       y       z     vdW  Elec       q    Type
REMARK                         _______ _______ _______ _____ _____    ______ ____
ATOM      1  C   UNL     1      61.933  70.626  55.188  0.00  0.00    +0.000 C 
ATOM      2  N   UNL     1      61.613  69.918  54.911  0.00  0.00    +0.000 N 
ATOM      3  C   UNL     1      62.346  69.552  54.997  0.00  0.00    +0.000 C 
ATOM      4  C   UNL     1      60.878  70.286  54.825  0.00  0.00    +0.000 C 
ATOM      5  C   UNL     1      61.291  69.211  54.634  0.00  0.00    +0.000 C 
ATOM      6  C   UNL     1      61.767  68.539  54.570  0.00  0.00    +0.000 C 
ATOM      7  O   UNL     1      61.445  67.832  54.292  0.00  0.00    +0.000 OA
ATOM      8  C   UNL     1      61.921  67.160  54.228  0.00  0.00    +0.000 C 
ATOM      9  O   UNL     1      62.717  67.196  54.442  0.00  0.00    +0.000 OA
ATOM     10  N   UNL     1      61.599  66.453  53.951  0.00  0.00    +0.000 NA
ATOM     11  C   UNL     1      62.075  65.782  53.887  0.00  0.00    +0.000 C 
ATOM     12  C   UNL     1      61.753  65.074  53.609  0.00  0.00    +0.000 C 
ATOM     13  C   UNL     1      62.229  64.403  53.545  0.00  0.00    +0.000 C 
ATOM     14  C   UNL     1      61.907  63.695  53.268  0.00  0.00    +0.000 C 
ATOM     15  C   UNL     1      62.383  63.024  53.204  0.00  0.00    +0.000 C 
ATOM     16  C   UNL     1      62.061  62.316  52.926  0.00  0.00    +0.000 C 
ATOM     17  N   UNL     1      62.537  61.645  52.862  0.00  0.00    +0.000 NA
ATOM     18  C   UNL     1      62.215  60.937  52.585  0.00  0.00    +0.000 C 
ATOM     19  O   UNL     1      61.419  60.901  52.371  0.00  0.00    +0.000 OA
ATOM     20  O   UNL     1      62.691  60.266  52.521  0.00  0.00    +0.000 OA
ATOM     21  C   UNL     1      62.369  59.558  52.243  0.00  0.00    +0.000 C 
ATOM     22  C   UNL     1      62.845  58.887  52.180  0.00  0.00    +0.000 C 
ATOM     23  N   UNL     1      62.523  58.179  51.902  0.00  0.00    +0.000 N 
ATOM     24  C   UNL     1      62.203  57.472  51.625  0.00  0.00    +0.000 C 
ATOM     25  C   UNL     1      63.258  57.813  51.988  0.00  0.00    +0.000 C 
ATOM     26  C   UNL     1      61.790  58.546  51.816  0.00  0.00    +0.000 C 
ENDROOT
TORSDOF 0
ENDMDL
MODEL 2
REMARK VINA RESULT:    -8.502      0.113      8.894
REMARK INTER + INTRA:          -8.502
REMARK INTER:                  -8.502
REMARK INTRA:                   0.000
REMARK UNBOUND:                 0.000
ROOT
REMARK  Name = hexcarbacholine
REMARK                            x       y       z     vdW  Elec       q    Type
REMARK                         _______ _______ _______ _____ _____    ______ ____
ATOM      1  C   UNL     1      62.372  57.497  51.534  0.00  0.00    +0.000 C 
ATOM      2  N   UNL     1      62.681  58.209  51.814  0.00  0.00    +0.000 N 
ATOM      3  C   UNL     1      61.941  58.562  51.732  0.00  0.00    +0.000 C 
ATOM      4  C   UNL     1      63.422  57.855  51.896  0.00  0.00    +0.000 C 
ATOM      5  C   UNL     1      62.990  58.920  52.094  0.00  0.00    +0.000 C 
ATOM      6  C   UNL     1      62.503  59.583  52.163  0.00  0.00    +0.000 C 
ATOM      7  O   UNL     1      62.812  60.295  52.443  0.00  0.00    +0.000 OA
ATOM      8  C   UNL     1      62.325  60.957  52.512  0.00  0.00    +0.000 C 
ATOM      9  O   UNL     1      61.528  60.908  52.301  0.00  0.00    +0.000 OA
ATOM     10  N   UNL     1      62.634  61.669  52.792  0.00  0.00    +0.000 NA
ATOM     11  C   UNL     1      62.146  62.331  52.861  0.00  0.00    +0.000 C 
ATOM     12  C   UNL     1      62.456  63.043  53.141  0.00  0.00    +0.000 C 
ATOM     13  C   UNL     1      61.968  63.705  53.210  0.00  0.00    +0.000 C 
ATOM     14  C   UNL     1      62.278  64.417  53.490  0.00  0.00    +0.000 C 
ATOM     15  C   UNL     1      61.790  65.079  53.559  0.00  0.00    +0.000 C 
ATOM     16  C   UNL     1      62.100  65.792  53.839  0.00  0.00    +0.000 C 
ATOM     17  N   UNL     1      61.612  66.453  53.908  0.00  0.00    +0.000 NA
ATOM     18  C   UNL     1      61.921  67.166  54.188  0.00  0.00    +0.000 C 
ATOM     19  O   UNL     1      62.717  67.216  54.398  0.00  0.00    +0.000 OA
ATOM     20  O   UNL     1      61.434  67.828  54.257  0.00  0.00    +0.000 OA
ATOM     21  C   UNL     1      61.743  68.540  54.537  0.00  0.00    +0.000 C 
ATOM     22  C   UNL     1      61.256  69.202  54.606  0.00  0.00    +0.000 C 
ATOM     23  N   UNL     1      61.565  69.914  54.886  0.00  0.00    +0.000 N 
ATOM     24  C   UNL     1      61.874  70.626  55.165  0.00  0.00    +0.000 C 
ATOM     25  C   UNL     1      60.824  70.267  54.804  0.00  0.00    +0.000 C 
ATOM     26  C   UNL     1      62.306  69.560  54.967  0.00  0.00    +0.000 C 
ENDROOT
TORSDOF 0
ENDMDL
MODEL 3
REMARK VINA RESULT:    -8.482      2.583      3.975
REMARK INTER + INTRA:          -8.482
REMARK INTER:                  -8.482
REMARK INTRA:                   0.000
REMARK UNBOUND:                 0.000
ROOT
REMARK  Name = hexcarbacholine
REMARK                            x       y       z     vdW  Elec       q    Type
REMARK                         _______ _______ _______ _____ _____    ______ ____
ATOM      1  C   UNL     1      58.502  73.537  54.569  0.00  0.00    +0.000 C 
ATOM      2  N   UNL     1      58.779  72.885  54.145  0.00  0.00    +0.000 N 
ATOM      3  C   UNL     1      59.033  72.536  54.847  0.00  0.00    +0.000 C 
ATOM      4  C   UNL     1      58.524  73.236  53.442  0.00  0.00    +0.000 C 
ATOM      5  C   UNL     1      59.055  72.235  53.720  0.00  0.00    +0.000 C 
ATOM      6  C   UNL     1      59.415  71.606  54.116  0.00  0.00    +0.000 C 
ATOM      7  O   UNL     1      59.691  70.955  53.691  0.00  0.00    +0.000 OA
ATOM      8  C   UNL     1      60.050  70.326  54.088  0.00  0.00    +0.000 C 
ATOM      9  O   UNL     1      60.133  70.349  54.908  0.00  0.00    +0.000 OA
ATOM     10  N   UNL     1      60.327  69.676  53.663  0.00  0.00    +0.000 NA
ATOM     11  C   UNL     1      60.686  69.048  54.059  0.00  0.00    +0.000 C 
ATOM     12  C   UNL     1      60.963  68.396  53.634  0.00  0.00    +0.000 C 
ATOM     13  C   UNL     1      61.321  67.768  54.031  0.00  0.00    +0.000 C 
ATOM     14  C   UNL     1      61.598  67.117  53.606  0.00  0.00    +0.000 C 
ATOM     15  C   UNL     1      61.957  66.489  54.002  0.00  0.00    +0.000 C 
ATOM     16  C   UNL     1      62.234  65.837  53.577  0.00  0.00    +0.000 C 
ATOM     17  N   UNL     1      62.593  65.209  53.974  0.00  0.00    +0.000 NA
ATOM     18  C   UNL     1      62.870  64.558  53.549  0.00  0.00    +0.000 C 
ATOM     19  O   UNL     1      62.788  64.535  52.728  0.00  0.00    +0.000 OA
ATOM     20  O   UNL     1      63.229  63.930  53.945  0.00  0.00    +0.000 OA
ATOM     21  C   UNL     1      63.506  63.278  53.520  0.00  0.00    +0.000 C 
ATOM     22  C   UNL     1      63.864  62.650  53.917  0.00  0.00    +0.000 C 
ATOM     23  N   UNL     1      64.141  61.999  53.492  0.00  0.00    +0.000 N 
ATOM     24  C   UNL     1      64.418  61.348  53.068  0.00  0.00    +0.000 C 
ATOM     25  C   UNL     1      64.396  61.650  54.195  0.00  0.00    +0.000 C 
ATOM     26  C   UNL     1      63.886  62.349  52.790  0.00  0.00    +0.000 C 
ENDROOT
TORSDOF 0
ENDMDL
MODEL 4
REMARK VINA RESULT:    -8.426      2.516      9.351
REMARK INTER + INTRA:          -8.426
REMARK INTER:                  -8.426
REMARK INTRA:                   0.000
REMARK UNBOUND:                 0.000
ROOT
REMARK  Name = hexcarbacholine
REMARK                            x       y       z     vdW  Elec       q    Type
REMARK                         _______ _______ _______ _____ _____    ______ ____
ATOM      1  C   UNL     1      64.313  61.283  52.967  0.00  0.00    +0.000 C 
ATOM      2  N   UNL     1      64.050  61.935  53.399  0.00  0.00    +0.000 N 
ATOM      3  C   UNL     1      63.788  62.291  52.703  0.00  0.00    +0.000 C 
ATOM      4  C   UNL     1      64.313  61.579  54.096  0.00  0.00    +0.000 C 
ATOM      5  C   UNL     1      63.788  62.587  53.831  0.00  0.00    +0.000 C 
ATOM      6  C   UNL     1      63.429  63.222  53.444  0.00  0.00    +0.000 C 
ATOM      7  O   UNL     1      63.167  63.873  53.876  0.00  0.00    +0.000 OA
ATOM      8  C   UNL     1      62.808  64.508  53.489  0.00  0.00    +0.000 C 
ATOM      9  O   UNL     1      62.712  64.490  52.670  0.00  0.00    +0.000 OA
ATOM     10  N   UNL     1      62.546  65.159  53.922  0.00  0.00    +0.000 NA
ATOM     11  C   UNL     1      62.187  65.793  53.534  0.00  0.00    +0.000 C 
ATOM     12  C   UNL     1      61.925  66.446  53.967  0.00  0.00    +0.000 C 
ATOM     13  C   UNL     1      61.566  67.079  53.579  0.00  0.00    +0.000 C 
ATOM     14  C   UNL     1      61.304  67.732  54.012  0.00  0.00    +0.000 C 
ATOM     15  C   UNL     1      60.945  68.366  53.624  0.00  0.00    +0.000 C 
ATOM     16  C   UNL     1      60.683  69.018  54.057  0.00  0.00    +0.000 C 
ATOM     17  N   UNL     1      60.324  69.652  53.669  0.00  0.00    +0.000 NA
ATOM     18  C   UNL     1      60.062  70.304  54.102  0.00  0.00    +0.000 C 
ATOM     19  O   UNL     1      60.158  70.322  54.921  0.00  0.00    +0.000 OA
ATOM     20  O   UNL     1      59.703  70.938  53.715  0.00  0.00    +0.000 OA
ATOM     21  C   UNL     1      59.441  71.591  54.147  0.00  0.00    +0.000 C 
ATOM     22  C   UNL     1      59.083  72.224  53.760  0.00  0.00    +0.000 C 
ATOM     23  N   UNL     1      58.820  72.877  54.192  0.00  0.00    +0.000 N 
ATOM     24  C   UNL     1      58.558  73.528  54.624  0.00  0.00    +0.000 C 
ATOM     25  C   UNL     1      58.558  73.232  53.495  0.00  0.00    +0.000 C 
ATOM     26  C   UNL     1      59.083  72.520  54.888  0.00  0.00    +0.000 C 
ENDROOT
TORSDOF 0
ENDMDL
MODEL 5
REMARK VINA RESULT:    -7.587     18.543     19.282
REMARK INTER + INTRA:          -7.587
REMARK INTER:                  -7.587
REMARK INTRA:                   0.000
REMARK UNBOUND:                 0.000
ROOT
REMARK  Name = hexcarbacholine
REMARK                            x       y       z     vdW  Elec       q    Type
REMARK                         _______ _______ _______ _____ _____    ______ ____
ATOM      1  C   UNL     1      63.301  82.037  58.127  0.00  0.00    +0.000 C 
ATOM      2  N   UNL     1      64.007  81.740  57.820  0.00  0.00    +0.000 N 
ATOM      3  C   UNL     1      63.922  82.222  57.157  0.00  0.00    +0.000 C 
ATOM      4  C   UNL     1      64.092  81.258  58.485  0.00  0.00    +0.000 C 
ATOM      5  C   UNL     1      64.713  81.442  57.515  0.00  0.00    +0.000 C 
ATOM      6  C   UNL     1      64.993  81.711  56.786  0.00  0.00    +0.000 C 
ATOM      7  O   UNL     1      65.699  81.414  56.481  0.00  0.00    +0.000 OA
ATOM      8  C   UNL     1      65.978  81.683  55.752  0.00  0.00    +0.000 C 
ATOM      9  O   UNL     1      65.552  82.248  55.329  0.00  0.00    +0.000 OA
ATOM     10  N   UNL     1      66.684  81.385  55.446  0.00  0.00    +0.000 NA
ATOM     11  C   UNL     1      66.963  81.654  54.718  0.00  0.00    +0.000 C 
ATOM     12  C   UNL     1      67.670  81.356  54.412  0.00  0.00    +0.000 C 
ATOM     13  C   UNL     1      67.949  81.625  53.684  0.00  0.00    +0.000 C 
ATOM     14  C   UNL     1      68.656  81.327  53.378  0.00  0.00    +0.000 C 
ATOM     15  C   UNL     1      68.934  81.596  52.649  0.00  0.00    +0.000 C 
ATOM     16  C   UNL     1      69.641  81.299  52.343  0.00  0.00    +0.000 C 
ATOM     17  N   UNL     1      69.920  81.568  51.615  0.00  0.00    +0.000 NA
ATOM     18  C   UNL     1      70.627  81.270  51.309  0.00  0.00    +0.000 C 
ATOM     19  O   UNL     1      71.053  80.704  51.731  0.00  0.00    +0.000 OA
ATOM     20  O   UNL     1      70.906  81.539  50.581  0.00  0.00    +0.000 OA
ATOM     21  C   UNL     1      71.612  81.241  50.275  0.00  0.00    +0.000 C 
ATOM     22  C   UNL     1      71.891  81.510  49.547  0.00  0.00    +0.000 C 
ATOM     23  N   UNL     1      72.598  81.212  49.240  0.00  0.00    +0.000 N 
ATOM     24  C   UNL     1      73.304  80.915  48.935  0.00  0.00    +0.000 C 
ATOM     25  C   UNL     1      72.512  81.695  48.576  0.00  0.00    +0.000 C 
ATOM     26  C   UNL     1      72.682  80.731  49.905  0.00  0.00    +0.000 C 
ENDROOT
TORSDOF 0
ENDMDL
MODEL 6
REMARK VINA RESULT:    -7.428      2.296      2.603
REMARK INTER + INTRA:          -7.428
REMARK INTER:                  -7.428
REMARK INTRA:                   0.000
REMARK UNBOUND:                 0.000
ROOT
REMARK  Name = hexcarbacholine
REMARK                            x       y       z     vdW  Elec       q    Type
REMARK                         _______ _______ _______ _____ _____    ______ ____
ATOM      1  C   UNL     1      59.450  71.429  51.810  0.00  0.00    +0.000 C 
ATOM      2  N   UNL     1      59.777  70.711  51.566  0.00  0.00    +0.000 N 
ATOM      3  C   UNL     1      59.713  70.420  52.335  0.00  0.00    +0.000 C 
ATOM      4  C   UNL     1      59.841  71.003  50.796  0.00  0.00    +0.000 C 
ATOM      5  C   UNL     1      60.104  69.994  51.321  0.00  0.00    +0.000 C 
ATOM      6  C   UNL     1      60.212  69.383  51.866  0.00  0.00    +0.000 C 
ATOM      7  O   UNL     1      60.538  68.667  51.621  0.00  0.00    +0.000 OA
ATOM      8  C   UNL     1      60.646  68.055  52.165  0.00  0.00    +0.000 C 
ATOM      9  O   UNL     1      60.428  68.162  52.954  0.00  0.00    +0.000 OA
ATOM     10  N   UNL     1      60.973  67.339  51.920  0.00  0.00    +0.000 NA
ATOM     11  C   UNL     1      61.081  66.728  52.465  0.00  0.00    +0.000 C 
ATOM     12  C   UNL     1      61.408  66.011  52.220  0.00  0.00    +0.000 C 
ATOM     13  C   UNL     1      61.516  65.401  52.765  0.00  0.00    +0.000 C 
ATOM     14  C   UNL     1      61.843  64.683  52.520  0.00  0.00    +0.000 C 
ATOM     15  C   UNL     1      61.950  64.073  53.064  0.00  0.00    +0.000 C 
ATOM     16  C   UNL     1      62.277  63.355  52.820  0.00  0.00    +0.000 C 
ATOM     17  N   UNL     1      62.385  62.745  53.364  0.00  0.00    +0.000 NA
ATOM     18  C   UNL     1      62.712  62.027  53.119  0.00  0.00    +0.000 C 
ATOM     19  O   UNL     1      62.931  61.921  52.331  0.00  0.00    +0.000 OA
ATOM     20  O   UNL     1      62.820  61.417  53.664  0.00  0.00    +0.000 OA
ATOM     21  C   UNL     1      63.147  60.699  53.419  0.00  0.00    +0.000 C 
ATOM     22  C   UNL     1      63.255  60.089  53.963  0.00  0.00    +0.000 C 
ATOM     23  N   UNL     1      63.582  59.372  53.719  0.00  0.00    +0.000 N 
ATOM     24  C   UNL     1      63.908  58.655  53.475  0.00  0.00    +0.000 C 
ATOM     25  C   UNL     1      63.518  59.081  54.488  0.00  0.00    +0.000 C 
ATOM     26  C   UNL     1      63.645  59.663  52.950  0.00  0.00    +0.000 C 
ENDROOT
TORSDOF 0
ENDMDL
MODEL 7
REMARK VINA RESULT:    -7.332     18.708     19.231
REMARK INTER + INTRA:          -7.332
REMARK INTER:                  -7.332
REMARK INTRA:                   0.000
REMARK UNBOUND:                 0.000
ROOT
REMARK  Name = hexcarbacholine
REMARK                            x       y       z     vdW  Elec       q    Type
REMARK                         _______ _______ _______ _____ _____    ______ ____
ATOM      1  C   UNL     1      61.953  81.666  59.450  0.00  0.00    +0.000 C 
ATOM      2  N   UNL     1      62.333  81.854  58.742  0.00  0.00    +0.000 N 
ATOM      3  C   UNL     1      63.008  81.455  58.998  0.00  0.00    +0.000 C 
ATOM      4  C   UNL     1      61.657  82.252  58.486  0.00  0.00    +0.000 C 
ATOM      5  C   UNL     1      62.711  82.041  58.033  0.00  0.00    +0.000 C 
ATOM      6  C   UNL     1      63.486  81.790  57.901  0.00  0.00    +0.000 C 
ATOM      7  O   UNL     1      63.864  81.978  57.192  0.00  0.00    +0.000 OA
ATOM      8  C   UNL     1      64.639  81.726  57.059  0.00  0.00    +0.000 C 
ATOM      9  O   UNL     1      65.035  81.287  57.635  0.00  0.00    +0.000 OA
ATOM     10  N   UNL     1      65.017  81.914  56.350  0.00  0.00    +0.000 NA
ATOM     11  C   UNL     1      65.792  81.662  56.218  0.00  0.00    +0.000 C 
ATOM     12  C   UNL     1      66.171  81.850  55.509  0.00  0.00    +0.000 C 
ATOM     13  C   UNL     1      66.945  81.598  55.377  0.00  0.00    +0.000 C 
ATOM     14  C   UNL     1      67.324  81.786  54.668  0.00  0.00    +0.000 C 
ATOM     15  C   UNL     1      68.098  81.534  54.535  0.00  0.00    +0.000 C 
ATOM     16  C   UNL     1      68.477  81.722  53.826  0.00  0.00    +0.000 C 
ATOM     17  N   UNL     1      69.251  81.470  53.694  0.00  0.00    +0.000 NA
ATOM     18  C   UNL     1      69.630  81.658  52.985  0.00  0.00    +0.000 C 
ATOM     19  O   UNL     1      69.235  82.097  52.409  0.00  0.00    +0.000 OA
ATOM     20  O   UNL     1      70.405  81.407  52.853  0.00  0.00    +0.000 OA
ATOM     21  C   UNL     1      70.784  81.594  52.143  0.00  0.00    +0.000 C 
ATOM     22  C   UNL     1      71.558  81.343  52.011  0.00  0.00    +0.000 C 
ATOM     23  N   UNL     1      71.937  81.530  51.302  0.00  0.00    +0.000 N 
ATOM     24  C   UNL     1      72.315  81.718  50.594  0.00  0.00    +0.000 C 
ATOM     25  C   UNL     1      72.612  81.132  51.558  0.00  0.00    +0.000 C 
ATOM     26  C   UNL     1      71.261  81.929  51.047  0.00  0.00    +0.000 C 
ENDROOT
TORSDOF 0
ENDMDL
MODEL 8
REMARK VINA RESULT:    -7.035     19.927     22.310
REMARK INTER + INTRA:          -7.035
REMARK INTER:                  -7.035
REMARK INTRA:                   0.000
REMARK UNBOUND:                 0.000
ROOT
REMARK  Name = hexcarbacholine
REMARK                            x       y       z     vdW  Elec       q    Type
REMARK                         _______ _______ _______ _____ _____    ______ ____
ATOM      1  C   UNL     1      81.633  64.830  54.396  0.00  0.00    +0.000 C 
ATOM      2  N   UNL     1      81.673  65.645  54.519  0.00  0.00    +0.000 N 
ATOM      3  C   UNL     1      81.494  65.775  53.725  0.00  0.00    +0.000 C 
ATOM      4  C   UNL     1      81.853  65.515  55.315  0.00  0.00    +0.000 C 
ATOM      5  C   UNL     1      81.714  66.460  54.644  0.00  0.00    +0.000 C 
ATOM      6  C   UNL     1      81.579  66.980  54.017  0.00  0.00    +0.000 C 
ATOM      7  O   UNL     1      81.620  67.794  54.142  0.00  0.00    +0.000 OA
ATOM      8  C   UNL     1      81.484  68.314  53.515  0.00  0.00    +0.000 C 
ATOM      9  O   UNL     1      81.308  68.020  52.765  0.00  0.00    +0.000 OA
ATOM     10  N   UNL     1      81.525  69.129  53.640  0.00  0.00    +0.000 NA
ATOM     11  C   UNL     1      81.390  69.648  53.014  0.00  0.00    +0.000 C 
ATOM     12  C   UNL     1      81.431  70.463  53.138  0.00  0.00    +0.000 C 
ATOM     13  C   UNL     1      81.295  70.983  52.512  0.00  0.00    +0.000 C 
ATOM     14  C   UNL     1      81.336  71.798  52.636  0.00  0.00    +0.000 C 
ATOM     15  C   UNL     1      81.201  72.317  52.010  0.00  0.00    +0.000 C 
ATOM     16  C   UNL     1      81.241  73.132  52.134  0.00  0.00    +0.000 C 
ATOM     17  N   UNL     1      81.106  73.652  51.508  0.00  0.00    +0.000 NA
ATOM     18  C   UNL     1      81.147  74.467  51.632  0.00  0.00    +0.000 C 
ATOM     19  O   UNL     1      81.323  74.762  52.383  0.00  0.00    +0.000 OA
ATOM     20  O   UNL     1      81.012  74.986  51.006  0.00  0.00    +0.000 OA
ATOM     21  C   UNL     1      81.052  75.802  51.130  0.00  0.00    +0.000 C 
ATOM     22  C   UNL     1      80.917  76.321  50.504  0.00  0.00    +0.000 C 
ATOM     23  N   UNL     1      80.958  77.136  50.628  0.00  0.00    +0.000 N 
ATOM     24  C   UNL     1      80.998  77.950  50.752  0.00  0.00    +0.000 C 
ATOM     25  C   UNL     1      80.778  77.266  49.834  0.00  0.00    +0.000 C 
ATOM     26  C   UNL     1      81.137  77.006  51.423  0.00  0.00    +0.000 C 
ENDROOT
TORSDOF 0
ENDMDL
MODEL 9
REMARK VINA RESULT:    -7.033     19.897     20.798
REMARK INTER + INTRA:          -7.033
REMARK INTER:                  -7.033
REMARK INTRA:                   0.000
REMARK UNBOUND:                 0.000
ROOT
REMARK  Name = hexcarbacholine
REMARK                            x       y       z     vdW  Elec       q    Type
REMARK                         _______ _______ _______ _____ _____    ______ ____
ATOM      1  C   UNL     1      81.035  78.065  50.745  0.00  0.00    +0.000 C 
ATOM      2  N   UNL     1      80.999  77.251  50.619  0.00  0.00    +0.000 N 
ATOM      3  C   UNL     1      81.154  77.120  51.418  0.00  0.00    +0.000 C 
ATOM      4  C   UNL     1      80.843  77.382  49.819  0.00  0.00    +0.000 C 
ATOM      5  C   UNL     1      80.962  76.437  50.492  0.00  0.00    +0.000 C 
ATOM      6  C   UNL     1      81.078  75.915  51.122  0.00  0.00    +0.000 C 
ATOM      7  O   UNL     1      81.042  75.101  50.995  0.00  0.00    +0.000 OA
ATOM      8  C   UNL     1      81.158  74.580  51.625  0.00  0.00    +0.000 C 
ATOM      9  O   UNL     1      81.310  74.874  52.381  0.00  0.00    +0.000 OA
ATOM     10  N   UNL     1      81.121  73.766  51.498  0.00  0.00    +0.000 NA
ATOM     11  C   UNL     1      81.237  73.246  52.128  0.00  0.00    +0.000 C 
ATOM     12  C   UNL     1      81.201  72.431  52.001  0.00  0.00    +0.000 C 
ATOM     13  C   UNL     1      81.317  71.911  52.630  0.00  0.00    +0.000 C 
ATOM     14  C   UNL     1      81.281  71.096  52.504  0.00  0.00    +0.000 C 
ATOM     15  C   UNL     1      81.397  70.576  53.133  0.00  0.00    +0.000 C 
ATOM     16  C   UNL     1      81.360  69.760  53.007  0.00  0.00    +0.000 C 
ATOM     17  N   UNL     1      81.476  69.240  53.636  0.00  0.00    +0.000 NA
ATOM     18  C   UNL     1      81.440  68.425  53.510  0.00  0.00    +0.000 C 
ATOM     19  O   UNL     1      81.287  68.131  52.754  0.00  0.00    +0.000 OA
ATOM     20  O   UNL     1      81.556  67.905  54.139  0.00  0.00    +0.000 OA
ATOM     21  C   UNL     1      81.520  67.090  54.012  0.00  0.00    +0.000 C 
ATOM     22  C   UNL     1      81.636  66.570  54.642  0.00  0.00    +0.000 C 
ATOM     23  N   UNL     1      81.599  65.755  54.515  0.00  0.00    +0.000 N 
ATOM     24  C   UNL     1      81.563  64.941  54.389  0.00  0.00    +0.000 C 
ATOM     25  C   UNL     1      81.754  65.624  55.315  0.00  0.00    +0.000 C 
ATOM     26  C   UNL     1      81.444  65.886  53.716  0.00  0.00    +0.000 C 
ENDROOT
TORSDOF 0
ENDMDL
