MODEL 1
REMARK VINA RESULT:   -12.218      0.000      0.000
REMARK INTER + INTRA:         -12.218
REMARK INTER:                 -12.218
REMARK INTRA:                   0.000
REMARK UNBOUND:                 0.000
ROOT
REMARK  Name = hexetidine
REMARK                            x       y       z     vdW  Elec       q    Type
REMARK                         _______ _______ _______ _____ _____    ______ ____
ATOM      1  C   UNL     1      65.545  66.875  70.293  0.00  0.00    +0.000 C 
ATOM      2  C   UNL     1      65.016  66.445  69.828  0.00  0.00    +0.000 C 
ATOM      3  C   UNL     1      64.465  65.945  70.183  0.00  0.00    +0.000 C 
ATOM      4  C   UNL     1      63.937  65.515  69.718  0.00  0.00    +0.000 C 
ATOM      5  C   UNL     1      63.386  65.015  70.075  0.00  0.00    +0.000 C 
ATOM      6  C   UNL     1      63.363  64.944  70.897  0.00  0.00    +0.000 C 
ATOM      7  C   UNL     1      62.813  64.445  71.253  0.00  0.00    +0.000 C 
ATOM      8  C   UNL     1      62.858  64.585  69.609  0.00  0.00    +0.000 C 
ATOM      9  N   UNL     1      62.306  64.084  69.966  0.00  0.00    +0.000 NA
ATOM     10  C   UNL     1      61.778  63.654  69.500  0.00  0.00    +0.000 C 
ATOM     11  N   UNL     1      61.228  63.155  69.857  0.00  0.00    +0.000 NA
ATOM     12  C   UNL     1      60.699  62.725  69.391  0.00  0.00    +0.000 C 
ATOM     13  C   UNL     1      60.722  62.794  68.570  0.00  0.00    +0.000 C 
ATOM     14  C   UNL     1      61.273  63.295  68.213  0.00  0.00    +0.000 C 
ATOM     15  C   UNL     1      61.296  63.365  67.391  0.00  0.00    +0.000 C 
ATOM     16  C   UNL     1      60.193  62.364  68.104  0.00  0.00    +0.000 C 
ATOM     17  C   UNL     1      60.216  62.435  67.282  0.00  0.00    +0.000 C 
ATOM     18  C   UNL     1      59.688  62.005  66.817  0.00  0.00    +0.000 C 
ATOM     19  C   UNL     1      59.711  62.075  65.995  0.00  0.00    +0.000 C 
ATOM     20  C   UNL     1      61.205  63.084  70.678  0.00  0.00    +0.000 C 
ATOM     21  C   UNL     1      61.733  63.515  71.143  0.00  0.00    +0.000 C 
ATOM     22  C   UNL     1      61.315  63.116  71.733  0.00  0.00    +0.000 C 
ATOM     23  N   UNL     1      62.117  63.806  71.814  0.00  0.00    +0.000 NA
ATOM     24  C   UNL     1      62.284  64.015  70.787  0.00  0.00    +0.000 C 
ENDROOT
TORSDOF 0
ENDMDL
MODEL 2
REMARK VINA RESULT:   -12.125      0.607      4.580
REMARK INTER + INTRA:         -12.125
REMARK INTER:                 -12.125
REMARK INTRA:                   0.000
REMARK UNBOUND:                 0.000
ROOT
REMARK  Name = hexetidine
REMARK                            x       y       z     vdW  Elec       q    Type
REMARK                         _______ _______ _______ _____ _____    ______ ____
ATOM      1  C   UNL     1      59.378  62.002  66.353  0.00  0.00    +0.000 C 
ATOM      2  C   UNL     1      59.961  62.495  66.667  0.00  0.00    +0.000 C 
ATOM      3  C   UNL     1      60.130  62.472  67.474  0.00  0.00    +0.000 C 
ATOM      4  C   UNL     1      60.713  62.964  67.788  0.00  0.00    +0.000 C 
ATOM      5  C   UNL     1      60.881  62.940  68.595  0.00  0.00    +0.000 C 
ATOM      6  C   UNL     1      60.467  62.425  69.089  0.00  0.00    +0.000 C 
ATOM      7  C   UNL     1      60.636  62.401  69.896  0.00  0.00    +0.000 C 
ATOM      8  C   UNL     1      61.464  63.432  68.909  0.00  0.00    +0.000 C 
ATOM      9  N   UNL     1      61.633  63.409  69.717  0.00  0.00    +0.000 NA
ATOM     10  C   UNL     1      62.216  63.901  70.031  0.00  0.00    +0.000 C 
ATOM     11  N   UNL     1      62.385  63.877  70.837  0.00  0.00    +0.000 NA
ATOM     12  C   UNL     1      62.968  64.369  71.151  0.00  0.00    +0.000 C 
ATOM     13  C   UNL     1      63.383  64.885  70.659  0.00  0.00    +0.000 C 
ATOM     14  C   UNL     1      63.214  64.908  69.851  0.00  0.00    +0.000 C 
ATOM     15  C   UNL     1      63.628  65.424  69.357  0.00  0.00    +0.000 C 
ATOM     16  C   UNL     1      63.966  65.377  70.972  0.00  0.00    +0.000 C 
ATOM     17  C   UNL     1      64.380  65.892  70.478  0.00  0.00    +0.000 C 
ATOM     18  C   UNL     1      64.963  66.384  70.792  0.00  0.00    +0.000 C 
ATOM     19  C   UNL     1      65.378  66.900  70.299  0.00  0.00    +0.000 C 
ATOM     20  C   UNL     1      61.971  63.362  71.330  0.00  0.00    +0.000 C 
ATOM     21  C   UNL     1      61.388  62.870  71.017  0.00  0.00    +0.000 C 
ATOM     22  C   UNL     1      61.350  62.649  71.811  0.00  0.00    +0.000 C 
ATOM     23  N   UNL     1      60.791  62.301  70.979  0.00  0.00    +0.000 NA
ATOM     24  C   UNL     1      61.219  62.893  70.210  0.00  0.00    +0.000 C 
ENDROOT
TORSDOF 0
ENDMDL
MODEL 3
REMARK VINA RESULT:   -11.793      2.172      5.178
REMARK INTER + INTRA:         -11.793
REMARK INTER:                 -11.793
REMARK INTRA:                   0.000
REMARK UNBOUND:                 0.000
ROOT
REMARK  Name = hexetidine
REMARK                            x       y       z     vdW  Elec       q    Type
REMARK                         _______ _______ _______ _____ _____    ______ ____
ATOM      1  C   UNL     1      60.193  61.269  70.659  0.00  0.00    +0.000 C 
ATOM      2  C   UNL     1      60.815  61.807  70.595  0.00  0.00    +0.000 C 
ATOM      3  C   UNL     1      60.801  62.509  71.029  0.00  0.00    +0.000 C 
ATOM      4  C   UNL     1      61.423  63.047  70.965  0.00  0.00    +0.000 C 
ATOM      5  C   UNL     1      61.408  63.748  71.400  0.00  0.00    +0.000 C 
ATOM      6  C   UNL     1      60.771  63.912  71.899  0.00  0.00    +0.000 C 
ATOM      7  C   UNL     1      60.756  64.612  72.333  0.00  0.00    +0.000 C 
ATOM      8  C   UNL     1      62.029  64.286  71.335  0.00  0.00    +0.000 C 
ATOM      9  N   UNL     1      62.015  64.988  71.770  0.00  0.00    +0.000 NA
ATOM     10  C   UNL     1      62.637  65.526  71.706  0.00  0.00    +0.000 C 
ATOM     11  N   UNL     1      62.622  66.227  72.140  0.00  0.00    +0.000 NA
ATOM     12  C   UNL     1      63.244  66.765  72.076  0.00  0.00    +0.000 C 
ATOM     13  C   UNL     1      63.881  66.603  71.578  0.00  0.00    +0.000 C 
ATOM     14  C   UNL     1      63.895  65.901  71.143  0.00  0.00    +0.000 C 
ATOM     15  C   UNL     1      64.533  65.738  70.644  0.00  0.00    +0.000 C 
ATOM     16  C   UNL     1      64.503  67.141  71.513  0.00  0.00    +0.000 C 
ATOM     17  C   UNL     1      65.139  66.977  71.015  0.00  0.00    +0.000 C 
ATOM     18  C   UNL     1      65.761  67.516  70.950  0.00  0.00    +0.000 C 
ATOM     19  C   UNL     1      66.398  67.353  70.451  0.00  0.00    +0.000 C 
ATOM     20  C   UNL     1      61.986  66.390  72.639  0.00  0.00    +0.000 C 
ATOM     21  C   UNL     1      61.364  65.852  72.703  0.00  0.00    +0.000 C 
ATOM     22  C   UNL     1      61.101  66.437  73.222  0.00  0.00    +0.000 C 
ATOM     23  N   UNL     1      60.650  65.516  72.948  0.00  0.00    +0.000 NA
ATOM     24  C   UNL     1      61.378  65.150  72.269  0.00  0.00    +0.000 C 
ENDROOT
TORSDOF 0
ENDMDL
MODEL 4
REMARK VINA RESULT:   -11.689      2.554      4.361
REMARK INTER + INTRA:         -11.689
REMARK INTER:                 -11.689
REMARK INTRA:                   0.000
REMARK UNBOUND:                 0.000
ROOT
REMARK  Name = hexetidine
REMARK                            x       y       z     vdW  Elec       q    Type
REMARK                         _______ _______ _______ _____ _____    ______ ____
ATOM      1  C   UNL     1      61.997  61.959  64.763  0.00  0.00    +0.000 C 
ATOM      2  C   UNL     1      61.788  62.566  65.282  0.00  0.00    +0.000 C 
ATOM      3  C   UNL     1      61.565  62.389  66.056  0.00  0.00    +0.000 C 
ATOM      4  C   UNL     1      61.356  62.995  66.574  0.00  0.00    +0.000 C 
ATOM      5  C   UNL     1      61.133  62.817  67.349  0.00  0.00    +0.000 C 
ATOM      6  C   UNL     1      61.119  62.032  67.605  0.00  0.00    +0.000 C 
ATOM      7  C   UNL     1      60.896  61.854  68.378  0.00  0.00    +0.000 C 
ATOM      8  C   UNL     1      60.924  63.423  67.867  0.00  0.00    +0.000 C 
ATOM      9  N   UNL     1      60.701  63.245  68.642  0.00  0.00    +0.000 NA
ATOM     10  C   UNL     1      60.492  63.852  69.161  0.00  0.00    +0.000 C 
ATOM     11  N   UNL     1      60.269  63.674  69.934  0.00  0.00    +0.000 NA
ATOM     12  C   UNL     1      60.060  64.280  70.453  0.00  0.00    +0.000 C 
ATOM     13  C   UNL     1      60.073  65.065  70.198  0.00  0.00    +0.000 C 
ATOM     14  C   UNL     1      60.297  65.243  69.424  0.00  0.00    +0.000 C 
ATOM     15  C   UNL     1      60.310  66.028  69.168  0.00  0.00    +0.000 C 
ATOM     16  C   UNL     1      59.864  65.671  70.717  0.00  0.00    +0.000 C 
ATOM     17  C   UNL     1      59.878  66.456  70.461  0.00  0.00    +0.000 C 
ATOM     18  C   UNL     1      59.669  67.062  70.980  0.00  0.00    +0.000 C 
ATOM     19  C   UNL     1      59.683  67.847  70.724  0.00  0.00    +0.000 C 
ATOM     20  C   UNL     1      60.255  62.890  70.190  0.00  0.00    +0.000 C 
ATOM     21  C   UNL     1      60.464  62.284  69.671  0.00  0.00    +0.000 C 
ATOM     22  C   UNL     1      60.293  61.841  70.347  0.00  0.00    +0.000 C 
ATOM     23  N   UNL     1      60.614  61.523  69.387  0.00  0.00    +0.000 NA
ATOM     24  C   UNL     1      60.687  62.461  68.897  0.00  0.00    +0.000 C 
ENDROOT
TORSDOF 0
ENDMDL
MODEL 5
REMARK VINA RESULT:   -11.095      2.996      5.710
REMARK INTER + INTRA:         -11.095
REMARK INTER:                 -11.095
REMARK INTRA:                   0.000
REMARK UNBOUND:                 0.000
ROOT
REMARK  Name = hexetidine
REMARK                            x       y       z     vdW  Elec       q    Type
REMARK                         _______ _______ _______ _____ _____    ______ ____
ATOM      1  C   UNL     1      60.490  61.600  69.932  0.00  0.00    +0.000 C 
ATOM      2  C   UNL     1      60.866  62.291  70.179  0.00  0.00    +0.000 C 
ATOM      3  C   UNL     1      60.462  62.835  70.651  0.00  0.00    +0.000 C 
ATOM      4  C   UNL     1      60.838  63.526  70.898  0.00  0.00    +0.000 C 
ATOM      5  C   UNL     1      60.434  64.069  71.370  0.00  0.00    +0.000 C 
ATOM      6  C   UNL     1      59.654  63.922  71.594  0.00  0.00    +0.000 C 
ATOM      7  C   UNL     1      59.250  64.464  72.065  0.00  0.00    +0.000 C 
ATOM      8  C   UNL     1      60.810  64.760  71.617  0.00  0.00    +0.000 C 
ATOM      9  N   UNL     1      60.406  65.304  72.089  0.00  0.00    +0.000 NA
ATOM     10  C   UNL     1      60.782  65.996  72.336  0.00  0.00    +0.000 C 
ATOM     11  N   UNL     1      60.378  66.538  72.807  0.00  0.00    +0.000 NA
ATOM     12  C   UNL     1      60.754  67.230  73.055  0.00  0.00    +0.000 C 
ATOM     13  C   UNL     1      61.534  67.378  72.831  0.00  0.00    +0.000 C 
ATOM     14  C   UNL     1      61.938  66.834  72.359  0.00  0.00    +0.000 C 
ATOM     15  C   UNL     1      62.719  66.983  72.135  0.00  0.00    +0.000 C 
ATOM     16  C   UNL     1      61.910  68.070  73.079  0.00  0.00    +0.000 C 
ATOM     17  C   UNL     1      62.691  68.217  72.854  0.00  0.00    +0.000 C 
ATOM     18  C   UNL     1      63.067  68.908  73.102  0.00  0.00    +0.000 C 
ATOM     19  C   UNL     1      63.847  69.057  72.878  0.00  0.00    +0.000 C 
ATOM     20  C   UNL     1      59.599  66.391  73.031  0.00  0.00    +0.000 C 
ATOM     21  C   UNL     1      59.223  65.699  72.784  0.00  0.00    +0.000 C 
ATOM     22  C   UNL     1      58.614  66.044  73.222  0.00  0.00    +0.000 C 
ATOM     23  N   UNL     1      58.634  65.127  72.689  0.00  0.00    +0.000 NA
ATOM     24  C   UNL     1      59.626  65.156  72.313  0.00  0.00    +0.000 C 
ENDROOT
TORSDOF 0
ENDMDL
MODEL 6
REMARK VINA RESULT:   -10.451      3.314      4.653
REMARK INTER + INTRA:         -10.451
REMARK INTER:                 -10.451
REMARK INTRA:                   0.000
REMARK UNBOUND:                 0.000
ROOT
REMARK  Name = hexetidine
REMARK                            x       y       z     vdW  Elec       q    Type
REMARK                         _______ _______ _______ _____ _____    ______ ____
ATOM      1  C   UNL     1      65.001  64.716  69.326  0.00  0.00    +0.000 C 
ATOM      2  C   UNL     1      64.238  64.724  69.638  0.00  0.00    +0.000 C 
ATOM      3  C   UNL     1      64.020  65.303  70.183  0.00  0.00    +0.000 C 
ATOM      4  C   UNL     1      63.256  65.311  70.495  0.00  0.00    +0.000 C 
ATOM      5  C   UNL     1      63.039  65.891  71.040  0.00  0.00    +0.000 C 
ATOM      6  C   UNL     1      63.585  66.464  71.273  0.00  0.00    +0.000 C 
ATOM      7  C   UNL     1      63.368  67.044  71.818  0.00  0.00    +0.000 C 
ATOM      8  C   UNL     1      62.275  65.899  71.351  0.00  0.00    +0.000 C 
ATOM      9  N   UNL     1      62.057  66.479  71.897  0.00  0.00    +0.000 NA
ATOM     10  C   UNL     1      61.293  66.486  72.209  0.00  0.00    +0.000 C 
ATOM     11  N   UNL     1      61.076  67.066  72.753  0.00  0.00    +0.000 NA
ATOM     12  C   UNL     1      60.313  67.073  73.065  0.00  0.00    +0.000 C 
ATOM     13  C   UNL     1      59.766  66.501  72.832  0.00  0.00    +0.000 C 
ATOM     14  C   UNL     1      59.984  65.921  72.287  0.00  0.00    +0.000 C 
ATOM     15  C   UNL     1      59.437  65.348  72.054  0.00  0.00    +0.000 C 
ATOM     16  C   UNL     1      59.002  66.508  73.144  0.00  0.00    +0.000 C 
ATOM     17  C   UNL     1      58.456  65.935  72.911  0.00  0.00    +0.000 C 
ATOM     18  C   UNL     1      57.693  65.943  73.222  0.00  0.00    +0.000 C 
ATOM     19  C   UNL     1      57.146  65.370  72.989  0.00  0.00    +0.000 C 
ATOM     20  C   UNL     1      61.622  67.638  72.986  0.00  0.00    +0.000 C 
ATOM     21  C   UNL     1      62.386  67.631  72.674  0.00  0.00    +0.000 C 
ATOM     22  C   UNL     1      62.440  68.288  73.171  0.00  0.00    +0.000 C 
ATOM     23  N   UNL     1      63.169  67.852  72.535  0.00  0.00    +0.000 NA
ATOM     24  C   UNL     1      62.604  67.051  72.130  0.00  0.00    +0.000 C 
ENDROOT
TORSDOF 0
ENDMDL
MODEL 7
REMARK VINA RESULT:   -10.432      1.830      2.408
REMARK INTER + INTRA:         -10.432
REMARK INTER:                 -10.432
REMARK INTRA:                   0.000
REMARK UNBOUND:                 0.000
ROOT
REMARK  Name = hexetidine
REMARK                            x       y       z     vdW  Elec       q    Type
REMARK                         _______ _______ _______ _____ _____    ______ ____
ATOM      1  C   UNL     1      66.645  66.883  72.123  0.00  0.00    +0.000 C 
ATOM      2  C   UNL     1      66.108  66.416  71.705  0.00  0.00    +0.000 C 
ATOM      3  C   UNL     1      65.298  66.539  71.792  0.00  0.00    +0.000 C 
ATOM      4  C   UNL     1      64.761  66.072  71.374  0.00  0.00    +0.000 C 
ATOM      5  C   UNL     1      63.950  66.196  71.462  0.00  0.00    +0.000 C 
ATOM      6  C   UNL     1      63.675  66.787  71.968  0.00  0.00    +0.000 C 
ATOM      7  C   UNL     1      62.865  66.911  72.056  0.00  0.00    +0.000 C 
ATOM      8  C   UNL     1      63.414  65.729  71.044  0.00  0.00    +0.000 C 
ATOM      9  N   UNL     1      62.602  65.853  71.132  0.00  0.00    +0.000 NA
ATOM     10  C   UNL     1      62.066  65.385  70.714  0.00  0.00    +0.000 C 
ATOM     11  N   UNL     1      61.256  65.509  70.802  0.00  0.00    +0.000 NA
ATOM     12  C   UNL     1      60.720  65.042  70.384  0.00  0.00    +0.000 C 
ATOM     13  C   UNL     1      60.994  64.451  69.877  0.00  0.00    +0.000 C 
ATOM     14  C   UNL     1      61.805  64.327  69.790  0.00  0.00    +0.000 C 
ATOM     15  C   UNL     1      62.080  63.736  69.283  0.00  0.00    +0.000 C 
ATOM     16  C   UNL     1      60.458  63.984  69.459  0.00  0.00    +0.000 C 
ATOM     17  C   UNL     1      60.733  63.393  68.953  0.00  0.00    +0.000 C 
ATOM     18  C   UNL     1      60.197  62.926  68.535  0.00  0.00    +0.000 C 
ATOM     19  C   UNL     1      60.472  62.335  68.029  0.00  0.00    +0.000 C 
ATOM     20  C   UNL     1      60.981  66.099  71.307  0.00  0.00    +0.000 C 
ATOM     21  C   UNL     1      61.518  66.567  71.725  0.00  0.00    +0.000 C 
ATOM     22  C   UNL     1      60.807  66.892  71.991  0.00  0.00    +0.000 C 
ATOM     23  N   UNL     1      61.807  67.148  72.236  0.00  0.00    +0.000 NA
ATOM     24  C   UNL     1      62.328  66.443  71.638  0.00  0.00    +0.000 C 
ENDROOT
TORSDOF 0
ENDMDL
MODEL 8
REMARK VINA RESULT:    -9.604     15.201     17.043
REMARK INTER + INTRA:          -9.604
REMARK INTER:                  -9.604
REMARK INTRA:                   0.000
REMARK UNBOUND:                 0.000
ROOT
REMARK  Name = hexetidine
REMARK                            x       y       z     vdW  Elec       q    Type
REMARK                         _______ _______ _______ _____ _____    ______ ____
ATOM      1  C   UNL     1      61.660  70.773  49.684  0.00  0.00    +0.000 C 
ATOM      2  C   UNL     1      61.680  70.029  50.039  0.00  0.00    +0.000 C 
ATOM      3  C   UNL     1      61.816  69.961  50.850  0.00  0.00    +0.000 C 
ATOM      4  C   UNL     1      61.836  69.217  51.205  0.00  0.00    +0.000 C 
ATOM      5  C   UNL     1      61.973  69.151  52.016  0.00  0.00    +0.000 C 
ATOM      6  C   UNL     1      62.090  69.828  52.473  0.00  0.00    +0.000 C 
ATOM      7  C   UNL     1      62.226  69.762  53.283  0.00  0.00    +0.000 C 
ATOM      8  C   UNL     1      61.992  68.406  52.371  0.00  0.00    +0.000 C 
ATOM      9  N   UNL     1      62.129  68.339  53.183  0.00  0.00    +0.000 NA
ATOM     10  C   UNL     1      62.148  67.595  53.538  0.00  0.00    +0.000 C 
ATOM     11  N   UNL     1      62.285  67.529  54.348  0.00  0.00    +0.000 NA
ATOM     12  C   UNL     1      62.304  66.784  54.704  0.00  0.00    +0.000 C 
ATOM     13  C   UNL     1      62.188  66.106  54.248  0.00  0.00    +0.000 C 
ATOM     14  C   UNL     1      62.051  66.173  53.437  0.00  0.00    +0.000 C 
ATOM     15  C   UNL     1      61.934  65.495  52.981  0.00  0.00    +0.000 C 
ATOM     16  C   UNL     1      62.207  65.362  54.604  0.00  0.00    +0.000 C 
ATOM     17  C   UNL     1      62.090  64.684  54.147  0.00  0.00    +0.000 C 
ATOM     18  C   UNL     1      62.110  63.940  54.502  0.00  0.00    +0.000 C 
ATOM     19  C   UNL     1      61.993  63.262  54.046  0.00  0.00    +0.000 C 
ATOM     20  C   UNL     1      62.402  68.206  54.804  0.00  0.00    +0.000 C 
ATOM     21  C   UNL     1      62.382  68.950  54.449  0.00  0.00    +0.000 C 
ATOM     22  C   UNL     1      62.530  69.169  55.231  0.00  0.00    +0.000 C 
ATOM     23  N   UNL     1      62.414  69.771  54.366  0.00  0.00    +0.000 NA
ATOM     24  C   UNL     1      62.246  69.017  53.638  0.00  0.00    +0.000 C 
ENDROOT
TORSDOF 0
ENDMDL
MODEL 9
REMARK VINA RESULT:    -9.527     14.886     17.017
REMARK INTER + INTRA:          -9.527
REMARK INTER:                  -9.527
REMARK INTRA:                   0.000
REMARK UNBOUND:                 0.000
ROOT
REMARK  Name = hexetidine
REMARK                            x       y       z     vdW  Elec       q    Type
REMARK                         _______ _______ _______ _____ _____    ______ ____
ATOM      1  C   UNL     1      62.377  63.160  54.470  0.00  0.00    +0.000 C 
ATOM      2  C   UNL     1      62.303  63.799  53.953  0.00  0.00    +0.000 C 
ATOM      3  C   UNL     1      62.319  64.570  54.245  0.00  0.00    +0.000 C 
ATOM      4  C   UNL     1      62.245  65.209  53.728  0.00  0.00    +0.000 C 
ATOM      5  C   UNL     1      62.261  65.980  54.021  0.00  0.00    +0.000 C 
ATOM      6  C   UNL     1      62.350  66.114  54.831  0.00  0.00    +0.000 C 
ATOM      7  C   UNL     1      62.366  66.884  55.123  0.00  0.00    +0.000 C 
ATOM      8  C   UNL     1      62.187  66.619  53.504  0.00  0.00    +0.000 C 
ATOM      9  N   UNL     1      62.203  67.391  53.797  0.00  0.00    +0.000 NA
ATOM     10  C   UNL     1      62.129  68.030  53.280  0.00  0.00    +0.000 C 
ATOM     11  N   UNL     1      62.145  68.801  53.573  0.00  0.00    +0.000 NA
ATOM     12  C   UNL     1      62.071  69.439  53.056  0.00  0.00    +0.000 C 
ATOM     13  C   UNL     1      61.982  69.308  52.247  0.00  0.00    +0.000 C 
ATOM     14  C   UNL     1      61.966  68.536  51.954  0.00  0.00    +0.000 C 
ATOM     15  C   UNL     1      61.876  68.403  51.144  0.00  0.00    +0.000 C 
ATOM     16  C   UNL     1      61.908  69.946  51.730  0.00  0.00    +0.000 C 
ATOM     17  C   UNL     1      61.818  69.813  50.920  0.00  0.00    +0.000 C 
ATOM     18  C   UNL     1      61.744  70.452  50.404  0.00  0.00    +0.000 C 
ATOM     19  C   UNL     1      61.655  70.320  49.593  0.00  0.00    +0.000 C 
ATOM     20  C   UNL     1      62.234  68.933  54.381  0.00  0.00    +0.000 C 
ATOM     21  C   UNL     1      62.308  68.294  54.898  0.00  0.00    +0.000 C 
ATOM     22  C   UNL     1      62.355  68.919  55.436  0.00  0.00    +0.000 C 
ATOM     23  N   UNL     1      62.398  67.872  55.603  0.00  0.00    +0.000 NA
ATOM     24  C   UNL     1      62.292  67.523  54.606  0.00  0.00    +0.000 C 
ENDROOT
TORSDOF 0
ENDMDL
