MODEL 1
REMARK VINA RESULT:   -10.543      0.000      0.000
REMARK INTER + INTRA:         -10.543
REMARK INTER:                 -10.543
REMARK INTRA:                   0.000
REMARK UNBOUND:                 0.000
ROOT
REMARK  Name = hexoprenaline
REMARK                            x       y       z     vdW  Elec       q    Type
REMARK                         _______ _______ _______ _____ _____    ______ ____
ATOM      1  O   UNL     1      63.076  68.163  55.023  0.00  0.00    +0.000 OA
ATOM      2  C   UNL     1      62.313  68.229  54.712  0.00  0.00    +0.000 C 
ATOM      3  C   UNL     1      61.941  67.568  54.390  0.00  0.00    +0.000 C 
ATOM      4  N   UNL     1      62.330  66.841  54.377  0.00  0.00    +0.000 NA
ATOM      5  C   UNL     1      61.958  66.179  54.054  0.00  0.00    +0.000 C 
ATOM      6  C   UNL     1      62.347  65.452  54.041  0.00  0.00    +0.000 C 
ATOM      7  C   UNL     1      61.975  64.790  53.718  0.00  0.00    +0.000 C 
ATOM      8  C   UNL     1      62.364  64.063  53.705  0.00  0.00    +0.000 C 
ATOM      9  C   UNL     1      61.992  63.401  53.382  0.00  0.00    +0.000 C 
ATOM     10  C   UNL     1      62.381  62.674  53.369  0.00  0.00    +0.000 C 
ATOM     11  N   UNL     1      62.009  62.012  53.046  0.00  0.00    +0.000 NA
ATOM     12  C   UNL     1      62.397  61.285  53.033  0.00  0.00    +0.000 C 
ATOM     13  C   UNL     1      62.026  60.623  52.711  0.00  0.00    +0.000 C 
ATOM     14  O   UNL     1      61.264  60.689  52.401  0.00  0.00    +0.000 OA
ATOM     15  C   UNL     1      62.414  59.896  52.698  0.00  0.00    +0.000 A 
ATOM     16  C   UNL     1      62.042  59.234  52.375  0.00  0.00    +0.000 A 
ATOM     17  C   UNL     1      62.431  58.508  52.362  0.00  0.00    +0.000 A 
ATOM     18  O   UNL     1      62.059  57.846  52.039  0.00  0.00    +0.000 OA
ATOM     19  C   UNL     1      63.194  58.442  52.672  0.00  0.00    +0.000 A 
ATOM     20  O   UNL     1      63.583  57.715  52.659  0.00  0.00    +0.000 OA
ATOM     21  C   UNL     1      63.566  59.103  52.995  0.00  0.00    +0.000 A 
ATOM     22  C   UNL     1      63.177  59.831  53.008  0.00  0.00    +0.000 A 
ATOM     23  C   UNL     1      61.925  68.956  54.726  0.00  0.00    +0.000 A 
ATOM     24  C   UNL     1      62.297  69.618  55.049  0.00  0.00    +0.000 A 
ATOM     25  C   UNL     1      61.908  70.345  55.062  0.00  0.00    +0.000 A 
ATOM     26  O   UNL     1      62.280  71.006  55.384  0.00  0.00    +0.000 OA
ATOM     27  C   UNL     1      61.146  70.411  54.752  0.00  0.00    +0.000 A 
ATOM     28  O   UNL     1      60.756  71.138  54.764  0.00  0.00    +0.000 OA
ATOM     29  C   UNL     1      60.773  69.750  54.429  0.00  0.00    +0.000 A 
ATOM     30  C   UNL     1      61.163  69.022  54.416  0.00  0.00    +0.000 A 
ENDROOT
TORSDOF 0
ENDMDL
MODEL 2
REMARK VINA RESULT:   -10.539      0.150      9.328
REMARK INTER + INTRA:         -10.539
REMARK INTER:                 -10.539
REMARK INTRA:                   0.000
REMARK UNBOUND:                 0.000
ROOT
REMARK  Name = hexoprenaline
REMARK                            x       y       z     vdW  Elec       q    Type
REMARK                         _______ _______ _______ _____ _____    ______ ____
ATOM      1  O   UNL     1      61.241  60.589  52.276  0.00  0.00    +0.000 OA
ATOM      2  C   UNL     1      61.998  60.520  52.599  0.00  0.00    +0.000 C 
ATOM      3  C   UNL     1      62.367  61.179  52.930  0.00  0.00    +0.000 C 
ATOM      4  N   UNL     1      61.980  61.907  52.938  0.00  0.00    +0.000 NA
ATOM      5  C   UNL     1      62.348  62.567  53.269  0.00  0.00    +0.000 C 
ATOM      6  C   UNL     1      61.962  63.295  53.277  0.00  0.00    +0.000 C 
ATOM      7  C   UNL     1      62.330  63.955  53.608  0.00  0.00    +0.000 C 
ATOM      8  C   UNL     1      61.943  64.683  53.616  0.00  0.00    +0.000 C 
ATOM      9  C   UNL     1      62.312  65.343  53.947  0.00  0.00    +0.000 C 
ATOM     10  C   UNL     1      61.925  66.071  53.956  0.00  0.00    +0.000 C 
ATOM     11  N   UNL     1      62.294  66.731  54.287  0.00  0.00    +0.000 NA
ATOM     12  C   UNL     1      61.907  67.459  54.295  0.00  0.00    +0.000 C 
ATOM     13  C   UNL     1      62.275  68.119  54.626  0.00  0.00    +0.000 C 
ATOM     14  O   UNL     1      63.032  68.050  54.949  0.00  0.00    +0.000 OA
ATOM     15  C   UNL     1      61.889  68.847  54.634  0.00  0.00    +0.000 A 
ATOM     16  C   UNL     1      62.257  69.507  54.965  0.00  0.00    +0.000 A 
ATOM     17  C   UNL     1      61.870  70.235  54.973  0.00  0.00    +0.000 A 
ATOM     18  O   UNL     1      62.239  70.894  55.304  0.00  0.00    +0.000 OA
ATOM     19  C   UNL     1      61.113  70.304  54.650  0.00  0.00    +0.000 A 
ATOM     20  O   UNL     1      60.727  71.032  54.659  0.00  0.00    +0.000 OA
ATOM     21  C   UNL     1      60.745  69.645  54.320  0.00  0.00    +0.000 A 
ATOM     22  C   UNL     1      61.132  68.916  54.311  0.00  0.00    +0.000 A 
ATOM     23  C   UNL     1      62.385  59.791  52.590  0.00  0.00    +0.000 A 
ATOM     24  C   UNL     1      62.016  59.131  52.259  0.00  0.00    +0.000 A 
ATOM     25  C   UNL     1      62.403  58.403  52.251  0.00  0.00    +0.000 A 
ATOM     26  O   UNL     1      62.035  57.744  51.920  0.00  0.00    +0.000 OA
ATOM     27  C   UNL     1      63.159  58.334  52.574  0.00  0.00    +0.000 A 
ATOM     28  O   UNL     1      63.547  57.606  52.566  0.00  0.00    +0.000 OA
ATOM     29  C   UNL     1      63.529  58.993  52.905  0.00  0.00    +0.000 A 
ATOM     30  C   UNL     1      63.141  59.722  52.913  0.00  0.00    +0.000 A 
ENDROOT
TORSDOF 0
ENDMDL
MODEL 3
REMARK VINA RESULT:    -9.625      2.247      2.957
REMARK INTER + INTRA:          -9.625
REMARK INTER:                  -9.625
REMARK INTRA:                   0.000
REMARK UNBOUND:                 0.000
ROOT
REMARK  Name = hexoprenaline
REMARK                            x       y       z     vdW  Elec       q    Type
REMARK                         _______ _______ _______ _____ _____    ______ ____
ATOM      1  O   UNL     1      60.305  70.248  52.504  0.00  0.00    +0.000 OA
ATOM      2  C   UNL     1      60.119  70.197  53.307  0.00  0.00    +0.000 C 
ATOM      3  C   UNL     1      60.303  69.513  53.730  0.00  0.00    +0.000 C 
ATOM      4  N   UNL     1      60.674  68.882  53.351  0.00  0.00    +0.000 NA
ATOM      5  C   UNL     1      60.859  68.198  53.774  0.00  0.00    +0.000 C 
ATOM      6  C   UNL     1      61.230  67.566  53.396  0.00  0.00    +0.000 C 
ATOM      7  C   UNL     1      61.415  66.882  53.819  0.00  0.00    +0.000 C 
ATOM      8  C   UNL     1      61.786  66.250  53.441  0.00  0.00    +0.000 C 
ATOM      9  C   UNL     1      61.971  65.566  53.863  0.00  0.00    +0.000 C 
ATOM     10  C   UNL     1      62.341  64.934  53.485  0.00  0.00    +0.000 C 
ATOM     11  N   UNL     1      62.527  64.250  53.908  0.00  0.00    +0.000 NA
ATOM     12  C   UNL     1      62.897  63.619  53.530  0.00  0.00    +0.000 C 
ATOM     13  C   UNL     1      63.082  62.935  53.953  0.00  0.00    +0.000 C 
ATOM     14  O   UNL     1      62.896  62.883  54.755  0.00  0.00    +0.000 OA
ATOM     15  C   UNL     1      63.453  62.303  53.574  0.00  0.00    +0.000 A 
ATOM     16  C   UNL     1      63.638  61.619  53.997  0.00  0.00    +0.000 A 
ATOM     17  C   UNL     1      64.009  60.987  53.619  0.00  0.00    +0.000 A 
ATOM     18  O   UNL     1      64.194  60.304  54.042  0.00  0.00    +0.000 OA
ATOM     19  C   UNL     1      64.195  61.039  52.816  0.00  0.00    +0.000 A 
ATOM     20  O   UNL     1      64.566  60.407  52.438  0.00  0.00    +0.000 OA
ATOM     21  C   UNL     1      64.010  61.722  52.393  0.00  0.00    +0.000 A 
ATOM     22  C   UNL     1      63.639  62.355  52.771  0.00  0.00    +0.000 A 
ATOM     23  C   UNL     1      59.748  70.829  53.685  0.00  0.00    +0.000 A 
ATOM     24  C   UNL     1      59.563  71.513  53.262  0.00  0.00    +0.000 A 
ATOM     25  C   UNL     1      59.192  72.145  53.641  0.00  0.00    +0.000 A 
ATOM     26  O   UNL     1      59.007  72.828  53.218  0.00  0.00    +0.000 OA
ATOM     27  C   UNL     1      59.006  72.093  54.443  0.00  0.00    +0.000 A 
ATOM     28  O   UNL     1      58.635  72.725  54.822  0.00  0.00    +0.000 OA
ATOM     29  C   UNL     1      59.190  71.410  54.866  0.00  0.00    +0.000 A 
ATOM     30  C   UNL     1      59.562  70.778  54.487  0.00  0.00    +0.000 A 
ENDROOT
TORSDOF 0
ENDMDL
MODEL 4
REMARK VINA RESULT:    -9.624      2.361      9.465
REMARK INTER + INTRA:          -9.624
REMARK INTER:                  -9.624
REMARK INTRA:                   0.000
REMARK UNBOUND:                 0.000
ROOT
REMARK  Name = hexoprenaline
REMARK                            x       y       z     vdW  Elec       q    Type
REMARK                         _______ _______ _______ _____ _____    ______ ____
ATOM      1  O   UNL     1      62.896  63.277  54.790  0.00  0.00    +0.000 OA
ATOM      2  C   UNL     1      63.072  63.324  53.984  0.00  0.00    +0.000 C 
ATOM      3  C   UNL     1      62.871  64.001  53.558  0.00  0.00    +0.000 C 
ATOM      4  N   UNL     1      62.496  64.630  53.935  0.00  0.00    +0.000 NA
ATOM      5  C   UNL     1      62.295  65.308  53.509  0.00  0.00    +0.000 C 
ATOM      6  C   UNL     1      61.920  65.937  53.887  0.00  0.00    +0.000 C 
ATOM      7  C   UNL     1      61.719  66.614  53.461  0.00  0.00    +0.000 C 
ATOM      8  C   UNL     1      61.344  67.244  53.839  0.00  0.00    +0.000 C 
ATOM      9  C   UNL     1      61.143  67.921  53.413  0.00  0.00    +0.000 C 
ATOM     10  C   UNL     1      60.768  68.550  53.790  0.00  0.00    +0.000 C 
ATOM     11  N   UNL     1      60.567  69.228  53.364  0.00  0.00    +0.000 NA
ATOM     12  C   UNL     1      60.191  69.857  53.742  0.00  0.00    +0.000 C 
ATOM     13  C   UNL     1      59.991  70.535  53.316  0.00  0.00    +0.000 C 
ATOM     14  O   UNL     1      60.166  70.582  52.511  0.00  0.00    +0.000 OA
ATOM     15  C   UNL     1      59.615  71.164  53.694  0.00  0.00    +0.000 A 
ATOM     16  C   UNL     1      59.415  71.842  53.267  0.00  0.00    +0.000 A 
ATOM     17  C   UNL     1      59.039  72.471  53.645  0.00  0.00    +0.000 A 
ATOM     18  O   UNL     1      58.839  73.148  53.219  0.00  0.00    +0.000 OA
ATOM     19  C   UNL     1      58.864  72.423  54.451  0.00  0.00    +0.000 A 
ATOM     20  O   UNL     1      58.488  73.053  54.829  0.00  0.00    +0.000 OA
ATOM     21  C   UNL     1      59.064  71.747  54.877  0.00  0.00    +0.000 A 
ATOM     22  C   UNL     1      59.440  71.117  54.499  0.00  0.00    +0.000 A 
ATOM     23  C   UNL     1      63.447  62.694  53.606  0.00  0.00    +0.000 A 
ATOM     24  C   UNL     1      63.648  62.016  54.032  0.00  0.00    +0.000 A 
ATOM     25  C   UNL     1      64.024  61.387  53.654  0.00  0.00    +0.000 A 
ATOM     26  O   UNL     1      64.224  60.710  54.081  0.00  0.00    +0.000 OA
ATOM     27  C   UNL     1      64.199  61.435  52.850  0.00  0.00    +0.000 A 
ATOM     28  O   UNL     1      64.574  60.805  52.471  0.00  0.00    +0.000 OA
ATOM     29  C   UNL     1      63.999  62.111  52.423  0.00  0.00    +0.000 A 
ATOM     30  C   UNL     1      63.623  62.741  52.801  0.00  0.00    +0.000 A 
ENDROOT
TORSDOF 0
ENDMDL
MODEL 5
REMARK VINA RESULT:    -9.378     14.068     14.416
REMARK INTER + INTRA:          -9.378
REMARK INTER:                  -9.378
REMARK INTRA:                   0.000
REMARK UNBOUND:                 0.000
ROOT
REMARK  Name = hexoprenaline
REMARK                            x       y       z     vdW  Elec       q    Type
REMARK                         _______ _______ _______ _____ _____    ______ ____
ATOM      1  O   UNL     1      59.336  65.511  70.865  0.00  0.00    +0.000 OA
ATOM      2  C   UNL     1      60.127  65.747  70.846  0.00  0.00    +0.000 C 
ATOM      3  C   UNL     1      60.622  65.482  70.243  0.00  0.00    +0.000 C 
ATOM      4  N   UNL     1      60.328  64.980  69.659  0.00  0.00    +0.000 NA
ATOM      5  C   UNL     1      60.823  64.713  69.055  0.00  0.00    +0.000 C 
ATOM      6  C   UNL     1      60.529  64.212  68.471  0.00  0.00    +0.000 C 
ATOM      7  C   UNL     1      61.024  63.945  67.867  0.00  0.00    +0.000 C 
ATOM      8  C   UNL     1      60.730  63.443  67.283  0.00  0.00    +0.000 C 
ATOM      9  C   UNL     1      61.226  63.177  66.679  0.00  0.00    +0.000 C 
ATOM     10  C   UNL     1      60.932  62.675  66.095  0.00  0.00    +0.000 C 
ATOM     11  N   UNL     1      61.427  62.409  65.491  0.00  0.00    +0.000 NA
ATOM     12  C   UNL     1      61.133  61.907  64.907  0.00  0.00    +0.000 C 
ATOM     13  C   UNL     1      61.628  61.640  64.303  0.00  0.00    +0.000 C 
ATOM     14  O   UNL     1      62.418  61.877  64.284  0.00  0.00    +0.000 OA
ATOM     15  C   UNL     1      61.334  61.139  63.719  0.00  0.00    +0.000 A 
ATOM     16  C   UNL     1      61.829  60.872  63.115  0.00  0.00    +0.000 A 
ATOM     17  C   UNL     1      61.535  60.370  62.531  0.00  0.00    +0.000 A 
ATOM     18  O   UNL     1      62.031  60.104  61.928  0.00  0.00    +0.000 OA
ATOM     19  C   UNL     1      60.744  60.134  62.550  0.00  0.00    +0.000 A 
ATOM     20  O   UNL     1      60.450  59.632  61.966  0.00  0.00    +0.000 OA
ATOM     21  C   UNL     1      60.249  60.400  63.153  0.00  0.00    +0.000 A 
ATOM     22  C   UNL     1      60.543  60.902  63.738  0.00  0.00    +0.000 A 
ATOM     23  C   UNL     1      60.421  66.250  71.431  0.00  0.00    +0.000 A 
ATOM     24  C   UNL     1      59.925  66.516  72.035  0.00  0.00    +0.000 A 
ATOM     25  C   UNL     1      60.220  67.018  72.619  0.00  0.00    +0.000 A 
ATOM     26  O   UNL     1      59.724  67.284  73.222  0.00  0.00    +0.000 OA
ATOM     27  C   UNL     1      61.010  67.254  72.600  0.00  0.00    +0.000 A 
ATOM     28  O   UNL     1      61.305  67.756  73.184  0.00  0.00    +0.000 OA
ATOM     29  C   UNL     1      61.506  66.989  71.997  0.00  0.00    +0.000 A 
ATOM     30  C   UNL     1      61.211  66.486  71.412  0.00  0.00    +0.000 A 
ENDROOT
TORSDOF 0
ENDMDL
MODEL 6
REMARK VINA RESULT:    -9.101      3.487      6.165
REMARK INTER + INTRA:          -9.101
REMARK INTER:                  -9.101
REMARK INTRA:                   0.000
REMARK UNBOUND:                 0.000
ROOT
REMARK  Name = hexoprenaline
REMARK                            x       y       z     vdW  Elec       q    Type
REMARK                         _______ _______ _______ _____ _____    ______ ____
ATOM      1  O   UNL     1      58.174  73.343  53.813  0.00  0.00    +0.000 OA
ATOM      2  C   UNL     1      58.566  73.458  54.531  0.00  0.00    +0.000 C 
ATOM      3  C   UNL     1      59.070  72.875  54.822  0.00  0.00    +0.000 C 
ATOM      4  N   UNL     1      59.183  72.177  54.398  0.00  0.00    +0.000 NA
ATOM      5  C   UNL     1      59.688  71.593  54.690  0.00  0.00    +0.000 C 
ATOM      6  C   UNL     1      59.802  70.896  54.265  0.00  0.00    +0.000 C 
ATOM      7  C   UNL     1      60.306  70.312  54.557  0.00  0.00    +0.000 C 
ATOM      8  C   UNL     1      60.420  69.614  54.132  0.00  0.00    +0.000 C 
ATOM      9  C   UNL     1      60.924  69.030  54.424  0.00  0.00    +0.000 C 
ATOM     10  C   UNL     1      61.038  68.333  54.000  0.00  0.00    +0.000 C 
ATOM     11  N   UNL     1      61.543  67.749  54.291  0.00  0.00    +0.000 NA
ATOM     12  C   UNL     1      61.656  67.051  53.867  0.00  0.00    +0.000 C 
ATOM     13  C   UNL     1      62.161  66.467  54.158  0.00  0.00    +0.000 C 
ATOM     14  O   UNL     1      62.552  66.582  54.876  0.00  0.00    +0.000 OA
ATOM     15  C   UNL     1      62.274  65.770  53.734  0.00  0.00    +0.000 A 
ATOM     16  C   UNL     1      62.779  65.186  54.026  0.00  0.00    +0.000 A 
ATOM     17  C   UNL     1      62.892  64.488  53.601  0.00  0.00    +0.000 A 
ATOM     18  O   UNL     1      63.397  63.905  53.893  0.00  0.00    +0.000 OA
ATOM     19  C   UNL     1      62.500  64.373  52.883  0.00  0.00    +0.000 A 
ATOM     20  O   UNL     1      62.614  63.676  52.459  0.00  0.00    +0.000 OA
ATOM     21  C   UNL     1      61.996  64.957  52.591  0.00  0.00    +0.000 A 
ATOM     22  C   UNL     1      61.882  65.655  53.016  0.00  0.00    +0.000 A 
ATOM     23  C   UNL     1      58.452  74.156  54.955  0.00  0.00    +0.000 A 
ATOM     24  C   UNL     1      57.947  74.740  54.663  0.00  0.00    +0.000 A 
ATOM     25  C   UNL     1      57.834  75.438  55.088  0.00  0.00    +0.000 A 
ATOM     26  O   UNL     1      57.329  76.021  54.796  0.00  0.00    +0.000 OA
ATOM     27  C   UNL     1      58.225  75.552  55.805  0.00  0.00    +0.000 A 
ATOM     28  O   UNL     1      58.112  76.250  56.230  0.00  0.00    +0.000 OA
ATOM     29  C   UNL     1      58.730  74.969  56.098  0.00  0.00    +0.000 A 
ATOM     30  C   UNL     1      58.843  74.271  55.672  0.00  0.00    +0.000 A 
ENDROOT
TORSDOF 0
ENDMDL
MODEL 7
REMARK VINA RESULT:    -8.387     13.909     14.218
REMARK INTER + INTRA:          -8.387
REMARK INTER:                  -8.387
REMARK INTRA:                   0.000
REMARK UNBOUND:                 0.000
ROOT
REMARK  Name = hexoprenaline
REMARK                            x       y       z     vdW  Elec       q    Type
REMARK                         _______ _______ _______ _____ _____    ______ ____
ATOM      1  O   UNL     1      62.456  66.504  70.213  0.00  0.00    +0.000 OA
ATOM      2  C   UNL     1      61.702  66.291  70.476  0.00  0.00    +0.000 C 
ATOM      3  C   UNL     1      61.258  65.742  70.051  0.00  0.00    +0.000 C 
ATOM      4  N   UNL     1      61.566  65.404  69.365  0.00  0.00    +0.000 NA
ATOM      5  C   UNL     1      61.122  64.854  68.940  0.00  0.00    +0.000 C 
ATOM      6  C   UNL     1      61.430  64.516  68.254  0.00  0.00    +0.000 C 
ATOM      7  C   UNL     1      60.986  63.966  67.828  0.00  0.00    +0.000 C 
ATOM      8  C   UNL     1      61.294  63.628  67.142  0.00  0.00    +0.000 C 
ATOM      9  C   UNL     1      60.850  63.078  66.717  0.00  0.00    +0.000 C 
ATOM     10  C   UNL     1      61.158  62.740  66.031  0.00  0.00    +0.000 C 
ATOM     11  N   UNL     1      60.713  62.190  65.606  0.00  0.00    +0.000 NA
ATOM     12  C   UNL     1      61.021  61.853  64.920  0.00  0.00    +0.000 C 
ATOM     13  C   UNL     1      60.577  61.302  64.494  0.00  0.00    +0.000 C 
ATOM     14  O   UNL     1      59.824  61.090  64.756  0.00  0.00    +0.000 OA
ATOM     15  C   UNL     1      60.885  60.965  63.808  0.00  0.00    +0.000 A 
ATOM     16  C   UNL     1      60.441  60.414  63.383  0.00  0.00    +0.000 A 
ATOM     17  C   UNL     1      60.749  60.077  62.697  0.00  0.00    +0.000 A 
ATOM     18  O   UNL     1      60.305  59.527  62.272  0.00  0.00    +0.000 OA
ATOM     19  C   UNL     1      61.503  60.290  62.434  0.00  0.00    +0.000 A 
ATOM     20  O   UNL     1      61.811  59.952  61.748  0.00  0.00    +0.000 OA
ATOM     21  C   UNL     1      61.947  60.839  62.859  0.00  0.00    +0.000 A 
ATOM     22  C   UNL     1      61.639  61.177  63.546  0.00  0.00    +0.000 A 
ATOM     23  C   UNL     1      61.395  66.630  71.162  0.00  0.00    +0.000 A 
ATOM     24  C   UNL     1      61.839  67.180  71.588  0.00  0.00    +0.000 A 
ATOM     25  C   UNL     1      61.531  67.517  72.274  0.00  0.00    +0.000 A 
ATOM     26  O   UNL     1      61.975  68.067  72.698  0.00  0.00    +0.000 OA
ATOM     27  C   UNL     1      60.778  67.305  72.536  0.00  0.00    +0.000 A 
ATOM     28  O   UNL     1      60.469  67.642  73.222  0.00  0.00    +0.000 OA
ATOM     29  C   UNL     1      60.333  66.755  72.112  0.00  0.00    +0.000 A 
ATOM     30  C   UNL     1      60.642  66.417  71.425  0.00  0.00    +0.000 A 
ENDROOT
TORSDOF 0
ENDMDL
MODEL 8
REMARK VINA RESULT:    -8.080     13.899     16.327
REMARK INTER + INTRA:          -8.080
REMARK INTER:                  -8.080
REMARK INTRA:                   0.000
REMARK UNBOUND:                 0.000
ROOT
REMARK  Name = hexoprenaline
REMARK                            x       y       z     vdW  Elec       q    Type
REMARK                         _______ _______ _______ _____ _____    ______ ____
ATOM      1  O   UNL     1      59.789  61.011  64.785  0.00  0.00    +0.000 OA
ATOM      2  C   UNL     1      60.531  61.233  64.497  0.00  0.00    +0.000 C 
ATOM      3  C   UNL     1      60.983  61.788  64.905  0.00  0.00    +0.000 C 
ATOM      4  N   UNL     1      60.695  62.122  65.602  0.00  0.00    +0.000 NA
ATOM      5  C   UNL     1      61.147  62.678  66.011  0.00  0.00    +0.000 C 
ATOM      6  C   UNL     1      60.859  63.012  66.708  0.00  0.00    +0.000 C 
ATOM      7  C   UNL     1      61.311  63.568  67.117  0.00  0.00    +0.000 C 
ATOM      8  C   UNL     1      61.023  63.902  67.814  0.00  0.00    +0.000 C 
ATOM      9  C   UNL     1      61.476  64.457  68.223  0.00  0.00    +0.000 C 
ATOM     10  C   UNL     1      61.188  64.792  68.920  0.00  0.00    +0.000 C 
ATOM     11  N   UNL     1      61.640  65.347  69.329  0.00  0.00    +0.000 NA
ATOM     12  C   UNL     1      61.352  65.681  70.026  0.00  0.00    +0.000 C 
ATOM     13  C   UNL     1      61.804  66.237  70.435  0.00  0.00    +0.000 C 
ATOM     14  O   UNL     1      62.545  66.459  70.147  0.00  0.00    +0.000 OA
ATOM     15  C   UNL     1      61.516  66.571  71.132  0.00  0.00    +0.000 A 
ATOM     16  C   UNL     1      61.968  67.127  71.541  0.00  0.00    +0.000 A 
ATOM     17  C   UNL     1      61.681  67.461  72.238  0.00  0.00    +0.000 A 
ATOM     18  O   UNL     1      62.133  68.016  72.646  0.00  0.00    +0.000 OA
ATOM     19  C   UNL     1      60.939  67.240  72.526  0.00  0.00    +0.000 A 
ATOM     20  O   UNL     1      60.651  67.574  73.223  0.00  0.00    +0.000 OA
ATOM     21  C   UNL     1      60.487  66.684  72.117  0.00  0.00    +0.000 A 
ATOM     22  C   UNL     1      60.775  66.350  71.420  0.00  0.00    +0.000 A 
ATOM     23  C   UNL     1      60.818  60.898  63.799  0.00  0.00    +0.000 A 
ATOM     24  C   UNL     1      60.366  60.342  63.390  0.00  0.00    +0.000 A 
ATOM     25  C   UNL     1      60.654  60.008  62.693  0.00  0.00    +0.000 A 
ATOM     26  O   UNL     1      60.202  59.453  62.285  0.00  0.00    +0.000 OA
ATOM     27  C   UNL     1      61.395  60.229  62.405  0.00  0.00    +0.000 A 
ATOM     28  O   UNL     1      61.683  59.896  61.708  0.00  0.00    +0.000 OA
ATOM     29  C   UNL     1      61.847  60.785  62.814  0.00  0.00    +0.000 A 
ATOM     30  C   UNL     1      61.559  61.119  63.511  0.00  0.00    +0.000 A 
ENDROOT
TORSDOF 0
ENDMDL
MODEL 9
REMARK VINA RESULT:    -7.899      3.723      5.891
REMARK INTER + INTRA:          -7.899
REMARK INTER:                  -7.899
REMARK INTRA:                   0.000
REMARK UNBOUND:                 0.000
ROOT
REMARK  Name = hexoprenaline
REMARK                            x       y       z     vdW  Elec       q    Type
REMARK                         _______ _______ _______ _____ _____    ______ ____
ATOM      1  O   UNL     1      58.676  73.397  53.329  0.00  0.00    +0.000 OA
ATOM      2  C   UNL     1      58.730  73.175  54.123  0.00  0.00    +0.000 C 
ATOM      3  C   UNL     1      59.019  72.429  54.323  0.00  0.00    +0.000 C 
ATOM      4  N   UNL     1      59.253  71.905  53.731  0.00  0.00    +0.000 NA
ATOM      5  C   UNL     1      59.543  71.158  53.931  0.00  0.00    +0.000 C 
ATOM      6  C   UNL     1      59.777  70.635  53.339  0.00  0.00    +0.000 C 
ATOM      7  C   UNL     1      60.067  69.888  53.538  0.00  0.00    +0.000 C 
ATOM      8  C   UNL     1      60.301  69.365  52.947  0.00  0.00    +0.000 C 
ATOM      9  C   UNL     1      60.591  68.618  53.146  0.00  0.00    +0.000 C 
ATOM     10  C   UNL     1      60.825  68.094  52.554  0.00  0.00    +0.000 C 
ATOM     11  N   UNL     1      61.115  67.348  52.754  0.00  0.00    +0.000 NA
ATOM     12  C   UNL     1      61.349  66.824  52.162  0.00  0.00    +0.000 C 
ATOM     13  C   UNL     1      61.638  66.077  52.362  0.00  0.00    +0.000 C 
ATOM     14  O   UNL     1      61.693  65.855  53.154  0.00  0.00    +0.000 OA
ATOM     15  C   UNL     1      61.873  65.554  51.770  0.00  0.00    +0.000 A 
ATOM     16  C   UNL     1      62.162  64.807  51.969  0.00  0.00    +0.000 A 
ATOM     17  C   UNL     1      62.397  64.283  51.378  0.00  0.00    +0.000 A 
ATOM     18  O   UNL     1      62.686  63.538  51.577  0.00  0.00    +0.000 OA
ATOM     19  C   UNL     1      62.343  64.506  50.584  0.00  0.00    +0.000 A 
ATOM     20  O   UNL     1      62.577  63.982  49.992  0.00  0.00    +0.000 OA
ATOM     21  C   UNL     1      62.054  65.252  50.384  0.00  0.00    +0.000 A 
ATOM     22  C   UNL     1      61.819  65.776  50.976  0.00  0.00    +0.000 A 
ATOM     23  C   UNL     1      58.495  73.699  54.715  0.00  0.00    +0.000 A 
ATOM     24  C   UNL     1      58.206  74.446  54.516  0.00  0.00    +0.000 A 
ATOM     25  C   UNL     1      57.971  74.969  55.107  0.00  0.00    +0.000 A 
ATOM     26  O   UNL     1      57.682  75.715  54.907  0.00  0.00    +0.000 OA
ATOM     27  C   UNL     1      58.025  74.747  55.900  0.00  0.00    +0.000 A 
ATOM     28  O   UNL     1      57.791  75.270  56.493  0.00  0.00    +0.000 OA
ATOM     29  C   UNL     1      58.314  74.001  56.101  0.00  0.00    +0.000 A 
ATOM     30  C   UNL     1      58.549  73.477  55.508  0.00  0.00    +0.000 A 
ENDROOT
TORSDOF 0
ENDMDL
