MODEL 1
REMARK VINA RESULT:   -10.905      0.000      0.000
REMARK INTER + INTRA:         -10.905
REMARK INTER:                 -10.905
REMARK INTRA:                   0.000
REMARK UNBOUND:                 0.000
ROOT
REMARK  Name = hexylcaine
REMARK                            x       y       z     vdW  Elec       q    Type
REMARK                         _______ _______ _______ _____ _____    ______ ____
ATOM      1  C   UNL     1      61.380  63.792  67.829  0.00  0.00    +0.000 C 
ATOM      2  C   UNL     1      61.288  62.974  67.865  0.00  0.00    +0.000 C 
ATOM      3  C   UNL     1      61.433  62.511  67.198  0.00  0.00    +0.000 C 
ATOM      4  N   UNL     1      61.671  62.869  66.493  0.00  0.00    +0.000 NA
ATOM      5  C   UNL     1      61.816  62.406  65.825  0.00  0.00    +0.000 C 
ATOM      6  C   UNL     1      61.724  61.587  65.862  0.00  0.00    +0.000 C 
ATOM      7  C   UNL     1      61.870  61.126  65.195  0.00  0.00    +0.000 C 
ATOM      8  C   UNL     1      62.107  61.482  64.490  0.00  0.00    +0.000 C 
ATOM      9  C   UNL     1      62.199  62.301  64.453  0.00  0.00    +0.000 C 
ATOM     10  C   UNL     1      62.054  62.764  65.121  0.00  0.00    +0.000 C 
ATOM     11  O   UNL     1      61.051  62.616  68.571  0.00  0.00    +0.000 OA
ATOM     12  C   UNL     1      60.905  63.079  69.238  0.00  0.00    +0.000 C 
ATOM     13  O   UNL     1      60.997  63.897  69.201  0.00  0.00    +0.000 OA
ATOM     14  C   UNL     1      60.668  62.721  69.944  0.00  0.00    +0.000 A 
ATOM     15  C   UNL     1      60.523  63.184  70.611  0.00  0.00    +0.000 A 
ATOM     16  C   UNL     1      60.285  62.826  71.316  0.00  0.00    +0.000 A 
ATOM     17  C   UNL     1      60.193  62.007  71.353  0.00  0.00    +0.000 A 
ATOM     18  C   UNL     1      60.339  61.546  70.685  0.00  0.00    +0.000 A 
ATOM     19  C   UNL     1      60.576  61.902  69.981  0.00  0.00    +0.000 A 
ENDROOT
TORSDOF 0
ENDMDL
MODEL 2
REMARK VINA RESULT:   -10.596      1.652      4.837
REMARK INTER + INTRA:         -10.596
REMARK INTER:                 -10.596
REMARK INTRA:                   0.000
REMARK UNBOUND:                 0.000
ROOT
REMARK  Name = hexylcaine
REMARK                            x       y       z     vdW  Elec       q    Type
REMARK                         _______ _______ _______ _____ _____    ______ ____
ATOM      1  C   UNL     1      60.435  62.625  67.789  0.00  0.00    +0.000 C 
ATOM      2  C   UNL     1      61.206  62.832  67.585  0.00  0.00    +0.000 C 
ATOM      3  C   UNL     1      61.679  63.242  68.122  0.00  0.00    +0.000 C 
ATOM      4  N   UNL     1      61.380  63.444  68.865  0.00  0.00    +0.000 NA
ATOM      5  C   UNL     1      61.853  63.854  69.402  0.00  0.00    +0.000 C 
ATOM      6  C   UNL     1      62.625  64.061  69.198  0.00  0.00    +0.000 C 
ATOM      7  C   UNL     1      63.097  64.471  69.735  0.00  0.00    +0.000 C 
ATOM      8  C   UNL     1      62.799  64.673  70.477  0.00  0.00    +0.000 C 
ATOM      9  C   UNL     1      62.027  64.466  70.682  0.00  0.00    +0.000 C 
ATOM     10  C   UNL     1      61.554  64.056  70.144  0.00  0.00    +0.000 C 
ATOM     11  O   UNL     1      61.505  62.630  66.843  0.00  0.00    +0.000 OA
ATOM     12  C   UNL     1      61.032  62.220  66.306  0.00  0.00    +0.000 C 
ATOM     13  O   UNL     1      60.261  62.013  66.510  0.00  0.00    +0.000 OA
ATOM     14  C   UNL     1      61.331  62.018  65.563  0.00  0.00    +0.000 A 
ATOM     15  C   UNL     1      60.857  61.608  65.026  0.00  0.00    +0.000 A 
ATOM     16  C   UNL     1      61.157  61.406  64.284  0.00  0.00    +0.000 A 
ATOM     17  C   UNL     1      61.929  61.613  64.080  0.00  0.00    +0.000 A 
ATOM     18  C   UNL     1      62.401  62.023  64.618  0.00  0.00    +0.000 A 
ATOM     19  C   UNL     1      62.103  62.225  65.359  0.00  0.00    +0.000 A 
ENDROOT
TORSDOF 0
ENDMDL
MODEL 3
REMARK VINA RESULT:   -10.390      4.156      6.139
REMARK INTER + INTRA:         -10.390
REMARK INTER:                 -10.390
REMARK INTRA:                   0.000
REMARK UNBOUND:                 0.000
ROOT
REMARK  Name = hexylcaine
REMARK                            x       y       z     vdW  Elec       q    Type
REMARK                         _______ _______ _______ _____ _____    ______ ____
ATOM      1  C   UNL     1      63.345  64.780  69.647  0.00  0.00    +0.000 C 
ATOM      2  C   UNL     1      63.436  64.959  70.447  0.00  0.00    +0.000 C 
ATOM      3  C   UNL     1      62.982  64.567  71.012  0.00  0.00    +0.000 C 
ATOM      4  N   UNL     1      62.436  63.994  70.777  0.00  0.00    +0.000 NA
ATOM      5  C   UNL     1      61.982  63.601  71.343  0.00  0.00    +0.000 C 
ATOM      6  C   UNL     1      62.073  63.781  72.143  0.00  0.00    +0.000 C 
ATOM      7  C   UNL     1      61.619  63.388  72.708  0.00  0.00    +0.000 C 
ATOM      8  C   UNL     1      61.073  62.815  72.474  0.00  0.00    +0.000 C 
ATOM      9  C   UNL     1      60.981  62.636  71.674  0.00  0.00    +0.000 C 
ATOM     10  C   UNL     1      61.436  63.029  71.108  0.00  0.00    +0.000 C 
ATOM     11  O   UNL     1      63.982  65.532  70.682  0.00  0.00    +0.000 OA
ATOM     12  C   UNL     1      64.436  65.924  70.116  0.00  0.00    +0.000 C 
ATOM     13  O   UNL     1      64.345  65.745  69.317  0.00  0.00    +0.000 OA
ATOM     14  C   UNL     1      64.982  66.497  70.351  0.00  0.00    +0.000 A 
ATOM     15  C   UNL     1      65.437  66.890  69.785  0.00  0.00    +0.000 A 
ATOM     16  C   UNL     1      65.983  67.463  70.020  0.00  0.00    +0.000 A 
ATOM     17  C   UNL     1      66.074  67.642  70.820  0.00  0.00    +0.000 A 
ATOM     18  C   UNL     1      65.619  67.249  71.385  0.00  0.00    +0.000 A 
ATOM     19  C   UNL     1      65.074  66.677  71.151  0.00  0.00    +0.000 A 
ENDROOT
TORSDOF 0
ENDMDL
MODEL 4
REMARK VINA RESULT:   -10.272      1.473      1.939
REMARK INTER + INTRA:         -10.272
REMARK INTER:                 -10.272
REMARK INTRA:                   0.000
REMARK UNBOUND:                 0.000
ROOT
REMARK  Name = hexylcaine
REMARK                            x       y       z     vdW  Elec       q    Type
REMARK                         _______ _______ _______ _____ _____    ______ ____
ATOM      1  C   UNL     1      60.554  62.975  68.055  0.00  0.00    +0.000 C 
ATOM      2  C   UNL     1      61.346  63.076  67.849  0.00  0.00    +0.000 C 
ATOM      3  C   UNL     1      61.614  62.829  67.109  0.00  0.00    +0.000 C 
ATOM      4  N   UNL     1      61.089  62.482  66.575  0.00  0.00    +0.000 NA
ATOM      5  C   UNL     1      61.357  62.235  65.835  0.00  0.00    +0.000 C 
ATOM      6  C   UNL     1      62.150  62.336  65.628  0.00  0.00    +0.000 C 
ATOM      7  C   UNL     1      62.417  62.089  64.889  0.00  0.00    +0.000 C 
ATOM      8  C   UNL     1      61.893  61.741  64.354  0.00  0.00    +0.000 C 
ATOM      9  C   UNL     1      61.101  61.640  64.561  0.00  0.00    +0.000 C 
ATOM     10  C   UNL     1      60.832  61.887  65.302  0.00  0.00    +0.000 C 
ATOM     11  O   UNL     1      61.871  63.424  68.383  0.00  0.00    +0.000 OA
ATOM     12  C   UNL     1      61.602  63.671  69.123  0.00  0.00    +0.000 C 
ATOM     13  O   UNL     1      60.811  63.570  69.329  0.00  0.00    +0.000 OA
ATOM     14  C   UNL     1      62.127  64.019  69.657  0.00  0.00    +0.000 A 
ATOM     15  C   UNL     1      61.859  64.265  70.396  0.00  0.00    +0.000 A 
ATOM     16  C   UNL     1      62.384  64.613  70.930  0.00  0.00    +0.000 A 
ATOM     17  C   UNL     1      63.176  64.714  70.724  0.00  0.00    +0.000 A 
ATOM     18  C   UNL     1      63.443  64.467  69.983  0.00  0.00    +0.000 A 
ATOM     19  C   UNL     1      62.919  64.119  69.450  0.00  0.00    +0.000 A 
ENDROOT
TORSDOF 0
ENDMDL
MODEL 5
REMARK VINA RESULT:   -10.140      1.228      4.831
REMARK INTER + INTRA:         -10.140
REMARK INTER:                 -10.140
REMARK INTRA:                   0.000
REMARK UNBOUND:                 0.000
ROOT
REMARK  Name = hexylcaine
REMARK                            x       y       z     vdW  Elec       q    Type
REMARK                         _______ _______ _______ _____ _____    ______ ____
ATOM      1  C   UNL     1      60.219  63.540  68.207  0.00  0.00    +0.000 C 
ATOM      2  C   UNL     1      60.726  62.916  68.389  0.00  0.00    +0.000 C 
ATOM      3  C   UNL     1      60.899  62.740  69.176  0.00  0.00    +0.000 C 
ATOM      4  N   UNL     1      60.564  63.190  69.782  0.00  0.00    +0.000 NA
ATOM      5  C   UNL     1      60.737  63.014  70.569  0.00  0.00    +0.000 C 
ATOM      6  C   UNL     1      61.244  62.390  70.751  0.00  0.00    +0.000 C 
ATOM      7  C   UNL     1      61.417  62.214  71.538  0.00  0.00    +0.000 C 
ATOM      8  C   UNL     1      61.082  62.663  72.144  0.00  0.00    +0.000 C 
ATOM      9  C   UNL     1      60.575  63.288  71.962  0.00  0.00    +0.000 C 
ATOM     10  C   UNL     1      60.402  63.464  71.174  0.00  0.00    +0.000 C 
ATOM     11  O   UNL     1      61.061  62.467  67.783  0.00  0.00    +0.000 OA
ATOM     12  C   UNL     1      60.888  62.643  66.996  0.00  0.00    +0.000 C 
ATOM     13  O   UNL     1      60.381  63.267  66.814  0.00  0.00    +0.000 OA
ATOM     14  C   UNL     1      61.223  62.193  66.390  0.00  0.00    +0.000 A 
ATOM     15  C   UNL     1      61.049  62.369  65.603  0.00  0.00    +0.000 A 
ATOM     16  C   UNL     1      61.384  61.919  64.996  0.00  0.00    +0.000 A 
ATOM     17  C   UNL     1      61.892  61.294  65.178  0.00  0.00    +0.000 A 
ATOM     18  C   UNL     1      62.064  61.119  65.966  0.00  0.00    +0.000 A 
ATOM     19  C   UNL     1      61.730  61.568  66.571  0.00  0.00    +0.000 A 
ENDROOT
TORSDOF 0
ENDMDL
MODEL 6
REMARK VINA RESULT:    -9.775      3.760      5.533
REMARK INTER + INTRA:          -9.775
REMARK INTER:                  -9.775
REMARK INTRA:                   0.000
REMARK UNBOUND:                 0.000
ROOT
REMARK  Name = hexylcaine
REMARK                            x       y       z     vdW  Elec       q    Type
REMARK                         _______ _______ _______ _____ _____    ______ ____
ATOM      1  C   UNL     1      62.428  65.170  72.120  0.00  0.00    +0.000 C 
ATOM      2  C   UNL     1      62.651  64.911  71.370  0.00  0.00    +0.000 C 
ATOM      3  C   UNL     1      62.248  64.288  71.012  0.00  0.00    +0.000 C 
ATOM      4  N   UNL     1      61.620  63.922  71.405  0.00  0.00    +0.000 NA
ATOM      5  C   UNL     1      61.217  63.298  71.047  0.00  0.00    +0.000 C 
ATOM      6  C   UNL     1      61.440  63.039  70.296  0.00  0.00    +0.000 C 
ATOM      7  C   UNL     1      61.036  62.416  69.938  0.00  0.00    +0.000 C 
ATOM      8  C   UNL     1      60.409  62.050  70.331  0.00  0.00    +0.000 C 
ATOM      9  C   UNL     1      60.187  62.309  71.082  0.00  0.00    +0.000 C 
ATOM     10  C   UNL     1      60.591  62.933  71.440  0.00  0.00    +0.000 C 
ATOM     11  O   UNL     1      63.278  65.277  70.976  0.00  0.00    +0.000 OA
ATOM     12  C   UNL     1      63.682  65.901  71.335  0.00  0.00    +0.000 C 
ATOM     13  O   UNL     1      63.459  66.159  72.085  0.00  0.00    +0.000 OA
ATOM     14  C   UNL     1      64.309  66.266  70.941  0.00  0.00    +0.000 A 
ATOM     15  C   UNL     1      64.712  66.890  71.300  0.00  0.00    +0.000 A 
ATOM     16  C   UNL     1      65.339  67.256  70.906  0.00  0.00    +0.000 A 
ATOM     17  C   UNL     1      65.562  66.997  70.155  0.00  0.00    +0.000 A 
ATOM     18  C   UNL     1      65.158  66.372  69.798  0.00  0.00    +0.000 A 
ATOM     19  C   UNL     1      64.532  66.007  70.190  0.00  0.00    +0.000 A 
ENDROOT
TORSDOF 0
ENDMDL
MODEL 7
REMARK VINA RESULT:    -9.763      1.504      2.052
REMARK INTER + INTRA:          -9.763
REMARK INTER:                  -9.763
REMARK INTRA:                   0.000
REMARK UNBOUND:                 0.000
ROOT
REMARK  Name = hexylcaine
REMARK                            x       y       z     vdW  Elec       q    Type
REMARK                         _______ _______ _______ _____ _____    ______ ____
ATOM      1  C   UNL     1      62.147  63.773  68.790  0.00  0.00    +0.000 C 
ATOM      2  C   UNL     1      61.449  63.412  69.038  0.00  0.00    +0.000 C 
ATOM      3  C   UNL     1      60.945  63.065  68.484  0.00  0.00    +0.000 C 
ATOM      4  N   UNL     1      61.141  63.080  67.682  0.00  0.00    +0.000 NA
ATOM      5  C   UNL     1      60.637  62.733  67.129  0.00  0.00    +0.000 C 
ATOM      6  C   UNL     1      59.938  62.371  67.376  0.00  0.00    +0.000 C 
ATOM      7  C   UNL     1      59.435  62.025  66.822  0.00  0.00    +0.000 C 
ATOM      8  C   UNL     1      59.630  62.039  66.021  0.00  0.00    +0.000 C 
ATOM      9  C   UNL     1      60.329  62.401  65.773  0.00  0.00    +0.000 C 
ATOM     10  C   UNL     1      60.833  62.748  66.328  0.00  0.00    +0.000 C 
ATOM     11  O   UNL     1      61.253  63.397  69.840  0.00  0.00    +0.000 OA
ATOM     12  C   UNL     1      61.756  63.744  70.393  0.00  0.00    +0.000 C 
ATOM     13  O   UNL     1      62.455  64.105  70.146  0.00  0.00    +0.000 OA
ATOM     14  C   UNL     1      61.561  63.729  71.195  0.00  0.00    +0.000 A 
ATOM     15  C   UNL     1      62.064  64.076  71.748  0.00  0.00    +0.000 A 
ATOM     16  C   UNL     1      61.868  64.061  72.550  0.00  0.00    +0.000 A 
ATOM     17  C   UNL     1      61.169  63.699  72.798  0.00  0.00    +0.000 A 
ATOM     18  C   UNL     1      60.666  63.353  72.243  0.00  0.00    +0.000 A 
ATOM     19  C   UNL     1      60.861  63.367  71.442  0.00  0.00    +0.000 A 
ENDROOT
TORSDOF 0
ENDMDL
MODEL 8
REMARK VINA RESULT:    -9.608      3.313      4.878
REMARK INTER + INTRA:          -9.608
REMARK INTER:                  -9.608
REMARK INTRA:                   0.000
REMARK UNBOUND:                 0.000
ROOT
REMARK  Name = hexylcaine
REMARK                            x       y       z     vdW  Elec       q    Type
REMARK                         _______ _______ _______ _____ _____    ______ ____
ATOM      1  C   UNL     1      62.451  64.114  71.115  0.00  0.00    +0.000 C 
ATOM      2  C   UNL     1      62.635  64.291  70.331  0.00  0.00    +0.000 C 
ATOM      3  C   UNL     1      63.209  64.858  70.160  0.00  0.00    +0.000 C 
ATOM      4  N   UNL     1      63.598  65.249  70.774  0.00  0.00    +0.000 NA
ATOM      5  C   UNL     1      64.172  65.817  70.603  0.00  0.00    +0.000 C 
ATOM      6  C   UNL     1      64.356  65.994  69.818  0.00  0.00    +0.000 C 
ATOM      7  C   UNL     1      64.929  66.561  69.648  0.00  0.00    +0.000 C 
ATOM      8  C   UNL     1      65.319  66.952  70.261  0.00  0.00    +0.000 C 
ATOM      9  C   UNL     1      65.135  66.775  71.045  0.00  0.00    +0.000 C 
ATOM     10  C   UNL     1      64.561  66.207  71.217  0.00  0.00    +0.000 C 
ATOM     11  O   UNL     1      62.246  63.900  69.717  0.00  0.00    +0.000 OA
ATOM     12  C   UNL     1      61.672  63.332  69.889  0.00  0.00    +0.000 C 
ATOM     13  O   UNL     1      61.488  63.155  70.672  0.00  0.00    +0.000 OA
ATOM     14  C   UNL     1      61.283  62.941  69.274  0.00  0.00    +0.000 A 
ATOM     15  C   UNL     1      60.709  62.374  69.446  0.00  0.00    +0.000 A 
ATOM     16  C   UNL     1      60.320  61.983  68.832  0.00  0.00    +0.000 A 
ATOM     17  C   UNL     1      60.504  62.160  68.047  0.00  0.00    +0.000 A 
ATOM     18  C   UNL     1      61.078  62.728  67.877  0.00  0.00    +0.000 A 
ATOM     19  C   UNL     1      61.467  63.118  68.490  0.00  0.00    +0.000 A 
ENDROOT
TORSDOF 0
ENDMDL
MODEL 9
REMARK VINA RESULT:    -8.910      2.768      5.673
REMARK INTER + INTRA:          -8.910
REMARK INTER:                  -8.910
REMARK INTRA:                   0.000
REMARK UNBOUND:                 0.000
ROOT
REMARK  Name = hexylcaine
REMARK                            x       y       z     vdW  Elec       q    Type
REMARK                         _______ _______ _______ _____ _____    ______ ____
ATOM      1  C   UNL     1      60.353  65.665  69.570  0.00  0.00    +0.000 C 
ATOM      2  C   UNL     1      60.051  65.012  69.971  0.00  0.00    +0.000 C 
ATOM      3  C   UNL     1      59.648  65.114  70.683  0.00  0.00    +0.000 C 
ATOM      4  N   UNL     1      59.546  65.873  70.994  0.00  0.00    +0.000 NA
ATOM      5  C   UNL     1      59.143  65.975  71.706  0.00  0.00    +0.000 C 
ATOM      6  C   UNL     1      58.840  65.321  72.107  0.00  0.00    +0.000 C 
ATOM      7  C   UNL     1      58.437  65.425  72.819  0.00  0.00    +0.000 C 
ATOM      8  C   UNL     1      58.335  66.182  73.130  0.00  0.00    +0.000 C 
ATOM      9  C   UNL     1      58.638  66.836  72.728  0.00  0.00    +0.000 C 
ATOM     10  C   UNL     1      59.042  66.733  72.016  0.00  0.00    +0.000 C 
ATOM     11  O   UNL     1      60.153  64.253  69.661  0.00  0.00    +0.000 OA
ATOM     12  C   UNL     1      60.556  64.150  68.949  0.00  0.00    +0.000 C 
ATOM     13  O   UNL     1      60.858  64.804  68.548  0.00  0.00    +0.000 OA
ATOM     14  C   UNL     1      60.657  63.392  68.638  0.00  0.00    +0.000 A 
ATOM     15  C   UNL     1      61.061  63.289  67.926  0.00  0.00    +0.000 A 
ATOM     16  C   UNL     1      61.162  62.531  67.616  0.00  0.00    +0.000 A 
ATOM     17  C   UNL     1      60.860  61.877  68.017  0.00  0.00    +0.000 A 
ATOM     18  C   UNL     1      60.456  61.981  68.729  0.00  0.00    +0.000 A 
ATOM     19  C   UNL     1      60.355  62.738  69.040  0.00  0.00    +0.000 A 
ENDROOT
TORSDOF 0
ENDMDL
