MODEL 1
REMARK VINA RESULT:    -8.786      0.000      0.000
REMARK INTER + INTRA:          -8.786
REMARK INTER:                  -8.786
REMARK INTRA:                   0.000
REMARK UNBOUND:                 0.000
ROOT
REMARK  Name = hexylresorcinol
REMARK                            x       y       z     vdW  Elec       q    Type
REMARK                         _______ _______ _______ _____ _____    ______ ____
ATOM      1  C   UNL     1      60.784  62.758  69.382  0.00  0.00    +0.000 C 
ATOM      2  C   UNL     1      60.514  62.396  68.691  0.00  0.00    +0.000 C 
ATOM      3  C   UNL     1      60.978  62.411  68.009  0.00  0.00    +0.000 C 
ATOM      4  C   UNL     1      60.707  62.050  67.319  0.00  0.00    +0.000 C 
ATOM      5  C   UNL     1      61.172  62.065  66.636  0.00  0.00    +0.000 C 
ATOM      6  C   UNL     1      60.901  61.703  65.946  0.00  0.00    +0.000 C 
ATOM      7  C   UNL     1      61.366  61.718  65.263  0.00  0.00    +0.000 A 
ATOM      8  C   UNL     1      61.095  61.357  64.573  0.00  0.00    +0.000 A 
ATOM      9  O   UNL     1      60.362  60.981  64.565  0.00  0.00    +0.000 OA
ATOM     10  C   UNL     1      61.559  61.372  63.891  0.00  0.00    +0.000 A 
ATOM     11  C   UNL     1      62.294  61.748  63.899  0.00  0.00    +0.000 A 
ATOM     12  O   UNL     1      62.757  61.763  63.218  0.00  0.00    +0.000 OA
ATOM     13  C   UNL     1      62.563  62.110  64.590  0.00  0.00    +0.000 A 
ATOM     14  C   UNL     1      62.100  62.095  65.272  0.00  0.00    +0.000 A 
ENDROOT
TORSDOF 0
ENDMDL
MODEL 2
REMARK VINA RESULT:    -8.415      2.101      4.370
REMARK INTER + INTRA:          -8.415
REMARK INTER:                  -8.415
REMARK INTRA:                   0.000
REMARK UNBOUND:                 0.000
ROOT
REMARK  Name = hexylresorcinol
REMARK                            x       y       z     vdW  Elec       q    Type
REMARK                         _______ _______ _______ _____ _____    ______ ____
ATOM      1  C   UNL     1      62.311  61.637  63.768  0.00  0.00    +0.000 C 
ATOM      2  C   UNL     1      62.313  62.184  64.386  0.00  0.00    +0.000 C 
ATOM      3  C   UNL     1      61.955  61.995  65.105  0.00  0.00    +0.000 C 
ATOM      4  C   UNL     1      61.956  62.542  65.722  0.00  0.00    +0.000 C 
ATOM      5  C   UNL     1      61.599  62.352  66.442  0.00  0.00    +0.000 C 
ATOM      6  C   UNL     1      61.600  62.899  67.059  0.00  0.00    +0.000 C 
ATOM      7  C   UNL     1      61.242  62.710  67.779  0.00  0.00    +0.000 A 
ATOM      8  C   UNL     1      61.244  63.257  68.396  0.00  0.00    +0.000 A 
ATOM      9  O   UNL     1      61.602  63.992  68.295  0.00  0.00    +0.000 OA
ATOM     10  C   UNL     1      60.886  63.068  69.116  0.00  0.00    +0.000 A 
ATOM     11  C   UNL     1      60.527  62.332  69.217  0.00  0.00    +0.000 A 
ATOM     12  O   UNL     1      60.170  62.143  69.935  0.00  0.00    +0.000 OA
ATOM     13  C   UNL     1      60.526  61.785  68.599  0.00  0.00    +0.000 A 
ATOM     14  C   UNL     1      60.883  61.974  67.880  0.00  0.00    +0.000 A 
ENDROOT
TORSDOF 0
ENDMDL
MODEL 3
REMARK VINA RESULT:    -8.323      1.188      1.996
REMARK INTER + INTRA:          -8.323
REMARK INTER:                  -8.323
REMARK INTRA:                   0.000
REMARK UNBOUND:                 0.000
ROOT
REMARK  Name = hexylresorcinol
REMARK                            x       y       z     vdW  Elec       q    Type
REMARK                         _______ _______ _______ _____ _____    ______ ____
ATOM      1  C   UNL     1      61.010  61.955  71.181  0.00  0.00    +0.000 C 
ATOM      2  C   UNL     1      60.511  62.045  70.530  0.00  0.00    +0.000 C 
ATOM      3  C   UNL     1      60.813  61.970  69.765  0.00  0.00    +0.000 C 
ATOM      4  C   UNL     1      60.314  62.059  69.115  0.00  0.00    +0.000 C 
ATOM      5  C   UNL     1      60.617  61.984  68.350  0.00  0.00    +0.000 C 
ATOM      6  C   UNL     1      60.118  62.074  67.700  0.00  0.00    +0.000 C 
ATOM      7  C   UNL     1      60.420  61.999  66.935  0.00  0.00    +0.000 A 
ATOM      8  C   UNL     1      59.921  62.089  66.284  0.00  0.00    +0.000 A 
ATOM      9  O   UNL     1      59.121  62.254  66.397  0.00  0.00    +0.000 OA
ATOM     10  C   UNL     1      60.223  62.014  65.520  0.00  0.00    +0.000 A 
ATOM     11  C   UNL     1      61.023  61.849  65.407  0.00  0.00    +0.000 A 
ATOM     12  O   UNL     1      61.325  61.774  64.643  0.00  0.00    +0.000 OA
ATOM     13  C   UNL     1      61.522  61.759  66.058  0.00  0.00    +0.000 A 
ATOM     14  C   UNL     1      61.220  61.834  66.822  0.00  0.00    +0.000 A 
ENDROOT
TORSDOF 0
ENDMDL
MODEL 4
REMARK VINA RESULT:    -7.916      3.582      5.950
REMARK INTER + INTRA:          -7.916
REMARK INTER:                  -7.916
REMARK INTRA:                   0.000
REMARK UNBOUND:                 0.000
ROOT
REMARK  Name = hexylresorcinol
REMARK                            x       y       z     vdW  Elec       q    Type
REMARK                         _______ _______ _______ _____ _____    ______ ____
ATOM      1  C   UNL     1      59.698  62.357  66.671  0.00  0.00    +0.000 C 
ATOM      2  C   UNL     1      60.069  61.981  67.305  0.00  0.00    +0.000 C 
ATOM      3  C   UNL     1      60.116  62.358  68.038  0.00  0.00    +0.000 C 
ATOM      4  C   UNL     1      60.487  61.981  68.671  0.00  0.00    +0.000 C 
ATOM      5  C   UNL     1      60.534  62.358  69.404  0.00  0.00    +0.000 C 
ATOM      6  C   UNL     1      60.905  61.981  70.038  0.00  0.00    +0.000 C 
ATOM      7  C   UNL     1      60.952  62.358  70.771  0.00  0.00    +0.000 A 
ATOM      8  C   UNL     1      61.323  61.982  71.404  0.00  0.00    +0.000 A 
ATOM      9  O   UNL     1      61.646  61.230  71.305  0.00  0.00    +0.000 OA
ATOM     10  C   UNL     1      61.370  62.359  72.137  0.00  0.00    +0.000 A 
ATOM     11  C   UNL     1      61.046  63.111  72.236  0.00  0.00    +0.000 A 
ATOM     12  O   UNL     1      61.093  63.487  72.968  0.00  0.00    +0.000 OA
ATOM     13  C   UNL     1      60.675  63.486  71.602  0.00  0.00    +0.000 A 
ATOM     14  C   UNL     1      60.628  63.111  70.870  0.00  0.00    +0.000 A 
ENDROOT
TORSDOF 0
ENDMDL
MODEL 5
REMARK VINA RESULT:    -7.617      2.887      4.284
REMARK INTER + INTRA:          -7.617
REMARK INTER:                  -7.617
REMARK INTRA:                   0.000
REMARK UNBOUND:                 0.000
ROOT
REMARK  Name = hexylresorcinol
REMARK                            x       y       z     vdW  Elec       q    Type
REMARK                         _______ _______ _______ _____ _____    ______ ____
ATOM      1  C   UNL     1      61.641  62.592  73.206  0.00  0.00    +0.000 C 
ATOM      2  C   UNL     1      61.452  63.073  72.563  0.00  0.00    +0.000 C 
ATOM      3  C   UNL     1      61.259  62.732  71.836  0.00  0.00    +0.000 C 
ATOM      4  C   UNL     1      61.069  63.213  71.194  0.00  0.00    +0.000 C 
ATOM      5  C   UNL     1      60.877  62.872  70.467  0.00  0.00    +0.000 C 
ATOM      6  C   UNL     1      60.687  63.353  69.824  0.00  0.00    +0.000 C 
ATOM      7  C   UNL     1      60.494  63.013  69.097  0.00  0.00    +0.000 A 
ATOM      8  C   UNL     1      60.305  63.494  68.454  0.00  0.00    +0.000 A 
ATOM      9  O   UNL     1      60.308  64.314  68.538  0.00  0.00    +0.000 OA
ATOM     10  C   UNL     1      60.112  63.153  67.727  0.00  0.00    +0.000 A 
ATOM     11  C   UNL     1      60.109  62.332  67.644  0.00  0.00    +0.000 A 
ATOM     12  O   UNL     1      59.917  61.993  66.918  0.00  0.00    +0.000 OA
ATOM     13  C   UNL     1      60.299  61.852  68.288  0.00  0.00    +0.000 A 
ATOM     14  C   UNL     1      60.492  62.192  69.014  0.00  0.00    +0.000 A 
ENDROOT
TORSDOF 0
ENDMDL
MODEL 6
REMARK VINA RESULT:    -7.545      5.487      7.231
REMARK INTER + INTRA:          -7.545
REMARK INTER:                  -7.545
REMARK INTRA:                   0.000
REMARK UNBOUND:                 0.000
ROOT
REMARK  Name = hexylresorcinol
REMARK                            x       y       z     vdW  Elec       q    Type
REMARK                         _______ _______ _______ _____ _____    ______ ____
ATOM      1  C   UNL     1      66.661  67.868  69.839  0.00  0.00    +0.000 C 
ATOM      2  C   UNL     1      66.079  67.613  70.365  0.00  0.00    +0.000 C 
ATOM      3  C   UNL     1      65.597  66.973  70.168  0.00  0.00    +0.000 C 
ATOM      4  C   UNL     1      65.015  66.718  70.694  0.00  0.00    +0.000 C 
ATOM      5  C   UNL     1      64.533  66.078  70.496  0.00  0.00    +0.000 C 
ATOM      6  C   UNL     1      63.951  65.823  71.023  0.00  0.00    +0.000 C 
ATOM      7  C   UNL     1      63.469  65.183  70.825  0.00  0.00    +0.000 A 
ATOM      8  C   UNL     1      62.887  64.928  71.351  0.00  0.00    +0.000 A 
ATOM      9  O   UNL     1      62.786  65.313  72.073  0.00  0.00    +0.000 OA
ATOM     10  C   UNL     1      62.404  64.288  71.154  0.00  0.00    +0.000 A 
ATOM     11  C   UNL     1      62.505  63.903  70.431  0.00  0.00    +0.000 A 
ATOM     12  O   UNL     1      62.023  63.263  70.235  0.00  0.00    +0.000 OA
ATOM     13  C   UNL     1      63.087  64.159  69.906  0.00  0.00    +0.000 A 
ATOM     14  C   UNL     1      63.569  64.798  70.102  0.00  0.00    +0.000 A 
ENDROOT
TORSDOF 0
ENDMDL
MODEL 7
REMARK VINA RESULT:    -7.517      6.484      7.381
REMARK INTER + INTRA:          -7.517
REMARK INTER:                  -7.517
REMARK INTRA:                   0.000
REMARK UNBOUND:                 0.000
ROOT
REMARK  Name = hexylresorcinol
REMARK                            x       y       z     vdW  Elec       q    Type
REMARK                         _______ _______ _______ _____ _____    ______ ____
ATOM      1  C   UNL     1      61.397  63.649  72.486  0.00  0.00    +0.000 C 
ATOM      2  C   UNL     1      61.734  63.985  71.812  0.00  0.00    +0.000 C 
ATOM      3  C   UNL     1      62.405  64.461  71.881  0.00  0.00    +0.000 C 
ATOM      4  C   UNL     1      62.743  64.797  71.208  0.00  0.00    +0.000 C 
ATOM      5  C   UNL     1      63.414  65.273  71.277  0.00  0.00    +0.000 C 
ATOM      6  C   UNL     1      63.751  65.609  70.603  0.00  0.00    +0.000 C 
ATOM      7  C   UNL     1      64.422  66.085  70.672  0.00  0.00    +0.000 A 
ATOM      8  C   UNL     1      64.760  66.421  69.999  0.00  0.00    +0.000 A 
ATOM      9  O   UNL     1      64.427  66.282  69.257  0.00  0.00    +0.000 OA
ATOM     10  C   UNL     1      65.431  66.897  70.068  0.00  0.00    +0.000 A 
ATOM     11  C   UNL     1      65.763  67.037  70.810  0.00  0.00    +0.000 A 
ATOM     12  O   UNL     1      66.433  67.512  70.878  0.00  0.00    +0.000 OA
ATOM     13  C   UNL     1      65.424  66.700  71.483  0.00  0.00    +0.000 A 
ATOM     14  C   UNL     1      64.755  66.225  71.414  0.00  0.00    +0.000 A 
ENDROOT
TORSDOF 0
ENDMDL
MODEL 8
REMARK VINA RESULT:    -7.347      6.962      7.902
REMARK INTER + INTRA:          -7.347
REMARK INTER:                  -7.347
REMARK INTRA:                   0.000
REMARK UNBOUND:                 0.000
ROOT
REMARK  Name = hexylresorcinol
REMARK                            x       y       z     vdW  Elec       q    Type
REMARK                         _______ _______ _______ _____ _____    ______ ____
ATOM      1  C   UNL     1      61.945  60.878  71.961  0.00  0.00    +0.000 C 
ATOM      2  C   UNL     1      62.026  61.649  72.240  0.00  0.00    +0.000 C 
ATOM      3  C   UNL     1      61.401  62.183  72.163  0.00  0.00    +0.000 C 
ATOM      4  C   UNL     1      61.482  62.955  72.443  0.00  0.00    +0.000 C 
ATOM      5  C   UNL     1      60.857  63.489  72.365  0.00  0.00    +0.000 C 
ATOM      6  C   UNL     1      60.938  64.261  72.645  0.00  0.00    +0.000 C 
ATOM      7  C   UNL     1      60.313  64.795  72.568  0.00  0.00    +0.000 A 
ATOM      8  C   UNL     1      60.394  65.567  72.848  0.00  0.00    +0.000 A 
ATOM      9  O   UNL     1      61.098  65.805  73.204  0.00  0.00    +0.000 OA
ATOM     10  C   UNL     1      59.769  66.101  72.770  0.00  0.00    +0.000 A 
ATOM     11  C   UNL     1      59.064  65.863  72.413  0.00  0.00    +0.000 A 
ATOM     12  O   UNL     1      58.441  66.396  72.336  0.00  0.00    +0.000 OA
ATOM     13  C   UNL     1      58.985  65.090  72.134  0.00  0.00    +0.000 A 
ATOM     14  C   UNL     1      59.608  64.557  72.211  0.00  0.00    +0.000 A 
ENDROOT
TORSDOF 0
ENDMDL
MODEL 9
REMARK VINA RESULT:    -7.272      6.797      8.308
REMARK INTER + INTRA:          -7.272
REMARK INTER:                  -7.272
REMARK INTRA:                   0.000
REMARK UNBOUND:                 0.000
ROOT
REMARK  Name = hexylresorcinol
REMARK                            x       y       z     vdW  Elec       q    Type
REMARK                         _______ _______ _______ _____ _____    ______ ____
ATOM      1  C   UNL     1      66.499  67.633  69.870  0.00  0.00    +0.000 C 
ATOM      2  C   UNL     1      66.004  67.622  70.530  0.00  0.00    +0.000 C 
ATOM      3  C   UNL     1      65.365  67.100  70.557  0.00  0.00    +0.000 C 
ATOM      4  C   UNL     1      64.870  67.089  71.217  0.00  0.00    +0.000 C 
ATOM      5  C   UNL     1      64.230  66.567  71.244  0.00  0.00    +0.000 C 
ATOM      6  C   UNL     1      63.735  66.557  71.904  0.00  0.00    +0.000 C 
ATOM      7  C   UNL     1      63.096  66.034  71.931  0.00  0.00    +0.000 A 
ATOM      8  C   UNL     1      62.601  66.024  72.590  0.00  0.00    +0.000 A 
ATOM      9  O   UNL     1      62.744  66.533  73.222  0.00  0.00    +0.000 OA
ATOM     10  C   UNL     1      61.962  65.501  72.618  0.00  0.00    +0.000 A 
ATOM     11  C   UNL     1      61.819  64.991  71.986  0.00  0.00    +0.000 A 
ATOM     12  O   UNL     1      61.181  64.470  72.013  0.00  0.00    +0.000 OA
ATOM     13  C   UNL     1      62.315  65.003  71.326  0.00  0.00    +0.000 A 
ATOM     14  C   UNL     1      62.953  65.524  71.299  0.00  0.00    +0.000 A 
ENDROOT
TORSDOF 0
ENDMDL
