MODEL 1
REMARK VINA RESULT:   -11.158      0.000      0.000
REMARK INTER + INTRA:         -11.158
REMARK INTER:                 -11.158
REMARK INTRA:                   0.000
REMARK UNBOUND:                 0.000
ROOT
REMARK  Name = homatropine
REMARK                            x       y       z     vdW  Elec       q    Type
REMARK                         _______ _______ _______ _____ _____    ______ ____
ATOM      1  C   UNL     1      61.071  61.710  65.344  0.00  0.00    +0.000 C 
ATOM      2  N   UNL     1      61.646  61.824  64.762  0.00  0.00    +0.000 NA
ATOM      3  C   UNL     1      61.120  61.238  64.221  0.00  0.00    +0.000 C 
ATOM      4  C   UNL     1      61.804  61.520  63.856  0.00  0.00    +0.000 C 
ATOM      5  C   UNL     1      62.377  62.029  64.160  0.00  0.00    +0.000 C 
ATOM      6  C   UNL     1      62.408  62.384  64.904  0.00  0.00    +0.000 C 
ATOM      7  C   UNL     1      61.872  62.315  65.529  0.00  0.00    +0.000 C 
ATOM      8  C   UNL     1      61.175  61.876  65.563  0.00  0.00    +0.000 C 
ATOM      9  C   UNL     1      60.840  61.397  64.981  0.00  0.00    +0.000 C 
ATOM     10  O   UNL     1      60.757  61.923  66.273  0.00  0.00    +0.000 OA
ATOM     11  C   UNL     1      61.045  62.388  66.891  0.00  0.00    +0.000 C 
ATOM     12  O   UNL     1      61.749  62.806  66.799  0.00  0.00    +0.000 OA
ATOM     13  C   UNL     1      60.627  62.435  67.601  0.00  0.00    +0.000 C 
ATOM     14  O   UNL     1      59.921  62.016  67.692  0.00  0.00    +0.000 OA
ATOM     15  C   UNL     1      60.913  62.899  68.219  0.00  0.00    +0.000 A 
ATOM     16  C   UNL     1      60.495  62.946  68.929  0.00  0.00    +0.000 A 
ATOM     17  C   UNL     1      60.783  63.411  69.546  0.00  0.00    +0.000 A 
ATOM     18  C   UNL     1      61.488  63.829  69.455  0.00  0.00    +0.000 A 
ATOM     19  C   UNL     1      61.906  63.783  68.745  0.00  0.00    +0.000 A 
ATOM     20  C   UNL     1      61.618  63.317  68.126  0.00  0.00    +0.000 A 
ENDROOT
TORSDOF 0
ENDMDL
MODEL 2
REMARK VINA RESULT:   -10.580      0.999      3.900
REMARK INTER + INTRA:         -10.580
REMARK INTER:                 -10.580
REMARK INTRA:                   0.000
REMARK UNBOUND:                 0.000
ROOT
REMARK  Name = homatropine
REMARK                            x       y       z     vdW  Elec       q    Type
REMARK                         _______ _______ _______ _____ _____    ______ ____
ATOM      1  C   UNL     1      60.483  62.490  67.661  0.00  0.00    +0.000 C 
ATOM      2  N   UNL     1      60.885  62.955  68.212  0.00  0.00    +0.000 NA
ATOM      3  C   UNL     1      60.136  62.805  68.786  0.00  0.00    +0.000 C 
ATOM      4  C   UNL     1      60.731  63.275  69.114  0.00  0.00    +0.000 C 
ATOM      5  C   UNL     1      61.445  63.511  68.775  0.00  0.00    +0.000 C 
ATOM      6  C   UNL     1      61.741  63.336  68.025  0.00  0.00    +0.000 C 
ATOM      7  C   UNL     1      61.396  62.882  67.429  0.00  0.00    +0.000 C 
ATOM      8  C   UNL     1      60.670  62.490  67.434  0.00  0.00    +0.000 C 
ATOM      9  C   UNL     1      60.110  62.456  68.038  0.00  0.00    +0.000 C 
ATOM     10  O   UNL     1      60.480  62.078  66.745  0.00  0.00    +0.000 OA
ATOM     11  C   UNL     1      61.004  62.077  66.108  0.00  0.00    +0.000 C 
ATOM     12  O   UNL     1      61.717  62.488  66.159  0.00  0.00    +0.000 OA
ATOM     13  C   UNL     1      60.814  61.666  65.419  0.00  0.00    +0.000 C 
ATOM     14  O   UNL     1      60.100  61.255  65.367  0.00  0.00    +0.000 OA
ATOM     15  C   UNL     1      61.337  61.664  64.781  0.00  0.00    +0.000 A 
ATOM     16  C   UNL     1      61.146  61.252  64.092  0.00  0.00    +0.000 A 
ATOM     17  C   UNL     1      61.670  61.251  63.455  0.00  0.00    +0.000 A 
ATOM     18  C   UNL     1      62.384  61.661  63.506  0.00  0.00    +0.000 A 
ATOM     19  C   UNL     1      62.574  62.073  64.195  0.00  0.00    +0.000 A 
ATOM     20  C   UNL     1      62.050  62.075  64.833  0.00  0.00    +0.000 A 
ENDROOT
TORSDOF 0
ENDMDL
MODEL 3
REMARK VINA RESULT:   -10.111      1.998      3.065
REMARK INTER + INTRA:         -10.111
REMARK INTER:                 -10.111
REMARK INTRA:                   0.000
REMARK UNBOUND:                 0.000
ROOT
REMARK  Name = homatropine
REMARK                            x       y       z     vdW  Elec       q    Type
REMARK                         _______ _______ _______ _____ _____    ______ ____
ATOM      1  C   UNL     1      60.432  62.268  68.274  0.00  0.00    +0.000 C 
ATOM      2  N   UNL     1      60.739  62.619  67.593  0.00  0.00    +0.000 NA
ATOM      3  C   UNL     1      60.174  62.018  67.109  0.00  0.00    +0.000 C 
ATOM      4  C   UNL     1      60.626  62.520  66.635  0.00  0.00    +0.000 C 
ATOM      5  C   UNL     1      61.166  63.100  66.867  0.00  0.00    +0.000 C 
ATOM      6  C   UNL     1      61.386  63.320  67.631  0.00  0.00    +0.000 C 
ATOM      7  C   UNL     1      61.122  63.015  68.352  0.00  0.00    +0.000 C 
ATOM      8  C   UNL     1      60.573  62.416  68.486  0.00  0.00    +0.000 C 
ATOM      9  C   UNL     1      60.151  61.972  67.933  0.00  0.00    +0.000 C 
ATOM     10  O   UNL     1      60.425  62.236  69.278  0.00  0.00    +0.000 OA
ATOM     11  C   UNL     1      60.819  62.648  69.874  0.00  0.00    +0.000 C 
ATOM     12  O   UNL     1      61.359  63.239  69.680  0.00  0.00    +0.000 OA
ATOM     13  C   UNL     1      60.671  62.468  70.666  0.00  0.00    +0.000 C 
ATOM     14  O   UNL     1      60.130  61.876  70.861  0.00  0.00    +0.000 OA
ATOM     15  C   UNL     1      61.065  62.880  71.263  0.00  0.00    +0.000 A 
ATOM     16  C   UNL     1      60.917  62.700  72.054  0.00  0.00    +0.000 A 
ATOM     17  C   UNL     1      61.310  63.112  72.650  0.00  0.00    +0.000 A 
ATOM     18  C   UNL     1      61.851  63.704  72.456  0.00  0.00    +0.000 A 
ATOM     19  C   UNL     1      61.999  63.883  71.665  0.00  0.00    +0.000 A 
ATOM     20  C   UNL     1      61.605  63.471  71.067  0.00  0.00    +0.000 A 
ENDROOT
TORSDOF 0
ENDMDL
MODEL 4
REMARK VINA RESULT:   -10.068      5.109      6.453
REMARK INTER + INTRA:         -10.068
REMARK INTER:                 -10.068
REMARK INTRA:                   0.000
REMARK UNBOUND:                 0.000
ROOT
REMARK  Name = homatropine
REMARK                            x       y       z     vdW  Elec       q    Type
REMARK                         _______ _______ _______ _____ _____    ______ ____
ATOM      1  C   UNL     1      64.668  66.113  70.259  0.00  0.00    +0.000 C 
ATOM      2  N   UNL     1      65.014  66.732  70.681  0.00  0.00    +0.000 NA
ATOM      3  C   UNL     1      65.531  66.892  69.894  0.00  0.00    +0.000 C 
ATOM      4  C   UNL     1      65.689  67.408  70.518  0.00  0.00    +0.000 C 
ATOM      5  C   UNL     1      65.348  67.427  71.269  0.00  0.00    +0.000 C 
ATOM      6  C   UNL     1      64.764  66.935  71.581  0.00  0.00    +0.000 C 
ATOM      7  C   UNL     1      64.377  66.301  71.219  0.00  0.00    +0.000 C 
ATOM      8  C   UNL     1      64.478  66.005  70.456  0.00  0.00    +0.000 C 
ATOM      9  C   UNL     1      64.992  66.267  69.867  0.00  0.00    +0.000 C 
ATOM     10  O   UNL     1      64.004  65.360  70.257  0.00  0.00    +0.000 OA
ATOM     11  C   UNL     1      63.471  65.055  70.808  0.00  0.00    +0.000 C 
ATOM     12  O   UNL     1      63.412  65.393  71.557  0.00  0.00    +0.000 OA
ATOM     13  C   UNL     1      62.996  64.410  70.608  0.00  0.00    +0.000 C 
ATOM     14  O   UNL     1      63.054  64.071  69.858  0.00  0.00    +0.000 OA
ATOM     15  C   UNL     1      62.463  64.104  71.158  0.00  0.00    +0.000 A 
ATOM     16  C   UNL     1      61.988  63.459  70.959  0.00  0.00    +0.000 A 
ATOM     17  C   UNL     1      61.456  63.154  71.509  0.00  0.00    +0.000 A 
ATOM     18  C   UNL     1      61.397  63.492  72.260  0.00  0.00    +0.000 A 
ATOM     19  C   UNL     1      61.872  64.137  72.459  0.00  0.00    +0.000 A 
ATOM     20  C   UNL     1      62.405  64.443  71.908  0.00  0.00    +0.000 A 
ENDROOT
TORSDOF 0
ENDMDL
MODEL 5
REMARK VINA RESULT:   -10.013      5.013      6.263
REMARK INTER + INTRA:         -10.013
REMARK INTER:                 -10.013
REMARK INTRA:                   0.000
REMARK UNBOUND:                 0.000
ROOT
REMARK  Name = homatropine
REMARK                            x       y       z     vdW  Elec       q    Type
REMARK                         _______ _______ _______ _____ _____    ______ ____
ATOM      1  C   UNL     1      62.298  63.803  71.019  0.00  0.00    +0.000 C 
ATOM      2  N   UNL     1      61.829  63.708  71.691  0.00  0.00    +0.000 NA
ATOM      3  C   UNL     1      61.446  62.959  71.237  0.00  0.00    +0.000 C 
ATOM      4  C   UNL     1      61.135  63.100  71.989  0.00  0.00    +0.000 C 
ATOM      5  C   UNL     1      61.337  63.693  72.526  0.00  0.00    +0.000 C 
ATOM      6  C   UNL     1      61.898  64.292  72.444  0.00  0.00    +0.000 C 
ATOM      7  C   UNL     1      62.398  64.445  71.805  0.00  0.00    +0.000 C 
ATOM      8  C   UNL     1      62.459  64.038  71.090  0.00  0.00    +0.000 C 
ATOM      9  C   UNL     1      62.036  63.377  70.838  0.00  0.00    +0.000 C 
ATOM     10  O   UNL     1      63.018  64.330  70.558  0.00  0.00    +0.000 OA
ATOM     11  C   UNL     1      63.471  64.990  70.758  0.00  0.00    +0.000 C 
ATOM     12  O   UNL     1      63.366  65.357  71.488  0.00  0.00    +0.000 OA
ATOM     13  C   UNL     1      64.029  65.283  70.226  0.00  0.00    +0.000 C 
ATOM     14  O   UNL     1      64.134  64.915  69.494  0.00  0.00    +0.000 OA
ATOM     15  C   UNL     1      64.483  65.943  70.424  0.00  0.00    +0.000 A 
ATOM     16  C   UNL     1      65.041  66.235  69.892  0.00  0.00    +0.000 A 
ATOM     17  C   UNL     1      65.494  66.894  70.091  0.00  0.00    +0.000 A 
ATOM     18  C   UNL     1      65.390  67.262  70.822  0.00  0.00    +0.000 A 
ATOM     19  C   UNL     1      64.832  66.970  71.354  0.00  0.00    +0.000 A 
ATOM     20  C   UNL     1      64.378  66.309  71.155  0.00  0.00    +0.000 A 
ENDROOT
TORSDOF 0
ENDMDL
MODEL 6
REMARK VINA RESULT:    -9.556      5.254      7.048
REMARK INTER + INTRA:          -9.556
REMARK INTER:                  -9.556
REMARK INTRA:                   0.000
REMARK UNBOUND:                 0.000
ROOT
REMARK  Name = homatropine
REMARK                            x       y       z     vdW  Elec       q    Type
REMARK                         _______ _______ _______ _____ _____    ______ ____
ATOM      1  C   UNL     1      60.240  65.573  72.823  0.00  0.00    +0.000 C 
ATOM      2  N   UNL     1      59.568  66.013  72.632  0.00  0.00    +0.000 NA
ATOM      3  C   UNL     1      59.916  66.679  73.222  0.00  0.00    +0.000 C 
ATOM      4  C   UNL     1      59.197  66.876  72.869  0.00  0.00    +0.000 C 
ATOM      5  C   UNL     1      58.747  66.435  72.337  0.00  0.00    +0.000 C 
ATOM      6  C   UNL     1      58.904  65.687  72.027  0.00  0.00    +0.000 C 
ATOM      7  C   UNL     1      59.551  65.195  72.172  0.00  0.00    +0.000 C 
ATOM      8  C   UNL     1      60.200  65.330  72.663  0.00  0.00    +0.000 C 
ATOM      9  C   UNL     1      60.363  65.990  73.130  0.00  0.00    +0.000 C 
ATOM     10  O   UNL     1      60.760  64.725  72.691  0.00  0.00    +0.000 OA
ATOM     11  C   UNL     1      60.650  64.040  72.243  0.00  0.00    +0.000 C 
ATOM     12  O   UNL     1      59.980  63.961  71.769  0.00  0.00    +0.000 OA
ATOM     13  C   UNL     1      61.210  63.435  72.271  0.00  0.00    +0.000 C 
ATOM     14  O   UNL     1      61.881  63.515  72.745  0.00  0.00    +0.000 OA
ATOM     15  C   UNL     1      61.100  62.751  71.824  0.00  0.00    +0.000 A 
ATOM     16  C   UNL     1      61.661  62.146  71.851  0.00  0.00    +0.000 A 
ATOM     17  C   UNL     1      61.551  61.462  71.405  0.00  0.00    +0.000 A 
ATOM     18  C   UNL     1      60.880  61.381  70.930  0.00  0.00    +0.000 A 
ATOM     19  C   UNL     1      60.320  61.986  70.903  0.00  0.00    +0.000 A 
ATOM     20  C   UNL     1      60.430  62.672  71.350  0.00  0.00    +0.000 A 
ENDROOT
TORSDOF 0
ENDMDL
MODEL 7
REMARK VINA RESULT:    -9.272      2.629      5.000
REMARK INTER + INTRA:          -9.272
REMARK INTER:                  -9.272
REMARK INTRA:                   0.000
REMARK UNBOUND:                 0.000
ROOT
REMARK  Name = homatropine
REMARK                            x       y       z     vdW  Elec       q    Type
REMARK                         _______ _______ _______ _____ _____    ______ ____
ATOM      1  C   UNL     1      62.614  64.561  70.749  0.00  0.00    +0.000 C 
ATOM      2  N   UNL     1      63.205  65.114  70.587  0.00  0.00    +0.000 NA
ATOM      3  C   UNL     1      63.239  65.256  71.531  0.00  0.00    +0.000 C 
ATOM      4  C   UNL     1      63.768  65.717  71.096  0.00  0.00    +0.000 C 
ATOM      5  C   UNL     1      63.883  65.735  70.279  0.00  0.00    +0.000 C 
ATOM      6  C   UNL     1      63.499  65.296  69.696  0.00  0.00    +0.000 C 
ATOM      7  C   UNL     1      62.904  64.730  69.786  0.00  0.00    +0.000 C 
ATOM      8  C   UNL     1      62.547  64.465  70.480  0.00  0.00    +0.000 C 
ATOM      9  C   UNL     1      62.696  64.699  71.257  0.00  0.00    +0.000 C 
ATOM     10  O   UNL     1      61.963  63.889  70.385  0.00  0.00    +0.000 OA
ATOM     11  C   UNL     1      61.772  63.617  69.630  0.00  0.00    +0.000 C 
ATOM     12  O   UNL     1      62.164  63.920  68.970  0.00  0.00    +0.000 OA
ATOM     13  C   UNL     1      61.189  63.042  69.534  0.00  0.00    +0.000 C 
ATOM     14  O   UNL     1      60.796  62.738  70.195  0.00  0.00    +0.000 OA
ATOM     15  C   UNL     1      60.997  62.769  68.780  0.00  0.00    +0.000 A 
ATOM     16  C   UNL     1      60.413  62.193  68.685  0.00  0.00    +0.000 A 
ATOM     17  C   UNL     1      60.222  61.921  67.931  0.00  0.00    +0.000 A 
ATOM     18  C   UNL     1      60.614  62.224  67.271  0.00  0.00    +0.000 A 
ATOM     19  C   UNL     1      61.197  62.799  67.366  0.00  0.00    +0.000 A 
ATOM     20  C   UNL     1      61.389  63.072  68.121  0.00  0.00    +0.000 A 
ENDROOT
TORSDOF 0
ENDMDL
MODEL 8
REMARK VINA RESULT:    -9.210      4.544      5.489
REMARK INTER + INTRA:          -9.210
REMARK INTER:                  -9.210
REMARK INTRA:                   0.000
REMARK UNBOUND:                 0.000
ROOT
REMARK  Name = homatropine
REMARK                            x       y       z     vdW  Elec       q    Type
REMARK                         _______ _______ _______ _____ _____    ______ ____
ATOM      1  C   UNL     1      60.572  63.026  70.702  0.00  0.00    +0.000 C 
ATOM      2  N   UNL     1      60.989  62.573  71.252  0.00  0.00    +0.000 NA
ATOM      3  C   UNL     1      60.807  61.830  70.679  0.00  0.00    +0.000 C 
ATOM      4  C   UNL     1      61.243  61.643  71.354  0.00  0.00    +0.000 C 
ATOM      5  C   UNL     1      61.495  62.145  71.960  0.00  0.00    +0.000 C 
ATOM      6  C   UNL     1      61.372  62.956  72.039  0.00  0.00    +0.000 C 
ATOM      7  C   UNL     1      60.968  63.468  71.532  0.00  0.00    +0.000 C 
ATOM      8  C   UNL     1      60.586  63.294  70.822  0.00  0.00    +0.000 C 
ATOM      9  C   UNL     1      60.515  62.565  70.442  0.00  0.00    +0.000 C 
ATOM     10  O   UNL     1      60.229  63.932  70.441  0.00  0.00    +0.000 OA
ATOM     11  C   UNL     1      60.269  64.686  70.775  0.00  0.00    +0.000 C 
ATOM     12  O   UNL     1      60.664  64.801  71.489  0.00  0.00    +0.000 OA
ATOM     13  C   UNL     1      59.912  65.325  70.394  0.00  0.00    +0.000 C 
ATOM     14  O   UNL     1      59.515  65.210  69.679  0.00  0.00    +0.000 OA
ATOM     15  C   UNL     1      59.950  66.078  70.727  0.00  0.00    +0.000 A 
ATOM     16  C   UNL     1      59.593  66.717  70.346  0.00  0.00    +0.000 A 
ATOM     17  C   UNL     1      59.633  67.470  70.679  0.00  0.00    +0.000 A 
ATOM     18  C   UNL     1      60.029  67.585  71.394  0.00  0.00    +0.000 A 
ATOM     19  C   UNL     1      60.386  66.947  71.775  0.00  0.00    +0.000 A 
ATOM     20  C   UNL     1      60.347  66.192  71.441  0.00  0.00    +0.000 A 
ENDROOT
TORSDOF 0
ENDMDL
MODEL 9
REMARK VINA RESULT:    -8.859     24.518     25.592
REMARK INTER + INTRA:          -8.859
REMARK INTER:                  -8.859
REMARK INTRA:                   0.000
REMARK UNBOUND:                 0.000
ROOT
REMARK  Name = homatropine
REMARK                            x       y       z     vdW  Elec       q    Type
REMARK                         _______ _______ _______ _____ _____    ______ ____
ATOM      1  C   UNL     1      70.948  79.184  49.118  0.00  0.00    +0.000 C 
ATOM      2  N   UNL     1      71.733  79.202  48.863  0.00  0.00    +0.000 NA
ATOM      3  C   UNL     1      71.426  78.720  48.098  0.00  0.00    +0.000 C 
ATOM      4  C   UNL     1      72.235  78.883  48.098  0.00  0.00    +0.000 C 
ATOM      5  C   UNL     1      72.678  79.285  48.666  0.00  0.00    +0.000 C 
ATOM      6  C   UNL     1      72.423  79.622  49.374  0.00  0.00    +0.000 C 
ATOM      7  C   UNL     1      71.660  79.641  49.689  0.00  0.00    +0.000 C 
ATOM      8  C   UNL     1      70.965  79.328  49.374  0.00  0.00    +0.000 C 
ATOM      9  C   UNL     1      70.860  78.918  48.666  0.00  0.00    +0.000 C 
ATOM     10  O   UNL     1      70.284  79.439  49.827  0.00  0.00    +0.000 OA
ATOM     11  C   UNL     1      70.329  79.843  50.545  0.00  0.00    +0.000 C 
ATOM     12  O   UNL     1      71.053  80.135  50.810  0.00  0.00    +0.000 OA
ATOM     13  C   UNL     1      69.648  79.955  50.998  0.00  0.00    +0.000 C 
ATOM     14  O   UNL     1      68.923  79.662  50.732  0.00  0.00    +0.000 OA
ATOM     15  C   UNL     1      69.691  80.358  51.716  0.00  0.00    +0.000 A 
ATOM     16  C   UNL     1      69.011  80.470  52.169  0.00  0.00    +0.000 A 
ATOM     17  C   UNL     1      69.055  80.873  52.886  0.00  0.00    +0.000 A 
ATOM     18  C   UNL     1      69.779  81.165  53.152  0.00  0.00    +0.000 A 
ATOM     19  C   UNL     1      70.460  81.054  52.700  0.00  0.00    +0.000 A 
ATOM     20  C   UNL     1      70.416  80.650  51.981  0.00  0.00    +0.000 A 
ENDROOT
TORSDOF 0
ENDMDL
