MODEL 1
REMARK VINA RESULT:   -13.978      0.000      0.000
REMARK INTER + INTRA:         -13.978
REMARK INTER:                 -13.978
REMARK INTRA:                   0.000
REMARK UNBOUND:                 0.000
ROOT
REMARK  Name = homofenazine
REMARK                            x       y       z     vdW  Elec       q    Type
REMARK                         _______ _______ _______ _____ _____    ______ ____
ATOM      1  O   UNL     1      66.635  68.163  70.553  0.00  0.00    +0.000 OA
ATOM      2  C   UNL     1      66.028  67.615  70.663  0.00  0.00    +0.000 C 
ATOM      3  C   UNL     1      65.755  67.170  70.023  0.00  0.00    +0.000 C 
ATOM      4  N   UNL     1      65.148  66.622  70.132  0.00  0.00    +0.000 NA
ATOM      5  C   UNL     1      64.852  66.563  70.900  0.00  0.00    +0.000 C 
ATOM      6  C   UNL     1      64.252  66.073  71.183  0.00  0.00    +0.000 C 
ATOM      7  C   UNL     1      63.800  65.522  70.769  0.00  0.00    +0.000 C 
ATOM      8  N   UNL     1      63.835  65.323  69.970  0.00  0.00    +0.000 NA
ATOM      9  C   UNL     1      63.303  64.744  69.720  0.00  0.00    +0.000 C 
ATOM     10  C   UNL     1      62.782  64.403  70.260  0.00  0.00    +0.000 C 
ATOM     11  C   UNL     1      62.249  63.823  70.011  0.00  0.00    +0.000 C 
ATOM     12  N   UNL     1      61.728  63.483  70.551  0.00  0.00    +0.000 N 
ATOM     13  C   UNL     1      61.738  63.721  71.341  0.00  0.00    +0.000 A 
ATOM     14  C   UNL     1      62.270  64.301  71.590  0.00  0.00    +0.000 A 
ATOM     15  C   UNL     1      62.279  64.539  72.380  0.00  0.00    +0.000 A 
ATOM     16  C   UNL     1      61.757  64.198  72.921  0.00  0.00    +0.000 A 
ATOM     17  C   UNL     1      61.226  63.619  72.670  0.00  0.00    +0.000 A 
ATOM     18  C   UNL     1      61.216  63.380  71.881  0.00  0.00    +0.000 A 
ATOM     19  S   UNL     1      60.684  62.801  71.631  0.00  0.00    +0.000 S 
ATOM     20  C   UNL     1      60.674  62.563  70.842  0.00  0.00    +0.000 A 
ATOM     21  C   UNL     1      60.143  61.984  70.593  0.00  0.00    +0.000 A 
ATOM     22  C   UNL     1      60.133  61.745  69.803  0.00  0.00    +0.000 A 
ATOM     23  C   UNL     1      60.654  62.086  69.263  0.00  0.00    +0.000 A 
ATOM     24  C   UNL     1      61.187  62.666  69.512  0.00  0.00    +0.000 A 
ATOM     25  C   UNL     1      61.196  62.904  70.302  0.00  0.00    +0.000 A 
ATOM     26  C   UNL     1      60.645  61.847  68.472  0.00  0.00    +0.000 C 
ATOM     27  F   UNL     1      60.635  61.609  67.683  0.00  0.00    +0.000 F 
ATOM     28  F   UNL     1      61.253  62.379  68.305  0.00  0.00    +0.000 F 
ATOM     29  F   UNL     1      60.036  61.316  68.641  0.00  0.00    +0.000 F 
ATOM     30  C   UNL     1      64.332  65.628  69.386  0.00  0.00    +0.000 C 
ATOM     31  C   UNL     1      64.916  66.206  69.458  0.00  0.00    +0.000 C 
ENDROOT
TORSDOF 0
ENDMDL
MODEL 2
REMARK VINA RESULT:   -13.930      1.069      1.475
REMARK INTER + INTRA:         -13.930
REMARK INTER:                 -13.930
REMARK INTRA:                   0.000
REMARK UNBOUND:                 0.000
ROOT
REMARK  Name = homofenazine
REMARK                            x       y       z     vdW  Elec       q    Type
REMARK                         _______ _______ _______ _____ _____    ______ ____
ATOM      1  O   UNL     1      66.476  67.460  71.825  0.00  0.00    +0.000 OA
ATOM      2  C   UNL     1      65.872  66.936  71.622  0.00  0.00    +0.000 C 
ATOM      3  C   UNL     1      65.683  66.813  70.828  0.00  0.00    +0.000 C 
ATOM      4  N   UNL     1      65.079  66.289  70.625  0.00  0.00    +0.000 NA
ATOM      5  C   UNL     1      64.699  65.919  71.256  0.00  0.00    +0.000 C 
ATOM      6  C   UNL     1      64.080  65.373  71.235  0.00  0.00    +0.000 C 
ATOM      7  C   UNL     1      63.690  65.063  70.578  0.00  0.00    +0.000 C 
ATOM      8  N   UNL     1      63.820  65.222  69.779  0.00  0.00    +0.000 NA
ATOM      9  C   UNL     1      63.333  64.820  69.249  0.00  0.00    +0.000 C 
ATOM     10  C   UNL     1      62.760  64.298  69.531  0.00  0.00    +0.000 C 
ATOM     11  C   UNL     1      62.272  63.895  69.001  0.00  0.00    +0.000 C 
ATOM     12  N   UNL     1      61.699  63.374  69.282  0.00  0.00    +0.000 N 
ATOM     13  C   UNL     1      61.613  63.253  70.094  0.00  0.00    +0.000 A 
ATOM     14  C   UNL     1      62.101  63.656  70.624  0.00  0.00    +0.000 A 
ATOM     15  C   UNL     1      62.015  63.536  71.436  0.00  0.00    +0.000 A 
ATOM     16  C   UNL     1      61.442  63.014  71.718  0.00  0.00    +0.000 A 
ATOM     17  C   UNL     1      60.955  62.612  71.187  0.00  0.00    +0.000 A 
ATOM     18  C   UNL     1      61.040  62.731  70.376  0.00  0.00    +0.000 A 
ATOM     19  S   UNL     1      60.553  62.329  69.845  0.00  0.00    +0.000 S 
ATOM     20  C   UNL     1      60.638  62.449  69.034  0.00  0.00    +0.000 A 
ATOM     21  C   UNL     1      60.151  62.047  68.504  0.00  0.00    +0.000 A 
ATOM     22  C   UNL     1      60.236  62.166  67.692  0.00  0.00    +0.000 A 
ATOM     23  C   UNL     1      60.810  62.688  67.411  0.00  0.00    +0.000 A 
ATOM     24  C   UNL     1      61.298  63.091  67.941  0.00  0.00    +0.000 A 
ATOM     25  C   UNL     1      61.212  62.971  68.752  0.00  0.00    +0.000 A 
ATOM     26  C   UNL     1      60.895  62.808  66.598  0.00  0.00    +0.000 C 
ATOM     27  F   UNL     1      60.981  62.928  65.787  0.00  0.00    +0.000 F 
ATOM     28  F   UNL     1      61.508  63.342  66.742  0.00  0.00    +0.000 F 
ATOM     29  F   UNL     1      60.283  62.274  66.455  0.00  0.00    +0.000 F 
ATOM     30  C   UNL     1      64.375  65.731  69.441  0.00  0.00    +0.000 C 
ATOM     31  C   UNL     1      64.935  66.206  69.816  0.00  0.00    +0.000 C 
ENDROOT
TORSDOF 0
ENDMDL
MODEL 3
REMARK VINA RESULT:   -13.918      3.144      5.162
REMARK INTER + INTRA:         -13.918
REMARK INTER:                 -13.918
REMARK INTRA:                   0.000
REMARK UNBOUND:                 0.000
ROOT
REMARK  Name = homofenazine
REMARK                            x       y       z     vdW  Elec       q    Type
REMARK                         _______ _______ _______ _____ _____    ______ ____
ATOM      1  O   UNL     1      60.825  60.963  63.941  0.00  0.00    +0.000 OA
ATOM      2  C   UNL     1      60.860  61.206  64.729  0.00  0.00    +0.000 C 
ATOM      3  C   UNL     1      61.268  61.894  64.930  0.00  0.00    +0.000 C 
ATOM      4  N   UNL     1      61.303  62.138  65.718  0.00  0.00    +0.000 NA
ATOM      5  C   UNL     1      60.911  61.654  66.259  0.00  0.00    +0.000 C 
ATOM      6  C   UNL     1      60.845  61.747  67.077  0.00  0.00    +0.000 C 
ATOM      7  C   UNL     1      61.153  62.344  67.554  0.00  0.00    +0.000 C 
ATOM      8  N   UNL     1      61.605  62.998  67.332  0.00  0.00    +0.000 NA
ATOM      9  C   UNL     1      61.832  63.501  67.945  0.00  0.00    +0.000 C 
ATOM     10  C   UNL     1      61.606  63.334  68.721  0.00  0.00    +0.000 C 
ATOM     11  C   UNL     1      61.834  63.838  69.334  0.00  0.00    +0.000 C 
ATOM     12  N   UNL     1      61.608  63.671  70.109  0.00  0.00    +0.000 N 
ATOM     13  C   UNL     1      61.155  63.000  70.272  0.00  0.00    +0.000 A 
ATOM     14  C   UNL     1      60.928  62.497  69.659  0.00  0.00    +0.000 A 
ATOM     15  C   UNL     1      60.475  61.826  69.822  0.00  0.00    +0.000 A 
ATOM     16  C   UNL     1      60.250  61.659  70.597  0.00  0.00    +0.000 A 
ATOM     17  C   UNL     1      60.477  62.163  71.210  0.00  0.00    +0.000 A 
ATOM     18  C   UNL     1      60.930  62.833  71.048  0.00  0.00    +0.000 A 
ATOM     19  S   UNL     1      61.157  63.336  71.661  0.00  0.00    +0.000 S 
ATOM     20  C   UNL     1      61.610  64.006  71.498  0.00  0.00    +0.000 A 
ATOM     21  C   UNL     1      61.837  64.509  72.111  0.00  0.00    +0.000 A 
ATOM     22  C   UNL     1      62.290  65.179  71.949  0.00  0.00    +0.000 A 
ATOM     23  C   UNL     1      62.515  65.347  71.173  0.00  0.00    +0.000 A 
ATOM     24  C   UNL     1      62.288  64.843  70.559  0.00  0.00    +0.000 A 
ATOM     25  C   UNL     1      61.835  64.173  70.723  0.00  0.00    +0.000 A 
ATOM     26  C   UNL     1      62.968  66.017  71.010  0.00  0.00    +0.000 C 
ATOM     27  F   UNL     1      63.420  66.687  70.848  0.00  0.00    +0.000 F 
ATOM     28  F   UNL     1      62.967  65.823  70.208  0.00  0.00    +0.000 F 
ATOM     29  F   UNL     1      62.969  66.211  71.812  0.00  0.00    +0.000 F 
ATOM     30  C   UNL     1      61.859  63.215  66.578  0.00  0.00    +0.000 C 
ATOM     31  C   UNL     1      61.725  62.833  65.860  0.00  0.00    +0.000 C 
ENDROOT
TORSDOF 0
ENDMDL
MODEL 4
REMARK VINA RESULT:   -13.836      3.121      5.058
REMARK INTER + INTRA:         -13.836
REMARK INTER:                 -13.836
REMARK INTRA:                   0.000
REMARK UNBOUND:                 0.000
ROOT
REMARK  Name = homofenazine
REMARK                            x       y       z     vdW  Elec       q    Type
REMARK                         _______ _______ _______ _____ _____    ______ ____
ATOM      1  O   UNL     1      61.021  61.465  64.419  0.00  0.00    +0.000 OA
ATOM      2  C   UNL     1      61.134  61.812  65.158  0.00  0.00    +0.000 C 
ATOM      3  C   UNL     1      60.488  61.945  65.654  0.00  0.00    +0.000 C 
ATOM      4  N   UNL     1      60.600  62.292  66.395  0.00  0.00    +0.000 NA
ATOM      5  C   UNL     1      61.379  62.485  66.584  0.00  0.00    +0.000 C 
ATOM      6  C   UNL     1      61.669  62.833  67.274  0.00  0.00    +0.000 C 
ATOM      7  C   UNL     1      61.251  63.075  67.943  0.00  0.00    +0.000 C 
ATOM      8  N   UNL     1      60.441  63.028  68.089  0.00  0.00    +0.000 NA
ATOM      9  C   UNL     1      60.190  63.319  68.818  0.00  0.00    +0.000 C 
ATOM     10  C   UNL     1      60.740  63.633  69.348  0.00  0.00    +0.000 C 
ATOM     11  C   UNL     1      60.489  63.925  70.078  0.00  0.00    +0.000 C 
ATOM     12  N   UNL     1      61.038  64.238  70.607  0.00  0.00    +0.000 N 
ATOM     13  C   UNL     1      61.839  64.259  70.407  0.00  0.00    +0.000 A 
ATOM     14  C   UNL     1      62.089  63.967  69.677  0.00  0.00    +0.000 A 
ATOM     15  C   UNL     1      62.890  63.989  69.477  0.00  0.00    +0.000 A 
ATOM     16  C   UNL     1      63.439  64.302  70.006  0.00  0.00    +0.000 A 
ATOM     17  C   UNL     1      63.188  64.594  70.736  0.00  0.00    +0.000 A 
ATOM     18  C   UNL     1      62.388  64.573  70.936  0.00  0.00    +0.000 A 
ATOM     19  S   UNL     1      62.137  64.864  71.666  0.00  0.00    +0.000 S 
ATOM     20  C   UNL     1      61.338  64.843  71.866  0.00  0.00    +0.000 A 
ATOM     21  C   UNL     1      61.087  65.135  72.596  0.00  0.00    +0.000 A 
ATOM     22  C   UNL     1      60.287  65.114  72.797  0.00  0.00    +0.000 A 
ATOM     23  C   UNL     1      59.738  64.800  72.267  0.00  0.00    +0.000 A 
ATOM     24  C   UNL     1      59.988  64.508  71.536  0.00  0.00    +0.000 A 
ATOM     25  C   UNL     1      60.788  64.530  71.337  0.00  0.00    +0.000 A 
ATOM     26  C   UNL     1      58.937  64.779  72.467  0.00  0.00    +0.000 C 
ATOM     27  F   UNL     1      58.138  64.758  72.667  0.00  0.00    +0.000 F 
ATOM     28  F   UNL     1      58.765  64.430  71.740  0.00  0.00    +0.000 F 
ATOM     29  F   UNL     1      59.110  65.129  73.194  0.00  0.00    +0.000 F 
ATOM     30  C   UNL     1      59.848  62.727  67.600  0.00  0.00    +0.000 C 
ATOM     31  C   UNL     1      59.918  62.399  66.847  0.00  0.00    +0.000 C 
ENDROOT
TORSDOF 0
ENDMDL
MODEL 5
REMARK VINA RESULT:   -13.391      3.706      5.191
REMARK INTER + INTRA:         -13.391
REMARK INTER:                 -13.391
REMARK INTRA:                   0.000
REMARK UNBOUND:                 0.000
ROOT
REMARK  Name = homofenazine
REMARK                            x       y       z     vdW  Elec       q    Type
REMARK                         _______ _______ _______ _____ _____    ______ ____
ATOM      1  O   UNL     1      61.006  61.264  63.638  0.00  0.00    +0.000 OA
ATOM      2  C   UNL     1      60.929  61.616  64.380  0.00  0.00    +0.000 C 
ATOM      3  C   UNL     1      61.210  61.228  65.052  0.00  0.00    +0.000 C 
ATOM      4  N   UNL     1      61.134  61.580  65.794  0.00  0.00    +0.000 NA
ATOM      5  C   UNL     1      60.769  62.320  65.802  0.00  0.00    +0.000 C 
ATOM      6  C   UNL     1      60.613  62.808  66.449  0.00  0.00    +0.000 C 
ATOM      7  C   UNL     1      60.783  62.678  67.245  0.00  0.00    +0.000 C 
ATOM      8  N   UNL     1      61.150  62.026  67.593  0.00  0.00    +0.000 NA
ATOM      9  C   UNL     1      61.241  62.061  68.412  0.00  0.00    +0.000 C 
ATOM     10  C   UNL     1      60.971  62.719  68.830  0.00  0.00    +0.000 C 
ATOM     11  C   UNL     1      61.062  62.754  69.649  0.00  0.00    +0.000 C 
ATOM     12  N   UNL     1      60.792  63.411  70.067  0.00  0.00    +0.000 N 
ATOM     13  C   UNL     1      60.431  64.035  69.665  0.00  0.00    +0.000 A 
ATOM     14  C   UNL     1      60.340  64.000  68.846  0.00  0.00    +0.000 A 
ATOM     15  C   UNL     1      59.979  64.624  68.444  0.00  0.00    +0.000 A 
ATOM     16  C   UNL     1      59.708  65.283  68.861  0.00  0.00    +0.000 A 
ATOM     17  C   UNL     1      59.800  65.317  69.681  0.00  0.00    +0.000 A 
ATOM     18  C   UNL     1      60.160  64.694  70.082  0.00  0.00    +0.000 A 
ATOM     19  S   UNL     1      60.252  64.728  70.902  0.00  0.00    +0.000 S 
ATOM     20  C   UNL     1      60.612  64.105  71.303  0.00  0.00    +0.000 A 
ATOM     21  C   UNL     1      60.703  64.139  72.122  0.00  0.00    +0.000 A 
ATOM     22  C   UNL     1      61.065  63.516  72.524  0.00  0.00    +0.000 A 
ATOM     23  C   UNL     1      61.335  62.858  72.107  0.00  0.00    +0.000 A 
ATOM     24  C   UNL     1      61.244  62.823  71.287  0.00  0.00    +0.000 A 
ATOM     25  C   UNL     1      60.883  63.446  70.886  0.00  0.00    +0.000 A 
ATOM     26  C   UNL     1      61.696  62.233  72.508  0.00  0.00    +0.000 C 
ATOM     27  F   UNL     1      62.057  61.610  72.910  0.00  0.00    +0.000 F 
ATOM     28  F   UNL     1      61.799  61.834  71.794  0.00  0.00    +0.000 F 
ATOM     29  F   UNL     1      61.592  62.634  73.222  0.00  0.00    +0.000 F 
ATOM     30  C   UNL     1      61.439  61.345  67.229  0.00  0.00    +0.000 C 
ATOM     31  C   UNL     1      61.432  61.146  66.429  0.00  0.00    +0.000 C 
ENDROOT
TORSDOF 0
ENDMDL
MODEL 6
REMARK VINA RESULT:   -13.356      3.182      5.419
REMARK INTER + INTRA:         -13.356
REMARK INTER:                 -13.356
REMARK INTRA:                   0.000
REMARK UNBOUND:                 0.000
ROOT
REMARK  Name = homofenazine
REMARK                            x       y       z     vdW  Elec       q    Type
REMARK                         _______ _______ _______ _____ _____    ______ ____
ATOM      1  O   UNL     1      59.410  61.540  67.224  0.00  0.00    +0.000 OA
ATOM      2  C   UNL     1      59.814  62.039  67.743  0.00  0.00    +0.000 C 
ATOM      3  C   UNL     1      60.501  62.422  67.494  0.00  0.00    +0.000 C 
ATOM      4  N   UNL     1      60.906  62.921  68.012  0.00  0.00    +0.000 NA
ATOM      5  C   UNL     1      60.576  62.998  68.764  0.00  0.00    +0.000 C 
ATOM      6  C   UNL     1      60.846  63.451  69.399  0.00  0.00    +0.000 C 
ATOM      7  C   UNL     1      61.511  63.937  69.439  0.00  0.00    +0.000 C 
ATOM      8  N   UNL     1      62.072  64.091  68.854  0.00  0.00    +0.000 NA
ATOM      9  C   UNL     1      62.679  64.607  69.066  0.00  0.00    +0.000 C 
ATOM     10  C   UNL     1      62.697  64.932  69.824  0.00  0.00    +0.000 C 
ATOM     11  C   UNL     1      63.305  65.449  70.037  0.00  0.00    +0.000 C 
ATOM     12  N   UNL     1      63.323  65.774  70.794  0.00  0.00    +0.000 N 
ATOM     13  C   UNL     1      62.734  65.584  71.340  0.00  0.00    +0.000 A 
ATOM     14  C   UNL     1      62.127  65.067  71.127  0.00  0.00    +0.000 A 
ATOM     15  C   UNL     1      61.537  64.877  71.672  0.00  0.00    +0.000 A 
ATOM     16  C   UNL     1      61.556  65.202  72.430  0.00  0.00    +0.000 A 
ATOM     17  C   UNL     1      62.163  65.718  72.642  0.00  0.00    +0.000 A 
ATOM     18  C   UNL     1      62.752  65.909  72.097  0.00  0.00    +0.000 A 
ATOM     19  S   UNL     1      63.360  66.426  72.309  0.00  0.00    +0.000 S 
ATOM     20  C   UNL     1      63.948  66.616  71.765  0.00  0.00    +0.000 A 
ATOM     21  C   UNL     1      64.555  67.132  71.977  0.00  0.00    +0.000 A 
ATOM     22  C   UNL     1      65.145  67.323  71.432  0.00  0.00    +0.000 A 
ATOM     23  C   UNL     1      65.126  66.998  70.674  0.00  0.00    +0.000 A 
ATOM     24  C   UNL     1      64.519  66.481  70.461  0.00  0.00    +0.000 A 
ATOM     25  C   UNL     1      63.930  66.291  71.007  0.00  0.00    +0.000 A 
ATOM     26  C   UNL     1      65.716  67.189  70.128  0.00  0.00    +0.000 C 
ATOM     27  F   UNL     1      66.304  67.379  69.583  0.00  0.00    +0.000 F 
ATOM     28  F   UNL     1      65.354  66.702  69.568  0.00  0.00    +0.000 F 
ATOM     29  F   UNL     1      66.077  67.675  70.689  0.00  0.00    +0.000 F 
ATOM     30  C   UNL     1      62.104  63.796  68.084  0.00  0.00    +0.000 C 
ATOM     31  C   UNL     1      61.586  63.276  67.709  0.00  0.00    +0.000 C 
ENDROOT
TORSDOF 0
ENDMDL
MODEL 7
REMARK VINA RESULT:   -12.970      3.338      5.028
REMARK INTER + INTRA:         -12.970
REMARK INTER:                 -12.970
REMARK INTRA:                   0.000
REMARK UNBOUND:                 0.000
ROOT
REMARK  Name = homofenazine
REMARK                            x       y       z     vdW  Elec       q    Type
REMARK                         _______ _______ _______ _____ _____    ______ ____
ATOM      1  O   UNL     1      61.923  65.577  71.925  0.00  0.00    +0.000 OA
ATOM      2  C   UNL     1      61.705  65.163  71.245  0.00  0.00    +0.000 C 
ATOM      3  C   UNL     1      62.258  65.036  70.645  0.00  0.00    +0.000 C 
ATOM      4  N   UNL     1      62.041  64.622  69.965  0.00  0.00    +0.000 NA
ATOM      5  C   UNL     1      61.260  64.358  69.942  0.00  0.00    +0.000 C 
ATOM      6  C   UNL     1      60.879  63.933  69.345  0.00  0.00    +0.000 C 
ATOM      7  C   UNL     1      61.185  63.668  68.627  0.00  0.00    +0.000 C 
ATOM      8  N   UNL     1      61.947  63.761  68.326  0.00  0.00    +0.000 NA
ATOM      9  C   UNL     1      62.083  63.428  67.584  0.00  0.00    +0.000 C 
ATOM     10  C   UNL     1      61.474  63.033  67.192  0.00  0.00    +0.000 C 
ATOM     11  C   UNL     1      61.610  62.700  66.448  0.00  0.00    +0.000 C 
ATOM     12  N   UNL     1      61.002  62.306  66.056  0.00  0.00    +0.000 N 
ATOM     13  C   UNL     1      60.257  62.244  66.407  0.00  0.00    +0.000 A 
ATOM     14  C   UNL     1      60.122  62.576  67.149  0.00  0.00    +0.000 A 
ATOM     15  C   UNL     1      59.377  62.514  67.500  0.00  0.00    +0.000 A 
ATOM     16  C   UNL     1      58.768  62.119  67.107  0.00  0.00    +0.000 A 
ATOM     17  C   UNL     1      58.904  61.786  66.364  0.00  0.00    +0.000 A 
ATOM     18  C   UNL     1      59.648  61.849  66.014  0.00  0.00    +0.000 A 
ATOM     19  S   UNL     1      59.784  61.516  65.272  0.00  0.00    +0.000 S 
ATOM     20  C   UNL     1      60.528  61.578  64.921  0.00  0.00    +0.000 A 
ATOM     21  C   UNL     1      60.664  61.246  64.179  0.00  0.00    +0.000 A 
ATOM     22  C   UNL     1      61.408  61.307  63.829  0.00  0.00    +0.000 A 
ATOM     23  C   UNL     1      62.017  61.702  64.221  0.00  0.00    +0.000 A 
ATOM     24  C   UNL     1      61.881  62.036  64.964  0.00  0.00    +0.000 A 
ATOM     25  C   UNL     1      61.137  61.973  65.314  0.00  0.00    +0.000 A 
ATOM     26  C   UNL     1      62.762  61.765  63.871  0.00  0.00    +0.000 C 
ATOM     27  F   UNL     1      63.505  61.827  63.521  0.00  0.00    +0.000 F 
ATOM     28  F   UNL     1      63.034  62.185  64.526  0.00  0.00    +0.000 F 
ATOM     29  F   UNL     1      62.488  61.345  63.215  0.00  0.00    +0.000 F 
ATOM     30  C   UNL     1      62.592  64.143  68.671  0.00  0.00    +0.000 C 
ATOM     31  C   UNL     1      62.634  64.526  69.400  0.00  0.00    +0.000 C 
ENDROOT
TORSDOF 0
ENDMDL
MODEL 8
REMARK VINA RESULT:   -12.292      1.861      2.369
REMARK INTER + INTRA:         -12.292
REMARK INTER:                 -12.292
REMARK INTRA:                   0.000
REMARK UNBOUND:                 0.000
ROOT
REMARK  Name = homofenazine
REMARK                            x       y       z     vdW  Elec       q    Type
REMARK                         _______ _______ _______ _____ _____    ______ ____
ATOM      1  O   UNL     1      67.543  67.551  71.302  0.00  0.00    +0.000 OA
ATOM      2  C   UNL     1      66.754  67.351  71.432  0.00  0.00    +0.000 C 
ATOM      3  C   UNL     1      66.472  66.611  71.200  0.00  0.00    +0.000 C 
ATOM      4  N   UNL     1      65.682  66.410  71.330  0.00  0.00    +0.000 NA
ATOM      5  C   UNL     1      65.222  66.990  71.696  0.00  0.00    +0.000 C 
ATOM      6  C   UNL     1      64.423  66.958  71.899  0.00  0.00    +0.000 C 
ATOM      7  C   UNL     1      63.888  66.341  71.787  0.00  0.00    +0.000 C 
ATOM      8  N   UNL     1      64.018  65.602  71.444  0.00  0.00    +0.000 NA
ATOM      9  C   UNL     1      63.364  65.101  71.413  0.00  0.00    +0.000 C 
ATOM     10  C   UNL     1      62.638  65.352  71.714  0.00  0.00    +0.000 C 
ATOM     11  C   UNL     1      61.982  64.850  71.682  0.00  0.00    +0.000 C 
ATOM     12  N   UNL     1      61.257  65.101  71.982  0.00  0.00    +0.000 N 
ATOM     13  C   UNL     1      61.185  65.853  72.315  0.00  0.00    +0.000 A 
ATOM     14  C   UNL     1      61.840  66.354  72.346  0.00  0.00    +0.000 A 
ATOM     15  C   UNL     1      61.768  67.106  72.678  0.00  0.00    +0.000 A 
ATOM     16  C   UNL     1      61.042  67.357  72.979  0.00  0.00    +0.000 A 
ATOM     17  C   UNL     1      60.388  66.855  72.947  0.00  0.00    +0.000 A 
ATOM     18  C   UNL     1      60.459  66.104  72.615  0.00  0.00    +0.000 A 
ATOM     19  S   UNL     1      59.805  65.602  72.584  0.00  0.00    +0.000 S 
ATOM     20  C   UNL     1      59.876  64.851  72.252  0.00  0.00    +0.000 A 
ATOM     21  C   UNL     1      59.222  64.350  72.221  0.00  0.00    +0.000 A 
ATOM     22  C   UNL     1      59.293  63.598  71.889  0.00  0.00    +0.000 A 
ATOM     23  C   UNL     1      60.019  63.347  71.588  0.00  0.00    +0.000 A 
ATOM     24  C   UNL     1      60.674  63.849  71.619  0.00  0.00    +0.000 A 
ATOM     25  C   UNL     1      60.602  64.600  71.951  0.00  0.00    +0.000 A 
ATOM     26  C   UNL     1      60.091  62.595  71.255  0.00  0.00    +0.000 C 
ATOM     27  F   UNL     1      60.162  61.844  70.924  0.00  0.00    +0.000 F 
ATOM     28  F   UNL     1      60.888  62.740  71.100  0.00  0.00    +0.000 F 
ATOM     29  F   UNL     1      59.293  62.451  71.411  0.00  0.00    +0.000 F 
ATOM     30  C   UNL     1      64.717  65.298  71.129  0.00  0.00    +0.000 C 
ATOM     31  C   UNL     1      65.458  65.658  71.078  0.00  0.00    +0.000 C 
ENDROOT
TORSDOF 0
ENDMDL
MODEL 9
REMARK VINA RESULT:   -11.865     15.468     17.120
REMARK INTER + INTRA:         -11.865
REMARK INTER:                 -11.865
REMARK INTRA:                   0.000
REMARK UNBOUND:                 0.000
ROOT
REMARK  Name = homofenazine
REMARK                            x       y       z     vdW  Elec       q    Type
REMARK                         _______ _______ _______ _____ _____    ______ ____
ATOM      1  O   UNL     1      61.866  61.147  52.212  0.00  0.00    +0.000 OA
ATOM      2  C   UNL     1      61.864  61.953  52.387  0.00  0.00    +0.000 C 
ATOM      3  C   UNL     1      62.062  62.210  53.146  0.00  0.00    +0.000 C 
ATOM      4  N   UNL     1      62.061  63.016  53.322  0.00  0.00    +0.000 NA
ATOM      5  C   UNL     1      61.853  63.517  52.700  0.00  0.00    +0.000 C 
ATOM      6  C   UNL     1      61.801  64.341  52.700  0.00  0.00    +0.000 C 
ATOM      7  C   UNL     1      61.943  64.866  53.321  0.00  0.00    +0.000 C 
ATOM      8  N   UNL     1      62.172  64.698  54.095  0.00  0.00    +0.000 NA
ATOM      9  C   UNL     1      62.270  65.350  54.589  0.00  0.00    +0.000 C 
ATOM     10  C   UNL     1      62.139  66.111  54.299  0.00  0.00    +0.000 C 
ATOM     11  C   UNL     1      62.238  66.765  54.793  0.00  0.00    +0.000 C 
ATOM     12  N   UNL     1      62.107  67.525  54.503  0.00  0.00    +0.000 N 
ATOM     13  C   UNL     1      61.878  67.633  53.717  0.00  0.00    +0.000 A 
ATOM     14  C   UNL     1      61.780  66.980  53.223  0.00  0.00    +0.000 A 
ATOM     15  C   UNL     1      61.552  67.088  52.437  0.00  0.00    +0.000 A 
ATOM     16  C   UNL     1      61.421  67.849  52.146  0.00  0.00    +0.000 A 
ATOM     17  C   UNL     1      61.519  68.502  52.642  0.00  0.00    +0.000 A 
ATOM     18  C   UNL     1      61.748  68.394  53.426  0.00  0.00    +0.000 A 
ATOM     19  S   UNL     1      61.846  69.047  53.922  0.00  0.00    +0.000 S 
ATOM     20  C   UNL     1      62.075  68.939  54.706  0.00  0.00    +0.000 A 
ATOM     21  C   UNL     1      62.173  69.591  55.201  0.00  0.00    +0.000 A 
ATOM     22  C   UNL     1      62.401  69.484  55.986  0.00  0.00    +0.000 A 
ATOM     23  C   UNL     1      62.532  68.723  56.277  0.00  0.00    +0.000 A 
ATOM     24  C   UNL     1      62.434  68.069  55.782  0.00  0.00    +0.000 A 
ATOM     25  C   UNL     1      62.205  68.178  54.997  0.00  0.00    +0.000 A 
ATOM     26  C   UNL     1      62.761  68.615  57.063  0.00  0.00    +0.000 C 
ATOM     27  F   UNL     1      62.989  68.507  57.848  0.00  0.00    +0.000 F 
ATOM     28  F   UNL     1      62.779  67.799  56.945  0.00  0.00    +0.000 F 
ATOM     29  F   UNL     1      62.742  69.431  57.180  0.00  0.00    +0.000 F 
ATOM     30  C   UNL     1      62.316  63.962  54.440  0.00  0.00    +0.000 C 
ATOM     31  C   UNL     1      62.267  63.214  54.096  0.00  0.00    +0.000 C 
ENDROOT
TORSDOF 0
ENDMDL
