MODEL 1
REMARK VINA RESULT:   -12.059      0.000      0.000
REMARK INTER + INTRA:         -12.059
REMARK INTER:                 -12.059
REMARK INTRA:                   0.000
REMARK UNBOUND:                 0.000
ROOT
REMARK  Name = hydroxychloroquine
REMARK                            x       y       z     vdW  Elec       q    Type
REMARK                         _______ _______ _______ _____ _____    ______ ____
ATOM      1  C   UNL     1      60.411  63.806  69.854  0.00  0.00    +0.000 C 
ATOM      2  C   UNL     1      60.899  64.204  70.388  0.00  0.00    +0.000 C 
ATOM      3  N   UNL     1      61.687  64.355  70.192  0.00  0.00    +0.000 NA
ATOM      4  C   UNL     1      62.175  64.753  70.725  0.00  0.00    +0.000 C 
ATOM      5  C   UNL     1      61.876  65.000  71.454  0.00  0.00    +0.000 C 
ATOM      6  O   UNL     1      62.364  65.397  71.986  0.00  0.00    +0.000 OA
ATOM      7  C   UNL     1      61.986  64.108  69.464  0.00  0.00    +0.000 C 
ATOM      8  C   UNL     1      61.498  63.711  68.931  0.00  0.00    +0.000 C 
ATOM      9  C   UNL     1      61.797  63.463  68.203  0.00  0.00    +0.000 C 
ATOM     10  C   UNL     1      61.309  63.066  67.670  0.00  0.00    +0.000 C 
ATOM     11  C   UNL     1      60.521  62.915  67.865  0.00  0.00    +0.000 C 
ATOM     12  N   UNL     1      61.608  62.819  66.942  0.00  0.00    +0.000 NA
ATOM     13  C   UNL     1      61.120  62.421  66.409  0.00  0.00    +0.000 A 
ATOM     14  C   UNL     1      60.332  62.270  66.604  0.00  0.00    +0.000 A 
ATOM     15  C   UNL     1      59.844  61.873  66.070  0.00  0.00    +0.000 A 
ATOM     16  N   UNL     1      60.142  61.626  65.343  0.00  0.00    +0.000 NA
ATOM     17  C   UNL     1      60.931  61.777  65.147  0.00  0.00    +0.000 A 
ATOM     18  C   UNL     1      61.229  61.530  64.420  0.00  0.00    +0.000 A 
ATOM     19  C   UNL     1      62.017  61.681  64.225  0.00  0.00    +0.000 A 
ATOM     20 CL   UNL     1      62.316  61.434  63.496  0.00  0.00    +0.000 Cl
ATOM     21  C   UNL     1      62.505  62.078  64.757  0.00  0.00    +0.000 A 
ATOM     22  C   UNL     1      62.206  62.325  65.485  0.00  0.00    +0.000 A 
ATOM     23  C   UNL     1      61.418  62.174  65.680  0.00  0.00    +0.000 A 
ENDROOT
TORSDOF 0
ENDMDL
MODEL 2
REMARK VINA RESULT:   -11.371      3.036      5.550
REMARK INTER + INTRA:         -11.371
REMARK INTER:                 -11.371
REMARK INTRA:                   0.000
REMARK UNBOUND:                 0.000
ROOT
REMARK  Name = hydroxychloroquine
REMARK                            x       y       z     vdW  Elec       q    Type
REMARK                         _______ _______ _______ _____ _____    ______ ____
ATOM      1  C   UNL     1      61.666  61.096  66.475  0.00  0.00    +0.000 C 
ATOM      2  C   UNL     1      61.896  61.408  65.747  0.00  0.00    +0.000 C 
ATOM      3  N   UNL     1      61.915  62.226  65.637  0.00  0.00    +0.000 NA
ATOM      4  C   UNL     1      62.146  62.538  64.909  0.00  0.00    +0.000 C 
ATOM      5  C   UNL     1      62.358  62.034  64.291  0.00  0.00    +0.000 C 
ATOM      6  O   UNL     1      62.588  62.346  63.564  0.00  0.00    +0.000 OA
ATOM      7  C   UNL     1      61.704  62.730  66.255  0.00  0.00    +0.000 C 
ATOM      8  C   UNL     1      61.473  62.418  66.982  0.00  0.00    +0.000 C 
ATOM      9  C   UNL     1      61.262  62.922  67.600  0.00  0.00    +0.000 C 
ATOM     10  C   UNL     1      61.031  62.610  68.327  0.00  0.00    +0.000 C 
ATOM     11  C   UNL     1      61.012  61.792  68.438  0.00  0.00    +0.000 C 
ATOM     12  N   UNL     1      60.820  63.114  68.944  0.00  0.00    +0.000 NA
ATOM     13  C   UNL     1      60.589  62.802  69.672  0.00  0.00    +0.000 A 
ATOM     14  C   UNL     1      60.570  61.983  69.783  0.00  0.00    +0.000 A 
ATOM     15  C   UNL     1      60.339  61.671  70.511  0.00  0.00    +0.000 A 
ATOM     16  N   UNL     1      60.128  62.175  71.128  0.00  0.00    +0.000 NA
ATOM     17  C   UNL     1      60.147  62.994  71.018  0.00  0.00    +0.000 A 
ATOM     18  C   UNL     1      59.936  63.498  71.635  0.00  0.00    +0.000 A 
ATOM     19  C   UNL     1      59.954  64.315  71.524  0.00  0.00    +0.000 A 
ATOM     20 CL   UNL     1      59.743  64.820  72.142  0.00  0.00    +0.000 Cl
ATOM     21  C   UNL     1      60.185  64.628  70.797  0.00  0.00    +0.000 A 
ATOM     22  C   UNL     1      60.396  64.123  70.180  0.00  0.00    +0.000 A 
ATOM     23  C   UNL     1      60.377  63.306  70.290  0.00  0.00    +0.000 A 
ENDROOT
TORSDOF 0
ENDMDL
MODEL 3
REMARK VINA RESULT:   -10.979      4.271      5.643
REMARK INTER + INTRA:         -10.979
REMARK INTER:                 -10.979
REMARK INTRA:                   0.000
REMARK UNBOUND:                 0.000
ROOT
REMARK  Name = hydroxychloroquine
REMARK                            x       y       z     vdW  Elec       q    Type
REMARK                         _______ _______ _______ _____ _____    ______ ____
ATOM      1  C   UNL     1      64.528  66.905  71.720  0.00  0.00    +0.000 C 
ATOM      2  C   UNL     1      65.087  67.184  71.181  0.00  0.00    +0.000 C 
ATOM      3  N   UNL     1      65.169  66.817  70.446  0.00  0.00    +0.000 NA
ATOM      4  C   UNL     1      65.727  67.095  69.906  0.00  0.00    +0.000 C 
ATOM      5  C   UNL     1      66.204  67.739  70.101  0.00  0.00    +0.000 C 
ATOM      6  O   UNL     1      66.762  68.017  69.562  0.00  0.00    +0.000 OA
ATOM      7  C   UNL     1      64.691  66.172  70.251  0.00  0.00    +0.000 C 
ATOM      8  C   UNL     1      64.133  65.894  70.790  0.00  0.00    +0.000 C 
ATOM      9  C   UNL     1      63.656  65.249  70.596  0.00  0.00    +0.000 C 
ATOM     10  C   UNL     1      63.098  64.971  71.135  0.00  0.00    +0.000 C 
ATOM     11  C   UNL     1      63.016  65.338  71.870  0.00  0.00    +0.000 C 
ATOM     12  N   UNL     1      62.621  64.327  70.940  0.00  0.00    +0.000 NA
ATOM     13  C   UNL     1      62.062  64.049  71.480  0.00  0.00    +0.000 A 
ATOM     14  C   UNL     1      61.980  64.416  72.215  0.00  0.00    +0.000 A 
ATOM     15  C   UNL     1      61.421  64.137  72.755  0.00  0.00    +0.000 A 
ATOM     16  N   UNL     1      60.945  63.493  72.560  0.00  0.00    +0.000 NA
ATOM     17  C   UNL     1      61.027  63.126  71.825  0.00  0.00    +0.000 A 
ATOM     18  C   UNL     1      60.551  62.482  71.630  0.00  0.00    +0.000 A 
ATOM     19  C   UNL     1      60.633  62.116  70.895  0.00  0.00    +0.000 A 
ATOM     20 CL   UNL     1      60.156  61.471  70.700  0.00  0.00    +0.000 Cl
ATOM     21  C   UNL     1      61.191  62.393  70.355  0.00  0.00    +0.000 A 
ATOM     22  C   UNL     1      61.667  63.038  70.551  0.00  0.00    +0.000 A 
ATOM     23  C   UNL     1      61.585  63.404  71.285  0.00  0.00    +0.000 A 
ENDROOT
TORSDOF 0
ENDMDL
MODEL 4
REMARK VINA RESULT:   -10.975      4.543      6.470
REMARK INTER + INTRA:         -10.975
REMARK INTER:                 -10.975
REMARK INTRA:                   0.000
REMARK UNBOUND:                 0.000
ROOT
REMARK  Name = hydroxychloroquine
REMARK                            x       y       z     vdW  Elec       q    Type
REMARK                         _______ _______ _______ _____ _____    ______ ____
ATOM      1  C   UNL     1      61.329  63.899  72.134  0.00  0.00    +0.000 C 
ATOM      2  C   UNL     1      61.016  63.239  71.751  0.00  0.00    +0.000 C 
ATOM      3  N   UNL     1      61.326  62.998  71.024  0.00  0.00    +0.000 NA
ATOM      4  C   UNL     1      61.014  62.338  70.641  0.00  0.00    +0.000 C 
ATOM      5  C   UNL     1      60.391  61.918  70.983  0.00  0.00    +0.000 C 
ATOM      6  O   UNL     1      60.079  61.258  70.599  0.00  0.00    +0.000 OA
ATOM      7  C   UNL     1      61.949  63.418  70.683  0.00  0.00    +0.000 C 
ATOM      8  C   UNL     1      62.261  64.078  71.066  0.00  0.00    +0.000 C 
ATOM      9  C   UNL     1      62.883  64.498  70.724  0.00  0.00    +0.000 C 
ATOM     10  C   UNL     1      63.196  65.158  71.107  0.00  0.00    +0.000 C 
ATOM     11  C   UNL     1      62.885  65.398  71.834  0.00  0.00    +0.000 C 
ATOM     12  N   UNL     1      63.818  65.577  70.766  0.00  0.00    +0.000 NA
ATOM     13  C   UNL     1      64.131  66.238  71.149  0.00  0.00    +0.000 A 
ATOM     14  C   UNL     1      63.820  66.478  71.876  0.00  0.00    +0.000 A 
ATOM     15  C   UNL     1      64.133  67.139  72.259  0.00  0.00    +0.000 A 
ATOM     16  N   UNL     1      64.755  67.558  71.917  0.00  0.00    +0.000 NA
ATOM     17  C   UNL     1      65.066  67.318  71.191  0.00  0.00    +0.000 A 
ATOM     18  C   UNL     1      65.687  67.737  70.849  0.00  0.00    +0.000 A 
ATOM     19  C   UNL     1      65.997  67.497  70.123  0.00  0.00    +0.000 A 
ATOM     20 CL   UNL     1      66.620  67.917  69.781  0.00  0.00    +0.000 Cl
ATOM     21  C   UNL     1      65.685  66.837  69.739  0.00  0.00    +0.000 A 
ATOM     22  C   UNL     1      65.063  66.418  70.082  0.00  0.00    +0.000 A 
ATOM     23  C   UNL     1      64.753  66.658  70.807  0.00  0.00    +0.000 A 
ENDROOT
TORSDOF 0
ENDMDL
MODEL 5
REMARK VINA RESULT:   -10.760      2.444      3.762
REMARK INTER + INTRA:         -10.760
REMARK INTER:                 -10.760
REMARK INTRA:                   0.000
REMARK UNBOUND:                 0.000
ROOT
REMARK  Name = hydroxychloroquine
REMARK                            x       y       z     vdW  Elec       q    Type
REMARK                         _______ _______ _______ _____ _____    ______ ____
ATOM      1  C   UNL     1      64.240  65.567  71.181  0.00  0.00    +0.000 C 
ATOM      2  C   UNL     1      64.783  66.136  70.932  0.00  0.00    +0.000 C 
ATOM      3  N   UNL     1      64.833  66.336  70.132  0.00  0.00    +0.000 NA
ATOM      4  C   UNL     1      65.375  66.904  69.882  0.00  0.00    +0.000 C 
ATOM      5  C   UNL     1      65.868  67.274  70.431  0.00  0.00    +0.000 C 
ATOM      6  O   UNL     1      66.411  67.842  70.181  0.00  0.00    +0.000 OA
ATOM      7  C   UNL     1      64.340  65.966  69.583  0.00  0.00    +0.000 C 
ATOM      8  C   UNL     1      63.798  65.397  69.833  0.00  0.00    +0.000 C 
ATOM      9  C   UNL     1      63.305  65.027  69.284  0.00  0.00    +0.000 C 
ATOM     10  C   UNL     1      62.762  64.459  69.533  0.00  0.00    +0.000 C 
ATOM     11  C   UNL     1      62.712  64.259  70.333  0.00  0.00    +0.000 C 
ATOM     12  N   UNL     1      62.270  64.089  68.985  0.00  0.00    +0.000 NA
ATOM     13  C   UNL     1      61.727  63.520  69.234  0.00  0.00    +0.000 A 
ATOM     14  C   UNL     1      61.677  63.321  70.034  0.00  0.00    +0.000 A 
ATOM     15  C   UNL     1      61.134  62.752  70.284  0.00  0.00    +0.000 A 
ATOM     16  N   UNL     1      60.641  62.382  69.735  0.00  0.00    +0.000 NA
ATOM     17  C   UNL     1      60.692  62.582  68.935  0.00  0.00    +0.000 A 
ATOM     18  C   UNL     1      60.199  62.213  68.387  0.00  0.00    +0.000 A 
ATOM     19  C   UNL     1      60.249  62.412  67.588  0.00  0.00    +0.000 A 
ATOM     20 CL   UNL     1      59.757  62.042  67.038  0.00  0.00    +0.000 Cl
ATOM     21  C   UNL     1      60.792  62.981  67.337  0.00  0.00    +0.000 A 
ATOM     22  C   UNL     1      61.284  63.350  67.887  0.00  0.00    +0.000 A 
ATOM     23  C   UNL     1      61.234  63.150  68.686  0.00  0.00    +0.000 A 
ENDROOT
TORSDOF 0
ENDMDL
MODEL 6
REMARK VINA RESULT:   -10.219      3.002      6.147
REMARK INTER + INTRA:         -10.219
REMARK INTER:                 -10.219
REMARK INTRA:                   0.000
REMARK UNBOUND:                 0.000
ROOT
REMARK  Name = hydroxychloroquine
REMARK                            x       y       z     vdW  Elec       q    Type
REMARK                         _______ _______ _______ _____ _____    ______ ____
ATOM      1  C   UNL     1      60.517  62.059  68.569  0.00  0.00    +0.000 C 
ATOM      2  C   UNL     1      60.648  62.023  67.755  0.00  0.00    +0.000 C 
ATOM      3  N   UNL     1      61.108  62.601  67.386  0.00  0.00    +0.000 NA
ATOM      4  C   UNL     1      61.239  62.566  66.573  0.00  0.00    +0.000 C 
ATOM      5  C   UNL     1      60.910  61.954  66.127  0.00  0.00    +0.000 C 
ATOM      6  O   UNL     1      61.041  61.918  65.314  0.00  0.00    +0.000 OA
ATOM      7  C   UNL     1      61.437  63.213  67.831  0.00  0.00    +0.000 C 
ATOM      8  C   UNL     1      61.306  63.249  68.644  0.00  0.00    +0.000 C 
ATOM      9  C   UNL     1      61.635  63.861  69.089  0.00  0.00    +0.000 C 
ATOM     10  C   UNL     1      61.504  63.897  69.902  0.00  0.00    +0.000 C 
ATOM     11  C   UNL     1      61.044  63.319  70.272  0.00  0.00    +0.000 C 
ATOM     12  N   UNL     1      61.832  64.508  70.347  0.00  0.00    +0.000 NA
ATOM     13  C   UNL     1      61.702  64.544  71.161  0.00  0.00    +0.000 A 
ATOM     14  C   UNL     1      61.242  63.967  71.530  0.00  0.00    +0.000 A 
ATOM     15  C   UNL     1      61.111  64.002  72.344  0.00  0.00    +0.000 A 
ATOM     16  N   UNL     1      61.440  64.614  72.789  0.00  0.00    +0.000 NA
ATOM     17  C   UNL     1      61.900  65.192  72.419  0.00  0.00    +0.000 A 
ATOM     18  C   UNL     1      62.228  65.804  72.863  0.00  0.00    +0.000 A 
ATOM     19  C   UNL     1      62.688  66.381  72.494  0.00  0.00    +0.000 A 
ATOM     20 CL   UNL     1      63.017  66.994  72.939  0.00  0.00    +0.000 Cl
ATOM     21  C   UNL     1      62.819  66.346  71.680  0.00  0.00    +0.000 A 
ATOM     22  C   UNL     1      62.490  65.734  71.236  0.00  0.00    +0.000 A 
ATOM     23  C   UNL     1      62.030  65.157  71.606  0.00  0.00    +0.000 A 
ENDROOT
TORSDOF 0
ENDMDL
MODEL 7
REMARK VINA RESULT:    -9.935      3.403      6.385
REMARK INTER + INTRA:          -9.935
REMARK INTER:                  -9.935
REMARK INTRA:                   0.000
REMARK UNBOUND:                 0.000
ROOT
REMARK  Name = hydroxychloroquine
REMARK                            x       y       z     vdW  Elec       q    Type
REMARK                         _______ _______ _______ _____ _____    ______ ____
ATOM      1  C   UNL     1      60.913  62.002  68.662  0.00  0.00    +0.000 C 
ATOM      2  C   UNL     1      60.870  62.013  67.838  0.00  0.00    +0.000 C 
ATOM      3  N   UNL     1      60.573  62.678  67.449  0.00  0.00    +0.000 NA
ATOM      4  C   UNL     1      60.530  62.689  66.626  0.00  0.00    +0.000 C 
ATOM      5  C   UNL     1      60.783  62.036  66.190  0.00  0.00    +0.000 C 
ATOM      6  O   UNL     1      60.740  62.047  65.367  0.00  0.00    +0.000 OA
ATOM      7  C   UNL     1      60.320  63.331  67.886  0.00  0.00    +0.000 C 
ATOM      8  C   UNL     1      60.363  63.320  68.709  0.00  0.00    +0.000 C 
ATOM      9  C   UNL     1      60.110  63.973  69.145  0.00  0.00    +0.000 C 
ATOM     10  C   UNL     1      60.153  63.962  69.968  0.00  0.00    +0.000 C 
ATOM     11  C   UNL     1      60.451  63.297  70.357  0.00  0.00    +0.000 C 
ATOM     12  N   UNL     1      59.900  64.615  70.403  0.00  0.00    +0.000 NA
ATOM     13  C   UNL     1      59.944  64.604  71.227  0.00  0.00    +0.000 A 
ATOM     14  C   UNL     1      60.241  63.939  71.616  0.00  0.00    +0.000 A 
ATOM     15  C   UNL     1      60.284  63.928  72.440  0.00  0.00    +0.000 A 
ATOM     16  N   UNL     1      60.031  64.581  72.875  0.00  0.00    +0.000 NA
ATOM     17  C   UNL     1      59.734  65.246  72.487  0.00  0.00    +0.000 A 
ATOM     18  C   UNL     1      59.481  65.899  72.922  0.00  0.00    +0.000 A 
ATOM     19  C   UNL     1      59.184  66.564  72.533  0.00  0.00    +0.000 A 
ATOM     20 CL   UNL     1      58.931  67.218  72.969  0.00  0.00    +0.000 Cl
ATOM     21  C   UNL     1      59.140  66.576  71.710  0.00  0.00    +0.000 A 
ATOM     22  C   UNL     1      59.394  65.922  71.275  0.00  0.00    +0.000 A 
ATOM     23  C   UNL     1      59.690  65.258  71.663  0.00  0.00    +0.000 A 
ENDROOT
TORSDOF 0
ENDMDL
MODEL 8
REMARK VINA RESULT:    -9.879      5.307      6.482
REMARK INTER + INTRA:          -9.879
REMARK INTER:                  -9.879
REMARK INTRA:                   0.000
REMARK UNBOUND:                 0.000
ROOT
REMARK  Name = hydroxychloroquine
REMARK                            x       y       z     vdW  Elec       q    Type
REMARK                         _______ _______ _______ _____ _____    ______ ____
ATOM      1  C   UNL     1      64.318  65.109  70.826  0.00  0.00    +0.000 C 
ATOM      2  C   UNL     1      64.911  65.666  70.967  0.00  0.00    +0.000 C 
ATOM      3  N   UNL     1      64.746  66.339  71.416  0.00  0.00    +0.000 NA
ATOM      4  C   UNL     1      65.337  66.896  71.557  0.00  0.00    +0.000 C 
ATOM      5  C   UNL     1      66.094  66.781  71.250  0.00  0.00    +0.000 C 
ATOM      6  O   UNL     1      66.686  67.337  71.391  0.00  0.00    +0.000 OA
ATOM      7  C   UNL     1      63.988  66.454  71.724  0.00  0.00    +0.000 C 
ATOM      8  C   UNL     1      63.397  65.897  71.583  0.00  0.00    +0.000 C 
ATOM      9  C   UNL     1      62.640  66.012  71.890  0.00  0.00    +0.000 C 
ATOM     10  C   UNL     1      62.048  65.456  71.749  0.00  0.00    +0.000 C 
ATOM     11  C   UNL     1      62.213  64.783  71.300  0.00  0.00    +0.000 C 
ATOM     12  N   UNL     1      61.292  65.571  72.057  0.00  0.00    +0.000 NA
ATOM     13  C   UNL     1      60.699  65.014  71.916  0.00  0.00    +0.000 A 
ATOM     14  C   UNL     1      60.864  64.341  71.466  0.00  0.00    +0.000 A 
ATOM     15  C   UNL     1      60.272  63.784  71.325  0.00  0.00    +0.000 A 
ATOM     16  N   UNL     1      59.515  63.899  71.633  0.00  0.00    +0.000 NA
ATOM     17  C   UNL     1      59.350  64.572  72.082  0.00  0.00    +0.000 A 
ATOM     18  C   UNL     1      58.594  64.687  72.389  0.00  0.00    +0.000 A 
ATOM     19  C   UNL     1      58.429  65.359  72.838  0.00  0.00    +0.000 A 
ATOM     20 CL   UNL     1      57.672  65.475  73.146  0.00  0.00    +0.000 Cl
ATOM     21  C   UNL     1      59.021  65.917  72.980  0.00  0.00    +0.000 A 
ATOM     22  C   UNL     1      59.777  65.801  72.672  0.00  0.00    +0.000 A 
ATOM     23  C   UNL     1      59.942  65.129  72.223  0.00  0.00    +0.000 A 
ENDROOT
TORSDOF 0
ENDMDL
MODEL 9
REMARK VINA RESULT:    -9.734      4.937      7.334
REMARK INTER + INTRA:          -9.734
REMARK INTER:                  -9.734
REMARK INTRA:                   0.000
REMARK UNBOUND:                 0.000
ROOT
REMARK  Name = hydroxychloroquine
REMARK                            x       y       z     vdW  Elec       q    Type
REMARK                         _______ _______ _______ _____ _____    ______ ____
ATOM      1  C   UNL     1      62.138  66.384  69.228  0.00  0.00    +0.000 C 
ATOM      2  C   UNL     1      61.438  66.007  69.450  0.00  0.00    +0.000 C 
ATOM      3  N   UNL     1      61.391  65.620  70.179  0.00  0.00    +0.000 NA
ATOM      4  C   UNL     1      60.692  65.244  70.401  0.00  0.00    +0.000 C 
ATOM      5  C   UNL     1      60.039  65.253  69.897  0.00  0.00    +0.000 C 
ATOM      6  O   UNL     1      59.340  64.877  70.119  0.00  0.00    +0.000 OA
ATOM      7  C   UNL     1      62.044  65.611  70.683  0.00  0.00    +0.000 C 
ATOM      8  C   UNL     1      62.743  65.987  70.461  0.00  0.00    +0.000 C 
ATOM      9  C   UNL     1      63.396  65.978  70.965  0.00  0.00    +0.000 C 
ATOM     10  C   UNL     1      64.095  66.354  70.743  0.00  0.00    +0.000 C 
ATOM     11  C   UNL     1      64.142  66.741  70.014  0.00  0.00    +0.000 C 
ATOM     12  N   UNL     1      64.747  66.345  71.247  0.00  0.00    +0.000 NA
ATOM     13  C   UNL     1      65.447  66.721  71.025  0.00  0.00    +0.000 A 
ATOM     14  C   UNL     1      65.494  67.108  70.297  0.00  0.00    +0.000 A 
ATOM     15  C   UNL     1      66.194  67.484  70.074  0.00  0.00    +0.000 A 
ATOM     16  N   UNL     1      66.846  67.475  70.579  0.00  0.00    +0.000 NA
ATOM     17  C   UNL     1      66.799  67.088  71.307  0.00  0.00    +0.000 A 
ATOM     18  C   UNL     1      67.451  67.079  71.811  0.00  0.00    +0.000 A 
ATOM     19  C   UNL     1      67.404  66.692  72.539  0.00  0.00    +0.000 A 
ATOM     20 CL   UNL     1      68.057  66.683  73.044  0.00  0.00    +0.000 Cl
ATOM     21  C   UNL     1      66.705  66.316  72.762  0.00  0.00    +0.000 A 
ATOM     22  C   UNL     1      66.053  66.326  72.257  0.00  0.00    +0.000 A 
ATOM     23  C   UNL     1      66.100  66.712  71.529  0.00  0.00    +0.000 A 
ENDROOT
TORSDOF 0
ENDMDL
