MODEL 1
REMARK VINA RESULT:   -15.232      0.000      0.000
REMARK INTER + INTRA:         -15.232
REMARK INTER:                 -15.232
REMARK INTRA:                   0.000
REMARK UNBOUND:                 0.000
ROOT
REMARK  Name = hydrocortisone probutate
REMARK                            x       y       z     vdW  Elec       q    Type
REMARK                         _______ _______ _______ _____ _____    ______ ____
ATOM      1  C   UNL     1      64.326  65.158  70.810  0.00  0.00    +0.000 C 
ATOM      2  C   UNL     1      63.551  65.079  71.081  0.00  0.00    +0.000 C 
ATOM      3  C   UNL     1      63.202  65.689  71.514  0.00  0.00    +0.000 C 
ATOM      4  C   UNL     1      62.427  65.611  71.785  0.00  0.00    +0.000 C 
ATOM      5  O   UNL     1      62.222  64.862  71.506  0.00  0.00    +0.000 OA
ATOM      6  O   UNL     1      62.078  66.221  72.218  0.00  0.00    +0.000 OA
ATOM      7  C   UNL     1      61.302  66.143  72.489  0.00  0.00    +0.000 C 
ATOM      8  C   UNL     1      60.554  66.222  72.825  0.00  0.00    +0.000 C 
ATOM      9  C   UNL     1      60.127  65.534  72.664  0.00  0.00    +0.000 C 
ATOM     10  C   UNL     1      60.613  65.030  72.228  0.00  0.00    +0.000 C 
ATOM     11  C   UNL     1      60.487  64.277  71.916  0.00  0.00    +0.000 C 
ATOM     12  C   UNL     1      59.761  63.901  72.024  0.00  0.00    +0.000 C 
ATOM     13  C   UNL     1      59.636  63.148  71.712  0.00  0.00    +0.000 C 
ATOM     14  C   UNL     1      60.238  62.771  71.290  0.00  0.00    +0.000 C 
ATOM     15  C   UNL     1      60.112  62.017  70.978  0.00  0.00    +0.000 C 
ATOM     16  C   UNL     1      60.713  61.640  70.557  0.00  0.00    +0.000 C 
ATOM     17  O   UNL     1      60.587  60.886  70.244  0.00  0.00    +0.000 OA
ATOM     18  C   UNL     1      61.440  62.016  70.448  0.00  0.00    +0.000 C 
ATOM     19  C   UNL     1      61.564  62.769  70.761  0.00  0.00    +0.000 C 
ATOM     20  C   UNL     1      60.963  63.147  71.182  0.00  0.00    +0.000 C 
ATOM     21  C   UNL     1      61.689  63.522  71.074  0.00  0.00    +0.000 C 
ATOM     22  C   UNL     1      61.089  63.899  71.494  0.00  0.00    +0.000 C 
ATOM     23  C   UNL     1      61.815  64.276  71.386  0.00  0.00    +0.000 C 
ATOM     24  O   UNL     1      62.416  63.899  70.965  0.00  0.00    +0.000 OA
ATOM     25  C   UNL     1      61.940  65.028  71.698  0.00  0.00    +0.000 C 
ATOM     26  C   UNL     1      61.339  65.406  72.120  0.00  0.00    +0.000 C 
ATOM     27  C   UNL     1      62.033  65.848  72.056  0.00  0.00    +0.000 C 
ATOM     28  C   UNL     1      61.428  66.896  72.802  0.00  0.00    +0.000 C 
ATOM     29  O   UNL     1      60.827  67.273  73.222  0.00  0.00    +0.000 OA
ATOM     30  C   UNL     1      62.154  67.272  72.693  0.00  0.00    +0.000 C 
ATOM     31  O   UNL     1      62.280  68.025  73.006  0.00  0.00    +0.000 OA
ATOM     32  C   UNL     1      63.005  68.401  72.897  0.00  0.00    +0.000 C 
ATOM     33  O   UNL     1      63.606  68.024  72.476  0.00  0.00    +0.000 OA
ATOM     34  C   UNL     1      63.131  69.154  73.210  0.00  0.00    +0.000 C 
ATOM     35  C   UNL     1      63.857  69.530  73.102  0.00  0.00    +0.000 C 
ENDROOT
TORSDOF 0
ENDMDL
MODEL 2
REMARK VINA RESULT:   -15.080      2.037      2.625
REMARK INTER + INTRA:         -15.080
REMARK INTER:                 -15.080
REMARK INTRA:                   0.000
REMARK UNBOUND:                 0.000
ROOT
REMARK  Name = hydrocortisone probutate
REMARK                            x       y       z     vdW  Elec       q    Type
REMARK                         _______ _______ _______ _____ _____    ______ ____
ATOM      1  C   UNL     1      60.693  67.030  68.764  0.00  0.00    +0.000 C 
ATOM      2  C   UNL     1      60.770  66.284  69.105  0.00  0.00    +0.000 C 
ATOM      3  C   UNL     1      61.058  66.210  69.875  0.00  0.00    +0.000 C 
ATOM      4  C   UNL     1      61.135  65.463  70.217  0.00  0.00    +0.000 C 
ATOM      5  O   UNL     1      60.870  64.969  69.612  0.00  0.00    +0.000 OA
ATOM      6  O   UNL     1      61.423  65.389  70.986  0.00  0.00    +0.000 OA
ATOM      7  C   UNL     1      61.501  64.642  71.328  0.00  0.00    +0.000 C 
ATOM      8  C   UNL     1      61.636  63.984  71.806  0.00  0.00    +0.000 C 
ATOM      9  C   UNL     1      61.426  63.310  71.378  0.00  0.00    +0.000 C 
ATOM     10  C   UNL     1      61.160  63.553  70.636  0.00  0.00    +0.000 C 
ATOM     11  C   UNL     1      60.882  63.130  69.984  0.00  0.00    +0.000 C 
ATOM     12  C   UNL     1      60.835  62.308  70.015  0.00  0.00    +0.000 C 
ATOM     13  C   UNL     1      60.557  61.886  69.364  0.00  0.00    +0.000 C 
ATOM     14  C   UNL     1      60.325  62.287  68.680  0.00  0.00    +0.000 C 
ATOM     15  C   UNL     1      60.047  61.864  68.029  0.00  0.00    +0.000 C 
ATOM     16  C   UNL     1      59.815  62.265  67.346  0.00  0.00    +0.000 C 
ATOM     17  O   UNL     1      59.537  61.842  66.693  0.00  0.00    +0.000 OA
ATOM     18  C   UNL     1      59.862  63.089  67.315  0.00  0.00    +0.000 C 
ATOM     19  C   UNL     1      60.140  63.510  67.967  0.00  0.00    +0.000 C 
ATOM     20  C   UNL     1      60.372  63.110  68.650  0.00  0.00    +0.000 C 
ATOM     21  C   UNL     1      60.418  63.932  68.619  0.00  0.00    +0.000 C 
ATOM     22  C   UNL     1      60.650  63.532  69.301  0.00  0.00    +0.000 C 
ATOM     23  C   UNL     1      60.696  64.355  69.270  0.00  0.00    +0.000 C 
ATOM     24  O   UNL     1      60.464  64.756  68.588  0.00  0.00    +0.000 OA
ATOM     25  C   UNL     1      60.974  64.777  69.922  0.00  0.00    +0.000 C 
ATOM     26  C   UNL     1      61.206  64.376  70.605  0.00  0.00    +0.000 C 
ATOM     27  C   UNL     1      61.283  65.196  70.655  0.00  0.00    +0.000 C 
ATOM     28  C   UNL     1      61.779  65.065  71.980  0.00  0.00    +0.000 C 
ATOM     29  O   UNL     1      62.011  64.664  72.663  0.00  0.00    +0.000 OA
ATOM     30  C   UNL     1      61.826  65.887  71.949  0.00  0.00    +0.000 C 
ATOM     31  O   UNL     1      62.104  66.310  72.601  0.00  0.00    +0.000 OA
ATOM     32  C   UNL     1      62.150  67.133  72.570  0.00  0.00    +0.000 C 
ATOM     33  O   UNL     1      61.918  67.534  71.887  0.00  0.00    +0.000 OA
ATOM     34  C   UNL     1      62.428  67.556  73.222  0.00  0.00    +0.000 C 
ATOM     35  C   UNL     1      62.475  68.378  73.191  0.00  0.00    +0.000 C 
ENDROOT
TORSDOF 0
ENDMDL
MODEL 3
REMARK VINA RESULT:   -15.054      1.473      3.188
REMARK INTER + INTRA:         -15.054
REMARK INTER:                 -15.054
REMARK INTRA:                   0.000
REMARK UNBOUND:                 0.000
ROOT
REMARK  Name = hydrocortisone probutate
REMARK                            x       y       z     vdW  Elec       q    Type
REMARK                         _______ _______ _______ _____ _____    ______ ____
ATOM      1  C   UNL     1      62.376  68.329  73.222  0.00  0.00    +0.000 C 
ATOM      2  C   UNL     1      62.188  67.600  72.885  0.00  0.00    +0.000 C 
ATOM      3  C   UNL     1      62.765  67.175  72.475  0.00  0.00    +0.000 C 
ATOM      4  C   UNL     1      62.577  66.446  72.137  0.00  0.00    +0.000 C 
ATOM      5  O   UNL     1      61.782  66.363  72.338  0.00  0.00    +0.000 OA
ATOM      6  O   UNL     1      63.153  66.021  71.727  0.00  0.00    +0.000 OA
ATOM      7  C   UNL     1      62.966  65.291  71.389  0.00  0.00    +0.000 C 
ATOM      8  C   UNL     1      62.943  64.565  71.001  0.00  0.00    +0.000 C 
ATOM      9  C   UNL     1      62.179  64.261  71.072  0.00  0.00    +0.000 C 
ATOM     10  C   UNL     1      61.730  64.801  71.505  0.00  0.00    +0.000 C 
ATOM     11  C   UNL     1      60.941  64.794  71.746  0.00  0.00    +0.000 C 
ATOM     12  C   UNL     1      60.455  64.157  71.550  0.00  0.00    +0.000 C 
ATOM     13  C   UNL     1      59.667  64.151  71.791  0.00  0.00    +0.000 C 
ATOM     14  C   UNL     1      59.363  64.782  72.229  0.00  0.00    +0.000 C 
ATOM     15  C   UNL     1      58.574  64.775  72.470  0.00  0.00    +0.000 C 
ATOM     16  C   UNL     1      58.271  65.406  72.906  0.00  0.00    +0.000 C 
ATOM     17  O   UNL     1      57.482  65.400  73.148  0.00  0.00    +0.000 OA
ATOM     18  C   UNL     1      58.758  66.044  73.102  0.00  0.00    +0.000 C 
ATOM     19  C   UNL     1      59.546  66.050  72.861  0.00  0.00    +0.000 C 
ATOM     20  C   UNL     1      59.849  65.419  72.424  0.00  0.00    +0.000 C 
ATOM     21  C   UNL     1      60.335  66.056  72.620  0.00  0.00    +0.000 C 
ATOM     22  C   UNL     1      60.638  65.425  72.183  0.00  0.00    +0.000 C 
ATOM     23  C   UNL     1      61.124  66.063  72.379  0.00  0.00    +0.000 C 
ATOM     24  O   UNL     1      60.821  66.693  72.816  0.00  0.00    +0.000 OA
ATOM     25  C   UNL     1      61.913  66.069  72.138  0.00  0.00    +0.000 C 
ATOM     26  C   UNL     1      62.216  65.437  71.701  0.00  0.00    +0.000 C 
ATOM     27  C   UNL     1      62.765  66.034  71.854  0.00  0.00    +0.000 C 
ATOM     28  C   UNL     1      63.755  65.298  71.148  0.00  0.00    +0.000 C 
ATOM     29  O   UNL     1      64.058  64.668  70.711  0.00  0.00    +0.000 OA
ATOM     30  C   UNL     1      64.241  65.935  71.343  0.00  0.00    +0.000 C 
ATOM     31  O   UNL     1      65.030  65.942  71.102  0.00  0.00    +0.000 OA
ATOM     32  C   UNL     1      65.516  66.579  71.298  0.00  0.00    +0.000 C 
ATOM     33  O   UNL     1      65.213  67.210  71.735  0.00  0.00    +0.000 OA
ATOM     34  C   UNL     1      66.305  66.586  71.057  0.00  0.00    +0.000 C 
ATOM     35  C   UNL     1      66.791  67.222  71.253  0.00  0.00    +0.000 C 
ENDROOT
TORSDOF 0
ENDMDL
MODEL 4
REMARK VINA RESULT:   -15.027      1.682      4.593
REMARK INTER + INTRA:         -15.027
REMARK INTER:                 -15.027
REMARK INTRA:                   0.000
REMARK UNBOUND:                 0.000
ROOT
REMARK  Name = hydrocortisone probutate
REMARK                            x       y       z     vdW  Elec       q    Type
REMARK                         _______ _______ _______ _____ _____    ______ ____
ATOM      1  C   UNL     1      61.988  68.009  73.222  0.00  0.00    +0.000 C 
ATOM      2  C   UNL     1      62.204  67.482  72.626  0.00  0.00    +0.000 C 
ATOM      3  C   UNL     1      61.673  66.901  72.377  0.00  0.00    +0.000 C 
ATOM      4  C   UNL     1      61.889  66.374  71.781  0.00  0.00    +0.000 C 
ATOM      5  O   UNL     1      62.654  66.622  71.600  0.00  0.00    +0.000 OA
ATOM      6  O   UNL     1      61.358  65.793  71.532  0.00  0.00    +0.000 OA
ATOM      7  C   UNL     1      61.574  65.265  70.935  0.00  0.00    +0.000 C 
ATOM      8  C   UNL     1      61.631  64.673  70.364  0.00  0.00    +0.000 C 
ATOM      9  C   UNL     1      62.378  64.726  70.016  0.00  0.00    +0.000 C 
ATOM     10  C   UNL     1      62.781  65.351  70.373  0.00  0.00    +0.000 C 
ATOM     11  C   UNL     1      63.537  65.660  70.253  0.00  0.00    +0.000 C 
ATOM     12  C   UNL     1      64.033  65.327  69.685  0.00  0.00    +0.000 C 
ATOM     13  C   UNL     1      64.788  65.636  69.565  0.00  0.00    +0.000 C 
ATOM     14  C   UNL     1      65.047  66.279  70.015  0.00  0.00    +0.000 C 
ATOM     15  C   UNL     1      65.803  66.587  69.895  0.00  0.00    +0.000 C 
ATOM     16  C   UNL     1      66.062  67.230  70.344  0.00  0.00    +0.000 C 
ATOM     17  O   UNL     1      66.818  67.539  70.224  0.00  0.00    +0.000 OA
ATOM     18  C   UNL     1      65.565  67.563  70.913  0.00  0.00    +0.000 C 
ATOM     19  C   UNL     1      64.810  67.253  71.031  0.00  0.00    +0.000 C 
ATOM     20  C   UNL     1      64.551  66.611  70.583  0.00  0.00    +0.000 C 
ATOM     21  C   UNL     1      64.054  66.944  71.150  0.00  0.00    +0.000 C 
ATOM     22  C   UNL     1      63.796  66.303  70.702  0.00  0.00    +0.000 C 
ATOM     23  C   UNL     1      63.298  66.635  71.270  0.00  0.00    +0.000 C 
ATOM     24  O   UNL     1      63.557  67.277  71.719  0.00  0.00    +0.000 OA
ATOM     25  C   UNL     1      62.543  66.327  71.390  0.00  0.00    +0.000 C 
ATOM     26  C   UNL     1      62.284  65.684  70.940  0.00  0.00    +0.000 C 
ATOM     27  C   UNL     1      61.729  65.958  71.486  0.00  0.00    +0.000 C 
ATOM     28  C   UNL     1      60.818  64.956  71.055  0.00  0.00    +0.000 C 
ATOM     29  O   UNL     1      60.559  64.314  70.606  0.00  0.00    +0.000 OA
ATOM     30  C   UNL     1      60.322  65.288  71.623  0.00  0.00    +0.000 C 
ATOM     31  O   UNL     1      59.566  64.980  71.743  0.00  0.00    +0.000 OA
ATOM     32  C   UNL     1      59.069  65.312  72.310  0.00  0.00    +0.000 C 
ATOM     33  O   UNL     1      59.328  65.954  72.759  0.00  0.00    +0.000 OA
ATOM     34  C   UNL     1      58.313  65.004  72.430  0.00  0.00    +0.000 C 
ATOM     35  C   UNL     1      57.817  65.336  72.998  0.00  0.00    +0.000 C 
ENDROOT
TORSDOF 0
ENDMDL
MODEL 5
REMARK VINA RESULT:   -14.646      1.672      2.889
REMARK INTER + INTRA:         -14.646
REMARK INTER:                 -14.646
REMARK INTRA:                   0.000
REMARK UNBOUND:                 0.000
ROOT
REMARK  Name = hydrocortisone probutate
REMARK                            x       y       z     vdW  Elec       q    Type
REMARK                         _______ _______ _______ _____ _____    ______ ____
ATOM      1  C   UNL     1      63.013  64.216  70.242  0.00  0.00    +0.000 C 
ATOM      2  C   UNL     1      62.689  64.792  70.736  0.00  0.00    +0.000 C 
ATOM      3  C   UNL     1      63.143  65.444  70.961  0.00  0.00    +0.000 C 
ATOM      4  C   UNL     1      62.819  66.020  71.455  0.00  0.00    +0.000 C 
ATOM      5  O   UNL     1      62.057  65.730  71.582  0.00  0.00    +0.000 OA
ATOM      6  O   UNL     1      63.272  66.672  71.680  0.00  0.00    +0.000 OA
ATOM      7  C   UNL     1      62.948  67.249  72.174  0.00  0.00    +0.000 C 
ATOM      8  C   UNL     1      62.780  67.899  72.652  0.00  0.00    +0.000 C 
ATOM      9  C   UNL     1      62.003  67.824  72.920  0.00  0.00    +0.000 C 
ATOM     10  C   UNL     1      61.692  67.127  72.608  0.00  0.00    +0.000 C 
ATOM     11  C   UNL     1      60.952  66.770  72.685  0.00  0.00    +0.000 C 
ATOM     12  C   UNL     1      60.368  67.125  73.146  0.00  0.00    +0.000 C 
ATOM     13  C   UNL     1      59.629  66.769  73.222  0.00  0.00    +0.000 C 
ATOM     14  C   UNL     1      59.473  66.055  72.837  0.00  0.00    +0.000 C 
ATOM     15  C   UNL     1      58.733  65.698  72.913  0.00  0.00    +0.000 C 
ATOM     16  C   UNL     1      58.578  64.985  72.529  0.00  0.00    +0.000 C 
ATOM     17  O   UNL     1      57.837  64.628  72.605  0.00  0.00    +0.000 OA
ATOM     18  C   UNL     1      59.162  64.629  72.067  0.00  0.00    +0.000 C 
ATOM     19  C   UNL     1      59.902  64.987  71.991  0.00  0.00    +0.000 C 
ATOM     20  C   UNL     1      60.057  65.700  72.376  0.00  0.00    +0.000 C 
ATOM     21  C   UNL     1      60.641  65.344  71.915  0.00  0.00    +0.000 C 
ATOM     22  C   UNL     1      60.797  66.056  72.300  0.00  0.00    +0.000 C 
ATOM     23  C   UNL     1      61.381  65.701  71.838  0.00  0.00    +0.000 C 
ATOM     24  O   UNL     1      61.226  64.988  71.454  0.00  0.00    +0.000 OA
ATOM     25  C   UNL     1      62.121  66.057  71.762  0.00  0.00    +0.000 C 
ATOM     26  C   UNL     1      62.276  66.771  72.147  0.00  0.00    +0.000 C 
ATOM     27  C   UNL     1      62.912  66.481  71.707  0.00  0.00    +0.000 C 
ATOM     28  C   UNL     1      63.689  67.605  72.098  0.00  0.00    +0.000 C 
ATOM     29  O   UNL     1      63.844  68.318  72.482  0.00  0.00    +0.000 OA
ATOM     30  C   UNL     1      64.273  67.250  71.637  0.00  0.00    +0.000 C 
ATOM     31  O   UNL     1      65.013  67.607  71.560  0.00  0.00    +0.000 OA
ATOM     32  C   UNL     1      65.597  67.251  71.099  0.00  0.00    +0.000 C 
ATOM     33  O   UNL     1      65.441  66.538  70.715  0.00  0.00    +0.000 OA
ATOM     34  C   UNL     1      66.337  67.608  71.023  0.00  0.00    +0.000 C 
ATOM     35  C   UNL     1      66.921  67.252  70.562  0.00  0.00    +0.000 C 
ENDROOT
TORSDOF 0
ENDMDL
MODEL 6
REMARK VINA RESULT:   -14.587      1.605      4.438
REMARK INTER + INTRA:         -14.587
REMARK INTER:                 -14.587
REMARK INTRA:                   0.000
REMARK UNBOUND:                 0.000
ROOT
REMARK  Name = hydrocortisone probutate
REMARK                            x       y       z     vdW  Elec       q    Type
REMARK                         _______ _______ _______ _____ _____    ______ ____
ATOM      1  C   UNL     1      62.228  63.798  70.650  0.00  0.00    +0.000 C 
ATOM      2  C   UNL     1      62.357  64.533  70.999  0.00  0.00    +0.000 C 
ATOM      3  C   UNL     1      61.748  64.904  71.416  0.00  0.00    +0.000 C 
ATOM      4  C   UNL     1      61.876  65.640  71.765  0.00  0.00    +0.000 C 
ATOM      5  O   UNL     1      62.662  65.791  71.565  0.00  0.00    +0.000 OA
ATOM      6  O   UNL     1      61.268  66.011  72.181  0.00  0.00    +0.000 OA
ATOM      7  C   UNL     1      61.396  66.748  72.531  0.00  0.00    +0.000 C 
ATOM      8  C   UNL     1      61.360  67.468  72.931  0.00  0.00    +0.000 C 
ATOM      9  C   UNL     1      62.097  67.834  72.864  0.00  0.00    +0.000 C 
ATOM     10  C   UNL     1      62.588  67.339  72.423  0.00  0.00    +0.000 C 
ATOM     11  C   UNL     1      63.373  67.414  72.183  0.00  0.00    +0.000 C 
ATOM     12  C   UNL     1      63.806  68.084  72.388  0.00  0.00    +0.000 C 
ATOM     13  C   UNL     1      64.591  68.159  72.148  0.00  0.00    +0.000 C 
ATOM     14  C   UNL     1      64.944  67.561  71.701  0.00  0.00    +0.000 C 
ATOM     15  C   UNL     1      65.730  67.635  71.460  0.00  0.00    +0.000 C 
ATOM     16  C   UNL     1      66.083  67.038  71.014  0.00  0.00    +0.000 C 
ATOM     17  O   UNL     1      66.869  67.112  70.773  0.00  0.00    +0.000 OA
ATOM     18  C   UNL     1      65.650  66.366  70.808  0.00  0.00    +0.000 C 
ATOM     19  C   UNL     1      64.864  66.292  71.049  0.00  0.00    +0.000 C 
ATOM     20  C   UNL     1      64.512  66.890  71.495  0.00  0.00    +0.000 C 
ATOM     21  C   UNL     1      64.079  66.219  71.289  0.00  0.00    +0.000 C 
ATOM     22  C   UNL     1      63.727  66.816  71.735  0.00  0.00    +0.000 C 
ATOM     23  C   UNL     1      63.293  66.144  71.530  0.00  0.00    +0.000 C 
ATOM     24  O   UNL     1      63.646  65.547  71.083  0.00  0.00    +0.000 OA
ATOM     25  C   UNL     1      62.508  66.070  71.770  0.00  0.00    +0.000 C 
ATOM     26  C   UNL     1      62.155  66.668  72.217  0.00  0.00    +0.000 C 
ATOM     27  C   UNL     1      61.655  66.031  72.054  0.00  0.00    +0.000 C 
ATOM     28  C   UNL     1      60.610  66.673  72.772  0.00  0.00    +0.000 C 
ATOM     29  O   UNL     1      60.257  67.270  73.218  0.00  0.00    +0.000 OA
ATOM     30  C   UNL     1      60.177  66.002  72.566  0.00  0.00    +0.000 C 
ATOM     31  O   UNL     1      59.392  65.928  72.806  0.00  0.00    +0.000 OA
ATOM     32  C   UNL     1      58.959  65.257  72.601  0.00  0.00    +0.000 C 
ATOM     33  O   UNL     1      59.312  64.659  72.154  0.00  0.00    +0.000 OA
ATOM     34  C   UNL     1      58.173  65.182  72.841  0.00  0.00    +0.000 C 
ATOM     35  C   UNL     1      57.740  64.511  72.635  0.00  0.00    +0.000 C 
ENDROOT
TORSDOF 0
ENDMDL
MODEL 7
REMARK VINA RESULT:   -14.336      2.186      4.968
REMARK INTER + INTRA:         -14.336
REMARK INTER:                 -14.336
REMARK INTRA:                   0.000
REMARK UNBOUND:                 0.000
ROOT
REMARK  Name = hydrocortisone probutate
REMARK                            x       y       z     vdW  Elec       q    Type
REMARK                         _______ _______ _______ _____ _____    ______ ____
ATOM      1  C   UNL     1      64.358  64.552  69.464  0.00  0.00    +0.000 C 
ATOM      2  C   UNL     1      63.634  64.886  69.673  0.00  0.00    +0.000 C 
ATOM      3  C   UNL     1      62.940  64.625  69.311  0.00  0.00    +0.000 C 
ATOM      4  C   UNL     1      62.216  64.960  69.520  0.00  0.00    +0.000 C 
ATOM      5  O   UNL     1      62.439  65.513  70.090  0.00  0.00    +0.000 OA
ATOM      6  O   UNL     1      61.521  64.699  69.159  0.00  0.00    +0.000 OA
ATOM      7  C   UNL     1      60.796  65.034  69.368  0.00  0.00    +0.000 C 
ATOM      8  C   UNL     1      60.008  65.258  69.460  0.00  0.00    +0.000 C 
ATOM      9  C   UNL     1      59.977  65.854  70.030  0.00  0.00    +0.000 C 
ATOM     10  C   UNL     1      60.747  65.997  70.290  0.00  0.00    +0.000 C 
ATOM     11  C   UNL     1      61.052  66.524  70.847  0.00  0.00    +0.000 C 
ATOM     12  C   UNL     1      60.546  67.030  71.257  0.00  0.00    +0.000 C 
ATOM     13  C   UNL     1      60.851  67.556  71.813  0.00  0.00    +0.000 C 
ATOM     14  C   UNL     1      61.664  67.576  71.961  0.00  0.00    +0.000 C 
ATOM     15  C   UNL     1      61.969  68.103  72.518  0.00  0.00    +0.000 C 
ATOM     16  C   UNL     1      62.780  68.123  72.665  0.00  0.00    +0.000 C 
ATOM     17  O   UNL     1      63.086  68.650  73.222  0.00  0.00    +0.000 OA
ATOM     18  C   UNL     1      63.287  67.616  72.255  0.00  0.00    +0.000 C 
ATOM     19  C   UNL     1      62.981  67.090  71.698  0.00  0.00    +0.000 C 
ATOM     20  C   UNL     1      62.169  67.070  71.551  0.00  0.00    +0.000 C 
ATOM     21  C   UNL     1      62.675  66.563  71.142  0.00  0.00    +0.000 C 
ATOM     22  C   UNL     1      61.864  66.544  70.995  0.00  0.00    +0.000 C 
ATOM     23  C   UNL     1      62.370  66.036  70.585  0.00  0.00    +0.000 C 
ATOM     24  O   UNL     1      63.182  66.056  70.732  0.00  0.00    +0.000 OA
ATOM     25  C   UNL     1      62.065  65.510  70.028  0.00  0.00    +0.000 C 
ATOM     26  C   UNL     1      61.253  65.490  69.881  0.00  0.00    +0.000 C 
ATOM     27  C   UNL     1      61.689  64.953  69.431  0.00  0.00    +0.000 C 
ATOM     28  C   UNL     1      60.491  64.507  68.810  0.00  0.00    +0.000 C 
ATOM     29  O   UNL     1      59.679  64.487  68.663  0.00  0.00    +0.000 OA
ATOM     30  C   UNL     1      60.996  64.001  68.401  0.00  0.00    +0.000 C 
ATOM     31  O   UNL     1      60.692  63.474  67.844  0.00  0.00    +0.000 OA
ATOM     32  C   UNL     1      61.197  62.967  67.434  0.00  0.00    +0.000 C 
ATOM     33  O   UNL     1      62.009  62.987  67.582  0.00  0.00    +0.000 OA
ATOM     34  C   UNL     1      60.892  62.441  66.877  0.00  0.00    +0.000 C 
ATOM     35  C   UNL     1      61.398  61.934  66.468  0.00  0.00    +0.000 C 
ENDROOT
TORSDOF 0
ENDMDL
MODEL 8
REMARK VINA RESULT:   -14.040      1.356      4.783
REMARK INTER + INTRA:         -14.040
REMARK INTER:                 -14.040
REMARK INTRA:                   0.000
REMARK UNBOUND:                 0.000
ROOT
REMARK  Name = hydrocortisone probutate
REMARK                            x       y       z     vdW  Elec       q    Type
REMARK                         _______ _______ _______ _____ _____    ______ ____
ATOM      1  C   UNL     1      64.089  65.163  69.344  0.00  0.00    +0.000 C 
ATOM      2  C   UNL     1      63.496  65.362  69.881  0.00  0.00    +0.000 C 
ATOM      3  C   UNL     1      62.800  64.919  69.910  0.00  0.00    +0.000 C 
ATOM      4  C   UNL     1      62.207  65.118  70.448  0.00  0.00    +0.000 C 
ATOM      5  O   UNL     1      62.534  65.772  70.831  0.00  0.00    +0.000 OA
ATOM      6  O   UNL     1      61.511  64.676  70.477  0.00  0.00    +0.000 OA
ATOM      7  C   UNL     1      60.917  64.875  71.015  0.00  0.00    +0.000 C 
ATOM      8  C   UNL     1      60.242  64.939  71.483  0.00  0.00    +0.000 C 
ATOM      9  C   UNL     1      60.344  65.581  71.992  0.00  0.00    +0.000 C 
ATOM     10  C   UNL     1      61.083  65.913  71.837  0.00  0.00    +0.000 C 
ATOM     11  C   UNL     1      61.479  66.556  72.169  0.00  0.00    +0.000 C 
ATOM     12  C   UNL     1      61.125  66.992  72.773  0.00  0.00    +0.000 C 
ATOM     13  C   UNL     1      61.521  67.635  73.104  0.00  0.00    +0.000 C 
ATOM     14  C   UNL     1      62.273  67.842  72.831  0.00  0.00    +0.000 C 
ATOM     15  C   UNL     1      62.669  68.486  73.163  0.00  0.00    +0.000 C 
ATOM     16  C   UNL     1      63.419  68.693  72.891  0.00  0.00    +0.000 C 
ATOM     17  O   UNL     1      63.816  69.336  73.222  0.00  0.00    +0.000 OA
ATOM     18  C   UNL     1      63.774  68.256  72.287  0.00  0.00    +0.000 C 
ATOM     19  C   UNL     1      63.378  67.613  71.956  0.00  0.00    +0.000 C 
ATOM     20  C   UNL     1      62.627  67.406  72.228  0.00  0.00    +0.000 C 
ATOM     21  C   UNL     1      62.981  66.970  71.625  0.00  0.00    +0.000 C 
ATOM     22  C   UNL     1      62.231  66.763  71.897  0.00  0.00    +0.000 C 
ATOM     23  C   UNL     1      62.585  66.326  71.293  0.00  0.00    +0.000 C 
ATOM     24  O   UNL     1      63.336  66.533  71.021  0.00  0.00    +0.000 OA
ATOM     25  C   UNL     1      62.189  65.684  70.962  0.00  0.00    +0.000 C 
ATOM     26  C   UNL     1      61.438  65.476  71.234  0.00  0.00    +0.000 C 
ATOM     27  C   UNL     1      61.721  64.991  70.630  0.00  0.00    +0.000 C 
ATOM     28  C   UNL     1      60.521  64.231  70.683  0.00  0.00    +0.000 C 
ATOM     29  O   UNL     1      59.771  64.025  70.956  0.00  0.00    +0.000 OA
ATOM     30  C   UNL     1      60.876  63.795  70.080  0.00  0.00    +0.000 C 
ATOM     31  O   UNL     1      60.480  63.152  69.748  0.00  0.00    +0.000 OA
ATOM     32  C   UNL     1      60.834  62.716  69.145  0.00  0.00    +0.000 C 
ATOM     33  O   UNL     1      61.585  62.922  68.873  0.00  0.00    +0.000 OA
ATOM     34  C   UNL     1      60.438  62.072  68.813  0.00  0.00    +0.000 C 
ATOM     35  C   UNL     1      60.792  61.636  68.210  0.00  0.00    +0.000 C 
ENDROOT
TORSDOF 0
ENDMDL
MODEL 9
REMARK VINA RESULT:   -13.255     25.219     27.039
REMARK INTER + INTRA:         -13.255
REMARK INTER:                 -13.255
REMARK INTRA:                   0.000
REMARK UNBOUND:                 0.000
ROOT
REMARK  Name = hydrocortisone probutate
REMARK                            x       y       z     vdW  Elec       q    Type
REMARK                         _______ _______ _______ _____ _____    ______ ____
ATOM      1  C   UNL     1      71.825  81.592  53.164  0.00  0.00    +0.000 C 
ATOM      2  C   UNL     1      71.378  81.197  52.595  0.00  0.00    +0.000 C 
ATOM      3  C   UNL     1      70.559  81.142  52.680  0.00  0.00    +0.000 C 
ATOM      4  C   UNL     1      70.111  80.747  52.111  0.00  0.00    +0.000 C 
ATOM      5  O   UNL     1      70.690  80.503  51.575  0.00  0.00    +0.000 OA
ATOM      6  O   UNL     1      69.293  80.691  52.195  0.00  0.00    +0.000 OA
ATOM      7  C   UNL     1      68.844  80.295  51.625  0.00  0.00    +0.000 C 
ATOM      8  C   UNL     1      68.264  79.943  51.158  0.00  0.00    +0.000 C 
ATOM      9  C   UNL     1      68.635  79.603  50.504  0.00  0.00    +0.000 C 
ATOM     10  C   UNL     1      69.445  79.745  50.568  0.00  0.00    +0.000 C 
ATOM     11  C   UNL     1      70.082  79.540  50.085  0.00  0.00    +0.000 C 
ATOM     12  C   UNL     1      69.953  79.112  49.392  0.00  0.00    +0.000 C 
ATOM     13  C   UNL     1      70.588  78.907  48.909  0.00  0.00    +0.000 C 
ATOM     14  C   UNL     1      71.355  79.130  49.120  0.00  0.00    +0.000 C 
ATOM     15  C   UNL     1      71.992  78.925  48.636  0.00  0.00    +0.000 C 
ATOM     16  C   UNL     1      72.758  79.148  48.846  0.00  0.00    +0.000 C 
ATOM     17  O   UNL     1      73.395  78.943  48.363  0.00  0.00    +0.000 OA
ATOM     18  C   UNL     1      72.887  79.577  49.540  0.00  0.00    +0.000 C 
ATOM     19  C   UNL     1      72.250  79.781  50.022  0.00  0.00    +0.000 C 
ATOM     20  C   UNL     1      71.484  79.558  49.812  0.00  0.00    +0.000 C 
ATOM     21  C   UNL     1      71.614  79.986  50.505  0.00  0.00    +0.000 C 
ATOM     22  C   UNL     1      70.849  79.763  50.295  0.00  0.00    +0.000 C 
ATOM     23  C   UNL     1      70.977  80.191  50.989  0.00  0.00    +0.000 C 
ATOM     24  O   UNL     1      71.743  80.415  51.199  0.00  0.00    +0.000 OA
ATOM     25  C   UNL     1      70.341  80.396  51.471  0.00  0.00    +0.000 C 
ATOM     26  C   UNL     1      69.575  80.173  51.261  0.00  0.00    +0.000 C 
ATOM     27  C   UNL     1      69.619  80.598  51.967  0.00  0.00    +0.000 C 
ATOM     28  C   UNL     1      68.208  80.501  52.109  0.00  0.00    +0.000 C 
ATOM     29  O   UNL     1      67.442  80.278  51.899  0.00  0.00    +0.000 OA
ATOM     30  C   UNL     1      68.337  80.929  52.801  0.00  0.00    +0.000 C 
ATOM     31  O   UNL     1      67.701  81.134  53.285  0.00  0.00    +0.000 OA
ATOM     32  C   UNL     1      67.830  81.562  53.978  0.00  0.00    +0.000 C 
ATOM     33  O   UNL     1      68.596  81.785  54.188  0.00  0.00    +0.000 OA
ATOM     34  C   UNL     1      67.194  81.767  54.461  0.00  0.00    +0.000 C 
ATOM     35  C   UNL     1      67.323  82.195  55.154  0.00  0.00    +0.000 C 
ENDROOT
TORSDOF 0
ENDMDL
