MODEL 1
REMARK VINA RESULT:    -7.053      0.000      0.000
REMARK INTER + INTRA:          -7.053
REMARK INTER:                  -7.053
REMARK INTRA:                   0.000
REMARK UNBOUND:                 0.000
ROOT
REMARK  Name = hydroxyamfetamine
REMARK                            x       y       z     vdW  Elec       q    Type
REMARK                         _______ _______ _______ _____ _____    ______ ____
ATOM      1  C   UNL     1      60.142  62.379  67.028  0.00  0.00    +0.000 C 
ATOM      2  C   UNL     1      60.693  62.332  66.416  0.00  0.00    +0.000 C 
ATOM      3  N   UNL     1      61.395  62.765  66.458  0.00  0.00    +0.000 NA
ATOM      4  C   UNL     1      60.544  61.851  65.761  0.00  0.00    +0.000 C 
ATOM      5  C   UNL     1      61.095  61.804  65.150  0.00  0.00    +0.000 A 
ATOM      6  C   UNL     1      60.946  61.324  64.496  0.00  0.00    +0.000 A 
ATOM      7  C   UNL     1      61.497  61.277  63.884  0.00  0.00    +0.000 A 
ATOM      8  C   UNL     1      62.198  61.710  63.927  0.00  0.00    +0.000 A 
ATOM      9  O   UNL     1      62.750  61.663  63.314  0.00  0.00    +0.000 OA
ATOM     10  C   UNL     1      62.348  62.191  64.580  0.00  0.00    +0.000 A 
ATOM     11  C   UNL     1      61.796  62.238  65.192  0.00  0.00    +0.000 A 
ENDROOT
TORSDOF 0
ENDMDL
MODEL 2
REMARK VINA RESULT:    -6.795      1.740      2.781
REMARK INTER + INTRA:          -6.795
REMARK INTER:                  -6.795
REMARK INTRA:                   0.000
REMARK UNBOUND:                 0.000
ROOT
REMARK  Name = hydroxyamfetamine
REMARK                            x       y       z     vdW  Elec       q    Type
REMARK                         _______ _______ _______ _____ _____    ______ ____
ATOM      1  C   UNL     1      62.391  61.650  63.904  0.00  0.00    +0.000 C 
ATOM      2  C   UNL     1      61.995  61.907  64.581  0.00  0.00    +0.000 C 
ATOM      3  N   UNL     1      62.379  62.398  65.123  0.00  0.00    +0.000 NA
ATOM      4  C   UNL     1      61.215  61.673  64.717  0.00  0.00    +0.000 C 
ATOM      5  C   UNL     1      60.820  61.929  65.393  0.00  0.00    +0.000 A 
ATOM      6  C   UNL     1      60.041  61.695  65.529  0.00  0.00    +0.000 A 
ATOM      7  C   UNL     1      59.645  61.951  66.205  0.00  0.00    +0.000 A 
ATOM      8  C   UNL     1      60.028  62.442  66.746  0.00  0.00    +0.000 A 
ATOM      9  O   UNL     1      59.632  62.698  67.424  0.00  0.00    +0.000 OA
ATOM     10  C   UNL     1      60.808  62.676  66.611  0.00  0.00    +0.000 A 
ATOM     11  C   UNL     1      61.203  62.420  65.934  0.00  0.00    +0.000 A 
ENDROOT
TORSDOF 0
ENDMDL
MODEL 3
REMARK VINA RESULT:    -6.035      3.911      5.493
REMARK INTER + INTRA:          -6.035
REMARK INTER:                  -6.035
REMARK INTRA:                   0.000
REMARK UNBOUND:                 0.000
ROOT
REMARK  Name = hydroxyamfetamine
REMARK                            x       y       z     vdW  Elec       q    Type
REMARK                         _______ _______ _______ _____ _____    ______ ____
ATOM      1  C   UNL     1      60.493  62.216  67.480  0.00  0.00    +0.000 C 
ATOM      2  C   UNL     1      60.476  62.475  68.263  0.00  0.00    +0.000 C 
ATOM      3  N   UNL     1      60.478  63.283  68.431  0.00  0.00    +0.000 NA
ATOM      4  C   UNL     1      60.458  61.925  68.879  0.00  0.00    +0.000 C 
ATOM      5  C   UNL     1      60.441  62.184  69.661  0.00  0.00    +0.000 A 
ATOM      6  C   UNL     1      60.422  61.635  70.277  0.00  0.00    +0.000 A 
ATOM      7  C   UNL     1      60.405  61.894  71.060  0.00  0.00    +0.000 A 
ATOM      8  C   UNL     1      60.407  62.701  71.228  0.00  0.00    +0.000 A 
ATOM      9  O   UNL     1      60.390  62.960  72.012  0.00  0.00    +0.000 OA
ATOM     10  C   UNL     1      60.426  63.251  70.613  0.00  0.00    +0.000 A 
ATOM     11  C   UNL     1      60.443  62.992  69.829  0.00  0.00    +0.000 A 
ENDROOT
TORSDOF 0
ENDMDL
MODEL 4
REMARK VINA RESULT:    -6.009      4.909      5.935
REMARK INTER + INTRA:          -6.009
REMARK INTER:                  -6.009
REMARK INTRA:                   0.000
REMARK UNBOUND:                 0.000
ROOT
REMARK  Name = hydroxyamfetamine
REMARK                            x       y       z     vdW  Elec       q    Type
REMARK                         _______ _______ _______ _____ _____    ______ ____
ATOM      1  C   UNL     1      61.608  63.896  72.687  0.00  0.00    +0.000 C 
ATOM      2  C   UNL     1      61.402  63.600  71.945  0.00  0.00    +0.000 C 
ATOM      3  N   UNL     1      61.536  64.053  71.268  0.00  0.00    +0.000 NA
ATOM      4  C   UNL     1      61.064  62.850  71.879  0.00  0.00    +0.000 C 
ATOM      5  C   UNL     1      60.859  62.554  71.138  0.00  0.00    +0.000 A 
ATOM      6  C   UNL     1      60.520  61.804  71.072  0.00  0.00    +0.000 A 
ATOM      7  C   UNL     1      60.315  61.508  70.330  0.00  0.00    +0.000 A 
ATOM      8  C   UNL     1      60.448  61.961  69.654  0.00  0.00    +0.000 A 
ATOM      9  O   UNL     1      60.243  61.664  68.911  0.00  0.00    +0.000 OA
ATOM     10  C   UNL     1      60.787  62.711  69.719  0.00  0.00    +0.000 A 
ATOM     11  C   UNL     1      60.992  63.007  70.461  0.00  0.00    +0.000 A 
ENDROOT
TORSDOF 0
ENDMDL
MODEL 5
REMARK VINA RESULT:    -5.982      7.210      7.910
REMARK INTER + INTRA:          -5.982
REMARK INTER:                  -5.982
REMARK INTRA:                   0.000
REMARK UNBOUND:                 0.000
ROOT
REMARK  Name = hydroxyamfetamine
REMARK                            x       y       z     vdW  Elec       q    Type
REMARK                         _______ _______ _______ _____ _____    ______ ____
ATOM      1  C   UNL     1      66.425  67.917  69.929  0.00  0.00    +0.000 C 
ATOM      2  C   UNL     1      65.920  67.339  70.231  0.00  0.00    +0.000 C 
ATOM      3  N   UNL     1      65.851  67.236  71.047  0.00  0.00    +0.000 NA
ATOM      4  C   UNL     1      65.483  66.863  69.717  0.00  0.00    +0.000 C 
ATOM      5  C   UNL     1      64.979  66.285  70.019  0.00  0.00    +0.000 A 
ATOM      6  C   UNL     1      64.542  65.810  69.506  0.00  0.00    +0.000 A 
ATOM      7  C   UNL     1      64.037  65.232  69.808  0.00  0.00    +0.000 A 
ATOM      8  C   UNL     1      63.968  65.129  70.623  0.00  0.00    +0.000 A 
ATOM      9  O   UNL     1      63.462  64.551  70.925  0.00  0.00    +0.000 OA
ATOM     10  C   UNL     1      64.404  65.605  71.137  0.00  0.00    +0.000 A 
ATOM     11  C   UNL     1      64.910  66.183  70.835  0.00  0.00    +0.000 A 
ENDROOT
TORSDOF 0
ENDMDL
MODEL 6
REMARK VINA RESULT:    -5.882      5.571      6.961
REMARK INTER + INTRA:          -5.882
REMARK INTER:                  -5.882
REMARK INTRA:                   0.000
REMARK UNBOUND:                 0.000
ROOT
REMARK  Name = hydroxyamfetamine
REMARK                            x       y       z     vdW  Elec       q    Type
REMARK                         _______ _______ _______ _____ _____    ______ ____
ATOM      1  C   UNL     1      60.415  61.608  69.918  0.00  0.00    +0.000 C 
ATOM      2  C   UNL     1      60.677  62.257  70.354  0.00  0.00    +0.000 C 
ATOM      3  N   UNL     1      60.760  62.994  69.990  0.00  0.00    +0.000 NA
ATOM      4  C   UNL     1      60.856  62.171  71.156  0.00  0.00    +0.000 C 
ATOM      5  C   UNL     1      61.117  62.819  71.592  0.00  0.00    +0.000 A 
ATOM      6  C   UNL     1      61.296  62.733  72.393  0.00  0.00    +0.000 A 
ATOM      7  C   UNL     1      61.558  63.382  72.829  0.00  0.00    +0.000 A 
ATOM      8  C   UNL     1      61.641  64.117  72.466  0.00  0.00    +0.000 A 
ATOM      9  O   UNL     1      61.903  64.767  72.903  0.00  0.00    +0.000 OA
ATOM     10  C   UNL     1      61.462  64.205  71.665  0.00  0.00    +0.000 A 
ATOM     11  C   UNL     1      61.200  63.556  71.228  0.00  0.00    +0.000 A 
ENDROOT
TORSDOF 0
ENDMDL
MODEL 7
REMARK VINA RESULT:    -5.830      6.563      7.377
REMARK INTER + INTRA:          -5.830
REMARK INTER:                  -5.830
REMARK INTRA:                   0.000
REMARK UNBOUND:                 0.000
ROOT
REMARK  Name = hydroxyamfetamine
REMARK                            x       y       z     vdW  Elec       q    Type
REMARK                         _______ _______ _______ _____ _____    ______ ____
ATOM      1  C   UNL     1      59.379  65.523  72.629  0.00  0.00    +0.000 C 
ATOM      2  C   UNL     1      59.678  64.821  72.315  0.00  0.00    +0.000 C 
ATOM      3  N   UNL     1      59.322  64.481  71.652  0.00  0.00    +0.000 NA
ATOM      4  C   UNL     1      60.334  64.460  72.662  0.00  0.00    +0.000 C 
ATOM      5  C   UNL     1      60.633  63.759  72.348  0.00  0.00    +0.000 A 
ATOM      6  C   UNL     1      61.289  63.398  72.695  0.00  0.00    +0.000 A 
ATOM      7  C   UNL     1      61.588  62.696  72.381  0.00  0.00    +0.000 A 
ATOM      8  C   UNL     1      61.232  62.356  71.719  0.00  0.00    +0.000 A 
ATOM      9  O   UNL     1      61.532  61.654  71.404  0.00  0.00    +0.000 OA
ATOM     10  C   UNL     1      60.577  62.717  71.371  0.00  0.00    +0.000 A 
ATOM     11  C   UNL     1      60.277  63.418  71.686  0.00  0.00    +0.000 A 
ENDROOT
TORSDOF 0
ENDMDL
MODEL 8
REMARK VINA RESULT:    -5.770      7.465      8.129
REMARK INTER + INTRA:          -5.770
REMARK INTER:                  -5.770
REMARK INTRA:                   0.000
REMARK UNBOUND:                 0.000
ROOT
REMARK  Name = hydroxyamfetamine
REMARK                            x       y       z     vdW  Elec       q    Type
REMARK                         _______ _______ _______ _____ _____    ______ ____
ATOM      1  C   UNL     1      62.918  65.476  69.969  0.00  0.00    +0.000 C 
ATOM      2  C   UNL     1      63.617  65.733  70.325  0.00  0.00    +0.000 C 
ATOM      3  N   UNL     1      63.793  65.508  71.099  0.00  0.00    +0.000 NA
ATOM      4  C   UNL     1      64.139  66.217  69.907  0.00  0.00    +0.000 C 
ATOM      5  C   UNL     1      64.837  66.474  70.263  0.00  0.00    +0.000 A 
ATOM      6  C   UNL     1      65.359  66.957  69.846  0.00  0.00    +0.000 A 
ATOM      7  C   UNL     1      66.057  67.215  70.203  0.00  0.00    +0.000 A 
ATOM      8  C   UNL     1      66.233  66.989  70.976  0.00  0.00    +0.000 A 
ATOM      9  O   UNL     1      66.932  67.247  71.332  0.00  0.00    +0.000 OA
ATOM     10  C   UNL     1      65.711  66.506  71.394  0.00  0.00    +0.000 A 
ATOM     11  C   UNL     1      65.013  66.248  71.038  0.00  0.00    +0.000 A 
ENDROOT
TORSDOF 0
ENDMDL
MODEL 9
REMARK VINA RESULT:    -5.674     24.534     25.398
REMARK INTER + INTRA:          -5.674
REMARK INTER:                  -5.674
REMARK INTRA:                   0.000
REMARK UNBOUND:                 0.000
ROOT
REMARK  Name = hydroxyamfetamine
REMARK                            x       y       z     vdW  Elec       q    Type
REMARK                         _______ _______ _______ _____ _____    ______ ____
ATOM      1  C   UNL     1      72.887  79.076  48.099  0.00  0.00    +0.000 C 
ATOM      2  C   UNL     1      72.304  79.301  48.637  0.00  0.00    +0.000 C 
ATOM      3  N   UNL     1      72.380  80.008  49.056  0.00  0.00    +0.000 NA
ATOM      4  C   UNL     1      71.645  78.818  48.758  0.00  0.00    +0.000 C 
ATOM      5  C   UNL     1      71.062  79.043  49.296  0.00  0.00    +0.000 A 
ATOM      6  C   UNL     1      70.404  78.562  49.417  0.00  0.00    +0.000 A 
ATOM      7  C   UNL     1      69.821  78.787  49.956  0.00  0.00    +0.000 A 
ATOM      8  C   UNL     1      69.897  79.493  50.374  0.00  0.00    +0.000 A 
ATOM      9  O   UNL     1      69.313  79.718  50.914  0.00  0.00    +0.000 OA
ATOM     10  C   UNL     1      70.555  79.976  50.254  0.00  0.00    +0.000 A 
ATOM     11  C   UNL     1      71.138  79.751  49.715  0.00  0.00    +0.000 A 
ENDROOT
TORSDOF 0
ENDMDL
