MODEL 1
REMARK VINA RESULT:    -5.381      0.000      0.000
REMARK INTER + INTRA:          -5.381
REMARK INTER:                  -5.381
REMARK INTRA:                   0.000
REMARK UNBOUND:                 0.000
ROOT
REMARK  Name = hydroquinone
REMARK                            x       y       z     vdW  Elec       q    Type
REMARK                         _______ _______ _______ _____ _____    ______ ____
ATOM      1  O   UNL     1      60.829  62.019  66.333  0.00  0.00    +0.000 OA
ATOM      2  C   UNL     1      61.233  61.923  65.621  0.00  0.00    +0.000 A 
ATOM      3  C   UNL     1      60.897  61.478  65.012  0.00  0.00    +0.000 A 
ATOM      4  C   UNL     1      61.301  61.382  64.300  0.00  0.00    +0.000 A 
ATOM      5  C   UNL     1      62.041  61.730  64.195  0.00  0.00    +0.000 A 
ATOM      6  O   UNL     1      62.446  61.634  63.481  0.00  0.00    +0.000 OA
ATOM      7  C   UNL     1      62.378  62.175  64.803  0.00  0.00    +0.000 A 
ATOM      8  C   UNL     1      61.974  62.271  65.516  0.00  0.00    +0.000 A 
ENDROOT
TORSDOF 0
ENDMDL
MODEL 2
REMARK VINA RESULT:    -5.370      0.746      1.795
REMARK INTER + INTRA:          -5.370
REMARK INTER:                  -5.370
REMARK INTRA:                   0.000
REMARK UNBOUND:                 0.000
ROOT
REMARK  Name = hydroquinone
REMARK                            x       y       z     vdW  Elec       q    Type
REMARK                         _______ _______ _______ _____ _____    ______ ____
ATOM      1  O   UNL     1      61.021  60.972  63.534  0.00  0.00    +0.000 OA
ATOM      2  C   UNL     1      61.279  61.375  64.205  0.00  0.00    +0.000 A 
ATOM      3  C   UNL     1      60.808  61.396  64.881  0.00  0.00    +0.000 A 
ATOM      4  C   UNL     1      61.066  61.800  65.553  0.00  0.00    +0.000 A 
ATOM      5  C   UNL     1      61.795  62.184  65.547  0.00  0.00    +0.000 A 
ATOM      6  O   UNL     1      62.054  62.589  66.219  0.00  0.00    +0.000 OA
ATOM      7  C   UNL     1      62.268  62.164  64.871  0.00  0.00    +0.000 A 
ATOM      8  C   UNL     1      62.009  61.760  64.199  0.00  0.00    +0.000 A 
ENDROOT
TORSDOF 0
ENDMDL
MODEL 3
REMARK VINA RESULT:    -4.636      7.947      8.735
REMARK INTER + INTRA:          -4.636
REMARK INTER:                  -4.636
REMARK INTRA:                   0.000
REMARK UNBOUND:                 0.000
ROOT
REMARK  Name = hydroquinone
REMARK                            x       y       z     vdW  Elec       q    Type
REMARK                         _______ _______ _______ _____ _____    ______ ____
ATOM      1  O   UNL     1      66.491  67.938  69.772  0.00  0.00    +0.000 OA
ATOM      2  C   UNL     1      66.028  67.397  70.187  0.00  0.00    +0.000 A 
ATOM      3  C   UNL     1      65.478  66.931  69.786  0.00  0.00    +0.000 A 
ATOM      4  C   UNL     1      65.015  66.389  70.201  0.00  0.00    +0.000 A 
ATOM      5  C   UNL     1      65.101  66.313  71.017  0.00  0.00    +0.000 A 
ATOM      6  O   UNL     1      64.637  65.771  71.433  0.00  0.00    +0.000 OA
ATOM      7  C   UNL     1      65.651  66.779  71.420  0.00  0.00    +0.000 A 
ATOM      8  C   UNL     1      66.114  67.320  71.005  0.00  0.00    +0.000 A 
ENDROOT
TORSDOF 0
ENDMDL
MODEL 4
REMARK VINA RESULT:    -4.596     16.221     16.939
REMARK INTER + INTRA:          -4.596
REMARK INTER:                  -4.596
REMARK INTRA:                   0.000
REMARK UNBOUND:                 0.000
ROOT
REMARK  Name = hydroquinone
REMARK                            x       y       z     vdW  Elec       q    Type
REMARK                         _______ _______ _______ _____ _____    ______ ____
ATOM      1  O   UNL     1      59.703  77.483  72.994  0.00  0.00    +0.000 OA
ATOM      2  C   UNL     1      59.086  76.954  72.861  0.00  0.00    +0.000 A 
ATOM      3  C   UNL     1      58.307  77.180  73.014  0.00  0.00    +0.000 A 
ATOM      4  C   UNL     1      57.689  76.650  72.880  0.00  0.00    +0.000 A 
ATOM      5  C   UNL     1      57.850  75.894  72.593  0.00  0.00    +0.000 A 
ATOM      6  O   UNL     1      57.231  75.363  72.460  0.00  0.00    +0.000 OA
ATOM      7  C   UNL     1      58.628  75.666  72.440  0.00  0.00    +0.000 A 
ATOM      8  C   UNL     1      59.246  76.196  72.574  0.00  0.00    +0.000 A 
ENDROOT
TORSDOF 0
ENDMDL
MODEL 5
REMARK VINA RESULT:    -4.588      7.814      8.528
REMARK INTER + INTRA:          -4.588
REMARK INTER:                  -4.588
REMARK INTRA:                   0.000
REMARK UNBOUND:                 0.000
ROOT
REMARK  Name = hydroquinone
REMARK                            x       y       z     vdW  Elec       q    Type
REMARK                         _______ _______ _______ _____ _____    ______ ____
ATOM      1  O   UNL     1      64.422  65.720  71.366  0.00  0.00    +0.000 OA
ATOM      2  C   UNL     1      64.908  66.260  70.977  0.00  0.00    +0.000 A 
ATOM      3  C   UNL     1      65.429  66.732  71.408  0.00  0.00    +0.000 A 
ATOM      4  C   UNL     1      65.916  67.273  71.019  0.00  0.00    +0.000 A 
ATOM      5  C   UNL     1      65.881  67.341  70.198  0.00  0.00    +0.000 A 
ATOM      6  O   UNL     1      66.368  67.883  69.808  0.00  0.00    +0.000 OA
ATOM      7  C   UNL     1      65.360  66.870  69.765  0.00  0.00    +0.000 A 
ATOM      8  C   UNL     1      64.873  66.329  70.155  0.00  0.00    +0.000 A 
ENDROOT
TORSDOF 0
ENDMDL
MODEL 6
REMARK VINA RESULT:    -4.493      6.167      7.014
REMARK INTER + INTRA:          -4.493
REMARK INTER:                  -4.493
REMARK INTRA:                   0.000
REMARK UNBOUND:                 0.000
ROOT
REMARK  Name = hydroquinone
REMARK                            x       y       z     vdW  Elec       q    Type
REMARK                         _______ _______ _______ _____ _____    ______ ____
ATOM      1  O   UNL     1      60.174  61.646  70.392  0.00  0.00    +0.000 OA
ATOM      2  C   UNL     1      60.553  62.051  71.002  0.00  0.00    +0.000 A 
ATOM      3  C   UNL     1      61.280  61.783  71.285  0.00  0.00    +0.000 A 
ATOM      4  C   UNL     1      61.660  62.189  71.895  0.00  0.00    +0.000 A 
ATOM      5  C   UNL     1      61.313  62.862  72.221  0.00  0.00    +0.000 A 
ATOM      6  O   UNL     1      61.694  63.267  72.832  0.00  0.00    +0.000 OA
ATOM      7  C   UNL     1      60.586  63.130  71.939  0.00  0.00    +0.000 A 
ATOM      8  C   UNL     1      60.206  62.725  71.329  0.00  0.00    +0.000 A 
ENDROOT
TORSDOF 0
ENDMDL
MODEL 7
REMARK VINA RESULT:    -4.455     24.543     25.281
REMARK INTER + INTRA:          -4.455
REMARK INTER:                  -4.455
REMARK INTRA:                   0.000
REMARK UNBOUND:                 0.000
ROOT
REMARK  Name = hydroquinone
REMARK                            x       y       z     vdW  Elec       q    Type
REMARK                         _______ _______ _______ _____ _____    ______ ____
ATOM      1  O   UNL     1      72.601  79.163  48.240  0.00  0.00    +0.000 OA
ATOM      2  C   UNL     1      71.913  79.079  48.686  0.00  0.00    +0.000 A 
ATOM      3  C   UNL     1      71.380  78.474  48.513  0.00  0.00    +0.000 A 
ATOM      4  C   UNL     1      70.691  78.391  48.960  0.00  0.00    +0.000 A 
ATOM      5  C   UNL     1      70.536  78.912  49.579  0.00  0.00    +0.000 A 
ATOM      6  O   UNL     1      69.847  78.828  50.026  0.00  0.00    +0.000 OA
ATOM      7  C   UNL     1      71.069  79.518  49.753  0.00  0.00    +0.000 A 
ATOM      8  C   UNL     1      71.757  79.602  49.306  0.00  0.00    +0.000 A 
ENDROOT
TORSDOF 0
ENDMDL
MODEL 8
REMARK VINA RESULT:    -4.436     24.586     25.276
REMARK INTER + INTRA:          -4.436
REMARK INTER:                  -4.436
REMARK INTRA:                   0.000
REMARK UNBOUND:                 0.000
ROOT
REMARK  Name = hydroquinone
REMARK                            x       y       z     vdW  Elec       q    Type
REMARK                         _______ _______ _______ _____ _____    ______ ____
ATOM      1  O   UNL     1      69.884  78.764  49.993  0.00  0.00    +0.000 OA
ATOM      2  C   UNL     1      70.552  78.876  49.523  0.00  0.00    +0.000 A 
ATOM      3  C   UNL     1      71.080  79.486  49.694  0.00  0.00    +0.000 A 
ATOM      4  C   UNL     1      71.748  79.597  49.224  0.00  0.00    +0.000 A 
ATOM      5  C   UNL     1      71.889  79.099  48.583  0.00  0.00    +0.000 A 
ATOM      6  O   UNL     1      72.558  79.211  48.112  0.00  0.00    +0.000 OA
ATOM      7  C   UNL     1      71.361  78.488  48.410  0.00  0.00    +0.000 A 
ATOM      8  C   UNL     1      70.692  78.377  48.880  0.00  0.00    +0.000 A 
ENDROOT
TORSDOF 0
ENDMDL
MODEL 9
REMARK VINA RESULT:    -4.399      6.487      7.076
REMARK INTER + INTRA:          -4.399
REMARK INTER:                  -4.399
REMARK INTRA:                   0.000
REMARK UNBOUND:                 0.000
ROOT
REMARK  Name = hydroquinone
REMARK                            x       y       z     vdW  Elec       q    Type
REMARK                         _______ _______ _______ _____ _____    ______ ____
ATOM      1  O   UNL     1      59.966  64.038  72.197  0.00  0.00    +0.000 OA
ATOM      2  C   UNL     1      60.423  63.379  72.009  0.00  0.00    +0.000 A 
ATOM      3  C   UNL     1      60.234  62.919  71.351  0.00  0.00    +0.000 A 
ATOM      4  C   UNL     1      60.693  62.259  71.163  0.00  0.00    +0.000 A 
ATOM      5  C   UNL     1      61.340  62.060  71.632  0.00  0.00    +0.000 A 
ATOM      6  O   UNL     1      61.799  61.400  71.444  0.00  0.00    +0.000 OA
ATOM      7  C   UNL     1      61.531  62.520  72.291  0.00  0.00    +0.000 A 
ATOM      8  C   UNL     1      61.072  63.179  72.479  0.00  0.00    +0.000 A 
ENDROOT
TORSDOF 0
ENDMDL
