MODEL 1
REMARK VINA RESULT:   -13.393      0.000      0.000
REMARK INTER + INTRA:         -13.393
REMARK INTER:                 -13.393
REMARK INTRA:                   0.000
REMARK UNBOUND:                 0.000
ROOT
REMARK  Name = hygromycin b
REMARK                            x       y       z     vdW  Elec       q    Type
REMARK                         _______ _______ _______ _____ _____    ______ ____
ATOM      1  C   UNL     1      62.128  63.897  68.743  0.00  0.00    +0.000 C 
ATOM      2  O   UNL     1      61.975  63.513  68.029  0.00  0.00    +0.000 OA
ATOM      3  C   UNL     1      61.181  63.284  68.028  0.00  0.00    +0.000 C 
ATOM      4  O   UNL     1      60.846  63.526  68.742  0.00  0.00    +0.000 OA
ATOM      5  C   UNL     1      61.431  63.905  69.184  0.00  0.00    +0.000 C 
ATOM      6  C   UNL     1      61.419  64.256  69.929  0.00  0.00    +0.000 C 
ATOM      7  O   UNL     1      60.720  64.265  70.370  0.00  0.00    +0.000 OA
ATOM      8  C   UNL     1      60.709  64.616  71.117  0.00  0.00    +0.000 C 
ATOM      9  C   UNL     1      60.011  64.624  71.557  0.00  0.00    +0.000 C 
ATOM     10  O   UNL     1      59.325  64.281  71.251  0.00  0.00    +0.000 OA
ATOM     11  C   UNL     1      59.998  64.976  72.305  0.00  0.00    +0.000 C 
ATOM     12  N   UNL     1      59.302  64.984  72.744  0.00  0.00    +0.000 NA
ATOM     13  C   UNL     1      60.684  65.319  72.610  0.00  0.00    +0.000 C 
ATOM     14  C   UNL     1      61.381  65.310  72.169  0.00  0.00    +0.000 C 
ATOM     15  N   UNL     1      62.066  65.653  72.475  0.00  0.00    +0.000 NA
ATOM     16  C   UNL     1      62.054  66.005  73.222  0.00  0.00    +0.000 C 
ATOM     17  C   UNL     1      61.394  64.959  71.424  0.00  0.00    +0.000 C 
ATOM     18  O   UNL     1      62.092  64.951  70.983  0.00  0.00    +0.000 OA
ATOM     19  O   UNL     1      62.104  64.600  70.236  0.00  0.00    +0.000 OA
ATOM     20  C   UNL     1      62.801  64.591  69.796  0.00  0.00    +0.000 C 
ATOM     21  C   UNL     1      63.487  64.935  70.102  0.00  0.00    +0.000 C 
ATOM     22  O   UNL     1      64.184  64.926  69.662  0.00  0.00    +0.000 OA
ATOM     23  C   UNL     1      62.814  64.240  69.049  0.00  0.00    +0.000 C 
ATOM     24  O   UNL     1      63.510  64.232  68.609  0.00  0.00    +0.000 OA
ATOM     25  O   UNL     1      61.592  63.077  67.343  0.00  0.00    +0.000 OA
ATOM     26  C   UNL     1      61.204  62.676  66.736  0.00  0.00    +0.000 C 
ATOM     27  CA  UNL     1      61.613  62.469  66.051  0.00  0.00    +0.000 C 
ATOM     28  N   UNL     1      62.412  62.662  65.973  0.00  0.00    +0.000 NA
ATOM     29  C   UNL     1      61.225  62.068  65.444  0.00  0.00    +0.000 C 
ATOM     30  O   UNL     1      61.635  61.860  64.758  0.00  0.00    +0.000 OA
ATOM     31  C   UNL     1      60.405  62.483  66.814  0.00  0.00    +0.000 C 
ATOM     32  O   UNL     1      60.017  62.082  66.207  0.00  0.00    +0.000 OA
ATOM     33  C   UNL     1      59.995  62.690  67.499  0.00  0.00    +0.000 C 
ATOM     34  O   UNL     1      59.198  62.497  67.577  0.00  0.00    +0.000 OA
ATOM     35  C   UNL     1      60.384  63.091  68.106  0.00  0.00    +0.000 C 
ATOM     36  O   UNL     1      59.974  63.298  68.791  0.00  0.00    +0.000 OA
ENDROOT
TORSDOF 0
ENDMDL
MODEL 2
REMARK VINA RESULT:   -12.774      1.240      2.737
REMARK INTER + INTRA:         -12.774
REMARK INTER:                 -12.774
REMARK INTRA:                   0.000
REMARK UNBOUND:                 0.000
ROOT
REMARK  Name = hygromycin b
REMARK                            x       y       z     vdW  Elec       q    Type
REMARK                         _______ _______ _______ _____ _____    ______ ____
ATOM      1  C   UNL     1      60.624  64.005  69.168  0.00  0.00    +0.000 C 
ATOM      2  O   UNL     1      60.370  63.575  68.511  0.00  0.00    +0.000 OA
ATOM      3  C   UNL     1      61.028  63.426  68.034  0.00  0.00    +0.000 C 
ATOM      4  O   UNL     1      61.687  63.764  68.396  0.00  0.00    +0.000 OA
ATOM      5  C   UNL     1      61.438  64.122  69.097  0.00  0.00    +0.000 C 
ATOM      6  C   UNL     1      61.846  64.539  69.679  0.00  0.00    +0.000 C 
ATOM      7  O   UNL     1      62.661  64.656  69.608  0.00  0.00    +0.000 OA
ATOM      8  C   UNL     1      63.070  65.073  70.191  0.00  0.00    +0.000 C 
ATOM      9  C   UNL     1      63.883  65.190  70.120  0.00  0.00    +0.000 C 
ATOM     10  O   UNL     1      64.288  64.889  69.466  0.00  0.00    +0.000 OA
ATOM     11  C   UNL     1      64.293  65.608  70.703  0.00  0.00    +0.000 C 
ATOM     12  N   UNL     1      65.106  65.724  70.632  0.00  0.00    +0.000 NA
ATOM     13  C   UNL     1      63.888  65.908  71.355  0.00  0.00    +0.000 C 
ATOM     14  C   UNL     1      63.074  65.791  71.426  0.00  0.00    +0.000 C 
ATOM     15  N   UNL     1      62.670  66.092  72.079  0.00  0.00    +0.000 NA
ATOM     16  C   UNL     1      63.079  66.509  72.662  0.00  0.00    +0.000 C 
ATOM     17  C   UNL     1      62.666  65.374  70.844  0.00  0.00    +0.000 C 
ATOM     18  O   UNL     1      61.851  65.257  70.915  0.00  0.00    +0.000 OA
ATOM     19  O   UNL     1      61.442  64.840  70.332  0.00  0.00    +0.000 OA
ATOM     20  C   UNL     1      60.629  64.723  70.403  0.00  0.00    +0.000 C 
ATOM     21  C   UNL     1      60.224  65.024  71.057  0.00  0.00    +0.000 C 
ATOM     22  O   UNL     1      59.411  64.907  71.127  0.00  0.00    +0.000 OA
ATOM     23  C   UNL     1      60.219  64.306  69.820  0.00  0.00    +0.000 C 
ATOM     24  O   UNL     1      59.407  64.189  69.891  0.00  0.00    +0.000 OA
ATOM     25  O   UNL     1      60.321  63.118  67.739  0.00  0.00    +0.000 OA
ATOM     26  C   UNL     1      60.319  62.703  67.026  0.00  0.00    +0.000 C 
ATOM     27  CA  UNL     1      59.613  62.395  66.731  0.00  0.00    +0.000 C 
ATOM     28  N   UNL     1      58.909  62.501  67.148  0.00  0.00    +0.000 NA
ATOM     29  C   UNL     1      59.610  61.981  66.017  0.00  0.00    +0.000 C 
ATOM     30  O   UNL     1      58.904  61.672  65.722  0.00  0.00    +0.000 OA
ATOM     31  C   UNL     1      61.022  62.597  66.608  0.00  0.00    +0.000 C 
ATOM     32  O   UNL     1      61.020  62.183  65.895  0.00  0.00    +0.000 OA
ATOM     33  C   UNL     1      61.728  62.905  66.903  0.00  0.00    +0.000 C 
ATOM     34  O   UNL     1      62.431  62.799  66.486  0.00  0.00    +0.000 OA
ATOM     35  C   UNL     1      61.730  63.320  67.616  0.00  0.00    +0.000 C 
ATOM     36  O   UNL     1      62.436  63.628  67.911  0.00  0.00    +0.000 OA
ENDROOT
TORSDOF 0
ENDMDL
MODEL 3
REMARK VINA RESULT:   -12.519      1.865      2.166
REMARK INTER + INTRA:         -12.519
REMARK INTER:                 -12.519
REMARK INTRA:                   0.000
REMARK UNBOUND:                 0.000
ROOT
REMARK  Name = hygromycin b
REMARK                            x       y       z     vdW  Elec       q    Type
REMARK                         _______ _______ _______ _____ _____    ______ ____
ATOM      1  C   UNL     1      60.563  65.040  68.791  0.00  0.00    +0.000 C 
ATOM      2  O   UNL     1      60.807  64.428  68.294  0.00  0.00    +0.000 OA
ATOM      3  C   UNL     1      60.595  63.713  68.648  0.00  0.00    +0.000 C 
ATOM      4  O   UNL     1      60.220  63.883  69.363  0.00  0.00    +0.000 OA
ATOM      5  C   UNL     1      60.201  64.704  69.451  0.00  0.00    +0.000 C 
ATOM      6  C   UNL     1      59.900  65.187  70.047  0.00  0.00    +0.000 C 
ATOM      7  O   UNL     1      59.537  64.851  70.709  0.00  0.00    +0.000 OA
ATOM      8  C   UNL     1      59.237  65.335  71.305  0.00  0.00    +0.000 C 
ATOM      9  C   UNL     1      58.874  64.999  71.966  0.00  0.00    +0.000 C 
ATOM     10  O   UNL     1      58.813  64.178  72.030  0.00  0.00    +0.000 OA
ATOM     11  C   UNL     1      58.573  65.483  72.563  0.00  0.00    +0.000 C 
ATOM     12  N   UNL     1      58.211  65.147  73.222  0.00  0.00    +0.000 NA
ATOM     13  C   UNL     1      58.635  66.303  72.498  0.00  0.00    +0.000 C 
ATOM     14  C   UNL     1      58.997  66.639  71.838  0.00  0.00    +0.000 C 
ATOM     15  N   UNL     1      59.058  67.459  71.774  0.00  0.00    +0.000 NA
ATOM     16  C   UNL     1      58.758  67.943  72.371  0.00  0.00    +0.000 C 
ATOM     17  C   UNL     1      59.298  66.156  71.242  0.00  0.00    +0.000 C 
ATOM     18  O   UNL     1      59.660  66.492  70.581  0.00  0.00    +0.000 OA
ATOM     19  O   UNL     1      59.961  66.008  69.984  0.00  0.00    +0.000 OA
ATOM     20  C   UNL     1      60.324  66.344  69.324  0.00  0.00    +0.000 C 
ATOM     21  C   UNL     1      60.385  67.165  69.260  0.00  0.00    +0.000 C 
ATOM     22  O   UNL     1      60.747  67.501  68.600  0.00  0.00    +0.000 OA
ATOM     23  C   UNL     1      60.625  65.860  68.727  0.00  0.00    +0.000 C 
ATOM     24  O   UNL     1      60.987  66.196  68.067  0.00  0.00    +0.000 OA
ATOM     25  O   UNL     1      60.978  63.628  67.922  0.00  0.00    +0.000 OA
ATOM     26  C   UNL     1      61.116  62.875  67.615  0.00  0.00    +0.000 C 
ATOM     27  CA  UNL     1      61.499  62.790  66.889  0.00  0.00    +0.000 C 
ATOM     28  N   UNL     1      61.744  63.458  66.471  0.00  0.00    +0.000 NA
ATOM     29  C   UNL     1      61.637  62.037  66.582  0.00  0.00    +0.000 C 
ATOM     30  O   UNL     1      62.020  61.952  65.855  0.00  0.00    +0.000 OA
ATOM     31  C   UNL     1      60.871  62.208  68.033  0.00  0.00    +0.000 C 
ATOM     32  O   UNL     1      61.009  61.455  67.726  0.00  0.00    +0.000 OA
ATOM     33  C   UNL     1      60.488  62.293  68.759  0.00  0.00    +0.000 C 
ATOM     34  O   UNL     1      60.244  61.625  69.177  0.00  0.00    +0.000 OA
ATOM     35  C   UNL     1      60.350  63.045  69.066  0.00  0.00    +0.000 C 
ATOM     36  O   UNL     1      59.967  63.130  69.791  0.00  0.00    +0.000 OA
ENDROOT
TORSDOF 0
ENDMDL
MODEL 4
REMARK VINA RESULT:   -12.364      3.711      5.373
REMARK INTER + INTRA:         -12.364
REMARK INTER:                 -12.364
REMARK INTRA:                   0.000
REMARK UNBOUND:                 0.000
ROOT
REMARK  Name = hygromycin b
REMARK                            x       y       z     vdW  Elec       q    Type
REMARK                         _______ _______ _______ _____ _____    ______ ____
ATOM      1  C   UNL     1      61.982  65.317  72.058  0.00  0.00    +0.000 C 
ATOM      2  O   UNL     1      62.740  65.633  71.974  0.00  0.00    +0.000 OA
ATOM      3  C   UNL     1      62.695  66.444  72.123  0.00  0.00    +0.000 C 
ATOM      4  O   UNL     1      61.911  66.628  72.299  0.00  0.00    +0.000 OA
ATOM      5  C   UNL     1      61.470  65.932  72.259  0.00  0.00    +0.000 C 
ATOM      6  C   UNL     1      60.669  65.778  72.379  0.00  0.00    +0.000 C 
ATOM      7  O   UNL     1      60.156  66.394  72.580  0.00  0.00    +0.000 OA
ATOM      8  C   UNL     1      59.355  66.240  72.701  0.00  0.00    +0.000 C 
ATOM      9  C   UNL     1      58.843  66.855  72.901  0.00  0.00    +0.000 C 
ATOM     10  O   UNL     1      59.132  67.624  72.982  0.00  0.00    +0.000 OA
ATOM     11  C   UNL     1      58.040  66.701  73.022  0.00  0.00    +0.000 C 
ATOM     12  N   UNL     1      57.529  67.316  73.222  0.00  0.00    +0.000 NA
ATOM     13  C   UNL     1      57.751  65.933  72.942  0.00  0.00    +0.000 C 
ATOM     14  C   UNL     1      58.264  65.318  72.741  0.00  0.00    +0.000 C 
ATOM     15  N   UNL     1      57.974  64.550  72.661  0.00  0.00    +0.000 NA
ATOM     16  C   UNL     1      57.172  64.396  72.781  0.00  0.00    +0.000 C 
ATOM     17  C   UNL     1      59.064  65.472  72.621  0.00  0.00    +0.000 C 
ATOM     18  O   UNL     1      59.577  64.856  72.420  0.00  0.00    +0.000 OA
ATOM     19  O   UNL     1      60.379  65.010  72.299  0.00  0.00    +0.000 OA
ATOM     20  C   UNL     1      60.891  64.395  72.098  0.00  0.00    +0.000 C 
ATOM     21  C   UNL     1      60.601  63.626  72.018  0.00  0.00    +0.000 C 
ATOM     22  O   UNL     1      61.113  63.012  71.818  0.00  0.00    +0.000 OA
ATOM     23  C   UNL     1      61.693  64.549  71.978  0.00  0.00    +0.000 C 
ATOM     24  O   UNL     1      62.205  63.934  71.777  0.00  0.00    +0.000 OA
ATOM     25  O   UNL     1      63.454  66.177  71.937  0.00  0.00    +0.000 OA
ATOM     26  C   UNL     1      64.084  66.709  71.914  0.00  0.00    +0.000 C 
ATOM     27  CA  UNL     1      64.842  66.443  71.729  0.00  0.00    +0.000 C 
ATOM     28  N   UNL     1      64.971  65.644  71.566  0.00  0.00    +0.000 NA
ATOM     29  C   UNL     1      65.472  66.975  71.705  0.00  0.00    +0.000 C 
ATOM     30  O   UNL     1      66.231  66.708  71.520  0.00  0.00    +0.000 OA
ATOM     31  C   UNL     1      63.955  67.508  72.076  0.00  0.00    +0.000 C 
ATOM     32  O   UNL     1      64.585  68.040  72.053  0.00  0.00    +0.000 OA
ATOM     33  C   UNL     1      63.197  67.774  72.261  0.00  0.00    +0.000 C 
ATOM     34  O   UNL     1      63.068  68.572  72.424  0.00  0.00    +0.000 OA
ATOM     35  C   UNL     1      62.567  67.242  72.285  0.00  0.00    +0.000 C 
ATOM     36  O   UNL     1      61.809  67.508  72.470  0.00  0.00    +0.000 OA
ENDROOT
TORSDOF 0
ENDMDL
MODEL 5
REMARK VINA RESULT:   -12.236      1.442      5.338
REMARK INTER + INTRA:         -12.236
REMARK INTER:                 -12.236
REMARK INTRA:                   0.000
REMARK UNBOUND:                 0.000
ROOT
REMARK  Name = hygromycin b
REMARK                            x       y       z     vdW  Elec       q    Type
REMARK                         _______ _______ _______ _____ _____    ______ ____
ATOM      1  C   UNL     1      61.801  64.633  70.022  0.00  0.00    +0.000 C 
ATOM      2  O   UNL     1      62.406  65.029  70.420  0.00  0.00    +0.000 OA
ATOM      3  C   UNL     1      63.084  64.996  69.949  0.00  0.00    +0.000 C 
ATOM      4  O   UNL     1      62.898  64.580  69.263  0.00  0.00    +0.000 OA
ATOM      5  C   UNL     1      62.105  64.355  69.307  0.00  0.00    +0.000 C 
ATOM      6  C   UNL     1      61.620  63.934  68.790  0.00  0.00    +0.000 C 
ATOM      7  O   UNL     1      61.924  63.655  68.074  0.00  0.00    +0.000 OA
ATOM      8  C   UNL     1      61.439  63.234  67.557  0.00  0.00    +0.000 C 
ATOM      9  C   UNL     1      61.743  62.956  66.842  0.00  0.00    +0.000 C 
ATOM     10  O   UNL     1      62.531  63.100  66.644  0.00  0.00    +0.000 OA
ATOM     11  C   UNL     1      61.258  62.534  66.323  0.00  0.00    +0.000 C 
ATOM     12  N   UNL     1      61.561  62.256  65.609  0.00  0.00    +0.000 NA
ATOM     13  C   UNL     1      60.470  62.390  66.521  0.00  0.00    +0.000 C 
ATOM     14  C   UNL     1      60.167  62.668  67.236  0.00  0.00    +0.000 C 
ATOM     15  N   UNL     1      59.379  62.525  67.433  0.00  0.00    +0.000 NA
ATOM     16  C   UNL     1      58.894  62.103  66.916  0.00  0.00    +0.000 C 
ATOM     17  C   UNL     1      60.651  63.090  67.754  0.00  0.00    +0.000 C 
ATOM     18  O   UNL     1      60.347  63.368  68.469  0.00  0.00    +0.000 OA
ATOM     19  O   UNL     1      60.832  63.789  68.987  0.00  0.00    +0.000 OA
ATOM     20  C   UNL     1      60.529  64.067  69.702  0.00  0.00    +0.000 C 
ATOM     21  C   UNL     1      59.740  63.923  69.900  0.00  0.00    +0.000 C 
ATOM     22  O   UNL     1      59.437  64.201  70.614  0.00  0.00    +0.000 OA
ATOM     23  C   UNL     1      61.013  64.489  70.220  0.00  0.00    +0.000 C 
ATOM     24  O   UNL     1      60.710  64.767  70.934  0.00  0.00    +0.000 OA
ATOM     25  O   UNL     1      63.188  65.400  70.662  0.00  0.00    +0.000 OA
ATOM     26  C   UNL     1      63.923  65.726  70.847  0.00  0.00    +0.000 C 
ATOM     27  CA  UNL     1      64.027  66.130  71.558  0.00  0.00    +0.000 C 
ATOM     28  N   UNL     1      63.397  66.208  72.085  0.00  0.00    +0.000 NA
ATOM     29  C   UNL     1      64.762  66.456  71.743  0.00  0.00    +0.000 C 
ATOM     30  O   UNL     1      64.866  66.861  72.455  0.00  0.00    +0.000 OA
ATOM     31  C   UNL     1      64.553  65.649  70.319  0.00  0.00    +0.000 C 
ATOM     32  O   UNL     1      65.287  65.975  70.504  0.00  0.00    +0.000 OA
ATOM     33  C   UNL     1      64.448  65.245  69.608  0.00  0.00    +0.000 C 
ATOM     34  O   UNL     1      65.078  65.168  69.082  0.00  0.00    +0.000 OA
ATOM     35  C   UNL     1      63.714  64.919  69.423  0.00  0.00    +0.000 C 
ATOM     36  O   UNL     1      63.610  64.515  68.712  0.00  0.00    +0.000 OA
ENDROOT
TORSDOF 0
ENDMDL
MODEL 6
REMARK VINA RESULT:   -12.103      3.102      4.820
REMARK INTER + INTRA:         -12.103
REMARK INTER:                 -12.103
REMARK INTRA:                   0.000
REMARK UNBOUND:                 0.000
ROOT
REMARK  Name = hygromycin b
REMARK                            x       y       z     vdW  Elec       q    Type
REMARK                         _______ _______ _______ _____ _____    ______ ____
ATOM      1  C   UNL     1      62.767  66.741  71.646  0.00  0.00    +0.000 C 
ATOM      2  O   UNL     1      63.506  66.881  71.307  0.00  0.00    +0.000 OA
ATOM      3  C   UNL     1      63.690  66.238  70.823  0.00  0.00    +0.000 C 
ATOM      4  O   UNL     1      63.065  65.702  70.862  0.00  0.00    +0.000 OA
ATOM      5  C   UNL     1      62.494  66.013  71.371  0.00  0.00    +0.000 C 
ATOM      6  C   UNL     1      61.761  65.727  71.619  0.00  0.00    +0.000 C 
ATOM      7  O   UNL     1      61.488  64.998  71.344  0.00  0.00    +0.000 OA
ATOM      8  C   UNL     1      60.755  64.712  71.592  0.00  0.00    +0.000 C 
ATOM      9  C   UNL     1      60.482  63.984  71.317  0.00  0.00    +0.000 C 
ATOM     10  O   UNL     1      60.943  63.541  70.794  0.00  0.00    +0.000 OA
ATOM     11  C   UNL     1      59.749  63.697  71.565  0.00  0.00    +0.000 C 
ATOM     12  N   UNL     1      59.476  62.969  71.291  0.00  0.00    +0.000 NA
ATOM     13  C   UNL     1      59.289  64.140  72.088  0.00  0.00    +0.000 C 
ATOM     14  C   UNL     1      59.562  64.868  72.363  0.00  0.00    +0.000 C 
ATOM     15  N   UNL     1      59.102  65.310  72.885  0.00  0.00    +0.000 NA
ATOM     16  C   UNL     1      58.369  65.024  73.134  0.00  0.00    +0.000 C 
ATOM     17  C   UNL     1      60.294  65.154  72.115  0.00  0.00    +0.000 C 
ATOM     18  O   UNL     1      60.567  65.883  72.390  0.00  0.00    +0.000 OA
ATOM     19  O   UNL     1      61.301  66.169  72.142  0.00  0.00    +0.000 OA
ATOM     20  C   UNL     1      61.573  66.897  72.416  0.00  0.00    +0.000 C 
ATOM     21  C   UNL     1      61.113  67.340  72.940  0.00  0.00    +0.000 C 
ATOM     22  O   UNL     1      61.386  68.068  73.214  0.00  0.00    +0.000 OA
ATOM     23  C   UNL     1      62.307  67.184  72.168  0.00  0.00    +0.000 C 
ATOM     24  O   UNL     1      62.580  67.912  72.443  0.00  0.00    +0.000 OA
ATOM     25  O   UNL     1      64.271  66.824  70.839  0.00  0.00    +0.000 OA
ATOM     26  C   UNL     1      64.960  66.734  70.394  0.00  0.00    +0.000 C 
ATOM     27  CA  UNL     1      65.540  67.320  70.409  0.00  0.00    +0.000 C 
ATOM     28  N   UNL     1      65.432  67.996  70.870  0.00  0.00    +0.000 NA
ATOM     29  C   UNL     1      66.229  67.230  69.964  0.00  0.00    +0.000 C 
ATOM     30  O   UNL     1      66.810  67.816  69.980  0.00  0.00    +0.000 OA
ATOM     31  C   UNL     1      65.067  66.058  69.933  0.00  0.00    +0.000 C 
ATOM     32  O   UNL     1      65.756  65.968  69.488  0.00  0.00    +0.000 OA
ATOM     33  C   UNL     1      64.487  65.472  69.918  0.00  0.00    +0.000 C 
ATOM     34  O   UNL     1      64.595  64.797  69.458  0.00  0.00    +0.000 OA
ATOM     35  C   UNL     1      63.798  65.562  70.363  0.00  0.00    +0.000 C 
ATOM     36  O   UNL     1      63.218  64.977  70.347  0.00  0.00    +0.000 OA
ENDROOT
TORSDOF 0
ENDMDL
MODEL 7
REMARK VINA RESULT:   -11.882      1.937      5.338
REMARK INTER + INTRA:         -11.882
REMARK INTER:                 -11.882
REMARK INTRA:                   0.000
REMARK UNBOUND:                 0.000
ROOT
REMARK  Name = hygromycin b
REMARK                            x       y       z     vdW  Elec       q    Type
REMARK                         _______ _______ _______ _____ _____    ______ ____
ATOM      1  C   UNL     1      60.202  63.575  69.831  0.00  0.00    +0.000 C 
ATOM      2  O   UNL     1      59.942  64.226  70.266  0.00  0.00    +0.000 OA
ATOM      3  C   UNL     1      59.945  64.883  69.766  0.00  0.00    +0.000 C 
ATOM      4  O   UNL     1      60.207  64.638  69.024  0.00  0.00    +0.000 OA
ATOM      5  C   UNL     1      60.366  63.829  69.064  0.00  0.00    +0.000 C 
ATOM      6  C   UNL     1      60.639  63.291  68.501  0.00  0.00    +0.000 C 
ATOM      7  O   UNL     1      60.803  63.546  67.733  0.00  0.00    +0.000 OA
ATOM      8  C   UNL     1      61.076  63.008  67.170  0.00  0.00    +0.000 C 
ATOM      9  C   UNL     1      61.240  63.262  66.402  0.00  0.00    +0.000 C 
ATOM     10  O   UNL     1      61.131  64.054  66.198  0.00  0.00    +0.000 OA
ATOM     11  C   UNL     1      61.513  62.724  65.839  0.00  0.00    +0.000 C 
ATOM     12  N   UNL     1      61.676  62.978  65.072  0.00  0.00    +0.000 NA
ATOM     13  C   UNL     1      61.621  61.932  66.044  0.00  0.00    +0.000 C 
ATOM     14  C   UNL     1      61.457  61.678  66.811  0.00  0.00    +0.000 C 
ATOM     15  N   UNL     1      61.566  60.887  67.015  0.00  0.00    +0.000 NA
ATOM     16  C   UNL     1      61.839  60.348  66.452  0.00  0.00    +0.000 C 
ATOM     17  C   UNL     1      61.185  62.215  67.374  0.00  0.00    +0.000 C 
ATOM     18  O   UNL     1      61.020  61.961  68.142  0.00  0.00    +0.000 OA
ATOM     19  O   UNL     1      60.748  62.499  68.705  0.00  0.00    +0.000 OA
ATOM     20  C   UNL     1      60.584  62.245  69.473  0.00  0.00    +0.000 C 
ATOM     21  C   UNL     1      60.693  61.452  69.677  0.00  0.00    +0.000 C 
ATOM     22  O   UNL     1      60.529  61.199  70.444  0.00  0.00    +0.000 OA
ATOM     23  C   UNL     1      60.311  62.783  70.036  0.00  0.00    +0.000 C 
ATOM     24  O   UNL     1      60.147  62.529  70.803  0.00  0.00    +0.000 OA
ATOM     25  O   UNL     1      59.693  65.046  70.535  0.00  0.00    +0.000 OA
ATOM     26  C   UNL     1      59.472  65.814  70.742  0.00  0.00    +0.000 C 
ATOM     27  CA  UNL     1      59.220  65.977  71.509  0.00  0.00    +0.000 C 
ATOM     28  N   UNL     1      59.188  65.374  72.071  0.00  0.00    +0.000 NA
ATOM     29  C   UNL     1      59.000  66.745  71.717  0.00  0.00    +0.000 C 
ATOM     30  O   UNL     1      58.748  66.909  72.485  0.00  0.00    +0.000 OA
ATOM     31  C   UNL     1      59.504  66.418  70.180  0.00  0.00    +0.000 C 
ATOM     32  O   UNL     1      59.284  67.185  70.387  0.00  0.00    +0.000 OA
ATOM     33  C   UNL     1      59.756  66.254  69.412  0.00  0.00    +0.000 C 
ATOM     34  O   UNL     1      59.788  66.858  68.851  0.00  0.00    +0.000 OA
ATOM     35  C   UNL     1      59.977  65.487  69.205  0.00  0.00    +0.000 C 
ATOM     36  O   UNL     1      60.229  65.323  68.437  0.00  0.00    +0.000 OA
ENDROOT
TORSDOF 0
ENDMDL
MODEL 8
REMARK VINA RESULT:   -11.528     15.485     16.510
REMARK INTER + INTRA:         -11.528
REMARK INTER:                 -11.528
REMARK INTRA:                   0.000
REMARK UNBOUND:                 0.000
ROOT
REMARK  Name = hygromycin b
REMARK                            x       y       z     vdW  Elec       q    Type
REMARK                         _______ _______ _______ _____ _____    ______ ____
ATOM      1  C   UNL     1      63.469  63.911  53.750  0.00  0.00    +0.000 C 
ATOM      2  O   UNL     1      63.269  64.696  53.908  0.00  0.00    +0.000 OA
ATOM      3  C   UNL     1      62.462  64.789  53.759  0.00  0.00    +0.000 C 
ATOM      4  O   UNL     1      62.164  64.062  53.509  0.00  0.00    +0.000 OA
ATOM      5  C   UNL     1      62.786  63.519  53.504  0.00  0.00    +0.000 C 
ATOM      6  C   UNL     1      62.818  62.719  53.306  0.00  0.00    +0.000 C 
ATOM      7  O   UNL     1      62.135  62.327  53.060  0.00  0.00    +0.000 OA
ATOM      8  C   UNL     1      62.168  61.526  52.862  0.00  0.00    +0.000 C 
ATOM      9  C   UNL     1      61.485  61.134  52.616  0.00  0.00    +0.000 C 
ATOM     10  O   UNL     1      60.769  61.543  52.567  0.00  0.00    +0.000 OA
ATOM     11  C   UNL     1      61.517  60.333  52.418  0.00  0.00    +0.000 C 
ATOM     12  N   UNL     1      60.835  59.942  52.172  0.00  0.00    +0.000 NA
ATOM     13  C   UNL     1      62.233  59.926  52.467  0.00  0.00    +0.000 C 
ATOM     14  C   UNL     1      62.916  60.318  52.713  0.00  0.00    +0.000 C 
ATOM     15  N   UNL     1      63.630  59.910  52.761  0.00  0.00    +0.000 NA
ATOM     16  C   UNL     1      63.663  59.109  52.564  0.00  0.00    +0.000 C 
ATOM     17  C   UNL     1      62.883  61.117  52.910  0.00  0.00    +0.000 C 
ATOM     18  O   UNL     1      63.567  61.510  53.157  0.00  0.00    +0.000 OA
ATOM     19  O   UNL     1      63.534  62.310  53.354  0.00  0.00    +0.000 OA
ATOM     20  C   UNL     1      64.217  62.703  53.600  0.00  0.00    +0.000 C 
ATOM     21  C   UNL     1      64.932  62.294  53.649  0.00  0.00    +0.000 C 
ATOM     22  O   UNL     1      65.615  62.686  53.895  0.00  0.00    +0.000 OA
ATOM     23  C   UNL     1      64.184  63.504  53.798  0.00  0.00    +0.000 C 
ATOM     24  O   UNL     1      64.866  63.895  54.044  0.00  0.00    +0.000 OA
ATOM     25  O   UNL     1      62.839  65.477  54.015  0.00  0.00    +0.000 OA
ATOM     26  C   UNL     1      62.407  66.175  54.102  0.00  0.00    +0.000 C 
ATOM     27  CA  UNL     1      62.783  66.863  54.358  0.00  0.00    +0.000 C 
ATOM     28  N   UNL     1      63.590  66.854  54.528  0.00  0.00    +0.000 NA
ATOM     29  C   UNL     1      62.351  67.561  54.444  0.00  0.00    +0.000 C 
ATOM     30  O   UNL     1      62.727  68.250  54.700  0.00  0.00    +0.000 OA
ATOM     31  C   UNL     1      61.600  66.184  53.931  0.00  0.00    +0.000 C 
ATOM     32  O   UNL     1      61.168  66.881  54.017  0.00  0.00    +0.000 OA
ATOM     33  C   UNL     1      61.224  65.496  53.675  0.00  0.00    +0.000 C 
ATOM     34  O   UNL     1      60.418  65.505  53.505  0.00  0.00    +0.000 OA
ATOM     35  C   UNL     1      61.656  64.798  53.589  0.00  0.00    +0.000 C 
ATOM     36  O   UNL     1      61.280  64.110  53.333  0.00  0.00    +0.000 OA
ENDROOT
TORSDOF 0
ENDMDL
MODEL 9
REMARK VINA RESULT:   -11.343     13.795     15.855
REMARK INTER + INTRA:         -11.343
REMARK INTER:                 -11.343
REMARK INTRA:                   0.000
REMARK UNBOUND:                 0.000
ROOT
REMARK  Name = hygromycin b
REMARK                            x       y       z     vdW  Elec       q    Type
REMARK                         _______ _______ _______ _____ _____    ______ ____
ATOM      1  C   UNL     1      61.686  66.134  52.849  0.00  0.00    +0.000 C 
ATOM      2  O   UNL     1      61.651  65.339  52.628  0.00  0.00    +0.000 OA
ATOM      3  C   UNL     1      61.855  64.883  53.285  0.00  0.00    +0.000 C 
ATOM      4  O   UNL     1      62.015  65.395  53.911  0.00  0.00    +0.000 OA
ATOM      5  C   UNL     1      61.910  66.168  53.642  0.00  0.00    +0.000 C 
ATOM      6  C   UNL     1      61.991  66.898  54.016  0.00  0.00    +0.000 C 
ATOM      7  O   UNL     1      62.216  66.933  54.810  0.00  0.00    +0.000 OA
ATOM      8  C   UNL     1      62.296  67.664  55.184  0.00  0.00    +0.000 C 
ATOM      9  C   UNL     1      62.521  67.699  55.977  0.00  0.00    +0.000 C 
ATOM     10  O   UNL     1      62.665  67.002  56.396  0.00  0.00    +0.000 OA
ATOM     11  C   UNL     1      62.601  68.430  56.352  0.00  0.00    +0.000 C 
ATOM     12  N   UNL     1      62.826  68.464  57.144  0.00  0.00    +0.000 NA
ATOM     13  C   UNL     1      62.457  69.125  55.933  0.00  0.00    +0.000 C 
ATOM     14  C   UNL     1      62.232  69.091  55.140  0.00  0.00    +0.000 C 
ATOM     15  N   UNL     1      62.088  69.787  54.722  0.00  0.00    +0.000 NA
ATOM     16  C   UNL     1      62.168  70.518  55.096  0.00  0.00    +0.000 C 
ATOM     17  C   UNL     1      62.152  68.361  54.766  0.00  0.00    +0.000 C 
ATOM     18  O   UNL     1      61.927  68.326  53.972  0.00  0.00    +0.000 OA
ATOM     19  O   UNL     1      61.846  67.595  53.598  0.00  0.00    +0.000 OA
ATOM     20  C   UNL     1      61.622  67.560  52.805  0.00  0.00    +0.000 C 
ATOM     21  C   UNL     1      61.477  68.257  52.386  0.00  0.00    +0.000 C 
ATOM     22  O   UNL     1      61.253  68.223  51.593  0.00  0.00    +0.000 OA
ATOM     23  C   UNL     1      61.541  66.829  52.430  0.00  0.00    +0.000 C 
ATOM     24  O   UNL     1      61.317  66.795  51.638  0.00  0.00    +0.000 OA
ATOM     25  O   UNL     1      61.678  64.441  52.610  0.00  0.00    +0.000 OA
ATOM     26  C   UNL     1      61.715  63.618  52.635  0.00  0.00    +0.000 C 
ATOM     27  CA  UNL     1      61.539  63.176  51.962  0.00  0.00    +0.000 C 
ATOM     28  N   UNL     1      61.326  63.558  51.262  0.00  0.00    +0.000 NA
ATOM     29  C   UNL     1      61.576  62.353  51.987  0.00  0.00    +0.000 C 
ATOM     30  O   UNL     1      61.400  61.910  51.313  0.00  0.00    +0.000 OA
ATOM     31  C   UNL     1      61.928  63.236  53.335  0.00  0.00    +0.000 C 
ATOM     32  O   UNL     1      61.965  62.412  53.361  0.00  0.00    +0.000 OA
ATOM     33  C   UNL     1      62.105  63.677  54.009  0.00  0.00    +0.000 C 
ATOM     34  O   UNL     1      62.317  63.296  54.708  0.00  0.00    +0.000 OA
ATOM     35  C   UNL     1      62.068  64.501  53.984  0.00  0.00    +0.000 C 
ATOM     36  O   UNL     1      62.244  64.942  54.657  0.00  0.00    +0.000 OA
ENDROOT
TORSDOF 0
ENDMDL
