MODEL 1
REMARK VINA RESULT:    -8.186      0.000      0.000
REMARK INTER + INTRA:          -8.186
REMARK INTER:                  -8.186
REMARK INTRA:                   0.000
REMARK UNBOUND:                 0.000
ROOT
REMARK  Name = hymecromone
REMARK                            x       y       z     vdW  Elec       q    Type
REMARK                         _______ _______ _______ _____ _____    ______ ____
ATOM      1  C   UNL     1      59.762  61.639  65.793  0.00  0.00    +0.000 C 
ATOM      2  C   UNL     1      60.514  61.969  65.867  0.00  0.00    +0.000 A 
ATOM      3  C   UNL     1      60.714  62.390  66.548  0.00  0.00    +0.000 A 
ATOM      4  C   UNL     1      61.467  62.721  66.622  0.00  0.00    +0.000 A 
ATOM      5  O   UNL     1      61.667  63.142  67.302  0.00  0.00    +0.000 OA
ATOM      6  O   UNL     1      62.019  62.629  66.015  0.00  0.00    +0.000 OA
ATOM      7  C   UNL     1      61.819  62.208  65.334  0.00  0.00    +0.000 A 
ATOM      8  C   UNL     1      61.066  61.877  65.260  0.00  0.00    +0.000 A 
ATOM      9  C   UNL     1      60.866  61.456  64.580  0.00  0.00    +0.000 A 
ATOM     10  C   UNL     1      61.417  61.365  63.974  0.00  0.00    +0.000 A 
ATOM     11  C   UNL     1      62.171  61.696  64.048  0.00  0.00    +0.000 A 
ATOM     12  O   UNL     1      62.722  61.604  63.442  0.00  0.00    +0.000 OA
ATOM     13  C   UNL     1      62.371  62.117  64.728  0.00  0.00    +0.000 A 
ENDROOT
TORSDOF 0
ENDMDL
MODEL 2
REMARK VINA RESULT:    -7.923      0.509      2.486
REMARK INTER + INTRA:          -7.923
REMARK INTER:                  -7.923
REMARK INTRA:                   0.000
REMARK UNBOUND:                 0.000
ROOT
REMARK  Name = hymecromone
REMARK                            x       y       z     vdW  Elec       q    Type
REMARK                         _______ _______ _______ _____ _____    ______ ____
ATOM      1  C   UNL     1      60.304  60.903  64.490  0.00  0.00    +0.000 C 
ATOM      2  C   UNL     1      61.005  61.336  64.529  0.00  0.00    +0.000 A 
ATOM      3  C   UNL     1      61.534  61.321  63.895  0.00  0.00    +0.000 A 
ATOM      4  C   UNL     1      62.236  61.754  63.933  0.00  0.00    +0.000 A 
ATOM      5  O   UNL     1      62.764  61.739  63.301  0.00  0.00    +0.000 OA
ATOM      6  O   UNL     1      62.408  62.201  64.605  0.00  0.00    +0.000 OA
ATOM      7  C   UNL     1      61.879  62.217  65.238  0.00  0.00    +0.000 A 
ATOM      8  C   UNL     1      61.177  61.784  65.200  0.00  0.00    +0.000 A 
ATOM      9  C   UNL     1      60.649  61.799  65.833  0.00  0.00    +0.000 A 
ATOM     10  C   UNL     1      60.821  62.246  66.503  0.00  0.00    +0.000 A 
ATOM     11  C   UNL     1      61.523  62.680  66.541  0.00  0.00    +0.000 A 
ATOM     12  O   UNL     1      61.695  63.127  67.213  0.00  0.00    +0.000 OA
ATOM     13  C   UNL     1      62.051  62.664  65.909  0.00  0.00    +0.000 A 
ENDROOT
TORSDOF 0
ENDMDL
MODEL 3
REMARK VINA RESULT:    -7.319      6.690      8.108
REMARK INTER + INTRA:          -7.319
REMARK INTER:                  -7.319
REMARK INTRA:                   0.000
REMARK UNBOUND:                 0.000
ROOT
REMARK  Name = hymecromone
REMARK                            x       y       z     vdW  Elec       q    Type
REMARK                         _______ _______ _______ _____ _____    ______ ____
ATOM      1  C   UNL     1      66.133  67.748  69.872  0.00  0.00    +0.000 C 
ATOM      2  C   UNL     1      65.977  67.199  70.468  0.00  0.00    +0.000 A 
ATOM      3  C   UNL     1      66.377  67.249  71.188  0.00  0.00    +0.000 A 
ATOM      4  C   UNL     1      66.221  66.700  71.786  0.00  0.00    +0.000 A 
ATOM      5  O   UNL     1      66.621  66.749  72.505  0.00  0.00    +0.000 OA
ATOM      6  O   UNL     1      65.665  66.103  71.661  0.00  0.00    +0.000 OA
ATOM      7  C   UNL     1      65.265  66.053  70.941  0.00  0.00    +0.000 A 
ATOM      8  C   UNL     1      65.422  66.602  70.344  0.00  0.00    +0.000 A 
ATOM      9  C   UNL     1      65.022  66.553  69.625  0.00  0.00    +0.000 A 
ATOM     10  C   UNL     1      64.467  65.957  69.501  0.00  0.00    +0.000 A 
ATOM     11  C   UNL     1      64.311  65.408  70.098  0.00  0.00    +0.000 A 
ATOM     12  O   UNL     1      63.755  64.811  69.974  0.00  0.00    +0.000 OA
ATOM     13  C   UNL     1      64.710  65.457  70.817  0.00  0.00    +0.000 A 
ENDROOT
TORSDOF 0
ENDMDL
MODEL 4
REMARK VINA RESULT:    -7.150      5.136      6.438
REMARK INTER + INTRA:          -7.150
REMARK INTER:                  -7.150
REMARK INTRA:                   0.000
REMARK UNBOUND:                 0.000
ROOT
REMARK  Name = hymecromone
REMARK                            x       y       z     vdW  Elec       q    Type
REMARK                         _______ _______ _______ _____ _____    ______ ____
ATOM      1  C   UNL     1      61.643  62.778  72.933  0.00  0.00    +0.000 C 
ATOM      2  C   UNL     1      61.098  63.126  72.422  0.00  0.00    +0.000 A 
ATOM      3  C   UNL     1      60.752  63.849  72.618  0.00  0.00    +0.000 A 
ATOM      4  C   UNL     1      60.206  64.198  72.106  0.00  0.00    +0.000 A 
ATOM      5  O   UNL     1      59.861  64.921  72.302  0.00  0.00    +0.000 OA
ATOM      6  O   UNL     1      60.006  63.823  71.399  0.00  0.00    +0.000 OA
ATOM      7  C   UNL     1      60.352  63.100  71.203  0.00  0.00    +0.000 A 
ATOM      8  C   UNL     1      60.898  62.751  71.714  0.00  0.00    +0.000 A 
ATOM      9  C   UNL     1      61.243  62.028  71.519  0.00  0.00    +0.000 A 
ATOM     10  C   UNL     1      61.043  61.654  70.812  0.00  0.00    +0.000 A 
ATOM     11  C   UNL     1      60.497  62.003  70.300  0.00  0.00    +0.000 A 
ATOM     12  O   UNL     1      60.297  61.628  69.593  0.00  0.00    +0.000 OA
ATOM     13  C   UNL     1      60.152  62.725  70.496  0.00  0.00    +0.000 A 
ENDROOT
TORSDOF 0
ENDMDL
MODEL 5
REMARK VINA RESULT:    -7.132      5.149      6.829
REMARK INTER + INTRA:          -7.132
REMARK INTER:                  -7.132
REMARK INTRA:                   0.000
REMARK UNBOUND:                 0.000
ROOT
REMARK  Name = hymecromone
REMARK                            x       y       z     vdW  Elec       q    Type
REMARK                         _______ _______ _______ _____ _____    ______ ____
ATOM      1  C   UNL     1      61.861  61.245  71.806  0.00  0.00    +0.000 C 
ATOM      2  C   UNL     1      61.345  61.768  71.429  0.00  0.00    +0.000 A 
ATOM      3  C   UNL     1      61.024  61.573  70.695  0.00  0.00    +0.000 A 
ATOM      4  C   UNL     1      60.508  62.097  70.318  0.00  0.00    +0.000 A 
ATOM      5  O   UNL     1      60.187  61.902  69.584  0.00  0.00    +0.000 OA
ATOM      6  O   UNL     1      60.315  62.814  70.677  0.00  0.00    +0.000 OA
ATOM      7  C   UNL     1      60.636  63.009  71.412  0.00  0.00    +0.000 A 
ATOM      8  C   UNL     1      61.152  62.485  71.788  0.00  0.00    +0.000 A 
ATOM      9  C   UNL     1      61.473  62.680  72.522  0.00  0.00    +0.000 A 
ATOM     10  C   UNL     1      61.279  63.397  72.880  0.00  0.00    +0.000 A 
ATOM     11  C   UNL     1      60.763  63.920  72.504  0.00  0.00    +0.000 A 
ATOM     12  O   UNL     1      60.570  64.638  72.862  0.00  0.00    +0.000 OA
ATOM     13  C   UNL     1      60.442  63.726  71.770  0.00  0.00    +0.000 A 
ENDROOT
TORSDOF 0
ENDMDL
MODEL 6
REMARK VINA RESULT:    -6.756      3.394      4.655
REMARK INTER + INTRA:          -6.756
REMARK INTER:                  -6.756
REMARK INTRA:                   0.000
REMARK UNBOUND:                 0.000
ROOT
REMARK  Name = hymecromone
REMARK                            x       y       z     vdW  Elec       q    Type
REMARK                         _______ _______ _______ _____ _____    ______ ____
ATOM      1  C   UNL     1      60.504  61.534  70.876  0.00  0.00    +0.000 C 
ATOM      2  C   UNL     1      60.485  62.315  70.611  0.00  0.00    +0.000 A 
ATOM      3  C   UNL     1      60.472  62.935  71.155  0.00  0.00    +0.000 A 
ATOM      4  C   UNL     1      60.453  63.716  70.889  0.00  0.00    +0.000 A 
ATOM      5  O   UNL     1      60.440  64.336  71.432  0.00  0.00    +0.000 OA
ATOM      6  O   UNL     1      60.448  63.876  70.079  0.00  0.00    +0.000 OA
ATOM      7  C   UNL     1      60.461  63.256  69.535  0.00  0.00    +0.000 A 
ATOM      8  C   UNL     1      60.480  62.474  69.801  0.00  0.00    +0.000 A 
ATOM      9  C   UNL     1      60.494  61.855  69.258  0.00  0.00    +0.000 A 
ATOM     10  C   UNL     1      60.488  62.015  68.449  0.00  0.00    +0.000 A 
ATOM     11  C   UNL     1      60.470  62.796  68.183  0.00  0.00    +0.000 A 
ATOM     12  O   UNL     1      60.465  62.956  67.374  0.00  0.00    +0.000 OA
ATOM     13  C   UNL     1      60.456  63.416  68.726  0.00  0.00    +0.000 A 
ENDROOT
TORSDOF 0
ENDMDL
MODEL 7
REMARK VINA RESULT:    -6.689      6.370      7.850
REMARK INTER + INTRA:          -6.689
REMARK INTER:                  -6.689
REMARK INTRA:                   0.000
REMARK UNBOUND:                 0.000
ROOT
REMARK  Name = hymecromone
REMARK                            x       y       z     vdW  Elec       q    Type
REMARK                         _______ _______ _______ _____ _____    ______ ____
ATOM      1  C   UNL     1      63.772  66.513  72.063  0.00  0.00    +0.000 C 
ATOM      2  C   UNL     1      63.922  66.386  71.261  0.00  0.00    +0.000 A 
ATOM      3  C   UNL     1      63.398  65.936  70.810  0.00  0.00    +0.000 A 
ATOM      4  C   UNL     1      63.548  65.809  70.008  0.00  0.00    +0.000 A 
ATOM      5  O   UNL     1      63.024  65.359  69.557  0.00  0.00    +0.000 OA
ATOM      6  O   UNL     1      64.222  66.133  69.659  0.00  0.00    +0.000 OA
ATOM      7  C   UNL     1      64.746  66.583  70.110  0.00  0.00    +0.000 A 
ATOM      8  C   UNL     1      64.596  66.710  70.912  0.00  0.00    +0.000 A 
ATOM      9  C   UNL     1      65.119  67.160  71.363  0.00  0.00    +0.000 A 
ATOM     10  C   UNL     1      65.792  67.483  71.014  0.00  0.00    +0.000 A 
ATOM     11  C   UNL     1      65.942  67.356  70.211  0.00  0.00    +0.000 A 
ATOM     12  O   UNL     1      66.616  67.680  69.862  0.00  0.00    +0.000 OA
ATOM     13  C   UNL     1      65.419  66.906  69.760  0.00  0.00    +0.000 A 
ENDROOT
TORSDOF 0
ENDMDL
MODEL 8
REMARK VINA RESULT:    -6.528     24.502     25.484
REMARK INTER + INTRA:          -6.528
REMARK INTER:                  -6.528
REMARK INTRA:                   0.000
REMARK UNBOUND:                 0.000
ROOT
REMARK  Name = hymecromone
REMARK                            x       y       z     vdW  Elec       q    Type
REMARK                         _______ _______ _______ _____ _____    ______ ____
ATOM      1  C   UNL     1      70.990  78.166  48.540  0.00  0.00    +0.000 C 
ATOM      2  C   UNL     1      71.339  78.805  48.927  0.00  0.00    +0.000 A 
ATOM      3  C   UNL     1      72.089  79.064  48.700  0.00  0.00    +0.000 A 
ATOM      4  C   UNL     1      72.439  79.704  49.087  0.00  0.00    +0.000 A 
ATOM      5  O   UNL     1      73.189  79.963  48.861  0.00  0.00    +0.000 OA
ATOM      6  O   UNL     1      72.038  80.084  49.700  0.00  0.00    +0.000 OA
ATOM      7  C   UNL     1      71.288  79.825  49.927  0.00  0.00    +0.000 A 
ATOM      8  C   UNL     1      70.938  79.185  49.540  0.00  0.00    +0.000 A 
ATOM      9  C   UNL     1      70.189  78.926  49.766  0.00  0.00    +0.000 A 
ATOM     10  C   UNL     1      69.789  79.306  50.379  0.00  0.00    +0.000 A 
ATOM     11  C   UNL     1      70.139  79.946  50.766  0.00  0.00    +0.000 A 
ATOM     12  O   UNL     1      69.738  80.326  51.379  0.00  0.00    +0.000 OA
ATOM     13  C   UNL     1      70.888  80.205  50.540  0.00  0.00    +0.000 A 
ENDROOT
TORSDOF 0
ENDMDL
MODEL 9
REMARK VINA RESULT:    -6.373      6.342      8.074
REMARK INTER + INTRA:          -6.373
REMARK INTER:                  -6.373
REMARK INTRA:                   0.000
REMARK UNBOUND:                 0.000
ROOT
REMARK  Name = hymecromone
REMARK                            x       y       z     vdW  Elec       q    Type
REMARK                         _______ _______ _______ _____ _____    ______ ____
ATOM      1  C   UNL     1      65.588  67.074  70.212  0.00  0.00    +0.000 C 
ATOM      2  C   UNL     1      65.016  66.490  70.324  0.00  0.00    +0.000 A 
ATOM      3  C   UNL     1      64.961  65.860  69.793  0.00  0.00    +0.000 A 
ATOM      4  C   UNL     1      64.389  65.275  69.905  0.00  0.00    +0.000 A 
ATOM      5  O   UNL     1      64.334  64.646  69.375  0.00  0.00    +0.000 OA
ATOM      6  O   UNL     1      63.874  65.321  70.548  0.00  0.00    +0.000 OA
ATOM      7  C   UNL     1      63.929  65.950  71.079  0.00  0.00    +0.000 A 
ATOM      8  C   UNL     1      64.501  66.535  70.966  0.00  0.00    +0.000 A 
ATOM      9  C   UNL     1      64.556  67.164  71.496  0.00  0.00    +0.000 A 
ATOM     10  C   UNL     1      64.041  67.210  72.138  0.00  0.00    +0.000 A 
ATOM     11  C   UNL     1      63.469  66.624  72.250  0.00  0.00    +0.000 A 
ATOM     12  O   UNL     1      62.953  66.670  72.893  0.00  0.00    +0.000 OA
ATOM     13  C   UNL     1      63.413  65.995  71.720  0.00  0.00    +0.000 A 
ENDROOT
TORSDOF 0
ENDMDL
