MODEL 1
REMARK VINA RESULT:    -9.272      0.000      0.000
REMARK INTER + INTRA:          -9.272
REMARK INTER:                  -9.272
REMARK INTRA:                   0.000
REMARK UNBOUND:                 0.000
ROOT
REMARK  Name = ibandronic acid
REMARK                            x       y       z     vdW  Elec       q    Type
REMARK                         _______ _______ _______ _____ _____    ______ ____
ATOM      1  C   UNL     1      60.172  62.370  70.096  0.00  0.00    +0.000 C 
ATOM      2  C   UNL     1      60.656  62.539  69.449  0.00  0.00    +0.000 C 
ATOM      3  C   UNL     1      60.493  62.203  68.713  0.00  0.00    +0.000 C 
ATOM      4  C   UNL     1      60.977  62.372  68.067  0.00  0.00    +0.000 C 
ATOM      5  C   UNL     1      60.815  62.036  67.331  0.00  0.00    +0.000 C 
ATOM      6  N   UNL     1      61.299  62.205  66.684  0.00  0.00    +0.000 NA
ATOM      7  C   UNL     1      61.945  62.709  66.774  0.00  0.00    +0.000 C 
ATOM      8  C   UNL     1      61.136  61.870  65.949  0.00  0.00    +0.000 C 
ATOM      9  C   UNL     1      61.620  62.038  65.302  0.00  0.00    +0.000 C 
ATOM     10  C   UNL     1      61.458  61.703  64.566  0.00  0.00    +0.000 C 
ATOM     11  O   UNL     1      61.295  61.367  63.830  0.00  0.00    +0.000 OA
ATOM     12  P   UNL     1      60.805  61.314  64.888  0.00  0.00    +0.000 P 
ATOM     13  O   UNL     1      60.152  60.925  65.210  0.00  0.00    +0.000 OA
ATOM     14  O   UNL     1      60.643  60.978  64.152  0.00  0.00    +0.000 OA
ATOM     15  O   UNL     1      60.968  61.650  65.624  0.00  0.00    +0.000 OA
ATOM     16  P   UNL     1      62.110  62.091  64.244  0.00  0.00    +0.000 P 
ATOM     17  O   UNL     1      61.947  61.755  63.509  0.00  0.00    +0.000 OA
ATOM     18  O   UNL     1      62.763  62.480  63.923  0.00  0.00    +0.000 OA
ATOM     19  O   UNL     1      62.272  62.426  64.981  0.00  0.00    +0.000 OA
ENDROOT
TORSDOF 0
ENDMDL
MODEL 2
REMARK VINA RESULT:    -9.162      3.055      4.705
REMARK INTER + INTRA:          -9.162
REMARK INTER:                  -9.162
REMARK INTRA:                   0.000
REMARK UNBOUND:                 0.000
ROOT
REMARK  Name = ibandronic acid
REMARK                            x       y       z     vdW  Elec       q    Type
REMARK                         _______ _______ _______ _____ _____    ______ ____
ATOM      1  C   UNL     1      62.409  62.064  63.843  0.00  0.00    +0.000 C 
ATOM      2  C   UNL     1      62.081  61.815  64.558  0.00  0.00    +0.000 C 
ATOM      3  C   UNL     1      62.049  62.332  65.200  0.00  0.00    +0.000 C 
ATOM      4  C   UNL     1      61.720  62.083  65.915  0.00  0.00    +0.000 C 
ATOM      5  C   UNL     1      61.688  62.599  66.556  0.00  0.00    +0.000 C 
ATOM      6  N   UNL     1      61.360  62.350  67.271  0.00  0.00    +0.000 NA
ATOM      7  C   UNL     1      61.064  61.584  67.344  0.00  0.00    +0.000 C 
ATOM      8  C   UNL     1      61.327  62.867  67.913  0.00  0.00    +0.000 C 
ATOM      9  C   UNL     1      60.999  62.618  68.628  0.00  0.00    +0.000 C 
ATOM     10  C   UNL     1      60.967  63.134  69.270  0.00  0.00    +0.000 C 
ATOM     11  O   UNL     1      60.935  63.652  69.912  0.00  0.00    +0.000 OA
ATOM     12  P   UNL     1      61.327  63.722  68.816  0.00  0.00    +0.000 P 
ATOM     13  O   UNL     1      61.688  64.308  68.361  0.00  0.00    +0.000 OA
ATOM     14  O   UNL     1      61.295  64.238  69.457  0.00  0.00    +0.000 OA
ATOM     15  O   UNL     1      61.360  63.204  68.173  0.00  0.00    +0.000 OA
ATOM     16  P   UNL     1      60.606  62.548  69.724  0.00  0.00    +0.000 P 
ATOM     17  O   UNL     1      60.574  63.066  70.366  0.00  0.00    +0.000 OA
ATOM     18  O   UNL     1      60.246  61.961  70.178  0.00  0.00    +0.000 OA
ATOM     19  O   UNL     1      60.639  62.031  69.082  0.00  0.00    +0.000 OA
ENDROOT
TORSDOF 0
ENDMDL
MODEL 3
REMARK VINA RESULT:    -8.770      5.987      7.030
REMARK INTER + INTRA:          -8.770
REMARK INTER:                  -8.770
REMARK INTRA:                   0.000
REMARK UNBOUND:                 0.000
ROOT
REMARK  Name = ibandronic acid
REMARK                            x       y       z     vdW  Elec       q    Type
REMARK                         _______ _______ _______ _____ _____    ______ ____
ATOM      1  C   UNL     1      66.614  67.917  69.808  0.00  0.00    +0.000 C 
ATOM      2  C   UNL     1      66.053  67.613  70.331  0.00  0.00    +0.000 C 
ATOM      3  C   UNL     1      65.564  66.992  70.097  0.00  0.00    +0.000 C 
ATOM      4  C   UNL     1      65.003  66.688  70.620  0.00  0.00    +0.000 C 
ATOM      5  C   UNL     1      64.513  66.067  70.386  0.00  0.00    +0.000 C 
ATOM      6  N   UNL     1      63.952  65.763  70.909  0.00  0.00    +0.000 NA
ATOM      7  C   UNL     1      63.882  66.080  71.668  0.00  0.00    +0.000 C 
ATOM      8  C   UNL     1      63.463  65.142  70.675  0.00  0.00    +0.000 C 
ATOM      9  C   UNL     1      62.902  64.838  71.198  0.00  0.00    +0.000 C 
ATOM     10  C   UNL     1      62.412  64.218  70.964  0.00  0.00    +0.000 C 
ATOM     11  O   UNL     1      61.922  63.596  70.729  0.00  0.00    +0.000 OA
ATOM     12  P   UNL     1      62.776  64.209  70.223  0.00  0.00    +0.000 P 
ATOM     13  O   UNL     1      63.141  64.202  69.483  0.00  0.00    +0.000 OA
ATOM     14  O   UNL     1      62.287  63.589  69.989  0.00  0.00    +0.000 OA
ATOM     15  O   UNL     1      63.267  64.831  70.458  0.00  0.00    +0.000 OA
ATOM     16  P   UNL     1      62.048  64.225  71.704  0.00  0.00    +0.000 P 
ATOM     17  O   UNL     1      61.558  63.604  71.468  0.00  0.00    +0.000 OA
ATOM     18  O   UNL     1      61.684  64.233  72.444  0.00  0.00    +0.000 OA
ATOM     19  O   UNL     1      62.538  64.846  71.938  0.00  0.00    +0.000 OA
ENDROOT
TORSDOF 0
ENDMDL
MODEL 4
REMARK VINA RESULT:    -8.691      6.382      7.707
REMARK INTER + INTRA:          -8.691
REMARK INTER:                  -8.691
REMARK INTRA:                   0.000
REMARK UNBOUND:                 0.000
ROOT
REMARK  Name = ibandronic acid
REMARK                            x       y       z     vdW  Elec       q    Type
REMARK                         _______ _______ _______ _____ _____    ______ ____
ATOM      1  C   UNL     1      60.850  61.672  70.640  0.00  0.00    +0.000 C 
ATOM      2  C   UNL     1      60.400  62.210  71.074  0.00  0.00    +0.000 C 
ATOM      3  C   UNL     1      60.422  63.013  70.888  0.00  0.00    +0.000 C 
ATOM      4  C   UNL     1      59.971  63.550  71.322  0.00  0.00    +0.000 C 
ATOM      5  C   UNL     1      59.993  64.353  71.136  0.00  0.00    +0.000 C 
ATOM      6  N   UNL     1      59.542  64.891  71.570  0.00  0.00    +0.000 NA
ATOM      7  C   UNL     1      59.069  64.625  72.192  0.00  0.00    +0.000 C 
ATOM      8  C   UNL     1      59.564  65.694  71.384  0.00  0.00    +0.000 C 
ATOM      9  C   UNL     1      59.114  66.231  71.818  0.00  0.00    +0.000 C 
ATOM     10  C   UNL     1      59.136  67.034  71.632  0.00  0.00    +0.000 C 
ATOM     11  O   UNL     1      59.158  67.838  71.445  0.00  0.00    +0.000 OA
ATOM     12  P   UNL     1      59.669  66.878  71.022  0.00  0.00    +0.000 P 
ATOM     13  O   UNL     1      60.203  66.721  70.413  0.00  0.00    +0.000 OA
ATOM     14  O   UNL     1      59.691  67.681  70.836  0.00  0.00    +0.000 OA
ATOM     15  O   UNL     1      59.647  66.074  71.209  0.00  0.00    +0.000 OA
ATOM     16  P   UNL     1      58.602  67.191  72.241  0.00  0.00    +0.000 P 
ATOM     17  O   UNL     1      58.625  67.994  72.054  0.00  0.00    +0.000 OA
ATOM     18  O   UNL     1      58.069  67.347  72.851  0.00  0.00    +0.000 OA
ATOM     19  O   UNL     1      58.580  66.387  72.427  0.00  0.00    +0.000 OA
ENDROOT
TORSDOF 0
ENDMDL
MODEL 5
REMARK VINA RESULT:    -8.575      4.254      5.469
REMARK INTER + INTRA:          -8.575
REMARK INTER:                  -8.575
REMARK INTRA:                   0.000
REMARK UNBOUND:                 0.000
ROOT
REMARK  Name = ibandronic acid
REMARK                            x       y       z     vdW  Elec       q    Type
REMARK                         _______ _______ _______ _____ _____    ______ ____
ATOM      1  C   UNL     1      59.367  62.042  66.034  0.00  0.00    +0.000 C 
ATOM      2  C   UNL     1      59.495  62.059  66.849  0.00  0.00    +0.000 C 
ATOM      3  C   UNL     1      60.093  62.532  67.163  0.00  0.00    +0.000 C 
ATOM      4  C   UNL     1      60.221  62.550  67.978  0.00  0.00    +0.000 C 
ATOM      5  C   UNL     1      60.818  63.022  68.292  0.00  0.00    +0.000 C 
ATOM      6  N   UNL     1      60.946  63.040  69.107  0.00  0.00    +0.000 NA
ATOM      7  C   UNL     1      60.475  62.583  69.608  0.00  0.00    +0.000 C 
ATOM      8  C   UNL     1      61.544  63.512  69.422  0.00  0.00    +0.000 C 
ATOM      9  C   UNL     1      61.672  63.530  70.237  0.00  0.00    +0.000 C 
ATOM     10  C   UNL     1      62.270  64.002  70.551  0.00  0.00    +0.000 C 
ATOM     11  O   UNL     1      62.869  64.476  70.865  0.00  0.00    +0.000 OA
ATOM     12  P   UNL     1      62.469  64.256  69.791  0.00  0.00    +0.000 P 
ATOM     13  O   UNL     1      62.667  64.510  69.032  0.00  0.00    +0.000 OA
ATOM     14  O   UNL     1      63.067  64.729  70.105  0.00  0.00    +0.000 OA
ATOM     15  O   UNL     1      61.870  63.783  69.477  0.00  0.00    +0.000 OA
ATOM     16  P   UNL     1      62.072  63.749  71.310  0.00  0.00    +0.000 P 
ATOM     17  O   UNL     1      62.670  64.222  71.624  0.00  0.00    +0.000 OA
ATOM     18  O   UNL     1      61.873  63.495  72.070  0.00  0.00    +0.000 OA
ATOM     19  O   UNL     1      61.474  63.276  70.996  0.00  0.00    +0.000 OA
ENDROOT
TORSDOF 0
ENDMDL
MODEL 6
REMARK VINA RESULT:    -8.560      1.833      2.778
REMARK INTER + INTRA:          -8.560
REMARK INTER:                  -8.560
REMARK INTRA:                   0.000
REMARK UNBOUND:                 0.000
ROOT
REMARK  Name = ibandronic acid
REMARK                            x       y       z     vdW  Elec       q    Type
REMARK                         _______ _______ _______ _____ _____    ______ ____
ATOM      1  C   UNL     1      62.829  64.641  71.160  0.00  0.00    +0.000 C 
ATOM      2  C   UNL     1      62.167  64.343  70.767  0.00  0.00    +0.000 C 
ATOM      3  C   UNL     1      62.234  64.073  69.992  0.00  0.00    +0.000 C 
ATOM      4  C   UNL     1      61.572  63.774  69.599  0.00  0.00    +0.000 C 
ATOM      5  C   UNL     1      61.640  63.504  68.823  0.00  0.00    +0.000 C 
ATOM      6  N   UNL     1      60.978  63.206  68.431  0.00  0.00    +0.000 NA
ATOM      7  C   UNL     1      60.248  63.179  68.815  0.00  0.00    +0.000 C 
ATOM      8  C   UNL     1      61.045  62.935  67.655  0.00  0.00    +0.000 C 
ATOM      9  C   UNL     1      60.383  62.637  67.263  0.00  0.00    +0.000 C 
ATOM     10  C   UNL     1      60.450  62.366  66.487  0.00  0.00    +0.000 C 
ATOM     11  O   UNL     1      60.517  62.095  65.710  0.00  0.00    +0.000 OA
ATOM     12  P   UNL     1      61.254  62.554  66.490  0.00  0.00    +0.000 P 
ATOM     13  O   UNL     1      62.057  62.742  66.495  0.00  0.00    +0.000 OA
ATOM     14  O   UNL     1      61.321  62.283  65.715  0.00  0.00    +0.000 OA
ATOM     15  O   UNL     1      61.186  62.825  67.267  0.00  0.00    +0.000 OA
ATOM     16  P   UNL     1      59.647  62.179  66.482  0.00  0.00    +0.000 P 
ATOM     17  O   UNL     1      59.715  61.908  65.706  0.00  0.00    +0.000 OA
ATOM     18  O   UNL     1      58.843  61.991  66.478  0.00  0.00    +0.000 OA
ATOM     19  O   UNL     1      59.580  62.450  67.259  0.00  0.00    +0.000 OA
ENDROOT
TORSDOF 0
ENDMDL
MODEL 7
REMARK VINA RESULT:    -8.497      5.936      7.098
REMARK INTER + INTRA:          -8.497
REMARK INTER:                  -8.497
REMARK INTRA:                   0.000
REMARK UNBOUND:                 0.000
ROOT
REMARK  Name = ibandronic acid
REMARK                            x       y       z     vdW  Elec       q    Type
REMARK                         _______ _______ _______ _____ _____    ______ ____
ATOM      1  C   UNL     1      65.724  67.267  70.218  0.00  0.00    +0.000 C 
ATOM      2  C   UNL     1      65.297  66.568  70.117  0.00  0.00    +0.000 C 
ATOM      3  C   UNL     1      64.696  66.372  70.647  0.00  0.00    +0.000 C 
ATOM      4  C   UNL     1      64.269  65.673  70.546  0.00  0.00    +0.000 C 
ATOM      5  C   UNL     1      63.669  65.476  71.076  0.00  0.00    +0.000 C 
ATOM      6  N   UNL     1      63.242  64.777  70.975  0.00  0.00    +0.000 NA
ATOM      7  C   UNL     1      63.416  64.275  70.344  0.00  0.00    +0.000 C 
ATOM      8  C   UNL     1      62.641  64.581  71.505  0.00  0.00    +0.000 C 
ATOM      9  C   UNL     1      62.214  63.882  71.404  0.00  0.00    +0.000 C 
ATOM     10  C   UNL     1      61.614  63.685  71.934  0.00  0.00    +0.000 C 
ATOM     11  O   UNL     1      61.012  63.488  72.465  0.00  0.00    +0.000 OA
ATOM     12  P   UNL     1      61.759  64.378  72.357  0.00  0.00    +0.000 P 
ATOM     13  O   UNL     1      61.905  65.072  72.779  0.00  0.00    +0.000 OA
ATOM     14  O   UNL     1      61.159  64.182  72.887  0.00  0.00    +0.000 OA
ATOM     15  O   UNL     1      62.360  64.575  71.827  0.00  0.00    +0.000 OA
ATOM     16  P   UNL     1      61.467  62.992  71.512  0.00  0.00    +0.000 P 
ATOM     17  O   UNL     1      60.867  62.795  72.042  0.00  0.00    +0.000 OA
ATOM     18  O   UNL     1      61.322  62.298  71.089  0.00  0.00    +0.000 OA
ATOM     19  O   UNL     1      62.068  63.189  70.982  0.00  0.00    +0.000 OA
ENDROOT
TORSDOF 0
ENDMDL
MODEL 8
REMARK VINA RESULT:    -8.438      4.064      5.108
REMARK INTER + INTRA:          -8.438
REMARK INTER:                  -8.438
REMARK INTRA:                   0.000
REMARK UNBOUND:                 0.000
ROOT
REMARK  Name = ibandronic acid
REMARK                            x       y       z     vdW  Elec       q    Type
REMARK                         _______ _______ _______ _____ _____    ______ ____
ATOM      1  C   UNL     1      65.359  66.814  69.832  0.00  0.00    +0.000 C 
ATOM      2  C   UNL     1      64.868  66.234  70.153  0.00  0.00    +0.000 C 
ATOM      3  C   UNL     1      64.294  65.873  69.684  0.00  0.00    +0.000 C 
ATOM      4  C   UNL     1      63.802  65.293  70.005  0.00  0.00    +0.000 C 
ATOM      5  C   UNL     1      63.229  64.932  69.535  0.00  0.00    +0.000 C 
ATOM      6  N   UNL     1      62.737  64.352  69.856  0.00  0.00    +0.000 NA
ATOM      7  C   UNL     1      62.820  64.133  70.647  0.00  0.00    +0.000 C 
ATOM      8  C   UNL     1      62.164  63.991  69.387  0.00  0.00    +0.000 C 
ATOM      9  C   UNL     1      61.672  63.411  69.708  0.00  0.00    +0.000 C 
ATOM     10  C   UNL     1      61.098  63.050  69.238  0.00  0.00    +0.000 C 
ATOM     11  O   UNL     1      60.524  62.689  68.768  0.00  0.00    +0.000 OA
ATOM     12  P   UNL     1      61.334  63.511  68.595  0.00  0.00    +0.000 P 
ATOM     13  O   UNL     1      61.570  63.972  67.954  0.00  0.00    +0.000 OA
ATOM     14  O   UNL     1      60.760  63.150  68.126  0.00  0.00    +0.000 OA
ATOM     15  O   UNL     1      61.908  63.872  69.066  0.00  0.00    +0.000 OA
ATOM     16  P   UNL     1      60.862  62.589  69.880  0.00  0.00    +0.000 P 
ATOM     17  O   UNL     1      60.289  62.228  69.410  0.00  0.00    +0.000 OA
ATOM     18  O   UNL     1      60.627  62.128  70.523  0.00  0.00    +0.000 OA
ATOM     19  O   UNL     1      61.437  62.950  70.350  0.00  0.00    +0.000 OA
ENDROOT
TORSDOF 0
ENDMDL
MODEL 9
REMARK VINA RESULT:    -8.120      6.164      7.197
REMARK INTER + INTRA:          -8.120
REMARK INTER:                  -8.120
REMARK INTRA:                   0.000
REMARK UNBOUND:                 0.000
ROOT
REMARK  Name = ibandronic acid
REMARK                            x       y       z     vdW  Elec       q    Type
REMARK                         _______ _______ _______ _____ _____    ______ ____
ATOM      1  C   UNL     1      60.487  63.214  72.101  0.00  0.00    +0.000 C 
ATOM      2  C   UNL     1      61.022  63.822  72.259  0.00  0.00    +0.000 C 
ATOM      3  C   UNL     1      61.598  64.020  71.702  0.00  0.00    +0.000 C 
ATOM      4  C   UNL     1      62.133  64.629  71.860  0.00  0.00    +0.000 C 
ATOM      5  C   UNL     1      62.708  64.827  71.304  0.00  0.00    +0.000 C 
ATOM      6  N   UNL     1      63.243  65.435  71.461  0.00  0.00    +0.000 NA
ATOM      7  C   UNL     1      63.202  65.845  72.176  0.00  0.00    +0.000 C 
ATOM      8  C   UNL     1      63.818  65.634  70.905  0.00  0.00    +0.000 C 
ATOM      9  C   UNL     1      64.353  66.242  71.063  0.00  0.00    +0.000 C 
ATOM     10  C   UNL     1      64.928  66.440  70.507  0.00  0.00    +0.000 C 
ATOM     11  O   UNL     1      65.504  66.639  69.949  0.00  0.00    +0.000 OA
ATOM     12  P   UNL     1      64.644  65.852  70.002  0.00  0.00    +0.000 P 
ATOM     13  O   UNL     1      64.358  65.265  69.499  0.00  0.00    +0.000 OA
ATOM     14  O   UNL     1      65.219  66.051  69.446  0.00  0.00    +0.000 OA
ATOM     15  O   UNL     1      64.068  65.654  70.559  0.00  0.00    +0.000 OA
ATOM     16  P   UNL     1      65.214  67.028  71.010  0.00  0.00    +0.000 P 
ATOM     17  O   UNL     1      65.789  67.226  70.453  0.00  0.00    +0.000 OA
ATOM     18  O   UNL     1      65.498  67.616  71.515  0.00  0.00    +0.000 OA
ATOM     19  O   UNL     1      64.638  66.829  71.567  0.00  0.00    +0.000 OA
ENDROOT
TORSDOF 0
ENDMDL
