MODEL 1
REMARK VINA RESULT:    -9.209      0.000      0.000
REMARK INTER + INTRA:          -9.209
REMARK INTER:                  -9.209
REMARK INTRA:                   0.000
REMARK UNBOUND:                 0.000
ROOT
REMARK  Name = ibuprofen
REMARK                            x       y       z     vdW  Elec       q    Type
REMARK                         _______ _______ _______ _____ _____    ______ ____
ATOM      1  C   UNL     1      62.699  61.613  63.427  0.00  0.00    +0.000 C 
ATOM      2  C   UNL     1      62.322  61.843  64.124  0.00  0.00    +0.000 C 
ATOM      3  C   UNL     1      62.707  62.344  64.656  0.00  0.00    +0.000 C 
ATOM      4  C   UNL     1      61.559  61.574  64.289  0.00  0.00    +0.000 C 
ATOM      5  C   UNL     1      61.182  61.804  64.985  0.00  0.00    +0.000 A 
ATOM      6  C   UNL     1      60.420  61.534  65.151  0.00  0.00    +0.000 A 
ATOM      7  C   UNL     1      60.043  61.765  65.847  0.00  0.00    +0.000 A 
ATOM      8  C   UNL     1      60.428  62.265  66.378  0.00  0.00    +0.000 A 
ATOM      9  C   UNL     1      61.190  62.535  66.214  0.00  0.00    +0.000 A 
ATOM     10  C   UNL     1      61.567  62.304  65.517  0.00  0.00    +0.000 A 
ATOM     11  C   UNL     1      60.050  62.495  67.076  0.00  0.00    +0.000 C 
ATOM     12  C   UNL     1      59.289  62.226  67.240  0.00  0.00    +0.000 C 
ATOM     13  C   UNL     1      60.436  62.995  67.607  0.00  0.00    +0.000 C 
ATOM     14  O   UNL     1      60.059  63.226  68.303  0.00  0.00    +0.000 OA
ATOM     15  O   UNL     1      61.198  63.265  67.442  0.00  0.00    +0.000 OA
ENDROOT
TORSDOF 0
ENDMDL
MODEL 2
REMARK VINA RESULT:    -9.141      1.475      3.352
REMARK INTER + INTRA:          -9.141
REMARK INTER:                  -9.141
REMARK INTRA:                   0.000
REMARK UNBOUND:                 0.000
ROOT
REMARK  Name = ibuprofen
REMARK                            x       y       z     vdW  Elec       q    Type
REMARK                         _______ _______ _______ _____ _____    ______ ____
ATOM      1  C   UNL     1      60.119  63.078  68.553  0.00  0.00    +0.000 C 
ATOM      2  C   UNL     1      60.472  62.868  67.838  0.00  0.00    +0.000 C 
ATOM      3  C   UNL     1      61.250  63.093  67.680  0.00  0.00    +0.000 C 
ATOM      4  C   UNL     1      60.047  62.432  67.280  0.00  0.00    +0.000 C 
ATOM      5  C   UNL     1      60.400  62.222  66.566  0.00  0.00    +0.000 A 
ATOM      6  C   UNL     1      59.976  61.786  66.008  0.00  0.00    +0.000 A 
ATOM      7  C   UNL     1      60.329  61.576  65.293  0.00  0.00    +0.000 A 
ATOM      8  C   UNL     1      61.106  61.801  65.135  0.00  0.00    +0.000 A 
ATOM      9  C   UNL     1      61.531  62.236  65.692  0.00  0.00    +0.000 A 
ATOM     10  C   UNL     1      61.178  62.447  66.407  0.00  0.00    +0.000 A 
ATOM     11  C   UNL     1      61.459  61.590  64.419  0.00  0.00    +0.000 C 
ATOM     12  C   UNL     1      61.035  61.155  63.862  0.00  0.00    +0.000 C 
ATOM     13  C   UNL     1      62.238  61.815  64.262  0.00  0.00    +0.000 C 
ATOM     14  O   UNL     1      62.591  61.605  63.546  0.00  0.00    +0.000 OA
ATOM     15  O   UNL     1      62.663  62.251  64.819  0.00  0.00    +0.000 OA
ENDROOT
TORSDOF 0
ENDMDL
MODEL 3
REMARK VINA RESULT:    -8.504      2.949      5.111
REMARK INTER + INTRA:          -8.504
REMARK INTER:                  -8.504
REMARK INTRA:                   0.000
REMARK UNBOUND:                 0.000
ROOT
REMARK  Name = ibuprofen
REMARK                            x       y       z     vdW  Elec       q    Type
REMARK                         _______ _______ _______ _____ _____    ______ ____
ATOM      1  C   UNL     1      61.522  63.018  72.855  0.00  0.00    +0.000 C 
ATOM      2  C   UNL     1      61.474  63.003  72.032  0.00  0.00    +0.000 C 
ATOM      3  C   UNL     1      61.956  63.498  71.580  0.00  0.00    +0.000 C 
ATOM      4  C   UNL     1      60.943  62.492  71.659  0.00  0.00    +0.000 C 
ATOM      5  C   UNL     1      60.894  62.476  70.836  0.00  0.00    +0.000 A 
ATOM      6  C   UNL     1      60.364  61.966  70.464  0.00  0.00    +0.000 A 
ATOM      7  C   UNL     1      60.315  61.950  69.640  0.00  0.00    +0.000 A 
ATOM      8  C   UNL     1      60.797  62.444  69.190  0.00  0.00    +0.000 A 
ATOM      9  C   UNL     1      61.328  62.955  69.561  0.00  0.00    +0.000 A 
ATOM     10  C   UNL     1      61.376  62.971  70.385  0.00  0.00    +0.000 A 
ATOM     11  C   UNL     1      60.748  62.429  68.365  0.00  0.00    +0.000 C 
ATOM     12  C   UNL     1      60.218  61.918  67.993  0.00  0.00    +0.000 C 
ATOM     13  C   UNL     1      61.231  62.924  67.914  0.00  0.00    +0.000 C 
ATOM     14  O   UNL     1      61.182  62.908  67.091  0.00  0.00    +0.000 OA
ATOM     15  O   UNL     1      61.761  63.435  68.286  0.00  0.00    +0.000 OA
ENDROOT
TORSDOF 0
ENDMDL
MODEL 4
REMARK VINA RESULT:    -8.483      3.523      5.077
REMARK INTER + INTRA:          -8.483
REMARK INTER:                  -8.483
REMARK INTRA:                   0.000
REMARK UNBOUND:                 0.000
ROOT
REMARK  Name = ibuprofen
REMARK                            x       y       z     vdW  Elec       q    Type
REMARK                         _______ _______ _______ _____ _____    ______ ____
ATOM      1  C   UNL     1      60.151  62.002  67.899  0.00  0.00    +0.000 C 
ATOM      2  C   UNL     1      60.403  62.328  68.614  0.00  0.00    +0.000 C 
ATOM      3  C   UNL     1      60.549  63.138  68.670  0.00  0.00    +0.000 C 
ATOM      4  C   UNL     1      60.508  61.843  69.274  0.00  0.00    +0.000 C 
ATOM      5  C   UNL     1      60.759  62.168  69.988  0.00  0.00    +0.000 A 
ATOM      6  C   UNL     1      60.865  61.684  70.648  0.00  0.00    +0.000 A 
ATOM      7  C   UNL     1      61.117  62.009  71.363  0.00  0.00    +0.000 A 
ATOM      8  C   UNL     1      61.263  62.818  71.418  0.00  0.00    +0.000 A 
ATOM      9  C   UNL     1      61.158  63.304  70.759  0.00  0.00    +0.000 A 
ATOM     10  C   UNL     1      60.906  62.978  70.044  0.00  0.00    +0.000 A 
ATOM     11  C   UNL     1      61.515  63.144  72.134  0.00  0.00    +0.000 C 
ATOM     12  C   UNL     1      61.620  62.660  72.793  0.00  0.00    +0.000 C 
ATOM     13  C   UNL     1      61.662  63.954  72.189  0.00  0.00    +0.000 C 
ATOM     14  O   UNL     1      61.913  64.280  72.904  0.00  0.00    +0.000 OA
ATOM     15  O   UNL     1      61.557  64.440  71.530  0.00  0.00    +0.000 OA
ENDROOT
TORSDOF 0
ENDMDL
MODEL 5
REMARK VINA RESULT:    -8.215      5.542      6.759
REMARK INTER + INTRA:          -8.215
REMARK INTER:                  -8.215
REMARK INTRA:                   0.000
REMARK UNBOUND:                 0.000
ROOT
REMARK  Name = ibuprofen
REMARK                            x       y       z     vdW  Elec       q    Type
REMARK                         _______ _______ _______ _____ _____    ______ ____
ATOM      1  C   UNL     1      61.631  61.209  71.351  0.00  0.00    +0.000 C 
ATOM      2  C   UNL     1      61.224  61.915  71.479  0.00  0.00    +0.000 C 
ATOM      3  C   UNL     1      60.581  62.114  71.001  0.00  0.00    +0.000 C 
ATOM      4  C   UNL     1      61.460  62.424  72.086  0.00  0.00    +0.000 C 
ATOM      5  C   UNL     1      61.053  63.129  72.213  0.00  0.00    +0.000 A 
ATOM      6  C   UNL     1      61.288  63.637  72.819  0.00  0.00    +0.000 A 
ATOM      7  C   UNL     1      60.881  64.343  72.947  0.00  0.00    +0.000 A 
ATOM      8  C   UNL     1      60.239  64.541  72.469  0.00  0.00    +0.000 A 
ATOM      9  C   UNL     1      60.003  64.034  71.863  0.00  0.00    +0.000 A 
ATOM     10  C   UNL     1      60.410  63.327  71.735  0.00  0.00    +0.000 A 
ATOM     11  C   UNL     1      59.832  65.248  72.598  0.00  0.00    +0.000 C 
ATOM     12  C   UNL     1      60.067  65.756  73.203  0.00  0.00    +0.000 C 
ATOM     13  C   UNL     1      59.189  65.446  72.119  0.00  0.00    +0.000 C 
ATOM     14  O   UNL     1      58.782  66.152  72.247  0.00  0.00    +0.000 OA
ATOM     15  O   UNL     1      58.953  64.938  71.513  0.00  0.00    +0.000 OA
ENDROOT
TORSDOF 0
ENDMDL
MODEL 6
REMARK VINA RESULT:    -8.211      5.710      6.920
REMARK INTER + INTRA:          -8.211
REMARK INTER:                  -8.211
REMARK INTRA:                   0.000
REMARK UNBOUND:                 0.000
ROOT
REMARK  Name = ibuprofen
REMARK                            x       y       z     vdW  Elec       q    Type
REMARK                         _______ _______ _______ _____ _____    ______ ____
ATOM      1  C   UNL     1      66.359  67.784  70.219  0.00  0.00    +0.000 C 
ATOM      2  C   UNL     1      65.753  67.257  70.407  0.00  0.00    +0.000 C 
ATOM      3  C   UNL     1      65.406  67.277  71.156  0.00  0.00    +0.000 C 
ATOM      4  C   UNL     1      65.492  66.710  69.846  0.00  0.00    +0.000 C 
ATOM      5  C   UNL     1      64.887  66.184  70.034  0.00  0.00    +0.000 A 
ATOM      6  C   UNL     1      64.626  65.637  69.474  0.00  0.00    +0.000 A 
ATOM      7  C   UNL     1      64.020  65.110  69.662  0.00  0.00    +0.000 A 
ATOM      8  C   UNL     1      63.674  65.130  70.410  0.00  0.00    +0.000 A 
ATOM      9  C   UNL     1      63.934  65.676  70.971  0.00  0.00    +0.000 A 
ATOM     10  C   UNL     1      64.540  66.203  70.783  0.00  0.00    +0.000 A 
ATOM     11  C   UNL     1      63.067  64.602  70.598  0.00  0.00    +0.000 C 
ATOM     12  C   UNL     1      62.807  64.056  70.038  0.00  0.00    +0.000 C 
ATOM     13  C   UNL     1      62.721  64.622  71.347  0.00  0.00    +0.000 C 
ATOM     14  O   UNL     1      62.115  64.095  71.535  0.00  0.00    +0.000 OA
ATOM     15  O   UNL     1      62.981  65.168  71.908  0.00  0.00    +0.000 OA
ENDROOT
TORSDOF 0
ENDMDL
MODEL 7
REMARK VINA RESULT:    -8.035      4.097      6.073
REMARK INTER + INTRA:          -8.035
REMARK INTER:                  -8.035
REMARK INTRA:                   0.000
REMARK UNBOUND:                 0.000
ROOT
REMARK  Name = ibuprofen
REMARK                            x       y       z     vdW  Elec       q    Type
REMARK                         _______ _______ _______ _____ _____    ______ ____
ATOM      1  C   UNL     1      62.357  65.547  72.685  0.00  0.00    +0.000 C 
ATOM      2  C   UNL     1      62.048  64.987  72.164  0.00  0.00    +0.000 C 
ATOM      3  C   UNL     1      62.002  65.155  71.357  0.00  0.00    +0.000 C 
ATOM      4  C   UNL     1      61.784  64.258  72.449  0.00  0.00    +0.000 C 
ATOM      5  C   UNL     1      61.476  63.699  71.928  0.00  0.00    +0.000 A 
ATOM      6  C   UNL     1      61.212  62.971  72.213  0.00  0.00    +0.000 A 
ATOM      7  C   UNL     1      60.903  62.411  71.692  0.00  0.00    +0.000 A 
ATOM      8  C   UNL     1      60.858  62.579  70.886  0.00  0.00    +0.000 A 
ATOM      9  C   UNL     1      61.121  63.307  70.600  0.00  0.00    +0.000 A 
ATOM     10  C   UNL     1      61.430  63.867  71.121  0.00  0.00    +0.000 A 
ATOM     11  C   UNL     1      60.548  62.019  70.364  0.00  0.00    +0.000 C 
ATOM     12  C   UNL     1      60.286  61.291  70.649  0.00  0.00    +0.000 C 
ATOM     13  C   UNL     1      60.503  62.188  69.558  0.00  0.00    +0.000 C 
ATOM     14  O   UNL     1      60.194  61.628  69.037  0.00  0.00    +0.000 OA
ATOM     15  O   UNL     1      60.766  62.916  69.272  0.00  0.00    +0.000 OA
ENDROOT
TORSDOF 0
ENDMDL
MODEL 8
REMARK VINA RESULT:    -7.679     24.838     25.726
REMARK INTER + INTRA:          -7.679
REMARK INTER:                  -7.679
REMARK INTRA:                   0.000
REMARK UNBOUND:                 0.000
ROOT
REMARK  Name = ibuprofen
REMARK                            x       y       z     vdW  Elec       q    Type
REMARK                         _______ _______ _______ _____ _____    ______ ____
ATOM      1  C   UNL     1      69.405  80.793  52.437  0.00  0.00    +0.000 C 
ATOM      2  C   UNL     1      69.888  80.537  51.819  0.00  0.00    +0.000 C 
ATOM      3  C   UNL     1      70.658  80.826  51.750  0.00  0.00    +0.000 C 
ATOM      4  C   UNL     1      69.601  79.991  51.270  0.00  0.00    +0.000 C 
ATOM      5  C   UNL     1      70.084  79.735  50.653  0.00  0.00    +0.000 A 
ATOM      6  C   UNL     1      69.798  79.189  50.104  0.00  0.00    +0.000 A 
ATOM      7  C   UNL     1      70.281  78.933  49.487  0.00  0.00    +0.000 A 
ATOM      8  C   UNL     1      71.050  79.222  49.418  0.00  0.00    +0.000 A 
ATOM      9  C   UNL     1      71.337  79.768  49.966  0.00  0.00    +0.000 A 
ATOM     10  C   UNL     1      70.854  80.024  50.584  0.00  0.00    +0.000 A 
ATOM     11  C   UNL     1      71.533  78.965  48.799  0.00  0.00    +0.000 C 
ATOM     12  C   UNL     1      71.247  78.420  48.251  0.00  0.00    +0.000 C 
ATOM     13  C   UNL     1      72.303  79.255  48.730  0.00  0.00    +0.000 C 
ATOM     14  O   UNL     1      72.786  78.999  48.113  0.00  0.00    +0.000 OA
ATOM     15  O   UNL     1      72.590  79.801  49.279  0.00  0.00    +0.000 OA
ENDROOT
TORSDOF 0
ENDMDL
MODEL 9
REMARK VINA RESULT:    -7.628      5.786      6.423
REMARK INTER + INTRA:          -7.628
REMARK INTER:                  -7.628
REMARK INTRA:                   0.000
REMARK UNBOUND:                 0.000
ROOT
REMARK  Name = ibuprofen
REMARK                            x       y       z     vdW  Elec       q    Type
REMARK                         _______ _______ _______ _____ _____    ______ ____
ATOM      1  C   UNL     1      65.011  66.287  69.811  0.00  0.00    +0.000 C 
ATOM      2  C   UNL     1      64.454  65.762  70.121  0.00  0.00    +0.000 C 
ATOM      3  C   UNL     1      64.366  65.011  69.789  0.00  0.00    +0.000 C 
ATOM      4  C   UNL     1      63.985  65.988  70.762  0.00  0.00    +0.000 C 
ATOM      5  C   UNL     1      63.430  65.464  71.071  0.00  0.00    +0.000 A 
ATOM      6  C   UNL     1      62.961  65.689  71.711  0.00  0.00    +0.000 A 
ATOM      7  C   UNL     1      62.405  65.164  72.020  0.00  0.00    +0.000 A 
ATOM      8  C   UNL     1      62.317  64.414  71.689  0.00  0.00    +0.000 A 
ATOM      9  C   UNL     1      62.785  64.188  71.049  0.00  0.00    +0.000 A 
ATOM     10  C   UNL     1      63.341  64.712  70.739  0.00  0.00    +0.000 A 
ATOM     11  C   UNL     1      61.760  63.889  71.999  0.00  0.00    +0.000 C 
ATOM     12  C   UNL     1      61.292  64.114  72.639  0.00  0.00    +0.000 C 
ATOM     13  C   UNL     1      61.672  63.138  71.667  0.00  0.00    +0.000 C 
ATOM     14  O   UNL     1      61.116  62.614  71.977  0.00  0.00    +0.000 OA
ATOM     15  O   UNL     1      62.140  62.912  71.027  0.00  0.00    +0.000 OA
ENDROOT
TORSDOF 0
ENDMDL
