MODEL 1
REMARK VINA RESULT:   -12.604      0.000      0.000
REMARK INTER + INTRA:         -12.604
REMARK INTER:                 -12.604
REMARK INTRA:                   0.000
REMARK UNBOUND:                 0.000
ROOT
REMARK  Name = icosapent ethyl
REMARK                            x       y       z     vdW  Elec       q    Type
REMARK                         _______ _______ _______ _____ _____    ______ ____
ATOM      1  C   UNL     1      62.569  61.730  64.191  0.00  0.00    +0.000 C 
ATOM      2  C   UNL     1      61.759  61.610  64.283  0.00  0.00    +0.000 C 
ATOM      3  O   UNL     1      61.385  61.832  64.985  0.00  0.00    +0.000 OA
ATOM      4  C   UNL     1      60.575  61.711  65.077  0.00  0.00    +0.000 C 
ATOM      5  O   UNL     1      60.137  61.369  64.468  0.00  0.00    +0.000 OA
ATOM      6  C   UNL     1      60.201  61.933  65.778  0.00  0.00    +0.000 C 
ATOM      7  C   UNL     1      59.391  61.813  65.871  0.00  0.00    +0.000 C 
ATOM      8  C   UNL     1      59.017  62.035  66.572  0.00  0.00    +0.000 C 
ATOM      9  C   UNL     1      59.455  62.378  67.182  0.00  0.00    +0.000 C 
ATOM     10  C   UNL     1      60.267  62.498  67.089  0.00  0.00    +0.000 C 
ATOM     11  C   UNL     1      60.639  62.276  66.388  0.00  0.00    +0.000 C 
ATOM     12  C   UNL     1      61.451  62.397  66.296  0.00  0.00    +0.000 C 
ATOM     13  C   UNL     1      61.889  62.739  66.905  0.00  0.00    +0.000 C 
ATOM     14  C   UNL     1      61.515  62.961  67.607  0.00  0.00    +0.000 C 
ATOM     15  C   UNL     1      60.705  62.841  67.699  0.00  0.00    +0.000 C 
ATOM     16  C   UNL     1      60.331  63.063  68.400  0.00  0.00    +0.000 C 
ATOM     17  C   UNL     1      60.769  63.406  69.010  0.00  0.00    +0.000 C 
ATOM     18  C   UNL     1      60.397  63.628  69.711  0.00  0.00    +0.000 C 
ATOM     19  C   UNL     1      60.835  63.971  70.321  0.00  0.00    +0.000 C 
ATOM     20  C   UNL     1      61.645  64.091  70.228  0.00  0.00    +0.000 C 
ATOM     21  C   UNL     1      62.083  64.434  70.838  0.00  0.00    +0.000 C 
ATOM     22  C   UNL     1      62.895  64.555  70.746  0.00  0.00    +0.000 C 
ATOM     23  C   UNL     1      63.267  64.332  70.044  0.00  0.00    +0.000 C 
ATOM     24  C   UNL     1      64.079  64.453  69.952  0.00  0.00    +0.000 C 
ENDROOT
TORSDOF 0
ENDMDL
MODEL 2
REMARK VINA RESULT:   -12.320      2.080      5.011
REMARK INTER + INTRA:         -12.320
REMARK INTER:                 -12.320
REMARK INTRA:                   0.000
REMARK UNBOUND:                 0.000
ROOT
REMARK  Name = icosapent ethyl
REMARK                            x       y       z     vdW  Elec       q    Type
REMARK                         _______ _______ _______ _____ _____    ______ ____
ATOM      1  C   UNL     1      64.297  64.993  70.283  0.00  0.00    +0.000 C 
ATOM      2  C   UNL     1      63.585  65.034  70.697  0.00  0.00    +0.000 C 
ATOM      3  O   UNL     1      62.897  64.721  70.368  0.00  0.00    +0.000 OA
ATOM      4  C   UNL     1      62.185  64.763  70.781  0.00  0.00    +0.000 C 
ATOM      5  O   UNL     1      62.161  65.118  71.526  0.00  0.00    +0.000 OA
ATOM      6  C   UNL     1      61.496  64.450  70.452  0.00  0.00    +0.000 C 
ATOM      7  C   UNL     1      60.785  64.491  70.866  0.00  0.00    +0.000 C 
ATOM      8  C   UNL     1      60.096  64.178  70.536  0.00  0.00    +0.000 C 
ATOM      9  C   UNL     1      60.120  63.823  69.792  0.00  0.00    +0.000 C 
ATOM     10  C   UNL     1      60.833  63.781  69.377  0.00  0.00    +0.000 C 
ATOM     11  C   UNL     1      61.520  64.094  69.708  0.00  0.00    +0.000 C 
ATOM     12  C   UNL     1      62.233  64.052  69.293  0.00  0.00    +0.000 C 
ATOM     13  C   UNL     1      62.257  63.697  68.549  0.00  0.00    +0.000 C 
ATOM     14  C   UNL     1      61.568  63.384  68.219  0.00  0.00    +0.000 C 
ATOM     15  C   UNL     1      60.857  63.425  68.633  0.00  0.00    +0.000 C 
ATOM     16  C   UNL     1      60.168  63.112  68.304  0.00  0.00    +0.000 C 
ATOM     17  C   UNL     1      60.192  62.757  67.560  0.00  0.00    +0.000 C 
ATOM     18  C   UNL     1      59.504  62.443  67.229  0.00  0.00    +0.000 C 
ATOM     19  C   UNL     1      59.528  62.088  66.485  0.00  0.00    +0.000 C 
ATOM     20  C   UNL     1      60.240  62.046  66.071  0.00  0.00    +0.000 C 
ATOM     21  C   UNL     1      60.264  61.691  65.327  0.00  0.00    +0.000 C 
ATOM     22  C   UNL     1      60.977  61.649  64.912  0.00  0.00    +0.000 C 
ATOM     23  C   UNL     1      61.665  61.962  65.243  0.00  0.00    +0.000 C 
ATOM     24  C   UNL     1      62.377  61.920  64.828  0.00  0.00    +0.000 C 
ENDROOT
TORSDOF 0
ENDMDL
MODEL 3
REMARK VINA RESULT:   -11.837      2.788      4.893
REMARK INTER + INTRA:         -11.837
REMARK INTER:                 -11.837
REMARK INTRA:                   0.000
REMARK UNBOUND:                 0.000
ROOT
REMARK  Name = icosapent ethyl
REMARK                            x       y       z     vdW  Elec       q    Type
REMARK                         _______ _______ _______ _____ _____    ______ ____
ATOM      1  C   UNL     1      60.911  61.992  68.744  0.00  0.00    +0.000 C 
ATOM      2  C   UNL     1      60.541  62.038  69.479  0.00  0.00    +0.000 C 
ATOM      3  O   UNL     1      60.800  62.588  70.038  0.00  0.00    +0.000 OA
ATOM      4  C   UNL     1      60.430  62.634  70.773  0.00  0.00    +0.000 C 
ATOM      5  O   UNL     1      59.802  62.131  70.951  0.00  0.00    +0.000 OA
ATOM      6  C   UNL     1      60.689  63.184  71.332  0.00  0.00    +0.000 C 
ATOM      7  C   UNL     1      60.319  63.230  72.067  0.00  0.00    +0.000 C 
ATOM      8  C   UNL     1      60.578  63.780  72.626  0.00  0.00    +0.000 C 
ATOM      9  C   UNL     1      61.206  64.283  72.448  0.00  0.00    +0.000 C 
ATOM     10  C   UNL     1      61.577  64.238  71.711  0.00  0.00    +0.000 C 
ATOM     11  C   UNL     1      61.317  63.688  71.154  0.00  0.00    +0.000 C 
ATOM     12  C   UNL     1      61.688  63.642  70.417  0.00  0.00    +0.000 C 
ATOM     13  C   UNL     1      62.316  64.145  70.239  0.00  0.00    +0.000 C 
ATOM     14  C   UNL     1      62.575  64.695  70.798  0.00  0.00    +0.000 C 
ATOM     15  C   UNL     1      62.205  64.741  71.533  0.00  0.00    +0.000 C 
ATOM     16  C   UNL     1      62.464  65.291  72.092  0.00  0.00    +0.000 C 
ATOM     17  C   UNL     1      63.092  65.795  71.914  0.00  0.00    +0.000 C 
ATOM     18  C   UNL     1      63.352  66.344  72.472  0.00  0.00    +0.000 C 
ATOM     19  C   UNL     1      63.980  66.848  72.294  0.00  0.00    +0.000 C 
ATOM     20  C   UNL     1      64.350  66.802  71.558  0.00  0.00    +0.000 C 
ATOM     21  C   UNL     1      64.978  67.306  71.380  0.00  0.00    +0.000 C 
ATOM     22  C   UNL     1      65.349  67.260  70.644  0.00  0.00    +0.000 C 
ATOM     23  C   UNL     1      65.089  66.710  70.086  0.00  0.00    +0.000 C 
ATOM     24  C   UNL     1      65.460  66.664  69.349  0.00  0.00    +0.000 C 
ENDROOT
TORSDOF 0
ENDMDL
MODEL 4
REMARK VINA RESULT:   -11.793      2.509      5.504
REMARK INTER + INTRA:         -11.793
REMARK INTER:                 -11.793
REMARK INTRA:                   0.000
REMARK UNBOUND:                 0.000
ROOT
REMARK  Name = icosapent ethyl
REMARK                            x       y       z     vdW  Elec       q    Type
REMARK                         _______ _______ _______ _____ _____    ______ ____
ATOM      1  C   UNL     1      64.983  66.510  70.041  0.00  0.00    +0.000 C 
ATOM      2  C   UNL     1      64.549  66.323  70.716  0.00  0.00    +0.000 C 
ATOM      3  O   UNL     1      63.932  65.778  70.674  0.00  0.00    +0.000 OA
ATOM      4  C   UNL     1      63.497  65.592  71.349  0.00  0.00    +0.000 C 
ATOM      5  O   UNL     1      63.681  65.951  72.069  0.00  0.00    +0.000 OA
ATOM      6  C   UNL     1      62.880  65.046  71.306  0.00  0.00    +0.000 C 
ATOM      7  C   UNL     1      62.446  64.860  71.982  0.00  0.00    +0.000 C 
ATOM      8  C   UNL     1      61.828  64.315  71.939  0.00  0.00    +0.000 C 
ATOM      9  C   UNL     1      61.644  63.956  71.219  0.00  0.00    +0.000 C 
ATOM     10  C   UNL     1      62.079  64.142  70.542  0.00  0.00    +0.000 C 
ATOM     11  C   UNL     1      62.696  64.687  70.586  0.00  0.00    +0.000 C 
ATOM     12  C   UNL     1      63.131  64.874  69.909  0.00  0.00    +0.000 C 
ATOM     13  C   UNL     1      62.948  64.515  69.190  0.00  0.00    +0.000 C 
ATOM     14  C   UNL     1      62.330  63.969  69.147  0.00  0.00    +0.000 C 
ATOM     15  C   UNL     1      61.896  63.783  69.822  0.00  0.00    +0.000 C 
ATOM     16  C   UNL     1      61.278  63.238  69.779  0.00  0.00    +0.000 C 
ATOM     17  C   UNL     1      61.095  62.879  69.059  0.00  0.00    +0.000 C 
ATOM     18  C   UNL     1      60.477  62.334  69.015  0.00  0.00    +0.000 C 
ATOM     19  C   UNL     1      60.294  61.975  68.295  0.00  0.00    +0.000 C 
ATOM     20  C   UNL     1      60.728  62.161  67.620  0.00  0.00    +0.000 C 
ATOM     21  C   UNL     1      60.545  61.802  66.900  0.00  0.00    +0.000 C 
ATOM     22  C   UNL     1      60.979  61.988  66.223  0.00  0.00    +0.000 C 
ATOM     23  C   UNL     1      61.597  62.534  66.267  0.00  0.00    +0.000 C 
ATOM     24  C   UNL     1      62.031  62.720  65.590  0.00  0.00    +0.000 C 
ENDROOT
TORSDOF 0
ENDMDL
MODEL 5
REMARK VINA RESULT:   -11.551      3.825      5.654
REMARK INTER + INTRA:         -11.551
REMARK INTER:                 -11.551
REMARK INTRA:                   0.000
REMARK UNBOUND:                 0.000
ROOT
REMARK  Name = icosapent ethyl
REMARK                            x       y       z     vdW  Elec       q    Type
REMARK                         _______ _______ _______ _____ _____    ______ ____
ATOM      1  C   UNL     1      61.265  63.168  72.841  0.00  0.00    +0.000 C 
ATOM      2  C   UNL     1      60.964  63.356  72.097  0.00  0.00    +0.000 C 
ATOM      3  O   UNL     1      61.388  63.851  71.592  0.00  0.00    +0.000 OA
ATOM      4  C   UNL     1      61.087  64.039  70.848  0.00  0.00    +0.000 C 
ATOM      5  O   UNL     1      60.360  63.732  70.608  0.00  0.00    +0.000 OA
ATOM      6  C   UNL     1      61.511  64.535  70.343  0.00  0.00    +0.000 C 
ATOM      7  C   UNL     1      61.210  64.723  69.599  0.00  0.00    +0.000 C 
ATOM      8  C   UNL     1      61.634  65.218  69.094  0.00  0.00    +0.000 C 
ATOM      9  C   UNL     1      62.362  65.526  69.334  0.00  0.00    +0.000 C 
ATOM     10  C   UNL     1      62.664  65.338  70.079  0.00  0.00    +0.000 C 
ATOM     11  C   UNL     1      62.239  64.842  70.583  0.00  0.00    +0.000 C 
ATOM     12  C   UNL     1      62.541  64.654  71.328  0.00  0.00    +0.000 C 
ATOM     13  C   UNL     1      63.268  64.961  71.567  0.00  0.00    +0.000 C 
ATOM     14  C   UNL     1      63.693  65.457  71.062  0.00  0.00    +0.000 C 
ATOM     15  C   UNL     1      63.391  65.645  70.319  0.00  0.00    +0.000 C 
ATOM     16  C   UNL     1      63.816  66.140  69.813  0.00  0.00    +0.000 C 
ATOM     17  C   UNL     1      64.543  66.448  70.053  0.00  0.00    +0.000 C 
ATOM     18  C   UNL     1      64.968  66.943  69.549  0.00  0.00    +0.000 C 
ATOM     19  C   UNL     1      65.695  67.250  69.789  0.00  0.00    +0.000 C 
ATOM     20  C   UNL     1      65.997  67.062  70.533  0.00  0.00    +0.000 C 
ATOM     21  C   UNL     1      66.724  67.370  70.773  0.00  0.00    +0.000 C 
ATOM     22  C   UNL     1      67.027  67.181  71.518  0.00  0.00    +0.000 C 
ATOM     23  C   UNL     1      66.601  66.686  72.022  0.00  0.00    +0.000 C 
ATOM     24  C   UNL     1      66.904  66.498  72.767  0.00  0.00    +0.000 C 
ENDROOT
TORSDOF 0
ENDMDL
MODEL 6
REMARK VINA RESULT:   -11.406      2.281      3.609
REMARK INTER + INTRA:         -11.406
REMARK INTER:                 -11.406
REMARK INTRA:                   0.000
REMARK UNBOUND:                 0.000
ROOT
REMARK  Name = icosapent ethyl
REMARK                            x       y       z     vdW  Elec       q    Type
REMARK                         _______ _______ _______ _____ _____    ______ ____
ATOM      1  C   UNL     1      61.196  63.304  66.808  0.00  0.00    +0.000 C 
ATOM      2  C   UNL     1      61.047  62.630  67.259  0.00  0.00    +0.000 C 
ATOM      3  O   UNL     1      60.914  62.698  68.071  0.00  0.00    +0.000 OA
ATOM      4  C   UNL     1      60.764  62.024  68.522  0.00  0.00    +0.000 C 
ATOM      5  O   UNL     1      60.748  61.282  68.162  0.00  0.00    +0.000 OA
ATOM      6  C   UNL     1      60.631  62.091  69.333  0.00  0.00    +0.000 C 
ATOM      7  C   UNL     1      60.482  61.418  69.784  0.00  0.00    +0.000 C 
ATOM      8  C   UNL     1      60.349  61.485  70.596  0.00  0.00    +0.000 C 
ATOM      9  C   UNL     1      60.364  62.227  70.956  0.00  0.00    +0.000 C 
ATOM     10  C   UNL     1      60.514  62.902  70.504  0.00  0.00    +0.000 C 
ATOM     11  C   UNL     1      60.647  62.833  69.693  0.00  0.00    +0.000 C 
ATOM     12  C   UNL     1      60.796  63.508  69.242  0.00  0.00    +0.000 C 
ATOM     13  C   UNL     1      60.812  64.251  69.602  0.00  0.00    +0.000 C 
ATOM     14  C   UNL     1      60.679  64.318  70.413  0.00  0.00    +0.000 C 
ATOM     15  C   UNL     1      60.530  63.644  70.864  0.00  0.00    +0.000 C 
ATOM     16  C   UNL     1      60.396  63.712  71.676  0.00  0.00    +0.000 C 
ATOM     17  C   UNL     1      60.412  64.454  72.036  0.00  0.00    +0.000 C 
ATOM     18  C   UNL     1      60.279  64.522  72.847  0.00  0.00    +0.000 C 
ATOM     19  C   UNL     1      60.295  65.264  73.207  0.00  0.00    +0.000 C 
ATOM     20  C   UNL     1      60.444  65.938  72.756  0.00  0.00    +0.000 C 
ATOM     21  C   UNL     1      60.460  66.680  73.116  0.00  0.00    +0.000 C 
ATOM     22  C   UNL     1      60.610  67.355  72.664  0.00  0.00    +0.000 C 
ATOM     23  C   UNL     1      60.743  67.287  71.853  0.00  0.00    +0.000 C 
ATOM     24  C   UNL     1      60.892  67.961  71.401  0.00  0.00    +0.000 C 
ENDROOT
TORSDOF 0
ENDMDL
MODEL 7
REMARK VINA RESULT:   -11.065      3.418      6.238
REMARK INTER + INTRA:         -11.065
REMARK INTER:                 -11.065
REMARK INTRA:                   0.000
REMARK UNBOUND:                 0.000
ROOT
REMARK  Name = icosapent ethyl
REMARK                            x       y       z     vdW  Elec       q    Type
REMARK                         _______ _______ _______ _____ _____    ______ ____
ATOM      1  C   UNL     1      59.207  68.009  71.124  0.00  0.00    +0.000 C 
ATOM      2  C   UNL     1      59.424  67.630  71.823  0.00  0.00    +0.000 C 
ATOM      3  O   UNL     1      59.628  66.830  71.813  0.00  0.00    +0.000 OA
ATOM      4  C   UNL     1      59.846  66.451  72.512  0.00  0.00    +0.000 C 
ATOM      5  O   UNL     1      59.859  66.870  73.222  0.00  0.00    +0.000 OA
ATOM      6  C   UNL     1      60.050  65.651  72.502  0.00  0.00    +0.000 C 
ATOM      7  C   UNL     1      60.267  65.272  73.201  0.00  0.00    +0.000 C 
ATOM      8  C   UNL     1      60.471  64.472  73.191  0.00  0.00    +0.000 C 
ATOM      9  C   UNL     1      60.458  64.053  72.481  0.00  0.00    +0.000 C 
ATOM     10  C   UNL     1      60.240  64.432  71.780  0.00  0.00    +0.000 C 
ATOM     11  C   UNL     1      60.036  65.232  71.792  0.00  0.00    +0.000 C 
ATOM     12  C   UNL     1      59.819  65.611  71.092  0.00  0.00    +0.000 C 
ATOM     13  C   UNL     1      59.805  65.192  70.382  0.00  0.00    +0.000 C 
ATOM     14  C   UNL     1      60.009  64.392  70.372  0.00  0.00    +0.000 C 
ATOM     15  C   UNL     1      60.227  64.013  71.070  0.00  0.00    +0.000 C 
ATOM     16  C   UNL     1      60.431  63.213  71.060  0.00  0.00    +0.000 C 
ATOM     17  C   UNL     1      60.417  62.793  70.350  0.00  0.00    +0.000 C 
ATOM     18  C   UNL     1      60.621  61.994  70.339  0.00  0.00    +0.000 C 
ATOM     19  C   UNL     1      60.607  61.574  69.629  0.00  0.00    +0.000 C 
ATOM     20  C   UNL     1      60.390  61.954  68.930  0.00  0.00    +0.000 C 
ATOM     21  C   UNL     1      60.376  61.534  68.220  0.00  0.00    +0.000 C 
ATOM     22  C   UNL     1      60.158  61.914  67.520  0.00  0.00    +0.000 C 
ATOM     23  C   UNL     1      59.955  62.713  67.531  0.00  0.00    +0.000 C 
ATOM     24  C   UNL     1      59.737  63.093  66.831  0.00  0.00    +0.000 C 
ENDROOT
TORSDOF 0
ENDMDL
MODEL 8
REMARK VINA RESULT:   -11.061      4.741      6.068
REMARK INTER + INTRA:         -11.061
REMARK INTER:                 -11.061
REMARK INTRA:                   0.000
REMARK UNBOUND:                 0.000
ROOT
REMARK  Name = icosapent ethyl
REMARK                            x       y       z     vdW  Elec       q    Type
REMARK                         _______ _______ _______ _____ _____    ______ ____
ATOM      1  C   UNL     1      58.701  66.892  73.222  0.00  0.00    +0.000 C 
ATOM      2  C   UNL     1      58.600  66.122  72.946  0.00  0.00    +0.000 C 
ATOM      3  O   UNL     1      59.227  65.729  72.581  0.00  0.00    +0.000 OA
ATOM      4  C   UNL     1      59.127  64.959  72.304  0.00  0.00    +0.000 C 
ATOM      5  O   UNL     1      58.399  64.581  72.392  0.00  0.00    +0.000 OA
ATOM      6  C   UNL     1      59.754  64.566  71.939  0.00  0.00    +0.000 C 
ATOM      7  C   UNL     1      59.653  63.796  71.662  0.00  0.00    +0.000 C 
ATOM      8  C   UNL     1      60.280  63.403  71.297  0.00  0.00    +0.000 C 
ATOM      9  C   UNL     1      61.008  63.781  71.209  0.00  0.00    +0.000 C 
ATOM     10  C   UNL     1      61.109  64.552  71.486  0.00  0.00    +0.000 C 
ATOM     11  C   UNL     1      60.482  64.944  71.851  0.00  0.00    +0.000 C 
ATOM     12  C   UNL     1      60.583  65.715  72.128  0.00  0.00    +0.000 C 
ATOM     13  C   UNL     1      61.311  66.093  72.040  0.00  0.00    +0.000 C 
ATOM     14  C   UNL     1      61.938  65.700  71.675  0.00  0.00    +0.000 C 
ATOM     15  C   UNL     1      61.837  64.930  71.398  0.00  0.00    +0.000 C 
ATOM     16  C   UNL     1      62.464  64.537  71.033  0.00  0.00    +0.000 C 
ATOM     17  C   UNL     1      63.192  64.915  70.946  0.00  0.00    +0.000 C 
ATOM     18  C   UNL     1      63.820  64.523  70.581  0.00  0.00    +0.000 C 
ATOM     19  C   UNL     1      64.548  64.901  70.493  0.00  0.00    +0.000 C 
ATOM     20  C   UNL     1      64.649  65.671  70.770  0.00  0.00    +0.000 C 
ATOM     21  C   UNL     1      65.377  66.049  70.682  0.00  0.00    +0.000 C 
ATOM     22  C   UNL     1      65.478  66.820  70.959  0.00  0.00    +0.000 C 
ATOM     23  C   UNL     1      64.850  67.212  71.324  0.00  0.00    +0.000 C 
ATOM     24  C   UNL     1      64.951  67.983  71.601  0.00  0.00    +0.000 C 
ENDROOT
TORSDOF 0
ENDMDL
MODEL 9
REMARK VINA RESULT:   -10.210      4.733      5.923
REMARK INTER + INTRA:         -10.210
REMARK INTER:                 -10.210
REMARK INTRA:                   0.000
REMARK UNBOUND:                 0.000
ROOT
REMARK  Name = icosapent ethyl
REMARK                            x       y       z     vdW  Elec       q    Type
REMARK                         _______ _______ _______ _____ _____    ______ ____
ATOM      1  C   UNL     1      59.846  66.853  68.881  0.00  0.00    +0.000 C 
ATOM      2  C   UNL     1      59.759  66.320  69.505  0.00  0.00    +0.000 C 
ATOM      3  O   UNL     1      60.407  66.132  69.981  0.00  0.00    +0.000 OA
ATOM      4  C   UNL     1      60.320  65.600  70.604  0.00  0.00    +0.000 C 
ATOM      5  O   UNL     1      59.585  65.255  70.753  0.00  0.00    +0.000 OA
ATOM      6  C   UNL     1      60.967  65.412  71.080  0.00  0.00    +0.000 C 
ATOM      7  C   UNL     1      60.880  64.879  71.704  0.00  0.00    +0.000 C 
ATOM      8  C   UNL     1      61.527  64.691  72.180  0.00  0.00    +0.000 C 
ATOM      9  C   UNL     1      62.262  65.036  72.032  0.00  0.00    +0.000 C 
ATOM     10  C   UNL     1      62.349  65.569  71.407  0.00  0.00    +0.000 C 
ATOM     11  C   UNL     1      61.702  65.756  70.932  0.00  0.00    +0.000 C 
ATOM     12  C   UNL     1      61.789  66.290  70.308  0.00  0.00    +0.000 C 
ATOM     13  C   UNL     1      62.524  66.634  70.159  0.00  0.00    +0.000 C 
ATOM     14  C   UNL     1      63.171  66.446  70.635  0.00  0.00    +0.000 C 
ATOM     15  C   UNL     1      63.084  65.914  71.259  0.00  0.00    +0.000 C 
ATOM     16  C   UNL     1      63.731  65.726  71.735  0.00  0.00    +0.000 C 
ATOM     17  C   UNL     1      64.466  66.070  71.586  0.00  0.00    +0.000 C 
ATOM     18  C   UNL     1      65.113  65.883  72.062  0.00  0.00    +0.000 C 
ATOM     19  C   UNL     1      65.848  66.228  71.913  0.00  0.00    +0.000 C 
ATOM     20  C   UNL     1      65.935  66.760  71.290  0.00  0.00    +0.000 C 
ATOM     21  C   UNL     1      66.670  67.105  71.141  0.00  0.00    +0.000 C 
ATOM     22  C   UNL     1      66.757  67.638  70.517  0.00  0.00    +0.000 C 
ATOM     23  C   UNL     1      66.109  67.826  70.042  0.00  0.00    +0.000 C 
ATOM     24  C   UNL     1      66.197  68.359  69.418  0.00  0.00    +0.000 C 
ENDROOT
TORSDOF 0
ENDMDL
