MODEL 1
REMARK VINA RESULT:   -14.109      0.000      0.000
REMARK INTER + INTRA:         -14.109
REMARK INTER:                 -14.109
REMARK INTRA:                   0.000
REMARK UNBOUND:                 0.000
ROOT
REMARK  Name = idanpramine
REMARK                            x       y       z     vdW  Elec       q    Type
REMARK                         _______ _______ _______ _____ _____    ______ ____
ATOM      1  C   UNL     1      64.724  65.110  70.237  0.00  0.00    +0.000 C 
ATOM      2  O   UNL     1      64.019  65.149  70.663  0.00  0.00    +0.000 OA
ATOM      3  C   UNL     1      63.326  64.831  70.347  0.00  0.00    +0.000 A 
ATOM      4  C   UNL     1      62.622  64.871  70.774  0.00  0.00    +0.000 A 
ATOM      5  C   UNL     1      61.929  64.553  70.458  0.00  0.00    +0.000 A 
ATOM      6  C   UNL     1      61.942  64.195  69.714  0.00  0.00    +0.000 A 
ATOM      7  C   UNL     1      62.647  64.156  69.286  0.00  0.00    +0.000 A 
ATOM      8  C   UNL     1      63.339  64.474  69.603  0.00  0.00    +0.000 A 
ATOM      9  C   UNL     1      61.250  63.877  69.397  0.00  0.00    +0.000 C 
ATOM     10  N   UNL     1      60.487  63.614  69.228  0.00  0.00    +0.000 NA
ATOM     11  C   UNL     1      60.498  63.256  68.484  0.00  0.00    +0.000 C 
ATOM     12  O   UNL     1      59.853  62.916  68.099  0.00  0.00    +0.000 OA
ATOM     13  N   UNL     1      61.269  63.299  68.194  0.00  0.00    +0.000 N 
ATOM     14  C   UNL     1      61.531  63.009  67.468  0.00  0.00    +0.000 C 
ATOM     15  C   UNL     1      61.001  62.636  66.957  0.00  0.00    +0.000 C 
ATOM     16  N   UNL     1      61.262  62.346  66.231  0.00  0.00    +0.000 NA
ATOM     17  C   UNL     1      60.731  61.973  65.721  0.00  0.00    +0.000 C 
ATOM     18  C   UNL     1      60.993  61.682  64.993  0.00  0.00    +0.000 C 
ATOM     19  C   UNL     1      61.785  61.766  64.777  0.00  0.00    +0.000 C 
ATOM     20  C   UNL     1      62.315  62.139  65.286  0.00  0.00    +0.000 C 
ATOM     21  C   UNL     1      62.053  62.429  66.014  0.00  0.00    +0.000 C 
ATOM     22  C   UNL     1      61.734  63.683  68.758  0.00  0.00    +0.000 C 
ATOM     23  O   UNL     1      62.541  63.844  68.695  0.00  0.00    +0.000 OA
ATOM     24  C   UNL     1      60.910  64.138  70.102  0.00  0.00    +0.000 A 
ATOM     25  C   UNL     1      61.374  64.522  70.667  0.00  0.00    +0.000 A 
ATOM     26  C   UNL     1      61.035  64.783  71.372  0.00  0.00    +0.000 A 
ATOM     27  C   UNL     1      60.231  64.660  71.512  0.00  0.00    +0.000 A 
ATOM     28  O   UNL     1      59.891  64.921  72.218  0.00  0.00    +0.000 OA
ATOM     29  C   UNL     1      59.088  64.798  72.359  0.00  0.00    +0.000 C 
ATOM     30  C   UNL     1      59.767  64.276  70.948  0.00  0.00    +0.000 A 
ATOM     31  C   UNL     1      60.106  64.015  70.243  0.00  0.00    +0.000 A 
ENDROOT
TORSDOF 0
ENDMDL
MODEL 2
REMARK VINA RESULT:   -13.532      3.348      5.017
REMARK INTER + INTRA:         -13.532
REMARK INTER:                 -13.532
REMARK INTRA:                   0.000
REMARK UNBOUND:                 0.000
ROOT
REMARK  Name = idanpramine
REMARK                            x       y       z     vdW  Elec       q    Type
REMARK                         _______ _______ _______ _____ _____    ______ ____
ATOM      1  C   UNL     1      60.749  61.690  70.823  0.00  0.00    +0.000 C 
ATOM      2  O   UNL     1      60.157  62.169  71.140  0.00  0.00    +0.000 OA
ATOM      3  C   UNL     1      60.331  62.941  71.373  0.00  0.00    +0.000 A 
ATOM      4  C   UNL     1      59.738  63.419  71.691  0.00  0.00    +0.000 A 
ATOM      5  C   UNL     1      59.912  64.191  71.924  0.00  0.00    +0.000 A 
ATOM      6  C   UNL     1      60.679  64.485  71.840  0.00  0.00    +0.000 A 
ATOM      7  C   UNL     1      61.272  64.006  71.522  0.00  0.00    +0.000 A 
ATOM      8  C   UNL     1      61.098  63.234  71.289  0.00  0.00    +0.000 A 
ATOM      9  C   UNL     1      60.853  65.257  72.073  0.00  0.00    +0.000 C 
ATOM     10  N   UNL     1      60.861  66.034  72.349  0.00  0.00    +0.000 NA
ATOM     11  C   UNL     1      61.627  66.328  72.265  0.00  0.00    +0.000 C 
ATOM     12  O   UNL     1      61.881  67.084  72.473  0.00  0.00    +0.000 OA
ATOM     13  N   UNL     1      62.093  65.732  71.937  0.00  0.00    +0.000 N 
ATOM     14  C   UNL     1      62.897  65.788  71.758  0.00  0.00    +0.000 C 
ATOM     15  C   UNL     1      63.305  66.489  71.908  0.00  0.00    +0.000 C 
ATOM     16  N   UNL     1      64.108  66.544  71.730  0.00  0.00    +0.000 NA
ATOM     17  C   UNL     1      64.516  67.246  71.880  0.00  0.00    +0.000 C 
ATOM     18  C   UNL     1      65.320  67.302  71.702  0.00  0.00    +0.000 C 
ATOM     19  C   UNL     1      65.716  66.656  71.373  0.00  0.00    +0.000 C 
ATOM     20  C   UNL     1      65.308  65.956  71.223  0.00  0.00    +0.000 C 
ATOM     21  C   UNL     1      64.504  65.900  71.402  0.00  0.00    +0.000 C 
ATOM     22  C   UNL     1      61.615  65.070  71.818  0.00  0.00    +0.000 C 
ATOM     23  O   UNL     1      61.857  64.348  71.500  0.00  0.00    +0.000 OA
ATOM     24  C   UNL     1      60.055  65.282  72.279  0.00  0.00    +0.000 A 
ATOM     25  C   UNL     1      59.576  64.620  72.160  0.00  0.00    +0.000 A 
ATOM     26  C   UNL     1      58.778  64.646  72.366  0.00  0.00    +0.000 A 
ATOM     27  C   UNL     1      58.458  65.333  72.691  0.00  0.00    +0.000 A 
ATOM     28  O   UNL     1      57.660  65.359  72.897  0.00  0.00    +0.000 OA
ATOM     29  C   UNL     1      57.339  66.046  73.222  0.00  0.00    +0.000 C 
ATOM     30  C   UNL     1      58.937  65.995  72.810  0.00  0.00    +0.000 A 
ATOM     31  C   UNL     1      59.735  65.970  72.604  0.00  0.00    +0.000 A 
ENDROOT
TORSDOF 0
ENDMDL
MODEL 3
REMARK VINA RESULT:   -13.319      1.862      3.837
REMARK INTER + INTRA:         -13.319
REMARK INTER:                 -13.319
REMARK INTRA:                   0.000
REMARK UNBOUND:                 0.000
ROOT
REMARK  Name = idanpramine
REMARK                            x       y       z     vdW  Elec       q    Type
REMARK                         _______ _______ _______ _____ _____    ______ ____
ATOM      1  C   UNL     1      60.663  67.249  73.040  0.00  0.00    +0.000 C 
ATOM      2  O   UNL     1      61.485  67.301  72.992  0.00  0.00    +0.000 OA
ATOM      3  C   UNL     1      61.892  66.876  72.415  0.00  0.00    +0.000 A 
ATOM      4  C   UNL     1      62.714  66.929  72.367  0.00  0.00    +0.000 A 
ATOM      5  C   UNL     1      63.122  66.503  71.790  0.00  0.00    +0.000 A 
ATOM      6  C   UNL     1      62.708  66.024  71.260  0.00  0.00    +0.000 A 
ATOM      7  C   UNL     1      61.886  65.971  71.308  0.00  0.00    +0.000 A 
ATOM      8  C   UNL     1      61.478  66.397  71.885  0.00  0.00    +0.000 A 
ATOM      9  C   UNL     1      63.115  65.599  70.683  0.00  0.00    +0.000 C 
ATOM     10  N   UNL     1      63.662  65.246  70.177  0.00  0.00    +0.000 NA
ATOM     11  C   UNL     1      63.249  64.767  69.647  0.00  0.00    +0.000 C 
ATOM     12  O   UNL     1      63.580  64.312  69.044  0.00  0.00    +0.000 OA
ATOM     13  N   UNL     1      62.446  64.824  69.827  0.00  0.00    +0.000 N 
ATOM     14  C   UNL     1      61.832  64.435  69.435  0.00  0.00    +0.000 C 
ATOM     15  C   UNL     1      61.999  63.936  68.800  0.00  0.00    +0.000 C 
ATOM     16  N   UNL     1      61.386  63.547  68.409  0.00  0.00    +0.000 NA
ATOM     17  C   UNL     1      61.553  63.047  67.774  0.00  0.00    +0.000 C 
ATOM     18  C   UNL     1      60.940  62.658  67.382  0.00  0.00    +0.000 C 
ATOM     19  C   UNL     1      60.159  62.770  67.626  0.00  0.00    +0.000 C 
ATOM     20  C   UNL     1      59.992  63.269  68.260  0.00  0.00    +0.000 C 
ATOM     21  C   UNL     1      60.606  63.658  68.652  0.00  0.00    +0.000 C 
ATOM     22  C   UNL     1      62.364  65.338  70.467  0.00  0.00    +0.000 C 
ATOM     23  O   UNL     1      61.653  65.553  70.828  0.00  0.00    +0.000 OA
ATOM     24  C   UNL     1      63.783  65.948  71.020  0.00  0.00    +0.000 A 
ATOM     25  C   UNL     1      63.700  66.462  71.660  0.00  0.00    +0.000 A 
ATOM     26  C   UNL     1      64.367  66.812  71.997  0.00  0.00    +0.000 A 
ATOM     27  C   UNL     1      65.117  66.648  71.693  0.00  0.00    +0.000 A 
ATOM     28  O   UNL     1      65.784  66.997  72.029  0.00  0.00    +0.000 OA
ATOM     29  C   UNL     1      66.533  66.833  71.726  0.00  0.00    +0.000 C 
ATOM     30  C   UNL     1      65.199  66.134  71.052  0.00  0.00    +0.000 A 
ATOM     31  C   UNL     1      64.532  65.784  70.716  0.00  0.00    +0.000 A 
ENDROOT
TORSDOF 0
ENDMDL
MODEL 4
REMARK VINA RESULT:   -13.269      1.938      4.713
REMARK INTER + INTRA:         -13.269
REMARK INTER:                 -13.269
REMARK INTRA:                   0.000
REMARK UNBOUND:                 0.000
ROOT
REMARK  Name = idanpramine
REMARK                            x       y       z     vdW  Elec       q    Type
REMARK                         _______ _______ _______ _____ _____    ______ ____
ATOM      1  C   UNL     1      61.621  62.386  73.220  0.00  0.00    +0.000 C 
ATOM      2  O   UNL     1      61.277  62.299  72.475  0.00  0.00    +0.000 OA
ATOM      3  C   UNL     1      61.549  62.749  71.840  0.00  0.00    +0.000 A 
ATOM      4  C   UNL     1      61.204  62.661  71.095  0.00  0.00    +0.000 A 
ATOM      5  C   UNL     1      61.476  63.112  70.460  0.00  0.00    +0.000 A 
ATOM      6  C   UNL     1      62.092  63.649  70.569  0.00  0.00    +0.000 A 
ATOM      7  C   UNL     1      62.437  63.737  71.313  0.00  0.00    +0.000 A 
ATOM      8  C   UNL     1      62.165  63.287  71.949  0.00  0.00    +0.000 A 
ATOM      9  C   UNL     1      62.364  64.100  69.933  0.00  0.00    +0.000 C 
ATOM     10  N   UNL     1      62.515  64.465  69.210  0.00  0.00    +0.000 NA
ATOM     11  C   UNL     1      63.131  65.003  69.318  0.00  0.00    +0.000 C 
ATOM     12  O   UNL     1      63.460  65.488  68.737  0.00  0.00    +0.000 OA
ATOM     13  N   UNL     1      63.362  64.970  70.109  0.00  0.00    +0.000 N 
ATOM     14  C   UNL     1      63.960  65.416  70.459  0.00  0.00    +0.000 C 
ATOM     15  C   UNL     1      64.391  65.956  70.008  0.00  0.00    +0.000 C 
ATOM     16  N   UNL     1      64.989  66.402  70.358  0.00  0.00    +0.000 NA
ATOM     17  C   UNL     1      65.420  66.942  69.905  0.00  0.00    +0.000 C 
ATOM     18  C   UNL     1      66.019  67.389  70.255  0.00  0.00    +0.000 C 
ATOM     19  C   UNL     1      66.188  67.295  71.058  0.00  0.00    +0.000 C 
ATOM     20  C   UNL     1      65.758  66.756  71.509  0.00  0.00    +0.000 C 
ATOM     21  C   UNL     1      65.159  66.309  71.160  0.00  0.00    +0.000 C 
ATOM     22  C   UNL     1      62.887  64.411  70.489  0.00  0.00    +0.000 C 
ATOM     23  O   UNL     1      62.929  64.202  71.287  0.00  0.00    +0.000 OA
ATOM     24  C   UNL     1      61.784  63.694  69.510  0.00  0.00    +0.000 A 
ATOM     25  C   UNL     1      61.310  63.136  69.890  0.00  0.00    +0.000 A 
ATOM     26  C   UNL     1      60.730  62.730  69.466  0.00  0.00    +0.000 A 
ATOM     27  C   UNL     1      60.624  62.883  68.662  0.00  0.00    +0.000 A 
ATOM     28  O   UNL     1      60.045  62.477  68.238  0.00  0.00    +0.000 OA
ATOM     29  C   UNL     1      59.938  62.629  67.434  0.00  0.00    +0.000 C 
ATOM     30  C   UNL     1      61.099  63.441  68.282  0.00  0.00    +0.000 A 
ATOM     31  C   UNL     1      61.679  63.847  68.706  0.00  0.00    +0.000 A 
ENDROOT
TORSDOF 0
ENDMDL
MODEL 5
REMARK VINA RESULT:   -13.214      2.313      5.052
REMARK INTER + INTRA:         -13.214
REMARK INTER:                 -13.214
REMARK INTRA:                   0.000
REMARK UNBOUND:                 0.000
ROOT
REMARK  Name = idanpramine
REMARK                            x       y       z     vdW  Elec       q    Type
REMARK                         _______ _______ _______ _____ _____    ______ ____
ATOM      1  C   UNL     1      62.003  60.851  72.398  0.00  0.00    +0.000 C 
ATOM      2  O   UNL     1      61.669  60.887  71.645  0.00  0.00    +0.000 OA
ATOM      3  C   UNL     1      61.515  61.618  71.295  0.00  0.00    +0.000 A 
ATOM      4  C   UNL     1      61.180  61.653  70.542  0.00  0.00    +0.000 A 
ATOM      5  C   UNL     1      61.027  62.384  70.192  0.00  0.00    +0.000 A 
ATOM      6  C   UNL     1      61.208  63.081  70.596  0.00  0.00    +0.000 A 
ATOM      7  C   UNL     1      61.543  63.046  71.349  0.00  0.00    +0.000 A 
ATOM      8  C   UNL     1      61.696  62.315  71.699  0.00  0.00    +0.000 A 
ATOM      9  C   UNL     1      61.054  63.812  70.246  0.00  0.00    +0.000 C 
ATOM     10  N   UNL     1      60.842  64.448  69.766  0.00  0.00    +0.000 NA
ATOM     11  C   UNL     1      61.023  65.145  70.169  0.00  0.00    +0.000 C 
ATOM     12  O   UNL     1      60.901  65.911  69.891  0.00  0.00    +0.000 OA
ATOM     13  N   UNL     1      61.347  64.939  70.899  0.00  0.00    +0.000 N 
ATOM     14  C   UNL     1      61.606  65.464  71.480  0.00  0.00    +0.000 C 
ATOM     15  C   UNL     1      61.552  66.278  71.354  0.00  0.00    +0.000 C 
ATOM     16  N   UNL     1      61.812  66.803  71.935  0.00  0.00    +0.000 NA
ATOM     17  C   UNL     1      61.757  67.617  71.809  0.00  0.00    +0.000 C 
ATOM     18  C   UNL     1      62.017  68.143  72.390  0.00  0.00    +0.000 C 
ATOM     19  C   UNL     1      62.330  67.854  73.097  0.00  0.00    +0.000 C 
ATOM     20  C   UNL     1      62.384  67.041  73.222  0.00  0.00    +0.000 C 
ATOM     21  C   UNL     1      62.125  66.515  72.642  0.00  0.00    +0.000 C 
ATOM     22  C   UNL     1      61.366  64.115  70.947  0.00  0.00    +0.000 C 
ATOM     23  O   UNL     1      61.648  63.673  71.584  0.00  0.00    +0.000 OA
ATOM     24  C   UNL     1      60.774  63.356  69.619  0.00  0.00    +0.000 A 
ATOM     25  C   UNL     1      60.794  62.532  69.666  0.00  0.00    +0.000 A 
ATOM     26  C   UNL     1      60.514  62.076  69.039  0.00  0.00    +0.000 A 
ATOM     27  C   UNL     1      60.214  62.444  68.363  0.00  0.00    +0.000 A 
ATOM     28  O   UNL     1      59.935  61.987  67.735  0.00  0.00    +0.000 OA
ATOM     29  C   UNL     1      59.635  62.354  67.060  0.00  0.00    +0.000 C 
ATOM     30  C   UNL     1      60.195  63.267  68.315  0.00  0.00    +0.000 A 
ATOM     31  C   UNL     1      60.475  63.723  68.943  0.00  0.00    +0.000 A 
ENDROOT
TORSDOF 0
ENDMDL
MODEL 6
REMARK VINA RESULT:   -13.137      1.055      2.893
REMARK INTER + INTRA:         -13.137
REMARK INTER:                 -13.137
REMARK INTRA:                   0.000
REMARK UNBOUND:                 0.000
ROOT
REMARK  Name = idanpramine
REMARK                            x       y       z     vdW  Elec       q    Type
REMARK                         _______ _______ _______ _____ _____    ______ ____
ATOM      1  C   UNL     1      58.674  64.975  72.465  0.00  0.00    +0.000 C 
ATOM      2  O   UNL     1      59.457  65.227  72.523  0.00  0.00    +0.000 OA
ATOM      3  C   UNL     1      59.989  65.065  71.914  0.00  0.00    +0.000 A 
ATOM      4  C   UNL     1      60.772  65.318  71.974  0.00  0.00    +0.000 A 
ATOM      5  C   UNL     1      61.305  65.156  71.365  0.00  0.00    +0.000 A 
ATOM      6  C   UNL     1      61.054  64.741  70.697  0.00  0.00    +0.000 A 
ATOM      7  C   UNL     1      60.271  64.488  70.637  0.00  0.00    +0.000 A 
ATOM      8  C   UNL     1      59.738  64.650  71.246  0.00  0.00    +0.000 A 
ATOM      9  C   UNL     1      61.587  64.579  70.088  0.00  0.00    +0.000 C 
ATOM     10  N   UNL     1      62.231  64.501  69.579  0.00  0.00    +0.000 NA
ATOM     11  C   UNL     1      61.981  64.086  68.911  0.00  0.00    +0.000 C 
ATOM     12  O   UNL     1      62.448  63.885  68.262  0.00  0.00    +0.000 OA
ATOM     13  N   UNL     1      61.181  63.908  69.007  0.00  0.00    +0.000 N 
ATOM     14  C   UNL     1      60.708  63.498  68.470  0.00  0.00    +0.000 C 
ATOM     15  C   UNL     1      61.029  63.225  67.761  0.00  0.00    +0.000 C 
ATOM     16  N   UNL     1      60.556  62.815  67.224  0.00  0.00    +0.000 NA
ATOM     17  C   UNL     1      60.878  62.542  66.515  0.00  0.00    +0.000 C 
ATOM     18  C   UNL     1      60.405  62.131  65.978  0.00  0.00    +0.000 C 
ATOM     19  C   UNL     1      59.610  61.994  66.150  0.00  0.00    +0.000 C 
ATOM     20  C   UNL     1      59.288  62.267  66.859  0.00  0.00    +0.000 C 
ATOM     21  C   UNL     1      59.761  62.678  67.396  0.00  0.00    +0.000 C 
ATOM     22  C   UNL     1      60.938  64.213  69.734  0.00  0.00    +0.000 C 
ATOM     23  O   UNL     1      60.178  64.161  70.052  0.00  0.00    +0.000 OA
ATOM     24  C   UNL     1      62.125  64.979  70.569  0.00  0.00    +0.000 A 
ATOM     25  C   UNL     1      61.881  65.284  71.296  0.00  0.00    +0.000 A 
ATOM     26  C   UNL     1      62.419  65.683  71.777  0.00  0.00    +0.000 A 
ATOM     27  C   UNL     1      63.201  65.779  71.530  0.00  0.00    +0.000 A 
ATOM     28  O   UNL     1      63.739  66.178  72.011  0.00  0.00    +0.000 OA
ATOM     29  C   UNL     1      64.520  66.274  71.765  0.00  0.00    +0.000 C 
ATOM     30  C   UNL     1      63.444  65.474  70.803  0.00  0.00    +0.000 A 
ATOM     31  C   UNL     1      62.906  65.074  70.322  0.00  0.00    +0.000 A 
ENDROOT
TORSDOF 0
ENDMDL
MODEL 7
REMARK VINA RESULT:   -13.060      2.906      4.948
REMARK INTER + INTRA:         -13.060
REMARK INTER:                 -13.060
REMARK INTRA:                   0.000
REMARK UNBOUND:                 0.000
ROOT
REMARK  Name = idanpramine
REMARK                            x       y       z     vdW  Elec       q    Type
REMARK                         _______ _______ _______ _____ _____    ______ ____
ATOM      1  C   UNL     1      59.339  66.516  73.222  0.00  0.00    +0.000 C 
ATOM      2  O   UNL     1      59.318  65.750  72.916  0.00  0.00    +0.000 OA
ATOM      3  C   UNL     1      59.971  65.448  72.514  0.00  0.00    +0.000 A 
ATOM      4  C   UNL     1      59.949  64.682  72.209  0.00  0.00    +0.000 A 
ATOM      5  C   UNL     1      60.602  64.379  71.806  0.00  0.00    +0.000 A 
ATOM      6  C   UNL     1      61.278  64.842  71.710  0.00  0.00    +0.000 A 
ATOM      7  C   UNL     1      61.301  65.609  72.015  0.00  0.00    +0.000 A 
ATOM      8  C   UNL     1      60.647  65.911  72.417  0.00  0.00    +0.000 A 
ATOM      9  C   UNL     1      61.932  64.540  71.307  0.00  0.00    +0.000 C 
ATOM     10  N   UNL     1      62.487  64.097  70.889  0.00  0.00    +0.000 NA
ATOM     11  C   UNL     1      63.163  64.559  70.792  0.00  0.00    +0.000 C 
ATOM     12  O   UNL     1      63.855  64.332  70.404  0.00  0.00    +0.000 OA
ATOM     13  N   UNL     1      63.025  65.289  71.151  0.00  0.00    +0.000 N 
ATOM     14  C   UNL     1      63.555  65.921  71.185  0.00  0.00    +0.000 C 
ATOM     15  C   UNL     1      64.301  65.853  70.840  0.00  0.00    +0.000 C 
ATOM     16  N   UNL     1      64.831  66.484  70.874  0.00  0.00    +0.000 NA
ATOM     17  C   UNL     1      65.577  66.415  70.529  0.00  0.00    +0.000 C 
ATOM     18  C   UNL     1      66.108  67.047  70.563  0.00  0.00    +0.000 C 
ATOM     19  C   UNL     1      65.891  67.747  70.943  0.00  0.00    +0.000 C 
ATOM     20  C   UNL     1      65.145  67.815  71.288  0.00  0.00    +0.000 C 
ATOM     21  C   UNL     1      64.615  67.183  71.254  0.00  0.00    +0.000 C 
ATOM     22  C   UNL     1      62.264  65.277  71.469  0.00  0.00    +0.000 C 
ATOM     23  O   UNL     1      61.899  65.894  71.878  0.00  0.00    +0.000 OA
ATOM     24  C   UNL     1      61.463  63.866  71.230  0.00  0.00    +0.000 A 
ATOM     25  C   UNL     1      60.701  63.853  71.548  0.00  0.00    +0.000 A 
ATOM     26  C   UNL     1      60.232  63.179  71.470  0.00  0.00    +0.000 A 
ATOM     27  C   UNL     1      60.525  62.517  71.074  0.00  0.00    +0.000 A 
ATOM     28  O   UNL     1      60.056  61.843  70.996  0.00  0.00    +0.000 OA
ATOM     29  C   UNL     1      60.348  61.181  70.600  0.00  0.00    +0.000 C 
ATOM     30  C   UNL     1      61.286  62.530  70.755  0.00  0.00    +0.000 A 
ATOM     31  C   UNL     1      61.755  63.204  70.833  0.00  0.00    +0.000 A 
ENDROOT
TORSDOF 0
ENDMDL
MODEL 8
REMARK VINA RESULT:   -12.011      1.901      4.990
REMARK INTER + INTRA:         -12.011
REMARK INTER:                 -12.011
REMARK INTRA:                   0.000
REMARK UNBOUND:                 0.000
ROOT
REMARK  Name = idanpramine
REMARK                            x       y       z     vdW  Elec       q    Type
REMARK                         _______ _______ _______ _____ _____    ______ ____
ATOM      1  C   UNL     1      59.010  66.986  71.270  0.00  0.00    +0.000 C 
ATOM      2  O   UNL     1      59.015  66.322  70.780  0.00  0.00    +0.000 OA
ATOM      3  C   UNL     1      59.730  65.964  70.578  0.00  0.00    +0.000 A 
ATOM      4  C   UNL     1      59.734  65.300  70.088  0.00  0.00    +0.000 A 
ATOM      5  C   UNL     1      60.449  64.941  69.886  0.00  0.00    +0.000 A 
ATOM      6  C   UNL     1      61.160  65.246  70.174  0.00  0.00    +0.000 A 
ATOM      7  C   UNL     1      61.156  65.910  70.664  0.00  0.00    +0.000 A 
ATOM      8  C   UNL     1      60.441  66.269  70.866  0.00  0.00    +0.000 A 
ATOM      9  C   UNL     1      61.875  64.887  69.973  0.00  0.00    +0.000 C 
ATOM     10  N   UNL     1      62.489  64.420  69.682  0.00  0.00    +0.000 NA
ATOM     11  C   UNL     1      63.200  64.725  69.970  0.00  0.00    +0.000 C 
ATOM     12  O   UNL     1      63.953  64.426  69.816  0.00  0.00    +0.000 OA
ATOM     13  N   UNL     1      63.024  65.380  70.438  0.00  0.00    +0.000 N 
ATOM     14  C   UNL     1      63.571  65.853  70.836  0.00  0.00    +0.000 C 
ATOM     15  C   UNL     1      64.377  65.685  70.783  0.00  0.00    +0.000 C 
ATOM     16  N   UNL     1      64.924  66.158  71.180  0.00  0.00    +0.000 NA
ATOM     17  C   UNL     1      65.730  65.989  71.127  0.00  0.00    +0.000 C 
ATOM     18  C   UNL     1      66.278  66.462  71.524  0.00  0.00    +0.000 C 
ATOM     19  C   UNL     1      66.019  67.103  71.975  0.00  0.00    +0.000 C 
ATOM     20  C   UNL     1      65.214  67.271  72.028  0.00  0.00    +0.000 C 
ATOM     21  C   UNL     1      64.666  66.798  71.630  0.00  0.00    +0.000 C 
ATOM     22  C   UNL     1      62.205  65.481  70.440  0.00  0.00    +0.000 C 
ATOM     23  O   UNL     1      61.790  66.071  70.840  0.00  0.00    +0.000 OA
ATOM     24  C   UNL     1      61.395  64.368  69.547  0.00  0.00    +0.000 A 
ATOM     25  C   UNL     1      60.575  64.469  69.549  0.00  0.00    +0.000 A 
ATOM     26  C   UNL     1      60.095  63.950  69.123  0.00  0.00    +0.000 A 
ATOM     27  C   UNL     1      60.435  63.331  68.696  0.00  0.00    +0.000 A 
ATOM     28  O   UNL     1      59.955  62.812  68.271  0.00  0.00    +0.000 OA
ATOM     29  C   UNL     1      60.293  62.193  67.843  0.00  0.00    +0.000 C 
ATOM     30  C   UNL     1      61.254  63.231  68.694  0.00  0.00    +0.000 A 
ATOM     31  C   UNL     1      61.734  63.749  69.120  0.00  0.00    +0.000 A 
ENDROOT
TORSDOF 0
ENDMDL
MODEL 9
REMARK VINA RESULT:   -11.604     24.172     25.304
REMARK INTER + INTRA:         -11.604
REMARK INTER:                 -11.604
REMARK INTRA:                   0.000
REMARK UNBOUND:                 0.000
ROOT
REMARK  Name = idanpramine
REMARK                            x       y       z     vdW  Elec       q    Type
REMARK                         _______ _______ _______ _____ _____    ______ ____
ATOM      1  C   UNL     1      72.885  81.568  54.644  0.00  0.00    +0.000 C 
ATOM      2  O   UNL     1      72.075  81.623  54.793  0.00  0.00    +0.000 OA
ATOM      3  C   UNL     1      71.533  81.373  54.224  0.00  0.00    +0.000 A 
ATOM      4  C   UNL     1      70.723  81.428  54.374  0.00  0.00    +0.000 A 
ATOM      5  C   UNL     1      70.181  81.178  53.805  0.00  0.00    +0.000 A 
ATOM      6  C   UNL     1      70.448  80.873  53.086  0.00  0.00    +0.000 A 
ATOM      7  C   UNL     1      71.258  80.819  52.936  0.00  0.00    +0.000 A 
ATOM      8  C   UNL     1      71.800  81.068  53.505  0.00  0.00    +0.000 A 
ATOM      9  C   UNL     1      69.906  80.624  52.517  0.00  0.00    +0.000 C 
ATOM     10  N   UNL     1      69.246  80.422  52.064  0.00  0.00    +0.000 NA
ATOM     11  C   UNL     1      69.513  80.118  51.345  0.00  0.00    +0.000 C 
ATOM     12  O   UNL     1      69.038  79.848  50.727  0.00  0.00    +0.000 OA
ATOM     13  N   UNL     1      70.337  80.131  51.353  0.00  0.00    +0.000 N 
ATOM     14  C   UNL     1      70.833  79.876  50.745  0.00  0.00    +0.000 C 
ATOM     15  C   UNL     1      70.509  79.575  50.049  0.00  0.00    +0.000 C 
ATOM     16  N   UNL     1      71.005  79.320  49.440  0.00  0.00    +0.000 NA
ATOM     17  C   UNL     1      70.681  79.018  48.744  0.00  0.00    +0.000 C 
ATOM     18  C   UNL     1      71.176  78.763  48.134  0.00  0.00    +0.000 C 
ATOM     19  C   UNL     1      71.995  78.811  48.223  0.00  0.00    +0.000 C 
ATOM     20  C   UNL     1      72.319  79.112  48.918  0.00  0.00    +0.000 C 
ATOM     21  C   UNL     1      71.823  79.367  49.528  0.00  0.00    +0.000 C 
ATOM     22  C   UNL     1      70.580  80.444  52.078  0.00  0.00    +0.000 C 
ATOM     23  O   UNL     1      71.361  80.556  52.320  0.00  0.00    +0.000 OA
ATOM     24  C   UNL     1      69.344  80.856  53.075  0.00  0.00    +0.000 A 
ATOM     25  C   UNL     1      69.587  81.168  53.799  0.00  0.00    +0.000 A 
ATOM     26  C   UNL     1      69.026  81.401  54.357  0.00  0.00    +0.000 A 
ATOM     27  C   UNL     1      68.221  81.320  54.191  0.00  0.00    +0.000 A 
ATOM     28  O   UNL     1      67.660  81.552  54.749  0.00  0.00    +0.000 OA
ATOM     29  C   UNL     1      66.856  81.472  54.583  0.00  0.00    +0.000 C 
ATOM     30  C   UNL     1      67.979  81.008  53.467  0.00  0.00    +0.000 A 
ATOM     31  C   UNL     1      68.540  80.775  52.909  0.00  0.00    +0.000 A 
ENDROOT
TORSDOF 0
ENDMDL
