MODEL 1
REMARK VINA RESULT:   -16.458      0.000      0.000
REMARK INTER + INTRA:         -16.458
REMARK INTER:                 -16.458
REMARK INTRA:                   0.000
REMARK UNBOUND:                 0.000
ROOT
REMARK  Name = idarubicin
REMARK                            x       y       z     vdW  Elec       q    Type
REMARK                         _______ _______ _______ _____ _____    ______ ____
ATOM      1  C   UNL     1      61.538  62.751  66.750  0.00  0.00    +0.000 C 
ATOM      2  C   UNL     1      61.438  62.901  67.554  0.00  0.00    +0.000 C 
ATOM      3  O   UNL     1      61.943  63.426  67.942  0.00  0.00    +0.000 OA
ATOM      4  C   UNL     1      61.843  63.577  68.747  0.00  0.00    +0.000 C 
ATOM      5  C   UNL     1      61.238  63.203  69.164  0.00  0.00    +0.000 C 
ATOM      6  C   UNL     1      60.732  62.678  68.777  0.00  0.00    +0.000 C 
ATOM      7  N   UNL     1      60.128  62.304  69.194  0.00  0.00    +0.000 NA
ATOM      8  C   UNL     1      60.832  62.527  67.972  0.00  0.00    +0.000 C 
ATOM      9  O   UNL     1      60.328  62.002  67.585  0.00  0.00    +0.000 OA
ATOM     10  O   UNL     1      62.348  64.103  69.133  0.00  0.00    +0.000 OA
ATOM     11  C   UNL     1      62.248  64.254  69.939  0.00  0.00    +0.000 C 
ATOM     12  C   UNL     1      61.642  63.879  70.356  0.00  0.00    +0.000 C 
ATOM     13  C   UNL     1      61.542  64.030  71.161  0.00  0.00    +0.000 C 
ATOM     14  O   UNL     1      60.929  63.493  71.039  0.00  0.00    +0.000 OA
ATOM     15  C   UNL     1      62.048  64.556  71.549  0.00  0.00    +0.000 C 
ATOM     16  C   UNL     1      62.652  64.929  71.131  0.00  0.00    +0.000 A 
ATOM     17  C   UNL     1      63.158  65.455  71.518  0.00  0.00    +0.000 A 
ATOM     18  O   UNL     1      63.058  65.606  72.322  0.00  0.00    +0.000 OA
ATOM     19  C   UNL     1      63.763  65.829  71.100  0.00  0.00    +0.000 A 
ATOM     20  C   UNL     1      63.863  65.678  70.295  0.00  0.00    +0.000 A 
ATOM     21  C   UNL     1      63.358  65.153  69.909  0.00  0.00    +0.000 A 
ATOM     22  O   UNL     1      63.458  65.002  69.103  0.00  0.00    +0.000 OA
ATOM     23  C   UNL     1      62.753  64.778  70.326  0.00  0.00    +0.000 A 
ATOM     24  C   UNL     1      64.468  66.052  69.878  0.00  0.00    +0.000 C 
ATOM     25  O   UNL     1      64.569  65.901  69.072  0.00  0.00    +0.000 OA
ATOM     26  C   UNL     1      64.973  66.577  70.265  0.00  0.00    +0.000 A 
ATOM     27  C   UNL     1      65.578  66.951  69.847  0.00  0.00    +0.000 A 
ATOM     28  C   UNL     1      66.083  67.476  70.234  0.00  0.00    +0.000 A 
ATOM     29  C   UNL     1      65.983  67.627  71.039  0.00  0.00    +0.000 A 
ATOM     30  C   UNL     1      65.378  67.252  71.457  0.00  0.00    +0.000 A 
ATOM     31  C   UNL     1      64.873  66.728  71.070  0.00  0.00    +0.000 A 
ATOM     32  C   UNL     1      64.268  66.354  71.488  0.00  0.00    +0.000 C 
ATOM     33  O   UNL     1      64.168  66.505  72.292  0.00  0.00    +0.000 OA
ATOM     34  C   UNL     1      61.229  63.995  71.923  0.00  0.00    +0.000 C 
ATOM     35  C   UNL     1      61.564  64.444  72.529  0.00  0.00    +0.000 C 
ATOM     36  O   UNL     1      60.581  63.510  72.081  0.00  0.00    +0.000 OA
ENDROOT
TORSDOF 0
ENDMDL
MODEL 2
REMARK VINA RESULT:   -15.158      2.147      3.653
REMARK INTER + INTRA:         -15.158
REMARK INTER:                 -15.158
REMARK INTRA:                   0.000
REMARK UNBOUND:                 0.000
ROOT
REMARK  Name = idarubicin
REMARK                            x       y       z     vdW  Elec       q    Type
REMARK                         _______ _______ _______ _____ _____    ______ ____
ATOM      1  C   UNL     1      58.046  67.432  73.221  0.00  0.00    +0.000 C 
ATOM      2  C   UNL     1      58.411  66.748  72.942  0.00  0.00    +0.000 C 
ATOM      3  O   UNL     1      59.214  66.755  72.755  0.00  0.00    +0.000 OA
ATOM      4  C   UNL     1      59.579  66.070  72.476  0.00  0.00    +0.000 C 
ATOM      5  C   UNL     1      59.141  65.378  72.384  0.00  0.00    +0.000 C 
ATOM      6  C   UNL     1      58.337  65.369  72.571  0.00  0.00    +0.000 C 
ATOM      7  N   UNL     1      57.899  64.677  72.479  0.00  0.00    +0.000 NA
ATOM      8  C   UNL     1      57.972  66.054  72.850  0.00  0.00    +0.000 C 
ATOM      9  O   UNL     1      57.169  66.047  73.037  0.00  0.00    +0.000 OA
ATOM     10  O   UNL     1      60.383  66.078  72.289  0.00  0.00    +0.000 OA
ATOM     11  C   UNL     1      60.749  65.392  72.010  0.00  0.00    +0.000 C 
ATOM     12  C   UNL     1      60.310  64.700  71.918  0.00  0.00    +0.000 C 
ATOM     13  C   UNL     1      60.675  64.014  71.639  0.00  0.00    +0.000 C 
ATOM     14  O   UNL     1      59.906  63.735  71.742  0.00  0.00    +0.000 OA
ATOM     15  C   UNL     1      61.479  64.022  71.452  0.00  0.00    +0.000 C 
ATOM     16  C   UNL     1      61.917  64.715  71.544  0.00  0.00    +0.000 A 
ATOM     17  C   UNL     1      62.721  64.723  71.357  0.00  0.00    +0.000 A 
ATOM     18  O   UNL     1      63.086  64.039  71.078  0.00  0.00    +0.000 OA
ATOM     19  C   UNL     1      63.159  65.416  71.449  0.00  0.00    +0.000 A 
ATOM     20  C   UNL     1      62.793  66.101  71.728  0.00  0.00    +0.000 A 
ATOM     21  C   UNL     1      61.990  66.093  71.915  0.00  0.00    +0.000 A 
ATOM     22  O   UNL     1      61.625  66.779  72.194  0.00  0.00    +0.000 OA
ATOM     23  C   UNL     1      61.552  65.400  71.823  0.00  0.00    +0.000 A 
ATOM     24  C   UNL     1      63.232  66.794  71.820  0.00  0.00    +0.000 C 
ATOM     25  O   UNL     1      62.866  67.480  72.099  0.00  0.00    +0.000 OA
ATOM     26  C   UNL     1      64.035  66.802  71.633  0.00  0.00    +0.000 A 
ATOM     27  C   UNL     1      64.473  67.494  71.724  0.00  0.00    +0.000 A 
ATOM     28  C   UNL     1      65.277  67.503  71.538  0.00  0.00    +0.000 A 
ATOM     29  C   UNL     1      65.642  66.818  71.259  0.00  0.00    +0.000 A 
ATOM     30  C   UNL     1      65.204  66.124  71.167  0.00  0.00    +0.000 A 
ATOM     31  C   UNL     1      64.400  66.117  71.354  0.00  0.00    +0.000 A 
ATOM     32  C   UNL     1      63.963  65.424  71.262  0.00  0.00    +0.000 C 
ATOM     33  O   UNL     1      64.328  64.739  70.983  0.00  0.00    +0.000 OA
ATOM     34  C   UNL     1      60.773  63.233  71.396  0.00  0.00    +0.000 C 
ATOM     35  C   UNL     1      61.514  62.968  71.147  0.00  0.00    +0.000 C 
ATOM     36  O   UNL     1      60.131  62.715  71.401  0.00  0.00    +0.000 OA
ENDROOT
TORSDOF 0
ENDMDL
MODEL 3
REMARK VINA RESULT:   -15.107      1.371      4.805
REMARK INTER + INTRA:         -15.107
REMARK INTER:                 -15.107
REMARK INTRA:                   0.000
REMARK UNBOUND:                 0.000
ROOT
REMARK  Name = idarubicin
REMARK                            x       y       z     vdW  Elec       q    Type
REMARK                         _______ _______ _______ _____ _____    ______ ____
ATOM      1  C   UNL     1      65.602  67.048  69.842  0.00  0.00    +0.000 C 
ATOM      2  C   UNL     1      65.007  66.718  70.308  0.00  0.00    +0.000 C 
ATOM      3  O   UNL     1      64.479  66.177  69.979  0.00  0.00    +0.000 OA
ATOM      4  C   UNL     1      63.883  65.846  70.445  0.00  0.00    +0.000 C 
ATOM      5  C   UNL     1      63.817  66.056  71.240  0.00  0.00    +0.000 C 
ATOM      6  C   UNL     1      64.346  66.597  71.569  0.00  0.00    +0.000 C 
ATOM      7  N   UNL     1      64.279  66.807  72.364  0.00  0.00    +0.000 NA
ATOM      8  C   UNL     1      64.941  66.928  71.103  0.00  0.00    +0.000 C 
ATOM      9  O   UNL     1      65.469  67.469  71.432  0.00  0.00    +0.000 OA
ATOM     10  O   UNL     1      63.355  65.304  70.115  0.00  0.00    +0.000 OA
ATOM     11  C   UNL     1      62.759  64.973  70.582  0.00  0.00    +0.000 C 
ATOM     12  C   UNL     1      62.693  65.184  71.377  0.00  0.00    +0.000 C 
ATOM     13  C   UNL     1      62.098  64.853  71.843  0.00  0.00    +0.000 C 
ATOM     14  O   UNL     1      62.464  65.337  72.401  0.00  0.00    +0.000 OA
ATOM     15  C   UNL     1      61.569  64.311  71.514  0.00  0.00    +0.000 C 
ATOM     16  C   UNL     1      61.636  64.101  70.719  0.00  0.00    +0.000 A 
ATOM     17  C   UNL     1      61.107  63.560  70.390  0.00  0.00    +0.000 A 
ATOM     18  O   UNL     1      60.513  63.229  70.855  0.00  0.00    +0.000 OA
ATOM     19  C   UNL     1      61.174  63.350  69.595  0.00  0.00    +0.000 A 
ATOM     20  C   UNL     1      61.769  63.681  69.129  0.00  0.00    +0.000 A 
ATOM     21  C   UNL     1      62.297  64.221  69.458  0.00  0.00    +0.000 A 
ATOM     22  O   UNL     1      62.893  64.553  68.991  0.00  0.00    +0.000 OA
ATOM     23  C   UNL     1      62.231  64.432  70.253  0.00  0.00    +0.000 A 
ATOM     24  C   UNL     1      61.835  63.470  68.334  0.00  0.00    +0.000 C 
ATOM     25  O   UNL     1      62.431  63.801  67.867  0.00  0.00    +0.000 OA
ATOM     26  C   UNL     1      61.307  62.929  68.005  0.00  0.00    +0.000 A 
ATOM     27  C   UNL     1      61.373  62.719  67.210  0.00  0.00    +0.000 A 
ATOM     28  C   UNL     1      60.845  62.178  66.881  0.00  0.00    +0.000 A 
ATOM     29  C   UNL     1      60.250  61.847  67.346  0.00  0.00    +0.000 A 
ATOM     30  C   UNL     1      60.183  62.057  68.142  0.00  0.00    +0.000 A 
ATOM     31  C   UNL     1      60.712  62.598  68.471  0.00  0.00    +0.000 A 
ATOM     32  C   UNL     1      60.645  62.808  69.265  0.00  0.00    +0.000 C 
ATOM     33  O   UNL     1      60.051  62.478  69.731  0.00  0.00    +0.000 OA
ATOM     34  C   UNL     1      61.631  64.690  72.502  0.00  0.00    +0.000 C 
ATOM     35  C   UNL     1      61.003  64.158  72.442  0.00  0.00    +0.000 C 
ATOM     36  O   UNL     1      61.789  65.060  73.222  0.00  0.00    +0.000 OA
ENDROOT
TORSDOF 0
ENDMDL
MODEL 4
REMARK VINA RESULT:   -14.826      3.494      5.128
REMARK INTER + INTRA:         -14.826
REMARK INTER:                 -14.826
REMARK INTRA:                   0.000
REMARK UNBOUND:                 0.000
ROOT
REMARK  Name = idarubicin
REMARK                            x       y       z     vdW  Elec       q    Type
REMARK                         _______ _______ _______ _____ _____    ______ ____
ATOM      1  C   UNL     1      59.742  67.537  69.518  0.00  0.00    +0.000 C 
ATOM      2  C   UNL     1      59.798  66.757  69.777  0.00  0.00    +0.000 C 
ATOM      3  O   UNL     1      60.041  66.165  69.257  0.00  0.00    +0.000 OA
ATOM      4  C   UNL     1      60.097  65.384  69.518  0.00  0.00    +0.000 C 
ATOM      5  C   UNL     1      59.910  65.196  70.298  0.00  0.00    +0.000 C 
ATOM      6  C   UNL     1      59.667  65.787  70.819  0.00  0.00    +0.000 C 
ATOM      7  N   UNL     1      59.480  65.599  71.600  0.00  0.00    +0.000 NA
ATOM      8  C   UNL     1      59.611  66.568  70.559  0.00  0.00    +0.000 C 
ATOM      9  O   UNL     1      59.368  67.160  71.079  0.00  0.00    +0.000 OA
ATOM     10  O   UNL     1      60.340  64.792  68.996  0.00  0.00    +0.000 OA
ATOM     11  C   UNL     1      60.396  64.011  69.257  0.00  0.00    +0.000 C 
ATOM     12  C   UNL     1      60.209  63.822  70.038  0.00  0.00    +0.000 C 
ATOM     13  C   UNL     1      60.265  63.041  70.298  0.00  0.00    +0.000 C 
ATOM     14  O   UNL     1      60.011  63.406  70.993  0.00  0.00    +0.000 OA
ATOM     15  C   UNL     1      60.508  62.449  69.777  0.00  0.00    +0.000 C 
ATOM     16  C   UNL     1      60.694  62.638  68.996  0.00  0.00    +0.000 A 
ATOM     17  C   UNL     1      60.937  62.046  68.475  0.00  0.00    +0.000 A 
ATOM     18  O   UNL     1      60.993  61.266  68.735  0.00  0.00    +0.000 OA
ATOM     19  C   UNL     1      61.124  62.235  67.695  0.00  0.00    +0.000 A 
ATOM     20  C   UNL     1      61.068  63.016  67.434  0.00  0.00    +0.000 A 
ATOM     21  C   UNL     1      60.825  63.608  67.955  0.00  0.00    +0.000 A 
ATOM     22  O   UNL     1      60.769  64.389  67.694  0.00  0.00    +0.000 OA
ATOM     23  C   UNL     1      60.638  63.419  68.736  0.00  0.00    +0.000 A 
ATOM     24  C   UNL     1      61.255  63.204  66.653  0.00  0.00    +0.000 C 
ATOM     25  O   UNL     1      61.199  63.986  66.392  0.00  0.00    +0.000 OA
ATOM     26  C   UNL     1      61.498  62.613  66.132  0.00  0.00    +0.000 A 
ATOM     27  C   UNL     1      61.684  62.802  65.352  0.00  0.00    +0.000 A 
ATOM     28  C   UNL     1      61.927  62.210  64.830  0.00  0.00    +0.000 A 
ATOM     29  C   UNL     1      61.983  61.429  65.091  0.00  0.00    +0.000 A 
ATOM     30  C   UNL     1      61.796  61.240  65.872  0.00  0.00    +0.000 A 
ATOM     31  C   UNL     1      61.554  61.832  66.393  0.00  0.00    +0.000 A 
ATOM     32  C   UNL     1      61.367  61.643  67.173  0.00  0.00    +0.000 C 
ATOM     33  O   UNL     1      61.423  60.863  67.433  0.00  0.00    +0.000 OA
ATOM     34  C   UNL     1      60.233  62.387  70.800  0.00  0.00    +0.000 C 
ATOM     35  C   UNL     1      60.435  61.640  70.516  0.00  0.00    +0.000 C 
ATOM     36  O   UNL     1      59.998  62.480  71.585  0.00  0.00    +0.000 OA
ENDROOT
TORSDOF 0
ENDMDL
MODEL 5
REMARK VINA RESULT:   -14.472      2.145      5.100
REMARK INTER + INTRA:         -14.472
REMARK INTER:                 -14.472
REMARK INTRA:                   0.000
REMARK UNBOUND:                 0.000
ROOT
REMARK  Name = idarubicin
REMARK                            x       y       z     vdW  Elec       q    Type
REMARK                         _______ _______ _______ _____ _____    ______ ____
ATOM      1  C   UNL     1      66.095  66.563  70.610  0.00  0.00    +0.000 C 
ATOM      2  C   UNL     1      65.378  66.710  70.989  0.00  0.00    +0.000 C 
ATOM      3  O   UNL     1      64.783  66.138  70.984  0.00  0.00    +0.000 OA
ATOM      4  C   UNL     1      64.066  66.286  71.364  0.00  0.00    +0.000 C 
ATOM      5  C   UNL     1      63.942  67.005  71.748  0.00  0.00    +0.000 C 
ATOM      6  C   UNL     1      64.536  67.578  71.753  0.00  0.00    +0.000 C 
ATOM      7  N   UNL     1      64.413  68.297  72.137  0.00  0.00    +0.000 NA
ATOM      8  C   UNL     1      65.254  67.430  71.374  0.00  0.00    +0.000 C 
ATOM      9  O   UNL     1      65.849  68.002  71.378  0.00  0.00    +0.000 OA
ATOM     10  O   UNL     1      63.472  65.713  71.358  0.00  0.00    +0.000 OA
ATOM     11  C   UNL     1      62.753  65.860  71.738  0.00  0.00    +0.000 C 
ATOM     12  C   UNL     1      62.630  66.580  72.122  0.00  0.00    +0.000 C 
ATOM     13  C   UNL     1      61.913  66.728  72.502  0.00  0.00    +0.000 C 
ATOM     14  O   UNL     1      62.305  67.436  72.657  0.00  0.00    +0.000 OA
ATOM     15  C   UNL     1      61.318  66.155  72.497  0.00  0.00    +0.000 C 
ATOM     16  C   UNL     1      61.442  65.436  72.113  0.00  0.00    +0.000 A 
ATOM     17  C   UNL     1      60.847  64.863  72.108  0.00  0.00    +0.000 A 
ATOM     18  O   UNL     1      60.130  65.010  72.487  0.00  0.00    +0.000 OA
ATOM     19  C   UNL     1      60.971  64.144  71.723  0.00  0.00    +0.000 A 
ATOM     20  C   UNL     1      61.688  63.997  71.344  0.00  0.00    +0.000 A 
ATOM     21  C   UNL     1      62.282  64.569  71.349  0.00  0.00    +0.000 A 
ATOM     22  O   UNL     1      63.001  64.421  70.969  0.00  0.00    +0.000 OA
ATOM     23  C   UNL     1      62.159  65.289  71.733  0.00  0.00    +0.000 A 
ATOM     24  C   UNL     1      61.811  63.277  70.960  0.00  0.00    +0.000 C 
ATOM     25  O   UNL     1      62.530  63.129  70.580  0.00  0.00    +0.000 OA
ATOM     26  C   UNL     1      61.218  62.705  70.955  0.00  0.00    +0.000 A 
ATOM     27  C   UNL     1      61.341  61.986  70.571  0.00  0.00    +0.000 A 
ATOM     28  C   UNL     1      60.747  61.413  70.566  0.00  0.00    +0.000 A 
ATOM     29  C   UNL     1      60.029  61.560  70.945  0.00  0.00    +0.000 A 
ATOM     30  C   UNL     1      59.905  62.280  71.330  0.00  0.00    +0.000 A 
ATOM     31  C   UNL     1      60.500  62.852  71.334  0.00  0.00    +0.000 A 
ATOM     32  C   UNL     1      60.376  63.571  71.719  0.00  0.00    +0.000 C 
ATOM     33  O   UNL     1      59.659  63.718  72.097  0.00  0.00    +0.000 OA
ATOM     34  C   UNL     1      61.331  67.121  72.935  0.00  0.00    +0.000 C 
ATOM     35  C   UNL     1      60.607  66.755  73.081  0.00  0.00    +0.000 C 
ATOM     36  O   UNL     1      61.474  67.881  73.222  0.00  0.00    +0.000 OA
ENDROOT
TORSDOF 0
ENDMDL
