MODEL 1
REMARK VINA RESULT:    -8.530      0.000      0.000
REMARK INTER + INTRA:          -8.530
REMARK INTER:                  -8.530
REMARK INTRA:                   0.000
REMARK UNBOUND:                 0.000
ROOT
REMARK  Name = idoxuridine
REMARK                            x       y       z     vdW  Elec       q    Type
REMARK                         _______ _______ _______ _____ _____    ______ ____
ATOM      1  O5* UNL     1      61.548  64.131  69.423  0.00  0.00    +0.000 OA
ATOM      2  C5* UNL     1      61.847  63.851  68.707  0.00  0.00    +0.000 C 
ATOM      3  C4* UNL     1      61.355  63.439  68.187  0.00  0.00    +0.000 C 
ATOM      4  O4* UNL     1      61.575  63.128  67.456  0.00  0.00    +0.000 OA
ATOM      5  C1* UNL     1      60.913  62.763  67.125  0.00  0.00    +0.000 C 
ATOM      6  C2* UNL     1      60.285  62.848  67.653  0.00  0.00    +0.000 C 
ATOM      7  C3* UNL     1      60.558  63.266  68.310  0.00  0.00    +0.000 C 
ATOM      8  O3* UNL     1      60.111  63.474  68.971  0.00  0.00    +0.000 OA
ATOM      9  N   UNL     1      60.885  62.379  66.395  0.00  0.00    +0.000 N 
ATOM     10  C   UNL     1      61.562  62.338  65.925  0.00  0.00    +0.000 A 
ATOM     11  C   UNL     1      61.533  61.954  65.195  0.00  0.00    +0.000 A 
ATOM     12  I   UNL     1      62.210  61.913  64.724  0.00  0.00    +0.000 I 
ATOM     13  C   UNL     1      60.830  61.613  64.935  0.00  0.00    +0.000 A 
ATOM     14  O   UNL     1      60.801  61.229  64.205  0.00  0.00    +0.000 OA
ATOM     15  N   UNL     1      60.152  61.654  65.405  0.00  0.00    +0.000 NA
ATOM     16  C   UNL     1      60.181  62.037  66.136  0.00  0.00    +0.000 A 
ATOM     17  O   UNL     1      59.505  62.079  66.606  0.00  0.00    +0.000 OA
ENDROOT
TORSDOF 0
ENDMDL
MODEL 2
REMARK VINA RESULT:    -8.522      1.371      3.522
REMARK INTER + INTRA:          -8.522
REMARK INTER:                  -8.522
REMARK INTRA:                   0.000
REMARK UNBOUND:                 0.000
ROOT
REMARK  Name = idoxuridine
REMARK                            x       y       z     vdW  Elec       q    Type
REMARK                         _______ _______ _______ _____ _____    ______ ____
ATOM      1  O5* UNL     1      62.443  61.608  63.508  0.00  0.00    +0.000 OA
ATOM      2  C5* UNL     1      62.474  61.992  64.238  0.00  0.00    +0.000 C 
ATOM      3  C4* UNL     1      61.816  61.985  64.736  0.00  0.00    +0.000 C 
ATOM      4  O4* UNL     1      61.765  62.343  65.477  0.00  0.00    +0.000 OA
ATOM      5  C1* UNL     1      61.011  62.197  65.779  0.00  0.00    +0.000 C 
ATOM      6  C2* UNL     1      60.596  61.749  65.224  0.00  0.00    +0.000 C 
ATOM      7  C3* UNL     1      61.094  61.618  64.579  0.00  0.00    +0.000 C 
ATOM      8  O3* UNL     1      60.902  61.194  63.898  0.00  0.00    +0.000 OA
ATOM      9  N   UNL     1      60.722  62.455  66.508  0.00  0.00    +0.000 N 
ATOM     10  C   UNL     1      61.204  62.901  67.007  0.00  0.00    +0.000 A 
ATOM     11  C   UNL     1      60.915  63.158  67.737  0.00  0.00    +0.000 A 
ATOM     12  I   UNL     1      61.397  63.605  68.237  0.00  0.00    +0.000 I 
ATOM     13  C   UNL     1      60.147  62.969  67.966  0.00  0.00    +0.000 A 
ATOM     14  O   UNL     1      59.858  63.227  68.695  0.00  0.00    +0.000 OA
ATOM     15  N   UNL     1      59.664  62.523  67.466  0.00  0.00    +0.000 NA
ATOM     16  C   UNL     1      59.953  62.265  66.737  0.00  0.00    +0.000 A 
ATOM     17  O   UNL     1      59.472  61.819  66.237  0.00  0.00    +0.000 OA
ENDROOT
TORSDOF 0
ENDMDL
MODEL 3
REMARK VINA RESULT:    -7.749      1.192      1.792
REMARK INTER + INTRA:          -7.749
REMARK INTER:                  -7.749
REMARK INTRA:                   0.000
REMARK UNBOUND:                 0.000
ROOT
REMARK  Name = idoxuridine
REMARK                            x       y       z     vdW  Elec       q    Type
REMARK                         _______ _______ _______ _____ _____    ______ ____
ATOM      1  O5* UNL     1      63.099  64.861  70.148  0.00  0.00    +0.000 OA
ATOM      2  C5* UNL     1      63.058  64.440  69.438  0.00  0.00    +0.000 C 
ATOM      3  C4* UNL     1      62.329  64.172  69.159  0.00  0.00    +0.000 C 
ATOM      4  O4* UNL     1      62.203  63.748  68.464  0.00  0.00    +0.000 OA
ATOM      5  C1* UNL     1      61.394  63.595  68.402  0.00  0.00    +0.000 C 
ATOM      6  C2* UNL     1      61.021  63.925  69.060  0.00  0.00    +0.000 C 
ATOM      7  C3* UNL     1      61.599  64.282  69.528  0.00  0.00    +0.000 C 
ATOM      8  O3* UNL     1      61.469  64.679  70.240  0.00  0.00    +0.000 OA
ATOM      9  N   UNL     1      61.023  63.184  67.790  0.00  0.00    +0.000 N 
ATOM     10  C   UNL     1      61.471  62.884  67.166  0.00  0.00    +0.000 A 
ATOM     11  C   UNL     1      61.100  62.473  66.553  0.00  0.00    +0.000 A 
ATOM     12  I   UNL     1      61.547  62.172  65.928  0.00  0.00    +0.000 I 
ATOM     13  C   UNL     1      60.283  62.362  66.566  0.00  0.00    +0.000 A 
ATOM     14  O   UNL     1      59.912  61.951  65.954  0.00  0.00    +0.000 OA
ATOM     15  N   UNL     1      59.835  62.662  67.191  0.00  0.00    +0.000 NA
ATOM     16  C   UNL     1      60.206  63.074  67.803  0.00  0.00    +0.000 A 
ATOM     17  O   UNL     1      59.759  63.374  68.428  0.00  0.00    +0.000 OA
ENDROOT
TORSDOF 0
ENDMDL
MODEL 4
REMARK VINA RESULT:    -7.551      2.486      4.374
REMARK INTER + INTRA:          -7.551
REMARK INTER:                  -7.551
REMARK INTRA:                   0.000
REMARK UNBOUND:                 0.000
ROOT
REMARK  Name = idoxuridine
REMARK                            x       y       z     vdW  Elec       q    Type
REMARK                         _______ _______ _______ _____ _____    ______ ____
ATOM      1  O5* UNL     1      60.704  62.544  66.467  0.00  0.00    +0.000 OA
ATOM      2  C5* UNL     1      61.326  62.949  66.827  0.00  0.00    +0.000 C 
ATOM      3  C4* UNL     1      61.315  63.081  67.643  0.00  0.00    +0.000 C 
ATOM      4  O4* UNL     1      61.893  63.475  68.077  0.00  0.00    +0.000 OA
ATOM      5  C1* UNL     1      61.658  63.480  68.869  0.00  0.00    +0.000 C 
ATOM      6  C2* UNL     1      60.934  63.088  68.922  0.00  0.00    +0.000 C 
ATOM      7  C3* UNL     1      60.721  62.842  68.163  0.00  0.00    +0.000 C 
ATOM      8  O3* UNL     1      60.036  62.428  67.963  0.00  0.00    +0.000 OA
ATOM      9  N   UNL     1      62.075  63.817  69.497  0.00  0.00    +0.000 N 
ATOM     10  C   UNL     1      62.796  64.192  69.358  0.00  0.00    +0.000 A 
ATOM     11  C   UNL     1      63.212  64.530  69.986  0.00  0.00    +0.000 A 
ATOM     12  I   UNL     1      63.934  64.906  69.848  0.00  0.00    +0.000 I 
ATOM     13  C   UNL     1      62.907  64.491  70.751  0.00  0.00    +0.000 A 
ATOM     14  O   UNL     1      63.324  64.828  71.379  0.00  0.00    +0.000 OA
ATOM     15  N   UNL     1      62.186  64.115  70.890  0.00  0.00    +0.000 NA
ATOM     16  C   UNL     1      61.769  63.778  70.261  0.00  0.00    +0.000 A 
ATOM     17  O   UNL     1      61.048  63.403  70.399  0.00  0.00    +0.000 OA
ENDROOT
TORSDOF 0
ENDMDL
MODEL 5
REMARK VINA RESULT:    -7.513      2.296      4.125
REMARK INTER + INTRA:          -7.513
REMARK INTER:                  -7.513
REMARK INTRA:                   0.000
REMARK UNBOUND:                 0.000
ROOT
REMARK  Name = idoxuridine
REMARK                            x       y       z     vdW  Elec       q    Type
REMARK                         _______ _______ _______ _____ _____    ______ ____
ATOM      1  O5* UNL     1      59.543  62.064  65.885  0.00  0.00    +0.000 OA
ATOM      2  C5* UNL     1      59.536  61.989  66.707  0.00  0.00    +0.000 C 
ATOM      3  C4* UNL     1      60.102  62.381  67.162  0.00  0.00    +0.000 C 
ATOM      4  O4* UNL     1      60.163  62.358  67.984  0.00  0.00    +0.000 OA
ATOM      5  C1* UNL     1      60.805  62.828  68.205  0.00  0.00    +0.000 C 
ATOM      6  C2* UNL     1      61.139  63.142  67.519  0.00  0.00    +0.000 C 
ATOM      7  C3* UNL     1      60.705  62.865  66.874  0.00  0.00    +0.000 C 
ATOM      8  O3* UNL     1      60.849  63.043  66.081  0.00  0.00    +0.000 OA
ATOM      9  N   UNL     1      61.066  62.962  68.976  0.00  0.00    +0.000 N 
ATOM     10  C   UNL     1      60.674  62.609  69.610  0.00  0.00    +0.000 A 
ATOM     11  C   UNL     1      60.935  62.742  70.382  0.00  0.00    +0.000 A 
ATOM     12  I   UNL     1      60.543  62.390  71.017  0.00  0.00    +0.000 I 
ATOM     13  C   UNL     1      61.587  63.228  70.518  0.00  0.00    +0.000 A 
ATOM     14  O   UNL     1      61.848  63.361  71.290  0.00  0.00    +0.000 OA
ATOM     15  N   UNL     1      61.980  63.581  69.884  0.00  0.00    +0.000 NA
ATOM     16  C   UNL     1      61.718  63.447  69.112  0.00  0.00    +0.000 A 
ATOM     17  O   UNL     1      62.110  63.800  68.478  0.00  0.00    +0.000 OA
ENDROOT
TORSDOF 0
ENDMDL
MODEL 6
REMARK VINA RESULT:    -7.450      2.645      3.645
REMARK INTER + INTRA:          -7.450
REMARK INTER:                  -7.450
REMARK INTRA:                   0.000
REMARK UNBOUND:                 0.000
ROOT
REMARK  Name = idoxuridine
REMARK                            x       y       z     vdW  Elec       q    Type
REMARK                         _______ _______ _______ _____ _____    ______ ____
ATOM      1  O5* UNL     1      59.349  67.295  69.829  0.00  0.00    +0.000 OA
ATOM      2  C5* UNL     1      59.514  66.699  69.283  0.00  0.00    +0.000 C 
ATOM      3  C4* UNL     1      59.678  65.933  69.545  0.00  0.00    +0.000 C 
ATOM      4  O4* UNL     1      59.851  65.284  69.067  0.00  0.00    +0.000 OA
ATOM      5  C1* UNL     1      59.977  64.633  69.557  0.00  0.00    +0.000 C 
ATOM      6  C2* UNL     1      59.882  64.880  70.338  0.00  0.00    +0.000 C 
ATOM      7  C3* UNL     1      59.696  65.684  70.331  0.00  0.00    +0.000 C 
ATOM      8  O3* UNL     1      59.555  66.155  70.994  0.00  0.00    +0.000 OA
ATOM      9  N   UNL     1      60.166  63.868  69.310  0.00  0.00    +0.000 N 
ATOM     10  C   UNL     1      60.244  63.703  68.506  0.00  0.00    +0.000 A 
ATOM     11  C   UNL     1      60.433  62.939  68.258  0.00  0.00    +0.000 A 
ATOM     12  I   UNL     1      60.511  62.773  67.453  0.00  0.00    +0.000 I 
ATOM     13  C   UNL     1      60.543  62.341  68.814  0.00  0.00    +0.000 A 
ATOM     14  O   UNL     1      60.732  61.576  68.567  0.00  0.00    +0.000 OA
ATOM     15  N   UNL     1      60.465  62.506  69.620  0.00  0.00    +0.000 NA
ATOM     16  C   UNL     1      60.277  63.271  69.867  0.00  0.00    +0.000 A 
ATOM     17  O   UNL     1      60.199  63.436  70.671  0.00  0.00    +0.000 OA
ENDROOT
TORSDOF 0
ENDMDL
MODEL 7
REMARK VINA RESULT:    -7.269      3.781      5.702
REMARK INTER + INTRA:          -7.269
REMARK INTER:                  -7.269
REMARK INTRA:                   0.000
REMARK UNBOUND:                 0.000
ROOT
REMARK  Name = idoxuridine
REMARK                            x       y       z     vdW  Elec       q    Type
REMARK                         _______ _______ _______ _____ _____    ______ ____
ATOM      1  O5* UNL     1      60.422  61.643  68.985  0.00  0.00    +0.000 OA
ATOM      2  C5* UNL     1      60.819  62.347  69.152  0.00  0.00    +0.000 C 
ATOM      3  C4* UNL     1      60.868  62.618  69.931  0.00  0.00    +0.000 C 
ATOM      4  O4* UNL     1      61.243  63.307  70.181  0.00  0.00    +0.000 OA
ATOM      5  C1* UNL     1      61.157  63.361  71.000  0.00  0.00    +0.000 C 
ATOM      6  C2* UNL     1      60.729  62.704  71.255  0.00  0.00    +0.000 C 
ATOM      7  C3* UNL     1      60.549  62.244  70.594  0.00  0.00    +0.000 C 
ATOM      8  O3* UNL     1      60.126  61.536  70.597  0.00  0.00    +0.000 OA
ATOM      9  N   UNL     1      61.449  63.966  71.480  0.00  0.00    +0.000 N 
ATOM     10  C   UNL     1      61.870  64.591  71.145  0.00  0.00    +0.000 A 
ATOM     11  C   UNL     1      62.162  65.195  71.625  0.00  0.00    +0.000 A 
ATOM     12  I   UNL     1      62.584  65.821  71.290  0.00  0.00    +0.000 I 
ATOM     13  C   UNL     1      62.033  65.175  72.439  0.00  0.00    +0.000 A 
ATOM     14  O   UNL     1      62.324  65.780  72.919  0.00  0.00    +0.000 OA
ATOM     15  N   UNL     1      61.611  64.550  72.775  0.00  0.00    +0.000 NA
ATOM     16  C   UNL     1      61.319  63.945  72.294  0.00  0.00    +0.000 A 
ATOM     17  O   UNL     1      60.898  63.320  72.629  0.00  0.00    +0.000 OA
ENDROOT
TORSDOF 0
ENDMDL
MODEL 8
REMARK VINA RESULT:    -7.231      4.666      5.935
REMARK INTER + INTRA:          -7.231
REMARK INTER:                  -7.231
REMARK INTRA:                   0.000
REMARK UNBOUND:                 0.000
ROOT
REMARK  Name = idoxuridine
REMARK                            x       y       z     vdW  Elec       q    Type
REMARK                         _______ _______ _______ _____ _____    ______ ____
ATOM      1  O5* UNL     1      65.655  67.336  71.354  0.00  0.00    +0.000 OA
ATOM      2  C5* UNL     1      65.015  66.917  71.663  0.00  0.00    +0.000 C 
ATOM      3  C4* UNL     1      64.645  66.335  71.209  0.00  0.00    +0.000 C 
ATOM      4  O4* UNL     1      64.003  65.874  71.443  0.00  0.00    +0.000 OA
ATOM      5  C1* UNL     1      63.814  65.366  70.820  0.00  0.00    +0.000 C 
ATOM      6  C2* UNL     1      64.340  65.514  70.202  0.00  0.00    +0.000 C 
ATOM      7  C3* UNL     1      64.854  66.114  70.442  0.00  0.00    +0.000 C 
ATOM      8  O3* UNL     1      65.468  66.434  69.994  0.00  0.00    +0.000 OA
ATOM      9  N   UNL     1      63.206  64.808  70.816  0.00  0.00    +0.000 N 
ATOM     10  C   UNL     1      62.723  64.722  71.479  0.00  0.00    +0.000 A 
ATOM     11  C   UNL     1      62.114  64.164  71.475  0.00  0.00    +0.000 A 
ATOM     12  I   UNL     1      61.630  64.077  72.137  0.00  0.00    +0.000 I 
ATOM     13  C   UNL     1      61.991  63.693  70.810  0.00  0.00    +0.000 A 
ATOM     14  O   UNL     1      61.382  63.135  70.806  0.00  0.00    +0.000 OA
ATOM     15  N   UNL     1      62.475  63.779  70.147  0.00  0.00    +0.000 NA
ATOM     16  C   UNL     1      63.083  64.337  70.151  0.00  0.00    +0.000 A 
ATOM     17  O   UNL     1      63.567  64.424  69.489  0.00  0.00    +0.000 OA
ENDROOT
TORSDOF 0
ENDMDL
MODEL 9
REMARK VINA RESULT:    -7.186      5.011      5.838
REMARK INTER + INTRA:          -7.186
REMARK INTER:                  -7.186
REMARK INTRA:                   0.000
REMARK UNBOUND:                 0.000
ROOT
REMARK  Name = idoxuridine
REMARK                            x       y       z     vdW  Elec       q    Type
REMARK                         _______ _______ _______ _____ _____    ______ ____
ATOM      1  O5* UNL     1      58.886  66.697  72.199  0.00  0.00    +0.000 OA
ATOM      2  C5* UNL     1      58.998  65.990  71.789  0.00  0.00    +0.000 C 
ATOM      3  C4* UNL     1      59.561  65.445  72.051  0.00  0.00    +0.000 C 
ATOM      4  O4* UNL     1      59.733  64.720  71.699  0.00  0.00    +0.000 OA
ATOM      5  C1* UNL     1      60.329  64.358  72.141  0.00  0.00    +0.000 C 
ATOM      6  C2* UNL     1      60.525  64.861  72.765  0.00  0.00    +0.000 C 
ATOM      7  C3* UNL     1      60.050  65.534  72.709  0.00  0.00    +0.000 C 
ATOM      8  O3* UNL     1      60.063  66.179  73.222  0.00  0.00    +0.000 OA
ATOM      9  N   UNL     1      60.670  63.622  71.986  0.00  0.00    +0.000 N 
ATOM     10  C   UNL     1      60.416  63.180  71.338  0.00  0.00    +0.000 A 
ATOM     11  C   UNL     1      60.756  62.444  71.183  0.00  0.00    +0.000 A 
ATOM     12  I   UNL     1      60.503  62.000  70.535  0.00  0.00    +0.000 I 
ATOM     13  C   UNL     1      61.350  62.152  71.675  0.00  0.00    +0.000 A 
ATOM     14  O   UNL     1      61.690  61.416  71.520  0.00  0.00    +0.000 OA
ATOM     15  N   UNL     1      61.604  62.595  72.323  0.00  0.00    +0.000 NA
ATOM     16  C   UNL     1      61.263  63.331  72.478  0.00  0.00    +0.000 A 
ATOM     17  O   UNL     1      61.517  63.774  73.126  0.00  0.00    +0.000 OA
ENDROOT
TORSDOF 0
ENDMDL
