MODEL 1
REMARK VINA RESULT:   -12.163      0.000      0.000
REMARK INTER + INTRA:         -12.163
REMARK INTER:                 -12.163
REMARK INTRA:                   0.000
REMARK UNBOUND:                 0.000
ROOT
REMARK  Name = iguratimod
REMARK                            x       y       z     vdW  Elec       q    Type
REMARK                         _______ _______ _______ _____ _____    ______ ____
ATOM      1  C   UNL     1      60.386  64.899  68.776  0.00  0.00    +0.000 C 
ATOM      2  S   UNL     1      60.513  64.084  68.809  0.00  0.00    +0.000 S 
ATOM      3  O   UNL     1      60.279  64.080  69.600  0.00  0.00    +0.000 OA
ATOM      4  O   UNL     1      60.748  64.088  68.018  0.00  0.00    +0.000 OA
ATOM      5  N   UNL     1      60.640  63.270  68.842  0.00  0.00    +0.000 NA
ATOM      6  C   UNL     1      60.906  62.866  68.174  0.00  0.00    +0.000 A 
ATOM      7  C   UNL     1      61.046  63.277  67.472  0.00  0.00    +0.000 A 
ATOM      8  C   UNL     1      61.313  62.874  66.803  0.00  0.00    +0.000 A 
ATOM      9  C   UNL     1      61.440  62.058  66.836  0.00  0.00    +0.000 A 
ATOM     10  C   UNL     1      61.300  61.648  67.539  0.00  0.00    +0.000 A 
ATOM     11  C   UNL     1      61.033  62.051  68.207  0.00  0.00    +0.000 A 
ATOM     12  O   UNL     1      60.894  61.641  68.909  0.00  0.00    +0.000 OA
ATOM     13  C   UNL     1      60.627  62.044  69.577  0.00  0.00    +0.000 A 
ATOM     14  C   UNL     1      60.500  62.859  69.543  0.00  0.00    +0.000 A 
ATOM     15  C   UNL     1      60.234  63.262  70.212  0.00  0.00    +0.000 A 
ATOM     16  C   UNL     1      60.094  62.852  70.913  0.00  0.00    +0.000 A 
ATOM     17  C   UNL     1      60.221  62.036  70.947  0.00  0.00    +0.000 A 
ATOM     18  C   UNL     1      60.487  61.633  70.279  0.00  0.00    +0.000 A 
ATOM     19  C   UNL     1      61.706  61.655  66.169  0.00  0.00    +0.000 A 
ATOM     20  O   UNL     1      61.833  60.841  66.202  0.00  0.00    +0.000 OA
ATOM     21  C   UNL     1      61.846  62.066  65.467  0.00  0.00    +0.000 A 
ATOM     22  N   UNL     1      62.112  61.662  64.799  0.00  0.00    +0.000 NA
ATOM     23  C   UNL     1      62.252  62.073  64.097  0.00  0.00    +0.000 C 
ATOM     24  O   UNL     1      62.519  61.670  63.429  0.00  0.00    +0.000 OA
ATOM     25  C   UNL     1      61.719  62.881  65.434  0.00  0.00    +0.000 A 
ATOM     26  O   UNL     1      61.452  63.284  66.102  0.00  0.00    +0.000 OA
ENDROOT
TORSDOF 0
ENDMDL
MODEL 2
REMARK VINA RESULT:   -12.106      1.673      4.472
REMARK INTER + INTRA:         -12.106
REMARK INTER:                 -12.106
REMARK INTRA:                   0.000
REMARK UNBOUND:                 0.000
ROOT
REMARK  Name = iguratimod
REMARK                            x       y       z     vdW  Elec       q    Type
REMARK                         _______ _______ _______ _____ _____    ______ ____
ATOM      1  C   UNL     1      58.916  62.001  66.428  0.00  0.00    +0.000 C 
ATOM      2  S   UNL     1      59.718  62.190  66.470  0.00  0.00    +0.000 S 
ATOM      3  O   UNL     1      59.841  61.828  65.739  0.00  0.00    +0.000 OA
ATOM      4  O   UNL     1      59.595  62.551  67.201  0.00  0.00    +0.000 OA
ATOM      5  N   UNL     1      60.520  62.378  66.512  0.00  0.00    +0.000 NA
ATOM      6  C   UNL     1      60.814  62.785  67.166  0.00  0.00    +0.000 A 
ATOM      7  C   UNL     1      60.307  63.004  67.779  0.00  0.00    +0.000 A 
ATOM      8  C   UNL     1      60.601  63.411  68.433  0.00  0.00    +0.000 A 
ATOM      9  C   UNL     1      61.404  63.600  68.475  0.00  0.00    +0.000 A 
ATOM     10  C   UNL     1      61.911  63.381  67.862  0.00  0.00    +0.000 A 
ATOM     11  C   UNL     1      61.617  62.974  67.208  0.00  0.00    +0.000 A 
ATOM     12  O   UNL     1      62.124  62.755  66.595  0.00  0.00    +0.000 OA
ATOM     13  C   UNL     1      61.830  62.348  65.942  0.00  0.00    +0.000 A 
ATOM     14  C   UNL     1      61.027  62.160  65.900  0.00  0.00    +0.000 A 
ATOM     15  C   UNL     1      60.733  61.752  65.245  0.00  0.00    +0.000 A 
ATOM     16  C   UNL     1      61.240  61.534  64.633  0.00  0.00    +0.000 A 
ATOM     17  C   UNL     1      62.043  61.723  64.675  0.00  0.00    +0.000 A 
ATOM     18  C   UNL     1      62.337  62.129  65.328  0.00  0.00    +0.000 A 
ATOM     19  C   UNL     1      61.698  64.007  69.129  0.00  0.00    +0.000 A 
ATOM     20  O   UNL     1      62.500  64.195  69.171  0.00  0.00    +0.000 OA
ATOM     21  C   UNL     1      61.191  64.225  69.741  0.00  0.00    +0.000 A 
ATOM     22  N   UNL     1      61.485  64.633  70.396  0.00  0.00    +0.000 NA
ATOM     23  C   UNL     1      60.978  64.851  71.008  0.00  0.00    +0.000 C 
ATOM     24  O   UNL     1      61.272  65.258  71.663  0.00  0.00    +0.000 OA
ATOM     25  C   UNL     1      60.388  64.037  69.699  0.00  0.00    +0.000 A 
ATOM     26  O   UNL     1      60.094  63.630  69.046  0.00  0.00    +0.000 OA
ENDROOT
TORSDOF 0
ENDMDL
MODEL 3
REMARK VINA RESULT:   -11.643      1.753      2.230
REMARK INTER + INTRA:         -11.643
REMARK INTER:                 -11.643
REMARK INTRA:                   0.000
REMARK UNBOUND:                 0.000
ROOT
REMARK  Name = iguratimod
REMARK                            x       y       z     vdW  Elec       q    Type
REMARK                         _______ _______ _______ _____ _____    ______ ____
ATOM      1  C   UNL     1      63.414  64.635  70.017  0.00  0.00    +0.000 C 
ATOM      2  S   UNL     1      62.689  64.260  70.132  0.00  0.00    +0.000 S 
ATOM      3  O   UNL     1      62.704  64.474  70.929  0.00  0.00    +0.000 OA
ATOM      4  O   UNL     1      62.673  64.046  69.336  0.00  0.00    +0.000 OA
ATOM      5  N   UNL     1      61.963  63.884  70.247  0.00  0.00    +0.000 NA
ATOM      6  C   UNL     1      61.588  63.511  69.615  0.00  0.00    +0.000 A 
ATOM      7  C   UNL     1      61.937  63.513  68.867  0.00  0.00    +0.000 A 
ATOM      8  C   UNL     1      61.561  63.140  68.234  0.00  0.00    +0.000 A 
ATOM      9  C   UNL     1      60.835  62.764  68.350  0.00  0.00    +0.000 A 
ATOM     10  C   UNL     1      60.486  62.762  69.097  0.00  0.00    +0.000 A 
ATOM     11  C   UNL     1      60.861  63.135  69.730  0.00  0.00    +0.000 A 
ATOM     12  O   UNL     1      60.512  63.133  70.477  0.00  0.00    +0.000 OA
ATOM     13  C   UNL     1      60.888  63.506  71.109  0.00  0.00    +0.000 A 
ATOM     14  C   UNL     1      61.614  63.882  70.994  0.00  0.00    +0.000 A 
ATOM     15  C   UNL     1      61.990  64.255  71.627  0.00  0.00    +0.000 A 
ATOM     16  C   UNL     1      61.641  64.253  72.374  0.00  0.00    +0.000 A 
ATOM     17  C   UNL     1      60.915  63.877  72.489  0.00  0.00    +0.000 A 
ATOM     18  C   UNL     1      60.539  63.504  71.857  0.00  0.00    +0.000 A 
ATOM     19  C   UNL     1      60.459  62.391  67.718  0.00  0.00    +0.000 A 
ATOM     20  O   UNL     1      59.734  62.015  67.833  0.00  0.00    +0.000 OA
ATOM     21  C   UNL     1      60.808  62.393  66.971  0.00  0.00    +0.000 A 
ATOM     22  N   UNL     1      60.432  62.020  66.338  0.00  0.00    +0.000 NA
ATOM     23  C   UNL     1      60.781  62.022  65.591  0.00  0.00    +0.000 C 
ATOM     24  O   UNL     1      60.406  61.649  64.958  0.00  0.00    +0.000 OA
ATOM     25  C   UNL     1      61.534  62.769  66.856  0.00  0.00    +0.000 A 
ATOM     26  O   UNL     1      61.910  63.142  67.488  0.00  0.00    +0.000 OA
ENDROOT
TORSDOF 0
ENDMDL
MODEL 4
REMARK VINA RESULT:   -11.489      1.602      2.486
REMARK INTER + INTRA:         -11.489
REMARK INTER:                 -11.489
REMARK INTRA:                   0.000
REMARK UNBOUND:                 0.000
ROOT
REMARK  Name = iguratimod
REMARK                            x       y       z     vdW  Elec       q    Type
REMARK                         _______ _______ _______ _____ _____    ______ ____
ATOM      1  C   UNL     1      59.729  66.567  69.323  0.00  0.00    +0.000 C 
ATOM      2  S   UNL     1      59.797  65.831  69.690  0.00  0.00    +0.000 S 
ATOM      3  O   UNL     1      59.558  66.165  70.405  0.00  0.00    +0.000 OA
ATOM      4  O   UNL     1      60.036  65.497  68.974  0.00  0.00    +0.000 OA
ATOM      5  N   UNL     1      59.865  65.095  70.056  0.00  0.00    +0.000 NA
ATOM      6  C   UNL     1      60.106  64.438  69.620  0.00  0.00    +0.000 A 
ATOM      7  C   UNL     1      60.279  64.516  68.817  0.00  0.00    +0.000 A 
ATOM      8  C   UNL     1      60.520  63.859  68.380  0.00  0.00    +0.000 A 
ATOM      9  C   UNL     1      60.588  63.122  68.747  0.00  0.00    +0.000 A 
ATOM     10  C   UNL     1      60.415  63.044  69.551  0.00  0.00    +0.000 A 
ATOM     11  C   UNL     1      60.174  63.701  69.987  0.00  0.00    +0.000 A 
ATOM     12  O   UNL     1      60.001  63.623  70.790  0.00  0.00    +0.000 OA
ATOM     13  C   UNL     1      59.761  64.280  71.226  0.00  0.00    +0.000 A 
ATOM     14  C   UNL     1      59.693  65.017  70.859  0.00  0.00    +0.000 A 
ATOM     15  C   UNL     1      59.452  65.674  71.295  0.00  0.00    +0.000 A 
ATOM     16  C   UNL     1      59.279  65.596  72.098  0.00  0.00    +0.000 A 
ATOM     17  C   UNL     1      59.347  64.859  72.465  0.00  0.00    +0.000 A 
ATOM     18  C   UNL     1      59.588  64.202  72.029  0.00  0.00    +0.000 A 
ATOM     19  C   UNL     1      60.829  62.465  68.311  0.00  0.00    +0.000 A 
ATOM     20  O   UNL     1      60.897  61.729  68.678  0.00  0.00    +0.000 OA
ATOM     21  C   UNL     1      61.002  62.543  67.509  0.00  0.00    +0.000 A 
ATOM     22  N   UNL     1      61.243  61.886  67.072  0.00  0.00    +0.000 NA
ATOM     23  C   UNL     1      61.416  61.964  66.270  0.00  0.00    +0.000 C 
ATOM     24  O   UNL     1      61.657  61.307  65.833  0.00  0.00    +0.000 OA
ATOM     25  C   UNL     1      60.934  63.280  67.142  0.00  0.00    +0.000 A 
ATOM     26  O   UNL     1      60.693  63.937  67.578  0.00  0.00    +0.000 OA
ENDROOT
TORSDOF 0
ENDMDL
MODEL 5
REMARK VINA RESULT:   -11.485      3.625      4.989
REMARK INTER + INTRA:         -11.485
REMARK INTER:                 -11.485
REMARK INTRA:                   0.000
REMARK UNBOUND:                 0.000
ROOT
REMARK  Name = iguratimod
REMARK                            x       y       z     vdW  Elec       q    Type
REMARK                         _______ _______ _______ _____ _____    ______ ____
ATOM      1  C   UNL     1      61.682  63.573  68.571  0.00  0.00    +0.000 C 
ATOM      2  S   UNL     1      61.865  63.735  69.360  0.00  0.00    +0.000 S 
ATOM      3  O   UNL     1      61.277  63.210  69.604  0.00  0.00    +0.000 OA
ATOM      4  O   UNL     1      62.453  64.260  69.116  0.00  0.00    +0.000 OA
ATOM      5  N   UNL     1      62.048  63.896  70.148  0.00  0.00    +0.000 NA
ATOM      6  C   UNL     1      62.648  64.431  70.330  0.00  0.00    +0.000 A 
ATOM      7  C   UNL     1      63.066  64.805  69.725  0.00  0.00    +0.000 A 
ATOM      8  C   UNL     1      63.667  65.341  69.907  0.00  0.00    +0.000 A 
ATOM      9  C   UNL     1      63.850  65.503  70.696  0.00  0.00    +0.000 A 
ATOM     10  C   UNL     1      63.432  65.128  71.301  0.00  0.00    +0.000 A 
ATOM     11  C   UNL     1      62.831  64.593  71.119  0.00  0.00    +0.000 A 
ATOM     12  O   UNL     1      62.413  64.219  71.724  0.00  0.00    +0.000 OA
ATOM     13  C   UNL     1      61.813  63.685  71.541  0.00  0.00    +0.000 A 
ATOM     14  C   UNL     1      61.630  63.523  70.752  0.00  0.00    +0.000 A 
ATOM     15  C   UNL     1      61.029  62.987  70.570  0.00  0.00    +0.000 A 
ATOM     16  C   UNL     1      60.611  62.614  71.175  0.00  0.00    +0.000 A 
ATOM     17  C   UNL     1      60.795  62.776  71.964  0.00  0.00    +0.000 A 
ATOM     18  C   UNL     1      61.395  63.311  72.146  0.00  0.00    +0.000 A 
ATOM     19  C   UNL     1      64.450  66.037  70.879  0.00  0.00    +0.000 A 
ATOM     20  O   UNL     1      64.633  66.199  71.667  0.00  0.00    +0.000 OA
ATOM     21  C   UNL     1      64.868  66.411  70.274  0.00  0.00    +0.000 A 
ATOM     22  N   UNL     1      65.469  66.946  70.456  0.00  0.00    +0.000 NA
ATOM     23  C   UNL     1      65.886  67.320  69.852  0.00  0.00    +0.000 C 
ATOM     24  O   UNL     1      66.487  67.855  70.034  0.00  0.00    +0.000 OA
ATOM     25  C   UNL     1      64.685  66.249  69.485  0.00  0.00    +0.000 A 
ATOM     26  O   UNL     1      64.085  65.714  69.303  0.00  0.00    +0.000 OA
ENDROOT
TORSDOF 0
ENDMDL
MODEL 6
REMARK VINA RESULT:   -11.123      3.866      5.249
REMARK INTER + INTRA:         -11.123
REMARK INTER:                 -11.123
REMARK INTRA:                   0.000
REMARK UNBOUND:                 0.000
ROOT
REMARK  Name = iguratimod
REMARK                            x       y       z     vdW  Elec       q    Type
REMARK                         _______ _______ _______ _____ _____    ______ ____
ATOM      1  C   UNL     1      63.121  66.591  72.656  0.00  0.00    +0.000 C 
ATOM      2  S   UNL     1      63.424  66.399  71.913  0.00  0.00    +0.000 S 
ATOM      3  O   UNL     1      64.029  66.951  72.018  0.00  0.00    +0.000 OA
ATOM      4  O   UNL     1      62.820  65.848  71.809  0.00  0.00    +0.000 OA
ATOM      5  N   UNL     1      63.728  66.208  71.170  0.00  0.00    +0.000 NA
ATOM      6  C   UNL     1      63.356  65.635  70.709  0.00  0.00    +0.000 A 
ATOM      7  C   UNL     1      62.681  65.253  70.989  0.00  0.00    +0.000 A 
ATOM      8  C   UNL     1      62.308  64.679  70.527  0.00  0.00    +0.000 A 
ATOM      9  C   UNL     1      62.612  64.488  69.783  0.00  0.00    +0.000 A 
ATOM     10  C   UNL     1      63.287  64.870  69.503  0.00  0.00    +0.000 A 
ATOM     11  C   UNL     1      63.660  65.444  69.965  0.00  0.00    +0.000 A 
ATOM     12  O   UNL     1      64.334  65.826  69.684  0.00  0.00    +0.000 OA
ATOM     13  C   UNL     1      64.706  66.399  70.146  0.00  0.00    +0.000 A 
ATOM     14  C   UNL     1      64.402  66.590  70.890  0.00  0.00    +0.000 A 
ATOM     15  C   UNL     1      64.775  67.164  71.352  0.00  0.00    +0.000 A 
ATOM     16  C   UNL     1      65.449  67.546  71.071  0.00  0.00    +0.000 A 
ATOM     17  C   UNL     1      65.753  67.354  70.328  0.00  0.00    +0.000 A 
ATOM     18  C   UNL     1      65.381  66.781  69.866  0.00  0.00    +0.000 A 
ATOM     19  C   UNL     1      62.240  63.915  69.322  0.00  0.00    +0.000 A 
ATOM     20  O   UNL     1      62.544  63.723  68.579  0.00  0.00    +0.000 OA
ATOM     21  C   UNL     1      61.566  63.533  69.602  0.00  0.00    +0.000 A 
ATOM     22  N   UNL     1      61.193  62.959  69.140  0.00  0.00    +0.000 NA
ATOM     23  C   UNL     1      60.519  62.577  69.420  0.00  0.00    +0.000 C 
ATOM     24  O   UNL     1      60.147  62.004  68.959  0.00  0.00    +0.000 OA
ATOM     25  C   UNL     1      61.262  63.724  70.346  0.00  0.00    +0.000 A 
ATOM     26  O   UNL     1      61.634  64.297  70.808  0.00  0.00    +0.000 OA
ENDROOT
TORSDOF 0
ENDMDL
MODEL 7
REMARK VINA RESULT:   -10.944      3.352      4.933
REMARK INTER + INTRA:         -10.944
REMARK INTER:                 -10.944
REMARK INTRA:                   0.000
REMARK UNBOUND:                 0.000
ROOT
REMARK  Name = iguratimod
REMARK                            x       y       z     vdW  Elec       q    Type
REMARK                         _______ _______ _______ _____ _____    ______ ____
ATOM      1  C   UNL     1      61.443  62.967  71.906  0.00  0.00    +0.000 C 
ATOM      2  S   UNL     1      61.633  63.198  71.137  0.00  0.00    +0.000 S 
ATOM      3  O   UNL     1      61.082  62.660  70.839  0.00  0.00    +0.000 OA
ATOM      4  O   UNL     1      62.184  63.735  71.434  0.00  0.00    +0.000 OA
ATOM      5  N   UNL     1      61.823  63.428  70.368  0.00  0.00    +0.000 NA
ATOM      6  C   UNL     1      62.395  64.008  70.241  0.00  0.00    +0.000 A 
ATOM      7  C   UNL     1      62.777  64.359  70.882  0.00  0.00    +0.000 A 
ATOM      8  C   UNL     1      63.350  64.940  70.756  0.00  0.00    +0.000 A 
ATOM      9  C   UNL     1      63.540  65.170  69.986  0.00  0.00    +0.000 A 
ATOM     10  C   UNL     1      63.157  64.820  69.345  0.00  0.00    +0.000 A 
ATOM     11  C   UNL     1      62.585  64.239  69.471  0.00  0.00    +0.000 A 
ATOM     12  O   UNL     1      62.203  63.889  68.830  0.00  0.00    +0.000 OA
ATOM     13  C   UNL     1      61.631  63.309  68.956  0.00  0.00    +0.000 A 
ATOM     14  C   UNL     1      61.441  63.079  69.726  0.00  0.00    +0.000 A 
ATOM     15  C   UNL     1      60.868  62.498  69.853  0.00  0.00    +0.000 A 
ATOM     16  C   UNL     1      60.486  62.148  69.211  0.00  0.00    +0.000 A 
ATOM     17  C   UNL     1      60.677  62.379  68.441  0.00  0.00    +0.000 A 
ATOM     18  C   UNL     1      61.248  62.959  68.315  0.00  0.00    +0.000 A 
ATOM     19  C   UNL     1      64.112  65.751  69.859  0.00  0.00    +0.000 A 
ATOM     20  O   UNL     1      64.302  65.981  69.090  0.00  0.00    +0.000 OA
ATOM     21  C   UNL     1      64.494  66.100  70.501  0.00  0.00    +0.000 A 
ATOM     22  N   UNL     1      65.066  66.681  70.374  0.00  0.00    +0.000 NA
ATOM     23  C   UNL     1      65.448  67.031  71.016  0.00  0.00    +0.000 C 
ATOM     24  O   UNL     1      66.021  67.612  70.889  0.00  0.00    +0.000 OA
ATOM     25  C   UNL     1      64.304  65.869  71.271  0.00  0.00    +0.000 A 
ATOM     26  O   UNL     1      63.732  65.289  71.397  0.00  0.00    +0.000 OA
ENDROOT
TORSDOF 0
ENDMDL
MODEL 8
REMARK VINA RESULT:   -10.771      2.447      3.218
REMARK INTER + INTRA:         -10.771
REMARK INTER:                 -10.771
REMARK INTRA:                   0.000
REMARK UNBOUND:                 0.000
ROOT
REMARK  Name = iguratimod
REMARK                            x       y       z     vdW  Elec       q    Type
REMARK                         _______ _______ _______ _____ _____    ______ ____
ATOM      1  C   UNL     1      60.652  65.526  71.353  0.00  0.00    +0.000 C 
ATOM      2  S   UNL     1      61.262  65.222  70.888  0.00  0.00    +0.000 S 
ATOM      3  O   UNL     1      61.818  65.573  71.388  0.00  0.00    +0.000 OA
ATOM      4  O   UNL     1      60.707  64.871  70.389  0.00  0.00    +0.000 OA
ATOM      5  N   UNL     1      61.872  64.917  70.424  0.00  0.00    +0.000 NA
ATOM      6  C   UNL     1      61.696  64.462  69.760  0.00  0.00    +0.000 A 
ATOM      7  C   UNL     1      60.911  64.310  69.559  0.00  0.00    +0.000 A 
ATOM      8  C   UNL     1      60.734  63.854  68.894  0.00  0.00    +0.000 A 
ATOM      9  C   UNL     1      61.345  63.549  68.429  0.00  0.00    +0.000 A 
ATOM     10  C   UNL     1      62.131  63.701  68.630  0.00  0.00    +0.000 A 
ATOM     11  C   UNL     1      62.307  64.157  69.294  0.00  0.00    +0.000 A 
ATOM     12  O   UNL     1      63.092  64.309  69.494  0.00  0.00    +0.000 OA
ATOM     13  C   UNL     1      63.268  64.764  70.159  0.00  0.00    +0.000 A 
ATOM     14  C   UNL     1      62.658  65.069  70.624  0.00  0.00    +0.000 A 
ATOM     15  C   UNL     1      62.834  65.525  71.289  0.00  0.00    +0.000 A 
ATOM     16  C   UNL     1      63.619  65.677  71.489  0.00  0.00    +0.000 A 
ATOM     17  C   UNL     1      64.230  65.372  71.023  0.00  0.00    +0.000 A 
ATOM     18  C   UNL     1      64.054  64.916  70.359  0.00  0.00    +0.000 A 
ATOM     19  C   UNL     1      61.169  63.094  67.765  0.00  0.00    +0.000 A 
ATOM     20  O   UNL     1      61.779  62.790  67.300  0.00  0.00    +0.000 OA
ATOM     21  C   UNL     1      60.384  62.942  67.565  0.00  0.00    +0.000 A 
ATOM     22  N   UNL     1      60.207  62.486  66.900  0.00  0.00    +0.000 NA
ATOM     23  C   UNL     1      59.422  62.335  66.700  0.00  0.00    +0.000 C 
ATOM     24  O   UNL     1      59.245  61.879  66.035  0.00  0.00    +0.000 OA
ATOM     25  C   UNL     1      59.773  63.247  68.030  0.00  0.00    +0.000 A 
ATOM     26  O   UNL     1      59.949  63.702  68.694  0.00  0.00    +0.000 OA
ENDROOT
TORSDOF 0
ENDMDL
MODEL 9
REMARK VINA RESULT:   -10.506      3.955      6.398
REMARK INTER + INTRA:         -10.506
REMARK INTER:                 -10.506
REMARK INTRA:                   0.000
REMARK UNBOUND:                 0.000
ROOT
REMARK  Name = iguratimod
REMARK                            x       y       z     vdW  Elec       q    Type
REMARK                         _______ _______ _______ _____ _____    ______ ____
ATOM      1  C   UNL     1      63.119  63.836  70.298  0.00  0.00    +0.000 C 
ATOM      2  S   UNL     1      62.490  64.109  70.757  0.00  0.00    +0.000 S 
ATOM      3  O   UNL     1      62.074  63.415  70.599  0.00  0.00    +0.000 OA
ATOM      4  O   UNL     1      62.907  64.804  70.914  0.00  0.00    +0.000 OA
ATOM      5  N   UNL     1      61.861  64.382  71.215  0.00  0.00    +0.000 NA
ATOM      6  C   UNL     1      61.907  65.120  71.580  0.00  0.00    +0.000 A 
ATOM      7  C   UNL     1      62.582  65.586  71.488  0.00  0.00    +0.000 A 
ATOM      8  C   UNL     1      62.629  66.324  71.853  0.00  0.00    +0.000 A 
ATOM      9  C   UNL     1      61.999  66.598  72.312  0.00  0.00    +0.000 A 
ATOM     10  C   UNL     1      61.324  66.132  72.405  0.00  0.00    +0.000 A 
ATOM     11  C   UNL     1      61.277  65.394  72.039  0.00  0.00    +0.000 A 
ATOM     12  O   UNL     1      60.603  64.929  72.132  0.00  0.00    +0.000 OA
ATOM     13  C   UNL     1      60.557  64.191  71.767  0.00  0.00    +0.000 A 
ATOM     14  C   UNL     1      61.187  63.918  71.308  0.00  0.00    +0.000 A 
ATOM     15  C   UNL     1      61.140  63.179  70.943  0.00  0.00    +0.000 A 
ATOM     16  C   UNL     1      60.466  62.715  71.035  0.00  0.00    +0.000 A 
ATOM     17  C   UNL     1      59.836  62.988  71.494  0.00  0.00    +0.000 A 
ATOM     18  C   UNL     1      59.882  63.726  71.859  0.00  0.00    +0.000 A 
ATOM     19  C   UNL     1      62.045  67.335  72.677  0.00  0.00    +0.000 A 
ATOM     20  O   UNL     1      61.416  67.609  73.136  0.00  0.00    +0.000 OA
ATOM     21  C   UNL     1      62.720  67.800  72.585  0.00  0.00    +0.000 A 
ATOM     22  N   UNL     1      62.766  68.538  72.950  0.00  0.00    +0.000 NA
ATOM     23  C   UNL     1      63.441  69.003  72.857  0.00  0.00    +0.000 C 
ATOM     24  O   UNL     1      63.488  69.742  73.222  0.00  0.00    +0.000 OA
ATOM     25  C   UNL     1      63.350  67.526  72.126  0.00  0.00    +0.000 A 
ATOM     26  O   UNL     1      63.304  66.789  71.760  0.00  0.00    +0.000 OA
ENDROOT
TORSDOF 0
ENDMDL
