MODEL 1
REMARK VINA RESULT:   -12.391      0.000      0.000
REMARK INTER + INTRA:         -12.391
REMARK INTER:                 -12.391
REMARK INTRA:                   0.000
REMARK UNBOUND:                 0.000
ROOT
REMARK  Name = ilaprazole
REMARK                            x       y       z     vdW  Elec       q    Type
REMARK                         _______ _______ _______ _____ _____    ______ ____
ATOM      1  C   UNL     1      61.995  65.259  72.732  0.00  0.00    +0.000 C 
ATOM      2  O   UNL     1      61.933  64.928  71.979  0.00  0.00    +0.000 OA
ATOM      3  C   UNL     1      61.212  64.621  71.720  0.00  0.00    +0.000 A 
ATOM      4  C   UNL     1      60.552  64.645  72.216  0.00  0.00    +0.000 A 
ATOM      5  C   UNL     1      59.832  64.339  71.958  0.00  0.00    +0.000 A 
ATOM      6  N   UNL     1      59.770  64.008  71.205  0.00  0.00    +0.000 NA
ATOM      7  C   UNL     1      60.428  63.984  70.710  0.00  0.00    +0.000 A 
ATOM      8  C   UNL     1      60.366  63.654  69.956  0.00  0.00    +0.000 C 
ATOM      9  S   UNL     1      61.026  63.630  69.460  0.00  0.00    +0.000 S 
ATOM     10  O   UNL     1      61.747  63.936  69.719  0.00  0.00    +0.000 OA
ATOM     11  C   UNL     1      60.964  63.299  68.707  0.00  0.00    +0.000 C 
ATOM     12  N   UNL     1      61.572  63.237  68.153  0.00  0.00    +0.000 NA
ATOM     13  C   UNL     1      61.267  62.872  67.480  0.00  0.00    +0.000 C 
ATOM     14  C   UNL     1      60.470  62.709  67.617  0.00  0.00    +0.000 C 
ATOM     15  N   UNL     1      60.282  62.972  68.375  0.00  0.00    +0.000 NA
ATOM     16  C   UNL     1      60.018  62.341  67.033  0.00  0.00    +0.000 C 
ATOM     17  C   UNL     1      60.362  62.136  66.312  0.00  0.00    +0.000 C 
ATOM     18  C   UNL     1      61.159  62.299  66.175  0.00  0.00    +0.000 C 
ATOM     19  C   UNL     1      61.612  62.667  66.758  0.00  0.00    +0.000 C 
ATOM     20  N   UNL     1      61.504  62.095  65.454  0.00  0.00    +0.000 N 
ATOM     21  C   UNL     1      61.123  61.726  64.822  0.00  0.00    +0.000 A 
ATOM     22  C   UNL     1      61.674  61.626  64.216  0.00  0.00    +0.000 A 
ATOM     23  C   UNL     1      62.395  61.933  64.473  0.00  0.00    +0.000 A 
ATOM     24  C   UNL     1      62.290  62.222  65.238  0.00  0.00    +0.000 A 
ATOM     25  C   UNL     1      61.150  64.291  70.967  0.00  0.00    +0.000 A 
ATOM     26  C   UNL     1      61.809  64.267  70.472  0.00  0.00    +0.000 C 
ENDROOT
TORSDOF 0
ENDMDL
MODEL 2
REMARK VINA RESULT:   -12.155      1.618      5.886
REMARK INTER + INTRA:         -12.155
REMARK INTER:                 -12.155
REMARK INTRA:                   0.000
REMARK UNBOUND:                 0.000
ROOT
REMARK  Name = ilaprazole
REMARK                            x       y       z     vdW  Elec       q    Type
REMARK                         _______ _______ _______ _____ _____    ______ ____
ATOM      1  C   UNL     1      60.504  60.619  63.843  0.00  0.00    +0.000 C 
ATOM      2  O   UNL     1      60.527  60.993  64.578  0.00  0.00    +0.000 OA
ATOM      3  C   UNL     1      61.152  61.497  64.765  0.00  0.00    +0.000 A 
ATOM      4  C   UNL     1      61.756  61.626  64.217  0.00  0.00    +0.000 A 
ATOM      5  C   UNL     1      62.382  62.130  64.405  0.00  0.00    +0.000 A 
ATOM      6  N   UNL     1      62.404  62.505  65.139  0.00  0.00    +0.000 NA
ATOM      7  C   UNL     1      61.801  62.375  65.687  0.00  0.00    +0.000 A 
ATOM      8  C   UNL     1      61.824  62.750  66.421  0.00  0.00    +0.000 C 
ATOM      9  S   UNL     1      61.220  62.620  66.970  0.00  0.00    +0.000 S 
ATOM     10  O   UNL     1      60.595  62.117  66.782  0.00  0.00    +0.000 OA
ATOM     11  C   UNL     1      61.243  62.995  67.704  0.00  0.00    +0.000 C 
ATOM     12  N   UNL     1      60.682  62.920  68.305  0.00  0.00    +0.000 NA
ATOM     13  C   UNL     1      60.923  63.388  68.938  0.00  0.00    +0.000 C 
ATOM     14  C   UNL     1      61.633  63.754  68.730  0.00  0.00    +0.000 C 
ATOM     15  N   UNL     1      61.831  63.511  67.968  0.00  0.00    +0.000 NA
ATOM     16  C   UNL     1      62.007  64.261  69.263  0.00  0.00    +0.000 C 
ATOM     17  C   UNL     1      61.672  64.403  70.003  0.00  0.00    +0.000 C 
ATOM     18  C   UNL     1      60.962  64.037  70.211  0.00  0.00    +0.000 C 
ATOM     19  C   UNL     1      60.588  63.530  69.679  0.00  0.00    +0.000 C 
ATOM     20  N   UNL     1      60.627  64.178  70.951  0.00  0.00    +0.000 N 
ATOM     21  C   UNL     1      60.936  64.669  71.538  0.00  0.00    +0.000 A 
ATOM     22  C   UNL     1      60.424  64.648  72.184  0.00  0.00    +0.000 A 
ATOM     23  C   UNL     1      59.798  64.145  71.998  0.00  0.00    +0.000 A 
ATOM     24  C   UNL     1      59.924  63.854  71.236  0.00  0.00    +0.000 A 
ATOM     25  C   UNL     1      61.175  61.871  65.500  0.00  0.00    +0.000 A 
ATOM     26  C   UNL     1      60.572  61.742  66.047  0.00  0.00    +0.000 C 
ENDROOT
TORSDOF 0
ENDMDL
MODEL 3
REMARK VINA RESULT:   -11.812      1.873      5.485
REMARK INTER + INTRA:         -11.812
REMARK INTER:                 -11.812
REMARK INTRA:                   0.000
REMARK UNBOUND:                 0.000
ROOT
REMARK  Name = ilaprazole
REMARK                            x       y       z     vdW  Elec       q    Type
REMARK                         _______ _______ _______ _____ _____    ______ ____
ATOM      1  C   UNL     1      60.873  61.249  64.610  0.00  0.00    +0.000 C 
ATOM      2  O   UNL     1      61.112  61.690  65.265  0.00  0.00    +0.000 OA
ATOM      3  C   UNL     1      60.554  61.946  65.816  0.00  0.00    +0.000 A 
ATOM      4  C   UNL     1      59.757  61.761  65.711  0.00  0.00    +0.000 A 
ATOM      5  C   UNL     1      59.199  62.017  66.262  0.00  0.00    +0.000 A 
ATOM      6  N   UNL     1      59.438  62.458  66.917  0.00  0.00    +0.000 NA
ATOM      7  C   UNL     1      60.234  62.643  67.021  0.00  0.00    +0.000 A 
ATOM      8  C   UNL     1      60.473  63.084  67.676  0.00  0.00    +0.000 C 
ATOM      9  S   UNL     1      61.271  63.270  67.781  0.00  0.00    +0.000 S 
ATOM     10  O   UNL     1      61.829  63.013  67.230  0.00  0.00    +0.000 OA
ATOM     11  C   UNL     1      61.510  63.711  68.435  0.00  0.00    +0.000 C 
ATOM     12  N   UNL     1      62.283  63.937  68.612  0.00  0.00    +0.000 NA
ATOM     13  C   UNL     1      62.268  64.369  69.314  0.00  0.00    +0.000 C 
ATOM     14  C   UNL     1      61.486  64.410  69.572  0.00  0.00    +0.000 C 
ATOM     15  N   UNL     1      61.017  64.003  69.029  0.00  0.00    +0.000 NA
ATOM     16  C   UNL     1      61.302  64.813  70.268  0.00  0.00    +0.000 C 
ATOM     17  C   UNL     1      61.900  65.174  70.706  0.00  0.00    +0.000 C 
ATOM     18  C   UNL     1      62.682  65.133  70.448  0.00  0.00    +0.000 C 
ATOM     19  C   UNL     1      62.867  64.731  69.753  0.00  0.00    +0.000 C 
ATOM     20  N   UNL     1      63.281  65.494  70.886  0.00  0.00    +0.000 N 
ATOM     21  C   UNL     1      63.180  65.914  71.590  0.00  0.00    +0.000 A 
ATOM     22  C   UNL     1      63.922  66.179  71.836  0.00  0.00    +0.000 A 
ATOM     23  C   UNL     1      64.481  65.923  71.286  0.00  0.00    +0.000 A 
ATOM     24  C   UNL     1      64.084  65.500  70.699  0.00  0.00    +0.000 A 
ATOM     25  C   UNL     1      60.793  62.387  66.471  0.00  0.00    +0.000 A 
ATOM     26  C   UNL     1      61.590  62.572  66.575  0.00  0.00    +0.000 C 
ENDROOT
TORSDOF 0
ENDMDL
MODEL 4
REMARK VINA RESULT:   -11.782      2.868      5.515
REMARK INTER + INTRA:         -11.782
REMARK INTER:                 -11.782
REMARK INTRA:                   0.000
REMARK UNBOUND:                 0.000
ROOT
REMARK  Name = ilaprazole
REMARK                            x       y       z     vdW  Elec       q    Type
REMARK                         _______ _______ _______ _____ _____    ______ ____
ATOM      1  C   UNL     1      60.083  62.098  66.692  0.00  0.00    +0.000 C 
ATOM      2  O   UNL     1      60.616  62.577  67.099  0.00  0.00    +0.000 OA
ATOM      3  C   UNL     1      60.658  62.542  67.922  0.00  0.00    +0.000 A 
ATOM      4  C   UNL     1      60.165  62.026  68.338  0.00  0.00    +0.000 A 
ATOM      5  C   UNL     1      60.207  61.990  69.161  0.00  0.00    +0.000 A 
ATOM      6  N   UNL     1      60.741  62.470  69.569  0.00  0.00    +0.000 NA
ATOM      7  C   UNL     1      61.233  62.984  69.153  0.00  0.00    +0.000 A 
ATOM      8  C   UNL     1      61.767  63.463  69.561  0.00  0.00    +0.000 C 
ATOM      9  S   UNL     1      62.260  63.979  69.145  0.00  0.00    +0.000 S 
ATOM     10  O   UNL     1      62.218  64.015  68.322  0.00  0.00    +0.000 OA
ATOM     11  C   UNL     1      62.793  64.458  69.552  0.00  0.00    +0.000 C 
ATOM     12  N   UNL     1      63.318  64.997  69.213  0.00  0.00    +0.000 NA
ATOM     13  C   UNL     1      63.744  65.354  69.822  0.00  0.00    +0.000 C 
ATOM     14  C   UNL     1      63.484  65.036  70.537  0.00  0.00    +0.000 C 
ATOM     15  N   UNL     1      62.896  64.482  70.371  0.00  0.00    +0.000 NA
ATOM     16  C   UNL     1      63.817  65.293  71.247  0.00  0.00    +0.000 C 
ATOM     17  C   UNL     1      64.409  65.866  71.243  0.00  0.00    +0.000 C 
ATOM     18  C   UNL     1      64.669  66.185  70.528  0.00  0.00    +0.000 C 
ATOM     19  C   UNL     1      64.337  65.929  69.817  0.00  0.00    +0.000 C 
ATOM     20  N   UNL     1      65.261  66.759  70.522  0.00  0.00    +0.000 N 
ATOM     21  C   UNL     1      65.643  67.067  71.186  0.00  0.00    +0.000 A 
ATOM     22  C   UNL     1      66.194  67.624  70.927  0.00  0.00    +0.000 A 
ATOM     23  C   UNL     1      66.153  67.661  70.104  0.00  0.00    +0.000 A 
ATOM     24  C   UNL     1      65.576  67.125  69.854  0.00  0.00    +0.000 A 
ATOM     25  C   UNL     1      61.192  63.021  68.330  0.00  0.00    +0.000 A 
ATOM     26  C   UNL     1      61.684  63.536  67.914  0.00  0.00    +0.000 C 
ENDROOT
TORSDOF 0
ENDMDL
MODEL 5
REMARK VINA RESULT:   -11.640      3.341      4.464
REMARK INTER + INTRA:         -11.640
REMARK INTER:                 -11.640
REMARK INTRA:                   0.000
REMARK UNBOUND:                 0.000
ROOT
REMARK  Name = ilaprazole
REMARK                            x       y       z     vdW  Elec       q    Type
REMARK                         _______ _______ _______ _____ _____    ______ ____
ATOM      1  C   UNL     1      66.803  68.182  69.842  0.00  0.00    +0.000 C 
ATOM      2  O   UNL     1      66.207  67.620  69.745  0.00  0.00    +0.000 OA
ATOM      3  C   UNL     1      65.944  67.181  70.392  0.00  0.00    +0.000 A 
ATOM      4  C   UNL     1      66.279  67.304  71.137  0.00  0.00    +0.000 A 
ATOM      5  C   UNL     1      66.016  66.865  71.784  0.00  0.00    +0.000 A 
ATOM      6  N   UNL     1      65.420  66.303  71.687  0.00  0.00    +0.000 NA
ATOM      7  C   UNL     1      65.086  66.181  70.944  0.00  0.00    +0.000 A 
ATOM      8  C   UNL     1      64.489  65.619  70.847  0.00  0.00    +0.000 C 
ATOM      9  S   UNL     1      64.154  65.496  70.102  0.00  0.00    +0.000 S 
ATOM     10  O   UNL     1      64.417  65.935  69.455  0.00  0.00    +0.000 OA
ATOM     11  C   UNL     1      63.558  64.935  70.006  0.00  0.00    +0.000 C 
ATOM     12  N   UNL     1      63.173  64.752  69.299  0.00  0.00    +0.000 NA
ATOM     13  C   UNL     1      62.619  64.162  69.456  0.00  0.00    +0.000 C 
ATOM     14  C   UNL     1      62.661  63.980  70.259  0.00  0.00    +0.000 C 
ATOM     15  N   UNL     1      63.241  64.457  70.599  0.00  0.00    +0.000 NA
ATOM     16  C   UNL     1      62.164  63.402  70.577  0.00  0.00    +0.000 C 
ATOM     17  C   UNL     1      61.627  63.007  70.092  0.00  0.00    +0.000 C 
ATOM     18  C   UNL     1      61.586  63.189  69.288  0.00  0.00    +0.000 C 
ATOM     19  C   UNL     1      62.081  63.767  68.970  0.00  0.00    +0.000 C 
ATOM     20  N   UNL     1      61.048  62.795  68.802  0.00  0.00    +0.000 N 
ATOM     21  C   UNL     1      60.520  62.207  69.041  0.00  0.00    +0.000 A 
ATOM     22  C   UNL     1      60.090  61.967  68.380  0.00  0.00    +0.000 A 
ATOM     23  C   UNL     1      60.352  62.406  67.732  0.00  0.00    +0.000 A 
ATOM     24  C   UNL     1      60.944  62.917  67.994  0.00  0.00    +0.000 A 
ATOM     25  C   UNL     1      65.347  66.619  70.295  0.00  0.00    +0.000 A 
ATOM     26  C   UNL     1      65.013  66.497  69.552  0.00  0.00    +0.000 C 
ENDROOT
TORSDOF 0
ENDMDL
MODEL 6
REMARK VINA RESULT:   -11.556      1.716      2.238
REMARK INTER + INTRA:         -11.556
REMARK INTER:                 -11.556
REMARK INTRA:                   0.000
REMARK UNBOUND:                 0.000
ROOT
REMARK  Name = ilaprazole
REMARK                            x       y       z     vdW  Elec       q    Type
REMARK                         _______ _______ _______ _____ _____    ______ ____
ATOM      1  C   UNL     1      65.368  66.214  71.570  0.00  0.00    +0.000 C 
ATOM      2  O   UNL     1      64.870  65.813  71.049  0.00  0.00    +0.000 OA
ATOM      3  C   UNL     1      64.060  65.773  71.200  0.00  0.00    +0.000 A 
ATOM      4  C   UNL     1      63.748  66.136  71.873  0.00  0.00    +0.000 A 
ATOM      5  C   UNL     1      62.938  66.096  72.024  0.00  0.00    +0.000 A 
ATOM      6  N   UNL     1      62.440  65.695  71.503  0.00  0.00    +0.000 NA
ATOM      7  C   UNL     1      62.752  65.333  70.831  0.00  0.00    +0.000 A 
ATOM      8  C   UNL     1      62.254  64.931  70.310  0.00  0.00    +0.000 C 
ATOM      9  S   UNL     1      62.566  64.568  69.637  0.00  0.00    +0.000 S 
ATOM     10  O   UNL     1      63.376  64.608  69.486  0.00  0.00    +0.000 OA
ATOM     11  C   UNL     1      62.068  64.167  69.117  0.00  0.00    +0.000 C 
ATOM     12  N   UNL     1      62.299  63.780  68.426  0.00  0.00    +0.000 NA
ATOM     13  C   UNL     1      61.626  63.456  68.078  0.00  0.00    +0.000 C 
ATOM     14  C   UNL     1      60.978  63.643  68.553  0.00  0.00    +0.000 C 
ATOM     15  N   UNL     1      61.251  64.082  69.195  0.00  0.00    +0.000 NA
ATOM     16  C   UNL     1      60.223  63.388  68.340  0.00  0.00    +0.000 C 
ATOM     17  C   UNL     1      60.115  62.947  67.651  0.00  0.00    +0.000 C 
ATOM     18  C   UNL     1      60.763  62.760  67.176  0.00  0.00    +0.000 C 
ATOM     19  C   UNL     1      61.518  63.015  67.388  0.00  0.00    +0.000 C 
ATOM     20  N   UNL     1      60.656  62.319  66.487  0.00  0.00    +0.000 N 
ATOM     21  C   UNL     1      59.937  62.028  66.204  0.00  0.00    +0.000 A 
ATOM     22  C   UNL     1      60.085  61.621  65.503  0.00  0.00    +0.000 A 
ATOM     23  C   UNL     1      60.895  61.660  65.350  0.00  0.00    +0.000 A 
ATOM     24  C   UNL     1      61.247  62.092  65.959  0.00  0.00    +0.000 A 
ATOM     25  C   UNL     1      63.562  65.372  70.679  0.00  0.00    +0.000 A 
ATOM     26  C   UNL     1      63.874  65.010  70.007  0.00  0.00    +0.000 C 
ENDROOT
TORSDOF 0
ENDMDL
MODEL 7
REMARK VINA RESULT:   -10.060      1.937      5.897
REMARK INTER + INTRA:         -10.060
REMARK INTER:                 -10.060
REMARK INTRA:                   0.000
REMARK UNBOUND:                 0.000
ROOT
REMARK  Name = ilaprazole
REMARK                            x       y       z     vdW  Elec       q    Type
REMARK                         _______ _______ _______ _____ _____    ______ ____
ATOM      1  C   UNL     1      59.378  62.500  66.445  0.00  0.00    +0.000 C 
ATOM      2  O   UNL     1      59.665  62.960  67.067  0.00  0.00    +0.000 OA
ATOM      3  C   UNL     1      59.968  62.597  67.743  0.00  0.00    +0.000 A 
ATOM      4  C   UNL     1      59.983  61.773  67.798  0.00  0.00    +0.000 A 
ATOM      5  C   UNL     1      60.285  61.411  68.474  0.00  0.00    +0.000 A 
ATOM      6  N   UNL     1      60.572  61.871  69.096  0.00  0.00    +0.000 NA
ATOM      7  C   UNL     1      60.557  62.693  69.041  0.00  0.00    +0.000 A 
ATOM      8  C   UNL     1      60.844  63.153  69.663  0.00  0.00    +0.000 C 
ATOM      9  S   UNL     1      60.829  63.977  69.608  0.00  0.00    +0.000 S 
ATOM     10  O   UNL     1      60.527  64.339  68.932  0.00  0.00    +0.000 OA
ATOM     11  C   UNL     1      61.116  64.437  70.230  0.00  0.00    +0.000 C 
ATOM     12  N   UNL     1      61.137  65.261  70.255  0.00  0.00    +0.000 NA
ATOM     13  C   UNL     1      61.466  65.486  70.976  0.00  0.00    +0.000 C 
ATOM     14  C   UNL     1      61.649  64.802  71.398  0.00  0.00    +0.000 C 
ATOM     15  N   UNL     1      61.433  64.153  70.938  0.00  0.00    +0.000 NA
ATOM     16  C   UNL     1      61.990  64.858  72.148  0.00  0.00    +0.000 C 
ATOM     17  C   UNL     1      62.147  65.598  72.475  0.00  0.00    +0.000 C 
ATOM     18  C   UNL     1      61.964  66.283  72.053  0.00  0.00    +0.000 C 
ATOM     19  C   UNL     1      61.623  66.228  71.304  0.00  0.00    +0.000 C 
ATOM     20  N   UNL     1      62.120  67.024  72.380  0.00  0.00    +0.000 N 
ATOM     21  C   UNL     1      62.457  67.166  73.120  0.00  0.00    +0.000 A 
ATOM     22  C   UNL     1      62.513  67.982  73.222  0.00  0.00    +0.000 A 
ATOM     23  C   UNL     1      62.211  68.346  72.546  0.00  0.00    +0.000 A 
ATOM     24  C   UNL     1      61.969  67.753  72.026  0.00  0.00    +0.000 A 
ATOM     25  C   UNL     1      60.255  63.057  68.365  0.00  0.00    +0.000 A 
ATOM     26  C   UNL     1      60.240  63.879  68.310  0.00  0.00    +0.000 C 
ENDROOT
TORSDOF 0
ENDMDL
MODEL 8
REMARK VINA RESULT:    -9.755      4.987      6.611
REMARK INTER + INTRA:          -9.755
REMARK INTER:                  -9.755
REMARK INTRA:                   0.000
REMARK UNBOUND:                 0.000
ROOT
REMARK  Name = ilaprazole
REMARK                            x       y       z     vdW  Elec       q    Type
REMARK                         _______ _______ _______ _____ _____    ______ ____
ATOM      1  C   UNL     1      67.478  67.861  69.711  0.00  0.00    +0.000 C 
ATOM      2  O   UNL     1      66.723  67.636  69.957  0.00  0.00    +0.000 OA
ATOM      3  C   UNL     1      66.608  67.341  70.718  0.00  0.00    +0.000 A 
ATOM      4  C   UNL     1      67.248  67.270  71.234  0.00  0.00    +0.000 A 
ATOM      5  C   UNL     1      67.133  66.975  71.996  0.00  0.00    +0.000 A 
ATOM      6  N   UNL     1      66.378  66.750  72.242  0.00  0.00    +0.000 NA
ATOM      7  C   UNL     1      65.739  66.821  71.726  0.00  0.00    +0.000 A 
ATOM      8  C   UNL     1      64.984  66.596  71.972  0.00  0.00    +0.000 C 
ATOM      9  S   UNL     1      64.343  66.667  71.455  0.00  0.00    +0.000 S 
ATOM     10  O   UNL     1      64.459  66.962  70.694  0.00  0.00    +0.000 OA
ATOM     11  C   UNL     1      63.588  66.442  71.701  0.00  0.00    +0.000 C 
ATOM     12  N   UNL     1      62.900  66.481  71.249  0.00  0.00    +0.000 NA
ATOM     13  C   UNL     1      62.276  66.202  71.711  0.00  0.00    +0.000 C 
ATOM     14  C   UNL     1      62.579  65.991  72.449  0.00  0.00    +0.000 C 
ATOM     15  N   UNL     1      63.390  66.139  72.443  0.00  0.00    +0.000 NA
ATOM     16  C   UNL     1      62.076  65.691  73.030  0.00  0.00    +0.000 C 
ATOM     17  C   UNL     1      61.272  65.602  72.874  0.00  0.00    +0.000 C 
ATOM     18  C   UNL     1      60.969  65.813  72.137  0.00  0.00    +0.000 C 
ATOM     19  C   UNL     1      61.470  66.113  71.555  0.00  0.00    +0.000 C 
ATOM     20  N   UNL     1      60.164  65.724  71.980  0.00  0.00    +0.000 N 
ATOM     21  C   UNL     1      59.597  65.433  72.505  0.00  0.00    +0.000 A 
ATOM     22  C   UNL     1      58.867  65.440  72.122  0.00  0.00    +0.000 A 
ATOM     23  C   UNL     1      58.981  65.735  71.360  0.00  0.00    +0.000 A 
ATOM     24  C   UNL     1      59.783  65.911  71.273  0.00  0.00    +0.000 A 
ATOM     25  C   UNL     1      65.853  67.116  70.964  0.00  0.00    +0.000 A 
ATOM     26  C   UNL     1      65.214  67.187  70.448  0.00  0.00    +0.000 C 
ENDROOT
TORSDOF 0
ENDMDL
MODEL 9
REMARK VINA RESULT:    -9.464     14.806     15.705
REMARK INTER + INTRA:          -9.464
REMARK INTER:                  -9.464
REMARK INTRA:                   0.000
REMARK UNBOUND:                 0.000
ROOT
REMARK  Name = ilaprazole
REMARK                            x       y       z     vdW  Elec       q    Type
REMARK                         _______ _______ _______ _____ _____    ______ ____
ATOM      1  C   UNL     1      61.547  61.478  52.600  0.00  0.00    +0.000 C 
ATOM      2  O   UNL     1      61.572  62.275  52.812  0.00  0.00    +0.000 OA
ATOM      3  C   UNL     1      62.219  62.570  53.230  0.00  0.00    +0.000 A 
ATOM      4  C   UNL     1      62.842  62.068  53.435  0.00  0.00    +0.000 A 
ATOM      5  C   UNL     1      63.489  62.363  53.853  0.00  0.00    +0.000 A 
ATOM      6  N   UNL     1      63.514  63.160  54.065  0.00  0.00    +0.000 NA
ATOM      7  C   UNL     1      62.893  63.661  53.860  0.00  0.00    +0.000 A 
ATOM      8  C   UNL     1      62.918  64.458  54.073  0.00  0.00    +0.000 C 
ATOM      9  S   UNL     1      62.296  64.960  53.867  0.00  0.00    +0.000 S 
ATOM     10  O   UNL     1      61.649  64.665  53.450  0.00  0.00    +0.000 OA
ATOM     11  C   UNL     1      62.321  65.757  54.080  0.00  0.00    +0.000 C 
ATOM     12  N   UNL     1      61.744  66.322  53.914  0.00  0.00    +0.000 NA
ATOM     13  C   UNL     1      61.995  67.042  54.227  0.00  0.00    +0.000 C 
ATOM     14  C   UNL     1      62.728  66.923  54.587  0.00  0.00    +0.000 C 
ATOM     15  N   UNL     1      62.930  66.129  54.496  0.00  0.00    +0.000 NA
ATOM     16  C   UNL     1      63.116  67.554  54.951  0.00  0.00    +0.000 C 
ATOM     17  C   UNL     1      62.772  68.303  54.955  0.00  0.00    +0.000 C 
ATOM     18  C   UNL     1      62.039  68.422  54.595  0.00  0.00    +0.000 C 
ATOM     19  C   UNL     1      61.650  67.793  54.231  0.00  0.00    +0.000 C 
ATOM     20  N   UNL     1      61.694  69.172  54.599  0.00  0.00    +0.000 N 
ATOM     21  C   UNL     1      62.016  69.851  54.940  0.00  0.00    +0.000 A 
ATOM     22  C   UNL     1      61.488  70.473  54.815  0.00  0.00    +0.000 A 
ATOM     23  C   UNL     1      60.841  70.179  54.397  0.00  0.00    +0.000 A 
ATOM     24  C   UNL     1      60.968  69.375  54.264  0.00  0.00    +0.000 A 
ATOM     25  C   UNL     1      62.245  63.367  53.442  0.00  0.00    +0.000 A 
ATOM     26  C   UNL     1      61.623  63.868  53.237  0.00  0.00    +0.000 C 
ENDROOT
TORSDOF 0
ENDMDL
