MODEL 1
REMARK VINA RESULT:   -16.186      0.000      0.000
REMARK INTER + INTRA:         -16.186
REMARK INTER:                 -16.186
REMARK INTRA:                   0.000
REMARK UNBOUND:                 0.000
ROOT
REMARK  Name = imatinib
REMARK                            x       y       z     vdW  Elec       q    Type
REMARK                         _______ _______ _______ _____ _____    ______ ____
ATOM      1  C   UNL     1      66.741  67.251  70.971  0.00  0.00    +0.000 C 
ATOM      2  N   UNL     1      65.974  67.072  71.219  0.00  0.00    +0.000 NA
ATOM      3  C   UNL     1      65.700  67.353  71.944  0.00  0.00    +0.000 C 
ATOM      4  C   UNL     1      64.933  67.174  72.192  0.00  0.00    +0.000 C 
ATOM      5  N   UNL     1      64.441  66.715  71.714  0.00  0.00    +0.000 NA
ATOM      6  C   UNL     1      63.676  66.536  71.961  0.00  0.00    +0.000 C 
ATOM      7  C   UNL     1      63.184  66.078  71.484  0.00  0.00    +0.000 A 
ATOM      8  C   UNL     1      62.418  65.899  71.731  0.00  0.00    +0.000 A 
ATOM      9  C   UNL     1      61.926  65.440  71.253  0.00  0.00    +0.000 A 
ATOM     10  C   UNL     1      62.201  65.159  70.528  0.00  0.00    +0.000 A 
ATOM     11  C   UNL     1      62.967  65.338  70.280  0.00  0.00    +0.000 A 
ATOM     12  C   UNL     1      63.459  65.797  70.758  0.00  0.00    +0.000 A 
ATOM     13  C   UNL     1      61.710  64.700  70.049  0.00  0.00    +0.000 C 
ATOM     14  O   UNL     1      60.944  64.522  70.297  0.00  0.00    +0.000 OA
ATOM     15  N   UNL     1      61.984  64.420  69.324  0.00  0.00    +0.000 NA
ATOM     16  C   UNL     1      61.493  63.961  68.846  0.00  0.00    +0.000 A 
ATOM     17  C   UNL     1      60.727  63.782  69.094  0.00  0.00    +0.000 A 
ATOM     18  C   UNL     1      60.235  63.323  68.616  0.00  0.00    +0.000 A 
ATOM     19  C   UNL     1      60.510  63.043  67.890  0.00  0.00    +0.000 A 
ATOM     20  C   UNL     1      60.019  62.584  67.413  0.00  0.00    +0.000 C 
ATOM     21  C   UNL     1      61.277  63.222  67.642  0.00  0.00    +0.000 A 
ATOM     22  N   UNL     1      61.551  62.941  66.917  0.00  0.00    +0.000 NA
ATOM     23  C   UNL     1      61.060  62.483  66.440  0.00  0.00    +0.000 A 
ATOM     24  N   UNL     1      60.294  62.304  66.687  0.00  0.00    +0.000 NA
ATOM     25  C   UNL     1      59.802  61.845  66.209  0.00  0.00    +0.000 A 
ATOM     26  C   UNL     1      60.077  61.564  65.483  0.00  0.00    +0.000 A 
ATOM     27  C   UNL     1      60.844  61.743  65.235  0.00  0.00    +0.000 A 
ATOM     28  N   UNL     1      61.335  62.202  65.714  0.00  0.00    +0.000 NA
ATOM     29  C   UNL     1      61.118  61.462  64.510  0.00  0.00    +0.000 A 
ATOM     30  C   UNL     1      60.627  61.004  64.033  0.00  0.00    +0.000 A 
ATOM     31  N   UNL     1      60.902  60.723  63.307  0.00  0.00    +0.000 NA
ATOM     32  C   UNL     1      61.668  60.902  63.059  0.00  0.00    +0.000 A 
ATOM     33  C   UNL     1      62.160  61.361  63.537  0.00  0.00    +0.000 A 
ATOM     34  C   UNL     1      61.885  61.641  64.263  0.00  0.00    +0.000 A 
ATOM     35  C   UNL     1      61.768  63.681  68.121  0.00  0.00    +0.000 A 
ATOM     36  C   UNL     1      64.717  66.435  70.989  0.00  0.00    +0.000 C 
ATOM     37  C   UNL     1      65.483  66.613  70.741  0.00  0.00    +0.000 C 
ENDROOT
TORSDOF 0
ENDMDL
MODEL 2
REMARK VINA RESULT:   -15.632      0.860      7.537
REMARK INTER + INTRA:         -15.632
REMARK INTER:                 -15.632
REMARK INTRA:                   0.000
REMARK UNBOUND:                 0.000
ROOT
REMARK  Name = imatinib
REMARK                            x       y       z     vdW  Elec       q    Type
REMARK                         _______ _______ _______ _____ _____    ______ ____
ATOM      1  C   UNL     1      62.388  61.176  63.015  0.00  0.00    +0.000 C 
ATOM      2  N   UNL     1      61.796  61.250  63.587  0.00  0.00    +0.000 NA
ATOM      3  C   UNL     1      61.059  60.899  63.464  0.00  0.00    +0.000 C 
ATOM      4  C   UNL     1      60.468  60.973  64.035  0.00  0.00    +0.000 C 
ATOM      5  N   UNL     1      60.614  61.397  64.728  0.00  0.00    +0.000 NA
ATOM      6  C   UNL     1      60.024  61.470  65.298  0.00  0.00    +0.000 C 
ATOM      7  C   UNL     1      60.169  61.894  65.991  0.00  0.00    +0.000 A 
ATOM      8  C   UNL     1      59.578  61.967  66.562  0.00  0.00    +0.000 A 
ATOM      9  C   UNL     1      59.724  62.391  67.255  0.00  0.00    +0.000 A 
ATOM     10  C   UNL     1      60.460  62.741  67.377  0.00  0.00    +0.000 A 
ATOM     11  C   UNL     1      61.052  62.668  66.806  0.00  0.00    +0.000 A 
ATOM     12  C   UNL     1      60.906  62.244  66.113  0.00  0.00    +0.000 A 
ATOM     13  C   UNL     1      60.607  63.165  68.069  0.00  0.00    +0.000 C 
ATOM     14  O   UNL     1      60.016  63.238  68.640  0.00  0.00    +0.000 OA
ATOM     15  N   UNL     1      61.343  63.515  68.191  0.00  0.00    +0.000 NA
ATOM     16  C   UNL     1      61.490  63.939  68.884  0.00  0.00    +0.000 A 
ATOM     17  C   UNL     1      60.899  64.012  69.455  0.00  0.00    +0.000 A 
ATOM     18  C   UNL     1      61.044  64.436  70.148  0.00  0.00    +0.000 A 
ATOM     19  C   UNL     1      61.781  64.786  70.270  0.00  0.00    +0.000 A 
ATOM     20  C   UNL     1      61.926  65.210  70.962  0.00  0.00    +0.000 C 
ATOM     21  C   UNL     1      62.372  64.713  69.699  0.00  0.00    +0.000 A 
ATOM     22  N   UNL     1      63.109  65.063  69.821  0.00  0.00    +0.000 NA
ATOM     23  C   UNL     1      63.255  65.486  70.513  0.00  0.00    +0.000 A 
ATOM     24  N   UNL     1      62.663  65.560  71.084  0.00  0.00    +0.000 NA
ATOM     25  C   UNL     1      62.809  65.984  71.777  0.00  0.00    +0.000 A 
ATOM     26  C   UNL     1      63.547  66.334  71.899  0.00  0.00    +0.000 A 
ATOM     27  C   UNL     1      64.138  66.261  71.328  0.00  0.00    +0.000 A 
ATOM     28  N   UNL     1      63.991  65.837  70.636  0.00  0.00    +0.000 NA
ATOM     29  C   UNL     1      64.874  66.611  71.450  0.00  0.00    +0.000 A 
ATOM     30  C   UNL     1      65.020  67.034  72.142  0.00  0.00    +0.000 A 
ATOM     31  N   UNL     1      65.757  67.385  72.265  0.00  0.00    +0.000 NA
ATOM     32  C   UNL     1      66.348  67.311  71.694  0.00  0.00    +0.000 A 
ATOM     33  C   UNL     1      66.202  66.887  71.001  0.00  0.00    +0.000 A 
ATOM     34  C   UNL     1      65.465  66.538  70.879  0.00  0.00    +0.000 A 
ATOM     35  C   UNL     1      62.226  64.289  69.006  0.00  0.00    +0.000 A 
ATOM     36  C   UNL     1      61.351  61.747  64.850  0.00  0.00    +0.000 C 
ATOM     37  C   UNL     1      61.942  61.673  64.279  0.00  0.00    +0.000 C 
ENDROOT
TORSDOF 0
ENDMDL
