MODEL 1
REMARK VINA RESULT:   -14.467      0.000      0.000
REMARK INTER + INTRA:         -14.467
REMARK INTER:                 -14.467
REMARK INTRA:                   0.000
REMARK UNBOUND:                 0.000
ROOT
REMARK  Name = imiclopazine
REMARK                            x       y       z     vdW  Elec       q    Type
REMARK                         _______ _______ _______ _____ _____    ______ ____
ATOM      1  C   UNL     1      61.518  60.935  63.313  0.00  0.00    +0.000 C 
ATOM      2  N   UNL     1      61.659  61.324  64.027  0.00  0.00    +0.000 N 
ATOM      3  C   UNL     1      62.382  61.627  64.280  0.00  0.00    +0.000 C 
ATOM      4  C   UNL     1      62.269  61.968  65.023  0.00  0.00    +0.000 C 
ATOM      5  N   UNL     1      61.476  61.876  65.229  0.00  0.00    +0.000 N 
ATOM      6  C   UNL     1      61.123  62.135  65.927  0.00  0.00    +0.000 C 
ATOM      7  C   UNL     1      61.573  62.528  66.496  0.00  0.00    +0.000 C 
ATOM      8  N   UNL     1      61.220  62.788  67.194  0.00  0.00    +0.000 NA
ATOM      9  C   UNL     1      61.669  63.181  67.762  0.00  0.00    +0.000 C 
ATOM     10  C   UNL     1      61.316  63.441  68.462  0.00  0.00    +0.000 C 
ATOM     11  N   UNL     1      60.511  63.307  68.592  0.00  0.00    +0.000 NA
ATOM     12  C   UNL     1      60.159  63.568  69.290  0.00  0.00    +0.000 C 
ATOM     13  C   UNL     1      60.609  63.961  69.859  0.00  0.00    +0.000 C 
ATOM     14  C   UNL     1      60.255  64.220  70.557  0.00  0.00    +0.000 C 
ATOM     15  N   UNL     1      60.706  64.614  71.127  0.00  0.00    +0.000 N 
ATOM     16  C   UNL     1      60.352  64.873  71.825  0.00  0.00    +0.000 A 
ATOM     17  C   UNL     1      59.549  64.740  71.955  0.00  0.00    +0.000 A 
ATOM     18  C   UNL     1      59.194  65.000  72.654  0.00  0.00    +0.000 A 
ATOM     19  C   UNL     1      59.645  65.393  73.222  0.00  0.00    +0.000 A 
ATOM     20  C   UNL     1      60.449  65.527  73.093  0.00  0.00    +0.000 A 
ATOM     21  C   UNL     1      60.802  65.266  72.394  0.00  0.00    +0.000 A 
ATOM     22  S   UNL     1      61.606  65.400  72.264  0.00  0.00    +0.000 S 
ATOM     23  C   UNL     1      61.959  65.140  71.565  0.00  0.00    +0.000 A 
ATOM     24  C   UNL     1      61.509  64.747  70.996  0.00  0.00    +0.000 A 
ATOM     25  C   UNL     1      61.863  64.487  70.298  0.00  0.00    +0.000 A 
ATOM     26  C   UNL     1      62.666  64.620  70.168  0.00  0.00    +0.000 A 
ATOM     27 CL   UNL     1      63.021  64.361  69.469  0.00  0.00    +0.000 Cl
ATOM     28  C   UNL     1      63.117  65.013  70.736  0.00  0.00    +0.000 A 
ATOM     29  C   UNL     1      62.763  65.274  71.436  0.00  0.00    +0.000 A 
ATOM     30  C   UNL     1      60.062  62.915  68.024  0.00  0.00    +0.000 C 
ATOM     31  C   UNL     1      60.415  62.655  67.324  0.00  0.00    +0.000 C 
ATOM     32  C   UNL     1      61.098  61.477  64.613  0.00  0.00    +0.000 C 
ATOM     33  O   UNL     1      60.301  61.268  64.587  0.00  0.00    +0.000 OA
ENDROOT
TORSDOF 0
ENDMDL
MODEL 2
REMARK VINA RESULT:   -14.008      2.557      6.969
REMARK INTER + INTRA:         -14.008
REMARK INTER:                 -14.008
REMARK INTRA:                   0.000
REMARK UNBOUND:                 0.000
ROOT
REMARK  Name = imiclopazine
REMARK                            x       y       z     vdW  Elec       q    Type
REMARK                         _______ _______ _______ _____ _____    ______ ____
ATOM      1  C   UNL     1      59.975  66.383  73.216  0.00  0.00    +0.000 C 
ATOM      2  N   UNL     1      59.897  65.932  72.529  0.00  0.00    +0.000 N 
ATOM      3  C   UNL     1      59.222  65.522  72.293  0.00  0.00    +0.000 C 
ATOM      4  C   UNL     1      59.389  65.149  71.576  0.00  0.00    +0.000 C 
ATOM      5  N   UNL     1      60.167  65.328  71.370  0.00  0.00    +0.000 N 
ATOM      6  C   UNL     1      60.562  65.068  70.694  0.00  0.00    +0.000 C 
ATOM      7  C   UNL     1      60.174  64.583  70.151  0.00  0.00    +0.000 C 
ATOM      8  N   UNL     1      60.569  64.324  69.474  0.00  0.00    +0.000 NA
ATOM      9  C   UNL     1      60.181  63.839  68.932  0.00  0.00    +0.000 C 
ATOM     10  C   UNL     1      60.576  63.579  68.255  0.00  0.00    +0.000 C 
ATOM     11  N   UNL     1      61.359  63.805  68.122  0.00  0.00    +0.000 NA
ATOM     12  C   UNL     1      61.753  63.545  67.445  0.00  0.00    +0.000 C 
ATOM     13  C   UNL     1      61.366  63.060  66.902  0.00  0.00    +0.000 C 
ATOM     14  C   UNL     1      61.760  62.801  66.226  0.00  0.00    +0.000 C 
ATOM     15  N   UNL     1      61.372  62.315  65.682  0.00  0.00    +0.000 N 
ATOM     16  C   UNL     1      61.768  62.056  65.006  0.00  0.00    +0.000 A 
ATOM     17  C   UNL     1      62.549  62.281  64.873  0.00  0.00    +0.000 A 
ATOM     18  C   UNL     1      62.945  62.022  64.196  0.00  0.00    +0.000 A 
ATOM     19  C   UNL     1      62.557  61.537  63.653  0.00  0.00    +0.000 A 
ATOM     20  C   UNL     1      61.774  61.311  63.786  0.00  0.00    +0.000 A 
ATOM     21  C   UNL     1      61.380  61.571  64.463  0.00  0.00    +0.000 A 
ATOM     22  S   UNL     1      60.597  61.346  64.596  0.00  0.00    +0.000 S 
ATOM     23  C   UNL     1      60.203  61.605  65.272  0.00  0.00    +0.000 A 
ATOM     24  C   UNL     1      60.591  62.090  65.815  0.00  0.00    +0.000 A 
ATOM     25  C   UNL     1      60.196  62.350  66.491  0.00  0.00    +0.000 A 
ATOM     26  C   UNL     1      59.413  62.124  66.625  0.00  0.00    +0.000 A 
ATOM     27 CL   UNL     1      59.018  62.384  67.301  0.00  0.00    +0.000 Cl
ATOM     28  C   UNL     1      59.026  61.639  66.082  0.00  0.00    +0.000 A 
ATOM     29  C   UNL     1      59.421  61.380  65.405  0.00  0.00    +0.000 A 
ATOM     30  C   UNL     1      61.746  64.290  68.664  0.00  0.00    +0.000 C 
ATOM     31  C   UNL     1      61.352  64.549  69.341  0.00  0.00    +0.000 C 
ATOM     32  C   UNL     1      60.482  65.812  71.960  0.00  0.00    +0.000 C 
ATOM     33  O   UNL     1      61.246  66.122  71.976  0.00  0.00    +0.000 OA
ENDROOT
TORSDOF 0
ENDMDL
MODEL 3
REMARK VINA RESULT:   -11.880     14.433     15.518
REMARK INTER + INTRA:         -11.880
REMARK INTER:                 -11.880
REMARK INTRA:                   0.000
REMARK UNBOUND:                 0.000
ROOT
REMARK  Name = imiclopazine
REMARK                            x       y       z     vdW  Elec       q    Type
REMARK                         _______ _______ _______ _____ _____    ______ ____
ATOM      1  C   UNL     1      64.070  60.424  53.100  0.00  0.00    +0.000 C 
ATOM      2  N   UNL     1      63.937  61.192  53.371  0.00  0.00    +0.000 N 
ATOM      3  C   UNL     1      64.277  61.537  54.037  0.00  0.00    +0.000 C 
ATOM      4  C   UNL     1      63.990  62.308  54.101  0.00  0.00    +0.000 C 
ATOM      5  N   UNL     1      63.471  62.439  53.473  0.00  0.00    +0.000 N 
ATOM      6  C   UNL     1      63.058  63.137  53.322  0.00  0.00    +0.000 C 
ATOM      7  C   UNL     1      63.147  63.785  53.825  0.00  0.00    +0.000 C 
ATOM      8  N   UNL     1      62.735  64.483  53.675  0.00  0.00    +0.000 NA
ATOM      9  C   UNL     1      62.823  65.131  54.177  0.00  0.00    +0.000 C 
ATOM     10  C   UNL     1      62.410  65.830  54.027  0.00  0.00    +0.000 C 
ATOM     11  N   UNL     1      61.908  65.880  53.373  0.00  0.00    +0.000 NA
ATOM     12  C   UNL     1      61.495  66.578  53.223  0.00  0.00    +0.000 C 
ATOM     13  C   UNL     1      61.584  67.226  53.726  0.00  0.00    +0.000 C 
ATOM     14  C   UNL     1      61.171  67.924  53.576  0.00  0.00    +0.000 C 
ATOM     15  N   UNL     1      61.260  68.573  54.079  0.00  0.00    +0.000 N 
ATOM     16  C   UNL     1      60.847  69.271  53.928  0.00  0.00    +0.000 A 
ATOM     17  C   UNL     1      60.345  69.321  53.276  0.00  0.00    +0.000 A 
ATOM     18  C   UNL     1      59.932  70.019  53.125  0.00  0.00    +0.000 A 
ATOM     19  C   UNL     1      60.021  70.667  53.627  0.00  0.00    +0.000 A 
ATOM     20  C   UNL     1      60.523  70.617  54.281  0.00  0.00    +0.000 A 
ATOM     21  C   UNL     1      60.935  69.919  54.431  0.00  0.00    +0.000 A 
ATOM     22  S   UNL     1      61.437  69.869  55.085  0.00  0.00    +0.000 S 
ATOM     23  C   UNL     1      61.850  69.170  55.234  0.00  0.00    +0.000 A 
ATOM     24  C   UNL     1      61.761  68.522  54.732  0.00  0.00    +0.000 A 
ATOM     25  C   UNL     1      62.174  67.825  54.882  0.00  0.00    +0.000 A 
ATOM     26  C   UNL     1      62.676  67.774  55.535  0.00  0.00    +0.000 A 
ATOM     27 CL   UNL     1      63.089  67.076  55.686  0.00  0.00    +0.000 Cl
ATOM     28  C   UNL     1      62.765  68.422  56.038  0.00  0.00    +0.000 A 
ATOM     29  C   UNL     1      62.351  69.121  55.887  0.00  0.00    +0.000 A 
ATOM     30  C   UNL     1      61.819  65.232  52.871  0.00  0.00    +0.000 C 
ATOM     31  C   UNL     1      62.233  64.533  53.021  0.00  0.00    +0.000 C 
ATOM     32  C   UNL     1      63.439  61.749  53.021  0.00  0.00    +0.000 C 
ATOM     33  O   UNL     1      62.987  61.636  52.340  0.00  0.00    +0.000 OA
ENDROOT
TORSDOF 0
ENDMDL
MODEL 4
REMARK VINA RESULT:   -11.476     15.311     16.396
REMARK INTER + INTRA:         -11.476
REMARK INTER:                 -11.476
REMARK INTRA:                   0.000
REMARK UNBOUND:                 0.000
ROOT
REMARK  Name = imiclopazine
REMARK                            x       y       z     vdW  Elec       q    Type
REMARK                         _______ _______ _______ _____ _____    ______ ____
ATOM      1  C   UNL     1      61.769  70.111  54.671  0.00  0.00    +0.000 C 
ATOM      2  N   UNL     1      62.018  69.327  54.614  0.00  0.00    +0.000 N 
ATOM      3  C   UNL     1      62.743  69.028  54.866  0.00  0.00    +0.000 C 
ATOM      4  C   UNL     1      62.757  68.220  54.702  0.00  0.00    +0.000 C 
ATOM      5  N   UNL     1      62.040  68.018  54.349  0.00  0.00    +0.000 N 
ATOM      6  C   UNL     1      61.818  67.265  54.096  0.00  0.00    +0.000 C 
ATOM      7  C   UNL     1      62.337  66.630  54.187  0.00  0.00    +0.000 C 
ATOM      8  N   UNL     1      62.116  65.877  53.934  0.00  0.00    +0.000 NA
ATOM      9  C   UNL     1      62.634  65.243  54.025  0.00  0.00    +0.000 C 
ATOM     10  C   UNL     1      62.413  64.489  53.771  0.00  0.00    +0.000 C 
ATOM     11  N   UNL     1      61.672  64.371  53.426  0.00  0.00    +0.000 NA
ATOM     12  C   UNL     1      61.451  63.618  53.172  0.00  0.00    +0.000 C 
ATOM     13  C   UNL     1      61.970  62.983  53.264  0.00  0.00    +0.000 C 
ATOM     14  C   UNL     1      61.748  62.230  53.010  0.00  0.00    +0.000 C 
ATOM     15  N   UNL     1      62.268  61.594  53.102  0.00  0.00    +0.000 N 
ATOM     16  C   UNL     1      62.046  60.841  52.848  0.00  0.00    +0.000 A 
ATOM     17  C   UNL     1      61.306  60.723  52.503  0.00  0.00    +0.000 A 
ATOM     18  C   UNL     1      61.084  59.970  52.249  0.00  0.00    +0.000 A 
ATOM     19  C   UNL     1      61.603  59.335  52.340  0.00  0.00    +0.000 A 
ATOM     20  C   UNL     1      62.343  59.453  52.686  0.00  0.00    +0.000 A 
ATOM     21  C   UNL     1      62.564  60.206  52.939  0.00  0.00    +0.000 A 
ATOM     22  S   UNL     1      63.305  60.324  53.285  0.00  0.00    +0.000 S 
ATOM     23  C   UNL     1      63.525  61.077  53.538  0.00  0.00    +0.000 A 
ATOM     24  C   UNL     1      63.007  61.712  53.447  0.00  0.00    +0.000 A 
ATOM     25  C   UNL     1      63.228  62.465  53.700  0.00  0.00    +0.000 A 
ATOM     26  C   UNL     1      63.968  62.584  54.046  0.00  0.00    +0.000 A 
ATOM     27 CL   UNL     1      64.190  63.337  54.300  0.00  0.00    +0.000 Cl
ATOM     28  C   UNL     1      64.487  61.949  54.137  0.00  0.00    +0.000 A 
ATOM     29  C   UNL     1      64.265  61.195  53.883  0.00  0.00    +0.000 A 
ATOM     30  C   UNL     1      61.154  65.005  53.334  0.00  0.00    +0.000 C 
ATOM     31  C   UNL     1      61.375  65.759  53.588  0.00  0.00    +0.000 C 
ATOM     32  C   UNL     1      61.582  68.703  54.295  0.00  0.00    +0.000 C 
ATOM     33  O   UNL     1      60.823  68.754  53.976  0.00  0.00    +0.000 OA
ENDROOT
TORSDOF 0
ENDMDL
