MODEL 1
REMARK VINA RESULT:   -12.106      0.000      0.000
REMARK INTER + INTRA:         -12.106
REMARK INTER:                 -12.106
REMARK INTRA:                   0.000
REMARK UNBOUND:                 0.000
ROOT
REMARK  Name = imipramine oxide
REMARK                            x       y       z     vdW  Elec       q    Type
REMARK                         _______ _______ _______ _____ _____    ______ ____
ATOM      1  C   UNL     1      61.272  64.015  69.214  0.00  0.00    +0.000 C 
ATOM      2  N   UNL     1      61.578  63.749  68.495  0.00  0.00    +0.000 N 
ATOM      3  C   UNL     1      60.848  63.409  68.310  0.00  0.00    +0.000 C 
ATOM      4  O   UNL     1      62.307  64.089  68.681  0.00  0.00    +0.000 OA
ATOM      5  C   UNL     1      61.883  63.483  67.777  0.00  0.00    +0.000 C 
ATOM      6  C   UNL     1      61.405  63.056  67.257  0.00  0.00    +0.000 C 
ATOM      7  C   UNL     1      61.712  62.790  66.539  0.00  0.00    +0.000 C 
ATOM      8  N   UNL     1      61.234  62.363  66.020  0.00  0.00    +0.000 N 
ATOM      9  C   UNL     1      61.593  62.123  65.317  0.00  0.00    +0.000 A 
ATOM     10  C   UNL     1      62.380  62.369  65.281  0.00  0.00    +0.000 A 
ATOM     11  C   UNL     1      62.840  62.186  64.622  0.00  0.00    +0.000 A 
ATOM     12  C   UNL     1      62.514  61.756  63.998  0.00  0.00    +0.000 A 
ATOM     13  C   UNL     1      61.728  61.510  64.034  0.00  0.00    +0.000 A 
ATOM     14  C   UNL     1      61.267  61.694  64.693  0.00  0.00    +0.000 A 
ATOM     15  C   UNL     1      60.501  61.397  64.618  0.00  0.00    +0.000 C 
ATOM     16  C   UNL     1      59.871  61.458  65.148  0.00  0.00    +0.000 C 
ATOM     17  C   UNL     1      59.853  61.829  65.884  0.00  0.00    +0.000 A 
ATOM     18  C   UNL     1      60.458  62.232  66.272  0.00  0.00    +0.000 A 
ATOM     19  C   UNL     1      60.323  62.567  67.013  0.00  0.00    +0.000 A 
ATOM     20  C   UNL     1      59.580  62.498  67.367  0.00  0.00    +0.000 A 
ATOM     21  C   UNL     1      58.975  62.096  66.979  0.00  0.00    +0.000 A 
ATOM     22  C   UNL     1      59.110  61.761  66.238  0.00  0.00    +0.000 A 
ENDROOT
TORSDOF 0
ENDMDL
MODEL 2
REMARK VINA RESULT:   -11.352      2.915      4.748
REMARK INTER + INTRA:         -11.352
REMARK INTER:                 -11.352
REMARK INTRA:                   0.000
REMARK UNBOUND:                 0.000
ROOT
REMARK  Name = imipramine oxide
REMARK                            x       y       z     vdW  Elec       q    Type
REMARK                         _______ _______ _______ _____ _____    ______ ____
ATOM      1  C   UNL     1      59.568  67.165  70.967  0.00  0.00    +0.000 C 
ATOM      2  N   UNL     1      59.651  66.531  70.444  0.00  0.00    +0.000 N 
ATOM      3  C   UNL     1      59.835  66.033  71.077  0.00  0.00    +0.000 C 
ATOM      4  O   UNL     1      59.466  67.030  69.813  0.00  0.00    +0.000 OA
ATOM      5  C   UNL     1      59.733  65.898  69.922  0.00  0.00    +0.000 C 
ATOM      6  C   UNL     1      59.933  65.150  70.208  0.00  0.00    +0.000 C 
ATOM      7  C   UNL     1      60.015  64.518  69.684  0.00  0.00    +0.000 C 
ATOM      8  N   UNL     1      60.215  63.770  69.970  0.00  0.00    +0.000 N 
ATOM      9  C   UNL     1      60.283  63.176  69.402  0.00  0.00    +0.000 A 
ATOM     10  C   UNL     1      60.132  63.465  68.644  0.00  0.00    +0.000 A 
ATOM     11  C   UNL     1      60.171  62.959  67.994  0.00  0.00    +0.000 A 
ATOM     12  C   UNL     1      60.361  62.164  68.101  0.00  0.00    +0.000 A 
ATOM     13  C   UNL     1      60.513  61.875  68.859  0.00  0.00    +0.000 A 
ATOM     14  C   UNL     1      60.474  62.381  69.509  0.00  0.00    +0.000 A 
ATOM     15  C   UNL     1      60.644  61.983  70.212  0.00  0.00    +0.000 C 
ATOM     16  C   UNL     1      60.665  62.282  70.980  0.00  0.00    +0.000 C 
ATOM     17  C   UNL     1      60.521  63.053  71.236  0.00  0.00    +0.000 A 
ATOM     18  C   UNL     1      60.321  63.716  70.787  0.00  0.00    +0.000 A 
ATOM     19  C   UNL     1      60.200  64.443  71.155  0.00  0.00    +0.000 A 
ATOM     20  C   UNL     1      60.279  64.509  71.975  0.00  0.00    +0.000 A 
ATOM     21  C   UNL     1      60.479  63.847  72.423  0.00  0.00    +0.000 A 
ATOM     22  C   UNL     1      60.600  63.119  72.055  0.00  0.00    +0.000 A 
ENDROOT
TORSDOF 0
ENDMDL
MODEL 3
REMARK VINA RESULT:   -11.274      3.269      5.179
REMARK INTER + INTRA:         -11.274
REMARK INTER:                 -11.274
REMARK INTRA:                   0.000
REMARK UNBOUND:                 0.000
ROOT
REMARK  Name = imipramine oxide
REMARK                            x       y       z     vdW  Elec       q    Type
REMARK                         _______ _______ _______ _____ _____    ______ ____
ATOM      1  C   UNL     1      59.449  66.513  69.087  0.00  0.00    +0.000 C 
ATOM      2  N   UNL     1      59.751  66.067  69.713  0.00  0.00    +0.000 N 
ATOM      3  C   UNL     1      59.775  65.400  69.227  0.00  0.00    +0.000 C 
ATOM      4  O   UNL     1      59.727  66.735  70.198  0.00  0.00    +0.000 OA
ATOM      5  C   UNL     1      60.053  65.622  70.339  0.00  0.00    +0.000 C 
ATOM      6  C   UNL     1      60.224  64.822  70.231  0.00  0.00    +0.000 C 
ATOM      7  C   UNL     1      60.526  64.378  70.858  0.00  0.00    +0.000 C 
ATOM      8  N   UNL     1      60.697  63.578  70.750  0.00  0.00    +0.000 N 
ATOM      9  C   UNL     1      60.997  63.184  71.410  0.00  0.00    +0.000 A 
ATOM     10  C   UNL     1      61.063  63.690  72.059  0.00  0.00    +0.000 A 
ATOM     11  C   UNL     1      61.352  63.405  72.776  0.00  0.00    +0.000 A 
ATOM     12  C   UNL     1      61.575  62.614  72.847  0.00  0.00    +0.000 A 
ATOM     13  C   UNL     1      61.508  62.108  72.198  0.00  0.00    +0.000 A 
ATOM     14  C   UNL     1      61.219  62.393  71.481  0.00  0.00    +0.000 A 
ATOM     15  C   UNL     1      61.197  61.800  70.907  0.00  0.00    +0.000 C 
ATOM     16  C   UNL     1      60.948  61.852  70.122  0.00  0.00    +0.000 C 
ATOM     17  C   UNL     1      60.658  62.510  69.717  0.00  0.00    +0.000 A 
ATOM     18  C   UNL     1      60.547  63.278  69.996  0.00  0.00    +0.000 A 
ATOM     19  C   UNL     1      60.247  63.860  69.495  0.00  0.00    +0.000 A 
ATOM     20  C   UNL     1      60.059  63.674  68.713  0.00  0.00    +0.000 A 
ATOM     21  C   UNL     1      60.171  62.906  68.434  0.00  0.00    +0.000 A 
ATOM     22  C   UNL     1      60.470  62.324  68.935  0.00  0.00    +0.000 A 
ENDROOT
TORSDOF 0
ENDMDL
MODEL 4
REMARK VINA RESULT:   -11.226      2.973      4.916
REMARK INTER + INTRA:         -11.226
REMARK INTER:                 -11.226
REMARK INTRA:                   0.000
REMARK UNBOUND:                 0.000
ROOT
REMARK  Name = imipramine oxide
REMARK                            x       y       z     vdW  Elec       q    Type
REMARK                         _______ _______ _______ _____ _____    ______ ____
ATOM      1  C   UNL     1      63.172  66.414  71.675  0.00  0.00    +0.000 C 
ATOM      2  N   UNL     1      62.838  65.926  71.099  0.00  0.00    +0.000 N 
ATOM      3  C   UNL     1      62.626  65.382  71.684  0.00  0.00    +0.000 C 
ATOM      4  O   UNL     1      63.050  66.470  70.516  0.00  0.00    +0.000 OA
ATOM      5  C   UNL     1      62.503  65.438  70.525  0.00  0.00    +0.000 C 
ATOM      6  C   UNL     1      62.153  64.723  70.743  0.00  0.00    +0.000 C 
ATOM      7  C   UNL     1      61.818  64.236  70.167  0.00  0.00    +0.000 C 
ATOM      8  N   UNL     1      61.468  63.521  70.385  0.00  0.00    +0.000 N 
ATOM      9  C   UNL     1      61.150  63.076  69.768  0.00  0.00    +0.000 A 
ATOM     10  C   UNL     1      61.254  63.451  69.040  0.00  0.00    +0.000 A 
ATOM     11  C   UNL     1      60.975  63.096  68.350  0.00  0.00    +0.000 A 
ATOM     12  C   UNL     1      60.593  62.366  68.386  0.00  0.00    +0.000 A 
ATOM     13  C   UNL     1      60.489  61.991  69.114  0.00  0.00    +0.000 A 
ATOM     14  C   UNL     1      60.768  62.346  69.804  0.00  0.00    +0.000 A 
ATOM     15  C   UNL     1      60.609  61.881  70.468  0.00  0.00    +0.000 C 
ATOM     16  C   UNL     1      60.792  62.032  71.258  0.00  0.00    +0.000 C 
ATOM     17  C   UNL     1      61.181  62.685  71.580  0.00  0.00    +0.000 A 
ATOM     18  C   UNL     1      61.482  63.348  71.192  0.00  0.00    +0.000 A 
ATOM     19  C   UNL     1      61.854  63.944  71.622  0.00  0.00    +0.000 A 
ATOM     20  C   UNL     1      61.927  63.878  72.442  0.00  0.00    +0.000 A 
ATOM     21  C   UNL     1      61.626  63.215  72.829  0.00  0.00    +0.000 A 
ATOM     22  C   UNL     1      61.253  62.619  72.399  0.00  0.00    +0.000 A 
ENDROOT
TORSDOF 0
ENDMDL
MODEL 5
REMARK VINA RESULT:   -11.095      2.206      5.159
REMARK INTER + INTRA:         -11.095
REMARK INTER:                 -11.095
REMARK INTRA:                   0.000
REMARK UNBOUND:                 0.000
ROOT
REMARK  Name = imipramine oxide
REMARK                            x       y       z     vdW  Elec       q    Type
REMARK                         _______ _______ _______ _____ _____    ______ ____
ATOM      1  C   UNL     1      60.685  62.444  67.016  0.00  0.00    +0.000 C 
ATOM      2  N   UNL     1      61.022  62.927  67.595  0.00  0.00    +0.000 N 
ATOM      3  C   UNL     1      60.746  62.417  68.182  0.00  0.00    +0.000 C 
ATOM      4  O   UNL     1      61.298  63.437  67.007  0.00  0.00    +0.000 OA
ATOM      5  C   UNL     1      61.358  63.410  68.173  0.00  0.00    +0.000 C 
ATOM      6  C   UNL     1      61.287  63.210  68.970  0.00  0.00    +0.000 C 
ATOM      7  C   UNL     1      61.624  63.694  69.548  0.00  0.00    +0.000 C 
ATOM      8  N   UNL     1      61.553  63.494  70.345  0.00  0.00    +0.000 N 
ATOM      9  C   UNL     1      61.909  64.013  70.878  0.00  0.00    +0.000 A 
ATOM     10  C   UNL     1      62.272  64.643  70.487  0.00  0.00    +0.000 A 
ATOM     11  C   UNL     1      62.662  65.228  70.920  0.00  0.00    +0.000 A 
ATOM     12  C   UNL     1      62.688  65.183  71.743  0.00  0.00    +0.000 A 
ATOM     13  C   UNL     1      62.326  64.553  72.133  0.00  0.00    +0.000 A 
ATOM     14  C   UNL     1      61.936  63.969  71.701  0.00  0.00    +0.000 A 
ATOM     15  C   UNL     1      61.613  63.392  72.195  0.00  0.00    +0.000 C 
ATOM     16  C   UNL     1      61.184  62.718  71.988  0.00  0.00    +0.000 C 
ATOM     17  C   UNL     1      60.972  62.455  71.236  0.00  0.00    +0.000 A 
ATOM     18  C   UNL     1      61.136  62.800  70.504  0.00  0.00    +0.000 A 
ATOM     19  C   UNL     1      60.869  62.443  69.811  0.00  0.00    +0.000 A 
ATOM     20  C   UNL     1      60.438  61.740  69.848  0.00  0.00    +0.000 A 
ATOM     21  C   UNL     1      60.274  61.395  70.579  0.00  0.00    +0.000 A 
ATOM     22  C   UNL     1      60.540  61.752  71.272  0.00  0.00    +0.000 A 
ENDROOT
TORSDOF 0
ENDMDL
MODEL 6
REMARK VINA RESULT:   -11.034      2.569      5.478
REMARK INTER + INTRA:         -11.034
REMARK INTER:                 -11.034
REMARK INTRA:                   0.000
REMARK UNBOUND:                 0.000
ROOT
REMARK  Name = imipramine oxide
REMARK                            x       y       z     vdW  Elec       q    Type
REMARK                         _______ _______ _______ _____ _____    ______ ____
ATOM      1  C   UNL     1      60.125  62.741  67.281  0.00  0.00    +0.000 C 
ATOM      2  N   UNL     1      60.418  62.455  67.998  0.00  0.00    +0.000 N 
ATOM      3  C   UNL     1      60.196  63.158  68.370  0.00  0.00    +0.000 C 
ATOM      4  O   UNL     1      60.640  61.753  67.625  0.00  0.00    +0.000 OA
ATOM      5  C   UNL     1      60.711  62.169  68.714  0.00  0.00    +0.000 C 
ATOM      6  C   UNL     1      60.665  62.634  69.394  0.00  0.00    +0.000 C 
ATOM      7  C   UNL     1      60.958  62.347  70.110  0.00  0.00    +0.000 C 
ATOM      8  N   UNL     1      60.913  62.811  70.790  0.00  0.00    +0.000 N 
ATOM      9  C   UNL     1      61.221  62.473  71.476  0.00  0.00    +0.000 A 
ATOM     10  C   UNL     1      61.520  61.718  71.332  0.00  0.00    +0.000 A 
ATOM     11  C   UNL     1      61.855  61.283  71.947  0.00  0.00    +0.000 A 
ATOM     12  C   UNL     1      61.892  61.602  72.706  0.00  0.00    +0.000 A 
ATOM     13  C   UNL     1      61.593  62.357  72.850  0.00  0.00    +0.000 A 
ATOM     14  C   UNL     1      61.258  62.793  72.235  0.00  0.00    +0.000 A 
ATOM     15  C   UNL     1      60.995  63.530  72.496  0.00  0.00    +0.000 C 
ATOM     16  C   UNL     1      60.630  64.129  72.062  0.00  0.00    +0.000 C 
ATOM     17  C   UNL     1      60.438  64.139  71.260  0.00  0.00    +0.000 A 
ATOM     18  C   UNL     1      60.564  63.553  70.693  0.00  0.00    +0.000 A 
ATOM     19  C   UNL     1      60.328  63.676  69.913  0.00  0.00    +0.000 A 
ATOM     20  C   UNL     1      59.965  64.386  69.698  0.00  0.00    +0.000 A 
ATOM     21  C   UNL     1      59.840  64.972  70.265  0.00  0.00    +0.000 A 
ATOM     22  C   UNL     1      60.076  64.849  71.045  0.00  0.00    +0.000 A 
ENDROOT
TORSDOF 0
ENDMDL
MODEL 7
REMARK VINA RESULT:   -10.869      4.290      5.858
REMARK INTER + INTRA:         -10.869
REMARK INTER:                 -10.869
REMARK INTRA:                   0.000
REMARK UNBOUND:                 0.000
ROOT
REMARK  Name = imipramine oxide
REMARK                            x       y       z     vdW  Elec       q    Type
REMARK                         _______ _______ _______ _____ _____    ______ ____
ATOM      1  C   UNL     1      64.683  65.756  70.018  0.00  0.00    +0.000 C 
ATOM      2  N   UNL     1      64.124  65.150  69.972  0.00  0.00    +0.000 N 
ATOM      3  C   UNL     1      63.784  65.410  70.678  0.00  0.00    +0.000 C 
ATOM      4  O   UNL     1      64.465  64.891  69.266  0.00  0.00    +0.000 OA
ATOM      5  C   UNL     1      63.566  64.544  69.926  0.00  0.00    +0.000 C 
ATOM      6  C   UNL     1      62.992  64.466  70.514  0.00  0.00    +0.000 C 
ATOM      7  C   UNL     1      62.435  63.860  70.468  0.00  0.00    +0.000 C 
ATOM      8  N   UNL     1      61.861  63.781  71.055  0.00  0.00    +0.000 N 
ATOM      9  C   UNL     1      61.330  63.158  70.957  0.00  0.00    +0.000 A 
ATOM     10  C   UNL     1      61.490  62.731  70.269  0.00  0.00    +0.000 A 
ATOM     11  C   UNL     1      61.022  62.083  70.067  0.00  0.00    +0.000 A 
ATOM     12  C   UNL     1      60.394  61.861  70.553  0.00  0.00    +0.000 A 
ATOM     13  C   UNL     1      60.233  62.288  71.240  0.00  0.00    +0.000 A 
ATOM     14  C   UNL     1      60.701  62.936  71.442  0.00  0.00    +0.000 A 
ATOM     15  C   UNL     1      60.448  63.283  72.147  0.00  0.00    +0.000 C 
ATOM     16  C   UNL     1      60.762  63.938  72.540  0.00  0.00    +0.000 C 
ATOM     17  C   UNL     1      61.405  64.407  72.325  0.00  0.00    +0.000 A 
ATOM     18  C   UNL     1      61.895  64.338  71.665  0.00  0.00    +0.000 A 
ATOM     19  C   UNL     1      62.514  64.870  71.552  0.00  0.00    +0.000 A 
ATOM     20  C   UNL     1      62.644  65.473  72.101  0.00  0.00    +0.000 A 
ATOM     21  C   UNL     1      62.155  65.542  72.761  0.00  0.00    +0.000 A 
ATOM     22  C   UNL     1      61.536  65.010  72.873  0.00  0.00    +0.000 A 
ENDROOT
TORSDOF 0
ENDMDL
MODEL 8
REMARK VINA RESULT:   -10.115      2.285      5.902
REMARK INTER + INTRA:         -10.115
REMARK INTER:                 -10.115
REMARK INTRA:                   0.000
REMARK UNBOUND:                 0.000
ROOT
REMARK  Name = imipramine oxide
REMARK                            x       y       z     vdW  Elec       q    Type
REMARK                         _______ _______ _______ _____ _____    ______ ____
ATOM      1  C   UNL     1      61.225  63.024  67.251  0.00  0.00    +0.000 C 
ATOM      2  N   UNL     1      60.880  63.211  67.978  0.00  0.00    +0.000 N 
ATOM      3  C   UNL     1      61.618  63.445  68.267  0.00  0.00    +0.000 C 
ATOM      4  O   UNL     1      60.144  62.977  67.688  0.00  0.00    +0.000 OA
ATOM      5  C   UNL     1      60.537  63.399  68.704  0.00  0.00    +0.000 C 
ATOM      6  C   UNL     1      61.003  63.695  69.317  0.00  0.00    +0.000 C 
ATOM      7  C   UNL     1      60.658  63.882  70.043  0.00  0.00    +0.000 C 
ATOM      8  N   UNL     1      61.123  64.178  70.656  0.00  0.00    +0.000 N 
ATOM      9  C   UNL     1      60.725  64.347  71.358  0.00  0.00    +0.000 A 
ATOM     10  C   UNL     1      59.920  64.179  71.296  0.00  0.00    +0.000 A 
ATOM     11  C   UNL     1      59.420  64.309  71.939  0.00  0.00    +0.000 A 
ATOM     12  C   UNL     1      59.726  64.608  72.645  0.00  0.00    +0.000 A 
ATOM     13  C   UNL     1      60.531  64.776  72.707  0.00  0.00    +0.000 A 
ATOM     14  C   UNL     1      61.030  64.646  72.064  0.00  0.00    +0.000 A 
ATOM     15  C   UNL     1      61.810  64.849  72.241  0.00  0.00    +0.000 C 
ATOM     16  C   UNL     1      62.477  64.803  71.757  0.00  0.00    +0.000 C 
ATOM     17  C   UNL     1      62.528  64.544  70.976  0.00  0.00    +0.000 A 
ATOM     18  C   UNL     1      61.926  64.265  70.486  0.00  0.00    +0.000 A 
ATOM     19  C   UNL     1      62.098  64.031  69.714  0.00  0.00    +0.000 A 
ATOM     20  C   UNL     1      62.872  64.075  69.432  0.00  0.00    +0.000 A 
ATOM     21  C   UNL     1      63.474  64.353  69.922  0.00  0.00    +0.000 A 
ATOM     22  C   UNL     1      63.303  64.588  70.693  0.00  0.00    +0.000 A 
ENDROOT
TORSDOF 0
ENDMDL
MODEL 9
REMARK VINA RESULT:   -10.031      3.986      7.461
REMARK INTER + INTRA:         -10.031
REMARK INTER:                 -10.031
REMARK INTRA:                   0.000
REMARK UNBOUND:                 0.000
ROOT
REMARK  Name = imipramine oxide
REMARK                            x       y       z     vdW  Elec       q    Type
REMARK                         _______ _______ _______ _____ _____    ______ ____
ATOM      1  C   UNL     1      61.983  63.852  69.083  0.00  0.00    +0.000 C 
ATOM      2  N   UNL     1      61.895  64.419  69.677  0.00  0.00    +0.000 N 
ATOM      3  C   UNL     1      62.690  64.626  69.597  0.00  0.00    +0.000 C 
ATOM      4  O   UNL     1      61.100  64.212  69.756  0.00  0.00    +0.000 OA
ATOM      5  C   UNL     1      61.807  64.986  70.270  0.00  0.00    +0.000 C 
ATOM      6  C   UNL     1      62.451  65.449  70.497  0.00  0.00    +0.000 C 
ATOM      7  C   UNL     1      62.362  66.015  71.091  0.00  0.00    +0.000 C 
ATOM      8  N   UNL     1      63.007  66.478  71.318  0.00  0.00    +0.000 N 
ATOM      9  C   UNL     1      62.860  67.027  71.915  0.00  0.00    +0.000 A 
ATOM     10  C   UNL     1      62.074  66.996  72.167  0.00  0.00    +0.000 A 
ATOM     11  C   UNL     1      61.812  67.502  72.763  0.00  0.00    +0.000 A 
ATOM     12  C   UNL     1      62.334  68.040  73.108  0.00  0.00    +0.000 A 
ATOM     13  C   UNL     1      63.119  68.071  72.856  0.00  0.00    +0.000 A 
ATOM     14  C   UNL     1      63.382  67.565  72.261  0.00  0.00    +0.000 A 
ATOM     15  C   UNL     1      64.181  67.685  72.093  0.00  0.00    +0.000 C 
ATOM     16  C   UNL     1      64.654  67.298  71.539  0.00  0.00    +0.000 C 
ATOM     17  C   UNL     1      64.446  66.695  71.016  0.00  0.00    +0.000 A 
ATOM     18  C   UNL     1      63.713  66.330  70.918  0.00  0.00    +0.000 A 
ATOM     19  C   UNL     1      63.622  65.732  70.358  0.00  0.00    +0.000 A 
ATOM     20  C   UNL     1      64.264  65.498  69.895  0.00  0.00    +0.000 A 
ATOM     21  C   UNL     1      64.997  65.863  69.994  0.00  0.00    +0.000 A 
ATOM     22  C   UNL     1      65.088  66.461  70.554  0.00  0.00    +0.000 A 
ENDROOT
TORSDOF 0
ENDMDL
