MODEL 1
REMARK VINA RESULT:   -11.826      0.000      0.000
REMARK INTER + INTRA:         -11.826
REMARK INTER:                 -11.826
REMARK INTRA:                   0.000
REMARK UNBOUND:                 0.000
ROOT
REMARK  Name = indomethacin
REMARK                            x       y       z     vdW  Elec       q    Type
REMARK                         _______ _______ _______ _____ _____    ______ ____
ATOM      1  C   UNL     1      60.628  62.179  68.075  0.00  0.00    +0.000 C 
ATOM      2  O   UNL     1      60.404  62.932  68.329  0.00  0.00    +0.000 OA
ATOM      3  C   UNL     1      60.501  63.147  69.119  0.00  0.00    +0.000 A 
ATOM      4  C   UNL     1      60.277  63.899  69.372  0.00  0.00    +0.000 A 
ATOM      5  C   UNL     1      60.374  64.115  70.162  0.00  0.00    +0.000 A 
ATOM      6  C   UNL     1      60.695  63.577  70.700  0.00  0.00    +0.000 A 
ATOM      7  C   UNL     1      60.919  62.824  70.446  0.00  0.00    +0.000 A 
ATOM      8  C   UNL     1      60.822  62.610  69.656  0.00  0.00    +0.000 A 
ATOM      9  N   UNL     1      60.724  63.942  71.438  0.00  0.00    +0.000 N 
ATOM     10  C   UNL     1      61.007  63.603  72.136  0.00  0.00    +0.000 C 
ATOM     11  O   UNL     1      61.002  64.038  72.837  0.00  0.00    +0.000 OA
ATOM     12  C   UNL     1      61.295  62.830  72.132  0.00  0.00    +0.000 A 
ATOM     13  C   UNL     1      61.578  62.492  72.829  0.00  0.00    +0.000 A 
ATOM     14  C   UNL     1      61.866  61.719  72.825  0.00  0.00    +0.000 A 
ATOM     15  C   UNL     1      61.871  61.284  72.124  0.00  0.00    +0.000 A 
ATOM     16 CL   UNL     1      62.159  60.511  72.120  0.00  0.00    +0.000 Cl
ATOM     17  C   UNL     1      61.588  61.622  71.427  0.00  0.00    +0.000 A 
ATOM     18  C   UNL     1      61.300  62.395  71.431  0.00  0.00    +0.000 A 
ATOM     19  C   UNL     1      60.421  64.705  71.358  0.00  0.00    +0.000 A 
ATOM     20  C   UNL     1      60.348  65.263  71.961  0.00  0.00    +0.000 C 
ATOM     21  C   UNL     1      60.205  64.811  70.570  0.00  0.00    +0.000 A 
ATOM     22  C   UNL     1      59.876  65.495  70.245  0.00  0.00    +0.000 C 
ATOM     23  C   UNL     1      59.687  65.520  69.442  0.00  0.00    +0.000 C 
ATOM     24  O   UNL     1      59.825  64.862  68.964  0.00  0.00    +0.000 OA
ATOM     25  O   UNL     1      59.359  66.204  69.117  0.00  0.00    +0.000 OA
ENDROOT
TORSDOF 0
ENDMDL
MODEL 2
REMARK VINA RESULT:   -11.758      1.633      3.309
REMARK INTER + INTRA:         -11.758
REMARK INTER:                 -11.758
REMARK INTRA:                   0.000
REMARK UNBOUND:                 0.000
ROOT
REMARK  Name = indomethacin
REMARK                            x       y       z     vdW  Elec       q    Type
REMARK                         _______ _______ _______ _____ _____    ______ ____
ATOM      1  C   UNL     1      59.389  66.640  69.114  0.00  0.00    +0.000 C 
ATOM      2  O   UNL     1      59.540  66.354  69.873  0.00  0.00    +0.000 OA
ATOM      3  C   UNL     1      59.763  65.567  69.981  0.00  0.00    +0.000 A 
ATOM      4  C   UNL     1      59.914  65.281  70.739  0.00  0.00    +0.000 A 
ATOM      5  C   UNL     1      60.136  64.494  70.847  0.00  0.00    +0.000 A 
ATOM      6  C   UNL     1      60.207  63.993  70.195  0.00  0.00    +0.000 A 
ATOM      7  C   UNL     1      60.056  64.279  69.436  0.00  0.00    +0.000 A 
ATOM      8  C   UNL     1      59.834  65.066  69.329  0.00  0.00    +0.000 A 
ATOM      9  N   UNL     1      60.434  63.249  70.469  0.00  0.00    +0.000 N 
ATOM     10  C   UNL     1      60.568  62.580  70.004  0.00  0.00    +0.000 C 
ATOM     11  O   UNL     1      60.794  61.870  70.357  0.00  0.00    +0.000 OA
ATOM     12  C   UNL     1      60.477  62.623  69.185  0.00  0.00    +0.000 A 
ATOM     13  C   UNL     1      60.611  61.955  68.720  0.00  0.00    +0.000 A 
ATOM     14  C   UNL     1      60.520  61.997  67.901  0.00  0.00    +0.000 A 
ATOM     15  C   UNL     1      60.294  62.708  67.548  0.00  0.00    +0.000 A 
ATOM     16 CL   UNL     1      60.203  62.750  66.729  0.00  0.00    +0.000 Cl
ATOM     17  C   UNL     1      60.160  63.375  68.012  0.00  0.00    +0.000 A 
ATOM     18  C   UNL     1      60.251  63.333  68.831  0.00  0.00    +0.000 A 
ATOM     19  C   UNL     1      60.503  63.289  71.290  0.00  0.00    +0.000 A 
ATOM     20  C   UNL     1      60.719  62.670  71.790  0.00  0.00    +0.000 C 
ATOM     21  C   UNL     1      60.319  64.059  71.523  0.00  0.00    +0.000 A 
ATOM     22  C   UNL     1      60.318  64.344  72.297  0.00  0.00    +0.000 C 
ATOM     23  C   UNL     1      60.121  65.131  72.447  0.00  0.00    +0.000 C 
ATOM     24  O   UNL     1      59.925  65.633  71.823  0.00  0.00    +0.000 OA
ATOM     25  O   UNL     1      60.120  65.416  73.221  0.00  0.00    +0.000 OA
ENDROOT
TORSDOF 0
ENDMDL
MODEL 3
REMARK VINA RESULT:   -11.536      3.692      4.731
REMARK INTER + INTRA:         -11.536
REMARK INTER:                 -11.536
REMARK INTRA:                   0.000
REMARK UNBOUND:                 0.000
ROOT
REMARK  Name = indomethacin
REMARK                            x       y       z     vdW  Elec       q    Type
REMARK                         _______ _______ _______ _____ _____    ______ ____
ATOM      1  C   UNL     1      62.776  68.181  73.200  0.00  0.00    +0.000 C 
ATOM      2  O   UNL     1      63.384  67.989  72.676  0.00  0.00    +0.000 OA
ATOM      3  C   UNL     1      63.392  67.253  72.306  0.00  0.00    +0.000 A 
ATOM      4  C   UNL     1      64.000  67.061  71.782  0.00  0.00    +0.000 A 
ATOM      5  C   UNL     1      64.009  66.324  71.411  0.00  0.00    +0.000 A 
ATOM      6  C   UNL     1      63.410  65.779  71.565  0.00  0.00    +0.000 A 
ATOM      7  C   UNL     1      62.801  65.970  72.089  0.00  0.00    +0.000 A 
ATOM      8  C   UNL     1      62.793  66.707  72.459  0.00  0.00    +0.000 A 
ATOM      9  N   UNL     1      63.563  65.101  71.122  0.00  0.00    +0.000 N 
ATOM     10  C   UNL     1      63.102  64.416  71.108  0.00  0.00    +0.000 C 
ATOM     11  O   UNL     1      63.325  63.777  70.635  0.00  0.00    +0.000 OA
ATOM     12  C   UNL     1      62.419  64.369  71.567  0.00  0.00    +0.000 A 
ATOM     13  C   UNL     1      61.958  63.684  71.553  0.00  0.00    +0.000 A 
ATOM     14  C   UNL     1      61.275  63.637  72.013  0.00  0.00    +0.000 A 
ATOM     15  C   UNL     1      61.051  64.275  72.486  0.00  0.00    +0.000 A 
ATOM     16 CL   UNL     1      60.368  64.228  72.945  0.00  0.00    +0.000 Cl
ATOM     17  C   UNL     1      61.511  64.959  72.500  0.00  0.00    +0.000 A 
ATOM     18  C   UNL     1      62.195  65.006  72.040  0.00  0.00    +0.000 A 
ATOM     19  C   UNL     1      64.256  65.227  70.694  0.00  0.00    +0.000 A 
ATOM     20  C   UNL     1      64.612  64.691  70.178  0.00  0.00    +0.000 C 
ATOM     21  C   UNL     1      64.532  65.983  70.874  0.00  0.00    +0.000 A 
ATOM     22  C   UNL     1      65.212  66.336  70.568  0.00  0.00    +0.000 C 
ATOM     23  C   UNL     1      65.419  67.101  70.800  0.00  0.00    +0.000 C 
ATOM     24  O   UNL     1      64.947  67.512  71.337  0.00  0.00    +0.000 OA
ATOM     25  O   UNL     1      66.100  67.454  70.494  0.00  0.00    +0.000 OA
ENDROOT
TORSDOF 0
ENDMDL
MODEL 4
REMARK VINA RESULT:   -11.518      3.516      4.870
REMARK INTER + INTRA:         -11.518
REMARK INTER:                 -11.518
REMARK INTRA:                   0.000
REMARK UNBOUND:                 0.000
ROOT
REMARK  Name = indomethacin
REMARK                            x       y       z     vdW  Elec       q    Type
REMARK                         _______ _______ _______ _____ _____    ______ ____
ATOM      1  C   UNL     1      62.375  68.191  73.222  0.00  0.00    +0.000 C 
ATOM      2  O   UNL     1      61.992  67.463  73.164  0.00  0.00    +0.000 OA
ATOM      3  C   UNL     1      62.276  66.887  72.646  0.00  0.00    +0.000 A 
ATOM      4  C   UNL     1      61.893  66.160  72.588  0.00  0.00    +0.000 A 
ATOM      5  C   UNL     1      62.177  65.583  72.070  0.00  0.00    +0.000 A 
ATOM      6  C   UNL     1      62.844  65.736  71.610  0.00  0.00    +0.000 A 
ATOM      7  C   UNL     1      63.228  66.465  71.668  0.00  0.00    +0.000 A 
ATOM      8  C   UNL     1      62.943  67.040  72.186  0.00  0.00    +0.000 A 
ATOM      9  N   UNL     1      62.996  65.068  71.152  0.00  0.00    +0.000 N 
ATOM     10  C   UNL     1      63.613  64.980  70.611  0.00  0.00    +0.000 C 
ATOM     11  O   UNL     1      63.697  64.276  70.190  0.00  0.00    +0.000 OA
ATOM     12  C   UNL     1      64.148  65.597  70.492  0.00  0.00    +0.000 A 
ATOM     13  C   UNL     1      64.765  65.510  69.951  0.00  0.00    +0.000 A 
ATOM     14  C   UNL     1      65.299  66.127  69.831  0.00  0.00    +0.000 A 
ATOM     15  C   UNL     1      65.216  66.832  70.253  0.00  0.00    +0.000 A 
ATOM     16 CL   UNL     1      65.750  67.449  70.133  0.00  0.00    +0.000 Cl
ATOM     17  C   UNL     1      64.599  66.919  70.793  0.00  0.00    +0.000 A 
ATOM     18  C   UNL     1      64.065  66.302  70.912  0.00  0.00    +0.000 A 
ATOM     19  C   UNL     1      62.423  64.502  71.328  0.00  0.00    +0.000 A 
ATOM     20  C   UNL     1      62.366  63.749  70.996  0.00  0.00    +0.000 C 
ATOM     21  C   UNL     1      61.917  64.821  71.896  0.00  0.00    +0.000 A 
ATOM     22  C   UNL     1      61.264  64.443  72.231  0.00  0.00    +0.000 C 
ATOM     23  C   UNL     1      60.806  64.833  72.796  0.00  0.00    +0.000 C 
ATOM     24  O   UNL     1      61.001  65.601  73.026  0.00  0.00    +0.000 OA
ATOM     25  O   UNL     1      60.154  64.455  73.131  0.00  0.00    +0.000 OA
ENDROOT
TORSDOF 0
ENDMDL
MODEL 5
REMARK VINA RESULT:   -11.245      2.538      3.541
REMARK INTER + INTRA:         -11.245
REMARK INTER:                 -11.245
REMARK INTRA:                   0.000
REMARK UNBOUND:                 0.000
ROOT
REMARK  Name = indomethacin
REMARK                            x       y       z     vdW  Elec       q    Type
REMARK                         _______ _______ _______ _____ _____    ______ ____
ATOM      1  C   UNL     1      64.618  65.403  70.938  0.00  0.00    +0.000 C 
ATOM      2  O   UNL     1      64.214  65.995  71.346  0.00  0.00    +0.000 OA
ATOM      3  C   UNL     1      63.447  65.859  71.617  0.00  0.00    +0.000 A 
ATOM      4  C   UNL     1      63.043  66.451  72.024  0.00  0.00    +0.000 A 
ATOM      5  C   UNL     1      62.275  66.316  72.296  0.00  0.00    +0.000 A 
ATOM      6  C   UNL     1      61.912  65.588  72.160  0.00  0.00    +0.000 A 
ATOM      7  C   UNL     1      62.317  64.995  71.752  0.00  0.00    +0.000 A 
ATOM      8  C   UNL     1      63.084  65.131  71.481  0.00  0.00    +0.000 A 
ATOM      9  N   UNL     1      61.158  65.614  72.490  0.00  0.00    +0.000 N 
ATOM     10  C   UNL     1      60.603  65.002  72.481  0.00  0.00    +0.000 C 
ATOM     11  O   UNL     1      59.866  65.108  72.836  0.00  0.00    +0.000 OA
ATOM     12  C   UNL     1      60.786  64.285  72.118  0.00  0.00    +0.000 A 
ATOM     13  C   UNL     1      60.232  63.673  72.109  0.00  0.00    +0.000 A 
ATOM     14  C   UNL     1      60.414  62.956  71.746  0.00  0.00    +0.000 A 
ATOM     15  C   UNL     1      61.152  62.849  71.391  0.00  0.00    +0.000 A 
ATOM     16 CL   UNL     1      61.335  62.132  71.027  0.00  0.00    +0.000 Cl
ATOM     17  C   UNL     1      61.706  63.460  71.399  0.00  0.00    +0.000 A 
ATOM     18  C   UNL     1      61.523  64.178  71.763  0.00  0.00    +0.000 A 
ATOM     19  C   UNL     1      61.053  66.357  72.830  0.00  0.00    +0.000 A 
ATOM     20  C   UNL     1      60.377  66.621  73.222  0.00  0.00    +0.000 C 
ATOM     21  C   UNL     1      61.744  66.791  72.710  0.00  0.00    +0.000 A 
ATOM     22  C   UNL     1      61.881  67.565  72.961  0.00  0.00    +0.000 C 
ATOM     23  C   UNL     1      62.603  67.930  72.800  0.00  0.00    +0.000 C 
ATOM     24  O   UNL     1      63.189  67.521  72.388  0.00  0.00    +0.000 OA
ATOM     25  O   UNL     1      62.739  68.705  73.051  0.00  0.00    +0.000 OA
ENDROOT
TORSDOF 0
ENDMDL
MODEL 6
REMARK VINA RESULT:   -11.238      2.444      3.255
REMARK INTER + INTRA:         -11.238
REMARK INTER:                 -11.238
REMARK INTRA:                   0.000
REMARK UNBOUND:                 0.000
ROOT
REMARK  Name = indomethacin
REMARK                            x       y       z     vdW  Elec       q    Type
REMARK                         _______ _______ _______ _____ _____    ______ ____
ATOM      1  C   UNL     1      61.623  63.267  67.461  0.00  0.00    +0.000 C 
ATOM      2  O   UNL     1      61.308  62.923  68.143  0.00  0.00    +0.000 OA
ATOM      3  C   UNL     1      61.520  63.210  68.886  0.00  0.00    +0.000 A 
ATOM      4  C   UNL     1      61.206  62.867  69.566  0.00  0.00    +0.000 A 
ATOM      5  C   UNL     1      61.418  63.154  70.310  0.00  0.00    +0.000 A 
ATOM      6  C   UNL     1      61.945  63.785  70.373  0.00  0.00    +0.000 A 
ATOM      7  C   UNL     1      62.261  64.130  69.692  0.00  0.00    +0.000 A 
ATOM      8  C   UNL     1      62.048  63.842  68.949  0.00  0.00    +0.000 A 
ATOM      9  N   UNL     1      62.052  63.950  71.174  0.00  0.00    +0.000 N 
ATOM     10  C   UNL     1      62.536  64.540  71.487  0.00  0.00    +0.000 C 
ATOM     11  O   UNL     1      62.588  64.640  72.305  0.00  0.00    +0.000 OA
ATOM     12  C   UNL     1      62.967  65.031  70.984  0.00  0.00    +0.000 A 
ATOM     13  C   UNL     1      63.451  65.622  71.298  0.00  0.00    +0.000 A 
ATOM     14  C   UNL     1      63.882  66.112  70.795  0.00  0.00    +0.000 A 
ATOM     15  C   UNL     1      63.830  66.013  69.977  0.00  0.00    +0.000 A 
ATOM     16 CL   UNL     1      64.262  66.503  69.474  0.00  0.00    +0.000 Cl
ATOM     17  C   UNL     1      63.347  65.423  69.663  0.00  0.00    +0.000 A 
ATOM     18  C   UNL     1      62.916  64.932  70.167  0.00  0.00    +0.000 A 
ATOM     19  C   UNL     1      61.591  63.420  71.606  0.00  0.00    +0.000 A 
ATOM     20  C   UNL     1      61.532  63.388  72.428  0.00  0.00    +0.000 C 
ATOM     21  C   UNL     1      61.199  62.929  71.072  0.00  0.00    +0.000 A 
ATOM     22  C   UNL     1      60.679  62.318  71.266  0.00  0.00    +0.000 C 
ATOM     23  C   UNL     1      60.327  61.871  70.669  0.00  0.00    +0.000 C 
ATOM     24  O   UNL     1      60.494  62.034  69.878  0.00  0.00    +0.000 OA
ATOM     25  O   UNL     1      59.806  61.260  70.864  0.00  0.00    +0.000 OA
ENDROOT
TORSDOF 0
ENDMDL
MODEL 7
REMARK VINA RESULT:   -11.228      1.840      3.519
REMARK INTER + INTRA:         -11.228
REMARK INTER:                 -11.228
REMARK INTRA:                   0.000
REMARK UNBOUND:                 0.000
ROOT
REMARK  Name = indomethacin
REMARK                            x       y       z     vdW  Elec       q    Type
REMARK                         _______ _______ _______ _____ _____    ______ ____
ATOM      1  C   UNL     1      60.467  62.098  68.265  0.00  0.00    +0.000 C 
ATOM      2  O   UNL     1      60.743  61.894  69.015  0.00  0.00    +0.000 OA
ATOM      3  C   UNL     1      60.731  62.448  69.625  0.00  0.00    +0.000 A 
ATOM      4  C   UNL     1      61.007  62.244  70.374  0.00  0.00    +0.000 A 
ATOM      5  C   UNL     1      60.995  62.799  70.985  0.00  0.00    +0.000 A 
ATOM      6  C   UNL     1      60.706  63.559  70.845  0.00  0.00    +0.000 A 
ATOM      7  C   UNL     1      60.429  63.764  70.095  0.00  0.00    +0.000 A 
ATOM      8  C   UNL     1      60.442  63.208  69.485  0.00  0.00    +0.000 A 
ATOM      9  N   UNL     1      60.761  63.986  71.548  0.00  0.00    +0.000 N 
ATOM     10  C   UNL     1      60.533  64.772  71.658  0.00  0.00    +0.000 C 
ATOM     11  O   UNL     1      60.622  65.128  72.397  0.00  0.00    +0.000 OA
ATOM     12  C   UNL     1      60.216  65.201  71.029  0.00  0.00    +0.000 A 
ATOM     13  C   UNL     1      59.988  65.987  71.138  0.00  0.00    +0.000 A 
ATOM     14  C   UNL     1      59.672  66.416  70.509  0.00  0.00    +0.000 A 
ATOM     15  C   UNL     1      59.583  66.060  69.770  0.00  0.00    +0.000 A 
ATOM     16 CL   UNL     1      59.266  66.489  69.141  0.00  0.00    +0.000 Cl
ATOM     17  C   UNL     1      59.810  65.275  69.661  0.00  0.00    +0.000 A 
ATOM     18  C   UNL     1      60.127  64.846  70.290  0.00  0.00    +0.000 A 
ATOM     19  C   UNL     1      61.085  63.491  72.123  0.00  0.00    +0.000 A 
ATOM     20  C   UNL     1      61.237  63.693  72.908  0.00  0.00    +0.000 C 
ATOM     21  C   UNL     1      61.229  62.757  71.774  0.00  0.00    +0.000 A 
ATOM     22  C   UNL     1      61.551  62.097  72.150  0.00  0.00    +0.000 C 
ATOM     23  C   UNL     1      61.664  61.397  71.728  0.00  0.00    +0.000 C 
ATOM     24  O   UNL     1      61.455  61.356  70.931  0.00  0.00    +0.000 OA
ATOM     25  O   UNL     1      61.986  60.736  72.104  0.00  0.00    +0.000 OA
ENDROOT
TORSDOF 0
ENDMDL
MODEL 8
REMARK VINA RESULT:   -11.003      2.782      3.994
REMARK INTER + INTRA:         -11.003
REMARK INTER:                 -11.003
REMARK INTRA:                   0.000
REMARK UNBOUND:                 0.000
ROOT
REMARK  Name = indomethacin
REMARK                            x       y       z     vdW  Elec       q    Type
REMARK                         _______ _______ _______ _____ _____    ______ ____
ATOM      1  C   UNL     1      64.289  64.572  70.156  0.00  0.00    +0.000 C 
ATOM      2  O   UNL     1      63.615  64.136  70.346  0.00  0.00    +0.000 OA
ATOM      3  C   UNL     1      63.046  64.454  70.851  0.00  0.00    +0.000 A 
ATOM      4  C   UNL     1      62.373  64.018  71.040  0.00  0.00    +0.000 A 
ATOM      5  C   UNL     1      61.803  64.336  71.546  0.00  0.00    +0.000 A 
ATOM      6  C   UNL     1      61.908  65.091  71.861  0.00  0.00    +0.000 A 
ATOM      7  C   UNL     1      62.583  65.528  71.671  0.00  0.00    +0.000 A 
ATOM      8  C   UNL     1      63.151  65.209  71.166  0.00  0.00    +0.000 A 
ATOM      9  N   UNL     1      61.259  65.260  72.340  0.00  0.00    +0.000 N 
ATOM     10  C   UNL     1      61.137  65.957  72.764  0.00  0.00    +0.000 C 
ATOM     11  O   UNL     1      60.457  66.048  73.222  0.00  0.00    +0.000 OA
ATOM     12  C   UNL     1      61.695  66.564  72.730  0.00  0.00    +0.000 A 
ATOM     13  C   UNL     1      61.573  67.261  73.154  0.00  0.00    +0.000 A 
ATOM     14  C   UNL     1      62.131  67.868  73.120  0.00  0.00    +0.000 A 
ATOM     15  C   UNL     1      62.811  67.777  72.662  0.00  0.00    +0.000 A 
ATOM     16 CL   UNL     1      63.369  68.384  72.628  0.00  0.00    +0.000 Cl
ATOM     17  C   UNL     1      62.933  67.081  72.238  0.00  0.00    +0.000 A 
ATOM     18  C   UNL     1      62.375  66.474  72.272  0.00  0.00    +0.000 A 
ATOM     19  C   UNL     1      60.752  64.609  72.321  0.00  0.00    +0.000 A 
ATOM     20  C   UNL     1      60.035  64.541  72.722  0.00  0.00    +0.000 C 
ATOM     21  C   UNL     1      61.089  64.039  71.830  0.00  0.00    +0.000 A 
ATOM     22  C   UNL     1      60.768  63.300  71.654  0.00  0.00    +0.000 C 
ATOM     23  C   UNL     1      61.170  62.784  71.151  0.00  0.00    +0.000 C 
ATOM     24  O   UNL     1      61.894  63.007  70.824  0.00  0.00    +0.000 OA
ATOM     25  O   UNL     1      60.848  62.045  70.975  0.00  0.00    +0.000 OA
ENDROOT
TORSDOF 0
ENDMDL
MODEL 9
REMARK VINA RESULT:   -10.745      2.579      4.158
REMARK INTER + INTRA:         -10.745
REMARK INTER:                 -10.745
REMARK INTRA:                   0.000
REMARK UNBOUND:                 0.000
ROOT
REMARK  Name = indomethacin
REMARK                            x       y       z     vdW  Elec       q    Type
REMARK                         _______ _______ _______ _____ _____    ______ ____
ATOM      1  C   UNL     1      58.655  65.613  73.093  0.00  0.00    +0.000 C 
ATOM      2  O   UNL     1      58.986  64.973  72.691  0.00  0.00    +0.000 OA
ATOM      3  C   UNL     1      59.776  64.998  72.455  0.00  0.00    +0.000 A 
ATOM      4  C   UNL     1      60.106  64.359  72.053  0.00  0.00    +0.000 A 
ATOM      5  C   UNL     1      60.897  64.383  71.817  0.00  0.00    +0.000 A 
ATOM      6  C   UNL     1      61.356  65.048  71.983  0.00  0.00    +0.000 A 
ATOM      7  C   UNL     1      61.025  65.688  72.385  0.00  0.00    +0.000 A 
ATOM      8  C   UNL     1      60.235  65.663  72.621  0.00  0.00    +0.000 A 
ATOM      9  N   UNL     1      62.113  64.916  71.684  0.00  0.00    +0.000 N 
ATOM     10  C   UNL     1      62.750  65.439  71.728  0.00  0.00    +0.000 C 
ATOM     11  O   UNL     1      63.479  65.230  71.402  0.00  0.00    +0.000 OA
ATOM     12  C   UNL     1      62.658  66.170  72.098  0.00  0.00    +0.000 A 
ATOM     13  C   UNL     1      63.296  66.693  72.142  0.00  0.00    +0.000 A 
ATOM     14  C   UNL     1      63.204  67.425  72.512  0.00  0.00    +0.000 A 
ATOM     15  C   UNL     1      62.475  67.633  72.838  0.00  0.00    +0.000 A 
ATOM     16 CL   UNL     1      62.384  68.365  73.208  0.00  0.00    +0.000 Cl
ATOM     17  C   UNL     1      61.839  67.111  72.794  0.00  0.00    +0.000 A 
ATOM     18  C   UNL     1      61.930  66.380  72.424  0.00  0.00    +0.000 A 
ATOM     19  C   UNL     1      62.122  64.170  71.333  0.00  0.00    +0.000 A 
ATOM     20  C   UNL     1      62.769  63.814  70.965  0.00  0.00    +0.000 C 
ATOM     21  C   UNL     1      61.370  63.841  71.416  0.00  0.00    +0.000 A 
ATOM     22  C   UNL     1      61.133  63.098  71.144  0.00  0.00    +0.000 C 
ATOM     23  C   UNL     1      60.359  62.842  71.267  0.00  0.00    +0.000 C 
ATOM     24  O   UNL     1      59.821  63.327  71.662  0.00  0.00    +0.000 OA
ATOM     25  O   UNL     1      60.122  62.100  70.995  0.00  0.00    +0.000 OA
ENDROOT
TORSDOF 0
ENDMDL
