MODEL 1
REMARK VINA RESULT:   -11.406      0.000      0.000
REMARK INTER + INTRA:         -11.406
REMARK INTER:                 -11.406
REMARK INTRA:                   0.000
REMARK UNBOUND:                 0.000
ROOT
REMARK  Name = iodoxamic acid
REMARK                            x       y       z     vdW  Elec       q    Type
REMARK                         _______ _______ _______ _____ _____    ______ ____
ATOM      1  O   UNL     1      81.181  79.988  51.453  0.00  0.00    +0.000 OA
ATOM      2  C   UNL     1      81.252  79.340  51.959  0.00  0.00    +0.000 C 
ATOM      3  O   UNL     1      81.368  79.458  52.767  0.00  0.00    +0.000 OA
ATOM      4  C   UNL     1      81.205  78.574  51.656  0.00  0.00    +0.000 A 
ATOM      5  C   UNL     1      81.089  78.455  50.848  0.00  0.00    +0.000 A 
ATOM      6  I   UNL     1      81.019  79.103  50.343  0.00  0.00    +0.000 I 
ATOM      7  C   UNL     1      81.043  77.688  50.547  0.00  0.00    +0.000 A 
ATOM      8  C   UNL     1      81.113  77.041  51.052  0.00  0.00    +0.000 A 
ATOM      9  I   UNL     1      81.067  76.274  50.751  0.00  0.00    +0.000 I 
ATOM     10  C   UNL     1      81.229  77.160  51.860  0.00  0.00    +0.000 A 
ATOM     11  N   UNL     1      81.300  76.511  52.367  0.00  0.00    +0.000 NA
ATOM     12  C   UNL     1      81.253  75.745  52.064  0.00  0.00    +0.000 C 
ATOM     13  O   UNL     1      81.137  75.627  51.256  0.00  0.00    +0.000 OA
ATOM     14  C   UNL     1      81.324  75.097  52.571  0.00  0.00    +0.000 C 
ATOM     15  C   UNL     1      81.277  74.331  52.268  0.00  0.00    +0.000 C 
ATOM     16  O   UNL     1      81.348  73.683  52.775  0.00  0.00    +0.000 OA
ATOM     17  C   UNL     1      81.301  72.917  52.472  0.00  0.00    +0.000 C 
ATOM     18  C   UNL     1      81.372  72.269  52.979  0.00  0.00    +0.000 C 
ATOM     19  O   UNL     1      81.325  71.503  52.676  0.00  0.00    +0.000 OA
ATOM     20  C   UNL     1      81.395  70.856  53.183  0.00  0.00    +0.000 C 
ATOM     21  C   UNL     1      81.349  70.089  52.880  0.00  0.00    +0.000 C 
ATOM     22  O   UNL     1      81.419  69.440  53.387  0.00  0.00    +0.000 OA
ATOM     23  C   UNL     1      81.373  68.675  53.084  0.00  0.00    +0.000 C 
ATOM     24  C   UNL     1      81.443  68.027  53.591  0.00  0.00    +0.000 C 
ATOM     25  O   UNL     1      81.397  67.260  53.288  0.00  0.00    +0.000 OA
ATOM     26  C   UNL     1      81.467  66.613  53.794  0.00  0.00    +0.000 C 
ATOM     27  C   UNL     1      81.421  65.846  53.492  0.00  0.00    +0.000 C 
ATOM     28  C   UNL     1      81.491  65.199  53.998  0.00  0.00    +0.000 C 
ATOM     29  O   UNL     1      81.608  65.317  54.807  0.00  0.00    +0.000 OA
ATOM     30  N   UNL     1      81.445  64.432  53.696  0.00  0.00    +0.000 NA
ATOM     31  C   UNL     1      81.515  63.785  54.202  0.00  0.00    +0.000 A 
ATOM     32  C   UNL     1      81.469  63.018  53.900  0.00  0.00    +0.000 A 
ATOM     33  I   UNL     1      81.353  62.899  53.092  0.00  0.00    +0.000 I 
ATOM     34  C   UNL     1      81.539  62.371  54.406  0.00  0.00    +0.000 A 
ATOM     35  C   UNL     1      81.493  61.604  54.104  0.00  0.00    +0.000 C 
ATOM     36  O   UNL     1      81.376  61.485  53.296  0.00  0.00    +0.000 OA
ATOM     37  O   UNL     1      81.563  60.956  54.610  0.00  0.00    +0.000 OA
ATOM     38  C   UNL     1      81.656  62.489  55.214  0.00  0.00    +0.000 A 
ATOM     39  I   UNL     1      81.726  61.841  55.720  0.00  0.00    +0.000 I 
ATOM     40  C   UNL     1      81.702  63.255  55.516  0.00  0.00    +0.000 A 
ATOM     41  C   UNL     1      81.632  63.903  55.010  0.00  0.00    +0.000 A 
ATOM     42  I   UNL     1      81.678  64.669  55.312  0.00  0.00    +0.000 I 
ATOM     43  C   UNL     1      81.276  77.925  52.163  0.00  0.00    +0.000 A 
ATOM     44  I   UNL     1      81.392  78.044  52.971  0.00  0.00    +0.000 I 
ENDROOT
TORSDOF 0
ENDMDL
MODEL 2
REMARK VINA RESULT:   -11.357      0.097     13.002
REMARK INTER + INTRA:         -11.357
REMARK INTER:                 -11.357
REMARK INTRA:                   0.000
REMARK UNBOUND:                 0.000
ROOT
REMARK  Name = iodoxamic acid
REMARK                            x       y       z     vdW  Elec       q    Type
REMARK                         _______ _______ _______ _____ _____    ______ ____
ATOM      1  O   UNL     1      81.702  60.954  54.506  0.00  0.00    +0.000 OA
ATOM      2  C   UNL     1      81.630  61.605  54.003  0.00  0.00    +0.000 C 
ATOM      3  O   UNL     1      81.527  61.492  53.192  0.00  0.00    +0.000 OA
ATOM      4  C   UNL     1      81.662  62.369  54.312  0.00  0.00    +0.000 A 
ATOM      5  C   UNL     1      81.765  62.483  55.123  0.00  0.00    +0.000 A 
ATOM      6  I   UNL     1      81.837  61.832  55.624  0.00  0.00    +0.000 I 
ATOM      7  C   UNL     1      81.797  63.248  55.431  0.00  0.00    +0.000 A 
ATOM      8  C   UNL     1      81.726  63.898  54.929  0.00  0.00    +0.000 A 
ATOM      9  I   UNL     1      81.758  64.663  55.238  0.00  0.00    +0.000 I 
ATOM     10  C   UNL     1      81.623  63.785  54.119  0.00  0.00    +0.000 A 
ATOM     11  N   UNL     1      81.551  64.436  53.616  0.00  0.00    +0.000 NA
ATOM     12  C   UNL     1      81.583  65.200  53.926  0.00  0.00    +0.000 C 
ATOM     13  O   UNL     1      81.686  65.313  54.736  0.00  0.00    +0.000 OA
ATOM     14  C   UNL     1      81.511  65.851  53.423  0.00  0.00    +0.000 C 
ATOM     15  C   UNL     1      81.543  66.615  53.732  0.00  0.00    +0.000 C 
ATOM     16  O   UNL     1      81.472  67.266  53.230  0.00  0.00    +0.000 OA
ATOM     17  C   UNL     1      81.504  68.030  53.539  0.00  0.00    +0.000 C 
ATOM     18  C   UNL     1      81.432  68.682  53.036  0.00  0.00    +0.000 C 
ATOM     19  O   UNL     1      81.464  69.446  53.346  0.00  0.00    +0.000 OA
ATOM     20  C   UNL     1      81.392  70.096  52.843  0.00  0.00    +0.000 C 
ATOM     21  C   UNL     1      81.424  70.861  53.152  0.00  0.00    +0.000 C 
ATOM     22  O   UNL     1      81.353  71.512  52.650  0.00  0.00    +0.000 OA
ATOM     23  C   UNL     1      81.385  72.276  52.959  0.00  0.00    +0.000 C 
ATOM     24  C   UNL     1      81.313  72.927  52.456  0.00  0.00    +0.000 C 
ATOM     25  O   UNL     1      81.345  73.692  52.766  0.00  0.00    +0.000 OA
ATOM     26  C   UNL     1      81.273  74.342  52.263  0.00  0.00    +0.000 C 
ATOM     27  C   UNL     1      81.305  75.107  52.572  0.00  0.00    +0.000 C 
ATOM     28  C   UNL     1      81.234  75.757  52.070  0.00  0.00    +0.000 C 
ATOM     29  O   UNL     1      81.131  75.644  51.259  0.00  0.00    +0.000 OA
ATOM     30  N   UNL     1      81.266  76.522  52.379  0.00  0.00    +0.000 NA
ATOM     31  C   UNL     1      81.194  77.173  51.876  0.00  0.00    +0.000 A 
ATOM     32  C   UNL     1      81.226  77.938  52.186  0.00  0.00    +0.000 A 
ATOM     33  I   UNL     1      81.329  78.051  52.996  0.00  0.00    +0.000 I 
ATOM     34  C   UNL     1      81.154  78.588  51.683  0.00  0.00    +0.000 A 
ATOM     35  C   UNL     1      81.186  79.353  51.992  0.00  0.00    +0.000 C 
ATOM     36  O   UNL     1      81.290  79.466  52.803  0.00  0.00    +0.000 OA
ATOM     37  O   UNL     1      81.115  80.003  51.490  0.00  0.00    +0.000 OA
ATOM     38  C   UNL     1      81.051  78.474  50.873  0.00  0.00    +0.000 A 
ATOM     39  I   UNL     1      80.980  79.126  50.371  0.00  0.00    +0.000 I 
ATOM     40  C   UNL     1      81.019  77.710  50.564  0.00  0.00    +0.000 A 
ATOM     41  C   UNL     1      81.091  77.059  51.066  0.00  0.00    +0.000 A 
ATOM     42  I   UNL     1      81.059  76.295  50.758  0.00  0.00    +0.000 I 
ATOM     43  C   UNL     1      81.591  63.020  53.810  0.00  0.00    +0.000 A 
ATOM     44  I   UNL     1      81.487  62.907  52.999  0.00  0.00    +0.000 I 
ENDROOT
TORSDOF 0
ENDMDL
MODEL 3
REMARK VINA RESULT:   -11.074     21.020     24.399
REMARK INTER + INTRA:         -11.074
REMARK INTER:                 -11.074
REMARK INTRA:                   0.000
REMARK UNBOUND:                 0.000
ROOT
REMARK  Name = iodoxamic acid
REMARK                            x       y       z     vdW  Elec       q    Type
REMARK                         _______ _______ _______ _____ _____    ______ ____
ATOM      1  O   UNL     1      63.752  57.395  50.348  0.00  0.00    +0.000 OA
ATOM      2  C   UNL     1      63.531  57.991  50.874  0.00  0.00    +0.000 C 
ATOM      3  O   UNL     1      63.516  57.841  51.685  0.00  0.00    +0.000 OA
ATOM      4  C   UNL     1      63.324  58.737  50.588  0.00  0.00    +0.000 A 
ATOM      5  C   UNL     1      63.339  58.887  49.777  0.00  0.00    +0.000 A 
ATOM      6  I   UNL     1      63.560  58.291  49.252  0.00  0.00    +0.000 I 
ATOM      7  C   UNL     1      63.132  59.633  49.492  0.00  0.00    +0.000 A 
ATOM      8  C   UNL     1      62.911  60.229  50.017  0.00  0.00    +0.000 A 
ATOM      9  I   UNL     1      62.705  60.975  49.732  0.00  0.00    +0.000 I 
ATOM     10  C   UNL     1      62.897  60.079  50.828  0.00  0.00    +0.000 A 
ATOM     11  N   UNL     1      62.675  60.676  51.354  0.00  0.00    +0.000 NA
ATOM     12  C   UNL     1      62.469  61.421  51.068  0.00  0.00    +0.000 C 
ATOM     13  O   UNL     1      62.484  61.571  50.257  0.00  0.00    +0.000 OA
ATOM     14  C   UNL     1      62.248  62.018  51.594  0.00  0.00    +0.000 C 
ATOM     15  C   UNL     1      62.042  62.764  51.308  0.00  0.00    +0.000 C 
ATOM     16  O   UNL     1      61.820  63.360  51.835  0.00  0.00    +0.000 OA
ATOM     17  C   UNL     1      61.614  64.106  51.548  0.00  0.00    +0.000 C 
ATOM     18  C   UNL     1      61.393  64.702  52.075  0.00  0.00    +0.000 C 
ATOM     19  O   UNL     1      61.187  65.448  51.789  0.00  0.00    +0.000 OA
ATOM     20  C   UNL     1      60.966  66.044  52.315  0.00  0.00    +0.000 C 
ATOM     21  C   UNL     1      60.759  66.790  52.029  0.00  0.00    +0.000 C 
ATOM     22  O   UNL     1      60.538  67.387  52.555  0.00  0.00    +0.000 OA
ATOM     23  C   UNL     1      60.331  68.132  52.269  0.00  0.00    +0.000 C 
ATOM     24  C   UNL     1      60.111  68.728  52.795  0.00  0.00    +0.000 C 
ATOM     25  O   UNL     1      59.904  69.475  52.509  0.00  0.00    +0.000 OA
ATOM     26  C   UNL     1      59.683  70.070  53.035  0.00  0.00    +0.000 C 
ATOM     27  C   UNL     1      59.476  70.817  52.749  0.00  0.00    +0.000 C 
ATOM     28  C   UNL     1      59.255  71.413  53.275  0.00  0.00    +0.000 C 
ATOM     29  O   UNL     1      59.241  71.263  54.086  0.00  0.00    +0.000 OA
ATOM     30  N   UNL     1      59.049  72.159  52.989  0.00  0.00    +0.000 NA
ATOM     31  C   UNL     1      58.828  72.755  53.515  0.00  0.00    +0.000 A 
ATOM     32  C   UNL     1      58.621  73.501  53.229  0.00  0.00    +0.000 A 
ATOM     33  I   UNL     1      58.636  73.651  52.418  0.00  0.00    +0.000 I 
ATOM     34  C   UNL     1      58.400  74.097  53.755  0.00  0.00    +0.000 A 
ATOM     35  C   UNL     1      58.194  74.844  53.469  0.00  0.00    +0.000 C 
ATOM     36  O   UNL     1      58.208  74.993  52.658  0.00  0.00    +0.000 OA
ATOM     37  O   UNL     1      57.973  75.439  53.995  0.00  0.00    +0.000 OA
ATOM     38  C   UNL     1      58.386  73.947  54.566  0.00  0.00    +0.000 A 
ATOM     39  I   UNL     1      58.164  74.544  55.092  0.00  0.00    +0.000 I 
ATOM     40  C   UNL     1      58.592  73.202  54.852  0.00  0.00    +0.000 A 
ATOM     41  C   UNL     1      58.813  72.605  54.326  0.00  0.00    +0.000 A 
ATOM     42  I   UNL     1      59.020  71.860  54.611  0.00  0.00    +0.000 I 
ATOM     43  C   UNL     1      63.103  59.333  51.114  0.00  0.00    +0.000 A 
ATOM     44  I   UNL     1      63.088  59.184  51.925  0.00  0.00    +0.000 I 
ENDROOT
TORSDOF 0
ENDMDL
MODEL 4
REMARK VINA RESULT:   -10.845     20.852     24.282
REMARK INTER + INTRA:         -10.845
REMARK INTER:                 -10.845
REMARK INTRA:                   0.000
REMARK UNBOUND:                 0.000
ROOT
REMARK  Name = iodoxamic acid
REMARK                            x       y       z     vdW  Elec       q    Type
REMARK                         _______ _______ _______ _____ _____    ______ ____
ATOM      1  O   UNL     1      64.066  59.147  51.695  0.00  0.00    +0.000 OA
ATOM      2  C   UNL     1      63.685  59.844  51.471  0.00  0.00    +0.000 C 
ATOM      3  O   UNL     1      63.401  59.930  50.702  0.00  0.00    +0.000 OA
ATOM      4  C   UNL     1      63.588  60.454  52.018  0.00  0.00    +0.000 A 
ATOM      5  C   UNL     1      63.873  60.368  52.787  0.00  0.00    +0.000 A 
ATOM      6  I   UNL     1      64.253  59.672  53.011  0.00  0.00    +0.000 I 
ATOM      7  C   UNL     1      63.776  60.980  53.333  0.00  0.00    +0.000 A 
ATOM      8  C   UNL     1      63.395  61.676  53.110  0.00  0.00    +0.000 A 
ATOM      9  I   UNL     1      63.298  62.287  53.656  0.00  0.00    +0.000 I 
ATOM     10  C   UNL     1      63.111  61.762  52.340  0.00  0.00    +0.000 A 
ATOM     11  N   UNL     1      62.730  62.459  52.116  0.00  0.00    +0.000 NA
ATOM     12  C   UNL     1      62.633  63.070  52.663  0.00  0.00    +0.000 C 
ATOM     13  O   UNL     1      62.918  62.983  53.433  0.00  0.00    +0.000 OA
ATOM     14  C   UNL     1      62.252  63.767  52.439  0.00  0.00    +0.000 C 
ATOM     15  C   UNL     1      62.156  64.377  52.985  0.00  0.00    +0.000 C 
ATOM     16  O   UNL     1      61.775  65.074  52.761  0.00  0.00    +0.000 OA
ATOM     17  C   UNL     1      61.678  65.685  53.308  0.00  0.00    +0.000 C 
ATOM     18  C   UNL     1      61.297  66.382  53.084  0.00  0.00    +0.000 C 
ATOM     19  O   UNL     1      61.201  66.992  53.630  0.00  0.00    +0.000 OA
ATOM     20  C   UNL     1      60.820  67.689  53.406  0.00  0.00    +0.000 C 
ATOM     21  C   UNL     1      60.723  68.300  53.953  0.00  0.00    +0.000 C 
ATOM     22  O   UNL     1      60.342  68.997  53.729  0.00  0.00    +0.000 OA
ATOM     23  C   UNL     1      60.246  69.608  54.276  0.00  0.00    +0.000 C 
ATOM     24  C   UNL     1      59.865  70.304  54.051  0.00  0.00    +0.000 C 
ATOM     25  O   UNL     1      59.768  70.915  54.598  0.00  0.00    +0.000 OA
ATOM     26  C   UNL     1      59.387  71.612  54.374  0.00  0.00    +0.000 C 
ATOM     27  C   UNL     1      59.290  72.223  54.921  0.00  0.00    +0.000 C 
ATOM     28  C   UNL     1      58.909  72.919  54.696  0.00  0.00    +0.000 C 
ATOM     29  O   UNL     1      58.625  73.005  53.927  0.00  0.00    +0.000 OA
ATOM     30  N   UNL     1      58.813  73.531  55.243  0.00  0.00    +0.000 NA
ATOM     31  C   UNL     1      58.432  74.227  55.019  0.00  0.00    +0.000 A 
ATOM     32  C   UNL     1      58.335  74.838  55.566  0.00  0.00    +0.000 A 
ATOM     33  I   UNL     1      58.620  74.752  56.335  0.00  0.00    +0.000 I 
ATOM     34  C   UNL     1      57.954  75.535  55.341  0.00  0.00    +0.000 A 
ATOM     35  C   UNL     1      57.858  76.146  55.888  0.00  0.00    +0.000 C 
ATOM     36  O   UNL     1      58.142  76.060  56.658  0.00  0.00    +0.000 OA
ATOM     37  O   UNL     1      57.477  76.842  55.664  0.00  0.00    +0.000 OA
ATOM     38  C   UNL     1      57.670  75.621  54.572  0.00  0.00    +0.000 A 
ATOM     39  I   UNL     1      57.289  76.318  54.349  0.00  0.00    +0.000 I 
ATOM     40  C   UNL     1      57.767  75.010  54.026  0.00  0.00    +0.000 A 
ATOM     41  C   UNL     1      58.148  74.313  54.249  0.00  0.00    +0.000 A 
ATOM     42  I   UNL     1      58.244  73.703  53.704  0.00  0.00    +0.000 I 
ATOM     43  C   UNL     1      63.207  61.152  51.794  0.00  0.00    +0.000 A 
ATOM     44  I   UNL     1      62.923  61.238  51.024  0.00  0.00    +0.000 I 
ENDROOT
TORSDOF 0
ENDMDL
MODEL 5
REMARK VINA RESULT:   -10.383     20.963     24.725
REMARK INTER + INTRA:         -10.383
REMARK INTER:                 -10.383
REMARK INTRA:                   0.000
REMARK UNBOUND:                 0.000
ROOT
REMARK  Name = iodoxamic acid
REMARK                            x       y       z     vdW  Elec       q    Type
REMARK                         _______ _______ _______ _____ _____    ______ ____
ATOM      1  O   UNL     1      62.671  58.622  53.259  0.00  0.00    +0.000 OA
ATOM      2  C   UNL     1      62.199  59.192  52.891  0.00  0.00    +0.000 C 
ATOM      3  O   UNL     1      61.550  58.960  52.438  0.00  0.00    +0.000 OA
ATOM      4  C   UNL     1      62.378  59.992  52.977  0.00  0.00    +0.000 A 
ATOM      5  C   UNL     1      63.027  60.224  53.430  0.00  0.00    +0.000 A 
ATOM      6  I   UNL     1      63.498  59.656  53.797  0.00  0.00    +0.000 I 
ATOM      7  C   UNL     1      63.205  61.026  53.516  0.00  0.00    +0.000 A 
ATOM      8  C   UNL     1      62.734  61.594  53.149  0.00  0.00    +0.000 A 
ATOM      9  I   UNL     1      62.912  62.396  53.234  0.00  0.00    +0.000 I 
ATOM     10  C   UNL     1      62.085  61.362  52.696  0.00  0.00    +0.000 A 
ATOM     11  N   UNL     1      61.613  61.932  52.328  0.00  0.00    +0.000 NA
ATOM     12  C   UNL     1      61.792  62.732  52.414  0.00  0.00    +0.000 C 
ATOM     13  O   UNL     1      62.441  62.964  52.868  0.00  0.00    +0.000 OA
ATOM     14  C   UNL     1      61.320  63.302  52.047  0.00  0.00    +0.000 C 
ATOM     15  C   UNL     1      61.499  64.103  52.133  0.00  0.00    +0.000 C 
ATOM     16  O   UNL     1      61.027  64.672  51.765  0.00  0.00    +0.000 OA
ATOM     17  C   UNL     1      61.206  65.473  51.852  0.00  0.00    +0.000 C 
ATOM     18  C   UNL     1      60.734  66.042  51.484  0.00  0.00    +0.000 C 
ATOM     19  O   UNL     1      60.913  66.843  51.570  0.00  0.00    +0.000 OA
ATOM     20  C   UNL     1      60.442  67.411  51.203  0.00  0.00    +0.000 C 
ATOM     21  C   UNL     1      60.620  68.213  51.289  0.00  0.00    +0.000 C 
ATOM     22  O   UNL     1      60.148  68.782  50.921  0.00  0.00    +0.000 OA
ATOM     23  C   UNL     1      60.327  69.583  51.007  0.00  0.00    +0.000 C 
ATOM     24  C   UNL     1      59.856  70.151  50.640  0.00  0.00    +0.000 C 
ATOM     25  O   UNL     1      60.034  70.953  50.726  0.00  0.00    +0.000 OA
ATOM     26  C   UNL     1      59.563  71.521  50.358  0.00  0.00    +0.000 C 
ATOM     27  C   UNL     1      59.741  72.323  50.444  0.00  0.00    +0.000 C 
ATOM     28  C   UNL     1      59.270  72.891  50.077  0.00  0.00    +0.000 C 
ATOM     29  O   UNL     1      58.620  72.659  49.624  0.00  0.00    +0.000 OA
ATOM     30  N   UNL     1      59.448  73.693  50.163  0.00  0.00    +0.000 NA
ATOM     31  C   UNL     1      58.977  74.261  49.796  0.00  0.00    +0.000 A 
ATOM     32  C   UNL     1      59.155  75.063  49.882  0.00  0.00    +0.000 A 
ATOM     33  I   UNL     1      59.805  75.295  50.335  0.00  0.00    +0.000 I 
ATOM     34  C   UNL     1      58.684  75.631  49.514  0.00  0.00    +0.000 A 
ATOM     35  C   UNL     1      58.862  76.433  49.600  0.00  0.00    +0.000 C 
ATOM     36  O   UNL     1      59.512  76.665  50.053  0.00  0.00    +0.000 OA
ATOM     37  O   UNL     1      58.391  77.001  49.233  0.00  0.00    +0.000 OA
ATOM     38  C   UNL     1      58.035  75.399  49.061  0.00  0.00    +0.000 A 
ATOM     39  I   UNL     1      57.564  75.969  48.694  0.00  0.00    +0.000 I 
ATOM     40  C   UNL     1      57.857  74.599  48.976  0.00  0.00    +0.000 A 
ATOM     41  C   UNL     1      58.327  74.029  49.343  0.00  0.00    +0.000 A 
ATOM     42  I   UNL     1      58.150  73.229  49.257  0.00  0.00    +0.000 I 
ATOM     43  C   UNL     1      61.906  60.562  52.610  0.00  0.00    +0.000 A 
ATOM     44  I   UNL     1      61.257  60.330  52.157  0.00  0.00    +0.000 I 
ENDROOT
TORSDOF 0
ENDMDL
MODEL 6
REMARK VINA RESULT:    -9.613      1.173     13.118
REMARK INTER + INTRA:          -9.613
REMARK INTER:                  -9.613
REMARK INTRA:                   0.000
REMARK UNBOUND:                 0.000
ROOT
REMARK  Name = iodoxamic acid
REMARK                            x       y       z     vdW  Elec       q    Type
REMARK                         _______ _______ _______ _____ _____    ______ ____
ATOM      1  O   UNL     1      82.135  59.173  54.488  0.00  0.00    +0.000 OA
ATOM      2  C   UNL     1      82.099  59.841  54.005  0.00  0.00    +0.000 C 
ATOM      3  O   UNL     1      82.100  59.758  53.184  0.00  0.00    +0.000 OA
ATOM      4  C   UNL     1      82.062  60.593  54.344  0.00  0.00    +0.000 A 
ATOM      5  C   UNL     1      82.061  60.676  55.165  0.00  0.00    +0.000 A 
ATOM      6  I   UNL     1      82.097  60.008  55.647  0.00  0.00    +0.000 I 
ATOM      7  C   UNL     1      82.024  61.428  55.503  0.00  0.00    +0.000 A 
ATOM      8  C   UNL     1      81.988  62.095  55.021  0.00  0.00    +0.000 A 
ATOM      9  I   UNL     1      81.951  62.847  55.359  0.00  0.00    +0.000 I 
ATOM     10  C   UNL     1      81.989  62.012  54.200  0.00  0.00    +0.000 A 
ATOM     11  N   UNL     1      81.953  62.681  53.717  0.00  0.00    +0.000 NA
ATOM     12  C   UNL     1      81.916  63.432  54.056  0.00  0.00    +0.000 C 
ATOM     13  O   UNL     1      81.915  63.515  54.877  0.00  0.00    +0.000 OA
ATOM     14  C   UNL     1      81.880  64.101  53.573  0.00  0.00    +0.000 C 
ATOM     15  C   UNL     1      81.843  64.852  53.912  0.00  0.00    +0.000 C 
ATOM     16  O   UNL     1      81.807  65.521  53.429  0.00  0.00    +0.000 OA
ATOM     17  C   UNL     1      81.770  66.272  53.768  0.00  0.00    +0.000 C 
ATOM     18  C   UNL     1      81.734  66.941  53.286  0.00  0.00    +0.000 C 
ATOM     19  O   UNL     1      81.697  67.692  53.625  0.00  0.00    +0.000 OA
ATOM     20  C   UNL     1      81.661  68.360  53.142  0.00  0.00    +0.000 C 
ATOM     21  C   UNL     1      81.624  69.112  53.481  0.00  0.00    +0.000 C 
ATOM     22  O   UNL     1      81.588  69.781  52.998  0.00  0.00    +0.000 OA
ATOM     23  C   UNL     1      81.551  70.532  53.337  0.00  0.00    +0.000 C 
ATOM     24  C   UNL     1      81.515  71.199  52.854  0.00  0.00    +0.000 C 
ATOM     25  O   UNL     1      81.478  71.951  53.193  0.00  0.00    +0.000 OA
ATOM     26  C   UNL     1      81.442  72.619  52.710  0.00  0.00    +0.000 C 
ATOM     27  C   UNL     1      81.405  73.371  53.049  0.00  0.00    +0.000 C 
ATOM     28  C   UNL     1      81.369  74.039  52.566  0.00  0.00    +0.000 C 
ATOM     29  O   UNL     1      81.370  73.956  51.746  0.00  0.00    +0.000 OA
ATOM     30  N   UNL     1      81.332  74.791  52.905  0.00  0.00    +0.000 NA
ATOM     31  C   UNL     1      81.296  75.459  52.422  0.00  0.00    +0.000 A 
ATOM     32  C   UNL     1      81.259  76.211  52.761  0.00  0.00    +0.000 A 
ATOM     33  I   UNL     1      81.259  76.294  53.582  0.00  0.00    +0.000 I 
ATOM     34  C   UNL     1      81.224  76.879  52.279  0.00  0.00    +0.000 A 
ATOM     35  C   UNL     1      81.187  77.631  52.617  0.00  0.00    +0.000 C 
ATOM     36  O   UNL     1      81.186  77.714  53.438  0.00  0.00    +0.000 OA
ATOM     37  O   UNL     1      81.151  78.299  52.135  0.00  0.00    +0.000 OA
ATOM     38  C   UNL     1      81.224  76.796  51.458  0.00  0.00    +0.000 A 
ATOM     39  I   UNL     1      81.188  77.465  50.976  0.00  0.00    +0.000 I 
ATOM     40  C   UNL     1      81.261  76.045  51.120  0.00  0.00    +0.000 A 
ATOM     41  C   UNL     1      81.297  75.376  51.602  0.00  0.00    +0.000 A 
ATOM     42  I   UNL     1      81.334  74.625  51.264  0.00  0.00    +0.000 I 
ATOM     43  C   UNL     1      82.026  61.261  53.861  0.00  0.00    +0.000 A 
ATOM     44  I   UNL     1      82.027  61.178  53.040  0.00  0.00    +0.000 I 
ENDROOT
TORSDOF 0
ENDMDL
