MODEL 1
REMARK VINA RESULT:   -10.456      0.000      0.000
REMARK INTER + INTRA:         -10.456
REMARK INTER:                 -10.456
REMARK INTRA:                   0.000
REMARK UNBOUND:                 0.000
ROOT
REMARK  Name = iomazenil (123I)
REMARK                            x       y       z     vdW  Elec       q    Type
REMARK                         _______ _______ _______ _____ _____    ______ ____
ATOM      1  C   UNL     1      59.484  62.009  66.236  0.00  0.00    +0.000 C 
ATOM      2  C   UNL     1      59.647  62.546  66.840  0.00  0.00    +0.000 C 
ATOM      3  O   UNL     1      59.913  62.276  67.572  0.00  0.00    +0.000 OA
ATOM      4  C   UNL     1      60.076  62.814  68.176  0.00  0.00    +0.000 C 
ATOM      5  O   UNL     1      59.973  63.622  68.048  0.00  0.00    +0.000 OA
ATOM      6  C   UNL     1      60.342  62.543  68.909  0.00  0.00    +0.000 A 
ATOM      7  C   UNL     1      60.527  63.013  69.562  0.00  0.00    +0.000 A 
ATOM      8  C   UNL     1      60.466  63.836  69.561  0.00  0.00    +0.000 C 
ATOM      9  N   UNL     1      60.632  64.364  70.173  0.00  0.00    +0.000 N 
ATOM     10  C   UNL     1      60.514  65.162  69.997  0.00  0.00    +0.000 C 
ATOM     11  C   UNL     1      60.900  64.200  70.935  0.00  0.00    +0.000 C 
ATOM     12  O   UNL     1      61.016  64.856  71.423  0.00  0.00    +0.000 OA
ATOM     13  C   UNL     1      61.069  63.467  71.275  0.00  0.00    +0.000 A 
ATOM     14  C   UNL     1      61.325  63.549  72.055  0.00  0.00    +0.000 A 
ATOM     15  I   UNL     1      61.384  64.299  72.394  0.00  0.00    +0.000 I 
ATOM     16  C   UNL     1      61.523  62.880  72.496  0.00  0.00    +0.000 A 
ATOM     17  C   UNL     1      61.464  62.130  72.157  0.00  0.00    +0.000 A 
ATOM     18  C   UNL     1      61.208  62.049  71.376  0.00  0.00    +0.000 A 
ATOM     19  C   UNL     1      61.010  62.718  70.936  0.00  0.00    +0.000 A 
ATOM     20  N   UNL     1      60.769  62.516  70.173  0.00  0.00    +0.000 N 
ATOM     21  C   UNL     1      60.735  61.738  69.899  0.00  0.00    +0.000 A 
ATOM     22  N   UNL     1      60.471  61.755  69.117  0.00  0.00    +0.000 NA
ENDROOT
TORSDOF 0
ENDMDL
MODEL 2
REMARK VINA RESULT:    -9.872      2.812      4.242
REMARK INTER + INTRA:          -9.872
REMARK INTER:                  -9.872
REMARK INTRA:                   0.000
REMARK UNBOUND:                 0.000
ROOT
REMARK  Name = iomazenil (123I)
REMARK                            x       y       z     vdW  Elec       q    Type
REMARK                         _______ _______ _______ _____ _____    ______ ____
ATOM      1  C   UNL     1      65.800  67.398  70.019  0.00  0.00    +0.000 C 
ATOM      2  C   UNL     1      65.242  66.820  69.832  0.00  0.00    +0.000 C 
ATOM      3  O   UNL     1      64.738  66.529  70.415  0.00  0.00    +0.000 OA
ATOM      4  C   UNL     1      64.180  65.951  70.227  0.00  0.00    +0.000 C 
ATOM      5  O   UNL     1      64.126  65.663  69.457  0.00  0.00    +0.000 OA
ATOM      6  C   UNL     1      63.675  65.660  70.812  0.00  0.00    +0.000 A 
ATOM      7  C   UNL     1      63.092  65.084  70.707  0.00  0.00    +0.000 A 
ATOM      8  C   UNL     1      62.940  64.718  69.984  0.00  0.00    +0.000 C 
ATOM      9  N   UNL     1      62.378  64.140  69.808  0.00  0.00    +0.000 N 
ATOM     10  C   UNL     1      62.363  63.884  69.024  0.00  0.00    +0.000 C 
ATOM     11  C   UNL     1      61.831  63.785  70.312  0.00  0.00    +0.000 C 
ATOM     12  O   UNL     1      61.339  63.219  69.966  0.00  0.00    +0.000 OA
ATOM     13  C   UNL     1      61.710  63.920  71.118  0.00  0.00    +0.000 A 
ATOM     14  C   UNL     1      61.103  63.446  71.414  0.00  0.00    +0.000 A 
ATOM     15  I   UNL     1      60.707  62.922  70.915  0.00  0.00    +0.000 I 
ATOM     16  C   UNL     1      60.893  63.496  72.210  0.00  0.00    +0.000 A 
ATOM     17  C   UNL     1      61.290  64.020  72.710  0.00  0.00    +0.000 A 
ATOM     18  C   UNL     1      61.896  64.494  72.413  0.00  0.00    +0.000 A 
ATOM     19  C   UNL     1      62.106  64.444  71.616  0.00  0.00    +0.000 A 
ATOM     20  N   UNL     1      62.721  64.962  71.434  0.00  0.00    +0.000 N 
ATOM     21  C   UNL     1      63.073  65.462  71.987  0.00  0.00    +0.000 A 
ATOM     22  N   UNL     1      63.663  65.893  71.603  0.00  0.00    +0.000 NA
ENDROOT
TORSDOF 0
ENDMDL
MODEL 3
REMARK VINA RESULT:    -9.862      3.382      4.795
REMARK INTER + INTRA:          -9.862
REMARK INTER:                  -9.862
REMARK INTRA:                   0.000
REMARK UNBOUND:                 0.000
ROOT
REMARK  Name = iomazenil (123I)
REMARK                            x       y       z     vdW  Elec       q    Type
REMARK                         _______ _______ _______ _____ _____    ______ ____
ATOM      1  C   UNL     1      66.495  67.656  69.878  0.00  0.00    +0.000 C 
ATOM      2  C   UNL     1      65.865  67.493  70.385  0.00  0.00    +0.000 C 
ATOM      3  O   UNL     1      65.419  66.808  70.281  0.00  0.00    +0.000 OA
ATOM      4  C   UNL     1      64.789  66.646  70.789  0.00  0.00    +0.000 C 
ATOM      5  O   UNL     1      64.606  67.168  71.400  0.00  0.00    +0.000 OA
ATOM      6  C   UNL     1      64.342  65.960  70.684  0.00  0.00    +0.000 A 
ATOM      7  C   UNL     1      63.699  65.725  71.146  0.00  0.00    +0.000 A 
ATOM      8  C   UNL     1      63.417  66.161  71.787  0.00  0.00    +0.000 C 
ATOM      9  N   UNL     1      62.784  65.987  72.289  0.00  0.00    +0.000 N 
ATOM     10  C   UNL     1      62.640  66.539  72.885  0.00  0.00    +0.000 C 
ATOM     11  C   UNL     1      62.279  65.336  72.272  0.00  0.00    +0.000 C 
ATOM     12  O   UNL     1      61.694  65.322  72.854  0.00  0.00    +0.000 OA
ATOM     13  C   UNL     1      62.280  64.697  71.750  0.00  0.00    +0.000 A 
ATOM     14  C   UNL     1      61.677  64.163  71.928  0.00  0.00    +0.000 A 
ATOM     15  I   UNL     1      61.169  64.308  72.561  0.00  0.00    +0.000 I 
ATOM     16  C   UNL     1      61.582  63.482  71.470  0.00  0.00    +0.000 A 
ATOM     17  C   UNL     1      62.089  63.337  70.836  0.00  0.00    +0.000 A 
ATOM     18  C   UNL     1      62.692  63.871  70.659  0.00  0.00    +0.000 A 
ATOM     19  C   UNL     1      62.787  64.552  71.116  0.00  0.00    +0.000 A 
ATOM     20  N   UNL     1      63.419  65.009  70.848  0.00  0.00    +0.000 N 
ATOM     21  C   UNL     1      63.888  64.801  70.201  0.00  0.00    +0.000 A 
ATOM     22  N   UNL     1      64.459  65.389  70.100  0.00  0.00    +0.000 NA
ENDROOT
TORSDOF 0
ENDMDL
MODEL 4
REMARK VINA RESULT:    -9.732      3.013      3.985
REMARK INTER + INTRA:          -9.732
REMARK INTER:                  -9.732
REMARK INTRA:                   0.000
REMARK UNBOUND:                 0.000
ROOT
REMARK  Name = iomazenil (123I)
REMARK                            x       y       z     vdW  Elec       q    Type
REMARK                         _______ _______ _______ _____ _____    ______ ____
ATOM      1  C   UNL     1      60.472  61.856  70.622  0.00  0.00    +0.000 C 
ATOM      2  C   UNL     1      60.795  62.520  70.988  0.00  0.00    +0.000 C 
ATOM      3  O   UNL     1      61.433  62.912  70.643  0.00  0.00    +0.000 OA
ATOM      4  C   UNL     1      61.756  63.577  71.010  0.00  0.00    +0.000 C 
ATOM      5  O   UNL     1      61.441  63.850  71.721  0.00  0.00    +0.000 OA
ATOM      6  C   UNL     1      62.394  63.970  70.663  0.00  0.00    +0.000 A 
ATOM      7  C   UNL     1      62.773  64.639  70.964  0.00  0.00    +0.000 A 
ATOM      8  C   UNL     1      62.553  65.007  71.669  0.00  0.00    +0.000 C 
ATOM      9  N   UNL     1      62.884  65.673  72.027  0.00  0.00    +0.000 N 
ATOM     10  C   UNL     1      62.536  65.908  72.736  0.00  0.00    +0.000 C 
ATOM     11  C   UNL     1      63.517  66.134  71.768  0.00  0.00    +0.000 C 
ATOM     12  O   UNL     1      63.719  66.770  72.253  0.00  0.00    +0.000 OA
ATOM     13  C   UNL     1      63.976  66.044  71.087  0.00  0.00    +0.000 A 
ATOM     14  C   UNL     1      64.556  66.628  71.036  0.00  0.00    +0.000 A 
ATOM     15  I   UNL     1      64.618  67.202  71.625  0.00  0.00    +0.000 I 
ATOM     16  C   UNL     1      65.075  66.637  70.395  0.00  0.00    +0.000 A 
ATOM     17  C   UNL     1      65.014  66.063  69.805  0.00  0.00    +0.000 A 
ATOM     18  C   UNL     1      64.433  65.479  69.857  0.00  0.00    +0.000 A 
ATOM     19  C   UNL     1      63.913  65.470  70.498  0.00  0.00    +0.000 A 
ATOM     20  N   UNL     1      63.379  64.845  70.444  0.00  0.00    +0.000 N 
ATOM     21  C   UNL     1      63.374  64.304  69.821  0.00  0.00    +0.000 A 
ATOM     22  N   UNL     1      62.766  63.763  69.957  0.00  0.00    +0.000 NA
ENDROOT
TORSDOF 0
ENDMDL
MODEL 5
REMARK VINA RESULT:    -9.533      1.794      2.435
REMARK INTER + INTRA:          -9.533
REMARK INTER:                  -9.533
REMARK INTRA:                   0.000
REMARK UNBOUND:                 0.000
ROOT
REMARK  Name = iomazenil (123I)
REMARK                            x       y       z     vdW  Elec       q    Type
REMARK                         _______ _______ _______ _____ _____    ______ ____
ATOM      1  C   UNL     1      61.243  62.471  67.313  0.00  0.00    +0.000 C 
ATOM      2  C   UNL     1      60.977  63.184  67.631  0.00  0.00    +0.000 C 
ATOM      3  O   UNL     1      60.795  63.236  68.433  0.00  0.00    +0.000 OA
ATOM      4  C   UNL     1      60.528  63.950  68.750  0.00  0.00    +0.000 C 
ATOM      5  O   UNL     1      60.444  64.611  68.265  0.00  0.00    +0.000 OA
ATOM      6  C   UNL     1      60.347  64.002  69.554  0.00  0.00    +0.000 A 
ATOM      7  C   UNL     1      60.076  64.675  69.947  0.00  0.00    +0.000 A 
ATOM      8  C   UNL     1      59.950  65.400  69.574  0.00  0.00    +0.000 C 
ATOM      9  N   UNL     1      59.683  66.109  69.902  0.00  0.00    +0.000 N 
ATOM     10  C   UNL     1      59.614  66.742  69.378  0.00  0.00    +0.000 C 
ATOM     11  C   UNL     1      59.475  66.266  70.684  0.00  0.00    +0.000 C 
ATOM     12  O   UNL     1      59.226  67.038  70.840  0.00  0.00    +0.000 OA
ATOM     13  C   UNL     1      59.484  65.755  71.332  0.00  0.00    +0.000 A 
ATOM     14  C   UNL     1      59.234  66.137  72.019  0.00  0.00    +0.000 A 
ATOM     15  I   UNL     1      59.016  66.932  71.995  0.00  0.00    +0.000 I 
ATOM     16  C   UNL     1      59.202  65.723  72.732  0.00  0.00    +0.000 A 
ATOM     17  C   UNL     1      59.420  64.927  72.758  0.00  0.00    +0.000 A 
ATOM     18  C   UNL     1      59.670  64.546  72.070  0.00  0.00    +0.000 A 
ATOM     19  C   UNL     1      59.702  64.960  71.357  0.00  0.00    +0.000 A 
ATOM     20  N   UNL     1      59.965  64.480  70.741  0.00  0.00    +0.000 N 
ATOM     21  C   UNL     1      60.168  63.686  70.839  0.00  0.00    +0.000 A 
ATOM     22  N   UNL     1      60.404  63.391  70.104  0.00  0.00    +0.000 NA
ENDROOT
TORSDOF 0
ENDMDL
MODEL 6
REMARK VINA RESULT:    -9.419      2.244      3.893
REMARK INTER + INTRA:          -9.419
REMARK INTER:                  -9.419
REMARK INTRA:                   0.000
REMARK UNBOUND:                 0.000
ROOT
REMARK  Name = iomazenil (123I)
REMARK                            x       y       z     vdW  Elec       q    Type
REMARK                         _______ _______ _______ _____ _____    ______ ____
ATOM      1  C   UNL     1      64.659  66.497  71.782  0.00  0.00    +0.000 C 
ATOM      2  C   UNL     1      64.262  66.099  71.179  0.00  0.00    +0.000 C 
ATOM      3  O   UNL     1      63.736  65.491  71.362  0.00  0.00    +0.000 OA
ATOM      4  C   UNL     1      63.339  65.093  70.757  0.00  0.00    +0.000 C 
ATOM      5  O   UNL     1      63.468  65.303  69.971  0.00  0.00    +0.000 OA
ATOM      6  C   UNL     1      62.813  64.484  70.941  0.00  0.00    +0.000 A 
ATOM      7  C   UNL     1      62.378  64.039  70.399  0.00  0.00    +0.000 A 
ATOM      8  C   UNL     1      62.419  64.151  69.582  0.00  0.00    +0.000 C 
ATOM      9  N   UNL     1      62.016  63.746  68.986  0.00  0.00    +0.000 N 
ATOM     10  C   UNL     1      62.178  63.991  68.216  0.00  0.00    +0.000 C 
ATOM     11  C   UNL     1      61.474  63.129  69.060  0.00  0.00    +0.000 C 
ATOM     12  O   UNL     1      61.164  62.838  68.353  0.00  0.00    +0.000 OA
ATOM     13  C   UNL     1      61.200  62.764  69.748  0.00  0.00    +0.000 A 
ATOM     14  C   UNL     1      60.658  62.167  69.576  0.00  0.00    +0.000 A 
ATOM     15  I   UNL     1      60.457  62.004  68.793  0.00  0.00    +0.000 I 
ATOM     16  C   UNL     1      60.317  61.732  70.188  0.00  0.00    +0.000 A 
ATOM     17  C   UNL     1      60.518  61.894  70.972  0.00  0.00    +0.000 A 
ATOM     18  C   UNL     1      61.060  62.492  71.144  0.00  0.00    +0.000 A 
ATOM     19  C   UNL     1      61.401  62.927  70.531  0.00  0.00    +0.000 A 
ATOM     20  N   UNL     1      61.926  63.494  70.821  0.00  0.00    +0.000 N 
ATOM     21  C   UNL     1      62.080  63.602  71.624  0.00  0.00    +0.000 A 
ATOM     22  N   UNL     1      62.628  64.214  71.698  0.00  0.00    +0.000 NA
ENDROOT
TORSDOF 0
ENDMDL
MODEL 7
REMARK VINA RESULT:    -9.380      2.058      4.150
REMARK INTER + INTRA:          -9.380
REMARK INTER:                  -9.380
REMARK INTRA:                   0.000
REMARK UNBOUND:                 0.000
ROOT
REMARK  Name = iomazenil (123I)
REMARK                            x       y       z     vdW  Elec       q    Type
REMARK                         _______ _______ _______ _____ _____    ______ ____
ATOM      1  C   UNL     1      62.364  68.252  73.076  0.00  0.00    +0.000 C 
ATOM      2  C   UNL     1      62.055  67.722  72.525  0.00  0.00    +0.000 C 
ATOM      3  O   UNL     1      62.074  66.912  72.676  0.00  0.00    +0.000 OA
ATOM      4  C   UNL     1      61.764  66.382  72.124  0.00  0.00    +0.000 C 
ATOM      5  O   UNL     1      61.436  66.661  71.422  0.00  0.00    +0.000 OA
ATOM      6  C   UNL     1      61.783  65.570  72.277  0.00  0.00    +0.000 A 
ATOM      7  C   UNL     1      61.496  64.977  71.779  0.00  0.00    +0.000 A 
ATOM      8  C   UNL     1      61.145  65.127  71.048  0.00  0.00    +0.000 C 
ATOM      9  N   UNL     1      60.838  64.588  70.504  0.00  0.00    +0.000 N 
ATOM     10  C   UNL     1      60.521  64.915  69.816  0.00  0.00    +0.000 C 
ATOM     11  C   UNL     1      60.808  63.766  70.557  0.00  0.00    +0.000 C 
ATOM     12  O   UNL     1      60.463  63.378  69.915  0.00  0.00    +0.000 OA
ATOM     13  C   UNL     1      61.075  63.279  71.168  0.00  0.00    +0.000 A 
ATOM     14  C   UNL     1      60.937  62.483  71.000  0.00  0.00    +0.000 A 
ATOM     15  I   UNL     1      60.572  62.267  70.293  0.00  0.00    +0.000 I 
ATOM     16  C   UNL     1      61.164  61.903  71.541  0.00  0.00    +0.000 A 
ATOM     17  C   UNL     1      61.529  62.119  72.249  0.00  0.00    +0.000 A 
ATOM     18  C   UNL     1      61.667  62.915  72.416  0.00  0.00    +0.000 A 
ATOM     19  C   UNL     1      61.440  63.495  71.875  0.00  0.00    +0.000 A 
ATOM     20  N   UNL     1      61.627  64.251  72.147  0.00  0.00    +0.000 N 
ATOM     21  C   UNL     1      61.995  64.394  72.871  0.00  0.00    +0.000 A 
ATOM     22  N   UNL     1      62.091  65.210  72.952  0.00  0.00    +0.000 NA
ENDROOT
TORSDOF 0
ENDMDL
MODEL 8
REMARK VINA RESULT:    -9.139      1.805      2.700
REMARK INTER + INTRA:          -9.139
REMARK INTER:                  -9.139
REMARK INTRA:                   0.000
REMARK UNBOUND:                 0.000
ROOT
REMARK  Name = iomazenil (123I)
REMARK                            x       y       z     vdW  Elec       q    Type
REMARK                         _______ _______ _______ _____ _____    ______ ____
ATOM      1  C   UNL     1      59.264  67.268  68.734  0.00  0.00    +0.000 C 
ATOM      2  C   UNL     1      59.605  66.896  69.387  0.00  0.00    +0.000 C 
ATOM      3  O   UNL     1      59.731  66.081  69.379  0.00  0.00    +0.000 OA
ATOM      4  C   UNL     1      60.073  65.710  70.032  0.00  0.00    +0.000 C 
ATOM      5  O   UNL     1      60.287  66.153  70.693  0.00  0.00    +0.000 OA
ATOM      6  C   UNL     1      60.199  64.895  70.023  0.00  0.00    +0.000 A 
ATOM      7  C   UNL     1      60.533  64.449  70.633  0.00  0.00    +0.000 A 
ATOM      8  C   UNL     1      60.789  64.775  71.346  0.00  0.00    +0.000 C 
ATOM      9  N   UNL     1      61.129  64.393  71.994  0.00  0.00    +0.000 N 
ATOM     10  C   UNL     1      61.327  64.878  72.631  0.00  0.00    +0.000 C 
ATOM     11  C   UNL     1      61.297  63.591  72.087  0.00  0.00    +0.000 C 
ATOM     12  O   UNL     1      61.642  63.379  72.806  0.00  0.00    +0.000 OA
ATOM     13  C   UNL     1      61.167  62.972  71.556  0.00  0.00    +0.000 A 
ATOM     14  C   UNL     1      61.416  62.251  71.869  0.00  0.00    +0.000 A 
ATOM     15  I   UNL     1      61.747  62.219  72.623  0.00  0.00    +0.000 I 
ATOM     16  C   UNL     1      61.335  61.560  71.425  0.00  0.00    +0.000 A 
ATOM     17  C   UNL     1      61.004  61.591  70.669  0.00  0.00    +0.000 A 
ATOM     18  C   UNL     1      60.754  62.313  70.358  0.00  0.00    +0.000 A 
ATOM     19  C   UNL     1      60.836  63.004  70.802  0.00  0.00    +0.000 A 
ATOM     20  N   UNL     1      60.554  63.661  70.391  0.00  0.00    +0.000 N 
ATOM     21  C   UNL     1      60.233  63.619  69.632  0.00  0.00    +0.000 A 
ATOM     22  N   UNL     1      60.013  64.382  69.405  0.00  0.00    +0.000 NA
ENDROOT
TORSDOF 0
ENDMDL
MODEL 9
REMARK VINA RESULT:    -8.416     26.679     27.977
REMARK INTER + INTRA:          -8.416
REMARK INTER:                  -8.416
REMARK INTRA:                   0.000
REMARK UNBOUND:                 0.000
ROOT
REMARK  Name = iomazenil (123I)
REMARK                            x       y       z     vdW  Elec       q    Type
REMARK                         _______ _______ _______ _____ _____    ______ ____
ATOM      1  C   UNL     1      70.289  81.975  54.448  0.00  0.00    +0.000 C 
ATOM      2  C   UNL     1      70.122  81.522  53.780  0.00  0.00    +0.000 C 
ATOM      3  O   UNL     1      70.699  81.411  53.202  0.00  0.00    +0.000 OA
ATOM      4  C   UNL     1      70.532  80.957  52.533  0.00  0.00    +0.000 C 
ATOM      5  O   UNL     1      69.788  80.614  52.443  0.00  0.00    +0.000 OA
ATOM      6  C   UNL     1      71.110  80.847  51.954  0.00  0.00    +0.000 A 
ATOM      7  C   UNL     1      71.024  80.410  51.260  0.00  0.00    +0.000 A 
ATOM      8  C   UNL     1      70.328  80.017  51.053  0.00  0.00    +0.000 C 
ATOM      9  N   UNL     1      70.172  79.566  50.380  0.00  0.00    +0.000 N 
ATOM     10  C   UNL     1      69.414  79.243  50.335  0.00  0.00    +0.000 C 
ATOM     11  C   UNL     1      70.674  79.395  49.749  0.00  0.00    +0.000 C 
ATOM     12  O   UNL     1      70.352  78.923  49.153  0.00  0.00    +0.000 OA
ATOM     13  C   UNL     1      71.455  79.633  49.633  0.00  0.00    +0.000 A 
ATOM     14  C   UNL     1      71.757  79.339  48.924  0.00  0.00    +0.000 A 
ATOM     15  I   UNL     1      71.285  78.871  48.436  0.00  0.00    +0.000 I 
ATOM     16  C   UNL     1      72.533  79.514  48.703  0.00  0.00    +0.000 A 
ATOM     17  C   UNL     1      73.006  79.983  49.191  0.00  0.00    +0.000 A 
ATOM     18  C   UNL     1      72.703  80.276  49.900  0.00  0.00    +0.000 A 
ATOM     19  C   UNL     1      71.927  80.101  50.121  0.00  0.00    +0.000 A 
ATOM     20  N   UNL     1      71.735  80.447  50.845  0.00  0.00    +0.000 N 
ATOM     21  C   UNL     1      72.262  80.907  51.282  0.00  0.00    +0.000 A 
ATOM     22  N   UNL     1      71.876  81.155  51.968  0.00  0.00    +0.000 NA
ENDROOT
TORSDOF 0
ENDMDL
