MODEL 1
REMARK VINA RESULT:   -12.616      0.000      0.000
REMARK INTER + INTRA:         -12.616
REMARK INTER:                 -12.616
REMARK INTRA:                   0.000
REMARK UNBOUND:                 0.000
ROOT
REMARK  Name = iomeprol
REMARK                            x       y       z     vdW  Elec       q    Type
REMARK                         _______ _______ _______ _____ _____    ______ ____
ATOM      1  C   UNL     1      60.790  65.586  72.748  0.00  0.00    +0.000 C 
ATOM      2  N   UNL     1      60.818  65.161  72.040  0.00  0.00    +0.000 N 
ATOM      3  C   UNL     1      60.185  64.681  71.822  0.00  0.00    +0.000 C 
ATOM      4  O   UNL     1      60.213  64.256  71.116  0.00  0.00    +0.000 OA
ATOM      5  C   UNL     1      59.524  64.623  72.311  0.00  0.00    +0.000 C 
ATOM      6  O   UNL     1      58.890  64.142  72.094  0.00  0.00    +0.000 OA
ATOM      7  C   UNL     1      61.481  65.219  71.551  0.00  0.00    +0.000 A 
ATOM      8  C   UNL     1      61.509  64.795  70.844  0.00  0.00    +0.000 A 
ATOM      9  I   UNL     1      60.875  64.313  70.626  0.00  0.00    +0.000 I 
ATOM     10  C   UNL     1      62.171  64.852  70.354  0.00  0.00    +0.000 A 
ATOM     11  C   UNL     1      62.199  64.428  69.648  0.00  0.00    +0.000 C 
ATOM     12  O   UNL     1      62.861  64.485  69.159  0.00  0.00    +0.000 OA
ATOM     13  N   UNL     1      61.565  63.946  69.430  0.00  0.00    +0.000 NA
ATOM     14  C   UNL     1      61.593  63.522  68.723  0.00  0.00    +0.000 C 
ATOM     15  C   UNL     1      60.959  63.041  68.506  0.00  0.00    +0.000 C 
ATOM     16  O   UNL     1      60.298  62.983  68.995  0.00  0.00    +0.000 OA
ATOM     17  C   UNL     1      60.987  62.616  67.798  0.00  0.00    +0.000 C 
ATOM     18  O   UNL     1      60.354  62.135  67.581  0.00  0.00    +0.000 OA
ATOM     19  C   UNL     1      62.804  65.333  70.572  0.00  0.00    +0.000 A 
ATOM     20  I   UNL     1      63.466  65.390  70.083  0.00  0.00    +0.000 I 
ATOM     21  C   UNL     1      62.776  65.757  71.279  0.00  0.00    +0.000 A 
ATOM     22  C   UNL     1      63.409  66.238  71.497  0.00  0.00    +0.000 C 
ATOM     23  O   UNL     1      63.381  66.663  72.205  0.00  0.00    +0.000 OA
ATOM     24  N   UNL     1      64.072  66.296  71.008  0.00  0.00    +0.000 NA
ATOM     25  C   UNL     1      64.705  66.777  71.225  0.00  0.00    +0.000 C 
ATOM     26  C   UNL     1      65.367  66.834  70.736  0.00  0.00    +0.000 C 
ATOM     27  O   UNL     1      65.395  66.410  70.029  0.00  0.00    +0.000 OA
ATOM     28  C   UNL     1      66.001  67.315  70.954  0.00  0.00    +0.000 C 
ATOM     29  O   UNL     1      66.663  67.373  70.465  0.00  0.00    +0.000 OA
ATOM     30  C   UNL     1      62.115  65.700  71.768  0.00  0.00    +0.000 A 
ATOM     31  I   UNL     1      62.087  66.125  72.476  0.00  0.00    +0.000 I 
ENDROOT
TORSDOF 0
ENDMDL
MODEL 2
REMARK VINA RESULT:   -12.060      1.515      3.908
REMARK INTER + INTRA:         -12.060
REMARK INTER:                 -12.060
REMARK INTRA:                   0.000
REMARK UNBOUND:                 0.000
ROOT
REMARK  Name = iomeprol
REMARK                            x       y       z     vdW  Elec       q    Type
REMARK                         _______ _______ _______ _____ _____    ______ ____
ATOM      1  C   UNL     1      63.674  65.874  71.544  0.00  0.00    +0.000 C 
ATOM      2  N   UNL     1      63.258  65.467  70.958  0.00  0.00    +0.000 N 
ATOM      3  C   UNL     1      63.666  65.041  70.383  0.00  0.00    +0.000 C 
ATOM      4  O   UNL     1      63.251  64.634  69.797  0.00  0.00    +0.000 OA
ATOM      5  C   UNL     1      64.490  65.020  70.392  0.00  0.00    +0.000 C 
ATOM      6  O   UNL     1      64.900  64.594  69.817  0.00  0.00    +0.000 OA
ATOM      7  C   UNL     1      62.433  65.488  70.949  0.00  0.00    +0.000 A 
ATOM      8  C   UNL     1      62.017  65.081  70.363  0.00  0.00    +0.000 A 
ATOM      9  I   UNL     1      62.426  64.654  69.787  0.00  0.00    +0.000 I 
ATOM     10  C   UNL     1      61.192  65.102  70.354  0.00  0.00    +0.000 A 
ATOM     11  C   UNL     1      60.776  64.696  69.769  0.00  0.00    +0.000 C 
ATOM     12  O   UNL     1      59.952  64.715  69.759  0.00  0.00    +0.000 OA
ATOM     13  N   UNL     1      61.185  64.268  69.193  0.00  0.00    +0.000 NA
ATOM     14  C   UNL     1      60.769  63.862  68.608  0.00  0.00    +0.000 C 
ATOM     15  C   UNL     1      61.179  63.435  68.032  0.00  0.00    +0.000 C 
ATOM     16  O   UNL     1      62.003  63.415  68.042  0.00  0.00    +0.000 OA
ATOM     17  C   UNL     1      60.763  63.028  67.446  0.00  0.00    +0.000 C 
ATOM     18  O   UNL     1      61.171  62.602  66.871  0.00  0.00    +0.000 OA
ATOM     19  C   UNL     1      60.783  65.528  70.930  0.00  0.00    +0.000 A 
ATOM     20  I   UNL     1      59.959  65.548  70.919  0.00  0.00    +0.000 I 
ATOM     21  C   UNL     1      61.199  65.935  71.515  0.00  0.00    +0.000 A 
ATOM     22  C   UNL     1      60.791  66.361  72.090  0.00  0.00    +0.000 C 
ATOM     23  O   UNL     1      61.207  66.768  72.676  0.00  0.00    +0.000 OA
ATOM     24  N   UNL     1      59.966  66.382  72.081  0.00  0.00    +0.000 NA
ATOM     25  C   UNL     1      59.557  66.808  72.656  0.00  0.00    +0.000 C 
ATOM     26  C   UNL     1      58.732  66.829  72.647  0.00  0.00    +0.000 C 
ATOM     27  O   UNL     1      58.316  66.422  72.062  0.00  0.00    +0.000 OA
ATOM     28  C   UNL     1      58.323  67.255  73.222  0.00  0.00    +0.000 C 
ATOM     29  O   UNL     1      57.498  67.276  73.213  0.00  0.00    +0.000 OA
ATOM     30  C   UNL     1      62.023  65.915  71.524  0.00  0.00    +0.000 A 
ATOM     31  I   UNL     1      62.440  66.321  72.110  0.00  0.00    +0.000 I 
ENDROOT
TORSDOF 0
ENDMDL
MODEL 3
REMARK VINA RESULT:   -12.048      1.236      4.546
REMARK INTER + INTRA:         -12.048
REMARK INTER:                 -12.048
REMARK INTRA:                   0.000
REMARK UNBOUND:                 0.000
ROOT
REMARK  Name = iomeprol
REMARK                            x       y       z     vdW  Elec       q    Type
REMARK                         _______ _______ _______ _____ _____    ______ ____
ATOM      1  C   UNL     1      61.099  66.799  72.708  0.00  0.00    +0.000 C 
ATOM      2  N   UNL     1      61.816  66.837  72.301  0.00  0.00    +0.000 N 
ATOM      3  C   UNL     1      62.356  67.436  72.472  0.00  0.00    +0.000 C 
ATOM      4  O   UNL     1      63.072  67.475  72.066  0.00  0.00    +0.000 OA
ATOM      5  C   UNL     1      62.179  67.997  73.050  0.00  0.00    +0.000 C 
ATOM      6  O   UNL     1      62.719  68.597  73.222  0.00  0.00    +0.000 OA
ATOM      7  C   UNL     1      61.992  66.275  71.722  0.00  0.00    +0.000 A 
ATOM      8  C   UNL     1      62.709  66.314  71.316  0.00  0.00    +0.000 A 
ATOM      9  I   UNL     1      63.250  66.914  71.487  0.00  0.00    +0.000 I 
ATOM     10  C   UNL     1      62.886  65.752  70.737  0.00  0.00    +0.000 A 
ATOM     11  C   UNL     1      63.602  65.791  70.330  0.00  0.00    +0.000 C 
ATOM     12  O   UNL     1      63.779  65.230  69.752  0.00  0.00    +0.000 OA
ATOM     13  N   UNL     1      64.142  66.391  70.502  0.00  0.00    +0.000 NA
ATOM     14  C   UNL     1      64.859  66.429  70.095  0.00  0.00    +0.000 C 
ATOM     15  C   UNL     1      65.399  67.029  70.267  0.00  0.00    +0.000 C 
ATOM     16  O   UNL     1      65.223  67.590  70.845  0.00  0.00    +0.000 OA
ATOM     17  C   UNL     1      66.116  67.067  69.860  0.00  0.00    +0.000 C 
ATOM     18  O   UNL     1      66.656  67.667  70.032  0.00  0.00    +0.000 OA
ATOM     19  C   UNL     1      62.345  65.153  70.566  0.00  0.00    +0.000 A 
ATOM     20  I   UNL     1      62.523  64.592  69.987  0.00  0.00    +0.000 I 
ATOM     21  C   UNL     1      61.629  65.115  70.972  0.00  0.00    +0.000 A 
ATOM     22  C   UNL     1      61.089  64.516  70.801  0.00  0.00    +0.000 C 
ATOM     23  O   UNL     1      60.372  64.477  71.208  0.00  0.00    +0.000 OA
ATOM     24  N   UNL     1      61.265  63.954  70.222  0.00  0.00    +0.000 NA
ATOM     25  C   UNL     1      60.726  63.355  70.051  0.00  0.00    +0.000 C 
ATOM     26  C   UNL     1      60.902  62.793  69.472  0.00  0.00    +0.000 C 
ATOM     27  O   UNL     1      61.618  62.832  69.066  0.00  0.00    +0.000 OA
ATOM     28  C   UNL     1      60.362  62.194  69.301  0.00  0.00    +0.000 C 
ATOM     29  O   UNL     1      60.538  61.632  68.722  0.00  0.00    +0.000 OA
ATOM     30  C   UNL     1      61.452  65.675  71.550  0.00  0.00    +0.000 A 
ATOM     31  I   UNL     1      60.735  65.637  71.958  0.00  0.00    +0.000 I 
ENDROOT
TORSDOF 0
ENDMDL
MODEL 4
REMARK VINA RESULT:   -11.701      1.794      4.917
REMARK INTER + INTRA:         -11.701
REMARK INTER:                 -11.701
REMARK INTRA:                   0.000
REMARK UNBOUND:                 0.000
ROOT
REMARK  Name = iomeprol
REMARK                            x       y       z     vdW  Elec       q    Type
REMARK                         _______ _______ _______ _____ _____    ______ ____
ATOM      1  C   UNL     1      60.680  62.125  71.460  0.00  0.00    +0.000 C 
ATOM      2  N   UNL     1      61.182  62.748  71.254  0.00  0.00    +0.000 N 
ATOM      3  C   UNL     1      61.573  63.175  71.841  0.00  0.00    +0.000 C 
ATOM      4  O   UNL     1      62.074  63.797  71.634  0.00  0.00    +0.000 OA
ATOM      5  C   UNL     1      61.463  62.980  72.634  0.00  0.00    +0.000 C 
ATOM      6  O   UNL     1      61.854  63.407  73.222  0.00  0.00    +0.000 OA
ATOM      7  C   UNL     1      61.291  62.943  70.459  0.00  0.00    +0.000 A 
ATOM      8  C   UNL     1      61.792  63.565  70.253  0.00  0.00    +0.000 A 
ATOM      9  I   UNL     1      62.184  63.992  70.841  0.00  0.00    +0.000 I 
ATOM     10  C   UNL     1      61.902  63.760  69.458  0.00  0.00    +0.000 A 
ATOM     11  C   UNL     1      62.403  64.382  69.252  0.00  0.00    +0.000 C 
ATOM     12  O   UNL     1      62.513  64.577  68.458  0.00  0.00    +0.000 OA
ATOM     13  N   UNL     1      62.794  64.809  69.840  0.00  0.00    +0.000 NA
ATOM     14  C   UNL     1      63.295  65.431  69.633  0.00  0.00    +0.000 C 
ATOM     15  C   UNL     1      63.686  65.858  70.221  0.00  0.00    +0.000 C 
ATOM     16  O   UNL     1      63.577  65.663  71.015  0.00  0.00    +0.000 OA
ATOM     17  C   UNL     1      64.188  66.481  70.015  0.00  0.00    +0.000 C 
ATOM     18  O   UNL     1      64.579  66.907  70.602  0.00  0.00    +0.000 OA
ATOM     19  C   UNL     1      61.511  63.333  68.871  0.00  0.00    +0.000 A 
ATOM     20  I   UNL     1      61.621  63.529  68.077  0.00  0.00    +0.000 I 
ATOM     21  C   UNL     1      61.010  62.711  69.077  0.00  0.00    +0.000 A 
ATOM     22  C   UNL     1      60.619  62.284  68.490  0.00  0.00    +0.000 C 
ATOM     23  O   UNL     1      60.117  61.662  68.697  0.00  0.00    +0.000 OA
ATOM     24  N   UNL     1      60.728  62.479  67.696  0.00  0.00    +0.000 NA
ATOM     25  C   UNL     1      60.337  62.053  67.109  0.00  0.00    +0.000 C 
ATOM     26  C   UNL     1      60.447  62.247  66.314  0.00  0.00    +0.000 C 
ATOM     27  O   UNL     1      60.948  62.869  66.108  0.00  0.00    +0.000 OA
ATOM     28  C   UNL     1      60.056  61.821  65.727  0.00  0.00    +0.000 C 
ATOM     29  O   UNL     1      60.165  62.015  64.932  0.00  0.00    +0.000 OA
ATOM     30  C   UNL     1      60.900  62.516  69.871  0.00  0.00    +0.000 A 
ATOM     31  I   UNL     1      60.399  61.893  70.078  0.00  0.00    +0.000 I 
ENDROOT
TORSDOF 0
ENDMDL
MODEL 5
REMARK VINA RESULT:   -11.680      1.367      3.227
REMARK INTER + INTRA:         -11.680
REMARK INTER:                 -11.680
REMARK INTRA:                   0.000
REMARK UNBOUND:                 0.000
ROOT
REMARK  Name = iomeprol
REMARK                            x       y       z     vdW  Elec       q    Type
REMARK                         _______ _______ _______ _____ _____    ______ ____
ATOM      1  C   UNL     1      62.240  64.094  69.019  0.00  0.00    +0.000 C 
ATOM      2  N   UNL     1      61.782  64.530  69.551  0.00  0.00    +0.000 N 
ATOM      3  C   UNL     1      60.960  64.492  69.513  0.00  0.00    +0.000 C 
ATOM      4  O   UNL     1      60.502  64.927  70.044  0.00  0.00    +0.000 OA
ATOM      5  C   UNL     1      60.594  64.020  68.945  0.00  0.00    +0.000 C 
ATOM      6  O   UNL     1      59.771  63.982  68.907  0.00  0.00    +0.000 OA
ATOM      7  C   UNL     1      62.149  65.002  70.120  0.00  0.00    +0.000 A 
ATOM      8  C   UNL     1      61.692  65.437  70.651  0.00  0.00    +0.000 A 
ATOM      9  I   UNL     1      60.868  65.400  70.613  0.00  0.00    +0.000 I 
ATOM     10  C   UNL     1      62.058  65.910  71.220  0.00  0.00    +0.000 A 
ATOM     11  C   UNL     1      61.601  66.345  71.751  0.00  0.00    +0.000 C 
ATOM     12  O   UNL     1      61.966  66.817  72.319  0.00  0.00    +0.000 OA
ATOM     13  N   UNL     1      60.777  66.307  71.713  0.00  0.00    +0.000 NA
ATOM     14  C   UNL     1      60.319  66.742  72.244  0.00  0.00    +0.000 C 
ATOM     15  C   UNL     1      59.496  66.704  72.206  0.00  0.00    +0.000 C 
ATOM     16  O   UNL     1      59.130  66.232  71.638  0.00  0.00    +0.000 OA
ATOM     17  C   UNL     1      59.038  67.140  72.738  0.00  0.00    +0.000 C 
ATOM     18  O   UNL     1      58.215  67.102  72.700  0.00  0.00    +0.000 OA
ATOM     19  C   UNL     1      62.881  65.947  71.257  0.00  0.00    +0.000 A 
ATOM     20  I   UNL     1      63.246  66.420  71.826  0.00  0.00    +0.000 I 
ATOM     21  C   UNL     1      63.338  65.512  70.726  0.00  0.00    +0.000 A 
ATOM     22  C   UNL     1      64.161  65.550  70.764  0.00  0.00    +0.000 C 
ATOM     23  O   UNL     1      64.619  65.114  70.232  0.00  0.00    +0.000 OA
ATOM     24  N   UNL     1      64.527  66.022  71.332  0.00  0.00    +0.000 NA
ATOM     25  C   UNL     1      65.350  66.060  71.370  0.00  0.00    +0.000 C 
ATOM     26  C   UNL     1      65.717  66.532  71.939  0.00  0.00    +0.000 C 
ATOM     27  O   UNL     1      65.259  66.967  72.470  0.00  0.00    +0.000 OA
ATOM     28  C   UNL     1      66.539  66.570  71.977  0.00  0.00    +0.000 C 
ATOM     29  O   UNL     1      66.906  67.042  72.545  0.00  0.00    +0.000 OA
ATOM     30  C   UNL     1      62.972  65.040  70.158  0.00  0.00    +0.000 A 
ATOM     31  I   UNL     1      63.430  64.605  69.626  0.00  0.00    +0.000 I 
ENDROOT
TORSDOF 0
ENDMDL
MODEL 6
REMARK VINA RESULT:   -11.207      2.171      3.243
REMARK INTER + INTRA:         -11.207
REMARK INTER:                 -11.207
REMARK INTRA:                   0.000
REMARK UNBOUND:                 0.000
ROOT
REMARK  Name = iomeprol
REMARK                            x       y       z     vdW  Elec       q    Type
REMARK                         _______ _______ _______ _____ _____    ______ ____
ATOM      1  C   UNL     1      60.320  64.753  68.572  0.00  0.00    +0.000 C 
ATOM      2  N   UNL     1      60.579  64.197  69.125  0.00  0.00    +0.000 N 
ATOM      3  C   UNL     1      60.481  63.392  68.977  0.00  0.00    +0.000 C 
ATOM      4  O   UNL     1      60.740  62.837  69.529  0.00  0.00    +0.000 OA
ATOM      5  C   UNL     1      60.125  63.142  68.277  0.00  0.00    +0.000 C 
ATOM      6  O   UNL     1      60.026  62.337  68.128  0.00  0.00    +0.000 OA
ATOM      7  C   UNL     1      60.936  64.448  69.826  0.00  0.00    +0.000 A 
ATOM      8  C   UNL     1      61.194  63.892  70.378  0.00  0.00    +0.000 A 
ATOM      9  I   UNL     1      61.096  63.086  70.230  0.00  0.00    +0.000 I 
ATOM     10  C   UNL     1      61.551  64.143  71.080  0.00  0.00    +0.000 A 
ATOM     11  C   UNL     1      61.809  63.588  71.632  0.00  0.00    +0.000 C 
ATOM     12  O   UNL     1      62.166  63.837  72.332  0.00  0.00    +0.000 OA
ATOM     13  N   UNL     1      61.711  62.781  71.483  0.00  0.00    +0.000 NA
ATOM     14  C   UNL     1      61.970  62.226  72.036  0.00  0.00    +0.000 C 
ATOM     15  C   UNL     1      61.871  61.420  71.887  0.00  0.00    +0.000 C 
ATOM     16  O   UNL     1      61.515  61.170  71.187  0.00  0.00    +0.000 OA
ATOM     17  C   UNL     1      62.130  60.864  72.440  0.00  0.00    +0.000 C 
ATOM     18  O   UNL     1      62.032  60.059  72.291  0.00  0.00    +0.000 OA
ATOM     19  C   UNL     1      61.649  64.948  71.227  0.00  0.00    +0.000 A 
ATOM     20  I   UNL     1      62.005  65.198  71.928  0.00  0.00    +0.000 I 
ATOM     21  C   UNL     1      61.390  65.504  70.675  0.00  0.00    +0.000 A 
ATOM     22  C   UNL     1      61.488  66.309  70.823  0.00  0.00    +0.000 C 
ATOM     23  O   UNL     1      61.229  66.865  70.270  0.00  0.00    +0.000 OA
ATOM     24  N   UNL     1      61.845  66.559  71.524  0.00  0.00    +0.000 NA
ATOM     25  C   UNL     1      61.943  67.364  71.673  0.00  0.00    +0.000 C 
ATOM     26  C   UNL     1      62.299  67.615  72.373  0.00  0.00    +0.000 C 
ATOM     27  O   UNL     1      62.558  67.060  72.926  0.00  0.00    +0.000 OA
ATOM     28  C   UNL     1      62.397  68.420  72.522  0.00  0.00    +0.000 C 
ATOM     29  O   UNL     1      62.754  68.671  73.222  0.00  0.00    +0.000 OA
ATOM     30  C   UNL     1      61.034  65.254  69.975  0.00  0.00    +0.000 A 
ATOM     31  I   UNL     1      60.775  65.810  69.422  0.00  0.00    +0.000 I 
ENDROOT
TORSDOF 0
ENDMDL
MODEL 7
REMARK VINA RESULT:   -10.376     15.880     17.780
REMARK INTER + INTRA:         -10.376
REMARK INTER:                 -10.376
REMARK INTRA:                   0.000
REMARK UNBOUND:                 0.000
ROOT
REMARK  Name = iomeprol
REMARK                            x       y       z     vdW  Elec       q    Type
REMARK                         _______ _______ _______ _____ _____    ______ ____
ATOM      1  C   UNL     1      62.600  69.422  55.351  0.00  0.00    +0.000 C 
ATOM      2  N   UNL     1      62.495  68.632  55.134  0.00  0.00    +0.000 N 
ATOM      3  C   UNL     1      62.564  68.037  55.701  0.00  0.00    +0.000 C 
ATOM      4  O   UNL     1      62.459  67.248  55.484  0.00  0.00    +0.000 OA
ATOM      5  C   UNL     1      62.737  68.230  56.483  0.00  0.00    +0.000 C 
ATOM      6  O   UNL     1      62.805  67.634  57.050  0.00  0.00    +0.000 OA
ATOM      7  C   UNL     1      62.322  68.439  54.351  0.00  0.00    +0.000 A 
ATOM      8  C   UNL     1      62.217  67.650  54.134  0.00  0.00    +0.000 A 
ATOM      9  I   UNL     1      62.285  67.054  54.701  0.00  0.00    +0.000 I 
ATOM     10  C   UNL     1      62.044  67.456  53.351  0.00  0.00    +0.000 A 
ATOM     11  C   UNL     1      61.939  66.668  53.134  0.00  0.00    +0.000 C 
ATOM     12  O   UNL     1      61.766  66.474  52.352  0.00  0.00    +0.000 OA
ATOM     13  N   UNL     1      62.007  66.072  53.701  0.00  0.00    +0.000 NA
ATOM     14  C   UNL     1      61.902  65.283  53.485  0.00  0.00    +0.000 C 
ATOM     15  C   UNL     1      61.971  64.687  54.052  0.00  0.00    +0.000 C 
ATOM     16  O   UNL     1      62.144  64.880  54.834  0.00  0.00    +0.000 OA
ATOM     17  C   UNL     1      61.865  63.897  53.835  0.00  0.00    +0.000 C 
ATOM     18  O   UNL     1      61.934  63.302  54.401  0.00  0.00    +0.000 OA
ATOM     19  C   UNL     1      61.975  68.053  52.785  0.00  0.00    +0.000 A 
ATOM     20  I   UNL     1      61.802  67.859  52.002  0.00  0.00    +0.000 I 
ATOM     21  C   UNL     1      62.080  68.842  53.001  0.00  0.00    +0.000 A 
ATOM     22  C   UNL     1      62.012  69.437  52.435  0.00  0.00    +0.000 C 
ATOM     23  O   UNL     1      62.117  70.227  52.652  0.00  0.00    +0.000 OA
ATOM     24  N   UNL     1      61.839  69.244  51.651  0.00  0.00    +0.000 NA
ATOM     25  C   UNL     1      61.771  69.839  51.085  0.00  0.00    +0.000 C 
ATOM     26  C   UNL     1      61.597  69.647  50.302  0.00  0.00    +0.000 C 
ATOM     27  O   UNL     1      61.492  68.857  50.085  0.00  0.00    +0.000 OA
ATOM     28  C   UNL     1      61.529  70.242  49.735  0.00  0.00    +0.000 C 
ATOM     29  O   UNL     1      61.356  70.049  48.952  0.00  0.00    +0.000 OA
ATOM     30  C   UNL     1      62.254  69.035  53.784  0.00  0.00    +0.000 A 
ATOM     31  I   UNL     1      62.359  69.825  54.000  0.00  0.00    +0.000 I 
ENDROOT
TORSDOF 0
ENDMDL
MODEL 8
REMARK VINA RESULT:   -10.348      2.081      4.389
REMARK INTER + INTRA:         -10.348
REMARK INTER:                 -10.348
REMARK INTRA:                   0.000
REMARK UNBOUND:                 0.000
ROOT
REMARK  Name = iomeprol
REMARK                            x       y       z     vdW  Elec       q    Type
REMARK                         _______ _______ _______ _____ _____    ______ ____
ATOM      1  C   UNL     1      60.198  62.723  71.714  0.00  0.00    +0.000 C 
ATOM      2  N   UNL     1      60.797  63.202  71.408  0.00  0.00    +0.000 N 
ATOM      3  C   UNL     1      61.483  62.861  71.103  0.00  0.00    +0.000 C 
ATOM      4  O   UNL     1      62.081  63.339  70.797  0.00  0.00    +0.000 OA
ATOM      5  C   UNL     1      61.570  62.041  71.103  0.00  0.00    +0.000 C 
ATOM      6  O   UNL     1      62.256  61.698  70.798  0.00  0.00    +0.000 OA
ATOM      7  C   UNL     1      60.709  64.023  71.408  0.00  0.00    +0.000 A 
ATOM      8  C   UNL     1      61.307  64.501  71.102  0.00  0.00    +0.000 A 
ATOM      9  I   UNL     1      61.994  64.159  70.796  0.00  0.00    +0.000 I 
ATOM     10  C   UNL     1      61.220  65.322  71.101  0.00  0.00    +0.000 A 
ATOM     11  C   UNL     1      61.818  65.800  70.796  0.00  0.00    +0.000 C 
ATOM     12  O   UNL     1      61.731  66.621  70.795  0.00  0.00    +0.000 OA
ATOM     13  N   UNL     1      62.504  65.458  70.490  0.00  0.00    +0.000 NA
ATOM     14  C   UNL     1      63.103  65.937  70.184  0.00  0.00    +0.000 C 
ATOM     15  C   UNL     1      63.788  65.594  69.879  0.00  0.00    +0.000 C 
ATOM     16  O   UNL     1      63.876  64.775  69.879  0.00  0.00    +0.000 OA
ATOM     17  C   UNL     1      64.388  66.074  69.573  0.00  0.00    +0.000 C 
ATOM     18  O   UNL     1      65.073  65.732  69.267  0.00  0.00    +0.000 OA
ATOM     19  C   UNL     1      60.534  65.664  71.407  0.00  0.00    +0.000 A 
ATOM     20  I   UNL     1      60.447  66.484  71.406  0.00  0.00    +0.000 I 
ATOM     21  C   UNL     1      59.936  65.185  71.713  0.00  0.00    +0.000 A 
ATOM     22  C   UNL     1      59.250  65.527  72.018  0.00  0.00    +0.000 C 
ATOM     23  O   UNL     1      58.651  65.048  72.324  0.00  0.00    +0.000 OA
ATOM     24  N   UNL     1      59.162  66.347  72.018  0.00  0.00    +0.000 NA
ATOM     25  C   UNL     1      58.477  66.689  72.323  0.00  0.00    +0.000 C 
ATOM     26  C   UNL     1      58.389  67.510  72.323  0.00  0.00    +0.000 C 
ATOM     27  O   UNL     1      58.987  67.988  72.017  0.00  0.00    +0.000 OA
ATOM     28  C   UNL     1      57.703  67.851  72.628  0.00  0.00    +0.000 C 
ATOM     29  O   UNL     1      57.615  68.672  72.628  0.00  0.00    +0.000 OA
ATOM     30  C   UNL     1      60.023  64.365  71.713  0.00  0.00    +0.000 A 
ATOM     31  I   UNL     1      59.424  63.886  72.019  0.00  0.00    +0.000 I 
ENDROOT
TORSDOF 0
ENDMDL
MODEL 9
REMARK VINA RESULT:    -9.990     15.266     17.713
REMARK INTER + INTRA:          -9.990
REMARK INTER:                  -9.990
REMARK INTRA:                   0.000
REMARK UNBOUND:                 0.000
ROOT
REMARK  Name = iomeprol
REMARK                            x       y       z     vdW  Elec       q    Type
REMARK                         _______ _______ _______ _____ _____    ______ ____
ATOM      1  C   UNL     1      61.179  68.035  51.574  0.00  0.00    +0.000 C 
ATOM      2  N   UNL     1      61.413  68.077  52.366  0.00  0.00    +0.000 N 
ATOM      3  C   UNL     1      61.500  68.811  52.730  0.00  0.00    +0.000 C 
ATOM      4  O   UNL     1      61.733  68.854  53.521  0.00  0.00    +0.000 OA
ATOM      5  C   UNL     1      61.355  69.503  52.306  0.00  0.00    +0.000 C 
ATOM      6  O   UNL     1      61.442  70.238  52.671  0.00  0.00    +0.000 OA
ATOM      7  C   UNL     1      61.558  67.385  52.790  0.00  0.00    +0.000 A 
ATOM      8  C   UNL     1      61.791  67.427  53.580  0.00  0.00    +0.000 A 
ATOM      9  I   UNL     1      61.879  68.162  53.946  0.00  0.00    +0.000 I 
ATOM     10  C   UNL     1      61.937  66.734  54.006  0.00  0.00    +0.000 A 
ATOM     11  C   UNL     1      62.169  66.777  54.795  0.00  0.00    +0.000 C 
ATOM     12  O   UNL     1      62.315  66.085  55.220  0.00  0.00    +0.000 OA
ATOM     13  N   UNL     1      62.257  67.512  55.161  0.00  0.00    +0.000 NA
ATOM     14  C   UNL     1      62.490  67.554  55.951  0.00  0.00    +0.000 C 
ATOM     15  C   UNL     1      62.578  68.289  56.316  0.00  0.00    +0.000 C 
ATOM     16  O   UNL     1      62.433  68.981  55.891  0.00  0.00    +0.000 OA
ATOM     17  C   UNL     1      62.811  68.332  57.107  0.00  0.00    +0.000 C 
ATOM     18  O   UNL     1      62.899  69.066  57.472  0.00  0.00    +0.000 OA
ATOM     19  C   UNL     1      61.849  66.000  53.640  0.00  0.00    +0.000 A 
ATOM     20  I   UNL     1      61.994  65.309  54.065  0.00  0.00    +0.000 I 
ATOM     21  C   UNL     1      61.616  65.958  52.850  0.00  0.00    +0.000 A 
ATOM     22  C   UNL     1      61.528  65.224  52.485  0.00  0.00    +0.000 C 
ATOM     23  O   UNL     1      61.295  65.182  51.694  0.00  0.00    +0.000 OA
ATOM     24  N   UNL     1      61.673  64.531  52.909  0.00  0.00    +0.000 NA
ATOM     25  C   UNL     1      61.586  63.797  52.544  0.00  0.00    +0.000 C 
ATOM     26  C   UNL     1      61.731  63.105  52.969  0.00  0.00    +0.000 C 
ATOM     27  O   UNL     1      61.964  63.147  53.759  0.00  0.00    +0.000 OA
ATOM     28  C   UNL     1      61.643  62.371  52.604  0.00  0.00    +0.000 C 
ATOM     29  O   UNL     1      61.789  61.678  53.028  0.00  0.00    +0.000 OA
ATOM     30  C   UNL     1      61.470  66.650  52.425  0.00  0.00    +0.000 A 
ATOM     31  I   UNL     1      61.237  66.607  51.634  0.00  0.00    +0.000 I 
ENDROOT
TORSDOF 0
ENDMDL
