MODEL 1
REMARK VINA RESULT:    -9.018      0.000      0.000
REMARK INTER + INTRA:          -9.018
REMARK INTER:                  -9.018
REMARK INTRA:                   0.000
REMARK UNBOUND:                 0.000
ROOT
REMARK  Name = iophenoic acid
REMARK                            x       y       z     vdW  Elec       q    Type
REMARK                         _______ _______ _______ _____ _____    ______ ____
ATOM      1  C   UNL     1      62.531  61.842  64.329  0.00  0.00    +0.000 C 
ATOM      2  C   UNL     1      61.938  61.940  64.894  0.00  0.00    +0.000 C 
ATOM      3  C   UNL     1      61.188  61.619  64.764  0.00  0.00    +0.000 C 
ATOM      4  C   UNL     1      60.594  61.717  65.329  0.00  0.00    +0.000 C 
ATOM      5  C   UNL     1      60.749  62.135  66.022  0.00  0.00    +0.000 A 
ATOM      6  C   UNL     1      60.155  62.233  66.587  0.00  0.00    +0.000 A 
ATOM      7  I   UNL     1      59.407  61.912  66.456  0.00  0.00    +0.000 I 
ATOM      8  C   UNL     1      60.311  62.651  67.281  0.00  0.00    +0.000 A 
ATOM      9  O   UNL     1      59.717  62.748  67.845  0.00  0.00    +0.000 OA
ATOM     10  C   UNL     1      61.059  62.970  67.410  0.00  0.00    +0.000 A 
ATOM     11  I   UNL     1      61.215  63.389  68.105  0.00  0.00    +0.000 I 
ATOM     12  C   UNL     1      61.654  62.873  66.846  0.00  0.00    +0.000 A 
ATOM     13  C   UNL     1      61.499  62.455  66.152  0.00  0.00    +0.000 A 
ATOM     14  I   UNL     1      62.093  62.357  65.587  0.00  0.00    +0.000 I 
ATOM     15  C   UNL     1      61.033  61.202  64.070  0.00  0.00    +0.000 C 
ATOM     16  O   UNL     1      60.283  60.882  63.940  0.00  0.00    +0.000 OA
ATOM     17  O   UNL     1      61.627  61.104  63.506  0.00  0.00    +0.000 OA
ENDROOT
TORSDOF 0
ENDMDL
MODEL 2
REMARK VINA RESULT:    -8.052      3.291      5.370
REMARK INTER + INTRA:          -8.052
REMARK INTER:                  -8.052
REMARK INTRA:                   0.000
REMARK UNBOUND:                 0.000
ROOT
REMARK  Name = iophenoic acid
REMARK                            x       y       z     vdW  Elec       q    Type
REMARK                         _______ _______ _______ _____ _____    ______ ____
ATOM      1  C   UNL     1      62.733  65.174  70.398  0.00  0.00    +0.000 C 
ATOM      2  C   UNL     1      62.266  64.504  70.283  0.00  0.00    +0.000 C 
ATOM      3  C   UNL     1      62.030  64.050  70.931  0.00  0.00    +0.000 C 
ATOM      4  C   UNL     1      61.563  63.379  70.815  0.00  0.00    +0.000 C 
ATOM      5  C   UNL     1      61.332  63.163  70.054  0.00  0.00    +0.000 A 
ATOM      6  C   UNL     1      60.865  62.493  69.939  0.00  0.00    +0.000 A 
ATOM      7  I   UNL     1      60.629  62.039  70.586  0.00  0.00    +0.000 I 
ATOM      8  C   UNL     1      60.634  62.277  69.177  0.00  0.00    +0.000 A 
ATOM      9  O   UNL     1      60.167  61.607  69.062  0.00  0.00    +0.000 OA
ATOM     10  C   UNL     1      60.869  62.731  68.531  0.00  0.00    +0.000 A 
ATOM     11  I   UNL     1      60.638  62.515  67.768  0.00  0.00    +0.000 I 
ATOM     12  C   UNL     1      61.336  63.402  68.645  0.00  0.00    +0.000 A 
ATOM     13  C   UNL     1      61.568  63.618  69.407  0.00  0.00    +0.000 A 
ATOM     14  I   UNL     1      62.035  64.289  69.522  0.00  0.00    +0.000 I 
ATOM     15  C   UNL     1      62.261  64.266  71.692  0.00  0.00    +0.000 C 
ATOM     16  O   UNL     1      62.025  63.811  72.339  0.00  0.00    +0.000 OA
ATOM     17  O   UNL     1      62.728  64.936  71.807  0.00  0.00    +0.000 OA
ENDROOT
TORSDOF 0
ENDMDL
MODEL 3
REMARK VINA RESULT:    -7.998      4.521      6.486
REMARK INTER + INTRA:          -7.998
REMARK INTER:                  -7.998
REMARK INTRA:                   0.000
REMARK UNBOUND:                 0.000
ROOT
REMARK  Name = iophenoic acid
REMARK                            x       y       z     vdW  Elec       q    Type
REMARK                         _______ _______ _______ _____ _____    ______ ____
ATOM      1  C   UNL     1      59.178  65.845  72.450  0.00  0.00    +0.000 C 
ATOM      2  C   UNL     1      59.470  65.417  71.809  0.00  0.00    +0.000 C 
ATOM      3  C   UNL     1      59.540  65.779  71.070  0.00  0.00    +0.000 C 
ATOM      4  C   UNL     1      59.833  65.351  70.427  0.00  0.00    +0.000 C 
ATOM      5  C   UNL     1      60.055  64.564  70.523  0.00  0.00    +0.000 A 
ATOM      6  C   UNL     1      60.347  64.136  69.881  0.00  0.00    +0.000 A 
ATOM      7  I   UNL     1      60.417  64.498  69.143  0.00  0.00    +0.000 I 
ATOM      8  C   UNL     1      60.570  63.347  69.977  0.00  0.00    +0.000 A 
ATOM      9  O   UNL     1      60.862  62.921  69.335  0.00  0.00    +0.000 OA
ATOM     10  C   UNL     1      60.500  62.986  70.714  0.00  0.00    +0.000 A 
ATOM     11  I   UNL     1      60.723  62.197  70.810  0.00  0.00    +0.000 I 
ATOM     12  C   UNL     1      60.208  63.413  71.357  0.00  0.00    +0.000 A 
ATOM     13  C   UNL     1      59.985  64.202  71.261  0.00  0.00    +0.000 A 
ATOM     14  I   UNL     1      59.692  64.629  71.904  0.00  0.00    +0.000 I 
ATOM     15  C   UNL     1      59.318  66.568  70.974  0.00  0.00    +0.000 C 
ATOM     16  O   UNL     1      59.388  66.929  70.235  0.00  0.00    +0.000 OA
ATOM     17  O   UNL     1      59.025  66.994  71.617  0.00  0.00    +0.000 OA
ENDROOT
TORSDOF 0
ENDMDL
MODEL 4
REMARK VINA RESULT:    -7.966      3.108      4.678
REMARK INTER + INTRA:          -7.966
REMARK INTER:                  -7.966
REMARK INTRA:                   0.000
REMARK UNBOUND:                 0.000
ROOT
REMARK  Name = iophenoic acid
REMARK                            x       y       z     vdW  Elec       q    Type
REMARK                         _______ _______ _______ _____ _____    ______ ____
ATOM      1  C   UNL     1      61.159  63.205  67.982  0.00  0.00    +0.000 C 
ATOM      2  C   UNL     1      61.249  63.276  68.799  0.00  0.00    +0.000 C 
ATOM      3  C   UNL     1      60.924  62.705  69.300  0.00  0.00    +0.000 C 
ATOM      4  C   UNL     1      61.014  62.775  70.117  0.00  0.00    +0.000 C 
ATOM      5  C   UNL     1      61.426  63.415  70.434  0.00  0.00    +0.000 A 
ATOM      6  C   UNL     1      61.516  63.485  71.250  0.00  0.00    +0.000 A 
ATOM      7  I   UNL     1      61.192  62.915  71.750  0.00  0.00    +0.000 I 
ATOM      8  C   UNL     1      61.929  64.125  71.567  0.00  0.00    +0.000 A 
ATOM      9  O   UNL     1      62.018  64.195  72.383  0.00  0.00    +0.000 OA
ATOM     10  C   UNL     1      62.252  64.695  71.067  0.00  0.00    +0.000 A 
ATOM     11  I   UNL     1      62.666  65.336  71.383  0.00  0.00    +0.000 I 
ATOM     12  C   UNL     1      62.164  64.626  70.249  0.00  0.00    +0.000 A 
ATOM     13  C   UNL     1      61.751  63.985  69.933  0.00  0.00    +0.000 A 
ATOM     14  I   UNL     1      61.661  63.915  69.115  0.00  0.00    +0.000 I 
ATOM     15  C   UNL     1      60.511  62.065  68.983  0.00  0.00    +0.000 C 
ATOM     16  O   UNL     1      60.188  61.495  69.484  0.00  0.00    +0.000 OA
ATOM     17  O   UNL     1      60.423  61.995  68.166  0.00  0.00    +0.000 OA
ENDROOT
TORSDOF 0
ENDMDL
MODEL 5
REMARK VINA RESULT:    -7.837      5.408      7.113
REMARK INTER + INTRA:          -7.837
REMARK INTER:                  -7.837
REMARK INTRA:                   0.000
REMARK UNBOUND:                 0.000
ROOT
REMARK  Name = iophenoic acid
REMARK                            x       y       z     vdW  Elec       q    Type
REMARK                         _______ _______ _______ _____ _____    ______ ____
ATOM      1  C   UNL     1      63.125  64.013  69.785  0.00  0.00    +0.000 C 
ATOM      2  C   UNL     1      63.285  64.667  70.262  0.00  0.00    +0.000 C 
ATOM      3  C   UNL     1      62.727  64.919  70.816  0.00  0.00    +0.000 C 
ATOM      4  C   UNL     1      62.886  65.573  71.293  0.00  0.00    +0.000 C 
ATOM      5  C   UNL     1      63.602  65.975  71.216  0.00  0.00    +0.000 A 
ATOM      6  C   UNL     1      63.761  66.629  71.693  0.00  0.00    +0.000 A 
ATOM      7  I   UNL     1      63.204  66.881  72.247  0.00  0.00    +0.000 I 
ATOM      8  C   UNL     1      64.477  67.032  71.616  0.00  0.00    +0.000 A 
ATOM      9  O   UNL     1      64.636  67.685  72.093  0.00  0.00    +0.000 OA
ATOM     10  C   UNL     1      65.034  66.780  71.062  0.00  0.00    +0.000 A 
ATOM     11  I   UNL     1      65.751  67.183  70.985  0.00  0.00    +0.000 I 
ATOM     12  C   UNL     1      64.875  66.126  70.585  0.00  0.00    +0.000 A 
ATOM     13  C   UNL     1      64.159  65.723  70.662  0.00  0.00    +0.000 A 
ATOM     14  I   UNL     1      64.000  65.069  70.185  0.00  0.00    +0.000 I 
ATOM     15  C   UNL     1      62.011  64.516  70.893  0.00  0.00    +0.000 C 
ATOM     16  O   UNL     1      61.454  64.769  71.447  0.00  0.00    +0.000 OA
ATOM     17  O   UNL     1      61.853  63.862  70.416  0.00  0.00    +0.000 OA
ENDROOT
TORSDOF 0
ENDMDL
MODEL 6
REMARK VINA RESULT:    -7.812      6.307      7.017
REMARK INTER + INTRA:          -7.812
REMARK INTER:                  -7.812
REMARK INTRA:                   0.000
REMARK UNBOUND:                 0.000
ROOT
REMARK  Name = iophenoic acid
REMARK                            x       y       z     vdW  Elec       q    Type
REMARK                         _______ _______ _______ _____ _____    ______ ____
ATOM      1  C   UNL     1      64.681  65.193  69.513  0.00  0.00    +0.000 C 
ATOM      2  C   UNL     1      64.166  65.312  70.147  0.00  0.00    +0.000 C 
ATOM      3  C   UNL     1      64.216  66.004  70.594  0.00  0.00    +0.000 C 
ATOM      4  C   UNL     1      63.702  66.123  71.229  0.00  0.00    +0.000 C 
ATOM      5  C   UNL     1      63.139  65.551  71.417  0.00  0.00    +0.000 A 
ATOM      6  C   UNL     1      62.625  65.670  72.051  0.00  0.00    +0.000 A 
ATOM      7  I   UNL     1      62.675  66.362  72.497  0.00  0.00    +0.000 I 
ATOM      8  C   UNL     1      62.061  65.097  72.238  0.00  0.00    +0.000 A 
ATOM      9  O   UNL     1      61.548  65.216  72.872  0.00  0.00    +0.000 OA
ATOM     10  C   UNL     1      62.012  64.406  71.792  0.00  0.00    +0.000 A 
ATOM     11  I   UNL     1      61.448  63.832  71.980  0.00  0.00    +0.000 I 
ATOM     12  C   UNL     1      62.526  64.286  71.157  0.00  0.00    +0.000 A 
ATOM     13  C   UNL     1      63.089  64.859  70.970  0.00  0.00    +0.000 A 
ATOM     14  I   UNL     1      63.604  64.740  70.335  0.00  0.00    +0.000 I 
ATOM     15  C   UNL     1      64.779  66.577  70.407  0.00  0.00    +0.000 C 
ATOM     16  O   UNL     1      64.828  67.269  70.854  0.00  0.00    +0.000 OA
ATOM     17  O   UNL     1      65.293  66.457  69.772  0.00  0.00    +0.000 OA
ENDROOT
TORSDOF 0
ENDMDL
MODEL 7
REMARK VINA RESULT:    -7.762      3.904      5.237
REMARK INTER + INTRA:          -7.762
REMARK INTER:                  -7.762
REMARK INTRA:                   0.000
REMARK UNBOUND:                 0.000
ROOT
REMARK  Name = iophenoic acid
REMARK                            x       y       z     vdW  Elec       q    Type
REMARK                         _______ _______ _______ _____ _____    ______ ____
ATOM      1  C   UNL     1      60.637  61.655  70.593  0.00  0.00    +0.000 C 
ATOM      2  C   UNL     1      60.488  62.465  70.544  0.00  0.00    +0.000 C 
ATOM      3  C   UNL     1      60.501  62.844  69.811  0.00  0.00    +0.000 C 
ATOM      4  C   UNL     1      60.352  63.654  69.762  0.00  0.00    +0.000 C 
ATOM      5  C   UNL     1      60.192  64.086  70.446  0.00  0.00    +0.000 A 
ATOM      6  C   UNL     1      60.044  64.896  70.397  0.00  0.00    +0.000 A 
ATOM      7  I   UNL     1      60.056  65.273  69.664  0.00  0.00    +0.000 I 
ATOM      8  C   UNL     1      59.883  65.328  71.082  0.00  0.00    +0.000 A 
ATOM      9  O   UNL     1      59.735  66.137  71.033  0.00  0.00    +0.000 OA
ATOM     10  C   UNL     1      59.871  64.950  71.814  0.00  0.00    +0.000 A 
ATOM     11  I   UNL     1      59.711  65.382  72.499  0.00  0.00    +0.000 I 
ATOM     12  C   UNL     1      60.019  64.139  71.864  0.00  0.00    +0.000 A 
ATOM     13  C   UNL     1      60.180  63.707  71.179  0.00  0.00    +0.000 A 
ATOM     14  I   UNL     1      60.328  62.897  71.228  0.00  0.00    +0.000 I 
ATOM     15  C   UNL     1      60.661  62.412  69.126  0.00  0.00    +0.000 C 
ATOM     16  O   UNL     1      60.673  62.790  68.393  0.00  0.00    +0.000 OA
ATOM     17  O   UNL     1      60.809  61.601  69.176  0.00  0.00    +0.000 OA
ENDROOT
TORSDOF 0
ENDMDL
MODEL 8
REMARK VINA RESULT:    -7.702      3.865      5.240
REMARK INTER + INTRA:          -7.702
REMARK INTER:                  -7.702
REMARK INTRA:                   0.000
REMARK UNBOUND:                 0.000
ROOT
REMARK  Name = iophenoic acid
REMARK                            x       y       z     vdW  Elec       q    Type
REMARK                         _______ _______ _______ _____ _____    ______ ____
ATOM      1  C   UNL     1      60.862  62.520  68.935  0.00  0.00    +0.000 C 
ATOM      2  C   UNL     1      60.615  63.135  69.425  0.00  0.00    +0.000 C 
ATOM      3  C   UNL     1      60.491  62.996  70.230  0.00  0.00    +0.000 C 
ATOM      4  C   UNL     1      60.245  63.612  70.722  0.00  0.00    +0.000 C 
ATOM      5  C   UNL     1      60.123  64.365  70.410  0.00  0.00    +0.000 A 
ATOM      6  C   UNL     1      59.876  64.980  70.901  0.00  0.00    +0.000 A 
ATOM      7  I   UNL     1      59.752  64.841  71.704  0.00  0.00    +0.000 I 
ATOM      8  C   UNL     1      59.754  65.734  70.588  0.00  0.00    +0.000 A 
ATOM      9  O   UNL     1      59.508  66.349  71.079  0.00  0.00    +0.000 OA
ATOM     10  C   UNL     1      59.878  65.873  69.785  0.00  0.00    +0.000 A 
ATOM     11  I   UNL     1      59.756  66.627  69.472  0.00  0.00    +0.000 I 
ATOM     12  C   UNL     1      60.125  65.258  69.293  0.00  0.00    +0.000 A 
ATOM     13  C   UNL     1      60.247  64.504  69.605  0.00  0.00    +0.000 A 
ATOM     14  I   UNL     1      60.493  63.888  69.114  0.00  0.00    +0.000 I 
ATOM     15  C   UNL     1      60.613  62.243  70.542  0.00  0.00    +0.000 C 
ATOM     16  O   UNL     1      60.489  62.105  71.346  0.00  0.00    +0.000 OA
ATOM     17  O   UNL     1      60.860  61.628  70.050  0.00  0.00    +0.000 OA
ENDROOT
TORSDOF 0
ENDMDL
MODEL 9
REMARK VINA RESULT:    -7.488      7.383      8.135
REMARK INTER + INTRA:          -7.488
REMARK INTER:                  -7.488
REMARK INTRA:                   0.000
REMARK UNBOUND:                 0.000
ROOT
REMARK  Name = iophenoic acid
REMARK                            x       y       z     vdW  Elec       q    Type
REMARK                         _______ _______ _______ _____ _____    ______ ____
ATOM      1  C   UNL     1      63.125  67.964  72.495  0.00  0.00    +0.000 C 
ATOM      2  C   UNL     1      62.669  67.277  72.474  0.00  0.00    +0.000 C 
ATOM      3  C   UNL     1      62.995  66.575  72.187  0.00  0.00    +0.000 C 
ATOM      4  C   UNL     1      62.539  65.887  72.166  0.00  0.00    +0.000 C 
ATOM      5  C   UNL     1      61.758  65.901  72.430  0.00  0.00    +0.000 A 
ATOM      6  C   UNL     1      61.302  65.215  72.408  0.00  0.00    +0.000 A 
ATOM      7  I   UNL     1      61.628  64.513  72.122  0.00  0.00    +0.000 I 
ATOM      8  C   UNL     1      60.520  65.229  72.672  0.00  0.00    +0.000 A 
ATOM      9  O   UNL     1      60.065  64.542  72.650  0.00  0.00    +0.000 OA
ATOM     10  C   UNL     1      60.195  65.931  72.958  0.00  0.00    +0.000 A 
ATOM     11  I   UNL     1      59.413  65.945  73.222  0.00  0.00    +0.000 I 
ATOM     12  C   UNL     1      60.651  66.619  72.980  0.00  0.00    +0.000 A 
ATOM     13  C   UNL     1      61.432  66.604  72.716  0.00  0.00    +0.000 A 
ATOM     14  I   UNL     1      61.888  67.292  72.738  0.00  0.00    +0.000 I 
ATOM     15  C   UNL     1      63.776  66.560  71.923  0.00  0.00    +0.000 C 
ATOM     16  O   UNL     1      64.101  65.857  71.637  0.00  0.00    +0.000 OA
ATOM     17  O   UNL     1      64.232  67.248  71.945  0.00  0.00    +0.000 OA
ENDROOT
TORSDOF 0
ENDMDL
