MODEL 1
REMARK VINA RESULT:   -11.265      0.000      0.000
REMARK INTER + INTRA:         -11.265
REMARK INTER:                 -11.265
REMARK INTRA:                   0.000
REMARK UNBOUND:                 0.000
ROOT
REMARK  Name = iotroxic acid
REMARK                            x       y       z     vdW  Elec       q    Type
REMARK                         _______ _______ _______ _____ _____    ______ ____
ATOM      1  O   UNL     1      63.812  60.660  54.283  0.00  0.00    +0.000 OA
ATOM      2  C   UNL     1      63.505  61.360  53.973  0.00  0.00    +0.000 C 
ATOM      3  O   UNL     1      63.277  61.970  54.481  0.00  0.00    +0.000 OA
ATOM      4  C   UNL     1      63.426  61.452  53.157  0.00  0.00    +0.000 A 
ATOM      5  C   UNL     1      63.654  60.843  52.650  0.00  0.00    +0.000 A 
ATOM      6  I   UNL     1      63.961  60.142  52.959  0.00  0.00    +0.000 I 
ATOM      7  C   UNL     1      63.575  60.934  51.834  0.00  0.00    +0.000 A 
ATOM      8  C   UNL     1      63.268  61.634  51.525  0.00  0.00    +0.000 A 
ATOM      9  I   UNL     1      63.189  61.725  50.710  0.00  0.00    +0.000 I 
ATOM     10  C   UNL     1      63.040  62.244  52.032  0.00  0.00    +0.000 A 
ATOM     11  N   UNL     1      62.733  62.944  51.723  0.00  0.00    +0.000 NA
ATOM     12  C   UNL     1      62.504  63.554  52.231  0.00  0.00    +0.000 C 
ATOM     13  O   UNL     1      62.583  63.463  53.047  0.00  0.00    +0.000 OA
ATOM     14  C   UNL     1      62.197  64.254  51.921  0.00  0.00    +0.000 C 
ATOM     15  O   UNL     1      61.969  64.864  52.429  0.00  0.00    +0.000 OA
ATOM     16  C   UNL     1      61.662  65.564  52.119  0.00  0.00    +0.000 C 
ATOM     17  C   UNL     1      61.434  66.174  52.627  0.00  0.00    +0.000 C 
ATOM     18  O   UNL     1      61.127  66.874  52.317  0.00  0.00    +0.000 OA
ATOM     19  C   UNL     1      60.898  67.484  52.825  0.00  0.00    +0.000 C 
ATOM     20  C   UNL     1      60.591  68.184  52.516  0.00  0.00    +0.000 C 
ATOM     21  O   UNL     1      60.363  68.793  53.023  0.00  0.00    +0.000 OA
ATOM     22  C   UNL     1      60.056  69.494  52.714  0.00  0.00    +0.000 C 
ATOM     23  C   UNL     1      59.828  70.104  53.221  0.00  0.00    +0.000 C 
ATOM     24  O   UNL     1      59.907  70.013  54.038  0.00  0.00    +0.000 OA
ATOM     25  N   UNL     1      59.521  70.804  52.912  0.00  0.00    +0.000 NA
ATOM     26  C   UNL     1      59.293  71.413  53.419  0.00  0.00    +0.000 A 
ATOM     27  C   UNL     1      58.985  72.114  53.110  0.00  0.00    +0.000 A 
ATOM     28  I   UNL     1      58.906  72.205  52.295  0.00  0.00    +0.000 I 
ATOM     29  C   UNL     1      58.757  72.723  53.618  0.00  0.00    +0.000 A 
ATOM     30  C   UNL     1      58.450  73.424  53.308  0.00  0.00    +0.000 C 
ATOM     31  O   UNL     1      58.371  73.515  52.493  0.00  0.00    +0.000 OA
ATOM     32  O   UNL     1      58.222  74.033  53.816  0.00  0.00    +0.000 OA
ATOM     33  C   UNL     1      58.836  72.632  54.434  0.00  0.00    +0.000 A 
ATOM     34  I   UNL     1      58.608  73.242  54.941  0.00  0.00    +0.000 I 
ATOM     35  C   UNL     1      59.143  71.932  54.742  0.00  0.00    +0.000 A 
ATOM     36  C   UNL     1      59.372  71.322  54.236  0.00  0.00    +0.000 A 
ATOM     37  I   UNL     1      59.679  70.622  54.544  0.00  0.00    +0.000 I 
ATOM     38  C   UNL     1      63.119  62.153  52.849  0.00  0.00    +0.000 A 
ATOM     39  I   UNL     1      62.891  62.762  53.355  0.00  0.00    +0.000 I 
ENDROOT
TORSDOF 0
ENDMDL
MODEL 2
REMARK VINA RESULT:   -11.181      0.953     10.049
REMARK INTER + INTRA:         -11.181
REMARK INTER:                 -11.181
REMARK INTRA:                   0.000
REMARK UNBOUND:                 0.000
ROOT
REMARK  Name = iotroxic acid
REMARK                            x       y       z     vdW  Elec       q    Type
REMARK                         _______ _______ _______ _____ _____    ______ ____
ATOM      1  O   UNL     1      58.430  73.148  55.256  0.00  0.00    +0.000 OA
ATOM      2  C   UNL     1      58.715  72.500  54.832  0.00  0.00    +0.000 C 
ATOM      3  O   UNL     1      58.998  71.837  55.234  0.00  0.00    +0.000 OA
ATOM      4  C   UNL     1      58.716  72.514  54.007  0.00  0.00    +0.000 A 
ATOM      5  C   UNL     1      58.433  73.176  53.606  0.00  0.00    +0.000 A 
ATOM      6  I   UNL     1      58.148  73.825  54.029  0.00  0.00    +0.000 I 
ATOM      7  C   UNL     1      58.434  73.190  52.781  0.00  0.00    +0.000 A 
ATOM      8  C   UNL     1      58.719  72.542  52.357  0.00  0.00    +0.000 A 
ATOM      9  I   UNL     1      58.720  72.556  51.534  0.00  0.00    +0.000 I 
ATOM     10  C   UNL     1      59.002  71.879  52.760  0.00  0.00    +0.000 A 
ATOM     11  N   UNL     1      59.287  71.231  52.336  0.00  0.00    +0.000 NA
ATOM     12  C   UNL     1      59.571  70.568  52.738  0.00  0.00    +0.000 C 
ATOM     13  O   UNL     1      59.569  70.554  53.563  0.00  0.00    +0.000 OA
ATOM     14  C   UNL     1      59.855  69.920  52.314  0.00  0.00    +0.000 C 
ATOM     15  O   UNL     1      60.139  69.257  52.717  0.00  0.00    +0.000 OA
ATOM     16  C   UNL     1      60.423  68.609  52.293  0.00  0.00    +0.000 C 
ATOM     17  C   UNL     1      60.707  67.946  52.695  0.00  0.00    +0.000 C 
ATOM     18  O   UNL     1      60.991  67.298  52.271  0.00  0.00    +0.000 OA
ATOM     19  C   UNL     1      61.275  66.635  52.674  0.00  0.00    +0.000 C 
ATOM     20  C   UNL     1      61.560  65.987  52.250  0.00  0.00    +0.000 C 
ATOM     21  O   UNL     1      61.843  65.325  52.652  0.00  0.00    +0.000 OA
ATOM     22  C   UNL     1      62.128  64.676  52.228  0.00  0.00    +0.000 C 
ATOM     23  C   UNL     1      62.411  64.013  52.631  0.00  0.00    +0.000 C 
ATOM     24  O   UNL     1      62.410  63.999  53.455  0.00  0.00    +0.000 OA
ATOM     25  N   UNL     1      62.696  63.365  52.207  0.00  0.00    +0.000 NA
ATOM     26  C   UNL     1      62.979  62.703  52.609  0.00  0.00    +0.000 A 
ATOM     27  C   UNL     1      63.264  62.054  52.185  0.00  0.00    +0.000 A 
ATOM     28  I   UNL     1      63.265  62.068  51.362  0.00  0.00    +0.000 I 
ATOM     29  C   UNL     1      63.547  61.392  52.588  0.00  0.00    +0.000 A 
ATOM     30  C   UNL     1      63.832  60.743  52.164  0.00  0.00    +0.000 C 
ATOM     31  O   UNL     1      63.834  60.757  51.340  0.00  0.00    +0.000 OA
ATOM     32  O   UNL     1      64.115  60.081  52.566  0.00  0.00    +0.000 OA
ATOM     33  C   UNL     1      63.546  61.378  53.413  0.00  0.00    +0.000 A 
ATOM     34  I   UNL     1      63.830  60.715  53.814  0.00  0.00    +0.000 I 
ATOM     35  C   UNL     1      63.261  62.026  53.835  0.00  0.00    +0.000 A 
ATOM     36  C   UNL     1      62.978  62.689  53.434  0.00  0.00    +0.000 A 
ATOM     37  I   UNL     1      62.693  63.337  53.857  0.00  0.00    +0.000 I 
ATOM     38  C   UNL     1      59.001  71.865  53.584  0.00  0.00    +0.000 A 
ATOM     39  I   UNL     1      59.284  71.203  53.986  0.00  0.00    +0.000 I 
ENDROOT
TORSDOF 0
ENDMDL
MODEL 3
REMARK VINA RESULT:   -11.152      3.322      4.813
REMARK INTER + INTRA:         -11.152
REMARK INTER:                 -11.152
REMARK INTRA:                   0.000
REMARK UNBOUND:                 0.000
ROOT
REMARK  Name = iotroxic acid
REMARK                            x       y       z     vdW  Elec       q    Type
REMARK                         _______ _______ _______ _____ _____    ______ ____
ATOM      1  O   UNL     1      61.041  58.233  48.098  0.00  0.00    +0.000 OA
ATOM      2  C   UNL     1      61.227  58.739  48.722  0.00  0.00    +0.000 C 
ATOM      3  O   UNL     1      61.031  59.540  48.675  0.00  0.00    +0.000 OA
ATOM      4  C   UNL     1      61.607  58.445  49.392  0.00  0.00    +0.000 A 
ATOM      5  C   UNL     1      61.802  57.646  49.438  0.00  0.00    +0.000 A 
ATOM      6  I   UNL     1      61.617  57.138  48.815  0.00  0.00    +0.000 I 
ATOM      7  C   UNL     1      62.183  57.352  50.109  0.00  0.00    +0.000 A 
ATOM      8  C   UNL     1      62.369  57.858  50.733  0.00  0.00    +0.000 A 
ATOM      9  I   UNL     1      62.749  57.565  51.403  0.00  0.00    +0.000 I 
ATOM     10  C   UNL     1      62.173  58.659  50.687  0.00  0.00    +0.000 A 
ATOM     11  N   UNL     1      62.359  59.165  51.311  0.00  0.00    +0.000 NA
ATOM     12  C   UNL     1      62.164  59.966  51.265  0.00  0.00    +0.000 C 
ATOM     13  O   UNL     1      61.783  60.259  50.594  0.00  0.00    +0.000 OA
ATOM     14  C   UNL     1      62.349  60.472  51.889  0.00  0.00    +0.000 C 
ATOM     15  O   UNL     1      62.154  61.273  51.842  0.00  0.00    +0.000 OA
ATOM     16  C   UNL     1      62.340  61.779  52.467  0.00  0.00    +0.000 C 
ATOM     17  C   UNL     1      62.144  62.580  52.420  0.00  0.00    +0.000 C 
ATOM     18  O   UNL     1      62.330  63.086  53.045  0.00  0.00    +0.000 OA
ATOM     19  C   UNL     1      62.135  63.887  52.998  0.00  0.00    +0.000 C 
ATOM     20  C   UNL     1      62.320  64.393  53.622  0.00  0.00    +0.000 C 
ATOM     21  O   UNL     1      62.125  65.193  53.575  0.00  0.00    +0.000 OA
ATOM     22  C   UNL     1      62.311  65.700  54.200  0.00  0.00    +0.000 C 
ATOM     23  C   UNL     1      62.115  66.500  54.154  0.00  0.00    +0.000 C 
ATOM     24  O   UNL     1      61.735  66.794  53.483  0.00  0.00    +0.000 OA
ATOM     25  N   UNL     1      62.301  67.006  54.778  0.00  0.00    +0.000 NA
ATOM     26  C   UNL     1      62.106  67.806  54.731  0.00  0.00    +0.000 A 
ATOM     27  C   UNL     1      62.291  68.313  55.356  0.00  0.00    +0.000 A 
ATOM     28  I   UNL     1      62.672  68.020  56.025  0.00  0.00    +0.000 I 
ATOM     29  C   UNL     1      62.096  69.113  55.309  0.00  0.00    +0.000 A 
ATOM     30  C   UNL     1      62.282  69.620  55.934  0.00  0.00    +0.000 C 
ATOM     31  O   UNL     1      62.662  69.327  56.603  0.00  0.00    +0.000 OA
ATOM     32  O   UNL     1      62.086  70.420  55.887  0.00  0.00    +0.000 OA
ATOM     33  C   UNL     1      61.715  69.407  54.638  0.00  0.00    +0.000 A 
ATOM     34  I   UNL     1      61.520  70.208  54.593  0.00  0.00    +0.000 I 
ATOM     35  C   UNL     1      61.530  68.901  54.015  0.00  0.00    +0.000 A 
ATOM     36  C   UNL     1      61.725  68.100  54.061  0.00  0.00    +0.000 A 
ATOM     37  I   UNL     1      61.540  67.594  53.437  0.00  0.00    +0.000 I 
ATOM     38  C   UNL     1      61.793  58.952  50.016  0.00  0.00    +0.000 A 
ATOM     39  I   UNL     1      61.598  59.752  49.970  0.00  0.00    +0.000 I 
ENDROOT
TORSDOF 0
ENDMDL
MODEL 4
REMARK VINA RESULT:   -10.835      1.825      2.809
REMARK INTER + INTRA:         -10.835
REMARK INTER:                 -10.835
REMARK INTRA:                   0.000
REMARK UNBOUND:                 0.000
ROOT
REMARK  Name = iotroxic acid
REMARK                            x       y       z     vdW  Elec       q    Type
REMARK                         _______ _______ _______ _____ _____    ______ ____
ATOM      1  O   UNL     1      62.606  58.525  50.141  0.00  0.00    +0.000 OA
ATOM      2  C   UNL     1      62.534  59.220  50.581  0.00  0.00    +0.000 C 
ATOM      3  O   UNL     1      62.216  59.897  50.232  0.00  0.00    +0.000 OA
ATOM      4  C   UNL     1      62.779  59.237  51.369  0.00  0.00    +0.000 A 
ATOM      5  C   UNL     1      63.096  58.560  51.716  0.00  0.00    +0.000 A 
ATOM      6  I   UNL     1      63.169  57.865  51.278  0.00  0.00    +0.000 I 
ATOM      7  C   UNL     1      63.341  58.578  52.504  0.00  0.00    +0.000 A 
ATOM      8  C   UNL     1      63.269  59.272  52.944  0.00  0.00    +0.000 A 
ATOM      9  I   UNL     1      63.514  59.290  53.730  0.00  0.00    +0.000 I 
ATOM     10  C   UNL     1      62.951  59.950  52.595  0.00  0.00    +0.000 A 
ATOM     11  N   UNL     1      62.879  60.644  53.035  0.00  0.00    +0.000 NA
ATOM     12  C   UNL     1      62.561  61.321  52.686  0.00  0.00    +0.000 C 
ATOM     13  O   UNL     1      62.316  61.304  51.898  0.00  0.00    +0.000 OA
ATOM     14  C   UNL     1      62.489  62.015  53.126  0.00  0.00    +0.000 C 
ATOM     15  O   UNL     1      62.171  62.693  52.777  0.00  0.00    +0.000 OA
ATOM     16  C   UNL     1      62.098  63.387  53.216  0.00  0.00    +0.000 C 
ATOM     17  C   UNL     1      61.780  64.065  52.868  0.00  0.00    +0.000 C 
ATOM     18  O   UNL     1      61.708  64.759  53.307  0.00  0.00    +0.000 OA
ATOM     19  C   UNL     1      61.390  65.436  52.959  0.00  0.00    +0.000 C 
ATOM     20  C   UNL     1      61.318  66.130  53.398  0.00  0.00    +0.000 C 
ATOM     21  O   UNL     1      61.000  66.807  53.050  0.00  0.00    +0.000 OA
ATOM     22  C   UNL     1      60.928  67.502  53.489  0.00  0.00    +0.000 C 
ATOM     23  C   UNL     1      60.610  68.180  53.141  0.00  0.00    +0.000 C 
ATOM     24  O   UNL     1      60.365  68.162  52.353  0.00  0.00    +0.000 OA
ATOM     25  N   UNL     1      60.537  68.874  53.580  0.00  0.00    +0.000 NA
ATOM     26  C   UNL     1      60.220  69.550  53.231  0.00  0.00    +0.000 A 
ATOM     27  C   UNL     1      60.147  70.245  53.671  0.00  0.00    +0.000 A 
ATOM     28  I   UNL     1      60.392  70.263  54.458  0.00  0.00    +0.000 I 
ATOM     29  C   UNL     1      59.829  70.922  53.322  0.00  0.00    +0.000 A 
ATOM     30  C   UNL     1      59.757  71.617  53.762  0.00  0.00    +0.000 C 
ATOM     31  O   UNL     1      60.002  71.635  54.549  0.00  0.00    +0.000 OA
ATOM     32  O   UNL     1      59.439  72.294  53.413  0.00  0.00    +0.000 OA
ATOM     33  C   UNL     1      59.584  70.905  52.535  0.00  0.00    +0.000 A 
ATOM     34  I   UNL     1      59.267  71.582  52.187  0.00  0.00    +0.000 I 
ATOM     35  C   UNL     1      59.657  70.210  52.096  0.00  0.00    +0.000 A 
ATOM     36  C   UNL     1      59.975  69.533  52.444  0.00  0.00    +0.000 A 
ATOM     37  I   UNL     1      60.047  68.839  52.005  0.00  0.00    +0.000 I 
ATOM     38  C   UNL     1      62.706  59.932  51.807  0.00  0.00    +0.000 A 
ATOM     39  I   UNL     1      62.389  60.609  51.459  0.00  0.00    +0.000 I 
ENDROOT
TORSDOF 0
ENDMDL
MODEL 5
REMARK VINA RESULT:   -10.534      2.771     10.466
REMARK INTER + INTRA:         -10.534
REMARK INTER:                 -10.534
REMARK INTRA:                   0.000
REMARK UNBOUND:                 0.000
ROOT
REMARK  Name = iotroxic acid
REMARK                            x       y       z     vdW  Elec       q    Type
REMARK                         _______ _______ _______ _____ _____    ______ ____
ATOM      1  O   UNL     1      60.105  70.539  53.387  0.00  0.00    +0.000 OA
ATOM      2  C   UNL     1      60.423  69.778  53.371  0.00  0.00    +0.000 C 
ATOM      3  O   UNL     1      60.257  69.276  52.737  0.00  0.00    +0.000 OA
ATOM      4  C   UNL     1      60.906  69.519  53.987  0.00  0.00    +0.000 A 
ATOM      5  C   UNL     1      61.072  70.021  54.620  0.00  0.00    +0.000 A 
ATOM      6  I   UNL     1      60.754  70.783  54.637  0.00  0.00    +0.000 I 
ATOM      7  C   UNL     1      61.555  69.762  55.236  0.00  0.00    +0.000 A 
ATOM      8  C   UNL     1      61.873  69.001  55.220  0.00  0.00    +0.000 A 
ATOM      9  I   UNL     1      62.355  68.743  55.836  0.00  0.00    +0.000 I 
ATOM     10  C   UNL     1      61.707  68.499  54.586  0.00  0.00    +0.000 A 
ATOM     11  N   UNL     1      62.025  67.738  54.570  0.00  0.00    +0.000 NA
ATOM     12  C   UNL     1      61.859  67.235  53.936  0.00  0.00    +0.000 C 
ATOM     13  O   UNL     1      61.375  67.494  53.320  0.00  0.00    +0.000 OA
ATOM     14  C   UNL     1      62.177  66.474  53.920  0.00  0.00    +0.000 C 
ATOM     15  O   UNL     1      62.011  65.972  53.286  0.00  0.00    +0.000 OA
ATOM     16  C   UNL     1      62.328  65.211  53.270  0.00  0.00    +0.000 C 
ATOM     17  C   UNL     1      62.163  64.708  52.636  0.00  0.00    +0.000 C 
ATOM     18  O   UNL     1      62.480  63.947  52.620  0.00  0.00    +0.000 OA
ATOM     19  C   UNL     1      62.314  63.444  51.987  0.00  0.00    +0.000 C 
ATOM     20  C   UNL     1      62.632  62.683  51.970  0.00  0.00    +0.000 C 
ATOM     21  O   UNL     1      62.466  62.182  51.337  0.00  0.00    +0.000 OA
ATOM     22  C   UNL     1      62.784  61.420  51.320  0.00  0.00    +0.000 C 
ATOM     23  C   UNL     1      62.618  60.917  50.687  0.00  0.00    +0.000 C 
ATOM     24  O   UNL     1      62.135  61.176  50.070  0.00  0.00    +0.000 OA
ATOM     25  N   UNL     1      62.936  60.156  50.671  0.00  0.00    +0.000 NA
ATOM     26  C   UNL     1      62.770  59.655  50.037  0.00  0.00    +0.000 A 
ATOM     27  C   UNL     1      63.088  58.893  50.021  0.00  0.00    +0.000 A 
ATOM     28  I   UNL     1      63.571  58.634  50.636  0.00  0.00    +0.000 I 
ATOM     29  C   UNL     1      62.922  58.391  49.387  0.00  0.00    +0.000 A 
ATOM     30  C   UNL     1      63.240  57.629  49.371  0.00  0.00    +0.000 C 
ATOM     31  O   UNL     1      63.723  57.371  49.986  0.00  0.00    +0.000 OA
ATOM     32  O   UNL     1      63.074  57.128  48.737  0.00  0.00    +0.000 OA
ATOM     33  C   UNL     1      62.439  58.650  48.771  0.00  0.00    +0.000 A 
ATOM     34  I   UNL     1      62.273  58.147  48.138  0.00  0.00    +0.000 I 
ATOM     35  C   UNL     1      62.121  59.411  48.788  0.00  0.00    +0.000 A 
ATOM     36  C   UNL     1      62.287  59.914  49.421  0.00  0.00    +0.000 A 
ATOM     37  I   UNL     1      61.969  60.674  49.438  0.00  0.00    +0.000 I 
ATOM     38  C   UNL     1      61.223  68.758  53.970  0.00  0.00    +0.000 A 
ATOM     39  I   UNL     1      61.058  68.256  53.337  0.00  0.00    +0.000 I 
ENDROOT
TORSDOF 0
ENDMDL
MODEL 6
REMARK VINA RESULT:   -10.308     15.856     17.689
REMARK INTER + INTRA:         -10.308
REMARK INTER:                 -10.308
REMARK INTRA:                   0.000
REMARK UNBOUND:                 0.000
ROOT
REMARK  Name = iotroxic acid
REMARK                            x       y       z     vdW  Elec       q    Type
REMARK                         _______ _______ _______ _____ _____    ______ ____
ATOM      1  O   UNL     1      59.717  81.547  57.858  0.00  0.00    +0.000 OA
ATOM      2  C   UNL     1      60.527  81.562  57.702  0.00  0.00    +0.000 C 
ATOM      3  O   UNL     1      60.803  81.404  56.940  0.00  0.00    +0.000 OA
ATOM      4  C   UNL     1      61.060  81.735  58.307  0.00  0.00    +0.000 A 
ATOM      5  C   UNL     1      60.784  81.892  59.068  0.00  0.00    +0.000 A 
ATOM      6  I   UNL     1      59.974  81.878  59.225  0.00  0.00    +0.000 I 
ATOM      7  C   UNL     1      61.318  82.065  59.673  0.00  0.00    +0.000 A 
ATOM      8  C   UNL     1      62.128  82.080  59.517  0.00  0.00    +0.000 A 
ATOM      9  I   UNL     1      62.661  82.252  60.122  0.00  0.00    +0.000 I 
ATOM     10  C   UNL     1      62.404  81.922  58.755  0.00  0.00    +0.000 A 
ATOM     11  N   UNL     1      63.214  81.937  58.600  0.00  0.00    +0.000 NA
ATOM     12  C   UNL     1      63.490  81.779  57.838  0.00  0.00    +0.000 C 
ATOM     13  O   UNL     1      62.957  81.607  57.233  0.00  0.00    +0.000 OA
ATOM     14  C   UNL     1      64.300  81.794  57.682  0.00  0.00    +0.000 C 
ATOM     15  O   UNL     1      64.576  81.636  56.920  0.00  0.00    +0.000 OA
ATOM     16  C   UNL     1      65.386  81.651  56.765  0.00  0.00    +0.000 C 
ATOM     17  C   UNL     1      65.663  81.493  56.003  0.00  0.00    +0.000 C 
ATOM     18  O   UNL     1      66.472  81.508  55.847  0.00  0.00    +0.000 OA
ATOM     19  C   UNL     1      66.749  81.350  55.085  0.00  0.00    +0.000 C 
ATOM     20  C   UNL     1      67.559  81.365  54.930  0.00  0.00    +0.000 C 
ATOM     21  O   UNL     1      67.834  81.208  54.168  0.00  0.00    +0.000 OA
ATOM     22  C   UNL     1      68.645  81.222  54.012  0.00  0.00    +0.000 C 
ATOM     23  C   UNL     1      68.921  81.065  53.250  0.00  0.00    +0.000 C 
ATOM     24  O   UNL     1      68.387  80.892  52.645  0.00  0.00    +0.000 OA
ATOM     25  N   UNL     1      69.731  81.080  53.095  0.00  0.00    +0.000 NA
ATOM     26  C   UNL     1      70.006  80.922  52.333  0.00  0.00    +0.000 A 
ATOM     27  C   UNL     1      70.817  80.937  52.177  0.00  0.00    +0.000 A 
ATOM     28  I   UNL     1      71.350  81.109  52.781  0.00  0.00    +0.000 I 
ATOM     29  C   UNL     1      71.093  80.779  51.416  0.00  0.00    +0.000 A 
ATOM     30  C   UNL     1      71.903  80.794  51.259  0.00  0.00    +0.000 C 
ATOM     31  O   UNL     1      72.436  80.966  51.864  0.00  0.00    +0.000 OA
ATOM     32  O   UNL     1      72.179  80.636  50.498  0.00  0.00    +0.000 OA
ATOM     33  C   UNL     1      70.559  80.606  50.811  0.00  0.00    +0.000 A 
ATOM     34  I   UNL     1      70.836  80.449  50.050  0.00  0.00    +0.000 I 
ATOM     35  C   UNL     1      69.750  80.592  50.967  0.00  0.00    +0.000 A 
ATOM     36  C   UNL     1      69.473  80.749  51.728  0.00  0.00    +0.000 A 
ATOM     37  I   UNL     1      68.664  80.735  51.885  0.00  0.00    +0.000 I 
ATOM     38  C   UNL     1      61.870  81.749  58.150  0.00  0.00    +0.000 A 
ATOM     39  I   UNL     1      62.147  81.592  57.390  0.00  0.00    +0.000 I 
ENDROOT
TORSDOF 0
ENDMDL
MODEL 7
REMARK VINA RESULT:   -10.299      1.349     10.246
REMARK INTER + INTRA:         -10.299
REMARK INTER:                 -10.299
REMARK INTRA:                   0.000
REMARK UNBOUND:                 0.000
ROOT
REMARK  Name = iotroxic acid
REMARK                            x       y       z     vdW  Elec       q    Type
REMARK                         _______ _______ _______ _____ _____    ______ ____
ATOM      1  O   UNL     1      58.553  71.962  50.940  0.00  0.00    +0.000 OA
ATOM      2  C   UNL     1      58.895  71.303  51.299  0.00  0.00    +0.000 C 
ATOM      3  O   UNL     1      59.022  70.615  50.861  0.00  0.00    +0.000 OA
ATOM      4  C   UNL     1      59.109  71.331  52.096  0.00  0.00    +0.000 A 
ATOM      5  C   UNL     1      58.982  72.018  52.533  0.00  0.00    +0.000 A 
ATOM      6  I   UNL     1      58.640  72.679  52.174  0.00  0.00    +0.000 I 
ATOM      7  C   UNL     1      59.196  72.046  53.329  0.00  0.00    +0.000 A 
ATOM      8  C   UNL     1      59.537  71.387  53.688  0.00  0.00    +0.000 A 
ATOM      9  I   UNL     1      59.752  71.415  54.483  0.00  0.00    +0.000 I 
ATOM     10  C   UNL     1      59.665  70.699  53.250  0.00  0.00    +0.000 A 
ATOM     11  N   UNL     1      60.006  70.039  53.609  0.00  0.00    +0.000 NA
ATOM     12  C   UNL     1      60.133  69.351  53.171  0.00  0.00    +0.000 C 
ATOM     13  O   UNL     1      59.919  69.323  52.375  0.00  0.00    +0.000 OA
ATOM     14  C   UNL     1      60.475  68.692  53.531  0.00  0.00    +0.000 C 
ATOM     15  O   UNL     1      60.602  68.003  53.093  0.00  0.00    +0.000 OA
ATOM     16  C   UNL     1      60.944  67.344  53.452  0.00  0.00    +0.000 C 
ATOM     17  C   UNL     1      61.071  66.656  53.014  0.00  0.00    +0.000 C 
ATOM     18  O   UNL     1      61.412  65.996  53.373  0.00  0.00    +0.000 OA
ATOM     19  C   UNL     1      61.540  65.308  52.935  0.00  0.00    +0.000 C 
ATOM     20  C   UNL     1      61.881  64.649  53.294  0.00  0.00    +0.000 C 
ATOM     21  O   UNL     1      62.008  63.961  52.856  0.00  0.00    +0.000 OA
ATOM     22  C   UNL     1      62.350  63.301  53.215  0.00  0.00    +0.000 C 
ATOM     23  C   UNL     1      62.477  62.613  52.777  0.00  0.00    +0.000 C 
ATOM     24  O   UNL     1      62.263  62.585  51.981  0.00  0.00    +0.000 OA
ATOM     25  N   UNL     1      62.818  61.953  53.137  0.00  0.00    +0.000 NA
ATOM     26  C   UNL     1      62.945  61.266  52.699  0.00  0.00    +0.000 A 
ATOM     27  C   UNL     1      63.287  60.606  53.058  0.00  0.00    +0.000 A 
ATOM     28  I   UNL     1      63.501  60.634  53.853  0.00  0.00    +0.000 I 
ATOM     29  C   UNL     1      63.414  59.918  52.620  0.00  0.00    +0.000 A 
ATOM     30  C   UNL     1      63.756  59.258  52.979  0.00  0.00    +0.000 C 
ATOM     31  O   UNL     1      63.970  59.286  53.774  0.00  0.00    +0.000 OA
ATOM     32  O   UNL     1      63.883  58.571  52.541  0.00  0.00    +0.000 OA
ATOM     33  C   UNL     1      63.200  59.890  51.824  0.00  0.00    +0.000 A 
ATOM     34  I   UNL     1      63.327  59.202  51.387  0.00  0.00    +0.000 I 
ATOM     35  C   UNL     1      62.858  60.550  51.466  0.00  0.00    +0.000 A 
ATOM     36  C   UNL     1      62.731  61.238  51.903  0.00  0.00    +0.000 A 
ATOM     37  I   UNL     1      62.390  61.897  51.544  0.00  0.00    +0.000 I 
ATOM     38  C   UNL     1      59.450  70.671  52.454  0.00  0.00    +0.000 A 
ATOM     39  I   UNL     1      59.578  69.983  52.017  0.00  0.00    +0.000 I 
ENDROOT
TORSDOF 0
ENDMDL
MODEL 8
REMARK VINA RESULT:    -9.818     16.361     16.805
REMARK INTER + INTRA:          -9.818
REMARK INTER:                  -9.818
REMARK INTRA:                   0.000
REMARK UNBOUND:                 0.000
ROOT
REMARK  Name = iotroxic acid
REMARK                            x       y       z     vdW  Elec       q    Type
REMARK                         _______ _______ _______ _____ _____    ______ ____
ATOM      1  O   UNL     1      72.978  81.159  54.114  0.00  0.00    +0.000 OA
ATOM      2  C   UNL     1      72.157  81.217  54.174  0.00  0.00    +0.000 C 
ATOM      3  O   UNL     1      71.802  81.266  54.918  0.00  0.00    +0.000 OA
ATOM      4  C   UNL     1      71.692  81.227  53.493  0.00  0.00    +0.000 A 
ATOM      5  C   UNL     1      72.048  81.179  52.751  0.00  0.00    +0.000 A 
ATOM      6  I   UNL     1      72.869  81.121  52.689  0.00  0.00    +0.000 I 
ATOM      7  C   UNL     1      71.583  81.189  52.070  0.00  0.00    +0.000 A 
ATOM      8  C   UNL     1      70.762  81.247  52.130  0.00  0.00    +0.000 A 
ATOM      9  I   UNL     1      70.298  81.257  51.450  0.00  0.00    +0.000 I 
ATOM     10  C   UNL     1      70.406  81.295  52.874  0.00  0.00    +0.000 A 
ATOM     11  N   UNL     1      69.586  81.353  52.935  0.00  0.00    +0.000 NA
ATOM     12  C   UNL     1      69.230  81.402  53.678  0.00  0.00    +0.000 C 
ATOM     13  O   UNL     1      69.695  81.392  54.360  0.00  0.00    +0.000 OA
ATOM     14  C   UNL     1      68.410  81.460  53.739  0.00  0.00    +0.000 C 
ATOM     15  O   UNL     1      68.054  81.508  54.483  0.00  0.00    +0.000 OA
ATOM     16  C   UNL     1      67.233  81.566  54.543  0.00  0.00    +0.000 C 
ATOM     17  C   UNL     1      66.878  81.614  55.287  0.00  0.00    +0.000 C 
ATOM     18  O   UNL     1      66.057  81.672  55.348  0.00  0.00    +0.000 OA
ATOM     19  C   UNL     1      65.701  81.721  56.091  0.00  0.00    +0.000 C 
ATOM     20  C   UNL     1      64.881  81.779  56.152  0.00  0.00    +0.000 C 
ATOM     21  O   UNL     1      64.526  81.827  56.895  0.00  0.00    +0.000 OA
ATOM     22  C   UNL     1      63.704  81.885  56.957  0.00  0.00    +0.000 C 
ATOM     23  C   UNL     1      63.349  81.933  57.700  0.00  0.00    +0.000 C 
ATOM     24  O   UNL     1      63.814  81.923  58.382  0.00  0.00    +0.000 OA
ATOM     25  N   UNL     1      62.528  81.991  57.761  0.00  0.00    +0.000 NA
ATOM     26  C   UNL     1      62.173  82.039  58.504  0.00  0.00    +0.000 A 
ATOM     27  C   UNL     1      61.352  82.098  58.565  0.00  0.00    +0.000 A 
ATOM     28  I   UNL     1      60.887  82.108  57.885  0.00  0.00    +0.000 I 
ATOM     29  C   UNL     1      60.997  82.146  59.308  0.00  0.00    +0.000 A 
ATOM     30  C   UNL     1      60.175  82.204  59.370  0.00  0.00    +0.000 C 
ATOM     31  O   UNL     1      59.711  82.214  58.689  0.00  0.00    +0.000 OA
ATOM     32  O   UNL     1      59.821  82.252  60.113  0.00  0.00    +0.000 OA
ATOM     33  C   UNL     1      61.462  82.136  59.990  0.00  0.00    +0.000 A 
ATOM     34  I   UNL     1      61.106  82.184  60.733  0.00  0.00    +0.000 I 
ATOM     35  C   UNL     1      62.282  82.078  59.928  0.00  0.00    +0.000 A 
ATOM     36  C   UNL     1      62.638  82.030  59.185  0.00  0.00    +0.000 A 
ATOM     37  I   UNL     1      63.458  81.971  59.124  0.00  0.00    +0.000 I 
ATOM     38  C   UNL     1      70.872  81.285  53.555  0.00  0.00    +0.000 A 
ATOM     39  I   UNL     1      70.516  81.334  54.297  0.00  0.00    +0.000 I 
ENDROOT
TORSDOF 0
ENDMDL
MODEL 9
REMARK VINA RESULT:    -9.390      2.876      3.238
REMARK INTER + INTRA:          -9.390
REMARK INTER:                  -9.390
REMARK INTRA:                   0.000
REMARK UNBOUND:                 0.000
ROOT
REMARK  Name = iotroxic acid
REMARK                            x       y       z     vdW  Elec       q    Type
REMARK                         _______ _______ _______ _____ _____    ______ ____
ATOM      1  O   UNL     1      61.594  59.187  52.609  0.00  0.00    +0.000 OA
ATOM      2  C   UNL     1      61.643  60.006  52.526  0.00  0.00    +0.000 C 
ATOM      3  O   UNL     1      61.044  60.417  52.135  0.00  0.00    +0.000 OA
ATOM      4  C   UNL     1      62.291  60.414  52.833  0.00  0.00    +0.000 A 
ATOM      5  C   UNL     1      62.890  60.003  53.223  0.00  0.00    +0.000 A 
ATOM      6  I   UNL     1      62.842  59.183  53.307  0.00  0.00    +0.000 I 
ATOM      7  C   UNL     1      63.538  60.411  53.530  0.00  0.00    +0.000 A 
ATOM      8  C   UNL     1      63.587  61.230  53.447  0.00  0.00    +0.000 A 
ATOM      9  I   UNL     1      64.234  61.638  53.754  0.00  0.00    +0.000 I 
ATOM     10  C   UNL     1      62.987  61.642  53.056  0.00  0.00    +0.000 A 
ATOM     11  N   UNL     1      63.037  62.461  52.973  0.00  0.00    +0.000 NA
ATOM     12  C   UNL     1      62.437  62.872  52.582  0.00  0.00    +0.000 C 
ATOM     13  O   UNL     1      61.789  62.464  52.275  0.00  0.00    +0.000 OA
ATOM     14  C   UNL     1      62.486  63.691  52.499  0.00  0.00    +0.000 C 
ATOM     15  O   UNL     1      61.887  64.103  52.108  0.00  0.00    +0.000 OA
ATOM     16  C   UNL     1      61.936  64.922  52.025  0.00  0.00    +0.000 C 
ATOM     17  C   UNL     1      61.336  65.333  51.634  0.00  0.00    +0.000 C 
ATOM     18  O   UNL     1      61.386  66.152  51.551  0.00  0.00    +0.000 OA
ATOM     19  C   UNL     1      60.786  66.564  51.160  0.00  0.00    +0.000 C 
ATOM     20  C   UNL     1      60.835  67.383  51.076  0.00  0.00    +0.000 C 
ATOM     21  O   UNL     1      60.236  67.794  50.686  0.00  0.00    +0.000 OA
ATOM     22  C   UNL     1      60.285  68.614  50.602  0.00  0.00    +0.000 C 
ATOM     23  C   UNL     1      59.685  69.025  50.211  0.00  0.00    +0.000 C 
ATOM     24  O   UNL     1      59.038  68.617  49.904  0.00  0.00    +0.000 OA
ATOM     25  N   UNL     1      59.735  69.844  50.128  0.00  0.00    +0.000 NA
ATOM     26  C   UNL     1      59.135  70.255  49.738  0.00  0.00    +0.000 A 
ATOM     27  C   UNL     1      59.184  71.075  49.654  0.00  0.00    +0.000 A 
ATOM     28  I   UNL     1      59.832  71.482  49.961  0.00  0.00    +0.000 I 
ATOM     29  C   UNL     1      58.585  71.485  49.263  0.00  0.00    +0.000 A 
ATOM     30  C   UNL     1      58.634  72.305  49.180  0.00  0.00    +0.000 C 
ATOM     31  O   UNL     1      59.281  72.713  49.487  0.00  0.00    +0.000 OA
ATOM     32  O   UNL     1      58.035  72.716  48.789  0.00  0.00    +0.000 OA
ATOM     33  C   UNL     1      57.937  71.077  48.956  0.00  0.00    +0.000 A 
ATOM     34  I   UNL     1      57.338  71.489  48.566  0.00  0.00    +0.000 I 
ATOM     35  C   UNL     1      57.889  70.259  49.040  0.00  0.00    +0.000 A 
ATOM     36  C   UNL     1      58.488  69.847  49.430  0.00  0.00    +0.000 A 
ATOM     37  I   UNL     1      58.439  69.028  49.514  0.00  0.00    +0.000 I 
ATOM     38  C   UNL     1      62.339  61.233  52.749  0.00  0.00    +0.000 A 
ATOM     39  I   UNL     1      61.741  61.645  52.359  0.00  0.00    +0.000 I 
ENDROOT
TORSDOF 0
ENDMDL
