MODEL 1
REMARK VINA RESULT:   -13.661      0.000      0.000
REMARK INTER + INTRA:         -13.661
REMARK INTER:                 -13.661
REMARK INTRA:                   0.000
REMARK UNBOUND:                 0.000
ROOT
REMARK  Name = ioxaglic acid
REMARK                            x       y       z     vdW  Elec       q    Type
REMARK                         _______ _______ _______ _____ _____    ______ ____
ATOM      1  C   UNL     1      61.864  70.627  55.217  0.00  0.00    +0.000 C 
ATOM      2  N   UNL     1      61.727  69.967  54.742  0.00  0.00    +0.000 NA
ATOM      3  C   UNL     1      62.067  69.241  54.938  0.00  0.00    +0.000 C 
ATOM      4  O   UNL     1      62.543  69.176  55.607  0.00  0.00    +0.000 OA
ATOM      5  C   UNL     1      61.930  68.580  54.462  0.00  0.00    +0.000 A 
ATOM      6  C   UNL     1      62.270  67.853  54.658  0.00  0.00    +0.000 A 
ATOM      7  I   UNL     1      62.746  67.788  55.328  0.00  0.00    +0.000 I 
ATOM      8  C   UNL     1      62.133  67.193  54.183  0.00  0.00    +0.000 A 
ATOM      9  C   UNL     1      62.473  66.468  54.379  0.00  0.00    +0.000 C 
ATOM     10  O   UNL     1      62.949  66.403  55.049  0.00  0.00    +0.000 OA
ATOM     11  N   UNL     1      62.336  65.807  53.904  0.00  0.00    +0.000 NA
ATOM     12  C   UNL     1      62.675  65.081  54.100  0.00  0.00    +0.000 C 
ATOM     13  C   UNL     1      62.538  64.420  53.625  0.00  0.00    +0.000 C 
ATOM     14  O   UNL     1      62.062  64.485  52.954  0.00  0.00    +0.000 OA
ATOM     15  N   UNL     1      62.878  63.694  53.821  0.00  0.00    +0.000 NA
ATOM     16  C   UNL     1      62.741  63.033  53.345  0.00  0.00    +0.000 A 
ATOM     17  C   UNL     1      63.081  62.308  53.541  0.00  0.00    +0.000 A 
ATOM     18  I   UNL     1      63.557  62.242  54.211  0.00  0.00    +0.000 I 
ATOM     19  C   UNL     1      62.944  61.647  53.066  0.00  0.00    +0.000 A 
ATOM     20  C   UNL     1      63.284  60.921  53.262  0.00  0.00    +0.000 C 
ATOM     21  O   UNL     1      63.760  60.856  53.931  0.00  0.00    +0.000 OA
ATOM     22  N   UNL     1      63.147  60.260  52.787  0.00  0.00    +0.000 NA
ATOM     23  C   UNL     1      63.486  59.534  52.983  0.00  0.00    +0.000 C 
ATOM     24  C   UNL     1      63.349  58.873  52.507  0.00  0.00    +0.000 C 
ATOM     25  O   UNL     1      63.689  58.148  52.703  0.00  0.00    +0.000 OA
ATOM     26  C   UNL     1      62.467  61.712  52.396  0.00  0.00    +0.000 A 
ATOM     27  I   UNL     1      62.331  61.052  51.921  0.00  0.00    +0.000 I 
ATOM     28  C   UNL     1      62.128  62.438  52.201  0.00  0.00    +0.000 A 
ATOM     29  C   UNL     1      61.651  62.504  51.530  0.00  0.00    +0.000 C 
ATOM     30  O   UNL     1      61.312  63.229  51.334  0.00  0.00    +0.000 OA
ATOM     31  O   UNL     1      61.514  61.842  51.055  0.00  0.00    +0.000 OA
ATOM     32  C   UNL     1      62.265  63.099  52.675  0.00  0.00    +0.000 A 
ATOM     33  I   UNL     1      61.925  63.825  52.480  0.00  0.00    +0.000 I 
ATOM     34  C   UNL     1      61.656  67.259  53.513  0.00  0.00    +0.000 A 
ATOM     35  I   UNL     1      61.520  66.598  53.039  0.00  0.00    +0.000 I 
ATOM     36  C   UNL     1      61.317  67.984  53.318  0.00  0.00    +0.000 A 
ATOM     37  N   UNL     1      60.840  68.050  52.646  0.00  0.00    +0.000 N 
ATOM     38  C   UNL     1      60.500  68.776  52.451  0.00  0.00    +0.000 C 
ATOM     39  C   UNL     1      60.703  67.389  52.172  0.00  0.00    +0.000 C 
ATOM     40  C   UNL     1      61.043  66.664  52.367  0.00  0.00    +0.000 C 
ATOM     41  O   UNL     1      60.227  67.455  51.502  0.00  0.00    +0.000 OA
ATOM     42  C   UNL     1      61.453  68.645  53.792  0.00  0.00    +0.000 A 
ATOM     43  I   UNL     1      61.114  69.372  53.597  0.00  0.00    +0.000 I 
ENDROOT
TORSDOF 0
ENDMDL
MODEL 2
REMARK VINA RESULT:   -13.459      0.977      6.878
REMARK INTER + INTRA:         -13.459
REMARK INTER:                 -13.459
REMARK INTRA:                   0.000
REMARK UNBOUND:                 0.000
ROOT
REMARK  Name = ioxaglic acid
REMARK                            x       y       z     vdW  Elec       q    Type
REMARK                         _______ _______ _______ _____ _____    ______ ____
ATOM      1  C   UNL     1      63.508  58.434  52.970  0.00  0.00    +0.000 C 
ATOM      2  N   UNL     1      63.151  59.156  52.791  0.00  0.00    +0.000 NA
ATOM      3  C   UNL     1      63.351  59.831  53.221  0.00  0.00    +0.000 C 
ATOM      4  O   UNL     1      63.907  59.784  53.828  0.00  0.00    +0.000 OA
ATOM      5  C   UNL     1      62.995  60.554  53.042  0.00  0.00    +0.000 A 
ATOM      6  C   UNL     1      63.195  61.230  53.472  0.00  0.00    +0.000 A 
ATOM      7  I   UNL     1      63.750  61.183  54.079  0.00  0.00    +0.000 I 
ATOM      8  C   UNL     1      62.839  61.952  53.293  0.00  0.00    +0.000 A 
ATOM      9  C   UNL     1      63.039  62.627  53.722  0.00  0.00    +0.000 C 
ATOM     10  O   UNL     1      63.594  62.580  54.329  0.00  0.00    +0.000 OA
ATOM     11  N   UNL     1      62.683  63.350  53.544  0.00  0.00    +0.000 NA
ATOM     12  C   UNL     1      62.883  64.025  53.973  0.00  0.00    +0.000 C 
ATOM     13  C   UNL     1      62.526  64.748  53.794  0.00  0.00    +0.000 C 
ATOM     14  O   UNL     1      61.971  64.795  53.186  0.00  0.00    +0.000 OA
ATOM     15  N   UNL     1      62.727  65.423  54.224  0.00  0.00    +0.000 NA
ATOM     16  C   UNL     1      62.370  66.147  54.045  0.00  0.00    +0.000 A 
ATOM     17  C   UNL     1      62.571  66.822  54.475  0.00  0.00    +0.000 A 
ATOM     18  I   UNL     1      63.126  66.775  55.082  0.00  0.00    +0.000 I 
ATOM     19  C   UNL     1      62.214  67.545  54.296  0.00  0.00    +0.000 A 
ATOM     20  C   UNL     1      62.414  68.220  54.725  0.00  0.00    +0.000 C 
ATOM     21  O   UNL     1      62.970  68.173  55.332  0.00  0.00    +0.000 OA
ATOM     22  N   UNL     1      62.058  68.943  54.546  0.00  0.00    +0.000 NA
ATOM     23  C   UNL     1      62.258  69.618  54.976  0.00  0.00    +0.000 C 
ATOM     24  C   UNL     1      61.902  70.341  54.797  0.00  0.00    +0.000 C 
ATOM     25  O   UNL     1      62.102  71.016  55.227  0.00  0.00    +0.000 OA
ATOM     26  C   UNL     1      61.658  67.592  53.688  0.00  0.00    +0.000 A 
ATOM     27  I   UNL     1      61.303  68.314  53.510  0.00  0.00    +0.000 I 
ATOM     28  C   UNL     1      61.459  66.915  53.259  0.00  0.00    +0.000 A 
ATOM     29  C   UNL     1      60.902  66.962  52.650  0.00  0.00    +0.000 C 
ATOM     30  O   UNL     1      60.703  66.287  52.222  0.00  0.00    +0.000 OA
ATOM     31  O   UNL     1      60.547  67.685  52.472  0.00  0.00    +0.000 OA
ATOM     32  C   UNL     1      61.814  66.193  53.437  0.00  0.00    +0.000 A 
ATOM     33  I   UNL     1      61.615  65.517  53.008  0.00  0.00    +0.000 I 
ATOM     34  C   UNL     1      62.283  61.999  52.685  0.00  0.00    +0.000 A 
ATOM     35  I   UNL     1      61.927  62.721  52.507  0.00  0.00    +0.000 I 
ATOM     36  C   UNL     1      62.083  61.324  52.256  0.00  0.00    +0.000 A 
ATOM     37  N   UNL     1      61.527  61.371  51.648  0.00  0.00    +0.000 N 
ATOM     38  C   UNL     1      61.327  60.695  51.219  0.00  0.00    +0.000 C 
ATOM     39  C   UNL     1      61.171  62.093  51.469  0.00  0.00    +0.000 C 
ATOM     40  C   UNL     1      61.371  62.768  51.898  0.00  0.00    +0.000 C 
ATOM     41  O   UNL     1      60.615  62.140  50.862  0.00  0.00    +0.000 OA
ATOM     42  C   UNL     1      62.439  60.601  52.434  0.00  0.00    +0.000 A 
ATOM     43  I   UNL     1      62.240  59.925  52.005  0.00  0.00    +0.000 I 
ENDROOT
TORSDOF 0
ENDMDL
MODEL 3
REMARK VINA RESULT:   -13.374      1.180      2.380
REMARK INTER + INTRA:         -13.374
REMARK INTER:                 -13.374
REMARK INTRA:                   0.000
REMARK UNBOUND:                 0.000
ROOT
REMARK  Name = ioxaglic acid
REMARK                            x       y       z     vdW  Elec       q    Type
REMARK                         _______ _______ _______ _____ _____    ______ ____
ATOM      1  C   UNL     1      60.241  70.635  53.317  0.00  0.00    +0.000 C 
ATOM      2  N   UNL     1      60.647  69.959  53.556  0.00  0.00    +0.000 NA
ATOM      3  C   UNL     1      60.608  69.273  53.099  0.00  0.00    +0.000 C 
ATOM      4  O   UNL     1      60.163  69.264  52.405  0.00  0.00    +0.000 OA
ATOM      5  C   UNL     1      61.015  68.595  53.337  0.00  0.00    +0.000 A 
ATOM      6  C   UNL     1      60.976  67.909  52.880  0.00  0.00    +0.000 A 
ATOM      7  I   UNL     1      60.531  67.900  52.186  0.00  0.00    +0.000 I 
ATOM      8  C   UNL     1      61.383  67.232  53.118  0.00  0.00    +0.000 A 
ATOM      9  C   UNL     1      61.343  66.546  52.661  0.00  0.00    +0.000 C 
ATOM     10  O   UNL     1      60.899  66.537  51.967  0.00  0.00    +0.000 OA
ATOM     11  N   UNL     1      61.750  65.868  52.899  0.00  0.00    +0.000 NA
ATOM     12  C   UNL     1      61.711  65.183  52.442  0.00  0.00    +0.000 C 
ATOM     13  C   UNL     1      62.118  64.505  52.681  0.00  0.00    +0.000 C 
ATOM     14  O   UNL     1      62.563  64.513  53.375  0.00  0.00    +0.000 OA
ATOM     15  N   UNL     1      62.078  63.819  52.224  0.00  0.00    +0.000 NA
ATOM     16  C   UNL     1      62.485  63.141  52.462  0.00  0.00    +0.000 A 
ATOM     17  C   UNL     1      62.446  62.456  52.005  0.00  0.00    +0.000 A 
ATOM     18  I   UNL     1      62.001  62.447  51.311  0.00  0.00    +0.000 I 
ATOM     19  C   UNL     1      62.853  61.778  52.243  0.00  0.00    +0.000 A 
ATOM     20  C   UNL     1      62.814  61.092  51.786  0.00  0.00    +0.000 C 
ATOM     21  O   UNL     1      62.369  61.083  51.093  0.00  0.00    +0.000 OA
ATOM     22  N   UNL     1      63.220  60.414  52.025  0.00  0.00    +0.000 NA
ATOM     23  C   UNL     1      63.181  59.729  51.568  0.00  0.00    +0.000 C 
ATOM     24  C   UNL     1      63.588  59.051  51.806  0.00  0.00    +0.000 C 
ATOM     25  O   UNL     1      63.549  58.365  51.349  0.00  0.00    +0.000 OA
ATOM     26  C   UNL     1      63.298  61.786  52.938  0.00  0.00    +0.000 A 
ATOM     27  I   UNL     1      63.704  61.109  53.175  0.00  0.00    +0.000 I 
ATOM     28  C   UNL     1      63.336  62.473  53.394  0.00  0.00    +0.000 A 
ATOM     29  C   UNL     1      63.782  62.481  54.089  0.00  0.00    +0.000 C 
ATOM     30  O   UNL     1      63.821  63.167  54.546  0.00  0.00    +0.000 OA
ATOM     31  O   UNL     1      64.188  61.803  54.327  0.00  0.00    +0.000 OA
ATOM     32  C   UNL     1      62.930  63.150  53.156  0.00  0.00    +0.000 A 
ATOM     33  I   UNL     1      62.969  63.836  53.613  0.00  0.00    +0.000 I 
ATOM     34  C   UNL     1      61.828  67.240  53.813  0.00  0.00    +0.000 A 
ATOM     35  I   UNL     1      62.234  66.563  54.050  0.00  0.00    +0.000 I 
ATOM     36  C   UNL     1      61.866  67.926  54.269  0.00  0.00    +0.000 A 
ATOM     37  N   UNL     1      62.312  67.934  54.964  0.00  0.00    +0.000 N 
ATOM     38  C   UNL     1      62.350  68.621  55.420  0.00  0.00    +0.000 C 
ATOM     39  C   UNL     1      62.718  67.257  55.202  0.00  0.00    +0.000 C 
ATOM     40  C   UNL     1      62.679  66.572  54.746  0.00  0.00    +0.000 C 
ATOM     41  O   UNL     1      63.163  67.266  55.896  0.00  0.00    +0.000 OA
ATOM     42  C   UNL     1      61.460  68.604  54.031  0.00  0.00    +0.000 A 
ATOM     43  I   UNL     1      61.499  69.290  54.488  0.00  0.00    +0.000 I 
ENDROOT
TORSDOF 0
ENDMDL
MODEL 4
REMARK VINA RESULT:   -13.024      1.477      7.228
REMARK INTER + INTRA:         -13.024
REMARK INTER:                 -13.024
REMARK INTRA:                   0.000
REMARK UNBOUND:                 0.000
ROOT
REMARK  Name = ioxaglic acid
REMARK                            x       y       z     vdW  Elec       q    Type
REMARK                         _______ _______ _______ _____ _____    ______ ____
ATOM      1  C   UNL     1      63.426  59.754  50.141  0.00  0.00    +0.000 C 
ATOM      2  N   UNL     1      63.456  60.326  50.734  0.00  0.00    +0.000 NA
ATOM      3  C   UNL     1      63.072  61.049  50.629  0.00  0.00    +0.000 C 
ATOM      4  O   UNL     1      62.660  61.198  49.931  0.00  0.00    +0.000 OA
ATOM      5  C   UNL     1      63.101  61.622  51.222  0.00  0.00    +0.000 A 
ATOM      6  C   UNL     1      62.717  62.345  51.117  0.00  0.00    +0.000 A 
ATOM      7  I   UNL     1      62.304  62.495  50.419  0.00  0.00    +0.000 I 
ATOM      8  C   UNL     1      62.746  62.917  51.710  0.00  0.00    +0.000 A 
ATOM      9  C   UNL     1      62.362  63.639  51.604  0.00  0.00    +0.000 C 
ATOM     10  O   UNL     1      61.950  63.789  50.907  0.00  0.00    +0.000 OA
ATOM     11  N   UNL     1      62.391  64.213  52.198  0.00  0.00    +0.000 NA
ATOM     12  C   UNL     1      62.007  64.935  52.092  0.00  0.00    +0.000 C 
ATOM     13  C   UNL     1      62.036  65.508  52.686  0.00  0.00    +0.000 C 
ATOM     14  O   UNL     1      62.449  65.358  53.384  0.00  0.00    +0.000 OA
ATOM     15  N   UNL     1      61.652  66.230  52.580  0.00  0.00    +0.000 NA
ATOM     16  C   UNL     1      61.681  66.803  53.174  0.00  0.00    +0.000 A 
ATOM     17  C   UNL     1      61.297  67.526  53.068  0.00  0.00    +0.000 A 
ATOM     18  I   UNL     1      60.885  67.676  52.370  0.00  0.00    +0.000 I 
ATOM     19  C   UNL     1      61.326  68.099  53.661  0.00  0.00    +0.000 A 
ATOM     20  C   UNL     1      60.942  68.821  53.556  0.00  0.00    +0.000 C 
ATOM     21  O   UNL     1      60.530  68.971  52.858  0.00  0.00    +0.000 OA
ATOM     22  N   UNL     1      60.971  69.394  54.149  0.00  0.00    +0.000 NA
ATOM     23  C   UNL     1      60.587  70.117  54.043  0.00  0.00    +0.000 C 
ATOM     24  C   UNL     1      60.616  70.690  54.637  0.00  0.00    +0.000 C 
ATOM     25  O   UNL     1      60.232  71.412  54.531  0.00  0.00    +0.000 OA
ATOM     26  C   UNL     1      61.739  67.949  54.360  0.00  0.00    +0.000 A 
ATOM     27  I   UNL     1      61.768  68.521  54.952  0.00  0.00    +0.000 I 
ATOM     28  C   UNL     1      62.123  67.226  54.465  0.00  0.00    +0.000 A 
ATOM     29  C   UNL     1      62.536  67.076  55.164  0.00  0.00    +0.000 C 
ATOM     30  O   UNL     1      62.919  66.354  55.269  0.00  0.00    +0.000 OA
ATOM     31  O   UNL     1      62.564  67.649  55.757  0.00  0.00    +0.000 OA
ATOM     32  C   UNL     1      62.094  66.653  53.872  0.00  0.00    +0.000 A 
ATOM     33  I   UNL     1      62.477  65.930  53.977  0.00  0.00    +0.000 I 
ATOM     34  C   UNL     1      63.159  62.767  52.409  0.00  0.00    +0.000 A 
ATOM     35  I   UNL     1      63.187  63.340  53.001  0.00  0.00    +0.000 I 
ATOM     36  C   UNL     1      63.542  62.045  52.514  0.00  0.00    +0.000 A 
ATOM     37  N   UNL     1      63.955  61.895  53.213  0.00  0.00    +0.000 N 
ATOM     38  C   UNL     1      64.339  61.172  53.318  0.00  0.00    +0.000 C 
ATOM     39  C   UNL     1      63.984  62.467  53.805  0.00  0.00    +0.000 C 
ATOM     40  C   UNL     1      63.601  63.189  53.700  0.00  0.00    +0.000 C 
ATOM     41  O   UNL     1      64.397  62.317  54.504  0.00  0.00    +0.000 OA
ATOM     42  C   UNL     1      63.513  61.472  51.921  0.00  0.00    +0.000 A 
ATOM     43  I   UNL     1      63.897  60.749  52.025  0.00  0.00    +0.000 I 
ENDROOT
TORSDOF 0
ENDMDL
MODEL 5
REMARK VINA RESULT:   -12.763      1.570      7.544
REMARK INTER + INTRA:         -12.763
REMARK INTER:                 -12.763
REMARK INTRA:                   0.000
REMARK UNBOUND:                 0.000
ROOT
REMARK  Name = ioxaglic acid
REMARK                            x       y       z     vdW  Elec       q    Type
REMARK                         _______ _______ _______ _____ _____    ______ ____
ATOM      1  C   UNL     1      63.501  57.587  50.007  0.00  0.00    +0.000 C 
ATOM      2  N   UNL     1      63.417  58.169  50.585  0.00  0.00    +0.000 NA
ATOM      3  C   UNL     1      63.183  58.931  50.371  0.00  0.00    +0.000 C 
ATOM      4  O   UNL     1      63.033  59.110  49.581  0.00  0.00    +0.000 OA
ATOM      5  C   UNL     1      63.099  59.514  50.949  0.00  0.00    +0.000 A 
ATOM      6  C   UNL     1      62.865  60.276  50.736  0.00  0.00    +0.000 A 
ATOM      7  I   UNL     1      62.715  60.455  49.945  0.00  0.00    +0.000 I 
ATOM      8  C   UNL     1      62.781  60.859  51.314  0.00  0.00    +0.000 A 
ATOM      9  C   UNL     1      62.547  61.620  51.100  0.00  0.00    +0.000 C 
ATOM     10  O   UNL     1      62.397  61.799  50.310  0.00  0.00    +0.000 OA
ATOM     11  N   UNL     1      62.463  62.203  51.678  0.00  0.00    +0.000 NA
ATOM     12  C   UNL     1      62.229  62.965  51.464  0.00  0.00    +0.000 C 
ATOM     13  C   UNL     1      62.145  63.548  52.043  0.00  0.00    +0.000 C 
ATOM     14  O   UNL     1      62.295  63.369  52.834  0.00  0.00    +0.000 OA
ATOM     15  N   UNL     1      61.911  64.309  51.829  0.00  0.00    +0.000 NA
ATOM     16  C   UNL     1      61.827  64.893  52.407  0.00  0.00    +0.000 A 
ATOM     17  C   UNL     1      61.593  65.654  52.193  0.00  0.00    +0.000 A 
ATOM     18  I   UNL     1      61.443  65.833  51.403  0.00  0.00    +0.000 I 
ATOM     19  C   UNL     1      61.509  66.237  52.772  0.00  0.00    +0.000 A 
ATOM     20  C   UNL     1      61.275  66.999  52.558  0.00  0.00    +0.000 C 
ATOM     21  O   UNL     1      61.125  67.177  51.767  0.00  0.00    +0.000 OA
ATOM     22  N   UNL     1      61.191  67.582  53.136  0.00  0.00    +0.000 NA
ATOM     23  C   UNL     1      60.957  68.343  52.922  0.00  0.00    +0.000 C 
ATOM     24  C   UNL     1      60.873  68.926  53.500  0.00  0.00    +0.000 C 
ATOM     25  O   UNL     1      60.639  69.688  53.286  0.00  0.00    +0.000 OA
ATOM     26  C   UNL     1      61.659  66.058  53.563  0.00  0.00    +0.000 A 
ATOM     27  I   UNL     1      61.575  66.641  54.140  0.00  0.00    +0.000 I 
ATOM     28  C   UNL     1      61.893  65.296  53.776  0.00  0.00    +0.000 A 
ATOM     29  C   UNL     1      62.043  65.117  54.568  0.00  0.00    +0.000 C 
ATOM     30  O   UNL     1      62.277  64.356  54.781  0.00  0.00    +0.000 OA
ATOM     31  O   UNL     1      61.959  65.700  55.145  0.00  0.00    +0.000 OA
ATOM     32  C   UNL     1      61.977  64.714  53.198  0.00  0.00    +0.000 A 
ATOM     33  I   UNL     1      62.211  63.951  53.411  0.00  0.00    +0.000 I 
ATOM     34  C   UNL     1      62.931  60.680  52.105  0.00  0.00    +0.000 A 
ATOM     35  I   UNL     1      62.847  61.262  52.682  0.00  0.00    +0.000 I 
ATOM     36  C   UNL     1      63.165  59.919  52.318  0.00  0.00    +0.000 A 
ATOM     37  N   UNL     1      63.316  59.739  53.110  0.00  0.00    +0.000 N 
ATOM     38  C   UNL     1      63.550  58.977  53.323  0.00  0.00    +0.000 C 
ATOM     39  C   UNL     1      63.232  60.322  53.688  0.00  0.00    +0.000 C 
ATOM     40  C   UNL     1      62.998  61.083  53.475  0.00  0.00    +0.000 C 
ATOM     41  O   UNL     1      63.382  60.143  54.479  0.00  0.00    +0.000 OA
ATOM     42  C   UNL     1      63.249  59.335  51.741  0.00  0.00    +0.000 A 
ATOM     43  I   UNL     1      63.484  58.573  51.954  0.00  0.00    +0.000 I 
ENDROOT
TORSDOF 0
ENDMDL
MODEL 6
REMARK VINA RESULT:   -11.953      1.679      2.960
REMARK INTER + INTRA:         -11.953
REMARK INTER:                 -11.953
REMARK INTRA:                   0.000
REMARK UNBOUND:                 0.000
ROOT
REMARK  Name = ioxaglic acid
REMARK                            x       y       z     vdW  Elec       q    Type
REMARK                         _______ _______ _______ _____ _____    ______ ____
ATOM      1  C   UNL     1      61.060  69.460  52.264  0.00  0.00    +0.000 C 
ATOM      2  N   UNL     1      61.230  68.699  52.532  0.00  0.00    +0.000 NA
ATOM      3  C   UNL     1      61.365  68.093  51.989  0.00  0.00    +0.000 C 
ATOM      4  O   UNL     1      61.331  68.248  51.180  0.00  0.00    +0.000 OA
ATOM      5  C   UNL     1      61.535  67.330  52.256  0.00  0.00    +0.000 A 
ATOM      6  C   UNL     1      61.671  66.723  51.713  0.00  0.00    +0.000 A 
ATOM      7  I   UNL     1      61.636  66.878  50.904  0.00  0.00    +0.000 I 
ATOM      8  C   UNL     1      61.841  65.962  51.980  0.00  0.00    +0.000 A 
ATOM      9  C   UNL     1      61.976  65.356  51.437  0.00  0.00    +0.000 C 
ATOM     10  O   UNL     1      61.941  65.511  50.629  0.00  0.00    +0.000 OA
ATOM     11  N   UNL     1      62.146  64.593  51.705  0.00  0.00    +0.000 NA
ATOM     12  C   UNL     1      62.281  63.987  51.162  0.00  0.00    +0.000 C 
ATOM     13  C   UNL     1      62.451  63.225  51.429  0.00  0.00    +0.000 C 
ATOM     14  O   UNL     1      62.486  63.069  52.238  0.00  0.00    +0.000 OA
ATOM     15  N   UNL     1      62.587  62.619  50.886  0.00  0.00    +0.000 NA
ATOM     16  C   UNL     1      62.757  61.856  51.153  0.00  0.00    +0.000 A 
ATOM     17  C   UNL     1      62.892  61.250  50.610  0.00  0.00    +0.000 A 
ATOM     18  I   UNL     1      62.858  61.405  49.802  0.00  0.00    +0.000 I 
ATOM     19  C   UNL     1      63.062  60.488  50.878  0.00  0.00    +0.000 A 
ATOM     20  C   UNL     1      63.198  59.882  50.335  0.00  0.00    +0.000 C 
ATOM     21  O   UNL     1      63.163  60.037  49.526  0.00  0.00    +0.000 OA
ATOM     22  N   UNL     1      63.368  59.119  50.602  0.00  0.00    +0.000 NA
ATOM     23  C   UNL     1      63.503  58.513  50.059  0.00  0.00    +0.000 C 
ATOM     24  C   UNL     1      63.673  57.751  50.326  0.00  0.00    +0.000 C 
ATOM     25  O   UNL     1      63.808  57.145  49.783  0.00  0.00    +0.000 OA
ATOM     26  C   UNL     1      63.097  60.332  51.687  0.00  0.00    +0.000 A 
ATOM     27  I   UNL     1      63.267  59.571  51.954  0.00  0.00    +0.000 I 
ATOM     28  C   UNL     1      62.961  60.939  52.229  0.00  0.00    +0.000 A 
ATOM     29  C   UNL     1      62.996  60.784  53.040  0.00  0.00    +0.000 C 
ATOM     30  O   UNL     1      62.860  61.390  53.582  0.00  0.00    +0.000 OA
ATOM     31  O   UNL     1      63.166  60.022  53.306  0.00  0.00    +0.000 OA
ATOM     32  C   UNL     1      62.791  61.701  51.963  0.00  0.00    +0.000 A 
ATOM     33  I   UNL     1      62.656  62.308  52.505  0.00  0.00    +0.000 I 
ATOM     34  C   UNL     1      61.875  65.806  52.790  0.00  0.00    +0.000 A 
ATOM     35  I   UNL     1      62.045  65.045  53.056  0.00  0.00    +0.000 I 
ATOM     36  C   UNL     1      61.740  66.412  53.332  0.00  0.00    +0.000 A 
ATOM     37  N   UNL     1      61.774  66.257  54.142  0.00  0.00    +0.000 N 
ATOM     38  C   UNL     1      61.639  66.864  54.684  0.00  0.00    +0.000 C 
ATOM     39  C   UNL     1      61.944  65.496  54.409  0.00  0.00    +0.000 C 
ATOM     40  C   UNL     1      62.080  64.889  53.867  0.00  0.00    +0.000 C 
ATOM     41  O   UNL     1      61.979  65.340  55.218  0.00  0.00    +0.000 OA
ATOM     42  C   UNL     1      61.570  67.175  53.065  0.00  0.00    +0.000 A 
ATOM     43  I   UNL     1      61.434  67.782  53.608  0.00  0.00    +0.000 I 
ENDROOT
TORSDOF 0
ENDMDL
MODEL 7
REMARK VINA RESULT:   -11.438     18.876     19.091
REMARK INTER + INTRA:         -11.438
REMARK INTER:                 -11.438
REMARK INTRA:                   0.000
REMARK UNBOUND:                 0.000
ROOT
REMARK  Name = ioxaglic acid
REMARK                            x       y       z     vdW  Elec       q    Type
REMARK                         _______ _______ _______ _____ _____    ______ ____
ATOM      1  C   UNL     1      80.998  69.779  57.045  0.00  0.00    +0.000 C 
ATOM      2  N   UNL     1      81.115  69.237  56.434  0.00  0.00    +0.000 NA
ATOM      3  C   UNL     1      80.985  68.433  56.566  0.00  0.00    +0.000 C 
ATOM      4  O   UNL     1      80.739  68.172  57.308  0.00  0.00    +0.000 OA
ATOM      5  C   UNL     1      81.101  67.891  55.955  0.00  0.00    +0.000 A 
ATOM      6  C   UNL     1      80.971  67.086  56.087  0.00  0.00    +0.000 A 
ATOM      7  I   UNL     1      80.725  66.825  56.828  0.00  0.00    +0.000 I 
ATOM      8  C   UNL     1      81.087  66.545  55.475  0.00  0.00    +0.000 A 
ATOM      9  C   UNL     1      80.957  65.741  55.608  0.00  0.00    +0.000 C 
ATOM     10  O   UNL     1      80.711  65.479  56.349  0.00  0.00    +0.000 OA
ATOM     11  N   UNL     1      81.073  65.199  54.996  0.00  0.00    +0.000 NA
ATOM     12  C   UNL     1      80.943  64.395  55.128  0.00  0.00    +0.000 C 
ATOM     13  C   UNL     1      81.060  63.852  54.517  0.00  0.00    +0.000 C 
ATOM     14  O   UNL     1      81.306  64.114  53.774  0.00  0.00    +0.000 OA
ATOM     15  N   UNL     1      80.929  63.049  54.649  0.00  0.00    +0.000 NA
ATOM     16  C   UNL     1      81.046  62.506  54.038  0.00  0.00    +0.000 A 
ATOM     17  C   UNL     1      80.916  61.702  54.170  0.00  0.00    +0.000 A 
ATOM     18  I   UNL     1      80.670  61.441  54.911  0.00  0.00    +0.000 I 
ATOM     19  C   UNL     1      81.032  61.160  53.558  0.00  0.00    +0.000 A 
ATOM     20  C   UNL     1      80.902  60.356  53.691  0.00  0.00    +0.000 C 
ATOM     21  O   UNL     1      80.656  60.095  54.432  0.00  0.00    +0.000 OA
ATOM     22  N   UNL     1      81.018  59.814  53.079  0.00  0.00    +0.000 NA
ATOM     23  C   UNL     1      80.888  59.010  53.211  0.00  0.00    +0.000 C 
ATOM     24  C   UNL     1      81.004  58.468  52.600  0.00  0.00    +0.000 C 
ATOM     25  O   UNL     1      80.874  57.664  52.732  0.00  0.00    +0.000 OA
ATOM     26  C   UNL     1      81.278  61.422  52.816  0.00  0.00    +0.000 A 
ATOM     27  I   UNL     1      81.394  60.880  52.205  0.00  0.00    +0.000 I 
ATOM     28  C   UNL     1      81.408  62.226  52.685  0.00  0.00    +0.000 A 
ATOM     29  C   UNL     1      81.655  62.488  51.941  0.00  0.00    +0.000 C 
ATOM     30  O   UNL     1      81.785  63.292  51.810  0.00  0.00    +0.000 OA
ATOM     31  O   UNL     1      81.771  61.946  51.331  0.00  0.00    +0.000 OA
ATOM     32  C   UNL     1      81.292  62.768  53.295  0.00  0.00    +0.000 A 
ATOM     33  I   UNL     1      81.422  63.572  53.164  0.00  0.00    +0.000 I 
ATOM     34  C   UNL     1      81.333  66.807  54.733  0.00  0.00    +0.000 A 
ATOM     35  I   UNL     1      81.449  66.265  54.122  0.00  0.00    +0.000 I 
ATOM     36  C   UNL     1      81.463  67.610  54.601  0.00  0.00    +0.000 A 
ATOM     37  N   UNL     1      81.710  67.872  53.858  0.00  0.00    +0.000 N 
ATOM     38  C   UNL     1      81.840  68.676  53.727  0.00  0.00    +0.000 C 
ATOM     39  C   UNL     1      81.826  67.330  53.248  0.00  0.00    +0.000 C 
ATOM     40  C   UNL     1      81.696  66.527  53.379  0.00  0.00    +0.000 C 
ATOM     41  O   UNL     1      82.072  67.592  52.505  0.00  0.00    +0.000 OA
ATOM     42  C   UNL     1      81.347  68.153  55.212  0.00  0.00    +0.000 A 
ATOM     43  I   UNL     1      81.477  68.957  55.081  0.00  0.00    +0.000 I 
ENDROOT
TORSDOF 0
ENDMDL
MODEL 8
REMARK VINA RESULT:   -11.279      1.685      3.143
REMARK INTER + INTRA:         -11.279
REMARK INTER:                 -11.279
REMARK INTRA:                   0.000
REMARK UNBOUND:                 0.000
ROOT
REMARK  Name = ioxaglic acid
REMARK                            x       y       z     vdW  Elec       q    Type
REMARK                         _______ _______ _______ _____ _____    ______ ____
ATOM      1  C   UNL     1      59.084  70.300  49.777  0.00  0.00    +0.000 C 
ATOM      2  N   UNL     1      59.575  69.835  50.250  0.00  0.00    +0.000 NA
ATOM      3  C   UNL     1      59.539  69.013  50.195  0.00  0.00    +0.000 C 
ATOM      4  O   UNL     1      59.015  68.657  49.668  0.00  0.00    +0.000 OA
ATOM      5  C   UNL     1      60.030  68.547  50.668  0.00  0.00    +0.000 A 
ATOM      6  C   UNL     1      59.995  67.723  50.613  0.00  0.00    +0.000 A 
ATOM      7  I   UNL     1      59.470  67.367  50.087  0.00  0.00    +0.000 I 
ATOM      8  C   UNL     1      60.485  67.258  51.086  0.00  0.00    +0.000 A 
ATOM      9  C   UNL     1      60.449  66.436  51.031  0.00  0.00    +0.000 C 
ATOM     10  O   UNL     1      59.925  66.080  50.504  0.00  0.00    +0.000 OA
ATOM     11  N   UNL     1      60.940  65.970  51.504  0.00  0.00    +0.000 NA
ATOM     12  C   UNL     1      60.904  65.147  51.449  0.00  0.00    +0.000 C 
ATOM     13  C   UNL     1      61.395  64.681  51.923  0.00  0.00    +0.000 C 
ATOM     14  O   UNL     1      61.920  65.038  52.450  0.00  0.00    +0.000 OA
ATOM     15  N   UNL     1      61.360  63.859  51.868  0.00  0.00    +0.000 NA
ATOM     16  C   UNL     1      61.850  63.393  52.341  0.00  0.00    +0.000 A 
ATOM     17  C   UNL     1      61.815  62.571  52.286  0.00  0.00    +0.000 A 
ATOM     18  I   UNL     1      61.290  62.214  51.759  0.00  0.00    +0.000 I 
ATOM     19  C   UNL     1      62.305  62.104  52.759  0.00  0.00    +0.000 A 
ATOM     20  C   UNL     1      62.270  61.282  52.704  0.00  0.00    +0.000 C 
ATOM     21  O   UNL     1      61.745  60.926  52.177  0.00  0.00    +0.000 OA
ATOM     22  N   UNL     1      62.760  60.816  53.177  0.00  0.00    +0.000 NA
ATOM     23  C   UNL     1      62.725  59.994  53.122  0.00  0.00    +0.000 C 
ATOM     24  C   UNL     1      63.215  59.528  53.595  0.00  0.00    +0.000 C 
ATOM     25  O   UNL     1      63.180  58.705  53.540  0.00  0.00    +0.000 OA
ATOM     26  C   UNL     1      62.830  62.461  53.286  0.00  0.00    +0.000 A 
ATOM     27  I   UNL     1      63.319  61.995  53.758  0.00  0.00    +0.000 I 
ATOM     28  C   UNL     1      62.864  63.284  53.340  0.00  0.00    +0.000 A 
ATOM     29  C   UNL     1      63.390  63.641  53.868  0.00  0.00    +0.000 C 
ATOM     30  O   UNL     1      63.425  64.462  53.922  0.00  0.00    +0.000 OA
ATOM     31  O   UNL     1      63.880  63.174  54.341  0.00  0.00    +0.000 OA
ATOM     32  C   UNL     1      62.375  63.749  52.868  0.00  0.00    +0.000 A 
ATOM     33  I   UNL     1      62.409  64.572  52.922  0.00  0.00    +0.000 I 
ATOM     34  C   UNL     1      61.010  67.615  51.613  0.00  0.00    +0.000 A 
ATOM     35  I   UNL     1      61.499  67.149  52.086  0.00  0.00    +0.000 I 
ATOM     36  C   UNL     1      61.044  68.436  51.668  0.00  0.00    +0.000 A 
ATOM     37  N   UNL     1      61.570  68.793  52.196  0.00  0.00    +0.000 N 
ATOM     38  C   UNL     1      61.604  69.616  52.250  0.00  0.00    +0.000 C 
ATOM     39  C   UNL     1      62.059  68.328  52.668  0.00  0.00    +0.000 C 
ATOM     40  C   UNL     1      62.025  67.506  52.614  0.00  0.00    +0.000 C 
ATOM     41  O   UNL     1      62.584  68.684  53.195  0.00  0.00    +0.000 OA
ATOM     42  C   UNL     1      60.555  68.903  51.195  0.00  0.00    +0.000 A 
ATOM     43  I   UNL     1      60.589  69.726  51.249  0.00  0.00    +0.000 I 
ENDROOT
TORSDOF 0
ENDMDL
MODEL 9
REMARK VINA RESULT:   -11.244      1.957      7.318
REMARK INTER + INTRA:         -11.244
REMARK INTER:                 -11.244
REMARK INTRA:                   0.000
REMARK UNBOUND:                 0.000
ROOT
REMARK  Name = ioxaglic acid
REMARK                            x       y       z     vdW  Elec       q    Type
REMARK                         _______ _______ _______ _____ _____    ______ ____
ATOM      1  C   UNL     1      63.517  59.689  51.578  0.00  0.00    +0.000 C 
ATOM      2  N   UNL     1      63.305  60.424  51.887  0.00  0.00    +0.000 NA
ATOM      3  C   UNL     1      63.153  61.055  51.378  0.00  0.00    +0.000 C 
ATOM      4  O   UNL     1      63.214  60.952  50.563  0.00  0.00    +0.000 OA
ATOM      5  C   UNL     1      62.940  61.791  51.687  0.00  0.00    +0.000 A 
ATOM      6  C   UNL     1      62.788  62.424  51.178  0.00  0.00    +0.000 A 
ATOM      7  I   UNL     1      62.849  62.320  50.363  0.00  0.00    +0.000 I 
ATOM      8  C   UNL     1      62.575  63.158  51.486  0.00  0.00    +0.000 A 
ATOM      9  C   UNL     1      62.424  63.790  50.978  0.00  0.00    +0.000 C 
ATOM     10  O   UNL     1      62.485  63.687  50.163  0.00  0.00    +0.000 OA
ATOM     11  N   UNL     1      62.211  64.525  51.286  0.00  0.00    +0.000 NA
ATOM     12  C   UNL     1      62.059  65.157  50.778  0.00  0.00    +0.000 C 
ATOM     13  C   UNL     1      61.846  65.893  51.086  0.00  0.00    +0.000 C 
ATOM     14  O   UNL     1      61.785  65.996  51.902  0.00  0.00    +0.000 OA
ATOM     15  N   UNL     1      61.695  66.524  50.578  0.00  0.00    +0.000 NA
ATOM     16  C   UNL     1      61.482  67.260  50.886  0.00  0.00    +0.000 A 
ATOM     17  C   UNL     1      61.330  67.891  50.377  0.00  0.00    +0.000 A 
ATOM     18  I   UNL     1      61.391  67.788  49.562  0.00  0.00    +0.000 I 
ATOM     19  C   UNL     1      61.117  68.627  50.686  0.00  0.00    +0.000 A 
ATOM     20  C   UNL     1      60.966  69.258  50.177  0.00  0.00    +0.000 C 
ATOM     21  O   UNL     1      61.027  69.155  49.362  0.00  0.00    +0.000 OA
ATOM     22  N   UNL     1      60.753  69.994  50.486  0.00  0.00    +0.000 NA
ATOM     23  C   UNL     1      60.601  70.625  49.977  0.00  0.00    +0.000 C 
ATOM     24  C   UNL     1      60.388  71.361  50.286  0.00  0.00    +0.000 C 
ATOM     25  O   UNL     1      60.237  71.993  49.777  0.00  0.00    +0.000 OA
ATOM     26  C   UNL     1      61.056  68.730  51.502  0.00  0.00    +0.000 A 
ATOM     27  I   UNL     1      60.844  69.465  51.810  0.00  0.00    +0.000 I 
ATOM     28  C   UNL     1      61.208  68.098  52.010  0.00  0.00    +0.000 A 
ATOM     29  C   UNL     1      61.147  68.201  52.827  0.00  0.00    +0.000 C 
ATOM     30  O   UNL     1      61.299  67.569  53.335  0.00  0.00    +0.000 OA
ATOM     31  O   UNL     1      60.934  68.937  53.135  0.00  0.00    +0.000 OA
ATOM     32  C   UNL     1      61.421  67.363  51.702  0.00  0.00    +0.000 A 
ATOM     33  I   UNL     1      61.573  66.731  52.210  0.00  0.00    +0.000 I 
ATOM     34  C   UNL     1      62.514  63.262  52.303  0.00  0.00    +0.000 A 
ATOM     35  I   UNL     1      62.302  63.996  52.610  0.00  0.00    +0.000 I 
ATOM     36  C   UNL     1      62.666  62.630  52.810  0.00  0.00    +0.000 A 
ATOM     37  N   UNL     1      62.605  62.733  53.628  0.00  0.00    +0.000 N 
ATOM     38  C   UNL     1      62.757  62.101  54.135  0.00  0.00    +0.000 C 
ATOM     39  C   UNL     1      62.392  63.468  53.935  0.00  0.00    +0.000 C 
ATOM     40  C   UNL     1      62.241  64.100  53.428  0.00  0.00    +0.000 C 
ATOM     41  O   UNL     1      62.332  63.571  54.751  0.00  0.00    +0.000 OA
ATOM     42  C   UNL     1      62.879  61.894  52.503  0.00  0.00    +0.000 A 
ATOM     43  I   UNL     1      63.031  61.262  53.011  0.00  0.00    +0.000 I 
ENDROOT
TORSDOF 0
ENDMDL
