MODEL 1
REMARK VINA RESULT:    -9.839      0.000      0.000
REMARK INTER + INTRA:          -9.839
REMARK INTER:                  -9.839
REMARK INTRA:                   0.000
REMARK UNBOUND:                 0.000
ROOT
REMARK  Name = ioxitalamic acid
REMARK                            x       y       z     vdW  Elec       q    Type
REMARK                         _______ _______ _______ _____ _____    ______ ____
ATOM      1  C   UNL     1      62.967  65.861  69.620  0.00  0.00    +0.000 C 
ATOM      2  C   UNL     1      62.599  65.180  69.906  0.00  0.00    +0.000 C 
ATOM      3  O   UNL     1      62.678  64.972  70.700  0.00  0.00    +0.000 OA
ATOM      4  N   UNL     1      62.154  64.708  69.397  0.00  0.00    +0.000 NA
ATOM      5  C   UNL     1      61.786  64.026  69.683  0.00  0.00    +0.000 A 
ATOM      6  C   UNL     1      61.865  63.818  70.478  0.00  0.00    +0.000 A 
ATOM      7  I   UNL     1      62.311  64.290  70.987  0.00  0.00    +0.000 I 
ATOM      8  C   UNL     1      61.498  63.137  70.763  0.00  0.00    +0.000 A 
ATOM      9  C   UNL     1      61.576  62.928  71.558  0.00  0.00    +0.000 C 
ATOM     10  O   UNL     1      61.209  62.248  71.844  0.00  0.00    +0.000 OA
ATOM     11  O   UNL     1      62.022  63.401  72.066  0.00  0.00    +0.000 OA
ATOM     12  C   UNL     1      61.052  62.664  70.255  0.00  0.00    +0.000 A 
ATOM     13  I   UNL     1      60.685  61.983  70.540  0.00  0.00    +0.000 I 
ATOM     14  C   UNL     1      60.973  62.873  69.461  0.00  0.00    +0.000 A 
ATOM     15  C   UNL     1      60.528  62.400  68.953  0.00  0.00    +0.000 C 
ATOM     16  O   UNL     1      60.161  61.719  69.238  0.00  0.00    +0.000 OA
ATOM     17  N   UNL     1      60.449  62.608  68.158  0.00  0.00    +0.000 NA
ATOM     18  C   UNL     1      60.004  62.135  67.650  0.00  0.00    +0.000 C 
ATOM     19  C   UNL     1      59.925  62.344  66.855  0.00  0.00    +0.000 C 
ATOM     20  O   UNL     1      59.479  61.871  66.347  0.00  0.00    +0.000 OA
ATOM     21  C   UNL     1      61.341  63.554  69.175  0.00  0.00    +0.000 A 
ATOM     22  I   UNL     1      61.262  63.762  68.381  0.00  0.00    +0.000 I 
ENDROOT
TORSDOF 0
ENDMDL
MODEL 2
REMARK VINA RESULT:    -9.752      1.247      3.566
REMARK INTER + INTRA:          -9.752
REMARK INTER:                  -9.752
REMARK INTRA:                   0.000
REMARK UNBOUND:                 0.000
ROOT
REMARK  Name = ioxitalamic acid
REMARK                            x       y       z     vdW  Elec       q    Type
REMARK                         _______ _______ _______ _____ _____    ______ ____
ATOM      1  C   UNL     1      61.340  63.168  67.077  0.00  0.00    +0.000 C 
ATOM      2  C   UNL     1      61.251  63.026  67.885  0.00  0.00    +0.000 C 
ATOM      3  O   UNL     1      60.769  62.409  68.144  0.00  0.00    +0.000 OA
ATOM      4  N   UNL     1      61.644  63.502  68.433  0.00  0.00    +0.000 NA
ATOM      5  C   UNL     1      61.555  63.360  69.241  0.00  0.00    +0.000 A 
ATOM      6  C   UNL     1      61.072  62.743  69.500  0.00  0.00    +0.000 A 
ATOM      7  I   UNL     1      60.679  62.267  68.953  0.00  0.00    +0.000 I 
ATOM      8  C   UNL     1      60.983  62.601  70.308  0.00  0.00    +0.000 A 
ATOM      9  C   UNL     1      60.501  61.983  70.568  0.00  0.00    +0.000 C 
ATOM     10  O   UNL     1      60.411  61.842  71.375  0.00  0.00    +0.000 OA
ATOM     11  O   UNL     1      60.108  61.509  70.020  0.00  0.00    +0.000 OA
ATOM     12  C   UNL     1      61.376  63.076  70.857  0.00  0.00    +0.000 A 
ATOM     13  I   UNL     1      61.287  62.935  71.664  0.00  0.00    +0.000 I 
ATOM     14  C   UNL     1      61.858  63.693  70.597  0.00  0.00    +0.000 A 
ATOM     15  C   UNL     1      62.251  64.168  71.145  0.00  0.00    +0.000 C 
ATOM     16  O   UNL     1      62.161  64.026  71.952  0.00  0.00    +0.000 OA
ATOM     17  N   UNL     1      62.733  64.785  70.885  0.00  0.00    +0.000 NA
ATOM     18  C   UNL     1      63.126  65.260  71.433  0.00  0.00    +0.000 C 
ATOM     19  C   UNL     1      63.608  65.878  71.173  0.00  0.00    +0.000 C 
ATOM     20  O   UNL     1      64.001  66.353  71.722  0.00  0.00    +0.000 OA
ATOM     21  C   UNL     1      61.948  63.835  69.789  0.00  0.00    +0.000 A 
ATOM     22  I   UNL     1      62.429  64.451  69.529  0.00  0.00    +0.000 I 
ENDROOT
TORSDOF 0
ENDMDL
MODEL 3
REMARK VINA RESULT:    -9.660      1.776      3.526
REMARK INTER + INTRA:          -9.660
REMARK INTER:                  -9.660
REMARK INTRA:                   0.000
REMARK UNBOUND:                 0.000
ROOT
REMARK  Name = ioxitalamic acid
REMARK                            x       y       z     vdW  Elec       q    Type
REMARK                         _______ _______ _______ _____ _____    ______ ____
ATOM      1  C   UNL     1      60.338  62.161  68.430  0.00  0.00    +0.000 C 
ATOM      2  C   UNL     1      60.510  62.406  69.198  0.00  0.00    +0.000 C 
ATOM      3  O   UNL     1      60.739  61.853  69.766  0.00  0.00    +0.000 OA
ATOM      4  N   UNL     1      60.454  63.205  69.398  0.00  0.00    +0.000 NA
ATOM      5  C   UNL     1      60.626  63.450  70.168  0.00  0.00    +0.000 A 
ATOM      6  C   UNL     1      60.855  62.897  70.736  0.00  0.00    +0.000 A 
ATOM      7  I   UNL     1      60.912  62.098  70.536  0.00  0.00    +0.000 I 
ATOM      8  C   UNL     1      61.027  63.142  71.504  0.00  0.00    +0.000 A 
ATOM      9  C   UNL     1      61.256  62.589  72.073  0.00  0.00    +0.000 C 
ATOM     10  O   UNL     1      61.428  62.834  72.841  0.00  0.00    +0.000 OA
ATOM     11  O   UNL     1      61.312  61.791  71.872  0.00  0.00    +0.000 OA
ATOM     12  C   UNL     1      60.971  63.941  71.705  0.00  0.00    +0.000 A 
ATOM     13  I   UNL     1      61.143  64.186  72.473  0.00  0.00    +0.000 I 
ATOM     14  C   UNL     1      60.742  64.493  71.137  0.00  0.00    +0.000 A 
ATOM     15  C   UNL     1      60.686  65.291  71.338  0.00  0.00    +0.000 C 
ATOM     16  O   UNL     1      60.858  65.536  72.106  0.00  0.00    +0.000 OA
ATOM     17  N   UNL     1      60.457  65.845  70.770  0.00  0.00    +0.000 NA
ATOM     18  C   UNL     1      60.401  66.642  70.971  0.00  0.00    +0.000 C 
ATOM     19  C   UNL     1      60.172  67.196  70.402  0.00  0.00    +0.000 C 
ATOM     20  O   UNL     1      60.116  67.994  70.604  0.00  0.00    +0.000 OA
ATOM     21  C   UNL     1      60.570  64.248  70.368  0.00  0.00    +0.000 A 
ATOM     22  I   UNL     1      60.342  64.801  69.801  0.00  0.00    +0.000 I 
ENDROOT
TORSDOF 0
ENDMDL
MODEL 4
REMARK VINA RESULT:    -9.525      1.745      2.519
REMARK INTER + INTRA:          -9.525
REMARK INTER:                  -9.525
REMARK INTRA:                   0.000
REMARK UNBOUND:                 0.000
ROOT
REMARK  Name = ioxitalamic acid
REMARK                            x       y       z     vdW  Elec       q    Type
REMARK                         _______ _______ _______ _____ _____    ______ ____
ATOM      1  C   UNL     1      61.732  62.174  72.871  0.00  0.00    +0.000 C 
ATOM      2  C   UNL     1      61.444  62.822  72.449  0.00  0.00    +0.000 C 
ATOM      3  O   UNL     1      61.387  63.559  72.816  0.00  0.00    +0.000 OA
ATOM      4  N   UNL     1      61.215  62.732  71.662  0.00  0.00    +0.000 NA
ATOM      5  C   UNL     1      60.927  63.382  71.240  0.00  0.00    +0.000 A 
ATOM      6  C   UNL     1      60.869  64.119  71.607  0.00  0.00    +0.000 A 
ATOM      7  I   UNL     1      61.099  64.208  72.394  0.00  0.00    +0.000 I 
ATOM      8  C   UNL     1      60.582  64.767  71.185  0.00  0.00    +0.000 A 
ATOM      9  C   UNL     1      60.524  65.505  71.551  0.00  0.00    +0.000 C 
ATOM     10  O   UNL     1      60.237  66.152  71.130  0.00  0.00    +0.000 OA
ATOM     11  O   UNL     1      60.753  65.593  72.339  0.00  0.00    +0.000 OA
ATOM     12  C   UNL     1      60.352  64.678  70.397  0.00  0.00    +0.000 A 
ATOM     13  I   UNL     1      60.065  65.326  69.976  0.00  0.00    +0.000 I 
ATOM     14  C   UNL     1      60.410  63.941  70.032  0.00  0.00    +0.000 A 
ATOM     15  C   UNL     1      60.181  63.853  69.244  0.00  0.00    +0.000 C 
ATOM     16  O   UNL     1      59.894  64.500  68.823  0.00  0.00    +0.000 OA
ATOM     17  N   UNL     1      60.239  63.115  68.878  0.00  0.00    +0.000 NA
ATOM     18  C   UNL     1      60.009  63.027  68.091  0.00  0.00    +0.000 C 
ATOM     19  C   UNL     1      60.067  62.289  67.725  0.00  0.00    +0.000 C 
ATOM     20  O   UNL     1      59.838  62.201  66.937  0.00  0.00    +0.000 OA
ATOM     21  C   UNL     1      60.698  63.293  70.453  0.00  0.00    +0.000 A 
ATOM     22  I   UNL     1      60.756  62.556  70.087  0.00  0.00    +0.000 I 
ENDROOT
TORSDOF 0
ENDMDL
MODEL 5
REMARK VINA RESULT:    -9.433      1.455      2.155
REMARK INTER + INTRA:          -9.433
REMARK INTER:                  -9.433
REMARK INTRA:                   0.000
REMARK UNBOUND:                 0.000
ROOT
REMARK  Name = ioxitalamic acid
REMARK                            x       y       z     vdW  Elec       q    Type
REMARK                         _______ _______ _______ _____ _____    ______ ____
ATOM      1  C   UNL     1      64.248  66.276  69.493  0.00  0.00    +0.000 C 
ATOM      2  C   UNL     1      63.727  65.984  70.062  0.00  0.00    +0.000 C 
ATOM      3  O   UNL     1      63.718  66.311  70.820  0.00  0.00    +0.000 OA
ATOM      4  N   UNL     1      63.216  65.364  69.874  0.00  0.00    +0.000 NA
ATOM      5  C   UNL     1      62.695  65.071  70.443  0.00  0.00    +0.000 A 
ATOM      6  C   UNL     1      62.686  65.399  71.200  0.00  0.00    +0.000 A 
ATOM      7  I   UNL     1      63.196  66.019  71.389  0.00  0.00    +0.000 I 
ATOM      8  C   UNL     1      62.165  65.106  71.770  0.00  0.00    +0.000 A 
ATOM      9  C   UNL     1      62.155  65.434  72.527  0.00  0.00    +0.000 C 
ATOM     10  O   UNL     1      61.634  65.142  73.096  0.00  0.00    +0.000 OA
ATOM     11  O   UNL     1      62.666  66.053  72.715  0.00  0.00    +0.000 OA
ATOM     12  C   UNL     1      61.653  64.486  71.581  0.00  0.00    +0.000 A 
ATOM     13  I   UNL     1      61.133  64.194  72.150  0.00  0.00    +0.000 I 
ATOM     14  C   UNL     1      61.663  64.159  70.824  0.00  0.00    +0.000 A 
ATOM     15  C   UNL     1      61.152  63.540  70.636  0.00  0.00    +0.000 C 
ATOM     16  O   UNL     1      60.632  63.248  71.205  0.00  0.00    +0.000 OA
ATOM     17  N   UNL     1      61.162  63.212  69.878  0.00  0.00    +0.000 NA
ATOM     18  C   UNL     1      60.651  62.593  69.691  0.00  0.00    +0.000 C 
ATOM     19  C   UNL     1      60.661  62.265  68.933  0.00  0.00    +0.000 C 
ATOM     20  O   UNL     1      60.150  61.646  68.745  0.00  0.00    +0.000 OA
ATOM     21  C   UNL     1      62.184  64.452  70.255  0.00  0.00    +0.000 A 
ATOM     22  I   UNL     1      62.194  64.125  69.498  0.00  0.00    +0.000 I 
ENDROOT
TORSDOF 0
ENDMDL
MODEL 6
REMARK VINA RESULT:    -9.359      2.009      4.057
REMARK INTER + INTRA:          -9.359
REMARK INTER:                  -9.359
REMARK INTRA:                   0.000
REMARK UNBOUND:                 0.000
ROOT
REMARK  Name = ioxitalamic acid
REMARK                            x       y       z     vdW  Elec       q    Type
REMARK                         _______ _______ _______ _____ _____    ______ ____
ATOM      1  C   UNL     1      60.848  62.184  70.015  0.00  0.00    +0.000 C 
ATOM      2  C   UNL     1      60.952  62.820  70.530  0.00  0.00    +0.000 C 
ATOM      3  O   UNL     1      60.432  62.929  71.161  0.00  0.00    +0.000 OA
ATOM      4  N   UNL     1      61.577  63.347  70.413  0.00  0.00    +0.000 NA
ATOM      5  C   UNL     1      61.682  63.983  70.929  0.00  0.00    +0.000 A 
ATOM      6  C   UNL     1      61.161  64.092  71.560  0.00  0.00    +0.000 A 
ATOM      7  I   UNL     1      60.537  63.565  71.677  0.00  0.00    +0.000 I 
ATOM      8  C   UNL     1      61.266  64.728  72.076  0.00  0.00    +0.000 A 
ATOM      9  C   UNL     1      60.746  64.837  72.707  0.00  0.00    +0.000 C 
ATOM     10  O   UNL     1      60.850  65.472  73.222  0.00  0.00    +0.000 OA
ATOM     11  O   UNL     1      60.122  64.310  72.823  0.00  0.00    +0.000 OA
ATOM     12  C   UNL     1      61.891  65.255  71.960  0.00  0.00    +0.000 A 
ATOM     13  I   UNL     1      61.995  65.890  72.474  0.00  0.00    +0.000 I 
ATOM     14  C   UNL     1      62.410  65.145  71.328  0.00  0.00    +0.000 A 
ATOM     15  C   UNL     1      63.035  65.672  71.213  0.00  0.00    +0.000 C 
ATOM     16  O   UNL     1      63.139  66.307  71.728  0.00  0.00    +0.000 OA
ATOM     17  N   UNL     1      63.555  65.562  70.581  0.00  0.00    +0.000 NA
ATOM     18  C   UNL     1      64.179  66.089  70.466  0.00  0.00    +0.000 C 
ATOM     19  C   UNL     1      64.699  65.979  69.834  0.00  0.00    +0.000 C 
ATOM     20  O   UNL     1      65.323  66.506  69.718  0.00  0.00    +0.000 OA
ATOM     21  C   UNL     1      62.306  64.509  70.813  0.00  0.00    +0.000 A 
ATOM     22  I   UNL     1      62.825  64.400  70.182  0.00  0.00    +0.000 I 
ENDROOT
TORSDOF 0
ENDMDL
MODEL 7
REMARK VINA RESULT:    -9.217      3.687      4.633
REMARK INTER + INTRA:          -9.217
REMARK INTER:                  -9.217
REMARK INTRA:                   0.000
REMARK UNBOUND:                 0.000
ROOT
REMARK  Name = ioxitalamic acid
REMARK                            x       y       z     vdW  Elec       q    Type
REMARK                         _______ _______ _______ _____ _____    ______ ____
ATOM      1  C   UNL     1      64.634  64.618  70.171  0.00  0.00    +0.000 C 
ATOM      2  C   UNL     1      64.307  65.211  70.642  0.00  0.00    +0.000 C 
ATOM      3  O   UNL     1      64.762  65.867  70.853  0.00  0.00    +0.000 OA
ATOM      4  N   UNL     1      63.527  65.149  70.902  0.00  0.00    +0.000 NA
ATOM      5  C   UNL     1      63.200  65.743  71.374  0.00  0.00    +0.000 A 
ATOM      6  C   UNL     1      63.655  66.398  71.585  0.00  0.00    +0.000 A 
ATOM      7  I   UNL     1      64.436  66.461  71.325  0.00  0.00    +0.000 I 
ATOM      8  C   UNL     1      63.329  66.991  72.056  0.00  0.00    +0.000 A 
ATOM      9  C   UNL     1      63.784  67.648  72.267  0.00  0.00    +0.000 C 
ATOM     10  O   UNL     1      63.458  68.240  72.738  0.00  0.00    +0.000 OA
ATOM     11  O   UNL     1      64.564  67.709  72.007  0.00  0.00    +0.000 OA
ATOM     12  C   UNL     1      62.548  66.929  72.317  0.00  0.00    +0.000 A 
ATOM     13  I   UNL     1      62.223  67.522  72.788  0.00  0.00    +0.000 I 
ATOM     14  C   UNL     1      62.094  66.274  72.105  0.00  0.00    +0.000 A 
ATOM     15  C   UNL     1      61.314  66.212  72.366  0.00  0.00    +0.000 C 
ATOM     16  O   UNL     1      60.989  66.805  72.837  0.00  0.00    +0.000 OA
ATOM     17  N   UNL     1      60.860  65.556  72.155  0.00  0.00    +0.000 NA
ATOM     18  C   UNL     1      60.080  65.495  72.415  0.00  0.00    +0.000 C 
ATOM     19  C   UNL     1      59.625  64.839  72.204  0.00  0.00    +0.000 C 
ATOM     20  O   UNL     1      58.845  64.777  72.464  0.00  0.00    +0.000 OA
ATOM     21  C   UNL     1      62.421  65.680  71.634  0.00  0.00    +0.000 A 
ATOM     22  I   UNL     1      61.966  65.026  71.423  0.00  0.00    +0.000 I 
ENDROOT
TORSDOF 0
ENDMDL
MODEL 8
REMARK VINA RESULT:    -9.165      2.510      3.842
REMARK INTER + INTRA:          -9.165
REMARK INTER:                  -9.165
REMARK INTRA:                   0.000
REMARK UNBOUND:                 0.000
ROOT
REMARK  Name = ioxitalamic acid
REMARK                            x       y       z     vdW  Elec       q    Type
REMARK                         _______ _______ _______ _____ _____    ______ ____
ATOM      1  C   UNL     1      62.380  67.828  73.213  0.00  0.00    +0.000 C 
ATOM      2  C   UNL     1      62.733  67.319  72.668  0.00  0.00    +0.000 C 
ATOM      3  O   UNL     1      63.451  67.526  72.317  0.00  0.00    +0.000 OA
ATOM      4  N   UNL     1      62.369  66.605  72.475  0.00  0.00    +0.000 NA
ATOM      5  C   UNL     1      62.723  66.095  71.929  0.00  0.00    +0.000 A 
ATOM      6  C   UNL     1      63.441  66.302  71.578  0.00  0.00    +0.000 A 
ATOM      7  I   UNL     1      63.805  67.017  71.772  0.00  0.00    +0.000 I 
ATOM      8  C   UNL     1      63.794  65.793  71.034  0.00  0.00    +0.000 A 
ATOM      9  C   UNL     1      64.512  65.999  70.682  0.00  0.00    +0.000 C 
ATOM     10  O   UNL     1      64.866  65.491  70.138  0.00  0.00    +0.000 OA
ATOM     11  O   UNL     1      64.876  66.714  70.876  0.00  0.00    +0.000 OA
ATOM     12  C   UNL     1      63.430  65.078  70.839  0.00  0.00    +0.000 A 
ATOM     13  I   UNL     1      63.783  64.570  70.295  0.00  0.00    +0.000 I 
ATOM     14  C   UNL     1      62.713  64.873  71.191  0.00  0.00    +0.000 A 
ATOM     15  C   UNL     1      62.349  64.158  70.997  0.00  0.00    +0.000 C 
ATOM     16  O   UNL     1      62.702  63.650  70.452  0.00  0.00    +0.000 OA
ATOM     17  N   UNL     1      61.631  63.952  71.348  0.00  0.00    +0.000 NA
ATOM     18  C   UNL     1      61.267  63.238  71.154  0.00  0.00    +0.000 C 
ATOM     19  C   UNL     1      60.549  63.032  71.505  0.00  0.00    +0.000 C 
ATOM     20  O   UNL     1      60.186  62.317  71.311  0.00  0.00    +0.000 OA
ATOM     21  C   UNL     1      62.359  65.382  71.736  0.00  0.00    +0.000 A 
ATOM     22  I   UNL     1      61.642  65.176  72.086  0.00  0.00    +0.000 I 
ENDROOT
TORSDOF 0
ENDMDL
MODEL 9
REMARK VINA RESULT:    -8.748      2.401      3.405
REMARK INTER + INTRA:          -8.748
REMARK INTER:                  -8.748
REMARK INTRA:                   0.000
REMARK UNBOUND:                 0.000
ROOT
REMARK  Name = ioxitalamic acid
REMARK                            x       y       z     vdW  Elec       q    Type
REMARK                         _______ _______ _______ _____ _____    ______ ____
ATOM      1  C   UNL     1      64.171  66.431  71.740  0.00  0.00    +0.000 C 
ATOM      2  C   UNL     1      63.685  65.954  71.274  0.00  0.00    +0.000 C 
ATOM      3  O   UNL     1      63.996  65.565  70.616  0.00  0.00    +0.000 OA
ATOM      4  N   UNL     1      62.887  65.865  71.468  0.00  0.00    +0.000 NA
ATOM      5  C   UNL     1      62.400  65.387  71.002  0.00  0.00    +0.000 A 
ATOM      6  C   UNL     1      62.712  64.999  70.344  0.00  0.00    +0.000 A 
ATOM      7  I   UNL     1      63.509  65.087  70.151  0.00  0.00    +0.000 I 
ATOM      8  C   UNL     1      62.226  64.522  69.879  0.00  0.00    +0.000 A 
ATOM      9  C   UNL     1      62.537  64.133  69.220  0.00  0.00    +0.000 C 
ATOM     10  O   UNL     1      62.051  63.656  68.756  0.00  0.00    +0.000 OA
ATOM     11  O   UNL     1      63.334  64.222  69.028  0.00  0.00    +0.000 OA
ATOM     12  C   UNL     1      61.428  64.433  70.072  0.00  0.00    +0.000 A 
ATOM     13  I   UNL     1      60.942  63.956  69.607  0.00  0.00    +0.000 I 
ATOM     14  C   UNL     1      61.118  64.822  70.730  0.00  0.00    +0.000 A 
ATOM     15  C   UNL     1      60.320  64.733  70.922  0.00  0.00    +0.000 C 
ATOM     16  O   UNL     1      59.835  64.256  70.457  0.00  0.00    +0.000 OA
ATOM     17  N   UNL     1      60.009  65.121  71.581  0.00  0.00    +0.000 NA
ATOM     18  C   UNL     1      59.212  65.032  71.773  0.00  0.00    +0.000 C 
ATOM     19  C   UNL     1      58.901  65.421  72.431  0.00  0.00    +0.000 C 
ATOM     20  O   UNL     1      58.104  65.332  72.624  0.00  0.00    +0.000 OA
ATOM     21  C   UNL     1      61.604  65.299  71.195  0.00  0.00    +0.000 A 
ATOM     22  I   UNL     1      61.293  65.687  71.852  0.00  0.00    +0.000 I 
ENDROOT
TORSDOF 0
ENDMDL
