MODEL 1
REMARK VINA RESULT:   -12.933      0.000      0.000
REMARK INTER + INTRA:         -12.933
REMARK INTER:                 -12.933
REMARK INTRA:                   0.000
REMARK UNBOUND:                 0.000
ROOT
REMARK  Name = ipratropium
REMARK                            x       y       z     vdW  Elec       q    Type
REMARK                         _______ _______ _______ _____ _____    ______ ____
ATOM      1  C   UNL     1      60.504  61.004  64.594  0.00  0.00    +0.000 C 
ATOM      2  C   UNL     1      60.950  61.582  65.232  0.00  0.00    +0.000 C 
ATOM      3  C   UNL     1      60.491  61.569  65.947  0.00  0.00    +0.000 C 
ATOM      4  N   UNL     1      61.787  61.891  64.599  0.00  0.00    +0.000 N 
ATOM      5  C   UNL     1      61.681  62.246  65.608  0.00  0.00    +0.000 C 
ATOM      6  C   UNL     1      61.254  61.299  64.071  0.00  0.00    +0.000 C 
ATOM      7  C   UNL     1      61.922  61.596  63.686  0.00  0.00    +0.000 C 
ATOM      8  C   UNL     1      62.494  62.114  63.976  0.00  0.00    +0.000 C 
ATOM      9  C   UNL     1      62.541  62.463  64.722  0.00  0.00    +0.000 C 
ATOM     10  C   UNL     1      62.027  62.380  65.362  0.00  0.00    +0.000 C 
ATOM     11  C   UNL     1      61.339  61.928  65.414  0.00  0.00    +0.000 C 
ATOM     12  C   UNL     1      60.995  61.447  64.840  0.00  0.00    +0.000 C 
ATOM     13  O   UNL     1      60.908  61.993  66.268  0.00  0.00    +0.000 OA
ATOM     14  C   UNL     1      61.062  62.421  67.024  0.00  0.00    +0.000 C 
ATOM     15  O   UNL     1      61.740  62.741  66.678  0.00  0.00    +0.000 OA
ATOM     16  C   UNL     1      60.862  62.617  67.812  0.00  0.00    +0.000 C 
ATOM     17  C   UNL     1      60.133  62.201  68.016  0.00  0.00    +0.000 C 
ATOM     18  O   UNL     1      59.803  62.291  68.766  0.00  0.00    +0.000 OA
ATOM     19  C   UNL     1      61.228  63.106  68.368  0.00  0.00    +0.000 A 
ATOM     20  C   UNL     1      60.897  63.196  69.118  0.00  0.00    +0.000 A 
ATOM     21  C   UNL     1      61.262  63.684  69.674  0.00  0.00    +0.000 A 
ATOM     22  C   UNL     1      61.958  64.082  69.480  0.00  0.00    +0.000 A 
ATOM     23  C   UNL     1      62.289  63.991  68.728  0.00  0.00    +0.000 A 
ATOM     24  C   UNL     1      61.924  63.503  68.173  0.00  0.00    +0.000 A 
ENDROOT
TORSDOF 0
ENDMDL
MODEL 2
REMARK VINA RESULT:   -12.438      1.234      4.181
REMARK INTER + INTRA:         -12.438
REMARK INTER:                 -12.438
REMARK INTRA:                   0.000
REMARK UNBOUND:                 0.000
ROOT
REMARK  Name = ipratropium
REMARK                            x       y       z     vdW  Elec       q    Type
REMARK                         _______ _______ _______ _____ _____    ______ ____
ATOM      1  C   UNL     1      60.094  63.723  69.570  0.00  0.00    +0.000 C 
ATOM      2  C   UNL     1      60.659  63.502  68.814  0.00  0.00    +0.000 C 
ATOM      3  C   UNL     1      60.172  63.101  68.244  0.00  0.00    +0.000 C 
ATOM      4  N   UNL     1      61.594  63.925  69.193  0.00  0.00    +0.000 N 
ATOM      5  C   UNL     1      61.539  63.445  68.232  0.00  0.00    +0.000 C 
ATOM      6  C   UNL     1      60.935  64.082  69.867  0.00  0.00    +0.000 C 
ATOM      7  C   UNL     1      61.689  64.364  70.051  0.00  0.00    +0.000 C 
ATOM      8  C   UNL     1      62.378  64.322  69.600  0.00  0.00    +0.000 C 
ATOM      9  C   UNL     1      62.484  63.988  68.853  0.00  0.00    +0.000 C 
ATOM     10  C   UNL     1      61.927  63.613  68.374  0.00  0.00    +0.000 C 
ATOM     11  C   UNL     1      61.127  63.480  68.522  0.00  0.00    +0.000 C 
ATOM     12  C   UNL     1      60.685  63.689  69.186  0.00  0.00    +0.000 C 
ATOM     13  O   UNL     1      60.681  63.021  67.808  0.00  0.00    +0.000 OA
ATOM     14  C   UNL     1      60.913  62.698  67.020  0.00  0.00    +0.000 C 
ATOM     15  O   UNL     1      61.682  62.964  67.164  0.00  0.00    +0.000 OA
ATOM     16  C   UNL     1      60.734  62.306  66.304  0.00  0.00    +0.000 C 
ATOM     17  C   UNL     1      59.896  62.097  66.315  0.00  0.00    +0.000 C 
ATOM     18  O   UNL     1      59.561  61.701  65.674  0.00  0.00    +0.000 OA
ATOM     19  C   UNL     1      61.200  62.109  65.651  0.00  0.00    +0.000 A 
ATOM     20  C   UNL     1      60.865  61.713  65.010  0.00  0.00    +0.000 A 
ATOM     21  C   UNL     1      61.330  61.516  64.358  0.00  0.00    +0.000 A 
ATOM     22  C   UNL     1      62.131  61.715  64.347  0.00  0.00    +0.000 A 
ATOM     23  C   UNL     1      62.465  62.112  64.989  0.00  0.00    +0.000 A 
ATOM     24  C   UNL     1      62.000  62.309  65.641  0.00  0.00    +0.000 A 
ENDROOT
TORSDOF 0
ENDMDL
MODEL 3
REMARK VINA RESULT:   -12.416      0.953      1.571
REMARK INTER + INTRA:         -12.416
REMARK INTER:                 -12.416
REMARK INTRA:                   0.000
REMARK UNBOUND:                 0.000
ROOT
REMARK  Name = ipratropium
REMARK                            x       y       z     vdW  Elec       q    Type
REMARK                         _______ _______ _______ _____ _____    ______ ____
ATOM      1  C   UNL     1      59.496  62.002  66.081  0.00  0.00    +0.000 C 
ATOM      2  C   UNL     1      60.247  62.361  66.577  0.00  0.00    +0.000 C 
ATOM      3  C   UNL     1      59.937  62.701  67.292  0.00  0.00    +0.000 C 
ATOM      4  N   UNL     1      61.040  62.090  65.874  0.00  0.00    +0.000 N 
ATOM      5  C   UNL     1      61.253  62.605  66.794  0.00  0.00    +0.000 C 
ATOM      6  C   UNL     1      60.221  61.781  65.490  0.00  0.00    +0.000 C 
ATOM      7  C   UNL     1      60.894  61.626  65.036  0.00  0.00    +0.000 C 
ATOM      8  C   UNL     1      61.680  61.815  65.201  0.00  0.00    +0.000 C 
ATOM      9  C   UNL     1      61.988  62.203  65.860  0.00  0.00    +0.000 C 
ATOM     10  C   UNL     1      61.586  62.500  66.516  0.00  0.00    +0.000 C 
ATOM     11  C   UNL     1      60.777  62.482  66.676  0.00  0.00    +0.000 C 
ATOM     12  C   UNL     1      60.170  62.161  66.219  0.00  0.00    +0.000 C 
ATOM     13  O   UNL     1      60.546  62.895  67.510  0.00  0.00    +0.000 OA
ATOM     14  C   UNL     1      60.987  63.296  68.161  0.00  0.00    +0.000 C 
ATOM     15  O   UNL     1      61.685  63.162  67.740  0.00  0.00    +0.000 OA
ATOM     16  C   UNL     1      61.013  63.691  68.898  0.00  0.00    +0.000 C 
ATOM     17  C   UNL     1      60.205  63.747  69.200  0.00  0.00    +0.000 C 
ATOM     18  O   UNL     1      60.061  64.113  69.925  0.00  0.00    +0.000 OA
ATOM     19  C   UNL     1      61.640  64.003  69.335  0.00  0.00    +0.000 A 
ATOM     20  C   UNL     1      61.495  64.369  70.060  0.00  0.00    +0.000 A 
ATOM     21  C   UNL     1      62.122  64.681  70.496  0.00  0.00    +0.000 A 
ATOM     22  C   UNL     1      62.893  64.627  70.208  0.00  0.00    +0.000 A 
ATOM     23  C   UNL     1      63.037  64.260  69.482  0.00  0.00    +0.000 A 
ATOM     24  C   UNL     1      62.410  63.948  69.046  0.00  0.00    +0.000 A 
ENDROOT
TORSDOF 0
ENDMDL
MODEL 4
REMARK VINA RESULT:   -12.356      4.986      6.446
REMARK INTER + INTRA:         -12.356
REMARK INTER:                 -12.356
REMARK INTRA:                   0.000
REMARK UNBOUND:                 0.000
ROOT
REMARK  Name = ipratropium
REMARK                            x       y       z     vdW  Elec       q    Type
REMARK                         _______ _______ _______ _____ _____    ______ ____
ATOM      1  C   UNL     1      61.680  62.953  70.818  0.00  0.00    +0.000 C 
ATOM      2  C   UNL     1      62.191  63.732  71.086  0.00  0.00    +0.000 C 
ATOM      3  C   UNL     1      62.743  63.897  70.462  0.00  0.00    +0.000 C 
ATOM      4  N   UNL     1      61.711  63.905  72.053  0.00  0.00    +0.000 N 
ATOM      5  C   UNL     1      62.502  64.539  71.694  0.00  0.00    +0.000 C 
ATOM      6  C   UNL     1      61.284  63.138  71.675  0.00  0.00    +0.000 C 
ATOM      7  C   UNL     1      60.995  63.361  72.416  0.00  0.00    +0.000 C 
ATOM      8  C   UNL     1      61.236  63.990  72.893  0.00  0.00    +0.000 C 
ATOM      9  C   UNL     1      61.823  64.550  72.748  0.00  0.00    +0.000 C 
ATOM     10  C   UNL     1      62.315  64.621  72.090  0.00  0.00    +0.000 C 
ATOM     11  C   UNL     1      62.342  64.149  71.415  0.00  0.00    +0.000 C 
ATOM     12  C   UNL     1      61.883  63.489  71.230  0.00  0.00    +0.000 C 
ATOM     13  O   UNL     1      63.004  64.432  70.782  0.00  0.00    +0.000 OA
ATOM     14  C   UNL     1      63.602  65.079  70.737  0.00  0.00    +0.000 C 
ATOM     15  O   UNL     1      63.344  65.337  71.478  0.00  0.00    +0.000 OA
ATOM     16  C   UNL     1      64.218  65.487  70.344  0.00  0.00    +0.000 C 
ATOM     17  C   UNL     1      64.362  65.091  69.590  0.00  0.00    +0.000 C 
ATOM     18  O   UNL     1      64.945  65.376  69.081  0.00  0.00    +0.000 OA
ATOM     19  C   UNL     1      64.662  66.150  70.555  0.00  0.00    +0.000 A 
ATOM     20  C   UNL     1      65.245  66.434  70.046  0.00  0.00    +0.000 A 
ATOM     21  C   UNL     1      65.690  67.096  70.256  0.00  0.00    +0.000 A 
ATOM     22  C   UNL     1      65.552  67.474  70.976  0.00  0.00    +0.000 A 
ATOM     23  C   UNL     1      64.968  67.189  71.486  0.00  0.00    +0.000 A 
ATOM     24  C   UNL     1      64.523  66.527  71.275  0.00  0.00    +0.000 A 
ENDROOT
TORSDOF 0
ENDMDL
MODEL 5
REMARK VINA RESULT:   -12.315      4.629      6.495
REMARK INTER + INTRA:         -12.315
REMARK INTER:                 -12.315
REMARK INTRA:                   0.000
REMARK UNBOUND:                 0.000
ROOT
REMARK  Name = ipratropium
REMARK                            x       y       z     vdW  Elec       q    Type
REMARK                         _______ _______ _______ _____ _____    ______ ____
ATOM      1  C   UNL     1      65.018  66.432  69.465  0.00  0.00    +0.000 C 
ATOM      2  C   UNL     1      64.483  66.050  70.177  0.00  0.00    +0.000 C 
ATOM      3  C   UNL     1      63.966  65.475  69.824  0.00  0.00    +0.000 C 
ATOM      4  N   UNL     1      64.902  66.624  71.009  0.00  0.00    +0.000 N 
ATOM      5  C   UNL     1      64.126  65.895  71.160  0.00  0.00    +0.000 C 
ATOM      6  C   UNL     1      65.360  66.916  70.223  0.00  0.00    +0.000 C 
ATOM      7  C   UNL     1      65.601  67.289  70.919  0.00  0.00    +0.000 C 
ATOM      8  C   UNL     1      65.325  67.171  71.687  0.00  0.00    +0.000 C 
ATOM      9  C   UNL     1      64.740  66.652  71.950  0.00  0.00    +0.000 C 
ATOM     10  C   UNL     1      64.287  66.122  71.509  0.00  0.00    +0.000 C 
ATOM     11  C   UNL     1      64.307  65.980  70.696  0.00  0.00    +0.000 C 
ATOM     12  C   UNL     1      64.784  66.334  70.124  0.00  0.00    +0.000 C 
ATOM     13  O   UNL     1      63.680  65.312  70.413  0.00  0.00    +0.000 OA
ATOM     14  C   UNL     1      63.078  64.802  70.808  0.00  0.00    +0.000 C 
ATOM     15  O   UNL     1      63.288  65.149  71.527  0.00  0.00    +0.000 OA
ATOM     16  C   UNL     1      62.482  64.215  70.785  0.00  0.00    +0.000 C 
ATOM     17  C   UNL     1      62.387  63.961  69.965  0.00  0.00    +0.000 C 
ATOM     18  O   UNL     1      61.832  63.381  69.775  0.00  0.00    +0.000 OA
ATOM     19  C   UNL     1      62.017  63.879  71.378  0.00  0.00    +0.000 A 
ATOM     20  C   UNL     1      61.462  63.299  71.188  0.00  0.00    +0.000 A 
ATOM     21  C   UNL     1      60.998  62.963  71.781  0.00  0.00    +0.000 A 
ATOM     22  C   UNL     1      61.088  63.205  72.564  0.00  0.00    +0.000 A 
ATOM     23  C   UNL     1      61.643  63.786  72.754  0.00  0.00    +0.000 A 
ATOM     24  C   UNL     1      62.108  64.123  72.161  0.00  0.00    +0.000 A 
ENDROOT
TORSDOF 0
ENDMDL
MODEL 6
REMARK VINA RESULT:   -12.309      2.816      5.706
REMARK INTER + INTRA:         -12.309
REMARK INTER:                 -12.309
REMARK INTRA:                   0.000
REMARK UNBOUND:                 0.000
ROOT
REMARK  Name = ipratropium
REMARK                            x       y       z     vdW  Elec       q    Type
REMARK                         _______ _______ _______ _____ _____    ______ ____
ATOM      1  C   UNL     1      61.258  63.574  72.819  0.00  0.00    +0.000 C 
ATOM      2  C   UNL     1      61.197  63.105  71.973  0.00  0.00    +0.000 C 
ATOM      3  C   UNL     1      60.848  63.641  71.413  0.00  0.00    +0.000 C 
ATOM      4  N   UNL     1      61.633  62.154  72.292  0.00  0.00    +0.000 N 
ATOM      5  C   UNL     1      61.298  62.311  71.282  0.00  0.00    +0.000 C 
ATOM      6  C   UNL     1      61.635  62.723  73.060  0.00  0.00    +0.000 C 
ATOM      7  C   UNL     1      61.946  61.969  73.190  0.00  0.00    +0.000 C 
ATOM      8  C   UNL     1      62.027  61.346  72.654  0.00  0.00    +0.000 C 
ATOM      9  C   UNL     1      61.817  61.324  71.857  0.00  0.00    +0.000 C 
ATOM     10  C   UNL     1      61.474  61.918  71.399  0.00  0.00    +0.000 C 
ATOM     11  C   UNL     1      61.257  62.681  71.624  0.00  0.00    +0.000 C 
ATOM     12  C   UNL     1      61.328  63.039  72.363  0.00  0.00    +0.000 C 
ATOM     13  O   UNL     1      60.874  63.192  70.909  0.00  0.00    +0.000 OA
ATOM     14  C   UNL     1      60.692  63.051  70.056  0.00  0.00    +0.000 C 
ATOM     15  O   UNL     1      60.994  62.287  70.142  0.00  0.00    +0.000 OA
ATOM     16  C   UNL     1      60.397  63.303  69.316  0.00  0.00    +0.000 C 
ATOM     17  C   UNL     1      60.122  64.117  69.400  0.00  0.00    +0.000 C 
ATOM     18  O   UNL     1      59.800  64.512  68.751  0.00  0.00    +0.000 OA
ATOM     19  C   UNL     1      60.337  62.920  68.587  0.00  0.00    +0.000 A 
ATOM     20  C   UNL     1      60.015  63.315  67.939  0.00  0.00    +0.000 A 
ATOM     21  C   UNL     1      59.955  62.933  67.211  0.00  0.00    +0.000 A 
ATOM     22  C   UNL     1      60.217  62.155  67.130  0.00  0.00    +0.000 A 
ATOM     23  C   UNL     1      60.540  61.759  67.779  0.00  0.00    +0.000 A 
ATOM     24  C   UNL     1      60.599  62.142  68.507  0.00  0.00    +0.000 A 
ENDROOT
TORSDOF 0
ENDMDL
MODEL 7
REMARK VINA RESULT:   -11.379      4.828      7.058
REMARK INTER + INTRA:         -11.379
REMARK INTER:                 -11.379
REMARK INTRA:                   0.000
REMARK UNBOUND:                 0.000
ROOT
REMARK  Name = ipratropium
REMARK                            x       y       z     vdW  Elec       q    Type
REMARK                         _______ _______ _______ _____ _____    ______ ____
ATOM      1  C   UNL     1      66.113  66.756  72.037  0.00  0.00    +0.000 C 
ATOM      2  C   UNL     1      65.419  66.601  71.378  0.00  0.00    +0.000 C 
ATOM      3  C   UNL     1      64.806  66.152  71.759  0.00  0.00    +0.000 C 
ATOM      4  N   UNL     1      65.885  67.122  70.537  0.00  0.00    +0.000 N 
ATOM      5  C   UNL     1      64.927  66.644  70.443  0.00  0.00    +0.000 C 
ATOM      6  C   UNL     1      66.489  67.204  71.273  0.00  0.00    +0.000 C 
ATOM      7  C   UNL     1      66.745  67.567  70.577  0.00  0.00    +0.000 C 
ATOM      8  C   UNL     1      66.365  67.602  69.846  0.00  0.00    +0.000 C 
ATOM      9  C   UNL     1      65.635  67.285  69.630  0.00  0.00    +0.000 C 
ATOM     10  C   UNL     1      65.105  66.853  70.092  0.00  0.00    +0.000 C 
ATOM     11  C   UNL     1      65.174  66.632  70.884  0.00  0.00    +0.000 C 
ATOM     12  C   UNL     1      65.790  66.788  71.409  0.00  0.00    +0.000 C 
ATOM     13  O   UNL     1      64.423  66.129  71.203  0.00  0.00    +0.000 OA
ATOM     14  C   UNL     1      63.664  65.837  70.860  0.00  0.00    +0.000 C 
ATOM     15  O   UNL     1      63.881  66.186  70.143  0.00  0.00    +0.000 OA
ATOM     16  C   UNL     1      62.937  65.430  70.923  0.00  0.00    +0.000 C 
ATOM     17  C   UNL     1      62.866  65.131  71.730  0.00  0.00    +0.000 C 
ATOM     18  O   UNL     1      62.198  64.703  71.954  0.00  0.00    +0.000 OA
ATOM     19  C   UNL     1      62.335  65.288  70.376  0.00  0.00    +0.000 A 
ATOM     20  C   UNL     1      61.666  64.860  70.600  0.00  0.00    +0.000 A 
ATOM     21  C   UNL     1      61.065  64.719  70.054  0.00  0.00    +0.000 A 
ATOM     22  C   UNL     1      61.132  65.005  69.283  0.00  0.00    +0.000 A 
ATOM     23  C   UNL     1      61.802  65.433  69.059  0.00  0.00    +0.000 A 
ATOM     24  C   UNL     1      62.403  65.575  69.605  0.00  0.00    +0.000 A 
ENDROOT
TORSDOF 0
ENDMDL
MODEL 8
REMARK VINA RESULT:   -10.800     24.473     25.613
REMARK INTER + INTRA:         -10.800
REMARK INTER:                 -10.800
REMARK INTRA:                   0.000
REMARK UNBOUND:                 0.000
ROOT
REMARK  Name = ipratropium
REMARK                            x       y       z     vdW  Elec       q    Type
REMARK                         _______ _______ _______ _____ _____    ______ ____
ATOM      1  C   UNL     1      70.814  78.787  48.144  0.00  0.00    +0.000 C 
ATOM      2  C   UNL     1      70.997  79.210  48.997  0.00  0.00    +0.000 C 
ATOM      3  C   UNL     1      70.252  79.313  49.392  0.00  0.00    +0.000 C 
ATOM      4  N   UNL     1      72.084  79.286  48.900  0.00  0.00    +0.000 N 
ATOM      5  C   UNL     1      71.570  79.640  49.775  0.00  0.00    +0.000 C 
ATOM      6  C   UNL     1      71.771  78.872  48.098  0.00  0.00    +0.000 C 
ATOM      7  C   UNL     1      72.589  78.979  48.131  0.00  0.00    +0.000 C 
ATOM      8  C   UNL     1      73.039  79.315  48.736  0.00  0.00    +0.000 C 
ATOM      9  C   UNL     1      72.783  79.626  49.456  0.00  0.00    +0.000 C 
ATOM     10  C   UNL     1      72.013  79.678  49.749  0.00  0.00    +0.000 C 
ATOM     11  C   UNL     1      71.310  79.432  49.395  0.00  0.00    +0.000 C 
ATOM     12  C   UNL     1      71.202  79.074  48.660  0.00  0.00    +0.000 C 
ATOM     13  O   UNL     1      70.536  79.600  49.934  0.00  0.00    +0.000 OA
ATOM     14  C   UNL     1      70.381  79.957  50.727  0.00  0.00    +0.000 C 
ATOM     15  O   UNL     1      71.194  80.083  50.802  0.00  0.00    +0.000 OA
ATOM     16  C   UNL     1      69.864  80.189  51.341  0.00  0.00    +0.000 C 
ATOM     17  C   UNL     1      69.058  79.987  51.103  0.00  0.00    +0.000 C 
ATOM     18  O   UNL     1      68.426  80.153  51.606  0.00  0.00    +0.000 OA
ATOM     19  C   UNL     1      70.000  80.548  52.071  0.00  0.00    +0.000 A 
ATOM     20  C   UNL     1      69.368  80.715  52.574  0.00  0.00    +0.000 A 
ATOM     21  C   UNL     1      69.505  81.074  53.304  0.00  0.00    +0.000 A 
ATOM     22  C   UNL     1      70.274  81.267  53.531  0.00  0.00    +0.000 A 
ATOM     23  C   UNL     1      70.907  81.100  53.027  0.00  0.00    +0.000 A 
ATOM     24  C   UNL     1      70.770  80.741  52.298  0.00  0.00    +0.000 A 
ENDROOT
TORSDOF 0
ENDMDL
