MODEL 1
REMARK VINA RESULT:   -13.542      0.000      0.000
REMARK INTER + INTRA:         -13.542
REMARK INTER:                 -13.542
REMARK INTRA:                   0.000
REMARK UNBOUND:                 0.000
ROOT
REMARK  Name = ipragliflozin
REMARK                            x       y       z     vdW  Elec       q    Type
REMARK                         _______ _______ _______ _____ _____    ______ ____
ATOM      1  O   UNL     1      63.028  65.237  70.785  0.00  0.00    +0.000 OA
ATOM      2  C   UNL     1      62.851  64.826  70.091  0.00  0.00    +0.000 C 
ATOM      3  C   UNL     1      62.171  64.362  70.050  0.00  0.00    +0.000 C 
ATOM      4  O   UNL     1      61.995  63.951  69.356  0.00  0.00    +0.000 OA
ATOM      5  C   UNL     1      61.314  63.486  69.314  0.00  0.00    +0.000 C 
ATOM      6  C   UNL     1      60.811  63.432  69.965  0.00  0.00    +0.000 C 
ATOM      7  O   UNL     1      60.130  62.967  69.923  0.00  0.00    +0.000 OA
ATOM      8  C   UNL     1      60.988  63.843  70.659  0.00  0.00    +0.000 C 
ATOM      9  O   UNL     1      60.484  63.788  71.310  0.00  0.00    +0.000 OA
ATOM     10  C   UNL     1      61.667  64.307  70.701  0.00  0.00    +0.000 C 
ATOM     11  O   UNL     1      61.844  64.718  71.394  0.00  0.00    +0.000 OA
ATOM     12  C   UNL     1      61.137  63.076  68.621  0.00  0.00    +0.000 A 
ATOM     13  C   UNL     1      61.641  63.130  67.969  0.00  0.00    +0.000 A 
ATOM     14  C   UNL     1      61.464  62.720  67.276  0.00  0.00    +0.000 A 
ATOM     15  C   UNL     1      61.967  62.773  66.624  0.00  0.00    +0.000 C 
ATOM     16  C   UNL     1      61.790  62.363  65.931  0.00  0.00    +0.000 A 
ATOM     17  C   UNL     1      61.134  61.879  65.808  0.00  0.00    +0.000 A 
ATOM     18  C   UNL     1      61.177  61.582  65.040  0.00  0.00    +0.000 A 
ATOM     19  C   UNL     1      61.860  61.881  64.688  0.00  0.00    +0.000 A 
ATOM     20  S   UNL     1      62.240  62.364  65.239  0.00  0.00    +0.000 S 
ATOM     21  C   UNL     1      62.048  61.675  63.912  0.00  0.00    +0.000 A 
ATOM     22  C   UNL     1      61.554  61.170  63.487  0.00  0.00    +0.000 A 
ATOM     23  C   UNL     1      60.870  60.871  63.839  0.00  0.00    +0.000 A 
ATOM     24  C   UNL     1      60.681  61.076  64.615  0.00  0.00    +0.000 A 
ATOM     25  C   UNL     1      60.783  62.254  67.234  0.00  0.00    +0.000 A 
ATOM     26  F   UNL     1      60.606  61.844  66.540  0.00  0.00    +0.000 F 
ATOM     27  C   UNL     1      60.280  62.201  67.885  0.00  0.00    +0.000 A 
ATOM     28  C   UNL     1      60.457  62.611  68.579  0.00  0.00    +0.000 A 
ENDROOT
TORSDOF 0
ENDMDL
MODEL 2
REMARK VINA RESULT:   -13.398      1.436      1.906
REMARK INTER + INTRA:         -13.398
REMARK INTER:                 -13.398
REMARK INTRA:                   0.000
REMARK UNBOUND:                 0.000
ROOT
REMARK  Name = ipragliflozin
REMARK                            x       y       z     vdW  Elec       q    Type
REMARK                         _______ _______ _______ _____ _____    ______ ____
ATOM      1  O   UNL     1      59.356  66.562  71.145  0.00  0.00    +0.000 OA
ATOM      2  C   UNL     1      59.624  66.053  70.554  0.00  0.00    +0.000 C 
ATOM      3  C   UNL     1      59.737  65.253  70.720  0.00  0.00    +0.000 C 
ATOM      4  O   UNL     1      60.006  64.744  70.129  0.00  0.00    +0.000 OA
ATOM      5  C   UNL     1      60.119  63.943  70.294  0.00  0.00    +0.000 C 
ATOM      6  C   UNL     1      59.964  63.653  71.050  0.00  0.00    +0.000 C 
ATOM      7  O   UNL     1      60.077  62.851  71.215  0.00  0.00    +0.000 OA
ATOM      8  C   UNL     1      59.695  64.162  71.641  0.00  0.00    +0.000 C 
ATOM      9  O   UNL     1      59.540  63.870  72.397  0.00  0.00    +0.000 OA
ATOM     10  C   UNL     1      59.582  64.961  71.476  0.00  0.00    +0.000 C 
ATOM     11  O   UNL     1      59.314  65.471  72.067  0.00  0.00    +0.000 OA
ATOM     12  C   UNL     1      60.388  63.434  69.703  0.00  0.00    +0.000 A 
ATOM     13  C   UNL     1      60.543  63.726  68.947  0.00  0.00    +0.000 A 
ATOM     14  C   UNL     1      60.811  63.217  68.356  0.00  0.00    +0.000 A 
ATOM     15  C   UNL     1      60.967  63.507  67.599  0.00  0.00    +0.000 C 
ATOM     16  C   UNL     1      61.236  62.998  67.008  0.00  0.00    +0.000 A 
ATOM     17  C   UNL     1      61.374  62.189  67.091  0.00  0.00    +0.000 A 
ATOM     18  C   UNL     1      61.636  61.900  66.365  0.00  0.00    +0.000 A 
ATOM     19  C   UNL     1      61.661  62.530  65.833  0.00  0.00    +0.000 A 
ATOM     20  S   UNL     1      61.413  63.209  66.230  0.00  0.00    +0.000 S 
ATOM     21  C   UNL     1      61.906  62.404  65.055  0.00  0.00    +0.000 A 
ATOM     22  C   UNL     1      62.126  61.649  64.809  0.00  0.00    +0.000 A 
ATOM     23  C   UNL     1      62.102  61.018  65.341  0.00  0.00    +0.000 A 
ATOM     24  C   UNL     1      61.857  61.143  66.119  0.00  0.00    +0.000 A 
ATOM     25  C   UNL     1      60.925  62.416  68.521  0.00  0.00    +0.000 A 
ATOM     26  F   UNL     1      61.193  61.906  67.930  0.00  0.00    +0.000 F 
ATOM     27  C   UNL     1      60.769  62.125  69.277  0.00  0.00    +0.000 A 
ATOM     28  C   UNL     1      60.501  62.634  69.868  0.00  0.00    +0.000 A 
ENDROOT
TORSDOF 0
ENDMDL
MODEL 3
REMARK VINA RESULT:   -13.311      2.656      5.744
REMARK INTER + INTRA:         -13.311
REMARK INTER:                 -13.311
REMARK INTRA:                   0.000
REMARK UNBOUND:                 0.000
ROOT
REMARK  Name = ipragliflozin
REMARK                            x       y       z     vdW  Elec       q    Type
REMARK                         _______ _______ _______ _____ _____    ______ ____
ATOM      1  O   UNL     1      60.614  62.676  66.791  0.00  0.00    +0.000 OA
ATOM      2  C   UNL     1      61.148  63.124  67.232  0.00  0.00    +0.000 C 
ATOM      3  C   UNL     1      61.169  63.050  68.053  0.00  0.00    +0.000 C 
ATOM      4  O   UNL     1      61.703  63.498  68.494  0.00  0.00    +0.000 OA
ATOM      5  C   UNL     1      61.725  63.423  69.316  0.00  0.00    +0.000 C 
ATOM      6  C   UNL     1      61.211  62.901  69.695  0.00  0.00    +0.000 C 
ATOM      7  O   UNL     1      61.232  62.827  70.518  0.00  0.00    +0.000 OA
ATOM      8  C   UNL     1      60.677  62.453  69.254  0.00  0.00    +0.000 C 
ATOM      9  O   UNL     1      60.164  61.931  69.635  0.00  0.00    +0.000 OA
ATOM     10  C   UNL     1      60.656  62.528  68.434  0.00  0.00    +0.000 C 
ATOM     11  O   UNL     1      60.122  62.080  67.992  0.00  0.00    +0.000 OA
ATOM     12  C   UNL     1      62.259  63.871  69.757  0.00  0.00    +0.000 A 
ATOM     13  C   UNL     1      62.772  64.393  69.376  0.00  0.00    +0.000 A 
ATOM     14  C   UNL     1      63.306  64.841  69.817  0.00  0.00    +0.000 A 
ATOM     15  C   UNL     1      63.820  65.364  69.438  0.00  0.00    +0.000 C 
ATOM     16  C   UNL     1      64.354  65.811  69.879  0.00  0.00    +0.000 A 
ATOM     17  C   UNL     1      64.438  65.796  70.699  0.00  0.00    +0.000 A 
ATOM     18  C   UNL     1      65.034  66.328  70.904  0.00  0.00    +0.000 A 
ATOM     19  C   UNL     1      65.318  66.673  70.211  0.00  0.00    +0.000 A 
ATOM     20  S   UNL     1      64.898  66.354  69.577  0.00  0.00    +0.000 S 
ATOM     21  C   UNL     1      65.923  67.233  70.246  0.00  0.00    +0.000 A 
ATOM     22  C   UNL     1      66.243  67.448  70.975  0.00  0.00    +0.000 A 
ATOM     23  C   UNL     1      65.959  67.104  71.668  0.00  0.00    +0.000 A 
ATOM     24  C   UNL     1      65.354  66.544  71.634  0.00  0.00    +0.000 A 
ATOM     25  C   UNL     1      63.327  64.767  70.640  0.00  0.00    +0.000 A 
ATOM     26  F   UNL     1      63.861  65.215  71.081  0.00  0.00    +0.000 F 
ATOM     27  C   UNL     1      62.814  64.245  71.019  0.00  0.00    +0.000 A 
ATOM     28  C   UNL     1      62.280  63.797  70.578  0.00  0.00    +0.000 A 
ENDROOT
TORSDOF 0
ENDMDL
MODEL 4
REMARK VINA RESULT:   -12.911      2.425      5.418
REMARK INTER + INTRA:         -12.911
REMARK INTER:                 -12.911
REMARK INTRA:                   0.000
REMARK UNBOUND:                 0.000
ROOT
REMARK  Name = ipragliflozin
REMARK                            x       y       z     vdW  Elec       q    Type
REMARK                         _______ _______ _______ _____ _____    ______ ____
ATOM      1  O   UNL     1      62.401  62.077  64.254  0.00  0.00    +0.000 OA
ATOM      2  C   UNL     1      62.377  62.378  65.022  0.00  0.00    +0.000 C 
ATOM      3  C   UNL     1      61.699  62.284  65.480  0.00  0.00    +0.000 C 
ATOM      4  O   UNL     1      61.675  62.584  66.248  0.00  0.00    +0.000 OA
ATOM      5  C   UNL     1      60.995  62.490  66.708  0.00  0.00    +0.000 C 
ATOM      6  C   UNL     1      60.340  62.096  66.398  0.00  0.00    +0.000 C 
ATOM      7  O   UNL     1      59.660  62.002  66.857  0.00  0.00    +0.000 OA
ATOM      8  C   UNL     1      60.364  61.796  65.630  0.00  0.00    +0.000 C 
ATOM      9  O   UNL     1      59.708  61.402  65.321  0.00  0.00    +0.000 OA
ATOM     10  C   UNL     1      61.043  61.890  65.171  0.00  0.00    +0.000 C 
ATOM     11  O   UNL     1      61.066  61.590  64.403  0.00  0.00    +0.000 OA
ATOM     12  C   UNL     1      60.971  62.790  67.476  0.00  0.00    +0.000 A 
ATOM     13  C   UNL     1      61.627  63.184  67.785  0.00  0.00    +0.000 A 
ATOM     14  C   UNL     1      61.604  63.484  68.553  0.00  0.00    +0.000 A 
ATOM     15  C   UNL     1      62.259  63.878  68.863  0.00  0.00    +0.000 C 
ATOM     16  C   UNL     1      62.235  64.178  69.631  0.00  0.00    +0.000 A 
ATOM     17  C   UNL     1      61.598  64.127  70.152  0.00  0.00    +0.000 A 
ATOM     18  C   UNL     1      61.814  64.499  70.856  0.00  0.00    +0.000 A 
ATOM     19  C   UNL     1      62.584  64.780  70.769  0.00  0.00    +0.000 A 
ATOM     20  S   UNL     1      62.845  64.582  70.013  0.00  0.00    +0.000 S 
ATOM     21  C   UNL     1      62.949  65.181  71.392  0.00  0.00    +0.000 A 
ATOM     22  C   UNL     1      62.543  65.300  72.100  0.00  0.00    +0.000 A 
ATOM     23  C   UNL     1      61.773  65.018  72.186  0.00  0.00    +0.000 A 
ATOM     24  C   UNL     1      61.407  64.618  71.564  0.00  0.00    +0.000 A 
ATOM     25  C   UNL     1      60.924  63.390  69.012  0.00  0.00    +0.000 A 
ATOM     26  F   UNL     1      60.900  63.690  69.780  0.00  0.00    +0.000 F 
ATOM     27  C   UNL     1      60.269  62.996  68.702  0.00  0.00    +0.000 A 
ATOM     28  C   UNL     1      60.293  62.696  67.934  0.00  0.00    +0.000 A 
ENDROOT
TORSDOF 0
ENDMDL
MODEL 5
REMARK VINA RESULT:   -12.599      1.476      2.393
REMARK INTER + INTRA:         -12.599
REMARK INTER:                 -12.599
REMARK INTRA:                   0.000
REMARK UNBOUND:                 0.000
ROOT
REMARK  Name = ipragliflozin
REMARK                            x       y       z     vdW  Elec       q    Type
REMARK                         _______ _______ _______ _____ _____    ______ ____
ATOM      1  O   UNL     1      65.128  65.746  70.903  0.00  0.00    +0.000 OA
ATOM      2  C   UNL     1      64.574  65.367  70.422  0.00  0.00    +0.000 C 
ATOM      3  C   UNL     1      63.783  65.333  70.653  0.00  0.00    +0.000 C 
ATOM      4  O   UNL     1      63.230  64.955  70.173  0.00  0.00    +0.000 OA
ATOM      5  C   UNL     1      62.438  64.920  70.404  0.00  0.00    +0.000 C 
ATOM      6  C   UNL     1      62.201  65.264  71.115  0.00  0.00    +0.000 C 
ATOM      7  O   UNL     1      61.409  65.230  71.346  0.00  0.00    +0.000 OA
ATOM      8  C   UNL     1      62.754  65.643  71.595  0.00  0.00    +0.000 C 
ATOM      9  O   UNL     1      62.516  65.987  72.306  0.00  0.00    +0.000 OA
ATOM     10  C   UNL     1      63.545  65.677  71.364  0.00  0.00    +0.000 C 
ATOM     11  O   UNL     1      64.099  66.056  71.845  0.00  0.00    +0.000 OA
ATOM     12  C   UNL     1      61.884  64.541  69.923  0.00  0.00    +0.000 A 
ATOM     13  C   UNL     1      62.122  64.197  69.212  0.00  0.00    +0.000 A 
ATOM     14  C   UNL     1      61.568  63.819  68.732  0.00  0.00    +0.000 A 
ATOM     15  C   UNL     1      61.805  63.475  68.021  0.00  0.00    +0.000 C 
ATOM     16  C   UNL     1      61.252  63.096  67.540  0.00  0.00    +0.000 A 
ATOM     17  C   UNL     1      60.446  63.018  67.698  0.00  0.00    +0.000 A 
ATOM     18  C   UNL     1      60.103  62.603  67.073  0.00  0.00    +0.000 A 
ATOM     19  C   UNL     1      60.697  62.424  66.529  0.00  0.00    +0.000 A 
ATOM     20  S   UNL     1      61.407  62.729  66.818  0.00  0.00    +0.000 S 
ATOM     21  C   UNL     1      60.514  62.007  65.841  0.00  0.00    +0.000 A 
ATOM     22  C   UNL     1      59.738  61.769  65.697  0.00  0.00    +0.000 A 
ATOM     23  C   UNL     1      59.144  61.947  66.241  0.00  0.00    +0.000 A 
ATOM     24  C   UNL     1      59.326  62.365  66.929  0.00  0.00    +0.000 A 
ATOM     25  C   UNL     1      60.776  63.784  68.963  0.00  0.00    +0.000 A 
ATOM     26  F   UNL     1      60.223  63.406  68.482  0.00  0.00    +0.000 F 
ATOM     27  C   UNL     1      60.540  64.129  69.674  0.00  0.00    +0.000 A 
ATOM     28  C   UNL     1      61.093  64.507  70.154  0.00  0.00    +0.000 A 
ENDROOT
TORSDOF 0
ENDMDL
MODEL 6
REMARK VINA RESULT:   -12.514      3.754      5.170
REMARK INTER + INTRA:         -12.514
REMARK INTER:                 -12.514
REMARK INTRA:                   0.000
REMARK UNBOUND:                 0.000
ROOT
REMARK  Name = ipragliflozin
REMARK                            x       y       z     vdW  Elec       q    Type
REMARK                         _______ _______ _______ _____ _____    ______ ____
ATOM      1  O   UNL     1      66.549  66.940  72.414  0.00  0.00    +0.000 OA
ATOM      2  C   UNL     1      65.935  66.434  72.195  0.00  0.00    +0.000 C 
ATOM      3  C   UNL     1      65.632  66.461  71.429  0.00  0.00    +0.000 C 
ATOM      4  O   UNL     1      65.019  65.955  71.210  0.00  0.00    +0.000 OA
ATOM      5  C   UNL     1      64.715  65.981  70.443  0.00  0.00    +0.000 C 
ATOM      6  C   UNL     1      65.026  66.515  69.896  0.00  0.00    +0.000 C 
ATOM      7  O   UNL     1      64.722  66.542  69.128  0.00  0.00    +0.000 OA
ATOM      8  C   UNL     1      65.639  67.021  70.115  0.00  0.00    +0.000 C 
ATOM      9  O   UNL     1      65.949  67.554  69.566  0.00  0.00    +0.000 OA
ATOM     10  C   UNL     1      65.942  66.994  70.881  0.00  0.00    +0.000 C 
ATOM     11  O   UNL     1      66.556  67.500  71.100  0.00  0.00    +0.000 OA
ATOM     12  C   UNL     1      64.102  65.475  70.224  0.00  0.00    +0.000 A 
ATOM     13  C   UNL     1      63.792  64.942  70.772  0.00  0.00    +0.000 A 
ATOM     14  C   UNL     1      63.179  64.436  70.553  0.00  0.00    +0.000 A 
ATOM     15  C   UNL     1      62.868  63.902  71.100  0.00  0.00    +0.000 C 
ATOM     16  C   UNL     1      62.255  63.396  70.881  0.00  0.00    +0.000 A 
ATOM     17  C   UNL     1      61.897  63.360  70.139  0.00  0.00    +0.000 A 
ATOM     18  C   UNL     1      61.313  62.779  70.165  0.00  0.00    +0.000 A 
ATOM     19  C   UNL     1      61.309  62.455  70.924  0.00  0.00    +0.000 A 
ATOM     20  S   UNL     1      61.891  62.837  71.367  0.00  0.00    +0.000 S 
ATOM     21  C   UNL     1      60.775  61.855  71.114  0.00  0.00    +0.000 A 
ATOM     22  C   UNL     1      60.246  61.578  70.545  0.00  0.00    +0.000 A 
ATOM     23  C   UNL     1      60.250  61.902  69.786  0.00  0.00    +0.000 A 
ATOM     24  C   UNL     1      60.783  62.502  69.596  0.00  0.00    +0.000 A 
ATOM     25  C   UNL     1      62.875  64.463  69.786  0.00  0.00    +0.000 A 
ATOM     26  F   UNL     1      62.262  63.956  69.567  0.00  0.00    +0.000 F 
ATOM     27  C   UNL     1      63.186  64.996  69.239  0.00  0.00    +0.000 A 
ATOM     28  C   UNL     1      63.799  65.502  69.458  0.00  0.00    +0.000 A 
ENDROOT
TORSDOF 0
ENDMDL
MODEL 7
REMARK VINA RESULT:   -11.053      5.357      6.609
REMARK INTER + INTRA:         -11.053
REMARK INTER:                 -11.053
REMARK INTRA:                   0.000
REMARK UNBOUND:                 0.000
ROOT
REMARK  Name = ipragliflozin
REMARK                            x       y       z     vdW  Elec       q    Type
REMARK                         _______ _______ _______ _____ _____    ______ ____
ATOM      1  O   UNL     1      66.973  66.991  72.330  0.00  0.00    +0.000 OA
ATOM      2  C   UNL     1      66.171  66.796  72.335  0.00  0.00    +0.000 C 
ATOM      3  C   UNL     1      65.750  66.766  71.627  0.00  0.00    +0.000 C 
ATOM      4  O   UNL     1      64.948  66.571  71.632  0.00  0.00    +0.000 OA
ATOM      5  C   UNL     1      64.526  66.541  70.923  0.00  0.00    +0.000 C 
ATOM      6  C   UNL     1      64.906  66.705  70.210  0.00  0.00    +0.000 C 
ATOM      7  O   UNL     1      64.484  66.674  69.501  0.00  0.00    +0.000 OA
ATOM      8  C   UNL     1      65.708  66.899  70.205  0.00  0.00    +0.000 C 
ATOM      9  O   UNL     1      66.088  67.063  69.491  0.00  0.00    +0.000 OA
ATOM     10  C   UNL     1      66.129  66.930  70.913  0.00  0.00    +0.000 C 
ATOM     11  O   UNL     1      66.931  67.124  70.908  0.00  0.00    +0.000 OA
ATOM     12  C   UNL     1      63.724  66.346  70.928  0.00  0.00    +0.000 A 
ATOM     13  C   UNL     1      63.344  66.182  71.643  0.00  0.00    +0.000 A 
ATOM     14  C   UNL     1      62.543  65.988  71.648  0.00  0.00    +0.000 A 
ATOM     15  C   UNL     1      62.162  65.824  72.361  0.00  0.00    +0.000 C 
ATOM     16  C   UNL     1      61.360  65.630  72.366  0.00  0.00    +0.000 A 
ATOM     17  C   UNL     1      60.870  65.578  71.705  0.00  0.00    +0.000 A 
ATOM     18  C   UNL     1      60.115  65.369  71.964  0.00  0.00    +0.000 A 
ATOM     19  C   UNL     1      60.139  65.292  72.785  0.00  0.00    +0.000 A 
ATOM     20  S   UNL     1      60.909  65.453  73.034  0.00  0.00    +0.000 S 
ATOM     21  C   UNL     1      59.456  65.085  73.200  0.00  0.00    +0.000 A 
ATOM     22  C   UNL     1      58.750  64.955  72.794  0.00  0.00    +0.000 A 
ATOM     23  C   UNL     1      58.726  65.032  71.973  0.00  0.00    +0.000 A 
ATOM     24  C   UNL     1      59.408  65.239  71.558  0.00  0.00    +0.000 A 
ATOM     25  C   UNL     1      62.121  65.957  70.939  0.00  0.00    +0.000 A 
ATOM     26  F   UNL     1      61.319  65.763  70.944  0.00  0.00    +0.000 F 
ATOM     27  C   UNL     1      62.501  66.121  70.226  0.00  0.00    +0.000 A 
ATOM     28  C   UNL     1      63.303  66.316  70.220  0.00  0.00    +0.000 A 
ENDROOT
TORSDOF 0
ENDMDL
MODEL 8
REMARK VINA RESULT:   -10.555     14.079     14.730
REMARK INTER + INTRA:         -10.555
REMARK INTER:                 -10.555
REMARK INTRA:                   0.000
REMARK UNBOUND:                 0.000
ROOT
REMARK  Name = ipragliflozin
REMARK                            x       y       z     vdW  Elec       q    Type
REMARK                         _______ _______ _______ _____ _____    ______ ____
ATOM      1  O   UNL     1      64.609  61.897  54.052  0.00  0.00    +0.000 OA
ATOM      2  C   UNL     1      64.317  62.664  54.135  0.00  0.00    +0.000 C 
ATOM      3  C   UNL     1      63.551  62.842  53.887  0.00  0.00    +0.000 C 
ATOM      4  O   UNL     1      63.259  63.609  53.971  0.00  0.00    +0.000 OA
ATOM      5  C   UNL     1      62.492  63.788  53.723  0.00  0.00    +0.000 C 
ATOM      6  C   UNL     1      62.018  63.199  53.392  0.00  0.00    +0.000 C 
ATOM      7  O   UNL     1      61.251  63.378  53.144  0.00  0.00    +0.000 OA
ATOM      8  C   UNL     1      62.310  62.432  53.308  0.00  0.00    +0.000 C 
ATOM      9  O   UNL     1      61.836  61.844  52.977  0.00  0.00    +0.000 OA
ATOM     10  C   UNL     1      63.076  62.254  53.556  0.00  0.00    +0.000 C 
ATOM     11  O   UNL     1      63.368  61.487  53.473  0.00  0.00    +0.000 OA
ATOM     12  C   UNL     1      62.200  64.555  53.806  0.00  0.00    +0.000 A 
ATOM     13  C   UNL     1      62.674  65.143  54.137  0.00  0.00    +0.000 A 
ATOM     14  C   UNL     1      62.382  65.910  54.221  0.00  0.00    +0.000 A 
ATOM     15  C   UNL     1      62.856  66.499  54.552  0.00  0.00    +0.000 C 
ATOM     16  C   UNL     1      62.564  67.266  54.635  0.00  0.00    +0.000 A 
ATOM     17  C   UNL     1      61.813  67.525  54.414  0.00  0.00    +0.000 A 
ATOM     18  C   UNL     1      61.757  68.327  54.596  0.00  0.00    +0.000 A 
ATOM     19  C   UNL     1      62.473  68.564  54.931  0.00  0.00    +0.000 A 
ATOM     20  S   UNL     1      62.972  67.908  54.955  0.00  0.00    +0.000 S 
ATOM     21  C   UNL     1      62.577  69.347  55.170  0.00  0.00    +0.000 A 
ATOM     22  C   UNL     1      61.967  69.892  55.075  0.00  0.00    +0.000 A 
ATOM     23  C   UNL     1      61.251  69.656  54.741  0.00  0.00    +0.000 A 
ATOM     24  C   UNL     1      61.145  68.874  54.501  0.00  0.00    +0.000 A 
ATOM     25  C   UNL     1      61.615  66.089  53.973  0.00  0.00    +0.000 A 
ATOM     26  F   UNL     1      61.323  66.856  54.056  0.00  0.00    +0.000 F 
ATOM     27  C   UNL     1      61.142  65.500  53.642  0.00  0.00    +0.000 A 
ATOM     28  C   UNL     1      61.434  64.733  53.558  0.00  0.00    +0.000 A 
ENDROOT
TORSDOF 0
ENDMDL
