MODEL 1
REMARK VINA RESULT:   -11.568      0.000      0.000
REMARK INTER + INTRA:         -11.568
REMARK INTER:                 -11.568
REMARK INTRA:                   0.000
REMARK UNBOUND:                 0.000
ROOT
REMARK  Name = ipriflavone
REMARK                            x       y       z     vdW  Elec       q    Type
REMARK                         _______ _______ _______ _____ _____    ______ ____
ATOM      1  C   UNL     1      60.705  64.174  70.184  0.00  0.00    +0.000 C 
ATOM      2  C   UNL     1      60.830  63.846  69.436  0.00  0.00    +0.000 C 
ATOM      3  C   UNL     1      61.562  63.937  69.063  0.00  0.00    +0.000 C 
ATOM      4  O   UNL     1      60.226  63.428  69.062  0.00  0.00    +0.000 OA
ATOM      5  C   UNL     1      60.352  63.101  68.315  0.00  0.00    +0.000 A 
ATOM      6  C   UNL     1      59.746  62.682  67.940  0.00  0.00    +0.000 A 
ATOM      7  C   UNL     1      59.872  62.355  67.194  0.00  0.00    +0.000 A 
ATOM      8  C   UNL     1      60.601  62.446  66.822  0.00  0.00    +0.000 A 
ATOM      9  C   UNL     1      60.728  62.119  66.075  0.00  0.00    +0.000 A 
ATOM     10  O   UNL     1      60.123  61.701  65.701  0.00  0.00    +0.000 OA
ATOM     11  C   UNL     1      61.457  62.209  65.702  0.00  0.00    +0.000 A 
ATOM     12  C   UNL     1      62.063  62.628  66.077  0.00  0.00    +0.000 A 
ATOM     13  O   UNL     1      61.938  62.955  66.823  0.00  0.00    +0.000 OA
ATOM     14  C   UNL     1      61.207  62.864  67.196  0.00  0.00    +0.000 A 
ATOM     15  C   UNL     1      61.082  63.191  67.942  0.00  0.00    +0.000 A 
ATOM     16  C   UNL     1      61.584  61.882  64.955  0.00  0.00    +0.000 A 
ATOM     17  C   UNL     1      60.979  61.464  64.581  0.00  0.00    +0.000 A 
ATOM     18  C   UNL     1      61.104  61.136  63.834  0.00  0.00    +0.000 A 
ATOM     19  C   UNL     1      61.835  61.227  63.462  0.00  0.00    +0.000 A 
ATOM     20  C   UNL     1      62.440  61.645  63.836  0.00  0.00    +0.000 A 
ATOM     21  C   UNL     1      62.313  61.972  64.583  0.00  0.00    +0.000 A 
ENDROOT
TORSDOF 0
ENDMDL
MODEL 2
REMARK VINA RESULT:   -11.015      5.004      6.520
REMARK INTER + INTRA:         -11.015
REMARK INTER:                 -11.015
REMARK INTRA:                   0.000
REMARK UNBOUND:                 0.000
ROOT
REMARK  Name = ipriflavone
REMARK                            x       y       z     vdW  Elec       q    Type
REMARK                         _______ _______ _______ _____ _____    ______ ____
ATOM      1  C   UNL     1      66.300  67.643  70.064  0.00  0.00    +0.000 C 
ATOM      2  C   UNL     1      65.686  67.140  70.290  0.00  0.00    +0.000 C 
ATOM      3  C   UNL     1      65.294  67.264  71.006  0.00  0.00    +0.000 C 
ATOM      4  O   UNL     1      65.464  66.514  69.800  0.00  0.00    +0.000 OA
ATOM      5  C   UNL     1      64.850  66.012  70.027  0.00  0.00    +0.000 A 
ATOM      6  C   UNL     1      64.628  65.385  69.537  0.00  0.00    +0.000 A 
ATOM      7  C   UNL     1      64.014  64.883  69.763  0.00  0.00    +0.000 A 
ATOM      8  C   UNL     1      63.622  65.006  70.478  0.00  0.00    +0.000 A 
ATOM      9  C   UNL     1      63.008  64.503  70.704  0.00  0.00    +0.000 A 
ATOM     10  O   UNL     1      62.786  63.877  70.215  0.00  0.00    +0.000 OA
ATOM     11  C   UNL     1      62.617  64.626  71.419  0.00  0.00    +0.000 A 
ATOM     12  C   UNL     1      62.839  65.253  71.909  0.00  0.00    +0.000 A 
ATOM     13  O   UNL     1      63.452  65.755  71.683  0.00  0.00    +0.000 OA
ATOM     14  C   UNL     1      63.845  65.633  70.968  0.00  0.00    +0.000 A 
ATOM     15  C   UNL     1      64.458  66.135  70.742  0.00  0.00    +0.000 A 
ATOM     16  C   UNL     1      62.003  64.124  71.646  0.00  0.00    +0.000 A 
ATOM     17  C   UNL     1      61.781  63.498  71.156  0.00  0.00    +0.000 A 
ATOM     18  C   UNL     1      61.167  62.995  71.382  0.00  0.00    +0.000 A 
ATOM     19  C   UNL     1      60.775  63.118  72.098  0.00  0.00    +0.000 A 
ATOM     20  C   UNL     1      60.997  63.744  72.587  0.00  0.00    +0.000 A 
ATOM     21  C   UNL     1      61.611  64.247  72.361  0.00  0.00    +0.000 A 
ENDROOT
TORSDOF 0
ENDMDL
MODEL 3
REMARK VINA RESULT:   -10.761      0.727      4.283
REMARK INTER + INTRA:         -10.761
REMARK INTER:                 -10.761
REMARK INTRA:                   0.000
REMARK UNBOUND:                 0.000
ROOT
REMARK  Name = ipriflavone
REMARK                            x       y       z     vdW  Elec       q    Type
REMARK                         _______ _______ _______ _____ _____    ______ ____
ATOM      1  C   UNL     1      61.258  60.902  63.457  0.00  0.00    +0.000 C 
ATOM      2  C   UNL     1      61.213  61.300  64.179  0.00  0.00    +0.000 C 
ATOM      3  C   UNL     1      61.887  61.656  64.496  0.00  0.00    +0.000 C 
ATOM      4  O   UNL     1      60.495  61.341  64.583  0.00  0.00    +0.000 OA
ATOM      5  C   UNL     1      60.451  61.739  65.305  0.00  0.00    +0.000 A 
ATOM      6  C   UNL     1      59.732  61.781  65.710  0.00  0.00    +0.000 A 
ATOM      7  C   UNL     1      59.687  62.178  66.431  0.00  0.00    +0.000 A 
ATOM      8  C   UNL     1      60.360  62.534  66.748  0.00  0.00    +0.000 A 
ATOM      9  C   UNL     1      60.316  62.932  67.469  0.00  0.00    +0.000 A 
ATOM     10  O   UNL     1      59.598  62.973  67.874  0.00  0.00    +0.000 OA
ATOM     11  C   UNL     1      60.988  63.287  67.787  0.00  0.00    +0.000 A 
ATOM     12  C   UNL     1      61.707  63.246  67.382  0.00  0.00    +0.000 A 
ATOM     13  O   UNL     1      61.752  62.849  66.661  0.00  0.00    +0.000 OA
ATOM     14  C   UNL     1      61.079  62.492  66.343  0.00  0.00    +0.000 A 
ATOM     15  C   UNL     1      61.123  62.095  65.622  0.00  0.00    +0.000 A 
ATOM     16  C   UNL     1      60.944  63.685  68.508  0.00  0.00    +0.000 A 
ATOM     17  C   UNL     1      60.226  63.727  68.912  0.00  0.00    +0.000 A 
ATOM     18  C   UNL     1      60.181  64.124  69.634  0.00  0.00    +0.000 A 
ATOM     19  C   UNL     1      60.854  64.480  69.951  0.00  0.00    +0.000 A 
ATOM     20  C   UNL     1      61.572  64.439  69.547  0.00  0.00    +0.000 A 
ATOM     21  C   UNL     1      61.616  64.041  68.825  0.00  0.00    +0.000 A 
ENDROOT
TORSDOF 0
ENDMDL
MODEL 4
REMARK VINA RESULT:   -10.753      5.432      6.895
REMARK INTER + INTRA:         -10.753
REMARK INTER:                 -10.753
REMARK INTRA:                   0.000
REMARK UNBOUND:                 0.000
ROOT
REMARK  Name = ipriflavone
REMARK                            x       y       z     vdW  Elec       q    Type
REMARK                         _______ _______ _______ _____ _____    ______ ____
ATOM      1  C   UNL     1      66.124  67.704  70.082  0.00  0.00    +0.000 C 
ATOM      2  C   UNL     1      65.527  67.189  70.329  0.00  0.00    +0.000 C 
ATOM      3  C   UNL     1      65.368  66.505  69.896  0.00  0.00    +0.000 C 
ATOM      4  O   UNL     1      65.090  67.359  71.008  0.00  0.00    +0.000 OA
ATOM      5  C   UNL     1      64.494  66.845  71.253  0.00  0.00    +0.000 A 
ATOM      6  C   UNL     1      64.056  67.015  71.933  0.00  0.00    +0.000 A 
ATOM      7  C   UNL     1      63.460  66.501  72.179  0.00  0.00    +0.000 A 
ATOM      8  C   UNL     1      63.301  65.818  71.747  0.00  0.00    +0.000 A 
ATOM      9  C   UNL     1      62.704  65.303  71.992  0.00  0.00    +0.000 A 
ATOM     10  O   UNL     1      62.267  65.473  72.671  0.00  0.00    +0.000 OA
ATOM     11  C   UNL     1      62.545  64.619  71.560  0.00  0.00    +0.000 A 
ATOM     12  C   UNL     1      62.982  64.449  70.881  0.00  0.00    +0.000 A 
ATOM     13  O   UNL     1      63.578  64.963  70.635  0.00  0.00    +0.000 OA
ATOM     14  C   UNL     1      63.738  65.647  71.067  0.00  0.00    +0.000 A 
ATOM     15  C   UNL     1      64.334  66.161  70.821  0.00  0.00    +0.000 A 
ATOM     16  C   UNL     1      61.948  64.105  71.806  0.00  0.00    +0.000 A 
ATOM     17  C   UNL     1      61.511  64.275  72.485  0.00  0.00    +0.000 A 
ATOM     18  C   UNL     1      60.915  63.761  72.731  0.00  0.00    +0.000 A 
ATOM     19  C   UNL     1      60.755  63.077  72.298  0.00  0.00    +0.000 A 
ATOM     20  C   UNL     1      61.192  62.907  71.620  0.00  0.00    +0.000 A 
ATOM     21  C   UNL     1      61.789  63.421  71.374  0.00  0.00    +0.000 A 
ENDROOT
TORSDOF 0
ENDMDL
MODEL 5
REMARK VINA RESULT:   -10.737      1.982      5.338
REMARK INTER + INTRA:         -10.737
REMARK INTER:                 -10.737
REMARK INTRA:                   0.000
REMARK UNBOUND:                 0.000
ROOT
REMARK  Name = ipriflavone
REMARK                            x       y       z     vdW  Elec       q    Type
REMARK                         _______ _______ _______ _____ _____    ______ ____
ATOM      1  C   UNL     1      59.609  62.217  66.066  0.00  0.00    +0.000 C 
ATOM      2  C   UNL     1      59.847  62.279  66.854  0.00  0.00    +0.000 C 
ATOM      3  C   UNL     1      60.042  61.600  67.282  0.00  0.00    +0.000 C 
ATOM      4  O   UNL     1      59.889  63.020  67.215  0.00  0.00    +0.000 OA
ATOM      5  C   UNL     1      60.127  63.082  68.003  0.00  0.00    +0.000 A 
ATOM      6  C   UNL     1      60.169  63.823  68.364  0.00  0.00    +0.000 A 
ATOM      7  C   UNL     1      60.406  63.885  69.151  0.00  0.00    +0.000 A 
ATOM      8  C   UNL     1      60.601  63.207  69.578  0.00  0.00    +0.000 A 
ATOM      9  C   UNL     1      60.838  63.269  70.366  0.00  0.00    +0.000 A 
ATOM     10  O   UNL     1      60.881  64.010  70.727  0.00  0.00    +0.000 OA
ATOM     11  C   UNL     1      61.033  62.591  70.793  0.00  0.00    +0.000 A 
ATOM     12  C   UNL     1      60.991  61.850  70.432  0.00  0.00    +0.000 A 
ATOM     13  O   UNL     1      60.754  61.788  69.644  0.00  0.00    +0.000 OA
ATOM     14  C   UNL     1      60.559  62.466  69.217  0.00  0.00    +0.000 A 
ATOM     15  C   UNL     1      60.322  62.404  68.430  0.00  0.00    +0.000 A 
ATOM     16  C   UNL     1      61.271  62.653  71.581  0.00  0.00    +0.000 A 
ATOM     17  C   UNL     1      61.313  63.394  71.941  0.00  0.00    +0.000 A 
ATOM     18  C   UNL     1      61.550  63.456  72.729  0.00  0.00    +0.000 A 
ATOM     19  C   UNL     1      61.745  62.777  73.156  0.00  0.00    +0.000 A 
ATOM     20  C   UNL     1      61.703  62.037  72.795  0.00  0.00    +0.000 A 
ATOM     21  C   UNL     1      61.466  61.975  72.007  0.00  0.00    +0.000 A 
ENDROOT
TORSDOF 0
ENDMDL
MODEL 6
REMARK VINA RESULT:   -10.456      3.907      6.167
REMARK INTER + INTRA:         -10.456
REMARK INTER:                 -10.456
REMARK INTRA:                   0.000
REMARK UNBOUND:                 0.000
ROOT
REMARK  Name = ipriflavone
REMARK                            x       y       z     vdW  Elec       q    Type
REMARK                         _______ _______ _______ _____ _____    ______ ____
ATOM      1  C   UNL     1      60.478  62.120  70.245  0.00  0.00    +0.000 C 
ATOM      2  C   UNL     1      61.059  62.706  70.279  0.00  0.00    +0.000 C 
ATOM      3  C   UNL     1      61.495  62.894  69.603  0.00  0.00    +0.000 C 
ATOM      4  O   UNL     1      61.205  63.104  70.987  0.00  0.00    +0.000 OA
ATOM      5  C   UNL     1      61.785  63.689  71.019  0.00  0.00    +0.000 A 
ATOM      6  C   UNL     1      61.931  64.087  71.728  0.00  0.00    +0.000 A 
ATOM      7  C   UNL     1      62.511  64.672  71.761  0.00  0.00    +0.000 A 
ATOM      8  C   UNL     1      62.946  64.860  71.086  0.00  0.00    +0.000 A 
ATOM      9  C   UNL     1      63.526  65.445  71.118  0.00  0.00    +0.000 A 
ATOM     10  O   UNL     1      63.672  65.843  71.826  0.00  0.00    +0.000 OA
ATOM     11  C   UNL     1      63.961  65.633  70.444  0.00  0.00    +0.000 A 
ATOM     12  C   UNL     1      63.816  65.235  69.734  0.00  0.00    +0.000 A 
ATOM     13  O   UNL     1      63.236  64.650  69.702  0.00  0.00    +0.000 OA
ATOM     14  C   UNL     1      62.800  64.462  70.377  0.00  0.00    +0.000 A 
ATOM     15  C   UNL     1      62.220  63.877  70.344  0.00  0.00    +0.000 A 
ATOM     16  C   UNL     1      64.542  66.219  70.476  0.00  0.00    +0.000 A 
ATOM     17  C   UNL     1      64.687  66.616  71.184  0.00  0.00    +0.000 A 
ATOM     18  C   UNL     1      65.267  67.201  71.217  0.00  0.00    +0.000 A 
ATOM     19  C   UNL     1      65.703  67.389  70.541  0.00  0.00    +0.000 A 
ATOM     20  C   UNL     1      65.557  66.992  69.833  0.00  0.00    +0.000 A 
ATOM     21  C   UNL     1      64.977  66.406  69.801  0.00  0.00    +0.000 A 
ENDROOT
TORSDOF 0
ENDMDL
MODEL 7
REMARK VINA RESULT:   -10.103      1.508      5.423
REMARK INTER + INTRA:         -10.103
REMARK INTER:                 -10.103
REMARK INTRA:                   0.000
REMARK UNBOUND:                 0.000
ROOT
REMARK  Name = ipriflavone
REMARK                            x       y       z     vdW  Elec       q    Type
REMARK                         _______ _______ _______ _____ _____    ______ ____
ATOM      1  C   UNL     1      61.417  61.926  66.161  0.00  0.00    +0.000 C 
ATOM      2  C   UNL     1      61.179  62.313  66.851  0.00  0.00    +0.000 C 
ATOM      3  C   UNL     1      61.027  63.124  66.838  0.00  0.00    +0.000 C 
ATOM      4  O   UNL     1      61.094  61.888  67.553  0.00  0.00    +0.000 OA
ATOM      5  C   UNL     1      60.856  62.275  68.242  0.00  0.00    +0.000 A 
ATOM      6  C   UNL     1      60.770  61.851  68.945  0.00  0.00    +0.000 A 
ATOM      7  C   UNL     1      60.533  62.237  69.634  0.00  0.00    +0.000 A 
ATOM      8  C   UNL     1      60.381  63.047  69.621  0.00  0.00    +0.000 A 
ATOM      9  C   UNL     1      60.143  63.434  70.310  0.00  0.00    +0.000 A 
ATOM     10  O   UNL     1      60.058  63.009  71.012  0.00  0.00    +0.000 OA
ATOM     11  C   UNL     1      59.991  64.244  70.297  0.00  0.00    +0.000 A 
ATOM     12  C   UNL     1      60.076  64.669  69.594  0.00  0.00    +0.000 A 
ATOM     13  O   UNL     1      60.314  64.283  68.905  0.00  0.00    +0.000 OA
ATOM     14  C   UNL     1      60.466  63.472  68.918  0.00  0.00    +0.000 A 
ATOM     15  C   UNL     1      60.704  63.086  68.229  0.00  0.00    +0.000 A 
ATOM     16  C   UNL     1      59.753  64.631  70.986  0.00  0.00    +0.000 A 
ATOM     17  C   UNL     1      59.668  64.206  71.688  0.00  0.00    +0.000 A 
ATOM     18  C   UNL     1      59.430  64.592  72.378  0.00  0.00    +0.000 A 
ATOM     19  C   UNL     1      59.278  65.403  72.364  0.00  0.00    +0.000 A 
ATOM     20  C   UNL     1      59.363  65.828  71.662  0.00  0.00    +0.000 A 
ATOM     21  C   UNL     1      59.601  65.441  70.973  0.00  0.00    +0.000 A 
ENDROOT
TORSDOF 0
ENDMDL
MODEL 8
REMARK VINA RESULT:    -9.925      3.840      5.574
REMARK INTER + INTRA:          -9.925
REMARK INTER:                  -9.925
REMARK INTRA:                   0.000
REMARK UNBOUND:                 0.000
ROOT
REMARK  Name = ipriflavone
REMARK                            x       y       z     vdW  Elec       q    Type
REMARK                         _______ _______ _______ _____ _____    ______ ____
ATOM      1  C   UNL     1      62.365  68.026  72.751  0.00  0.00    +0.000 C 
ATOM      2  C   UNL     1      62.141  67.298  72.431  0.00  0.00    +0.000 C 
ATOM      3  C   UNL     1      61.974  67.236  71.625  0.00  0.00    +0.000 C 
ATOM      4  O   UNL     1      62.084  66.634  72.917  0.00  0.00    +0.000 OA
ATOM      5  C   UNL     1      61.860  65.907  72.596  0.00  0.00    +0.000 A 
ATOM      6  C   UNL     1      61.803  65.242  73.083  0.00  0.00    +0.000 A 
ATOM      7  C   UNL     1      61.580  64.516  72.763  0.00  0.00    +0.000 A 
ATOM      8  C   UNL     1      61.413  64.453  71.958  0.00  0.00    +0.000 A 
ATOM      9  C   UNL     1      61.189  63.726  71.638  0.00  0.00    +0.000 A 
ATOM     10  O   UNL     1      61.132  63.062  72.124  0.00  0.00    +0.000 OA
ATOM     11  C   UNL     1      61.022  63.663  70.833  0.00  0.00    +0.000 A 
ATOM     12  C   UNL     1      61.079  64.328  70.347  0.00  0.00    +0.000 A 
ATOM     13  O   UNL     1      61.303  65.055  70.666  0.00  0.00    +0.000 OA
ATOM     14  C   UNL     1      61.470  65.118  71.472  0.00  0.00    +0.000 A 
ATOM     15  C   UNL     1      61.693  65.844  71.791  0.00  0.00    +0.000 A 
ATOM     16  C   UNL     1      60.798  62.937  70.513  0.00  0.00    +0.000 A 
ATOM     17  C   UNL     1      60.742  62.272  70.999  0.00  0.00    +0.000 A 
ATOM     18  C   UNL     1      60.518  61.545  70.680  0.00  0.00    +0.000 A 
ATOM     19  C   UNL     1      60.351  61.483  69.873  0.00  0.00    +0.000 A 
ATOM     20  C   UNL     1      60.408  62.147  69.388  0.00  0.00    +0.000 A 
ATOM     21  C   UNL     1      60.632  62.874  69.708  0.00  0.00    +0.000 A 
ENDROOT
TORSDOF 0
ENDMDL
MODEL 9
REMARK VINA RESULT:    -9.227     24.037     25.279
REMARK INTER + INTRA:          -9.227
REMARK INTER:                  -9.227
REMARK INTRA:                   0.000
REMARK UNBOUND:                 0.000
ROOT
REMARK  Name = ipriflavone
REMARK                            x       y       z     vdW  Elec       q    Type
REMARK                         _______ _______ _______ _____ _____    ______ ____
ATOM      1  C   UNL     1      68.335  81.530  54.190  0.00  0.00    +0.000 C 
ATOM      2  C   UNL     1      68.719  81.214  53.530  0.00  0.00    +0.000 C 
ATOM      3  C   UNL     1      68.305  80.732  53.003  0.00  0.00    +0.000 C 
ATOM      4  O   UNL     1      69.517  81.380  53.398  0.00  0.00    +0.000 OA
ATOM      5  C   UNL     1      69.900  81.064  52.739  0.00  0.00    +0.000 A 
ATOM      6  C   UNL     1      70.698  81.231  52.607  0.00  0.00    +0.000 A 
ATOM      7  C   UNL     1      71.081  80.915  51.949  0.00  0.00    +0.000 A 
ATOM      8  C   UNL     1      70.668  80.434  51.422  0.00  0.00    +0.000 A 
ATOM      9  C   UNL     1      71.051  80.118  50.763  0.00  0.00    +0.000 A 
ATOM     10  O   UNL     1      71.848  80.284  50.631  0.00  0.00    +0.000 OA
ATOM     11  C   UNL     1      70.637  79.637  50.237  0.00  0.00    +0.000 A 
ATOM     12  C   UNL     1      69.839  79.471  50.369  0.00  0.00    +0.000 A 
ATOM     13  O   UNL     1      69.456  79.786  51.027  0.00  0.00    +0.000 OA
ATOM     14  C   UNL     1      69.869  80.268  51.554  0.00  0.00    +0.000 A 
ATOM     15  C   UNL     1      69.486  80.583  52.213  0.00  0.00    +0.000 A 
ATOM     16  C   UNL     1      71.020  79.321  49.578  0.00  0.00    +0.000 A 
ATOM     17  C   UNL     1      71.818  79.487  49.446  0.00  0.00    +0.000 A 
ATOM     18  C   UNL     1      72.202  79.172  48.787  0.00  0.00    +0.000 A 
ATOM     19  C   UNL     1      71.787  78.690  48.260  0.00  0.00    +0.000 A 
ATOM     20  C   UNL     1      70.990  78.524  48.392  0.00  0.00    +0.000 A 
ATOM     21  C   UNL     1      70.607  78.840  49.051  0.00  0.00    +0.000 A 
ENDROOT
TORSDOF 0
ENDMDL
