MODEL 1
REMARK VINA RESULT:   -10.599      0.000      0.000
REMARK INTER + INTRA:         -10.599
REMARK INTER:                 -10.599
REMARK INTRA:                   0.000
REMARK UNBOUND:                 0.000
ROOT
REMARK  Name = isobromindione
REMARK                            x       y       z     vdW  Elec       q    Type
REMARK                         _______ _______ _______ _____ _____    ______ ____
ATOM      1 BR   UNL     1      60.798  63.583  68.820  0.00  0.00    +0.000 Br
ATOM      2  C   UNL     1      60.657  63.168  68.120  0.00  0.00    +0.000 A 
ATOM      3  C   UNL     1      59.918  62.827  67.984  0.00  0.00    +0.000 A 
ATOM      4  C   UNL     1      59.778  62.413  67.285  0.00  0.00    +0.000 A 
ATOM      5  C   UNL     1      60.376  62.340  66.721  0.00  0.00    +0.000 A 
ATOM      6  C   UNL     1      60.399  61.968  65.986  0.00  0.00    +0.000 C 
ATOM      7  O   UNL     1      59.778  61.556  65.631  0.00  0.00    +0.000 OA
ATOM      8  C   UNL     1      61.152  62.078  65.667  0.00  0.00    +0.000 C 
ATOM      9  C   UNL     1      61.594  62.519  66.206  0.00  0.00    +0.000 C 
ATOM     10  O   UNL     1      62.378  62.757  66.110  0.00  0.00    +0.000 OA
ATOM     11  C   UNL     1      61.114  62.681  66.857  0.00  0.00    +0.000 A 
ATOM     12  C   UNL     1      61.255  63.096  67.557  0.00  0.00    +0.000 A 
ATOM     13  C   UNL     1      61.416  61.797  64.938  0.00  0.00    +0.000 A 
ATOM     14  C   UNL     1      60.908  61.360  64.455  0.00  0.00    +0.000 A 
ATOM     15  C   UNL     1      61.172  61.079  63.726  0.00  0.00    +0.000 A 
ATOM     16  C   UNL     1      61.944  61.234  63.479  0.00  0.00    +0.000 A 
ATOM     17  C   UNL     1      62.452  61.670  63.961  0.00  0.00    +0.000 A 
ATOM     18  C   UNL     1      62.187  61.951  64.690  0.00  0.00    +0.000 A 
ENDROOT
TORSDOF 0
ENDMDL
MODEL 2
REMARK VINA RESULT:   -10.065      1.513      3.458
REMARK INTER + INTRA:         -10.065
REMARK INTER:                 -10.065
REMARK INTRA:                   0.000
REMARK UNBOUND:                 0.000
ROOT
REMARK  Name = isobromindione
REMARK                            x       y       z     vdW  Elec       q    Type
REMARK                         _______ _______ _______ _____ _____    ______ ____
ATOM      1 BR   UNL     1      62.772  61.618  63.242  0.00  0.00    +0.000 Br
ATOM      2  C   UNL     1      62.201  61.643  63.837  0.00  0.00    +0.000 A 
ATOM      3  C   UNL     1      61.472  61.273  63.725  0.00  0.00    +0.000 A 
ATOM      4  C   UNL     1      60.902  61.297  64.320  0.00  0.00    +0.000 A 
ATOM      5  C   UNL     1      61.059  61.692  65.027  0.00  0.00    +0.000 A 
ATOM      6  C   UNL     1      60.608  61.808  65.707  0.00  0.00    +0.000 C 
ATOM      7  O   UNL     1      59.841  61.530  65.833  0.00  0.00    +0.000 OA
ATOM      8  C   UNL     1      61.057  62.249  66.240  0.00  0.00    +0.000 C 
ATOM      9  C   UNL     1      61.786  62.406  65.889  0.00  0.00    +0.000 C 
ATOM     10  O   UNL     1      62.406  62.832  66.228  0.00  0.00    +0.000 OA
ATOM     11  C   UNL     1      61.788  62.061  65.140  0.00  0.00    +0.000 A 
ATOM     12  C   UNL     1      62.359  62.037  64.544  0.00  0.00    +0.000 A 
ATOM     13  C   UNL     1      60.818  62.491  66.992  0.00  0.00    +0.000 A 
ATOM     14  C   UNL     1      60.067  62.291  67.271  0.00  0.00    +0.000 A 
ATOM     15  C   UNL     1      59.829  62.533  68.023  0.00  0.00    +0.000 A 
ATOM     16  C   UNL     1      60.341  62.974  68.496  0.00  0.00    +0.000 A 
ATOM     17  C   UNL     1      61.091  63.173  68.217  0.00  0.00    +0.000 A 
ATOM     18  C   UNL     1      61.330  62.932  67.465  0.00  0.00    +0.000 A 
ENDROOT
TORSDOF 0
ENDMDL
MODEL 3
REMARK VINA RESULT:    -9.764      3.050      5.335
REMARK INTER + INTRA:          -9.764
REMARK INTER:                  -9.764
REMARK INTRA:                   0.000
REMARK UNBOUND:                 0.000
ROOT
REMARK  Name = isobromindione
REMARK                            x       y       z     vdW  Elec       q    Type
REMARK                         _______ _______ _______ _____ _____    ______ ____
ATOM      1 BR   UNL     1      60.860  62.937  66.964  0.00  0.00    +0.000 Br
ATOM      2  C   UNL     1      60.808  62.732  67.762  0.00  0.00    +0.000 A 
ATOM      3  C   UNL     1      60.407  62.047  67.987  0.00  0.00    +0.000 A 
ATOM      4  C   UNL     1      60.355  61.842  68.784  0.00  0.00    +0.000 A 
ATOM      5  C   UNL     1      60.705  62.321  69.357  0.00  0.00    +0.000 A 
ATOM      6  C   UNL     1      60.745  62.261  70.178  0.00  0.00    +0.000 C 
ATOM      7  O   UNL     1      60.417  61.659  70.636  0.00  0.00    +0.000 OA
ATOM      8  C   UNL     1      61.171  62.908  70.461  0.00  0.00    +0.000 C 
ATOM      9  C   UNL     1      61.394  63.369  69.815  0.00  0.00    +0.000 C 
ATOM     10  O   UNL     1      61.830  64.069  69.845  0.00  0.00    +0.000 OA
ATOM     11  C   UNL     1      61.107  63.006  69.132  0.00  0.00    +0.000 A 
ATOM     12  C   UNL     1      61.158  63.212  68.334  0.00  0.00    +0.000 A 
ATOM     13  C   UNL     1      61.343  63.067  71.253  0.00  0.00    +0.000 A 
ATOM     14  C   UNL     1      61.082  62.553  71.843  0.00  0.00    +0.000 A 
ATOM     15  C   UNL     1      61.254  62.712  72.634  0.00  0.00    +0.000 A 
ATOM     16  C   UNL     1      61.688  63.384  72.835  0.00  0.00    +0.000 A 
ATOM     17  C   UNL     1      61.949  63.898  72.245  0.00  0.00    +0.000 A 
ATOM     18  C   UNL     1      61.777  63.739  71.454  0.00  0.00    +0.000 A 
ENDROOT
TORSDOF 0
ENDMDL
MODEL 4
REMARK VINA RESULT:    -9.580      5.260      7.030
REMARK INTER + INTRA:          -9.580
REMARK INTER:                  -9.580
REMARK INTRA:                   0.000
REMARK UNBOUND:                 0.000
ROOT
REMARK  Name = isobromindione
REMARK                            x       y       z     vdW  Elec       q    Type
REMARK                         _______ _______ _______ _____ _____    ______ ____
ATOM      1 BR   UNL     1      61.792  63.680  71.414  0.00  0.00    +0.000 Br
ATOM      2  C   UNL     1      62.388  64.092  71.017  0.00  0.00    +0.000 A 
ATOM      3  C   UNL     1      62.597  63.877  70.249  0.00  0.00    +0.000 A 
ATOM      4  C   UNL     1      63.192  64.288  69.853  0.00  0.00    +0.000 A 
ATOM      5  C   UNL     1      63.578  64.916  70.225  0.00  0.00    +0.000 A 
ATOM      6  C   UNL     1      64.181  65.420  69.975  0.00  0.00    +0.000 C 
ATOM      7  O   UNL     1      64.555  65.400  69.240  0.00  0.00    +0.000 OA
ATOM      8  C   UNL     1      64.344  65.946  70.588  0.00  0.00    +0.000 C 
ATOM      9  C   UNL     1      63.842  65.768  71.218  0.00  0.00    +0.000 C 
ATOM     10  O   UNL     1      63.818  66.158  71.944  0.00  0.00    +0.000 OA
ATOM     11  C   UNL     1      63.369  65.131  70.993  0.00  0.00    +0.000 A 
ATOM     12  C   UNL     1      62.773  64.719  71.390  0.00  0.00    +0.000 A 
ATOM     13  C   UNL     1      64.911  66.546  70.574  0.00  0.00    +0.000 A 
ATOM     14  C   UNL     1      65.375  66.660  69.901  0.00  0.00    +0.000 A 
ATOM     15  C   UNL     1      65.942  67.259  69.887  0.00  0.00    +0.000 A 
ATOM     16  C   UNL     1      66.043  67.746  70.546  0.00  0.00    +0.000 A 
ATOM     17  C   UNL     1      65.579  67.633  71.218  0.00  0.00    +0.000 A 
ATOM     18  C   UNL     1      65.013  67.033  71.232  0.00  0.00    +0.000 A 
ENDROOT
TORSDOF 0
ENDMDL
MODEL 5
REMARK VINA RESULT:    -9.428      6.018      7.072
REMARK INTER + INTRA:          -9.428
REMARK INTER:                  -9.428
REMARK INTRA:                   0.000
REMARK UNBOUND:                 0.000
ROOT
REMARK  Name = isobromindione
REMARK                            x       y       z     vdW  Elec       q    Type
REMARK                         _______ _______ _______ _____ _____    ______ ____
ATOM      1 BR   UNL     1      65.508  67.143  70.348  0.00  0.00    +0.000 Br
ATOM      2  C   UNL     1      64.984  66.508  70.404  0.00  0.00    +0.000 A 
ATOM      3  C   UNL     1      65.001  65.908  69.838  0.00  0.00    +0.000 A 
ATOM      4  C   UNL     1      64.478  65.273  69.895  0.00  0.00    +0.000 A 
ATOM      5  C   UNL     1      63.937  65.238  70.517  0.00  0.00    +0.000 A 
ATOM      6  C   UNL     1      63.358  64.685  70.715  0.00  0.00    +0.000 C 
ATOM      7  O   UNL     1      63.184  63.995  70.298  0.00  0.00    +0.000 OA
ATOM      8  C   UNL     1      62.983  64.943  71.403  0.00  0.00    +0.000 C 
ATOM      9  C   UNL     1      63.331  65.656  71.630  0.00  0.00    +0.000 C 
ATOM     10  O   UNL     1      63.125  66.107  72.290  0.00  0.00    +0.000 OA
ATOM     11  C   UNL     1      63.920  65.838  71.083  0.00  0.00    +0.000 A 
ATOM     12  C   UNL     1      64.444  66.473  71.026  0.00  0.00    +0.000 A 
ATOM     13  C   UNL     1      62.369  64.556  71.795  0.00  0.00    +0.000 A 
ATOM     14  C   UNL     1      62.076  63.843  71.500  0.00  0.00    +0.000 A 
ATOM     15  C   UNL     1      61.461  63.456  71.892  0.00  0.00    +0.000 A 
ATOM     16  C   UNL     1      61.140  63.783  72.578  0.00  0.00    +0.000 A 
ATOM     17  C   UNL     1      61.432  64.495  72.872  0.00  0.00    +0.000 A 
ATOM     18  C   UNL     1      62.047  64.882  72.480  0.00  0.00    +0.000 A 
ENDROOT
TORSDOF 0
ENDMDL
MODEL 6
REMARK VINA RESULT:    -8.550     24.486     25.316
REMARK INTER + INTRA:          -8.550
REMARK INTER:                  -8.550
REMARK INTRA:                   0.000
REMARK UNBOUND:                 0.000
ROOT
REMARK  Name = isobromindione
REMARK                            x       y       z     vdW  Elec       q    Type
REMARK                         _______ _______ _______ _____ _____    ______ ____
ATOM      1 BR   UNL     1      68.822  81.050  53.015  0.00  0.00    +0.000 Br
ATOM      2  C   UNL     1      69.426  80.883  52.478  0.00  0.00    +0.000 A 
ATOM      3  C   UNL     1      70.166  81.238  52.565  0.00  0.00    +0.000 A 
ATOM      4  C   UNL     1      70.769  81.070  52.028  0.00  0.00    +0.000 A 
ATOM      5  C   UNL     1      70.634  80.547  51.404  0.00  0.00    +0.000 A 
ATOM      6  C   UNL     1      71.118  80.278  50.794  0.00  0.00    +0.000 C 
ATOM      7  O   UNL     1      71.905  80.493  50.670  0.00  0.00    +0.000 OA
ATOM      8  C   UNL     1      70.678  79.757  50.330  0.00  0.00    +0.000 C 
ATOM      9  C   UNL     1      69.922  79.704  50.654  0.00  0.00    +0.000 C 
ATOM     10  O   UNL     1      69.301  79.243  50.364  0.00  0.00    +0.000 OA
ATOM     11  C   UNL     1      69.894  80.192  51.317  0.00  0.00    +0.000 A 
ATOM     12  C   UNL     1      69.290  80.360  51.855  0.00  0.00    +0.000 A 
ATOM     13  C   UNL     1      70.948  79.358  49.660  0.00  0.00    +0.000 A 
ATOM     14  C   UNL     1      71.724  79.466  49.400  0.00  0.00    +0.000 A 
ATOM     15  C   UNL     1      71.994  79.068  48.730  0.00  0.00    +0.000 A 
ATOM     16  C   UNL     1      71.488  78.561  48.320  0.00  0.00    +0.000 A 
ATOM     17  C   UNL     1      70.713  78.453  48.580  0.00  0.00    +0.000 A 
ATOM     18  C   UNL     1      70.443  78.851  49.250  0.00  0.00    +0.000 A 
ENDROOT
TORSDOF 0
ENDMDL
MODEL 7
REMARK VINA RESULT:    -8.519     24.500     25.678
REMARK INTER + INTRA:          -8.519
REMARK INTER:                  -8.519
REMARK INTRA:                   0.000
REMARK UNBOUND:                 0.000
ROOT
REMARK  Name = isobromindione
REMARK                            x       y       z     vdW  Elec       q    Type
REMARK                         _______ _______ _______ _____ _____    ______ ____
ATOM      1 BR   UNL     1      72.695  79.012  48.108  0.00  0.00    +0.000 Br
ATOM      2  C   UNL     1      72.025  79.054  48.589  0.00  0.00    +0.000 A 
ATOM      3  C   UNL     1      71.406  78.520  48.480  0.00  0.00    +0.000 A 
ATOM      4  C   UNL     1      70.736  78.562  48.960  0.00  0.00    +0.000 A 
ATOM      5  C   UNL     1      70.685  79.138  49.548  0.00  0.00    +0.000 A 
ATOM      6  C   UNL     1      70.099  79.313  50.101  0.00  0.00    +0.000 C 
ATOM      7  O   UNL     1      69.382  78.915  50.188  0.00  0.00    +0.000 OA
ATOM      8  C   UNL     1      70.356  79.955  50.551  0.00  0.00    +0.000 C 
ATOM      9  C   UNL     1      71.101  80.177  50.276  0.00  0.00    +0.000 C 
ATOM     10  O   UNL     1      71.561  80.796  50.570  0.00  0.00    +0.000 OA
ATOM     11  C   UNL     1      71.304  79.673  49.657  0.00  0.00    +0.000 A 
ATOM     12  C   UNL     1      71.975  79.631  49.176  0.00  0.00    +0.000 A 
ATOM     13  C   UNL     1      69.940  80.312  51.168  0.00  0.00    +0.000 A 
ATOM     14  C   UNL     1      69.195  80.028  51.382  0.00  0.00    +0.000 A 
ATOM     15  C   UNL     1      68.779  80.385  51.999  0.00  0.00    +0.000 A 
ATOM     16  C   UNL     1      69.108  81.026  52.401  0.00  0.00    +0.000 A 
ATOM     17  C   UNL     1      69.852  81.310  52.187  0.00  0.00    +0.000 A 
ATOM     18  C   UNL     1      70.268  80.953  51.570  0.00  0.00    +0.000 A 
ENDROOT
TORSDOF 0
ENDMDL
MODEL 8
REMARK VINA RESULT:    -8.215      4.145      5.682
REMARK INTER + INTRA:          -8.215
REMARK INTER:                  -8.215
REMARK INTRA:                   0.000
REMARK UNBOUND:                 0.000
ROOT
REMARK  Name = isobromindione
REMARK                            x       y       z     vdW  Elec       q    Type
REMARK                         _______ _______ _______ _____ _____    ______ ____
ATOM      1 BR   UNL     1      60.511  62.862  69.166  0.00  0.00    +0.000 Br
ATOM      2  C   UNL     1      60.970  63.547  69.208  0.00  0.00    +0.000 A 
ATOM      3  C   UNL     1      60.691  64.252  68.884  0.00  0.00    +0.000 A 
ATOM      4  C   UNL     1      61.150  64.935  68.926  0.00  0.00    +0.000 A 
ATOM      5  C   UNL     1      61.889  64.915  69.293  0.00  0.00    +0.000 A 
ATOM      6  C   UNL     1      62.460  65.496  69.417  0.00  0.00    +0.000 C 
ATOM      7  O   UNL     1      62.408  66.285  69.181  0.00  0.00    +0.000 OA
ATOM      8  C   UNL     1      63.093  65.151  69.819  0.00  0.00    +0.000 C 
ATOM      9  C   UNL     1      62.912  64.356  69.942  0.00  0.00    +0.000 C 
ATOM     10  O   UNL     1      63.391  63.803  70.324  0.00  0.00    +0.000 OA
ATOM     11  C   UNL     1      62.168  64.210  69.618  0.00  0.00    +0.000 A 
ATOM     12  C   UNL     1      61.709  63.525  69.575  0.00  0.00    +0.000 A 
ATOM     13  C   UNL     1      63.784  65.533  70.055  0.00  0.00    +0.000 A 
ATOM     14  C   UNL     1      63.888  66.336  69.892  0.00  0.00    +0.000 A 
ATOM     15  C   UNL     1      64.580  66.719  70.128  0.00  0.00    +0.000 A 
ATOM     16  C   UNL     1      65.167  66.299  70.527  0.00  0.00    +0.000 A 
ATOM     17  C   UNL     1      65.064  65.498  70.690  0.00  0.00    +0.000 A 
ATOM     18  C   UNL     1      64.372  65.115  70.454  0.00  0.00    +0.000 A 
ENDROOT
TORSDOF 0
ENDMDL
MODEL 9
REMARK VINA RESULT:    -7.678     12.711     14.155
REMARK INTER + INTRA:          -7.678
REMARK INTER:                  -7.678
REMARK INTRA:                   0.000
REMARK UNBOUND:                 0.000
ROOT
REMARK  Name = isobromindione
REMARK                            x       y       z     vdW  Elec       q    Type
REMARK                         _______ _______ _______ _____ _____    ______ ____
ATOM      1 BR   UNL     1      61.617  69.854  51.101  0.00  0.00    +0.000 Br
ATOM      2  C   UNL     1      61.803  69.363  51.738  0.00  0.00    +0.000 A 
ATOM      3  C   UNL     1      61.924  68.556  51.616  0.00  0.00    +0.000 A 
ATOM      4  C   UNL     1      62.110  68.066  52.252  0.00  0.00    +0.000 A 
ATOM      5  C   UNL     1      62.176  68.382  53.011  0.00  0.00    +0.000 A 
ATOM      6  C   UNL     1      62.352  68.038  53.739  0.00  0.00    +0.000 C 
ATOM      7  O   UNL     1      62.512  67.239  53.872  0.00  0.00    +0.000 OA
ATOM      8  C   UNL     1      62.340  68.631  54.312  0.00  0.00    +0.000 C 
ATOM      9  C   UNL     1      62.157  69.343  53.937  0.00  0.00    +0.000 C 
ATOM     10  O   UNL     1      62.087  70.080  54.303  0.00  0.00    +0.000 OA
ATOM     11  C   UNL     1      62.056  69.189  53.134  0.00  0.00    +0.000 A 
ATOM     12  C   UNL     1      61.869  69.680  52.497  0.00  0.00    +0.000 A 
ATOM     13  C   UNL     1      62.486  68.531  55.118  0.00  0.00    +0.000 A 
ATOM     14  C   UNL     1      62.663  67.781  55.415  0.00  0.00    +0.000 A 
ATOM     15  C   UNL     1      62.809  67.681  56.221  0.00  0.00    +0.000 A 
ATOM     16  C   UNL     1      62.777  68.330  56.730  0.00  0.00    +0.000 A 
ATOM     17  C   UNL     1      62.600  69.078  56.433  0.00  0.00    +0.000 A 
ATOM     18  C   UNL     1      62.454  69.179  55.627  0.00  0.00    +0.000 A 
ENDROOT
TORSDOF 0
ENDMDL
