MODEL 1
REMARK VINA RESULT:    -9.516      0.000      0.000
REMARK INTER + INTRA:          -9.516
REMARK INTER:                  -9.516
REMARK INTRA:                   0.000
REMARK UNBOUND:                 0.000
ROOT
REMARK  Name = isocarboxazid
REMARK                            x       y       z     vdW  Elec       q    Type
REMARK                         _______ _______ _______ _____ _____    ______ ____
ATOM      1  C   UNL     1      62.464  64.394  69.909  0.00  0.00    +0.000 C 
ATOM      2  C   UNL     1      61.893  63.946  69.515  0.00  0.00    +0.000 A 
ATOM      3  C   UNL     1      61.954  63.645  68.749  0.00  0.00    +0.000 A 
ATOM      4  C   UNL     1      61.260  63.235  68.580  0.00  0.00    +0.000 A 
ATOM      5  N   UNL     1      60.767  63.282  69.241  0.00  0.00    +0.000 NA
ATOM      6  O   UNL     1      61.159  63.722  69.819  0.00  0.00    +0.000 OA
ATOM      7  C   UNL     1      61.086  62.845  67.873  0.00  0.00    +0.000 C 
ATOM      8  O   UNL     1      60.365  62.457  67.782  0.00  0.00    +0.000 OA
ATOM      9  N   UNL     1      61.635  62.845  67.257  0.00  0.00    +0.000 NA
ATOM     10  N   UNL     1      61.462  62.456  66.551  0.00  0.00    +0.000 NA
ATOM     11  C   UNL     1      62.011  62.456  65.935  0.00  0.00    +0.000 C 
ATOM     12  C   UNL     1      61.838  62.066  65.229  0.00  0.00    +0.000 A 
ATOM     13  C   UNL     1      62.387  62.066  64.612  0.00  0.00    +0.000 A 
ATOM     14  C   UNL     1      62.214  61.677  63.906  0.00  0.00    +0.000 A 
ATOM     15  C   UNL     1      61.493  61.288  63.816  0.00  0.00    +0.000 A 
ATOM     16  C   UNL     1      60.944  61.288  64.431  0.00  0.00    +0.000 A 
ATOM     17  C   UNL     1      61.117  61.678  65.138  0.00  0.00    +0.000 A 
ENDROOT
TORSDOF 0
ENDMDL
MODEL 2
REMARK VINA RESULT:    -9.465      1.736      4.754
REMARK INTER + INTRA:          -9.465
REMARK INTER:                  -9.465
REMARK INTRA:                   0.000
REMARK UNBOUND:                 0.000
ROOT
REMARK  Name = isocarboxazid
REMARK                            x       y       z     vdW  Elec       q    Type
REMARK                         _______ _______ _______ _____ _____    ______ ____
ATOM      1  C   UNL     1      60.889  61.088  64.472  0.00  0.00    +0.000 C 
ATOM      2  C   UNL     1      61.159  61.658  65.005  0.00  0.00    +0.000 A 
ATOM      3  C   UNL     1      61.023  61.664  65.819  0.00  0.00    +0.000 A 
ATOM      4  C   UNL     1      61.391  62.331  66.134  0.00  0.00    +0.000 A 
ATOM      5  N   UNL     1      61.755  62.738  65.515  0.00  0.00    +0.000 NA
ATOM      6  O   UNL     1      61.611  62.322  64.817  0.00  0.00    +0.000 OA
ATOM      7  C   UNL     1      61.396  62.553  66.930  0.00  0.00    +0.000 C 
ATOM      8  O   UNL     1      61.789  63.237  67.164  0.00  0.00    +0.000 OA
ATOM      9  N   UNL     1      61.006  62.088  67.489  0.00  0.00    +0.000 NA
ATOM     10  N   UNL     1      61.010  62.310  68.283  0.00  0.00    +0.000 NA
ATOM     11  C   UNL     1      60.620  61.845  68.843  0.00  0.00    +0.000 C 
ATOM     12  C   UNL     1      60.625  62.067  69.638  0.00  0.00    +0.000 A 
ATOM     13  C   UNL     1      60.235  61.603  70.198  0.00  0.00    +0.000 A 
ATOM     14  C   UNL     1      60.239  61.824  70.992  0.00  0.00    +0.000 A 
ATOM     15  C   UNL     1      60.633  62.509  71.227  0.00  0.00    +0.000 A 
ATOM     16  C   UNL     1      61.023  62.974  70.668  0.00  0.00    +0.000 A 
ATOM     17  C   UNL     1      61.018  62.752  69.872  0.00  0.00    +0.000 A 
ENDROOT
TORSDOF 0
ENDMDL
MODEL 3
REMARK VINA RESULT:    -8.689      2.932      5.969
REMARK INTER + INTRA:          -8.689
REMARK INTER:                  -8.689
REMARK INTRA:                   0.000
REMARK UNBOUND:                 0.000
ROOT
REMARK  Name = isocarboxazid
REMARK                            x       y       z     vdW  Elec       q    Type
REMARK                         _______ _______ _______ _____ _____    ______ ____
ATOM      1  C   UNL     1      61.279  63.443  68.038  0.00  0.00    +0.000 C 
ATOM      2  C   UNL     1      61.626  63.568  68.776  0.00  0.00    +0.000 A 
ATOM      3  C   UNL     1      62.230  64.104  68.945  0.00  0.00    +0.000 A 
ATOM      4  C   UNL     1      62.406  64.045  69.748  0.00  0.00    +0.000 A 
ATOM      5  N   UNL     1      61.910  63.474  70.078  0.00  0.00    +0.000 NA
ATOM      6  O   UNL     1      61.428  63.179  69.476  0.00  0.00    +0.000 OA
ATOM      7  C   UNL     1      62.978  64.482  70.152  0.00  0.00    +0.000 C 
ATOM      8  O   UNL     1      63.093  64.364  70.960  0.00  0.00    +0.000 OA
ATOM      9  N   UNL     1      63.435  65.037  69.748  0.00  0.00    +0.000 NA
ATOM     10  N   UNL     1      64.006  65.474  70.152  0.00  0.00    +0.000 NA
ATOM     11  C   UNL     1      64.464  66.029  69.747  0.00  0.00    +0.000 C 
ATOM     12  C   UNL     1      65.035  66.466  70.152  0.00  0.00    +0.000 A 
ATOM     13  C   UNL     1      65.492  67.021  69.747  0.00  0.00    +0.000 A 
ATOM     14  C   UNL     1      66.064  67.458  70.151  0.00  0.00    +0.000 A 
ATOM     15  C   UNL     1      66.178  67.339  70.958  0.00  0.00    +0.000 A 
ATOM     16  C   UNL     1      65.722  66.784  71.363  0.00  0.00    +0.000 A 
ATOM     17  C   UNL     1      65.150  66.347  70.959  0.00  0.00    +0.000 A 
ENDROOT
TORSDOF 0
ENDMDL
MODEL 4
REMARK VINA RESULT:    -8.216     18.778     19.207
REMARK INTER + INTRA:          -8.216
REMARK INTER:                  -8.216
REMARK INTRA:                   0.000
REMARK UNBOUND:                 0.000
ROOT
REMARK  Name = isocarboxazid
REMARK                            x       y       z     vdW  Elec       q    Type
REMARK                         _______ _______ _______ _____ _____    ______ ____
ATOM      1  C   UNL     1      61.129  80.499  57.932  0.00  0.00    +0.000 C 
ATOM      2  C   UNL     1      61.940  80.648  57.897  0.00  0.00    +0.000 A 
ATOM      3  C   UNL     1      62.537  80.160  58.192  0.00  0.00    +0.000 A 
ATOM      4  C   UNL     1      63.262  80.523  58.039  0.00  0.00    +0.000 A 
ATOM      5  N   UNL     1      63.114  81.235  57.649  0.00  0.00    +0.000 NA
ATOM      6  O   UNL     1      62.296  81.312  57.562  0.00  0.00    +0.000 OA
ATOM      7  C   UNL     1      64.005  80.225  58.240  0.00  0.00    +0.000 C 
ATOM      8  O   UNL     1      64.685  80.650  58.050  0.00  0.00    +0.000 OA
ATOM      9  N   UNL     1      64.067  79.501  58.630  0.00  0.00    +0.000 NA
ATOM     10  N   UNL     1      64.810  79.204  58.831  0.00  0.00    +0.000 NA
ATOM     11  C   UNL     1      64.872  78.480  59.222  0.00  0.00    +0.000 C 
ATOM     12  C   UNL     1      65.615  78.182  59.423  0.00  0.00    +0.000 A 
ATOM     13  C   UNL     1      65.677  77.458  59.814  0.00  0.00    +0.000 A 
ATOM     14  C   UNL     1      66.420  77.161  60.015  0.00  0.00    +0.000 A 
ATOM     15  C   UNL     1      67.100  77.587  59.825  0.00  0.00    +0.000 A 
ATOM     16  C   UNL     1      67.038  78.310  59.434  0.00  0.00    +0.000 A 
ATOM     17  C   UNL     1      66.294  78.608  59.233  0.00  0.00    +0.000 A 
ENDROOT
TORSDOF 0
ENDMDL
MODEL 5
REMARK VINA RESULT:    -8.016      1.169      4.889
REMARK INTER + INTRA:          -8.016
REMARK INTER:                  -8.016
REMARK INTRA:                   0.000
REMARK UNBOUND:                 0.000
ROOT
REMARK  Name = isocarboxazid
REMARK                            x       y       z     vdW  Elec       q    Type
REMARK                         _______ _______ _______ _____ _____    ______ ____
ATOM      1  C   UNL     1      61.641  62.133  65.513  0.00  0.00    +0.000 C 
ATOM      2  C   UNL     1      61.267  62.353  66.216  0.00  0.00    +0.000 A 
ATOM      3  C   UNL     1      61.620  62.742  66.852  0.00  0.00    +0.000 A 
ATOM      4  C   UNL     1      61.046  62.852  67.434  0.00  0.00    +0.000 A 
ATOM      5  N   UNL     1      60.338  62.529  67.158  0.00  0.00    +0.000 NA
ATOM      6  O   UNL     1      60.475  62.221  66.404  0.00  0.00    +0.000 OA
ATOM      7  C   UNL     1      61.159  63.219  68.165  0.00  0.00    +0.000 C 
ATOM      8  O   UNL     1      60.531  63.288  68.693  0.00  0.00    +0.000 OA
ATOM      9  N   UNL     1      61.902  63.516  68.365  0.00  0.00    +0.000 NA
ATOM     10  N   UNL     1      62.015  63.882  69.095  0.00  0.00    +0.000 NA
ATOM     11  C   UNL     1      62.758  64.180  69.297  0.00  0.00    +0.000 C 
ATOM     12  C   UNL     1      62.871  64.547  70.027  0.00  0.00    +0.000 A 
ATOM     13  C   UNL     1      63.615  64.844  70.228  0.00  0.00    +0.000 A 
ATOM     14  C   UNL     1      63.727  65.211  70.958  0.00  0.00    +0.000 A 
ATOM     15  C   UNL     1      63.099  65.280  71.487  0.00  0.00    +0.000 A 
ATOM     16  C   UNL     1      62.356  64.983  71.286  0.00  0.00    +0.000 A 
ATOM     17  C   UNL     1      62.243  64.616  70.555  0.00  0.00    +0.000 A 
ENDROOT
TORSDOF 0
ENDMDL
MODEL 6
REMARK VINA RESULT:    -7.663      2.570      5.709
REMARK INTER + INTRA:          -7.663
REMARK INTER:                  -7.663
REMARK INTRA:                   0.000
REMARK UNBOUND:                 0.000
ROOT
REMARK  Name = isocarboxazid
REMARK                            x       y       z     vdW  Elec       q    Type
REMARK                         _______ _______ _______ _____ _____    ______ ____
ATOM      1  C   UNL     1      61.449  62.817  66.862  0.00  0.00    +0.000 C 
ATOM      2  C   UNL     1      61.182  62.612  67.615  0.00  0.00    +0.000 A 
ATOM      3  C   UNL     1      60.906  63.134  68.191  0.00  0.00    +0.000 A 
ATOM      4  C   UNL     1      60.697  62.693  68.856  0.00  0.00    +0.000 A 
ATOM      5  N   UNL     1      60.845  61.898  68.692  0.00  0.00    +0.000 NA
ATOM      6  O   UNL     1      61.144  61.848  67.925  0.00  0.00    +0.000 OA
ATOM      7  C   UNL     1      60.395  62.995  69.563  0.00  0.00    +0.000 C 
ATOM      8  O   UNL     1      60.211  62.484  70.184  0.00  0.00    +0.000 OA
ATOM      9  N   UNL     1      60.276  63.806  69.647  0.00  0.00    +0.000 NA
ATOM     10  N   UNL     1      59.974  64.107  70.353  0.00  0.00    +0.000 NA
ATOM     11  C   UNL     1      59.855  64.920  70.438  0.00  0.00    +0.000 C 
ATOM     12  C   UNL     1      59.553  65.220  71.144  0.00  0.00    +0.000 A 
ATOM     13  C   UNL     1      59.434  66.033  71.229  0.00  0.00    +0.000 A 
ATOM     14  C   UNL     1      59.132  66.334  71.935  0.00  0.00    +0.000 A 
ATOM     15  C   UNL     1      58.948  65.824  72.555  0.00  0.00    +0.000 A 
ATOM     16  C   UNL     1      59.066  65.012  72.471  0.00  0.00    +0.000 A 
ATOM     17  C   UNL     1      59.369  64.710  71.764  0.00  0.00    +0.000 A 
ENDROOT
TORSDOF 0
ENDMDL
MODEL 7
REMARK VINA RESULT:    -7.630      2.715      5.939
REMARK INTER + INTRA:          -7.630
REMARK INTER:                  -7.630
REMARK INTRA:                   0.000
REMARK UNBOUND:                 0.000
ROOT
REMARK  Name = isocarboxazid
REMARK                            x       y       z     vdW  Elec       q    Type
REMARK                         _______ _______ _______ _____ _____    ______ ____
ATOM      1  C   UNL     1      60.349  61.926  68.494  0.00  0.00    +0.000 C 
ATOM      2  C   UNL     1      60.900  62.539  68.459  0.00  0.00    +0.000 A 
ATOM      3  C   UNL     1      61.114  63.036  69.082  0.00  0.00    +0.000 A 
ATOM      4  C   UNL     1      61.680  63.566  68.803  0.00  0.00    +0.000 A 
ATOM      5  N   UNL     1      61.817  63.399  68.006  0.00  0.00    +0.000 NA
ATOM      6  O   UNL     1      61.334  62.763  67.794  0.00  0.00    +0.000 OA
ATOM      7  C   UNL     1      62.046  64.162  69.243  0.00  0.00    +0.000 C 
ATOM      8  O   UNL     1      62.604  64.653  68.888  0.00  0.00    +0.000 OA
ATOM      9  N   UNL     1      61.853  64.264  70.038  0.00  0.00    +0.000 NA
ATOM     10  N   UNL     1      62.219  64.859  70.478  0.00  0.00    +0.000 NA
ATOM     11  C   UNL     1      62.025  64.961  71.274  0.00  0.00    +0.000 C 
ATOM     12  C   UNL     1      62.391  65.556  71.713  0.00  0.00    +0.000 A 
ATOM     13  C   UNL     1      62.198  65.659  72.509  0.00  0.00    +0.000 A 
ATOM     14  C   UNL     1      62.564  66.253  72.948  0.00  0.00    +0.000 A 
ATOM     15  C   UNL     1      63.122  66.745  72.593  0.00  0.00    +0.000 A 
ATOM     16  C   UNL     1      63.315  66.642  71.797  0.00  0.00    +0.000 A 
ATOM     17  C   UNL     1      62.949  66.047  71.357  0.00  0.00    +0.000 A 
ENDROOT
TORSDOF 0
ENDMDL
MODEL 8
REMARK VINA RESULT:    -7.587      2.201      5.267
REMARK INTER + INTRA:          -7.587
REMARK INTER:                  -7.587
REMARK INTRA:                   0.000
REMARK UNBOUND:                 0.000
ROOT
REMARK  Name = isocarboxazid
REMARK                            x       y       z     vdW  Elec       q    Type
REMARK                         _______ _______ _______ _____ _____    ______ ____
ATOM      1  C   UNL     1      59.450  62.004  66.420  0.00  0.00    +0.000 C 
ATOM      2  C   UNL     1      60.064  62.316  66.876  0.00  0.00    +0.000 A 
ATOM      3  C   UNL     1      60.027  62.998  67.339  0.00  0.00    +0.000 A 
ATOM      4  C   UNL     1      60.762  63.103  67.697  0.00  0.00    +0.000 A 
ATOM      5  N   UNL     1      61.254  62.485  67.457  0.00  0.00    +0.000 NA
ATOM      6  O   UNL     1      60.822  61.999  66.949  0.00  0.00    +0.000 OA
ATOM      7  C   UNL     1      60.969  63.718  68.208  0.00  0.00    +0.000 C 
ATOM      8  O   UNL     1      61.729  63.751  68.526  0.00  0.00    +0.000 OA
ATOM      9  N   UNL     1      60.416  64.299  68.399  0.00  0.00    +0.000 NA
ATOM     10  N   UNL     1      60.623  64.913  68.909  0.00  0.00    +0.000 NA
ATOM     11  C   UNL     1      60.070  65.495  69.101  0.00  0.00    +0.000 C 
ATOM     12  C   UNL     1      60.277  66.109  69.611  0.00  0.00    +0.000 A 
ATOM     13  C   UNL     1      59.724  66.690  69.802  0.00  0.00    +0.000 A 
ATOM     14  C   UNL     1      59.931  67.305  70.312  0.00  0.00    +0.000 A 
ATOM     15  C   UNL     1      60.691  67.338  70.630  0.00  0.00    +0.000 A 
ATOM     16  C   UNL     1      61.244  66.757  70.439  0.00  0.00    +0.000 A 
ATOM     17  C   UNL     1      61.037  66.142  69.929  0.00  0.00    +0.000 A 
ENDROOT
TORSDOF 0
ENDMDL
MODEL 9
REMARK VINA RESULT:    -7.533     24.382     25.150
REMARK INTER + INTRA:          -7.533
REMARK INTER:                  -7.533
REMARK INTRA:                   0.000
REMARK UNBOUND:                 0.000
ROOT
REMARK  Name = isocarboxazid
REMARK                            x       y       z     vdW  Elec       q    Type
REMARK                         _______ _______ _______ _____ _____    ______ ____
ATOM      1  C   UNL     1      68.367  80.841  53.992  0.00  0.00    +0.000 C 
ATOM      2  C   UNL     1      69.074  80.981  53.589  0.00  0.00    +0.000 A 
ATOM      3  C   UNL     1      69.313  80.620  52.887  0.00  0.00    +0.000 A 
ATOM      4  C   UNL     1      70.052  80.923  52.683  0.00  0.00    +0.000 A 
ATOM      5  N   UNL     1      70.271  81.472  53.259  0.00  0.00    +0.000 NA
ATOM      6  O   UNL     1      69.666  81.508  53.819  0.00  0.00    +0.000 OA
ATOM      7  C   UNL     1      70.496  80.714  52.018  0.00  0.00    +0.000 C 
ATOM      8  O   UNL     1      71.229  81.065  51.886  0.00  0.00    +0.000 OA
ATOM      9  N   UNL     1      70.204  80.154  51.488  0.00  0.00    +0.000 NA
ATOM     10  N   UNL     1      70.648  79.945  50.825  0.00  0.00    +0.000 NA
ATOM     11  C   UNL     1      70.356  79.384  50.294  0.00  0.00    +0.000 C 
ATOM     12  C   UNL     1      70.800  79.176  49.630  0.00  0.00    +0.000 A 
ATOM     13  C   UNL     1      70.508  78.615  49.099  0.00  0.00    +0.000 A 
ATOM     14  C   UNL     1      70.952  78.406  48.436  0.00  0.00    +0.000 A 
ATOM     15  C   UNL     1      71.685  78.758  48.303  0.00  0.00    +0.000 A 
ATOM     16  C   UNL     1      71.977  79.318  48.833  0.00  0.00    +0.000 A 
ATOM     17  C   UNL     1      71.533  79.527  49.497  0.00  0.00    +0.000 A 
ENDROOT
TORSDOF 0
ENDMDL
