MODEL 1
REMARK VINA RESULT:   -14.899      0.000      0.000
REMARK INTER + INTRA:         -14.899
REMARK INTER:                 -14.899
REMARK INTRA:                   0.000
REMARK UNBOUND:                 0.000
ROOT
REMARK  Name = isoflupredone acetate
REMARK                            x       y       z     vdW  Elec       q    Type
REMARK                         _______ _______ _______ _____ _____    ______ ____
ATOM      1  C   UNL     1      61.780  65.033  70.777  0.00  0.00    +0.000 C 
ATOM      2  C   UNL     1      61.878  64.675  70.040  0.00  0.00    +0.000 C 
ATOM      3  O   UNL     1      62.603  64.722  69.650  0.00  0.00    +0.000 OA
ATOM      4  O   UNL     1      61.250  64.268  69.693  0.00  0.00    +0.000 OA
ATOM      5  C   UNL     1      61.347  63.909  68.956  0.00  0.00    +0.000 C 
ATOM      6  C   UNL     1      60.719  63.502  68.609  0.00  0.00    +0.000 C 
ATOM      7  O   UNL     1      59.993  63.453  68.999  0.00  0.00    +0.000 OA
ATOM      8  C   UNL     1      60.816  63.143  67.873  0.00  0.00    +0.000 C 
ATOM      9  O   UNL     1      60.029  62.919  67.974  0.00  0.00    +0.000 OA
ATOM     10  C   UNL     1      61.584  63.442  67.925  0.00  0.00    +0.000 C 
ATOM     11  C   UNL     1      61.990  63.221  67.242  0.00  0.00    +0.000 C 
ATOM     12  C   UNL     1      61.475  62.786  66.768  0.00  0.00    +0.000 C 
ATOM     13  C   UNL     1      61.572  62.428  66.031  0.00  0.00    +0.000 C 
ATOM     14  C   UNL     1      62.298  62.476  65.641  0.00  0.00    +0.000 C 
ATOM     15  C   UNL     1      62.395  62.117  64.905  0.00  0.00    +0.000 C 
ATOM     16  C   UNL     1      61.767  61.711  64.558  0.00  0.00    +0.000 C 
ATOM     17  C   UNL     1      61.865  61.352  63.821  0.00  0.00    +0.000 C 
ATOM     18  C   UNL     1      61.237  60.945  63.474  0.00  0.00    +0.000 C 
ATOM     19  O   UNL     1      61.334  60.587  62.738  0.00  0.00    +0.000 OA
ATOM     20  C   UNL     1      60.511  60.897  63.864  0.00  0.00    +0.000 C 
ATOM     21  C   UNL     1      60.414  61.255  64.600  0.00  0.00    +0.000 C 
ATOM     22  C   UNL     1      61.041  61.662  64.948  0.00  0.00    +0.000 C 
ATOM     23  C   UNL     1      60.315  61.614  65.337  0.00  0.00    +0.000 C 
ATOM     24  C   UNL     1      60.944  62.021  65.684  0.00  0.00    +0.000 C 
ATOM     25  F   UNL     1      60.156  61.797  65.785  0.00  0.00    +0.000 F 
ATOM     26  C   UNL     1      60.218  61.972  66.073  0.00  0.00    +0.000 C 
ATOM     27  O   UNL     1      59.591  61.565  65.726  0.00  0.00    +0.000 OA
ATOM     28  C   UNL     1      60.121  62.331  66.810  0.00  0.00    +0.000 C 
ATOM     29  C   UNL     1      60.749  62.738  67.157  0.00  0.00    +0.000 C 
ATOM     30  C   UNL     1      60.059  62.736  67.610  0.00  0.00    +0.000 C 
ENDROOT
TORSDOF 0
ENDMDL
MODEL 2
REMARK VINA RESULT:   -14.462      1.765      5.272
REMARK INTER + INTRA:         -14.462
REMARK INTER:                 -14.462
REMARK INTRA:                   0.000
REMARK UNBOUND:                 0.000
ROOT
REMARK  Name = isoflupredone acetate
REMARK                            x       y       z     vdW  Elec       q    Type
REMARK                         _______ _______ _______ _____ _____    ______ ____
ATOM      1  C   UNL     1      60.915  61.134  63.856  0.00  0.00    +0.000 C 
ATOM      2  C   UNL     1      60.825  61.196  64.674  0.00  0.00    +0.000 C 
ATOM      3  O   UNL     1      60.429  60.607  65.092  0.00  0.00    +0.000 OA
ATOM      4  O   UNL     1      61.134  61.848  65.074  0.00  0.00    +0.000 OA
ATOM      5  C   UNL     1      61.045  61.911  65.892  0.00  0.00    +0.000 C 
ATOM      6  C   UNL     1      61.354  62.563  66.292  0.00  0.00    +0.000 C 
ATOM      7  O   UNL     1      61.751  63.154  65.875  0.00  0.00    +0.000 OA
ATOM      8  C   UNL     1      61.265  62.626  67.110  0.00  0.00    +0.000 C 
ATOM      9  O   UNL     1      61.679  63.332  67.015  0.00  0.00    +0.000 OA
ATOM     10  C   UNL     1      60.869  61.905  67.035  0.00  0.00    +0.000 C 
ATOM     11  C   UNL     1      60.622  61.671  67.786  0.00  0.00    +0.000 C 
ATOM     12  C   UNL     1      60.865  62.245  68.326  0.00  0.00    +0.000 C 
ATOM     13  C   UNL     1      60.776  62.307  69.143  0.00  0.00    +0.000 C 
ATOM     14  C   UNL     1      60.379  61.717  69.562  0.00  0.00    +0.000 C 
ATOM     15  C   UNL     1      60.290  61.779  70.380  0.00  0.00    +0.000 C 
ATOM     16  C   UNL     1      60.599  62.432  70.779  0.00  0.00    +0.000 C 
ATOM     17  C   UNL     1      60.510  62.494  71.598  0.00  0.00    +0.000 C 
ATOM     18  C   UNL     1      60.818  63.146  71.997  0.00  0.00    +0.000 C 
ATOM     19  O   UNL     1      60.730  63.208  72.814  0.00  0.00    +0.000 OA
ATOM     20  C   UNL     1      61.216  63.736  71.579  0.00  0.00    +0.000 C 
ATOM     21  C   UNL     1      61.304  63.674  70.762  0.00  0.00    +0.000 C 
ATOM     22  C   UNL     1      60.996  63.022  70.361  0.00  0.00    +0.000 C 
ATOM     23  C   UNL     1      61.394  63.612  69.944  0.00  0.00    +0.000 C 
ATOM     24  C   UNL     1      61.085  62.960  69.544  0.00  0.00    +0.000 C 
ATOM     25  F   UNL     1      61.500  63.667  69.448  0.00  0.00    +0.000 F 
ATOM     26  C   UNL     1      61.482  63.550  69.126  0.00  0.00    +0.000 C 
ATOM     27  O   UNL     1      61.790  64.202  69.526  0.00  0.00    +0.000 OA
ATOM     28  C   UNL     1      61.571  63.488  68.308  0.00  0.00    +0.000 C 
ATOM     29  C   UNL     1      61.262  62.835  67.908  0.00  0.00    +0.000 C 
ATOM     30  C   UNL     1      61.645  63.379  67.419  0.00  0.00    +0.000 C 
ENDROOT
TORSDOF 0
ENDMDL
MODEL 3
REMARK VINA RESULT:   -14.127      4.790      6.841
REMARK INTER + INTRA:         -14.127
REMARK INTER:                 -14.127
REMARK INTRA:                   0.000
REMARK UNBOUND:                 0.000
ROOT
REMARK  Name = isoflupredone acetate
REMARK                            x       y       z     vdW  Elec       q    Type
REMARK                         _______ _______ _______ _____ _____    ______ ____
ATOM      1  C   UNL     1      60.144  61.730  70.960  0.00  0.00    +0.000 C 
ATOM      2  C   UNL     1      60.744  62.253  70.744  0.00  0.00    +0.000 C 
ATOM      3  O   UNL     1      61.112  62.179  70.010  0.00  0.00    +0.000 OA
ATOM      4  O   UNL     1      60.977  62.850  71.264  0.00  0.00    +0.000 OA
ATOM      5  C   UNL     1      61.578  63.373  71.048  0.00  0.00    +0.000 C 
ATOM      6  C   UNL     1      61.811  63.971  71.568  0.00  0.00    +0.000 C 
ATOM      7  O   UNL     1      61.444  64.045  72.303  0.00  0.00    +0.000 OA
ATOM      8  C   UNL     1      62.411  64.494  71.353  0.00  0.00    +0.000 C 
ATOM      9  O   UNL     1      62.272  64.824  72.094  0.00  0.00    +0.000 OA
ATOM     10  C   UNL     1      62.426  64.053  70.655  0.00  0.00    +0.000 C 
ATOM     11  C   UNL     1      63.007  64.373  70.163  0.00  0.00    +0.000 C 
ATOM     12  C   UNL     1      63.351  65.011  70.557  0.00  0.00    +0.000 C 
ATOM     13  C   UNL     1      63.951  65.534  70.341  0.00  0.00    +0.000 C 
ATOM     14  C   UNL     1      64.319  65.460  69.606  0.00  0.00    +0.000 C 
ATOM     15  C   UNL     1      64.920  65.983  69.391  0.00  0.00    +0.000 C 
ATOM     16  C   UNL     1      65.152  66.580  69.911  0.00  0.00    +0.000 C 
ATOM     17  C   UNL     1      65.754  67.103  69.695  0.00  0.00    +0.000 C 
ATOM     18  C   UNL     1      65.986  67.700  70.214  0.00  0.00    +0.000 C 
ATOM     19  O   UNL     1      66.587  68.223  69.999  0.00  0.00    +0.000 OA
ATOM     20  C   UNL     1      65.619  67.774  70.949  0.00  0.00    +0.000 C 
ATOM     21  C   UNL     1      65.018  67.251  71.164  0.00  0.00    +0.000 C 
ATOM     22  C   UNL     1      64.785  66.654  70.646  0.00  0.00    +0.000 C 
ATOM     23  C   UNL     1      64.417  66.729  71.381  0.00  0.00    +0.000 C 
ATOM     24  C   UNL     1      64.184  66.131  70.861  0.00  0.00    +0.000 C 
ATOM     25  F   UNL     1      64.045  66.463  71.604  0.00  0.00    +0.000 F 
ATOM     26  C   UNL     1      63.817  66.206  71.596  0.00  0.00    +0.000 C 
ATOM     27  O   UNL     1      64.050  66.803  72.115  0.00  0.00    +0.000 OA
ATOM     28  C   UNL     1      63.216  65.683  71.811  0.00  0.00    +0.000 C 
ATOM     29  C   UNL     1      62.983  65.086  71.292  0.00  0.00    +0.000 C 
ATOM     30  C   UNL     1      62.567  65.092  72.005  0.00  0.00    +0.000 C 
ENDROOT
TORSDOF 0
ENDMDL
MODEL 4
REMARK VINA RESULT:   -13.701      2.098      5.592
REMARK INTER + INTRA:         -13.701
REMARK INTER:                 -13.701
REMARK INTRA:                   0.000
REMARK UNBOUND:                 0.000
ROOT
REMARK  Name = isoflupredone acetate
REMARK                            x       y       z     vdW  Elec       q    Type
REMARK                         _______ _______ _______ _____ _____    ______ ____
ATOM      1  C   UNL     1      61.877  61.861  64.974  0.00  0.00    +0.000 C 
ATOM      2  C   UNL     1      61.626  62.327  65.608  0.00  0.00    +0.000 C 
ATOM      3  O   UNL     1      61.503  63.135  65.504  0.00  0.00    +0.000 OA
ATOM      4  O   UNL     1      61.498  61.982  66.347  0.00  0.00    +0.000 OA
ATOM      5  C   UNL     1      61.248  62.446  66.981  0.00  0.00    +0.000 C 
ATOM      6  C   UNL     1      61.120  62.102  67.720  0.00  0.00    +0.000 C 
ATOM      7  O   UNL     1      61.243  61.293  67.825  0.00  0.00    +0.000 OA
ATOM      8  C   UNL     1      60.869  62.566  68.353  0.00  0.00    +0.000 C 
ATOM      9  O   UNL     1      60.893  61.856  68.772  0.00  0.00    +0.000 OA
ATOM     10  C   UNL     1      60.898  63.180  67.803  0.00  0.00    +0.000 C 
ATOM     11  C   UNL     1      60.670  63.876  68.184  0.00  0.00    +0.000 C 
ATOM     12  C   UNL     1      60.500  63.692  68.970  0.00  0.00    +0.000 C 
ATOM     13  C   UNL     1      60.249  64.156  69.604  0.00  0.00    +0.000 C 
ATOM     14  C   UNL     1      60.126  64.966  69.499  0.00  0.00    +0.000 C 
ATOM     15  C   UNL     1      59.875  65.430  70.133  0.00  0.00    +0.000 C 
ATOM     16  C   UNL     1      59.748  65.085  70.872  0.00  0.00    +0.000 C 
ATOM     17  C   UNL     1      59.497  65.551  71.506  0.00  0.00    +0.000 C 
ATOM     18  C   UNL     1      59.369  65.206  72.244  0.00  0.00    +0.000 C 
ATOM     19  O   UNL     1      59.118  65.670  72.878  0.00  0.00    +0.000 OA
ATOM     20  C   UNL     1      59.492  64.397  72.349  0.00  0.00    +0.000 C 
ATOM     21  C   UNL     1      59.743  63.932  71.715  0.00  0.00    +0.000 C 
ATOM     22  C   UNL     1      59.871  64.276  70.977  0.00  0.00    +0.000 C 
ATOM     23  C   UNL     1      59.994  63.467  71.082  0.00  0.00    +0.000 C 
ATOM     24  C   UNL     1      60.122  63.812  70.343  0.00  0.00    +0.000 C 
ATOM     25  F   UNL     1      60.145  63.101  70.761  0.00  0.00    +0.000 F 
ATOM     26  C   UNL     1      60.245  63.003  70.448  0.00  0.00    +0.000 C 
ATOM     27  O   UNL     1      60.117  62.659  71.186  0.00  0.00    +0.000 OA
ATOM     28  C   UNL     1      60.495  62.538  69.814  0.00  0.00    +0.000 C 
ATOM     29  C   UNL     1      60.623  62.883  69.075  0.00  0.00    +0.000 C 
ATOM     30  C   UNL     1      60.768  62.071  69.096  0.00  0.00    +0.000 C 
ENDROOT
TORSDOF 0
ENDMDL
MODEL 5
REMARK VINA RESULT:   -13.271      4.749      6.411
REMARK INTER + INTRA:         -13.271
REMARK INTER:                 -13.271
REMARK INTRA:                   0.000
REMARK UNBOUND:                 0.000
ROOT
REMARK  Name = isoflupredone acetate
REMARK                            x       y       z     vdW  Elec       q    Type
REMARK                         _______ _______ _______ _____ _____    ______ ____
ATOM      1  C   UNL     1      66.620  68.141  70.173  0.00  0.00    +0.000 C 
ATOM      2  C   UNL     1      66.045  67.550  70.152  0.00  0.00    +0.000 C 
ATOM      3  O   UNL     1      65.992  67.047  69.501  0.00  0.00    +0.000 OA
ATOM      4  O   UNL     1      65.521  67.462  70.784  0.00  0.00    +0.000 OA
ATOM      5  C   UNL     1      64.946  66.871  70.764  0.00  0.00    +0.000 C 
ATOM      6  C   UNL     1      64.423  66.782  71.396  0.00  0.00    +0.000 C 
ATOM      7  O   UNL     1      64.474  67.285  72.048  0.00  0.00    +0.000 OA
ATOM      8  C   UNL     1      63.847  66.192  71.375  0.00  0.00    +0.000 C 
ATOM      9  O   UNL     1      63.637  66.491  72.114  0.00  0.00    +0.000 OA
ATOM     10  C   UNL     1      64.178  66.015  70.640  0.00  0.00    +0.000 C 
ATOM     11  C   UNL     1      63.763  65.378  70.320  0.00  0.00    +0.000 C 
ATOM     12  C   UNL     1      63.176  65.160  70.856  0.00  0.00    +0.000 C 
ATOM     13  C   UNL     1      62.601  64.570  70.836  0.00  0.00    +0.000 C 
ATOM     14  C   UNL     1      62.548  64.067  70.184  0.00  0.00    +0.000 C 
ATOM     15  C   UNL     1      61.973  63.476  70.164  0.00  0.00    +0.000 C 
ATOM     16  C   UNL     1      61.450  63.388  70.796  0.00  0.00    +0.000 C 
ATOM     17  C   UNL     1      60.874  62.796  70.775  0.00  0.00    +0.000 C 
ATOM     18  C   UNL     1      60.352  62.708  71.406  0.00  0.00    +0.000 C 
ATOM     19  O   UNL     1      59.776  62.118  71.386  0.00  0.00    +0.000 OA
ATOM     20  C   UNL     1      60.404  63.211  72.059  0.00  0.00    +0.000 C 
ATOM     21  C   UNL     1      60.979  63.802  72.079  0.00  0.00    +0.000 C 
ATOM     22  C   UNL     1      61.502  63.890  71.448  0.00  0.00    +0.000 C 
ATOM     23  C   UNL     1      61.554  64.393  72.100  0.00  0.00    +0.000 C 
ATOM     24  C   UNL     1      62.077  64.481  71.468  0.00  0.00    +0.000 C 
ATOM     25  F   UNL     1      61.867  64.781  72.208  0.00  0.00    +0.000 F 
ATOM     26  C   UNL     1      62.129  64.984  72.120  0.00  0.00    +0.000 C 
ATOM     27  O   UNL     1      61.606  64.895  72.752  0.00  0.00    +0.000 OA
ATOM     28  C   UNL     1      62.704  65.574  72.141  0.00  0.00    +0.000 C 
ATOM     29  C   UNL     1      63.228  65.663  71.509  0.00  0.00    +0.000 C 
ATOM     30  C   UNL     1      63.346  66.204  72.121  0.00  0.00    +0.000 C 
ENDROOT
TORSDOF 0
ENDMDL
MODEL 6
REMARK VINA RESULT:   -12.402      2.642      4.429
REMARK INTER + INTRA:         -12.402
REMARK INTER:                 -12.402
REMARK INTRA:                   0.000
REMARK UNBOUND:                 0.000
ROOT
REMARK  Name = isoflupredone acetate
REMARK                            x       y       z     vdW  Elec       q    Type
REMARK                         _______ _______ _______ _____ _____    ______ ____
ATOM      1  C   UNL     1      65.841  67.341  71.416  0.00  0.00    +0.000 C 
ATOM      2  C   UNL     1      65.346  66.864  70.960  0.00  0.00    +0.000 C 
ATOM      3  O   UNL     1      65.402  66.875  70.138  0.00  0.00    +0.000 OA
ATOM      4  O   UNL     1      64.793  66.374  71.329  0.00  0.00    +0.000 OA
ATOM      5  C   UNL     1      64.298  65.896  70.874  0.00  0.00    +0.000 C 
ATOM      6  C   UNL     1      63.745  65.406  71.243  0.00  0.00    +0.000 C 
ATOM      7  O   UNL     1      63.689  65.393  72.066  0.00  0.00    +0.000 OA
ATOM      8  C   UNL     1      63.250  64.928  70.788  0.00  0.00    +0.000 C 
ATOM      9  O   UNL     1      62.952  64.690  71.519  0.00  0.00    +0.000 OA
ATOM     10  C   UNL     1      63.651  65.266  70.151  0.00  0.00    +0.000 C 
ATOM     11  C   UNL     1      63.341  64.948  69.456  0.00  0.00    +0.000 C 
ATOM     12  C   UNL     1      62.749  64.413  69.663  0.00  0.00    +0.000 C 
ATOM     13  C   UNL     1      62.253  63.935  69.208  0.00  0.00    +0.000 C 
ATOM     14  C   UNL     1      62.309  63.947  68.385  0.00  0.00    +0.000 C 
ATOM     15  C   UNL     1      61.814  63.469  67.930  0.00  0.00    +0.000 C 
ATOM     16  C   UNL     1      61.262  62.980  68.299  0.00  0.00    +0.000 C 
ATOM     17  C   UNL     1      60.766  62.501  67.843  0.00  0.00    +0.000 C 
ATOM     18  C   UNL     1      60.214  62.012  68.212  0.00  0.00    +0.000 C 
ATOM     19  O   UNL     1      59.719  61.534  67.758  0.00  0.00    +0.000 OA
ATOM     20  C   UNL     1      60.157  62.000  69.035  0.00  0.00    +0.000 C 
ATOM     21  C   UNL     1      60.653  62.477  69.490  0.00  0.00    +0.000 C 
ATOM     22  C   UNL     1      61.205  62.967  69.122  0.00  0.00    +0.000 C 
ATOM     23  C   UNL     1      61.148  62.955  69.945  0.00  0.00    +0.000 C 
ATOM     24  C   UNL     1      61.701  63.445  69.577  0.00  0.00    +0.000 C 
ATOM     25  F   UNL     1      61.403  63.206  70.308  0.00  0.00    +0.000 F 
ATOM     26  C   UNL     1      61.644  63.433  70.400  0.00  0.00    +0.000 C 
ATOM     27  O   UNL     1      61.092  62.943  70.767  0.00  0.00    +0.000 OA
ATOM     28  C   UNL     1      62.139  63.910  70.854  0.00  0.00    +0.000 C 
ATOM     29  C   UNL     1      62.692  64.400  70.486  0.00  0.00    +0.000 C 
ATOM     30  C   UNL     1      62.699  64.447  71.310  0.00  0.00    +0.000 C 
ENDROOT
TORSDOF 0
ENDMDL
