MODEL 1
REMARK VINA RESULT:    -5.430      0.000      0.000
REMARK INTER + INTRA:          -5.430
REMARK INTER:                  -5.430
REMARK INTRA:                   0.000
REMARK UNBOUND:                 0.000
ROOT
REMARK  Name = isoleucine
REMARK                            x       y       z     vdW  Elec       q    Type
REMARK                         _______ _______ _______ _____ _____    ______ ____
ATOM      1  CD1 ILE A   1      59.763  62.027  66.264  0.00  0.00    +0.000 C 
ATOM      2  CG1 ILE A   1      60.153  61.763  65.588  0.00  0.00    +0.000 C 
ATOM      3  CB  ILE A   1      60.934  61.990  65.446  0.00  0.00    +0.000 C 
ATOM      4  CG2 ILE A   1      61.324  62.482  65.982  0.00  0.00    +0.000 C 
ATOM      5  CA  ILE A   1      61.325  61.725  64.771  0.00  0.00    +0.000 C 
ATOM      6  N   ILE A   1      60.936  61.232  64.235  0.00  0.00    +0.000 NA
ATOM      7  C   ILE A   1      62.105  61.952  64.630  0.00  0.00    +0.000 C 
ATOM      8  O   ILE A   1      62.497  61.687  63.953  0.00  0.00    +0.000 OA
ATOM      9  OXT ILE A   1      62.495  62.445  65.166  0.00  0.00    +0.000 OA
ENDROOT
TORSDOF 0
ENDMDL
MODEL 2
REMARK VINA RESULT:    -5.351      1.282      2.113
REMARK INTER + INTRA:          -5.351
REMARK INTER:                  -5.351
REMARK INTRA:                   0.000
REMARK UNBOUND:                 0.000
ROOT
REMARK  Name = isoleucine
REMARK                            x       y       z     vdW  Elec       q    Type
REMARK                         _______ _______ _______ _____ _____    ______ ____
ATOM      1  CD1 ILE A   1      62.358  61.644  63.737  0.00  0.00    +0.000 C 
ATOM      2  CG1 ILE A   1      61.701  61.598  64.233  0.00  0.00    +0.000 C 
ATOM      3  CB  ILE A   1      61.716  61.964  64.973  0.00  0.00    +0.000 C 
ATOM      4  CG2 ILE A   1      62.389  62.375  65.217  0.00  0.00    +0.000 C 
ATOM      5  CA  ILE A   1      61.059  61.918  65.469  0.00  0.00    +0.000 C 
ATOM      6  N   ILE A   1      60.386  61.508  65.226  0.00  0.00    +0.000 NA
ATOM      7  C   ILE A   1      61.074  62.283  66.208  0.00  0.00    +0.000 C 
ATOM      8  O   ILE A   1      60.417  62.238  66.705  0.00  0.00    +0.000 OA
ATOM      9  OXT ILE A   1      61.748  62.695  66.452  0.00  0.00    +0.000 OA
ENDROOT
TORSDOF 0
ENDMDL
MODEL 3
REMARK VINA RESULT:    -4.899      2.243      2.851
REMARK INTER + INTRA:          -4.899
REMARK INTER:                  -4.899
REMARK INTRA:                   0.000
REMARK UNBOUND:                 0.000
ROOT
REMARK  Name = isoleucine
REMARK                            x       y       z     vdW  Elec       q    Type
REMARK                         _______ _______ _______ _____ _____    ______ ____
ATOM      1  CD1 ILE A   1      59.213  61.992  66.127  0.00  0.00    +0.000 C 
ATOM      2  CG1 ILE A   1      59.491  62.368  66.807  0.00  0.00    +0.000 C 
ATOM      3  CB  ILE A   1      60.292  62.553  66.878  0.00  0.00    +0.000 C 
ATOM      4  CG2 ILE A   1      60.815  62.363  66.268  0.00  0.00    +0.000 C 
ATOM      5  CA  ILE A   1      60.570  62.929  67.557  0.00  0.00    +0.000 C 
ATOM      6  N   ILE A   1      60.047  63.119  68.167  0.00  0.00    +0.000 NA
ATOM      7  C   ILE A   1      61.370  63.114  67.628  0.00  0.00    +0.000 C 
ATOM      8  O   ILE A   1      61.648  63.490  68.308  0.00  0.00    +0.000 OA
ATOM      9  OXT ILE A   1      61.893  62.923  67.018  0.00  0.00    +0.000 OA
ENDROOT
TORSDOF 0
ENDMDL
MODEL 4
REMARK VINA RESULT:    -4.825     17.278     17.666
REMARK INTER + INTRA:          -4.825
REMARK INTER:                  -4.825
REMARK INTRA:                   0.000
REMARK UNBOUND:                 0.000
ROOT
REMARK  Name = isoleucine
REMARK                            x       y       z     vdW  Elec       q    Type
REMARK                         _______ _______ _______ _____ _____    ______ ____
ATOM      1  CD1 ILE A   1      65.876  76.286  60.507  0.00  0.00    +0.000 C 
ATOM      2  CG1 ILE A   1      66.300  76.900  60.157  0.00  0.00    +0.000 C 
ATOM      3  CB  ILE A   1      65.901  77.514  59.776  0.00  0.00    +0.000 C 
ATOM      4  CG2 ILE A   1      65.075  77.512  59.746  0.00  0.00    +0.000 C 
ATOM      5  CA  ILE A   1      66.324  78.128  59.427  0.00  0.00    +0.000 C 
ATOM      6  N   ILE A   1      67.149  78.130  59.457  0.00  0.00    +0.000 NA
ATOM      7  C   ILE A   1      65.925  78.741  59.047  0.00  0.00    +0.000 C 
ATOM      8  O   ILE A   1      66.349  79.356  58.696  0.00  0.00    +0.000 OA
ATOM      9  OXT ILE A   1      65.099  78.739  59.016  0.00  0.00    +0.000 OA
ENDROOT
TORSDOF 0
ENDMDL
MODEL 5
REMARK VINA RESULT:    -4.812      8.064      8.685
REMARK INTER + INTRA:          -4.812
REMARK INTER:                  -4.812
REMARK INTRA:                   0.000
REMARK UNBOUND:                 0.000
ROOT
REMARK  Name = isoleucine
REMARK                            x       y       z     vdW  Elec       q    Type
REMARK                         _______ _______ _______ _____ _____    ______ ____
ATOM      1  CD1 ILE A   1      66.575  67.980  69.802  0.00  0.00    +0.000 C 
ATOM      2  CG1 ILE A   1      65.935  67.461  69.819  0.00  0.00    +0.000 C 
ATOM      3  CB  ILE A   1      65.740  67.069  70.519  0.00  0.00    +0.000 C 
ATOM      4  CG2 ILE A   1      66.186  67.198  71.202  0.00  0.00    +0.000 C 
ATOM      5  CA  ILE A   1      65.100  66.550  70.537  0.00  0.00    +0.000 C 
ATOM      6  N   ILE A   1      64.654  66.421  69.854  0.00  0.00    +0.000 NA
ATOM      7  C   ILE A   1      64.905  66.159  71.236  0.00  0.00    +0.000 C 
ATOM      8  O   ILE A   1      64.264  65.639  71.254  0.00  0.00    +0.000 OA
ATOM      9  OXT ILE A   1      65.351  66.288  71.919  0.00  0.00    +0.000 OA
ENDROOT
TORSDOF 0
ENDMDL
MODEL 6
REMARK VINA RESULT:    -4.738      3.572      4.117
REMARK INTER + INTRA:          -4.738
REMARK INTER:                  -4.738
REMARK INTRA:                   0.000
REMARK UNBOUND:                 0.000
ROOT
REMARK  Name = isoleucine
REMARK                            x       y       z     vdW  Elec       q    Type
REMARK                         _______ _______ _______ _____ _____    ______ ____
ATOM      1  CD1 ILE A   1      60.386  61.773  70.726  0.00  0.00    +0.000 C 
ATOM      2  CG1 ILE A   1      60.386  61.821  69.903  0.00  0.00    +0.000 C 
ATOM      3  CB  ILE A   1      60.797  62.428  69.524  0.00  0.00    +0.000 C 
ATOM      4  CG2 ILE A   1      61.209  62.988  69.970  0.00  0.00    +0.000 C 
ATOM      5  CA  ILE A   1      60.796  62.476  68.701  0.00  0.00    +0.000 C 
ATOM      6  N   ILE A   1      60.385  61.917  68.256  0.00  0.00    +0.000 NA
ATOM      7  C   ILE A   1      61.207  63.083  68.323  0.00  0.00    +0.000 C 
ATOM      8  O   ILE A   1      61.207  63.132  67.500  0.00  0.00    +0.000 OA
ATOM      9  OXT ILE A   1      61.620  63.643  68.769  0.00  0.00    +0.000 OA
ENDROOT
TORSDOF 0
ENDMDL
MODEL 7
REMARK VINA RESULT:    -4.546      4.813      5.516
REMARK INTER + INTRA:          -4.546
REMARK INTER:                  -4.546
REMARK INTRA:                   0.000
REMARK UNBOUND:                 0.000
ROOT
REMARK  Name = isoleucine
REMARK                            x       y       z     vdW  Elec       q    Type
REMARK                         _______ _______ _______ _____ _____    ______ ____
ATOM      1  CD1 ILE A   1      60.593  61.997  68.323  0.00  0.00    +0.000 C 
ATOM      2  CG1 ILE A   1      60.505  61.853  69.130  0.00  0.00    +0.000 C 
ATOM      3  CB  ILE A   1      60.509  62.482  69.664  0.00  0.00    +0.000 C 
ATOM      4  CG2 ILE A   1      60.602  63.256  69.390  0.00  0.00    +0.000 C 
ATOM      5  CA  ILE A   1      60.420  62.339  70.471  0.00  0.00    +0.000 C 
ATOM      6  N   ILE A   1      60.327  61.566  70.745  0.00  0.00    +0.000 NA
ATOM      7  C   ILE A   1      60.424  62.967  71.004  0.00  0.00    +0.000 C 
ATOM      8  O   ILE A   1      60.335  62.824  71.812  0.00  0.00    +0.000 OA
ATOM      9  OXT ILE A   1      60.517  63.741  70.730  0.00  0.00    +0.000 OA
ENDROOT
TORSDOF 0
ENDMDL
MODEL 8
REMARK VINA RESULT:    -4.491      7.148      7.436
REMARK INTER + INTRA:          -4.491
REMARK INTER:                  -4.491
REMARK INTRA:                   0.000
REMARK UNBOUND:                 0.000
ROOT
REMARK  Name = isoleucine
REMARK                            x       y       z     vdW  Elec       q    Type
REMARK                         _______ _______ _______ _____ _____    ______ ____
ATOM      1  CD1 ILE A   1      61.801  62.648  72.836  0.00  0.00    +0.000 C 
ATOM      2  CG1 ILE A   1      61.127  62.871  72.417  0.00  0.00    +0.000 C 
ATOM      3  CB  ILE A   1      60.985  63.668  72.258  0.00  0.00    +0.000 C 
ATOM      4  CG2 ILE A   1      61.518  64.242  72.519  0.00  0.00    +0.000 C 
ATOM      5  CA  ILE A   1      60.311  63.892  71.838  0.00  0.00    +0.000 C 
ATOM      6  N   ILE A   1      59.779  63.318  71.577  0.00  0.00    +0.000 NA
ATOM      7  C   ILE A   1      60.169  64.688  71.680  0.00  0.00    +0.000 C 
ATOM      8  O   ILE A   1      59.495  64.912  71.260  0.00  0.00    +0.000 OA
ATOM      9  OXT ILE A   1      60.702  65.262  71.941  0.00  0.00    +0.000 OA
ENDROOT
TORSDOF 0
ENDMDL
MODEL 9
REMARK VINA RESULT:    -4.459     24.747     25.282
REMARK INTER + INTRA:          -4.459
REMARK INTER:                  -4.459
REMARK INTRA:                   0.000
REMARK UNBOUND:                 0.000
ROOT
REMARK  Name = isoleucine
REMARK                            x       y       z     vdW  Elec       q    Type
REMARK                         _______ _______ _______ _____ _____    ______ ____
ATOM      1  CD1 ILE A   1      69.744  79.703  50.667  0.00  0.00    +0.000 C 
ATOM      2  CG1 ILE A   1      70.416  79.791  50.197  0.00  0.00    +0.000 C 
ATOM      3  CB  ILE A   1      70.635  79.192  49.674  0.00  0.00    +0.000 C 
ATOM      4  CG2 ILE A   1      70.181  78.505  49.619  0.00  0.00    +0.000 C 
ATOM      5  CA  ILE A   1      71.308  79.279  49.204  0.00  0.00    +0.000 C 
ATOM      6  N   ILE A   1      71.762  79.966  49.259  0.00  0.00    +0.000 NA
ATOM      7  C   ILE A   1      71.526  78.681  48.681  0.00  0.00    +0.000 C 
ATOM      8  O   ILE A   1      72.199  78.768  48.211  0.00  0.00    +0.000 OA
ATOM      9  OXT ILE A   1      71.072  77.994  48.627  0.00  0.00    +0.000 OA
ENDROOT
TORSDOF 0
ENDMDL
