MODEL 1
REMARK VINA RESULT:    -6.592      0.000      0.000
REMARK INTER + INTRA:          -6.592
REMARK INTER:                  -6.592
REMARK INTRA:                   0.000
REMARK UNBOUND:                 0.000
ROOT
REMARK  Name = isometheptene
REMARK                            x       y       z     vdW  Elec       q    Type
REMARK                         _______ _______ _______ _____ _____    ______ ____
ATOM      1  C   UNL     1      61.121  63.158  68.141  0.00  0.00    +0.000 C 
ATOM      2  N   UNL     1      61.628  63.112  67.493  0.00  0.00    +0.000 NA
ATOM      3  C   UNL     1      61.410  62.677  66.827  0.00  0.00    +0.000 C 
ATOM      4  C   UNL     1      60.681  62.288  66.809  0.00  0.00    +0.000 C 
ATOM      5  C   UNL     1      61.917  62.631  66.179  0.00  0.00    +0.000 C 
ATOM      6  C   UNL     1      61.698  62.197  65.513  0.00  0.00    +0.000 C 
ATOM      7  C   UNL     1      62.206  62.151  64.865  0.00  0.00    +0.000 C 
ATOM      8  C   UNL     1      61.987  61.717  64.199  0.00  0.00    +0.000 C 
ATOM      9  C   UNL     1      62.495  61.670  63.550  0.00  0.00    +0.000 C 
ATOM     10  C   UNL     1      61.259  61.328  64.181  0.00  0.00    +0.000 C 
ENDROOT
TORSDOF 0
ENDMDL
MODEL 2
REMARK VINA RESULT:    -6.322      1.327      3.201
REMARK INTER + INTRA:          -6.322
REMARK INTER:                  -6.322
REMARK INTRA:                   0.000
REMARK UNBOUND:                 0.000
ROOT
REMARK  Name = isometheptene
REMARK                            x       y       z     vdW  Elec       q    Type
REMARK                         _______ _______ _______ _____ _____    ______ ____
ATOM      1  C   UNL     1      62.622  61.628  63.549  0.00  0.00    +0.000 C 
ATOM      2  N   UNL     1      62.471  61.978  64.280  0.00  0.00    +0.000 NA
ATOM      3  C   UNL     1      61.735  61.883  64.641  0.00  0.00    +0.000 C 
ATOM      4  C   UNL     1      61.148  61.436  64.269  0.00  0.00    +0.000 C 
ATOM      5  C   UNL     1      61.584  62.233  65.371  0.00  0.00    +0.000 C 
ATOM      6  C   UNL     1      60.849  62.138  65.731  0.00  0.00    +0.000 C 
ATOM      7  C   UNL     1      60.698  62.488  66.463  0.00  0.00    +0.000 C 
ATOM      8  C   UNL     1      59.962  62.393  66.822  0.00  0.00    +0.000 C 
ATOM      9  C   UNL     1      59.811  62.744  67.554  0.00  0.00    +0.000 C 
ATOM     10  C   UNL     1      59.376  61.946  66.450  0.00  0.00    +0.000 C 
ENDROOT
TORSDOF 0
ENDMDL
MODEL 3
REMARK VINA RESULT:    -5.756      6.264      6.963
REMARK INTER + INTRA:          -5.756
REMARK INTER:                  -5.756
REMARK INTRA:                   0.000
REMARK UNBOUND:                 0.000
ROOT
REMARK  Name = isometheptene
REMARK                            x       y       z     vdW  Elec       q    Type
REMARK                         _______ _______ _______ _____ _____    ______ ____
ATOM      1  C   UNL     1      58.818  65.925  72.272  0.00  0.00    +0.000 C 
ATOM      2  N   UNL     1      59.046  65.228  71.896  0.00  0.00    +0.000 NA
ATOM      3  C   UNL     1      59.656  64.769  72.210  0.00  0.00    +0.000 C 
ATOM      4  C   UNL     1      60.037  65.009  72.903  0.00  0.00    +0.000 C 
ATOM      5  C   UNL     1      59.884  64.072  71.834  0.00  0.00    +0.000 C 
ATOM      6  C   UNL     1      60.493  63.614  72.149  0.00  0.00    +0.000 C 
ATOM      7  C   UNL     1      60.721  62.915  71.773  0.00  0.00    +0.000 C 
ATOM      8  C   UNL     1      61.330  62.457  72.088  0.00  0.00    +0.000 C 
ATOM      9  C   UNL     1      61.559  61.759  71.712  0.00  0.00    +0.000 C 
ATOM     10  C   UNL     1      61.712  62.697  72.780  0.00  0.00    +0.000 C 
ENDROOT
TORSDOF 0
ENDMDL
MODEL 4
REMARK VINA RESULT:    -5.717      3.376      5.921
REMARK INTER + INTRA:          -5.717
REMARK INTER:                  -5.717
REMARK INTRA:                   0.000
REMARK UNBOUND:                 0.000
ROOT
REMARK  Name = isometheptene
REMARK                            x       y       z     vdW  Elec       q    Type
REMARK                         _______ _______ _______ _____ _____    ______ ____
ATOM      1  C   UNL     1      60.213  62.706  68.279  0.00  0.00    +0.000 C 
ATOM      2  N   UNL     1      60.432  62.309  68.968  0.00  0.00    +0.000 NA
ATOM      3  C   UNL     1      60.656  62.736  69.637  0.00  0.00    +0.000 C 
ATOM      4  C   UNL     1      60.660  63.562  69.617  0.00  0.00    +0.000 C 
ATOM      5  C   UNL     1      60.874  62.340  70.326  0.00  0.00    +0.000 C 
ATOM      6  C   UNL     1      61.098  62.767  70.995  0.00  0.00    +0.000 C 
ATOM      7  C   UNL     1      61.317  62.371  71.684  0.00  0.00    +0.000 C 
ATOM      8  C   UNL     1      61.540  62.798  72.353  0.00  0.00    +0.000 C 
ATOM      9  C   UNL     1      61.759  62.402  73.043  0.00  0.00    +0.000 C 
ATOM     10  C   UNL     1      61.545  63.624  72.333  0.00  0.00    +0.000 C 
ENDROOT
TORSDOF 0
ENDMDL
MODEL 5
REMARK VINA RESULT:    -5.651      6.020      7.205
REMARK INTER + INTRA:          -5.651
REMARK INTER:                  -5.651
REMARK INTRA:                   0.000
REMARK UNBOUND:                 0.000
ROOT
REMARK  Name = isometheptene
REMARK                            x       y       z     vdW  Elec       q    Type
REMARK                         _______ _______ _______ _____ _____    ______ ____
ATOM      1  C   UNL     1      62.495  64.418  71.096  0.00  0.00    +0.000 C 
ATOM      2  N   UNL     1      63.080  64.741  70.614  0.00  0.00    +0.000 NA
ATOM      3  C   UNL     1      63.538  65.372  70.885  0.00  0.00    +0.000 C 
ATOM      4  C   UNL     1      63.410  65.679  71.642  0.00  0.00    +0.000 C 
ATOM      5  C   UNL     1      64.122  65.695  70.403  0.00  0.00    +0.000 C 
ATOM      6  C   UNL     1      64.580  66.325  70.674  0.00  0.00    +0.000 C 
ATOM      7  C   UNL     1      65.165  66.649  70.192  0.00  0.00    +0.000 C 
ATOM      8  C   UNL     1      65.623  67.279  70.464  0.00  0.00    +0.000 C 
ATOM      9  C   UNL     1      66.208  67.603  69.981  0.00  0.00    +0.000 C 
ATOM     10  C   UNL     1      65.495  67.586  71.220  0.00  0.00    +0.000 C 
ENDROOT
TORSDOF 0
ENDMDL
MODEL 6
REMARK VINA RESULT:    -5.456     24.128     24.851
REMARK INTER + INTRA:          -5.456
REMARK INTER:                  -5.456
REMARK INTRA:                   0.000
REMARK UNBOUND:                 0.000
ROOT
REMARK  Name = isometheptene
REMARK                            x       y       z     vdW  Elec       q    Type
REMARK                         _______ _______ _______ _____ _____    ______ ____
ATOM      1  C   UNL     1      69.229  80.652  52.204  0.00  0.00    +0.000 C 
ATOM      2  N   UNL     1      69.185  80.201  51.516  0.00  0.00    +0.000 NA
ATOM      3  C   UNL     1      69.871  80.032  51.088  0.00  0.00    +0.000 C 
ATOM      4  C   UNL     1      70.601  80.316  51.350  0.00  0.00    +0.000 C 
ATOM      5  C   UNL     1      69.827  79.581  50.400  0.00  0.00    +0.000 C 
ATOM      6  C   UNL     1      70.512  79.412  49.972  0.00  0.00    +0.000 C 
ATOM      7  C   UNL     1      70.468  78.960  49.283  0.00  0.00    +0.000 C 
ATOM      8  C   UNL     1      71.153  78.792  48.856  0.00  0.00    +0.000 C 
ATOM      9  C   UNL     1      71.110  78.340  48.167  0.00  0.00    +0.000 C 
ATOM     10  C   UNL     1      71.883  79.076  49.118  0.00  0.00    +0.000 C 
ENDROOT
TORSDOF 0
ENDMDL
MODEL 7
REMARK VINA RESULT:    -5.284     15.037     16.749
REMARK INTER + INTRA:          -5.284
REMARK INTER:                  -5.284
REMARK INTRA:                   0.000
REMARK UNBOUND:                 0.000
ROOT
REMARK  Name = isometheptene
REMARK                            x       y       z     vdW  Elec       q    Type
REMARK                         _______ _______ _______ _____ _____    ______ ____
ATOM      1  C   UNL     1      59.381  79.595  73.220  0.00  0.00    +0.000 C 
ATOM      2  N   UNL     1      59.614  78.817  73.078  0.00  0.00    +0.000 NA
ATOM      3  C   UNL     1      59.046  78.228  72.975  0.00  0.00    +0.000 C 
ATOM      4  C   UNL     1      58.243  78.417  73.014  0.00  0.00    +0.000 C 
ATOM      5  C   UNL     1      59.279  77.450  72.832  0.00  0.00    +0.000 C 
ATOM      6  C   UNL     1      58.712  76.861  72.729  0.00  0.00    +0.000 C 
ATOM      7  C   UNL     1      58.945  76.083  72.586  0.00  0.00    +0.000 C 
ATOM      8  C   UNL     1      58.377  75.494  72.483  0.00  0.00    +0.000 C 
ATOM      9  C   UNL     1      58.610  74.715  72.341  0.00  0.00    +0.000 C 
ATOM     10  C   UNL     1      57.574  75.683  72.523  0.00  0.00    +0.000 C 
ENDROOT
TORSDOF 0
ENDMDL
MODEL 8
REMARK VINA RESULT:    -5.204     18.918     20.234
REMARK INTER + INTRA:          -5.204
REMARK INTER:                  -5.204
REMARK INTRA:                   0.000
REMARK UNBOUND:                 0.000
ROOT
REMARK  Name = isometheptene
REMARK                            x       y       z     vdW  Elec       q    Type
REMARK                         _______ _______ _______ _____ _____    ______ ____
ATOM      1  C   UNL     1      81.294  67.657  57.073  0.00  0.00    +0.000 C 
ATOM      2  N   UNL     1      80.603  67.259  56.863  0.00  0.00    +0.000 NA
ATOM      3  C   UNL     1      79.878  67.653  56.877  0.00  0.00    +0.000 C 
ATOM      4  C   UNL     1      79.845  68.447  57.103  0.00  0.00    +0.000 C 
ATOM      5  C   UNL     1      79.188  67.255  56.667  0.00  0.00    +0.000 C 
ATOM      6  C   UNL     1      78.464  67.649  56.682  0.00  0.00    +0.000 C 
ATOM      7  C   UNL     1      77.772  67.250  56.472  0.00  0.00    +0.000 C 
ATOM      8  C   UNL     1      77.048  67.644  56.486  0.00  0.00    +0.000 C 
ATOM      9  C   UNL     1      76.357  67.246  56.276  0.00  0.00    +0.000 C 
ATOM     10  C   UNL     1      77.014  68.438  56.712  0.00  0.00    +0.000 C 
ENDROOT
TORSDOF 0
ENDMDL
MODEL 9
REMARK VINA RESULT:    -4.933      5.673      6.116
REMARK INTER + INTRA:          -4.933
REMARK INTER:                  -4.933
REMARK INTRA:                   0.000
REMARK UNBOUND:                 0.000
ROOT
REMARK  Name = isometheptene
REMARK                            x       y       z     vdW  Elec       q    Type
REMARK                         _______ _______ _______ _____ _____    ______ ____
ATOM      1  C   UNL     1      61.045  63.359  72.434  0.00  0.00    +0.000 C 
ATOM      2  N   UNL     1      61.585  63.341  71.811  0.00  0.00    +0.000 NA
ATOM      3  C   UNL     1      62.068  63.994  71.664  0.00  0.00    +0.000 C 
ATOM      4  C   UNL     1      62.011  64.665  72.142  0.00  0.00    +0.000 C 
ATOM      5  C   UNL     1      62.608  63.976  71.041  0.00  0.00    +0.000 C 
ATOM      6  C   UNL     1      63.090  64.628  70.895  0.00  0.00    +0.000 C 
ATOM      7  C   UNL     1      63.631  64.611  70.271  0.00  0.00    +0.000 C 
ATOM      8  C   UNL     1      64.113  65.263  70.125  0.00  0.00    +0.000 C 
ATOM      9  C   UNL     1      64.653  65.245  69.501  0.00  0.00    +0.000 C 
ATOM     10  C   UNL     1      64.056  65.934  70.602  0.00  0.00    +0.000 C 
ENDROOT
TORSDOF 0
ENDMDL
