MODEL 1
REMARK VINA RESULT:   -14.406      0.000      0.000
REMARK INTER + INTRA:         -14.406
REMARK INTER:                 -14.406
REMARK INTRA:                   0.000
REMARK UNBOUND:                 0.000
ROOT
REMARK  Name = ivacaftor
REMARK                            x       y       z     vdW  Elec       q    Type
REMARK                         _______ _______ _______ _____ _____    ______ ____
ATOM      1  C   UNL     1      61.630  61.276  63.784  0.00  0.00    +0.000 C 
ATOM      2  C   UNL     1      61.505  61.618  64.524  0.00  0.00    +0.000 C 
ATOM      3  C   UNL     1      62.301  61.833  64.559  0.00  0.00    +0.000 C 
ATOM      4  C   UNL     1      60.709  61.404  64.489  0.00  0.00    +0.000 C 
ATOM      5  C   UNL     1      61.381  61.961  65.265  0.00  0.00    +0.000 A 
ATOM      6  C   UNL     1      60.629  61.946  65.604  0.00  0.00    +0.000 A 
ATOM      7  C   UNL     1      60.505  62.289  66.344  0.00  0.00    +0.000 A 
ATOM      8  C   UNL     1      61.132  62.645  66.744  0.00  0.00    +0.000 A 
ATOM      9  N   UNL     1      61.007  62.988  67.485  0.00  0.00    +0.000 NA
ATOM     10  C   UNL     1      61.634  63.344  67.885  0.00  0.00    +0.000 C 
ATOM     11  O   UNL     1      62.386  63.358  67.544  0.00  0.00    +0.000 OA
ATOM     12  C   UNL     1      61.509  63.687  68.625  0.00  0.00    +0.000 A 
ATOM     13  C   UNL     1      62.137  64.044  69.026  0.00  0.00    +0.000 A 
ATOM     14  N   UNL     1      62.013  64.386  69.766  0.00  0.00    +0.000 NA
ATOM     15  C   UNL     1      61.262  64.372  70.105  0.00  0.00    +0.000 A 
ATOM     16  C   UNL     1      61.136  64.714  70.846  0.00  0.00    +0.000 A 
ATOM     17  C   UNL     1      60.386  64.700  71.186  0.00  0.00    +0.000 A 
ATOM     18  C   UNL     1      59.758  64.343  70.785  0.00  0.00    +0.000 A 
ATOM     19  C   UNL     1      59.882  64.001  70.045  0.00  0.00    +0.000 A 
ATOM     20  C   UNL     1      60.634  64.015  69.705  0.00  0.00    +0.000 A 
ATOM     21  C   UNL     1      60.758  63.673  68.965  0.00  0.00    +0.000 A 
ATOM     22  O   UNL     1      60.131  63.316  68.565  0.00  0.00    +0.000 OA
ATOM     23  C   UNL     1      61.883  62.660  66.404  0.00  0.00    +0.000 A 
ATOM     24  C   UNL     1      62.007  62.317  65.664  0.00  0.00    +0.000 A 
ATOM     25  O   UNL     1      62.759  62.332  65.324  0.00  0.00    +0.000 OA
ATOM     26  C   UNL     1      59.753  62.274  66.684  0.00  0.00    +0.000 C 
ATOM     27  C   UNL     1      59.002  62.260  67.025  0.00  0.00    +0.000 C 
ATOM     28  C   UNL     1      60.044  62.678  67.343  0.00  0.00    +0.000 C 
ATOM     29  C   UNL     1      59.462  61.870  66.026  0.00  0.00    +0.000 C 
ENDROOT
TORSDOF 0
ENDMDL
MODEL 2
REMARK VINA RESULT:   -14.049      3.418      5.222
REMARK INTER + INTRA:         -14.049
REMARK INTER:                 -14.049
REMARK INTRA:                   0.000
REMARK UNBOUND:                 0.000
ROOT
REMARK  Name = ivacaftor
REMARK                            x       y       z     vdW  Elec       q    Type
REMARK                         _______ _______ _______ _____ _____    ______ ____
ATOM      1  C   UNL     1      60.079  61.647  70.617  0.00  0.00    +0.000 C 
ATOM      2  C   UNL     1      60.647  62.244  70.648  0.00  0.00    +0.000 C 
ATOM      3  C   UNL     1      60.848  62.094  69.862  0.00  0.00    +0.000 C 
ATOM      4  C   UNL     1      60.446  62.395  71.434  0.00  0.00    +0.000 C 
ATOM      5  C   UNL     1      61.215  62.842  70.678  0.00  0.00    +0.000 A 
ATOM      6  C   UNL     1      61.324  63.271  71.374  0.00  0.00    +0.000 A 
ATOM      7  C   UNL     1      61.892  63.869  71.404  0.00  0.00    +0.000 A 
ATOM      8  C   UNL     1      62.349  64.037  70.740  0.00  0.00    +0.000 A 
ATOM      9  N   UNL     1      62.918  64.635  70.770  0.00  0.00    +0.000 NA
ATOM     10  C   UNL     1      63.375  64.804  70.105  0.00  0.00    +0.000 C 
ATOM     11  O   UNL     1      63.265  64.374  69.409  0.00  0.00    +0.000 OA
ATOM     12  C   UNL     1      63.943  65.402  70.136  0.00  0.00    +0.000 A 
ATOM     13  C   UNL     1      64.402  65.571  69.470  0.00  0.00    +0.000 A 
ATOM     14  N   UNL     1      64.969  66.168  69.500  0.00  0.00    +0.000 NA
ATOM     15  C   UNL     1      65.079  66.597  70.196  0.00  0.00    +0.000 A 
ATOM     16  C   UNL     1      65.646  67.195  70.227  0.00  0.00    +0.000 A 
ATOM     17  C   UNL     1      65.756  67.624  70.922  0.00  0.00    +0.000 A 
ATOM     18  C   UNL     1      65.298  67.456  71.588  0.00  0.00    +0.000 A 
ATOM     19  C   UNL     1      64.731  66.858  71.558  0.00  0.00    +0.000 A 
ATOM     20  C   UNL     1      64.620  66.428  70.862  0.00  0.00    +0.000 A 
ATOM     21  C   UNL     1      64.053  65.831  70.831  0.00  0.00    +0.000 A 
ATOM     22  O   UNL     1      63.595  65.663  71.496  0.00  0.00    +0.000 OA
ATOM     23  C   UNL     1      62.240  63.608  70.043  0.00  0.00    +0.000 A 
ATOM     24  C   UNL     1      61.672  63.011  70.014  0.00  0.00    +0.000 A 
ATOM     25  O   UNL     1      61.562  62.581  69.317  0.00  0.00    +0.000 OA
ATOM     26  C   UNL     1      62.002  64.298  72.101  0.00  0.00    +0.000 C 
ATOM     27  C   UNL     1      62.112  64.728  72.796  0.00  0.00    +0.000 C 
ATOM     28  C   UNL     1      62.594  64.741  71.733  0.00  0.00    +0.000 C 
ATOM     29  C   UNL     1      61.410  63.856  72.468  0.00  0.00    +0.000 C 
ENDROOT
TORSDOF 0
ENDMDL
MODEL 3
REMARK VINA RESULT:   -13.592      1.122      5.242
REMARK INTER + INTRA:         -13.592
REMARK INTER:                 -13.592
REMARK INTRA:                   0.000
REMARK UNBOUND:                 0.000
ROOT
REMARK  Name = ivacaftor
REMARK                            x       y       z     vdW  Elec       q    Type
REMARK                         _______ _______ _______ _____ _____    ______ ____
ATOM      1  C   UNL     1      60.966  64.147  72.845  0.00  0.00    +0.000 C 
ATOM      2  C   UNL     1      61.022  63.943  72.048  0.00  0.00    +0.000 C 
ATOM      3  C   UNL     1      60.312  63.527  72.104  0.00  0.00    +0.000 C 
ATOM      4  C   UNL     1      61.733  64.360  71.991  0.00  0.00    +0.000 C 
ATOM      5  C   UNL     1      61.078  63.739  71.250  0.00  0.00    +0.000 A 
ATOM      6  C   UNL     1      61.721  63.998  70.803  0.00  0.00    +0.000 A 
ATOM      7  C   UNL     1      61.777  63.793  70.006  0.00  0.00    +0.000 A 
ATOM      8  C   UNL     1      61.191  63.331  69.657  0.00  0.00    +0.000 A 
ATOM      9  N   UNL     1      61.247  63.126  68.859  0.00  0.00    +0.000 NA
ATOM     10  C   UNL     1      60.661  62.664  68.509  0.00  0.00    +0.000 C 
ATOM     11  O   UNL     1      60.018  62.406  68.957  0.00  0.00    +0.000 OA
ATOM     12  C   UNL     1      60.717  62.460  67.711  0.00  0.00    +0.000 A 
ATOM     13  C   UNL     1      60.130  61.997  67.361  0.00  0.00    +0.000 A 
ATOM     14  N   UNL     1      60.186  61.793  66.564  0.00  0.00    +0.000 NA
ATOM     15  C   UNL     1      60.829  62.051  66.117  0.00  0.00    +0.000 A 
ATOM     16  C   UNL     1      60.886  61.847  65.319  0.00  0.00    +0.000 A 
ATOM     17  C   UNL     1      61.528  62.105  64.872  0.00  0.00    +0.000 A 
ATOM     18  C   UNL     1      62.116  62.568  65.222  0.00  0.00    +0.000 A 
ATOM     19  C   UNL     1      62.059  62.772  66.019  0.00  0.00    +0.000 A 
ATOM     20  C   UNL     1      61.416  62.514  66.467  0.00  0.00    +0.000 A 
ATOM     21  C   UNL     1      61.360  62.718  67.264  0.00  0.00    +0.000 A 
ATOM     22  O   UNL     1      61.947  63.181  67.614  0.00  0.00    +0.000 OA
ATOM     23  C   UNL     1      60.548  63.072  70.104  0.00  0.00    +0.000 A 
ATOM     24  C   UNL     1      60.492  63.277  70.901  0.00  0.00    +0.000 A 
ATOM     25  O   UNL     1      59.848  63.018  71.349  0.00  0.00    +0.000 OA
ATOM     26  C   UNL     1      62.421  64.052  69.558  0.00  0.00    +0.000 C 
ATOM     27  C   UNL     1      63.064  64.310  69.110  0.00  0.00    +0.000 C 
ATOM     28  C   UNL     1      62.114  63.666  68.896  0.00  0.00    +0.000 C 
ATOM     29  C   UNL     1      62.728  64.437  70.220  0.00  0.00    +0.000 C 
ENDROOT
TORSDOF 0
ENDMDL
MODEL 4
REMARK VINA RESULT:   -13.414      3.602      5.946
REMARK INTER + INTRA:         -13.414
REMARK INTER:                 -13.414
REMARK INTRA:                   0.000
REMARK UNBOUND:                 0.000
ROOT
REMARK  Name = ivacaftor
REMARK                            x       y       z     vdW  Elec       q    Type
REMARK                         _______ _______ _______ _____ _____    ______ ____
ATOM      1  C   UNL     1      66.151  67.867  70.511  0.00  0.00    +0.000 C 
ATOM      2  C   UNL     1      65.528  67.333  70.586  0.00  0.00    +0.000 C 
ATOM      3  C   UNL     1      65.726  66.998  69.859  0.00  0.00    +0.000 C 
ATOM      4  C   UNL     1      65.328  67.668  71.314  0.00  0.00    +0.000 C 
ATOM      5  C   UNL     1      64.903  66.798  70.661  0.00  0.00    +0.000 A 
ATOM      6  C   UNL     1      64.419  66.821  71.329  0.00  0.00    +0.000 A 
ATOM      7  C   UNL     1      63.796  66.287  71.404  0.00  0.00    +0.000 A 
ATOM      8  C   UNL     1      63.656  65.730  70.812  0.00  0.00    +0.000 A 
ATOM      9  N   UNL     1      63.031  65.196  70.888  0.00  0.00    +0.000 NA
ATOM     10  C   UNL     1      62.892  64.638  70.295  0.00  0.00    +0.000 C 
ATOM     11  O   UNL     1      63.376  64.616  69.628  0.00  0.00    +0.000 OA
ATOM     12  C   UNL     1      62.267  64.104  70.371  0.00  0.00    +0.000 A 
ATOM     13  C   UNL     1      62.127  63.546  69.778  0.00  0.00    +0.000 A 
ATOM     14  N   UNL     1      61.504  63.013  69.854  0.00  0.00    +0.000 NA
ATOM     15  C   UNL     1      61.020  63.035  70.521  0.00  0.00    +0.000 A 
ATOM     16  C   UNL     1      60.395  62.501  70.597  0.00  0.00    +0.000 A 
ATOM     17  C   UNL     1      59.911  62.524  71.264  0.00  0.00    +0.000 A 
ATOM     18  C   UNL     1      60.051  63.081  71.857  0.00  0.00    +0.000 A 
ATOM     19  C   UNL     1      60.675  63.615  71.781  0.00  0.00    +0.000 A 
ATOM     20  C   UNL     1      61.160  63.593  71.114  0.00  0.00    +0.000 A 
ATOM     21  C   UNL     1      61.783  64.127  71.038  0.00  0.00    +0.000 A 
ATOM     22  O   UNL     1      61.923  64.684  71.631  0.00  0.00    +0.000 OA
ATOM     23  C   UNL     1      64.140  65.707  70.145  0.00  0.00    +0.000 A 
ATOM     24  C   UNL     1      64.763  66.242  70.070  0.00  0.00    +0.000 A 
ATOM     25  O   UNL     1      65.248  66.219  69.402  0.00  0.00    +0.000 OA
ATOM     26  C   UNL     1      63.311  66.310  72.072  0.00  0.00    +0.000 C 
ATOM     27  C   UNL     1      62.826  66.332  72.739  0.00  0.00    +0.000 C 
ATOM     28  C   UNL     1      62.870  65.679  71.773  0.00  0.00    +0.000 C 
ATOM     29  C   UNL     1      63.752  66.940  72.371  0.00  0.00    +0.000 C 
ENDROOT
TORSDOF 0
ENDMDL
MODEL 5
REMARK VINA RESULT:   -13.155      3.728      5.835
REMARK INTER + INTRA:         -13.155
REMARK INTER:                 -13.155
REMARK INTRA:                   0.000
REMARK UNBOUND:                 0.000
ROOT
REMARK  Name = ivacaftor
REMARK                            x       y       z     vdW  Elec       q    Type
REMARK                         _______ _______ _______ _____ _____    ______ ____
ATOM      1  C   UNL     1      59.885  62.756  71.721  0.00  0.00    +0.000 C 
ATOM      2  C   UNL     1      60.521  63.261  71.584  0.00  0.00    +0.000 C 
ATOM      3  C   UNL     1      60.461  63.548  72.355  0.00  0.00    +0.000 C 
ATOM      4  C   UNL     1      60.583  62.975  70.812  0.00  0.00    +0.000 C 
ATOM      5  C   UNL     1      61.159  63.768  71.446  0.00  0.00    +0.000 A 
ATOM      6  C   UNL     1      61.530  63.772  70.710  0.00  0.00    +0.000 A 
ATOM      7  C   UNL     1      62.167  64.278  70.573  0.00  0.00    +0.000 A 
ATOM      8  C   UNL     1      62.433  64.778  71.172  0.00  0.00    +0.000 A 
ATOM      9  N   UNL     1      63.070  65.284  71.034  0.00  0.00    +0.000 NA
ATOM     10  C   UNL     1      63.336  65.785  71.634  0.00  0.00    +0.000 C 
ATOM     11  O   UNL     1      62.964  65.780  72.370  0.00  0.00    +0.000 OA
ATOM     12  C   UNL     1      63.973  66.291  71.496  0.00  0.00    +0.000 A 
ATOM     13  C   UNL     1      64.239  66.792  72.096  0.00  0.00    +0.000 A 
ATOM     14  N   UNL     1      64.876  67.298  71.958  0.00  0.00    +0.000 NA
ATOM     15  C   UNL     1      65.247  67.303  71.222  0.00  0.00    +0.000 A 
ATOM     16  C   UNL     1      65.885  67.808  71.085  0.00  0.00    +0.000 A 
ATOM     17  C   UNL     1      66.256  67.813  70.349  0.00  0.00    +0.000 A 
ATOM     18  C   UNL     1      65.990  67.312  69.749  0.00  0.00    +0.000 A 
ATOM     19  C   UNL     1      65.353  66.806  69.886  0.00  0.00    +0.000 A 
ATOM     20  C   UNL     1      64.981  66.801  70.622  0.00  0.00    +0.000 A 
ATOM     21  C   UNL     1      64.345  66.296  70.760  0.00  0.00    +0.000 A 
ATOM     22  O   UNL     1      64.079  65.795  70.160  0.00  0.00    +0.000 OA
ATOM     23  C   UNL     1      62.062  64.774  71.908  0.00  0.00    +0.000 A 
ATOM     24  C   UNL     1      61.424  64.268  72.045  0.00  0.00    +0.000 A 
ATOM     25  O   UNL     1      61.053  64.263  72.782  0.00  0.00    +0.000 OA
ATOM     26  C   UNL     1      62.539  64.283  69.836  0.00  0.00    +0.000 C 
ATOM     27  C   UNL     1      62.911  64.288  69.099  0.00  0.00    +0.000 C 
ATOM     28  C   UNL     1      63.060  64.864  70.103  0.00  0.00    +0.000 C 
ATOM     29  C   UNL     1      62.018  63.701  69.568  0.00  0.00    +0.000 C 
ENDROOT
TORSDOF 0
ENDMDL
MODEL 6
REMARK VINA RESULT:   -12.738      1.701      2.997
REMARK INTER + INTRA:         -12.738
REMARK INTER:                 -12.738
REMARK INTRA:                   0.000
REMARK UNBOUND:                 0.000
ROOT
REMARK  Name = ivacaftor
REMARK                            x       y       z     vdW  Elec       q    Type
REMARK                         _______ _______ _______ _____ _____    ______ ____
ATOM      1  C   UNL     1      60.197  61.693  66.677  0.00  0.00    +0.000 C 
ATOM      2  C   UNL     1      60.455  62.173  67.296  0.00  0.00    +0.000 C 
ATOM      3  C   UNL     1      60.763  62.711  66.751  0.00  0.00    +0.000 C 
ATOM      4  C   UNL     1      60.146  61.636  67.841  0.00  0.00    +0.000 C 
ATOM      5  C   UNL     1      60.713  62.654  67.915  0.00  0.00    +0.000 A 
ATOM      6  C   UNL     1      60.574  62.429  68.696  0.00  0.00    +0.000 A 
ATOM      7  C   UNL     1      60.832  62.909  69.315  0.00  0.00    +0.000 A 
ATOM      8  C   UNL     1      61.228  63.614  69.153  0.00  0.00    +0.000 A 
ATOM      9  N   UNL     1      61.486  64.095  69.773  0.00  0.00    +0.000 NA
ATOM     10  C   UNL     1      61.882  64.800  69.610  0.00  0.00    +0.000 C 
ATOM     11  O   UNL     1      62.020  65.025  68.828  0.00  0.00    +0.000 OA
ATOM     12  C   UNL     1      62.139  65.280  70.230  0.00  0.00    +0.000 A 
ATOM     13  C   UNL     1      62.536  65.986  70.067  0.00  0.00    +0.000 A 
ATOM     14  N   UNL     1      62.793  66.466  70.686  0.00  0.00    +0.000 NA
ATOM     15  C   UNL     1      62.655  66.242  71.467  0.00  0.00    +0.000 A 
ATOM     16  C   UNL     1      62.913  66.722  72.087  0.00  0.00    +0.000 A 
ATOM     17  C   UNL     1      62.775  66.497  72.868  0.00  0.00    +0.000 A 
ATOM     18  C   UNL     1      62.379  65.791  73.031  0.00  0.00    +0.000 A 
ATOM     19  C   UNL     1      62.121  65.311  72.412  0.00  0.00    +0.000 A 
ATOM     20  C   UNL     1      62.259  65.535  71.630  0.00  0.00    +0.000 A 
ATOM     21  C   UNL     1      62.001  65.056  71.011  0.00  0.00    +0.000 A 
ATOM     22  O   UNL     1      61.606  64.350  71.173  0.00  0.00    +0.000 OA
ATOM     23  C   UNL     1      61.366  63.839  68.372  0.00  0.00    +0.000 A 
ATOM     24  C   UNL     1      61.108  63.359  67.753  0.00  0.00    +0.000 A 
ATOM     25  O   UNL     1      61.247  63.584  66.971  0.00  0.00    +0.000 OA
ATOM     26  C   UNL     1      60.694  62.684  70.097  0.00  0.00    +0.000 C 
ATOM     27  C   UNL     1      60.556  62.460  70.879  0.00  0.00    +0.000 C 
ATOM     28  C   UNL     1      61.072  63.369  70.360  0.00  0.00    +0.000 C 
ATOM     29  C   UNL     1      60.317  61.999  69.834  0.00  0.00    +0.000 C 
ENDROOT
TORSDOF 0
ENDMDL
MODEL 7
REMARK VINA RESULT:   -12.439      2.024      5.761
REMARK INTER + INTRA:         -12.439
REMARK INTER:                 -12.439
REMARK INTRA:                   0.000
REMARK UNBOUND:                 0.000
ROOT
REMARK  Name = ivacaftor
REMARK                            x       y       z     vdW  Elec       q    Type
REMARK                         _______ _______ _______ _____ _____    ______ ____
ATOM      1  C   UNL     1      63.166  67.421  72.646  0.00  0.00    +0.000 C 
ATOM      2  C   UNL     1      62.911  66.902  72.059  0.00  0.00    +0.000 C 
ATOM      3  C   UNL     1      62.126  67.072  72.249  0.00  0.00    +0.000 C 
ATOM      4  C   UNL     1      63.696  66.732  71.867  0.00  0.00    +0.000 C 
ATOM      5  C   UNL     1      62.655  66.383  71.470  0.00  0.00    +0.000 A 
ATOM      6  C   UNL     1      63.207  65.976  71.011  0.00  0.00    +0.000 A 
ATOM      7  C   UNL     1      62.950  65.457  70.424  0.00  0.00    +0.000 A 
ATOM      8  C   UNL     1      62.144  65.345  70.295  0.00  0.00    +0.000 A 
ATOM      9  N   UNL     1      61.888  64.825  69.707  0.00  0.00    +0.000 NA
ATOM     10  C   UNL     1      61.081  64.713  69.578  0.00  0.00    +0.000 C 
ATOM     11  O   UNL     1      60.530  65.120  70.038  0.00  0.00    +0.000 OA
ATOM     12  C   UNL     1      60.826  64.194  68.990  0.00  0.00    +0.000 A 
ATOM     13  C   UNL     1      60.018  64.081  68.861  0.00  0.00    +0.000 A 
ATOM     14  N   UNL     1      59.763  63.562  68.273  0.00  0.00    +0.000 NA
ATOM     15  C   UNL     1      60.313  63.156  67.814  0.00  0.00    +0.000 A 
ATOM     16  C   UNL     1      60.058  62.636  67.226  0.00  0.00    +0.000 A 
ATOM     17  C   UNL     1      60.609  62.230  66.767  0.00  0.00    +0.000 A 
ATOM     18  C   UNL     1      61.417  62.342  66.896  0.00  0.00    +0.000 A 
ATOM     19  C   UNL     1      61.673  62.861  67.483  0.00  0.00    +0.000 A 
ATOM     20  C   UNL     1      61.122  63.268  67.943  0.00  0.00    +0.000 A 
ATOM     21  C   UNL     1      61.377  63.787  68.531  0.00  0.00    +0.000 A 
ATOM     22  O   UNL     1      62.184  63.899  68.659  0.00  0.00    +0.000 OA
ATOM     23  C   UNL     1      61.592  65.752  70.754  0.00  0.00    +0.000 A 
ATOM     24  C   UNL     1      61.849  66.270  71.342  0.00  0.00    +0.000 A 
ATOM     25  O   UNL     1      61.297  66.678  71.801  0.00  0.00    +0.000 OA
ATOM     26  C   UNL     1      63.503  65.050  69.964  0.00  0.00    +0.000 C 
ATOM     27  C   UNL     1      64.054  64.642  69.504  0.00  0.00    +0.000 C 
ATOM     28  C   UNL     1      62.888  64.685  69.551  0.00  0.00    +0.000 C 
ATOM     29  C   UNL     1      64.117  65.414  70.377  0.00  0.00    +0.000 C 
ENDROOT
TORSDOF 0
ENDMDL
