MODEL 1
REMARK VINA RESULT:   -17.085      0.000      0.000
REMARK INTER + INTRA:         -17.085
REMARK INTER:                 -17.085
REMARK INTRA:                   0.000
REMARK UNBOUND:                 0.000
ROOT
REMARK  Name = ivosidenib
REMARK                            x       y       z     vdW  Elec       q    Type
REMARK                         _______ _______ _______ _____ _____    ______ ____
ATOM      1  F   UNL     1      61.272  67.691  73.220  0.00  0.00    +0.000 F 
ATOM      2  C   UNL     1      61.848  67.346  72.741  0.00  0.00    +0.000 A 
ATOM      3  C   UNL     1      62.548  67.751  72.580  0.00  0.00    +0.000 A 
ATOM      4  N   UNL     1      63.124  67.407  72.101  0.00  0.00    +0.000 NA
ATOM      5  C   UNL     1      62.999  66.656  71.782  0.00  0.00    +0.000 A 
ATOM      6  C   UNL     1      62.299  66.250  71.942  0.00  0.00    +0.000 A 
ATOM      7  C   UNL     1      61.723  66.596  72.422  0.00  0.00    +0.000 A 
ATOM      8  N   UNL     1      62.175  65.500  71.623  0.00  0.00    +0.000 N 
ATOM      9  C   UNL     1      61.474  65.095  71.784  0.00  0.00    +0.000 C 
ATOM     10  C   UNL     1      61.349  64.344  71.465  0.00  0.00    +0.000 C 
ATOM     11  O   UNL     1      61.926  63.998  70.985  0.00  0.00    +0.000 OA
ATOM     12  N   UNL     1      60.649  63.938  71.625  0.00  0.00    +0.000 NA
ATOM     13  C   UNL     1      60.525  63.188  71.306  0.00  0.00    +0.000 C 
ATOM     14  C   UNL     1      60.957  62.682  70.820  0.00  0.00    +0.000 C 
ATOM     15  C   UNL     1      60.349  62.127  70.856  0.00  0.00    +0.000 C 
ATOM     16  F   UNL     1      60.781  61.620  70.369  0.00  0.00    +0.000 F 
ATOM     17  F   UNL     1      59.739  61.571  70.891  0.00  0.00    +0.000 F 
ATOM     18  C   UNL     1      59.915  62.633  71.343  0.00  0.00    +0.000 C 
ATOM     19  C   UNL     1      60.898  65.439  72.263  0.00  0.00    +0.000 A 
ATOM     20  C   UNL     1      60.198  65.034  72.424  0.00  0.00    +0.000 A 
ATOM     21  C   UNL     1      59.622  65.379  72.904  0.00  0.00    +0.000 A 
ATOM     22  C   UNL     1      59.747  66.130  73.222  0.00  0.00    +0.000 A 
ATOM     23  C   UNL     1      60.447  66.536  73.062  0.00  0.00    +0.000 A 
ATOM     24  C   UNL     1      61.023  66.190  72.582  0.00  0.00    +0.000 A 
ATOM     25 CL   UNL     1      61.436  66.890  72.724  0.00  0.00    +0.000 Cl
ATOM     26  C   UNL     1      62.750  65.155  71.144  0.00  0.00    +0.000 C 
ATOM     27  O   UNL     1      62.081  64.686  71.255  0.00  0.00    +0.000 OA
ATOM     28  C   UNL     1      63.373  64.881  70.676  0.00  0.00    +0.000 C 
ATOM     29  C   UNL     1      63.404  64.154  70.288  0.00  0.00    +0.000 C 
ATOM     30  C   UNL     1      64.124  64.110  69.887  0.00  0.00    +0.000 C 
ATOM     31  C   UNL     1      64.537  64.810  70.028  0.00  0.00    +0.000 C 
ATOM     32  O   UNL     1      65.283  65.000  69.733  0.00  0.00    +0.000 OA
ATOM     33  N   UNL     1      64.073  65.287  70.516  0.00  0.00    +0.000 N 
ATOM     34  C   UNL     1      64.273  66.037  70.795  0.00  0.00    +0.000 A 
ATOM     35  N   UNL     1      63.751  66.450  71.281  0.00  0.00    +0.000 NA
ATOM     36  C   UNL     1      63.952  67.200  71.560  0.00  0.00    +0.000 A 
ATOM     37  C   UNL     1      64.676  67.537  71.352  0.00  0.00    +0.000 A 
ATOM     38  C   UNL     1      65.198  67.124  70.865  0.00  0.00    +0.000 A 
ATOM     39  C   UNL     1      64.997  66.374  70.587  0.00  0.00    +0.000 A 
ATOM     40  C   UNL     1      65.922  67.461  70.657  0.00  0.00    +0.000 C 
ATOM     41  N   UNL     1      66.646  67.798  70.449  0.00  0.00    +0.000 NA
ENDROOT
TORSDOF 0
ENDMDL
MODEL 2
REMARK VINA RESULT:   -16.887      2.504      3.604
REMARK INTER + INTRA:         -16.887
REMARK INTER:                 -16.887
REMARK INTRA:                   0.000
REMARK UNBOUND:                 0.000
ROOT
REMARK  Name = ivosidenib
REMARK                            x       y       z     vdW  Elec       q    Type
REMARK                         _______ _______ _______ _____ _____    ______ ____
ATOM      1  F   UNL     1      61.651  62.416  73.096  0.00  0.00    +0.000 F 
ATOM      2  C   UNL     1      61.613  63.144  72.711  0.00  0.00    +0.000 A 
ATOM      3  C   UNL     1      61.813  63.835  73.114  0.00  0.00    +0.000 A 
ATOM      4  N   UNL     1      61.775  64.563  72.729  0.00  0.00    +0.000 NA
ATOM      5  C   UNL     1      61.536  64.601  71.941  0.00  0.00    +0.000 A 
ATOM      6  C   UNL     1      61.335  63.910  71.537  0.00  0.00    +0.000 A 
ATOM      7  C   UNL     1      61.374  63.181  71.922  0.00  0.00    +0.000 A 
ATOM      8  N   UNL     1      61.096  63.947  70.748  0.00  0.00    +0.000 N 
ATOM      9  C   UNL     1      60.896  63.256  70.345  0.00  0.00    +0.000 C 
ATOM     10  C   UNL     1      60.657  63.293  69.556  0.00  0.00    +0.000 C 
ATOM     11  O   UNL     1      60.619  64.022  69.170  0.00  0.00    +0.000 OA
ATOM     12  N   UNL     1      60.456  62.603  69.152  0.00  0.00    +0.000 NA
ATOM     13  C   UNL     1      60.217  62.640  68.363  0.00  0.00    +0.000 C 
ATOM     14  C   UNL     1      60.115  63.246  67.814  0.00  0.00    +0.000 C 
ATOM     15  C   UNL     1      59.880  62.693  67.249  0.00  0.00    +0.000 C 
ATOM     16  F   UNL     1      59.777  63.299  66.698  0.00  0.00    +0.000 F 
ATOM     17  F   UNL     1      59.644  62.139  66.683  0.00  0.00    +0.000 F 
ATOM     18  C   UNL     1      59.982  62.086  67.799  0.00  0.00    +0.000 C 
ATOM     19  C   UNL     1      60.934  62.528  70.730  0.00  0.00    +0.000 A 
ATOM     20  C   UNL     1      60.734  61.836  70.327  0.00  0.00    +0.000 A 
ATOM     21  C   UNL     1      60.772  61.108  70.712  0.00  0.00    +0.000 A 
ATOM     22  C   UNL     1      61.011  61.071  71.500  0.00  0.00    +0.000 A 
ATOM     23  C   UNL     1      61.212  61.761  71.904  0.00  0.00    +0.000 A 
ATOM     24  C   UNL     1      61.173  62.490  71.519  0.00  0.00    +0.000 A 
ATOM     25 CL   UNL     1      61.430  62.789  72.244  0.00  0.00    +0.000 Cl
ATOM     26  C   UNL     1      61.058  64.675  70.363  0.00  0.00    +0.000 C 
ATOM     27  O   UNL     1      60.842  64.035  69.891  0.00  0.00    +0.000 OA
ATOM     28  C   UNL     1      61.047  65.440  70.052  0.00  0.00    +0.000 C 
ATOM     29  C   UNL     1      60.832  65.646  69.282  0.00  0.00    +0.000 C 
ATOM     30  C   UNL     1      60.901  66.466  69.210  0.00  0.00    +0.000 C 
ATOM     31  C   UNL     1      61.157  66.764  69.936  0.00  0.00    +0.000 C 
ATOM     32  O   UNL     1      61.298  67.558  70.109  0.00  0.00    +0.000 OA
ATOM     33  N   UNL     1      61.247  66.130  70.456  0.00  0.00    +0.000 N 
ATOM     34  C   UNL     1      61.494  66.179  71.241  0.00  0.00    +0.000 A 
ATOM     35  N   UNL     1      61.559  65.494  71.696  0.00  0.00    +0.000 NA
ATOM     36  C   UNL     1      61.807  65.542  72.482  0.00  0.00    +0.000 A 
ATOM     37  C   UNL     1      61.989  66.276  72.812  0.00  0.00    +0.000 A 
ATOM     38  C   UNL     1      61.925  66.961  72.357  0.00  0.00    +0.000 A 
ATOM     39  C   UNL     1      61.677  66.912  71.571  0.00  0.00    +0.000 A 
ATOM     40  C   UNL     1      62.108  67.694  72.687  0.00  0.00    +0.000 C 
ATOM     41  N   UNL     1      62.290  68.428  73.017  0.00  0.00    +0.000 NA
ENDROOT
TORSDOF 0
ENDMDL
MODEL 3
REMARK VINA RESULT:   -14.143     17.697     18.732
REMARK INTER + INTRA:         -14.143
REMARK INTER:                 -14.143
REMARK INTRA:                   0.000
REMARK UNBOUND:                 0.000
ROOT
REMARK  Name = ivosidenib
REMARK                            x       y       z     vdW  Elec       q    Type
REMARK                         _______ _______ _______ _____ _____    ______ ____
ATOM      1  F   UNL     1      62.713  69.816  55.104  0.00  0.00    +0.000 F 
ATOM      2  C   UNL     1      62.526  69.554  54.345  0.00  0.00    +0.000 A 
ATOM      3  C   UNL     1      62.451  70.096  53.728  0.00  0.00    +0.000 A 
ATOM      4  N   UNL     1      62.265  69.834  52.969  0.00  0.00    +0.000 NA
ATOM      5  C   UNL     1      62.153  69.029  52.826  0.00  0.00    +0.000 A 
ATOM      6  C   UNL     1      62.228  68.486  53.443  0.00  0.00    +0.000 A 
ATOM      7  C   UNL     1      62.415  68.749  54.203  0.00  0.00    +0.000 A 
ATOM      8  N   UNL     1      62.117  67.681  53.301  0.00  0.00    +0.000 N 
ATOM      9  C   UNL     1      62.192  67.139  53.919  0.00  0.00    +0.000 C 
ATOM     10  C   UNL     1      62.081  66.334  53.776  0.00  0.00    +0.000 C 
ATOM     11  O   UNL     1      61.894  66.071  53.016  0.00  0.00    +0.000 OA
ATOM     12  N   UNL     1      62.155  65.792  54.393  0.00  0.00    +0.000 NA
ATOM     13  C   UNL     1      62.044  64.987  54.251  0.00  0.00    +0.000 C 
ATOM     14  C   UNL     1      61.859  64.532  53.588  0.00  0.00    +0.000 C 
ATOM     15  C   UNL     1      61.887  63.849  54.050  0.00  0.00    +0.000 C 
ATOM     16  F   UNL     1      61.701  63.393  53.387  0.00  0.00    +0.000 F 
ATOM     17  F   UNL     1      61.915  63.165  54.512  0.00  0.00    +0.000 F 
ATOM     18  C   UNL     1      62.072  64.304  54.713  0.00  0.00    +0.000 C 
ATOM     19  C   UNL     1      62.378  67.402  54.678  0.00  0.00    +0.000 A 
ATOM     20  C   UNL     1      62.453  66.860  55.295  0.00  0.00    +0.000 A 
ATOM     21  C   UNL     1      62.640  67.122  56.054  0.00  0.00    +0.000 A 
ATOM     22  C   UNL     1      62.751  67.927  56.197  0.00  0.00    +0.000 A 
ATOM     23  C   UNL     1      62.676  68.470  55.580  0.00  0.00    +0.000 A 
ATOM     24  C   UNL     1      62.490  68.206  54.820  0.00  0.00    +0.000 A 
ATOM     25 CL   UNL     1      62.530  69.008  54.627  0.00  0.00    +0.000 Cl
ATOM     26  C   UNL     1      61.931  67.419  52.542  0.00  0.00    +0.000 C 
ATOM     27  O   UNL     1      61.987  66.815  53.101  0.00  0.00    +0.000 OA
ATOM     28  C   UNL     1      61.747  67.238  51.757  0.00  0.00    +0.000 C 
ATOM     29  C   UNL     1      61.607  66.484  51.453  0.00  0.00    +0.000 C 
ATOM     30  C   UNL     1      61.445  66.561  50.648  0.00  0.00    +0.000 C 
ATOM     31  C   UNL     1      61.486  67.362  50.455  0.00  0.00    +0.000 C 
ATOM     32  O   UNL     1      61.361  67.687  49.707  0.00  0.00    +0.000 OA
ATOM     33  N   UNL     1      61.672  67.781  51.141  0.00  0.00    +0.000 N 
ATOM     34  C   UNL     1      61.767  68.598  51.199  0.00  0.00    +0.000 A 
ATOM     35  N   UNL     1      61.955  68.941  51.926  0.00  0.00    +0.000 NA
ATOM     36  C   UNL     1      62.050  69.759  51.984  0.00  0.00    +0.000 A 
ATOM     37  C   UNL     1      61.957  70.233  51.316  0.00  0.00    +0.000 A 
ATOM     38  C   UNL     1      61.770  69.890  50.589  0.00  0.00    +0.000 A 
ATOM     39  C   UNL     1      61.675  69.073  50.531  0.00  0.00    +0.000 A 
ATOM     40  C   UNL     1      61.677  70.366  49.921  0.00  0.00    +0.000 C 
ATOM     41  N   UNL     1      61.585  70.840  49.252  0.00  0.00    +0.000 NA
ENDROOT
TORSDOF 0
ENDMDL
