MODEL 1
REMARK VINA RESULT:   -14.911      0.000      0.000
REMARK INTER + INTRA:         -14.911
REMARK INTER:                 -14.911
REMARK INTRA:                   0.000
REMARK UNBOUND:                 0.000
ROOT
REMARK  Name = ketanserin
REMARK                            x       y       z     vdW  Elec       q    Type
REMARK                         _______ _______ _______ _____ _____    ______ ____
ATOM      1  F   UNL     1      62.629  61.442  63.201  0.00  0.00    +0.000 F 
ATOM      2  C   UNL     1      62.115  61.548  63.838  0.00  0.00    +0.000 A 
ATOM      3  C   UNL     1      61.344  61.260  63.797  0.00  0.00    +0.000 A 
ATOM      4  C   UNL     1      60.830  61.366  64.434  0.00  0.00    +0.000 A 
ATOM      5  C   UNL     1      61.087  61.761  65.111  0.00  0.00    +0.000 A 
ATOM      6  C   UNL     1      61.859  62.050  65.152  0.00  0.00    +0.000 A 
ATOM      7  C   UNL     1      62.374  61.943  64.514  0.00  0.00    +0.000 A 
ATOM      8  C   UNL     1      60.574  61.867  65.747  0.00  0.00    +0.000 C 
ATOM      9  O   UNL     1      59.802  61.579  65.708  0.00  0.00    +0.000 OA
ATOM     10  C   UNL     1      60.832  62.262  66.425  0.00  0.00    +0.000 C 
ATOM     11  C   UNL     1      60.318  62.369  67.060  0.00  0.00    +0.000 C 
ATOM     12  C   UNL     1      60.575  62.764  67.737  0.00  0.00    +0.000 C 
ATOM     13  N   UNL     1      61.347  63.052  67.777  0.00  0.00    +0.000 NA
ATOM     14  C   UNL     1      61.605  63.447  68.455  0.00  0.00    +0.000 C 
ATOM     15  C   UNL     1      61.091  63.554  69.091  0.00  0.00    +0.000 C 
ATOM     16  N   UNL     1      61.350  63.949  69.768  0.00  0.00    +0.000 N 
ATOM     17  C   UNL     1      60.835  64.055  70.405  0.00  0.00    +0.000 A 
ATOM     18  O   UNL     1      60.064  63.766  70.364  0.00  0.00    +0.000 OA
ATOM     19  N   UNL     1      61.093  64.450  71.081  0.00  0.00    +0.000 NA
ATOM     20  C   UNL     1      61.864  64.738  71.122  0.00  0.00    +0.000 A 
ATOM     21  C   UNL     1      62.123  65.134  71.798  0.00  0.00    +0.000 A 
ATOM     22  C   UNL     1      62.894  65.422  71.839  0.00  0.00    +0.000 A 
ATOM     23  C   UNL     1      63.409  65.315  71.202  0.00  0.00    +0.000 A 
ATOM     24  C   UNL     1      63.151  64.921  70.525  0.00  0.00    +0.000 A 
ATOM     25  C   UNL     1      62.379  64.632  70.484  0.00  0.00    +0.000 A 
ATOM     26  C   UNL     1      62.121  64.237  69.808  0.00  0.00    +0.000 A 
ATOM     27  O   UNL     1      62.635  64.131  69.172  0.00  0.00    +0.000 OA
ATOM     28  C   UNL     1      61.861  62.946  67.141  0.00  0.00    +0.000 C 
ATOM     29  C   UNL     1      61.603  62.551  66.464  0.00  0.00    +0.000 C 
ENDROOT
TORSDOF 0
ENDMDL
MODEL 2
REMARK VINA RESULT:   -14.389      2.072      5.971
REMARK INTER + INTRA:         -14.389
REMARK INTER:                 -14.389
REMARK INTRA:                   0.000
REMARK UNBOUND:                 0.000
ROOT
REMARK  Name = ketanserin
REMARK                            x       y       z     vdW  Elec       q    Type
REMARK                         _______ _______ _______ _____ _____    ______ ____
ATOM      1  F   UNL     1      63.546  65.751  72.028  0.00  0.00    +0.000 F 
ATOM      2  C   UNL     1      62.900  65.399  71.653  0.00  0.00    +0.000 A 
ATOM      3  C   UNL     1      62.166  65.380  72.028  0.00  0.00    +0.000 A 
ATOM      4  C   UNL     1      61.521  65.027  71.653  0.00  0.00    +0.000 A 
ATOM      5  C   UNL     1      61.610  64.695  70.904  0.00  0.00    +0.000 A 
ATOM      6  C   UNL     1      62.345  64.714  70.528  0.00  0.00    +0.000 A 
ATOM      7  C   UNL     1      62.991  65.067  70.903  0.00  0.00    +0.000 A 
ATOM      8  C   UNL     1      60.965  64.343  70.529  0.00  0.00    +0.000 C 
ATOM      9  O   UNL     1      60.230  64.323  70.903  0.00  0.00    +0.000 OA
ATOM     10  C   UNL     1      61.054  64.010  69.779  0.00  0.00    +0.000 C 
ATOM     11  C   UNL     1      60.410  63.658  69.404  0.00  0.00    +0.000 C 
ATOM     12  C   UNL     1      60.499  63.326  68.655  0.00  0.00    +0.000 C 
ATOM     13  N   UNL     1      61.233  63.346  68.280  0.00  0.00    +0.000 NA
ATOM     14  C   UNL     1      61.323  63.013  67.530  0.00  0.00    +0.000 C 
ATOM     15  C   UNL     1      60.678  62.661  67.155  0.00  0.00    +0.000 C 
ATOM     16  N   UNL     1      60.768  62.328  66.405  0.00  0.00    +0.000 N 
ATOM     17  C   UNL     1      60.122  61.976  66.030  0.00  0.00    +0.000 A 
ATOM     18  O   UNL     1      59.387  61.956  66.406  0.00  0.00    +0.000 OA
ATOM     19  N   UNL     1      60.211  61.643  65.281  0.00  0.00    +0.000 NA
ATOM     20  C   UNL     1      60.945  61.663  64.906  0.00  0.00    +0.000 A 
ATOM     21  C   UNL     1      61.035  61.330  64.157  0.00  0.00    +0.000 A 
ATOM     22  C   UNL     1      61.769  61.350  63.782  0.00  0.00    +0.000 A 
ATOM     23  C   UNL     1      62.415  61.702  64.157  0.00  0.00    +0.000 A 
ATOM     24  C   UNL     1      62.326  62.035  64.906  0.00  0.00    +0.000 A 
ATOM     25  C   UNL     1      61.591  62.015  65.282  0.00  0.00    +0.000 A 
ATOM     26  C   UNL     1      61.502  62.348  66.031  0.00  0.00    +0.000 A 
ATOM     27  O   UNL     1      62.147  62.700  66.405  0.00  0.00    +0.000 OA
ATOM     28  C   UNL     1      61.878  63.697  68.655  0.00  0.00    +0.000 C 
ATOM     29  C   UNL     1      61.789  64.030  69.404  0.00  0.00    +0.000 C 
ENDROOT
TORSDOF 0
ENDMDL
MODEL 3
REMARK VINA RESULT:   -14.152      2.543      6.065
REMARK INTER + INTRA:         -14.152
REMARK INTER:                 -14.152
REMARK INTRA:                   0.000
REMARK UNBOUND:                 0.000
ROOT
REMARK  Name = ketanserin
REMARK                            x       y       z     vdW  Elec       q    Type
REMARK                         _______ _______ _______ _____ _____    ______ ____
ATOM      1  F   UNL     1      66.680  67.979  69.919  0.00  0.00    +0.000 F 
ATOM      2  C   UNL     1      66.090  67.498  70.240  0.00  0.00    +0.000 A 
ATOM      3  C   UNL     1      65.980  67.471  71.056  0.00  0.00    +0.000 A 
ATOM      4  C   UNL     1      65.390  66.990  71.377  0.00  0.00    +0.000 A 
ATOM      5  C   UNL     1      64.912  66.538  70.881  0.00  0.00    +0.000 A 
ATOM      6  C   UNL     1      65.022  66.565  70.063  0.00  0.00    +0.000 A 
ATOM      7  C   UNL     1      65.612  67.046  69.742  0.00  0.00    +0.000 A 
ATOM      8  C   UNL     1      64.322  66.057  71.201  0.00  0.00    +0.000 C 
ATOM      9  O   UNL     1      64.211  66.029  72.018  0.00  0.00    +0.000 OA
ATOM     10  C   UNL     1      63.843  65.604  70.704  0.00  0.00    +0.000 C 
ATOM     11  C   UNL     1      63.255  65.125  71.024  0.00  0.00    +0.000 C 
ATOM     12  C   UNL     1      62.776  64.672  70.528  0.00  0.00    +0.000 C 
ATOM     13  N   UNL     1      62.887  64.700  69.711  0.00  0.00    +0.000 NA
ATOM     14  C   UNL     1      62.408  64.247  69.214  0.00  0.00    +0.000 C 
ATOM     15  C   UNL     1      61.818  63.767  69.534  0.00  0.00    +0.000 C 
ATOM     16  N   UNL     1      61.340  63.315  69.037  0.00  0.00    +0.000 N 
ATOM     17  C   UNL     1      60.750  62.834  69.358  0.00  0.00    +0.000 A 
ATOM     18  O   UNL     1      60.640  62.806  70.175  0.00  0.00    +0.000 OA
ATOM     19  N   UNL     1      60.271  62.382  68.861  0.00  0.00    +0.000 NA
ATOM     20  C   UNL     1      60.382  62.409  68.045  0.00  0.00    +0.000 A 
ATOM     21  C   UNL     1      59.903  61.957  67.548  0.00  0.00    +0.000 A 
ATOM     22  C   UNL     1      60.014  61.985  66.731  0.00  0.00    +0.000 A 
ATOM     23  C   UNL     1      60.604  62.466  66.410  0.00  0.00    +0.000 A 
ATOM     24  C   UNL     1      61.082  62.918  66.907  0.00  0.00    +0.000 A 
ATOM     25  C   UNL     1      60.972  62.890  67.724  0.00  0.00    +0.000 A 
ATOM     26  C   UNL     1      61.450  63.342  68.221  0.00  0.00    +0.000 A 
ATOM     27  O   UNL     1      62.039  63.823  67.900  0.00  0.00    +0.000 OA
ATOM     28  C   UNL     1      63.475  65.180  69.391  0.00  0.00    +0.000 C 
ATOM     29  C   UNL     1      63.954  65.633  69.887  0.00  0.00    +0.000 C 
ENDROOT
TORSDOF 0
ENDMDL
MODEL 4
REMARK VINA RESULT:   -12.747      2.294      6.228
REMARK INTER + INTRA:         -12.747
REMARK INTER:                 -12.747
REMARK INTRA:                   0.000
REMARK UNBOUND:                 0.000
ROOT
REMARK  Name = ketanserin
REMARK                            x       y       z     vdW  Elec       q    Type
REMARK                         _______ _______ _______ _____ _____    ______ ____
ATOM      1  F   UNL     1      59.074  64.168  72.490  0.00  0.00    +0.000 F 
ATOM      2  C   UNL     1      59.687  64.182  71.938  0.00  0.00    +0.000 A 
ATOM      3  C   UNL     1      60.392  64.571  72.115  0.00  0.00    +0.000 A 
ATOM      4  C   UNL     1      61.005  64.585  71.562  0.00  0.00    +0.000 A 
ATOM      5  C   UNL     1      60.912  64.211  70.833  0.00  0.00    +0.000 A 
ATOM      6  C   UNL     1      60.206  63.822  70.656  0.00  0.00    +0.000 A 
ATOM      7  C   UNL     1      59.593  63.807  71.209  0.00  0.00    +0.000 A 
ATOM      8  C   UNL     1      61.525  64.226  70.281  0.00  0.00    +0.000 C 
ATOM      9  O   UNL     1      62.230  64.614  70.457  0.00  0.00    +0.000 OA
ATOM     10  C   UNL     1      61.431  63.851  69.551  0.00  0.00    +0.000 C 
ATOM     11  C   UNL     1      62.043  63.866  68.999  0.00  0.00    +0.000 C 
ATOM     12  C   UNL     1      61.951  63.491  68.270  0.00  0.00    +0.000 C 
ATOM     13  N   UNL     1      61.245  63.103  68.094  0.00  0.00    +0.000 NA
ATOM     14  C   UNL     1      61.152  62.728  67.364  0.00  0.00    +0.000 C 
ATOM     15  C   UNL     1      61.764  62.743  66.811  0.00  0.00    +0.000 C 
ATOM     16  N   UNL     1      61.671  62.368  66.082  0.00  0.00    +0.000 N 
ATOM     17  C   UNL     1      62.284  62.383  65.529  0.00  0.00    +0.000 A 
ATOM     18  O   UNL     1      62.990  62.772  65.707  0.00  0.00    +0.000 OA
ATOM     19  N   UNL     1      62.191  62.009  64.800  0.00  0.00    +0.000 NA
ATOM     20  C   UNL     1      61.486  61.620  64.623  0.00  0.00    +0.000 A 
ATOM     21  C   UNL     1      61.392  61.245  63.894  0.00  0.00    +0.000 A 
ATOM     22  C   UNL     1      60.687  60.857  63.717  0.00  0.00    +0.000 A 
ATOM     23  C   UNL     1      60.073  60.842  64.270  0.00  0.00    +0.000 A 
ATOM     24  C   UNL     1      60.167  61.216  64.999  0.00  0.00    +0.000 A 
ATOM     25  C   UNL     1      60.872  61.605  65.176  0.00  0.00    +0.000 A 
ATOM     26  C   UNL     1      60.965  61.980  65.905  0.00  0.00    +0.000 A 
ATOM     27  O   UNL     1      60.353  61.965  66.457  0.00  0.00    +0.000 OA
ATOM     28  C   UNL     1      60.633  63.088  68.645  0.00  0.00    +0.000 C 
ATOM     29  C   UNL     1      60.726  63.462  69.375  0.00  0.00    +0.000 C 
ENDROOT
TORSDOF 0
ENDMDL
MODEL 5
REMARK VINA RESULT:   -12.658      2.810      6.119
REMARK INTER + INTRA:         -12.658
REMARK INTER:                 -12.658
REMARK INTRA:                   0.000
REMARK UNBOUND:                 0.000
ROOT
REMARK  Name = ketanserin
REMARK                            x       y       z     vdW  Elec       q    Type
REMARK                         _______ _______ _______ _____ _____    ______ ____
ATOM      1  F   UNL     1      59.135  68.364  71.341  0.00  0.00    +0.000 F 
ATOM      2  C   UNL     1      59.252  67.548  71.314  0.00  0.00    +0.000 A 
ATOM      3  C   UNL     1      59.104  67.089  71.983  0.00  0.00    +0.000 A 
ATOM      4  C   UNL     1      59.220  66.272  71.957  0.00  0.00    +0.000 A 
ATOM      5  C   UNL     1      59.486  65.915  71.262  0.00  0.00    +0.000 A 
ATOM      6  C   UNL     1      59.634  66.374  70.593  0.00  0.00    +0.000 A 
ATOM      7  C   UNL     1      59.518  67.192  70.619  0.00  0.00    +0.000 A 
ATOM      8  C   UNL     1      59.602  65.099  71.236  0.00  0.00    +0.000 C 
ATOM      9  O   UNL     1      59.454  64.639  71.904  0.00  0.00    +0.000 OA
ATOM     10  C   UNL     1      59.868  64.742  70.541  0.00  0.00    +0.000 C 
ATOM     11  C   UNL     1      59.985  63.927  70.515  0.00  0.00    +0.000 C 
ATOM     12  C   UNL     1      60.250  63.569  69.820  0.00  0.00    +0.000 C 
ATOM     13  N   UNL     1      60.398  64.029  69.152  0.00  0.00    +0.000 NA
ATOM     14  C   UNL     1      60.664  63.672  68.456  0.00  0.00    +0.000 C 
ATOM     15  C   UNL     1      60.781  62.856  68.430  0.00  0.00    +0.000 C 
ATOM     16  N   UNL     1      61.046  62.500  67.735  0.00  0.00    +0.000 N 
ATOM     17  C   UNL     1      61.163  61.683  67.708  0.00  0.00    +0.000 A 
ATOM     18  O   UNL     1      61.015  61.223  68.378  0.00  0.00    +0.000 OA
ATOM     19  N   UNL     1      61.429  61.326  67.014  0.00  0.00    +0.000 NA
ATOM     20  C   UNL     1      61.577  61.785  66.346  0.00  0.00    +0.000 A 
ATOM     21  C   UNL     1      61.843  61.429  65.650  0.00  0.00    +0.000 A 
ATOM     22  C   UNL     1      61.991  61.888  64.982  0.00  0.00    +0.000 A 
ATOM     23  C   UNL     1      61.874  62.705  65.008  0.00  0.00    +0.000 A 
ATOM     24  C   UNL     1      61.609  63.062  65.702  0.00  0.00    +0.000 A 
ATOM     25  C   UNL     1      61.460  62.603  66.372  0.00  0.00    +0.000 A 
ATOM     26  C   UNL     1      61.195  62.959  67.066  0.00  0.00    +0.000 A 
ATOM     27  O   UNL     1      61.078  63.775  67.092  0.00  0.00    +0.000 OA
ATOM     28  C   UNL     1      60.282  64.845  69.178  0.00  0.00    +0.000 C 
ATOM     29  C   UNL     1      60.016  65.202  69.872  0.00  0.00    +0.000 C 
ENDROOT
TORSDOF 0
ENDMDL
MODEL 6
REMARK VINA RESULT:   -12.124      2.574      6.380
REMARK INTER + INTRA:         -12.124
REMARK INTER:                 -12.124
REMARK INTRA:                   0.000
REMARK UNBOUND:                 0.000
ROOT
REMARK  Name = ketanserin
REMARK                            x       y       z     vdW  Elec       q    Type
REMARK                         _______ _______ _______ _____ _____    ______ ____
ATOM      1  F   UNL     1      60.836  67.064  73.217  0.00  0.00    +0.000 F 
ATOM      2  C   UNL     1      61.289  66.718  72.621  0.00  0.00    +0.000 A 
ATOM      3  C   UNL     1      62.106  66.823  72.610  0.00  0.00    +0.000 A 
ATOM      4  C   UNL     1      62.560  66.477  72.013  0.00  0.00    +0.000 A 
ATOM      5  C   UNL     1      62.194  66.026  71.427  0.00  0.00    +0.000 A 
ATOM      6  C   UNL     1      61.376  65.920  71.438  0.00  0.00    +0.000 A 
ATOM      7  C   UNL     1      60.923  66.267  72.035  0.00  0.00    +0.000 A 
ATOM      8  C   UNL     1      62.647  65.680  70.831  0.00  0.00    +0.000 C 
ATOM      9  O   UNL     1      63.465  65.784  70.819  0.00  0.00    +0.000 OA
ATOM     10  C   UNL     1      62.281  65.228  70.244  0.00  0.00    +0.000 C 
ATOM     11  C   UNL     1      62.733  64.882  69.648  0.00  0.00    +0.000 C 
ATOM     12  C   UNL     1      62.368  64.431  69.062  0.00  0.00    +0.000 C 
ATOM     13  N   UNL     1      61.550  64.326  69.074  0.00  0.00    +0.000 NA
ATOM     14  C   UNL     1      61.184  63.874  68.487  0.00  0.00    +0.000 C 
ATOM     15  C   UNL     1      61.636  63.528  67.891  0.00  0.00    +0.000 C 
ATOM     16  N   UNL     1      61.270  63.076  67.305  0.00  0.00    +0.000 N 
ATOM     17  C   UNL     1      61.723  62.730  66.708  0.00  0.00    +0.000 A 
ATOM     18  O   UNL     1      62.541  62.835  66.698  0.00  0.00    +0.000 OA
ATOM     19  N   UNL     1      61.358  62.279  66.122  0.00  0.00    +0.000 NA
ATOM     20  C   UNL     1      60.540  62.174  66.133  0.00  0.00    +0.000 A 
ATOM     21  C   UNL     1      60.174  61.722  65.547  0.00  0.00    +0.000 A 
ATOM     22  C   UNL     1      59.356  61.617  65.558  0.00  0.00    +0.000 A 
ATOM     23  C   UNL     1      58.903  61.964  66.155  0.00  0.00    +0.000 A 
ATOM     24  C   UNL     1      59.269  62.415  66.741  0.00  0.00    +0.000 A 
ATOM     25  C   UNL     1      60.087  62.520  66.731  0.00  0.00    +0.000 A 
ATOM     26  C   UNL     1      60.452  62.971  67.316  0.00  0.00    +0.000 A 
ATOM     27  O   UNL     1      60.000  63.317  67.912  0.00  0.00    +0.000 OA
ATOM     28  C   UNL     1      61.098  64.672  69.670  0.00  0.00    +0.000 C 
ATOM     29  C   UNL     1      61.463  65.123  70.256  0.00  0.00    +0.000 C 
ENDROOT
TORSDOF 0
ENDMDL
