MODEL 1
REMARK VINA RESULT:    -5.826      0.000      0.000
REMARK INTER + INTRA:          -5.826
REMARK INTER:                  -5.826
REMARK INTRA:                   0.000
REMARK UNBOUND:                 0.000
ROOT
REMARK  Name = ketoxal
REMARK                            x       y       z     vdW  Elec       q    Type
REMARK                         _______ _______ _______ _____ _____    ______ ____
ATOM      1  C   UNL     1      59.344  62.003  66.443  0.00  0.00    +0.000 C 
ATOM      2  C   UNL     1      60.116  62.145  66.187  0.00  0.00    +0.000 C 
ATOM      3  O   UNL     1      60.379  61.830  65.472  0.00  0.00    +0.000 OA
ATOM      4  C   UNL     1      61.150  61.972  65.216  0.00  0.00    +0.000 C 
ATOM      5  C   UNL     1      61.659  62.430  65.677  0.00  0.00    +0.000 C 
ATOM      6  C   UNL     1      61.413  61.658  64.501  0.00  0.00    +0.000 C 
ATOM      7  O   UNL     1      60.904  61.201  64.040  0.00  0.00    +0.000 OA
ATOM      8  C   UNL     1      62.184  61.800  64.245  0.00  0.00    +0.000 C 
ATOM      9  O   UNL     1      62.447  61.485  63.530  0.00  0.00    +0.000 OA
ATOM     10  O   UNL     1      62.693  62.257  64.706  0.00  0.00    +0.000 OA
ENDROOT
TORSDOF 0
ENDMDL
MODEL 2
REMARK VINA RESULT:    -5.316      0.905      2.594
REMARK INTER + INTRA:          -5.316
REMARK INTER:                  -5.316
REMARK INTRA:                   0.000
REMARK UNBOUND:                 0.000
ROOT
REMARK  Name = ketoxal
REMARK                            x       y       z     vdW  Elec       q    Type
REMARK                         _______ _______ _______ _____ _____    ______ ____
ATOM      1  C   UNL     1      62.431  61.579  63.488  0.00  0.00    +0.000 C 
ATOM      2  C   UNL     1      62.279  61.882  64.240  0.00  0.00    +0.000 C 
ATOM      3  O   UNL     1      61.542  61.766  64.591  0.00  0.00    +0.000 OA
ATOM      4  C   UNL     1      61.390  62.069  65.344  0.00  0.00    +0.000 C 
ATOM      5  C   UNL     1      61.977  62.488  65.745  0.00  0.00    +0.000 C 
ATOM      6  C   UNL     1      60.654  61.952  65.695  0.00  0.00    +0.000 C 
ATOM      7  O   UNL     1      60.068  61.532  65.294  0.00  0.00    +0.000 OA
ATOM      8  C   UNL     1      60.502  62.255  66.447  0.00  0.00    +0.000 C 
ATOM      9  O   UNL     1      59.765  62.139  66.798  0.00  0.00    +0.000 OA
ATOM     10  O   UNL     1      61.088  62.675  66.848  0.00  0.00    +0.000 OA
ENDROOT
TORSDOF 0
ENDMDL
MODEL 3
REMARK VINA RESULT:    -5.000      2.492      3.302
REMARK INTER + INTRA:          -5.000
REMARK INTER:                  -5.000
REMARK INTRA:                   0.000
REMARK UNBOUND:                 0.000
ROOT
REMARK  Name = ketoxal
REMARK                            x       y       z     vdW  Elec       q    Type
REMARK                         _______ _______ _______ _____ _____    ______ ____
ATOM      1  C   UNL     1      60.719  62.084  70.182  0.00  0.00    +0.000 C 
ATOM      2  C   UNL     1      60.499  62.063  69.387  0.00  0.00    +0.000 C 
ATOM      3  O   UNL     1      60.967  62.434  68.819  0.00  0.00    +0.000 OA
ATOM      4  C   UNL     1      60.747  62.412  68.024  0.00  0.00    +0.000 C 
ATOM      5  C   UNL     1      60.058  62.019  67.798  0.00  0.00    +0.000 C 
ATOM      6  C   UNL     1      61.215  62.783  67.456  0.00  0.00    +0.000 C 
ATOM      7  O   UNL     1      61.904  63.176  67.682  0.00  0.00    +0.000 OA
ATOM      8  C   UNL     1      60.995  62.762  66.661  0.00  0.00    +0.000 C 
ATOM      9  O   UNL     1      61.463  63.132  66.092  0.00  0.00    +0.000 OA
ATOM     10  O   UNL     1      60.306  62.369  66.435  0.00  0.00    +0.000 OA
ENDROOT
TORSDOF 0
ENDMDL
MODEL 4
REMARK VINA RESULT:    -4.945      6.815      7.787
REMARK INTER + INTRA:          -4.945
REMARK INTER:                  -4.945
REMARK INTRA:                   0.000
REMARK UNBOUND:                 0.000
ROOT
REMARK  Name = ketoxal
REMARK                            x       y       z     vdW  Elec       q    Type
REMARK                         _______ _______ _______ _____ _____    ______ ____
ATOM      1  C   UNL     1      66.218  67.740  69.854  0.00  0.00    +0.000 C 
ATOM      2  C   UNL     1      65.731  67.221  70.270  0.00  0.00    +0.000 C 
ATOM      3  O   UNL     1      65.431  66.549  69.899  0.00  0.00    +0.000 OA
ATOM      4  C   UNL     1      64.943  66.029  70.315  0.00  0.00    +0.000 C 
ATOM      5  C   UNL     1      64.755  66.183  71.103  0.00  0.00    +0.000 C 
ATOM      6  C   UNL     1      64.643  65.357  69.943  0.00  0.00    +0.000 C 
ATOM      7  O   UNL     1      64.831  65.204  69.154  0.00  0.00    +0.000 OA
ATOM      8  C   UNL     1      64.155  64.838  70.359  0.00  0.00    +0.000 C 
ATOM      9  O   UNL     1      63.855  64.166  69.987  0.00  0.00    +0.000 OA
ATOM     10  O   UNL     1      63.968  64.991  71.148  0.00  0.00    +0.000 OA
ENDROOT
TORSDOF 0
ENDMDL
MODEL 5
REMARK VINA RESULT:    -4.847      4.596      5.555
REMARK INTER + INTRA:          -4.847
REMARK INTER:                  -4.847
REMARK INTRA:                   0.000
REMARK UNBOUND:                 0.000
ROOT
REMARK  Name = ketoxal
REMARK                            x       y       z     vdW  Elec       q    Type
REMARK                         _______ _______ _______ _____ _____    ______ ____
ATOM      1  C   UNL     1      61.483  63.105  72.475  0.00  0.00    +0.000 C 
ATOM      2  C   UNL     1      61.149  62.672  71.856  0.00  0.00    +0.000 C 
ATOM      3  O   UNL     1      61.189  62.958  71.084  0.00  0.00    +0.000 OA
ATOM      4  C   UNL     1      60.855  62.526  70.466  0.00  0.00    +0.000 C 
ATOM      5  C   UNL     1      60.480  61.807  70.621  0.00  0.00    +0.000 C 
ATOM      6  C   UNL     1      60.894  62.811  69.693  0.00  0.00    +0.000 C 
ATOM      7  O   UNL     1      61.269  63.530  69.538  0.00  0.00    +0.000 OA
ATOM      8  C   UNL     1      60.560  62.379  69.075  0.00  0.00    +0.000 C 
ATOM      9  O   UNL     1      60.600  62.664  68.303  0.00  0.00    +0.000 OA
ATOM     10  O   UNL     1      60.185  61.660  69.230  0.00  0.00    +0.000 OA
ENDROOT
TORSDOF 0
ENDMDL
MODEL 6
REMARK VINA RESULT:    -4.721      8.957      9.923
REMARK INTER + INTRA:          -4.721
REMARK INTER:                  -4.721
REMARK INTRA:                   0.000
REMARK UNBOUND:                 0.000
ROOT
REMARK  Name = ketoxal
REMARK                            x       y       z     vdW  Elec       q    Type
REMARK                         _______ _______ _______ _____ _____    ______ ____
ATOM      1  C   UNL     1      67.956  66.455  73.188  0.00  0.00    +0.000 C 
ATOM      2  C   UNL     1      67.242  66.504  72.778  0.00  0.00    +0.000 C 
ATOM      3  O   UNL     1      67.221  66.829  72.021  0.00  0.00    +0.000 OA
ATOM      4  C   UNL     1      66.507  66.878  71.611  0.00  0.00    +0.000 C 
ATOM      5  C   UNL     1      65.812  66.601  71.960  0.00  0.00    +0.000 C 
ATOM      6  C   UNL     1      66.486  67.203  70.854  0.00  0.00    +0.000 C 
ATOM      7  O   UNL     1      67.181  67.480  70.505  0.00  0.00    +0.000 OA
ATOM      8  C   UNL     1      65.772  67.252  70.444  0.00  0.00    +0.000 C 
ATOM      9  O   UNL     1      65.751  67.577  69.687  0.00  0.00    +0.000 OA
ATOM     10  O   UNL     1      65.077  66.975  70.793  0.00  0.00    +0.000 OA
ENDROOT
TORSDOF 0
ENDMDL
MODEL 7
REMARK VINA RESULT:    -4.638     24.612     25.138
REMARK INTER + INTRA:          -4.638
REMARK INTER:                  -4.638
REMARK INTRA:                   0.000
REMARK UNBOUND:                 0.000
ROOT
REMARK  Name = ketoxal
REMARK                            x       y       z     vdW  Elec       q    Type
REMARK                         _______ _______ _______ _____ _____    ______ ____
ATOM      1  C   UNL     1      69.392  80.237  51.174  0.00  0.00    +0.000 C 
ATOM      2  C   UNL     1      69.664  79.667  50.643  0.00  0.00    +0.000 C 
ATOM      3  O   UNL     1      70.390  79.766  50.266  0.00  0.00    +0.000 OA
ATOM      4  C   UNL     1      70.662  79.195  49.736  0.00  0.00    +0.000 C 
ATOM      5  C   UNL     1      70.206  78.524  49.583  0.00  0.00    +0.000 C 
ATOM      6  C   UNL     1      71.388  79.294  49.359  0.00  0.00    +0.000 C 
ATOM      7  O   UNL     1      71.844  79.964  49.511  0.00  0.00    +0.000 OA
ATOM      8  C   UNL     1      71.660  78.723  48.828  0.00  0.00    +0.000 C 
ATOM      9  O   UNL     1      72.386  78.822  48.451  0.00  0.00    +0.000 OA
ATOM     10  O   UNL     1      71.204  78.052  48.676  0.00  0.00    +0.000 OA
ENDROOT
TORSDOF 0
ENDMDL
MODEL 8
REMARK VINA RESULT:    -4.627      4.825      6.084
REMARK INTER + INTRA:          -4.627
REMARK INTER:                  -4.627
REMARK INTRA:                   0.000
REMARK UNBOUND:                 0.000
ROOT
REMARK  Name = ketoxal
REMARK                            x       y       z     vdW  Elec       q    Type
REMARK                         _______ _______ _______ _____ _____    ______ ____
ATOM      1  C   UNL     1      60.498  62.001  68.210  0.00  0.00    +0.000 C 
ATOM      2  C   UNL     1      60.489  61.998  69.035  0.00  0.00    +0.000 C 
ATOM      3  O   UNL     1      60.480  62.710  69.450  0.00  0.00    +0.000 OA
ATOM      4  C   UNL     1      60.471  62.706  70.276  0.00  0.00    +0.000 C 
ATOM      5  C   UNL     1      60.472  61.990  70.685  0.00  0.00    +0.000 C 
ATOM      6  C   UNL     1      60.462  63.418  70.691  0.00  0.00    +0.000 C 
ATOM      7  O   UNL     1      60.462  64.135  70.282  0.00  0.00    +0.000 OA
ATOM      8  C   UNL     1      60.454  63.415  71.517  0.00  0.00    +0.000 C 
ATOM      9  O   UNL     1      60.445  64.127  71.932  0.00  0.00    +0.000 OA
ATOM     10  O   UNL     1      60.454  62.698  71.926  0.00  0.00    +0.000 OA
ENDROOT
TORSDOF 0
ENDMDL
MODEL 9
REMARK VINA RESULT:    -4.615      8.357      8.946
REMARK INTER + INTRA:          -4.615
REMARK INTER:                  -4.615
REMARK INTRA:                   0.000
REMARK UNBOUND:                 0.000
ROOT
REMARK  Name = ketoxal
REMARK                            x       y       z     vdW  Elec       q    Type
REMARK                         _______ _______ _______ _____ _____    ______ ____
ATOM      1  C   UNL     1      63.295  66.283  71.808  0.00  0.00    +0.000 C 
ATOM      2  C   UNL     1      64.098  66.473  71.840  0.00  0.00    +0.000 C 
ATOM      3  O   UNL     1      64.489  66.727  71.160  0.00  0.00    +0.000 OA
ATOM      4  C   UNL     1      65.291  66.917  71.192  0.00  0.00    +0.000 C 
ATOM      5  C   UNL     1      65.702  66.853  71.904  0.00  0.00    +0.000 C 
ATOM      6  C   UNL     1      65.683  67.170  70.512  0.00  0.00    +0.000 C 
ATOM      7  O   UNL     1      65.272  67.234  69.799  0.00  0.00    +0.000 OA
ATOM      8  C   UNL     1      66.485  67.360  70.543  0.00  0.00    +0.000 C 
ATOM      9  O   UNL     1      66.876  67.614  69.864  0.00  0.00    +0.000 OA
ATOM     10  O   UNL     1      66.896  67.296  71.256  0.00  0.00    +0.000 OA
ENDROOT
TORSDOF 0
ENDMDL
