MODEL 1
REMARK VINA RESULT:   -10.807      0.000      0.000
REMARK INTER + INTRA:         -10.807
REMARK INTER:                 -10.807
REMARK INTRA:                   0.000
REMARK UNBOUND:                 0.000
ROOT
REMARK  Name = ketorolac
REMARK                            x       y       z     vdW  Elec       q    Type
REMARK                         _______ _______ _______ _____ _____    ______ ____
ATOM      1  O   UNL     1      61.405  63.937  68.707  0.00  0.00    +0.000 OA
ATOM      2  C   UNL     1      60.798  63.518  68.338  0.00  0.00    +0.000 C 
ATOM      3  O   UNL     1      60.059  63.457  68.699  0.00  0.00    +0.000 OA
ATOM      4  C   UNL     1      60.931  63.158  67.607  0.00  0.00    +0.000 C 
ATOM      5  C   UNL     1      61.637  63.171  67.182  0.00  0.00    +0.000 C 
ATOM      6  C   UNL     1      61.523  62.744  66.485  0.00  0.00    +0.000 C 
ATOM      7  N   UNL     1      60.746  62.467  66.480  0.00  0.00    +0.000 N 
ATOM      8  C   UNL     1      60.380  62.723  67.173  0.00  0.00    +0.000 A 
ATOM      9  C   UNL     1      59.603  62.447  67.168  0.00  0.00    +0.000 A 
ATOM     10  C   UNL     1      59.489  62.020  66.472  0.00  0.00    +0.000 A 
ATOM     11  C   UNL     1      60.196  62.032  66.046  0.00  0.00    +0.000 A 
ATOM     12  C   UNL     1      60.328  61.673  65.316  0.00  0.00    +0.000 C 
ATOM     13  O   UNL     1      59.721  61.254  64.946  0.00  0.00    +0.000 OA
ATOM     14  C   UNL     1      61.068  61.733  64.954  0.00  0.00    +0.000 A 
ATOM     15  C   UNL     1      61.200  61.374  64.224  0.00  0.00    +0.000 A 
ATOM     16  C   UNL     1      61.939  61.434  63.863  0.00  0.00    +0.000 A 
ATOM     17  C   UNL     1      62.546  61.853  64.232  0.00  0.00    +0.000 A 
ATOM     18  C   UNL     1      62.413  62.212  64.963  0.00  0.00    +0.000 A 
ATOM     19  C   UNL     1      61.674  62.152  65.324  0.00  0.00    +0.000 A 
ENDROOT
TORSDOF 0
ENDMDL
MODEL 2
REMARK VINA RESULT:   -10.186      1.142      3.344
REMARK INTER + INTRA:         -10.186
REMARK INTER:                 -10.186
REMARK INTRA:                   0.000
REMARK UNBOUND:                 0.000
ROOT
REMARK  Name = ketorolac
REMARK                            x       y       z     vdW  Elec       q    Type
REMARK                         _______ _______ _______ _____ _____    ______ ____
ATOM      1  O   UNL     1      62.757  61.801  63.865  0.00  0.00    +0.000 OA
ATOM      2  C   UNL     1      61.979  61.654  64.096  0.00  0.00    +0.000 C 
ATOM      3  O   UNL     1      61.469  61.248  63.592  0.00  0.00    +0.000 OA
ATOM      4  C   UNL     1      61.712  61.913  64.833  0.00  0.00    +0.000 C 
ATOM      5  C   UNL     1      62.157  62.324  65.393  0.00  0.00    +0.000 C 
ATOM      6  C   UNL     1      61.673  62.472  66.045  0.00  0.00    +0.000 C 
ATOM      7  N   UNL     1      60.929  62.152  65.888  0.00  0.00    +0.000 N 
ATOM      8  C   UNL     1      60.953  61.807  65.139  0.00  0.00    +0.000 A 
ATOM      9  C   UNL     1      60.209  61.488  64.981  0.00  0.00    +0.000 A 
ATOM     10  C   UNL     1      59.725  61.635  65.632  0.00  0.00    +0.000 A 
ATOM     11  C   UNL     1      60.170  62.046  66.193  0.00  0.00    +0.000 A 
ATOM     12  C   UNL     1      59.903  62.305  66.929  0.00  0.00    +0.000 C 
ATOM     13  O   UNL     1      59.125  62.158  67.161  0.00  0.00    +0.000 OA
ATOM     14  C   UNL     1      60.414  62.711  67.434  0.00  0.00    +0.000 A 
ATOM     15  C   UNL     1      60.147  62.970  68.170  0.00  0.00    +0.000 A 
ATOM     16  C   UNL     1      60.658  63.376  68.674  0.00  0.00    +0.000 A 
ATOM     17  C   UNL     1      61.436  63.524  68.443  0.00  0.00    +0.000 A 
ATOM     18  C   UNL     1      61.703  63.264  67.707  0.00  0.00    +0.000 A 
ATOM     19  C   UNL     1      61.192  62.858  67.202  0.00  0.00    +0.000 A 
ENDROOT
TORSDOF 0
ENDMDL
MODEL 3
REMARK VINA RESULT:    -9.672      1.163      2.044
REMARK INTER + INTRA:          -9.672
REMARK INTER:                  -9.672
REMARK INTRA:                   0.000
REMARK UNBOUND:                 0.000
ROOT
REMARK  Name = ketorolac
REMARK                            x       y       z     vdW  Elec       q    Type
REMARK                         _______ _______ _______ _____ _____    ______ ____
ATOM      1  O   UNL     1      58.649  62.134  67.153  0.00  0.00    +0.000 OA
ATOM      2  C   UNL     1      59.412  62.444  67.109  0.00  0.00    +0.000 C 
ATOM      3  O   UNL     1      59.688  62.948  67.700  0.00  0.00    +0.000 OA
ATOM      4  C   UNL     1      59.900  62.247  66.472  0.00  0.00    +0.000 C 
ATOM      5  C   UNL     1      59.701  61.752  65.844  0.00  0.00    +0.000 C 
ATOM      6  C   UNL     1      60.351  61.711  65.336  0.00  0.00    +0.000 C 
ATOM      7  N   UNL     1      60.952  62.181  65.652  0.00  0.00    +0.000 N 
ATOM      8  C   UNL     1      60.673  62.512  66.354  0.00  0.00    +0.000 A 
ATOM      9  C   UNL     1      61.273  62.982  66.670  0.00  0.00    +0.000 A 
ATOM     10  C   UNL     1      61.922  62.941  66.163  0.00  0.00    +0.000 A 
ATOM     11  C   UNL     1      61.723  62.445  65.533  0.00  0.00    +0.000 A 
ATOM     12  C   UNL     1      62.211  62.249  64.898  0.00  0.00    +0.000 C 
ATOM     13  O   UNL     1      62.975  62.558  64.853  0.00  0.00    +0.000 OA
ATOM     14  C   UNL     1      61.936  61.744  64.306  0.00  0.00    +0.000 A 
ATOM     15  C   UNL     1      62.423  61.548  63.671  0.00  0.00    +0.000 A 
ATOM     16  C   UNL     1      62.147  61.043  63.080  0.00  0.00    +0.000 A 
ATOM     17  C   UNL     1      61.384  60.734  63.124  0.00  0.00    +0.000 A 
ATOM     18  C   UNL     1      60.896  60.930  63.760  0.00  0.00    +0.000 A 
ATOM     19  C   UNL     1      61.172  61.435  64.351  0.00  0.00    +0.000 A 
ENDROOT
TORSDOF 0
ENDMDL
MODEL 4
REMARK VINA RESULT:    -9.602      2.807      5.367
REMARK INTER + INTRA:          -9.602
REMARK INTER:                  -9.602
REMARK INTRA:                   0.000
REMARK UNBOUND:                 0.000
ROOT
REMARK  Name = ketorolac
REMARK                            x       y       z     vdW  Elec       q    Type
REMARK                         _______ _______ _______ _____ _____    ______ ____
ATOM      1  O   UNL     1      60.242  61.841  67.626  0.00  0.00    +0.000 OA
ATOM      2  C   UNL     1      60.163  62.572  67.999  0.00  0.00    +0.000 C 
ATOM      3  O   UNL     1      59.864  63.218  67.583  0.00  0.00    +0.000 OA
ATOM      4  C   UNL     1      60.385  62.657  68.790  0.00  0.00    +0.000 C 
ATOM      5  C   UNL     1      60.692  62.064  69.274  0.00  0.00    +0.000 C 
ATOM      6  C   UNL     1      60.835  62.391  70.018  0.00  0.00    +0.000 C 
ATOM      7  N   UNL     1      60.617  63.186  69.994  0.00  0.00    +0.000 N 
ATOM      8  C   UNL     1      60.339  63.351  69.235  0.00  0.00    +0.000 A 
ATOM      9  C   UNL     1      60.121  64.146  69.210  0.00  0.00    +0.000 A 
ATOM     10  C   UNL     1      60.264  64.473  69.953  0.00  0.00    +0.000 A 
ATOM     11  C   UNL     1      60.571  63.879  70.438  0.00  0.00    +0.000 A 
ATOM     12  C   UNL     1      60.793  63.964  71.228  0.00  0.00    +0.000 C 
ATOM     13  O   UNL     1      60.715  64.696  71.602  0.00  0.00    +0.000 OA
ATOM     14  C   UNL     1      61.093  63.318  71.645  0.00  0.00    +0.000 A 
ATOM     15  C   UNL     1      61.314  63.404  72.434  0.00  0.00    +0.000 A 
ATOM     16  C   UNL     1      61.614  62.757  72.850  0.00  0.00    +0.000 A 
ATOM     17  C   UNL     1      61.692  62.026  72.477  0.00  0.00    +0.000 A 
ATOM     18  C   UNL     1      61.470  61.941  71.687  0.00  0.00    +0.000 A 
ATOM     19  C   UNL     1      61.171  62.587  71.270  0.00  0.00    +0.000 A 
ENDROOT
TORSDOF 0
ENDMDL
MODEL 5
REMARK VINA RESULT:    -9.372      5.448      6.827
REMARK INTER + INTRA:          -9.372
REMARK INTER:                  -9.372
REMARK INTRA:                   0.000
REMARK UNBOUND:                 0.000
ROOT
REMARK  Name = ketorolac
REMARK                            x       y       z     vdW  Elec       q    Type
REMARK                         _______ _______ _______ _____ _____    ______ ____
ATOM      1  O   UNL     1      61.628  64.890  72.821  0.00  0.00    +0.000 OA
ATOM      2  C   UNL     1      61.958  64.635  72.110  0.00  0.00    +0.000 C 
ATOM      3  O   UNL     1      61.657  63.968  71.730  0.00  0.00    +0.000 OA
ATOM      4  C   UNL     1      62.592  65.048  71.778  0.00  0.00    +0.000 C 
ATOM      5  C   UNL     1      62.949  65.721  72.094  0.00  0.00    +0.000 C 
ATOM      6  C   UNL     1      63.557  65.949  71.584  0.00  0.00    +0.000 C 
ATOM      7  N   UNL     1      63.574  65.417  70.953  0.00  0.00    +0.000 N 
ATOM      8  C   UNL     1      62.977  64.860  71.073  0.00  0.00    +0.000 A 
ATOM      9  C   UNL     1      62.994  64.328  70.443  0.00  0.00    +0.000 A 
ATOM     10  C   UNL     1      63.601  64.556  69.934  0.00  0.00    +0.000 A 
ATOM     11  C   UNL     1      63.959  65.230  70.249  0.00  0.00    +0.000 A 
ATOM     12  C   UNL     1      64.592  65.642  69.917  0.00  0.00    +0.000 C 
ATOM     13  O   UNL     1      64.923  65.388  69.206  0.00  0.00    +0.000 OA
ATOM     14  C   UNL     1      64.894  66.310  70.298  0.00  0.00    +0.000 A 
ATOM     15  C   UNL     1      65.527  66.722  69.966  0.00  0.00    +0.000 A 
ATOM     16  C   UNL     1      65.828  67.389  70.346  0.00  0.00    +0.000 A 
ATOM     17  C   UNL     1      65.497  67.644  71.058  0.00  0.00    +0.000 A 
ATOM     18  C   UNL     1      64.864  67.231  71.389  0.00  0.00    +0.000 A 
ATOM     19  C   UNL     1      64.563  66.564  71.009  0.00  0.00    +0.000 A 
ENDROOT
TORSDOF 0
ENDMDL
MODEL 6
REMARK VINA RESULT:    -9.353      4.072      5.217
REMARK INTER + INTRA:          -9.353
REMARK INTER:                  -9.353
REMARK INTRA:                   0.000
REMARK UNBOUND:                 0.000
ROOT
REMARK  Name = ketorolac
REMARK                            x       y       z     vdW  Elec       q    Type
REMARK                         _______ _______ _______ _____ _____    ______ ____
ATOM      1  O   UNL     1      59.568  66.935  69.019  0.00  0.00    +0.000 OA
ATOM      2  C   UNL     1      59.562  66.625  69.784  0.00  0.00    +0.000 C 
ATOM      3  O   UNL     1      59.393  67.115  70.426  0.00  0.00    +0.000 OA
ATOM      4  C   UNL     1      59.726  65.826  69.906  0.00  0.00    +0.000 C 
ATOM      5  C   UNL     1      59.904  65.272  69.321  0.00  0.00    +0.000 C 
ATOM      6  C   UNL     1      60.028  64.544  69.689  0.00  0.00    +0.000 C 
ATOM      7  N   UNL     1      59.927  64.648  70.501  0.00  0.00    +0.000 N 
ATOM      8  C   UNL     1      59.741  65.440  70.636  0.00  0.00    +0.000 A 
ATOM      9  C   UNL     1      59.640  65.544  71.447  0.00  0.00    +0.000 A 
ATOM     10  C   UNL     1      59.764  64.816  71.815  0.00  0.00    +0.000 A 
ATOM     11  C   UNL     1      59.942  64.262  71.230  0.00  0.00    +0.000 A 
ATOM     12  C   UNL     1      60.106  63.463  71.352  0.00  0.00    +0.000 C 
ATOM     13  O   UNL     1      60.100  63.153  72.117  0.00  0.00    +0.000 OA
ATOM     14  C   UNL     1      60.275  62.973  70.710  0.00  0.00    +0.000 A 
ATOM     15  C   UNL     1      60.439  62.174  70.833  0.00  0.00    +0.000 A 
ATOM     16  C   UNL     1      60.608  61.685  70.190  0.00  0.00    +0.000 A 
ATOM     17  C   UNL     1      60.613  61.994  69.426  0.00  0.00    +0.000 A 
ATOM     18  C   UNL     1      60.450  62.794  69.303  0.00  0.00    +0.000 A 
ATOM     19  C   UNL     1      60.280  63.283  69.945  0.00  0.00    +0.000 A 
ENDROOT
TORSDOF 0
ENDMDL
MODEL 7
REMARK VINA RESULT:    -9.353      4.847      6.935
REMARK INTER + INTRA:          -9.353
REMARK INTER:                  -9.353
REMARK INTRA:                   0.000
REMARK UNBOUND:                 0.000
ROOT
REMARK  Name = ketorolac
REMARK                            x       y       z     vdW  Elec       q    Type
REMARK                         _______ _______ _______ _____ _____    ______ ____
ATOM      1  O   UNL     1      62.382  63.861  68.918  0.00  0.00    +0.000 OA
ATOM      2  C   UNL     1      62.345  64.181  69.677  0.00  0.00    +0.000 C 
ATOM      3  O   UNL     1      61.751  63.943  70.198  0.00  0.00    +0.000 OA
ATOM      4  C   UNL     1      62.903  64.741  69.915  0.00  0.00    +0.000 C 
ATOM      5  C   UNL     1      63.525  65.030  69.458  0.00  0.00    +0.000 C 
ATOM      6  C   UNL     1      63.943  65.577  69.913  0.00  0.00    +0.000 C 
ATOM      7  N   UNL     1      63.580  65.625  70.652  0.00  0.00    +0.000 N 
ATOM      8  C   UNL     1      62.937  65.108  70.654  0.00  0.00    +0.000 A 
ATOM      9  C   UNL     1      62.573  65.156  71.392  0.00  0.00    +0.000 A 
ATOM     10  C   UNL     1      62.991  65.702  71.847  0.00  0.00    +0.000 A 
ATOM     11  C   UNL     1      63.613  65.992  71.389  0.00  0.00    +0.000 A 
ATOM     12  C   UNL     1      64.171  66.551  71.628  0.00  0.00    +0.000 C 
ATOM     13  O   UNL     1      64.135  66.873  72.387  0.00  0.00    +0.000 OA
ATOM     14  C   UNL     1      64.765  66.790  71.107  0.00  0.00    +0.000 A 
ATOM     15  C   UNL     1      65.323  67.349  71.346  0.00  0.00    +0.000 A 
ATOM     16  C   UNL     1      65.916  67.587  70.825  0.00  0.00    +0.000 A 
ATOM     17  C   UNL     1      65.953  67.266  70.066  0.00  0.00    +0.000 A 
ATOM     18  C   UNL     1      65.395  66.707  69.827  0.00  0.00    +0.000 A 
ATOM     19  C   UNL     1      64.801  66.469  70.348  0.00  0.00    +0.000 A 
ENDROOT
TORSDOF 0
ENDMDL
MODEL 8
REMARK VINA RESULT:    -9.151      2.794      4.398
REMARK INTER + INTRA:          -9.151
REMARK INTER:                  -9.151
REMARK INTRA:                   0.000
REMARK UNBOUND:                 0.000
ROOT
REMARK  Name = ketorolac
REMARK                            x       y       z     vdW  Elec       q    Type
REMARK                         _______ _______ _______ _____ _____    ______ ____
ATOM      1  O   UNL     1      61.524  62.705  72.934  0.00  0.00    +0.000 OA
ATOM      2  C   UNL     1      61.238  63.356  72.516  0.00  0.00    +0.000 C 
ATOM      3  O   UNL     1      61.148  64.083  72.896  0.00  0.00    +0.000 OA
ATOM      4  C   UNL     1      61.043  63.281  71.718  0.00  0.00    +0.000 C 
ATOM      5  C   UNL     1      61.104  62.593  71.267  0.00  0.00    +0.000 C 
ATOM      6  C   UNL     1      60.851  62.767  70.501  0.00  0.00    +0.000 C 
ATOM      7  N   UNL     1      60.633  63.563  70.479  0.00  0.00    +0.000 N 
ATOM      8  C   UNL     1      60.752  63.881  71.231  0.00  0.00    +0.000 A 
ATOM      9  C   UNL     1      60.535  64.676  71.209  0.00  0.00    +0.000 A 
ATOM     10  C   UNL     1      60.282  64.850  70.444  0.00  0.00    +0.000 A 
ATOM     11  C   UNL     1      60.343  64.162  69.992  0.00  0.00    +0.000 A 
ATOM     12  C   UNL     1      60.148  64.087  69.195  0.00  0.00    +0.000 C 
ATOM     13  O   UNL     1      59.862  64.738  68.776  0.00  0.00    +0.000 OA
ATOM     14  C   UNL     1      60.238  63.360  68.814  0.00  0.00    +0.000 A 
ATOM     15  C   UNL     1      60.043  63.285  68.017  0.00  0.00    +0.000 A 
ATOM     16  C   UNL     1      60.133  62.559  67.637  0.00  0.00    +0.000 A 
ATOM     17  C   UNL     1      60.419  61.907  68.054  0.00  0.00    +0.000 A 
ATOM     18  C   UNL     1      60.614  61.982  68.852  0.00  0.00    +0.000 A 
ATOM     19  C   UNL     1      60.524  62.709  69.232  0.00  0.00    +0.000 A 
ENDROOT
TORSDOF 0
ENDMDL
MODEL 9
REMARK VINA RESULT:    -8.653      2.645      4.975
REMARK INTER + INTRA:          -8.653
REMARK INTER:                  -8.653
REMARK INTRA:                   0.000
REMARK UNBOUND:                 0.000
ROOT
REMARK  Name = ketorolac
REMARK                            x       y       z     vdW  Elec       q    Type
REMARK                         _______ _______ _______ _____ _____    ______ ____
ATOM      1  O   UNL     1      60.729  62.642  67.147  0.00  0.00    +0.000 OA
ATOM      2  C   UNL     1      60.645  62.484  67.952  0.00  0.00    +0.000 C 
ATOM      3  O   UNL     1      60.124  61.896  68.205  0.00  0.00    +0.000 OA
ATOM      4  C   UNL     1      61.081  62.914  68.505  0.00  0.00    +0.000 C 
ATOM      5  C   UNL     1      61.620  63.515  68.335  0.00  0.00    +0.000 C 
ATOM      6  C   UNL     1      61.927  63.792  69.049  0.00  0.00    +0.000 C 
ATOM      7  N   UNL     1      61.578  63.361  69.661  0.00  0.00    +0.000 N 
ATOM      8  C   UNL     1      61.055  62.819  69.324  0.00  0.00    +0.000 A 
ATOM      9  C   UNL     1      60.707  62.388  69.935  0.00  0.00    +0.000 A 
ATOM     10  C   UNL     1      61.013  62.664  70.649  0.00  0.00    +0.000 A 
ATOM     11  C   UNL     1      61.553  63.266  70.479  0.00  0.00    +0.000 A 
ATOM     12  C   UNL     1      61.989  63.696  71.031  0.00  0.00    +0.000 C 
ATOM     13  O   UNL     1      61.905  63.538  71.837  0.00  0.00    +0.000 OA
ATOM     14  C   UNL     1      62.509  64.284  70.779  0.00  0.00    +0.000 A 
ATOM     15  C   UNL     1      62.945  64.714  71.331  0.00  0.00    +0.000 A 
ATOM     16  C   UNL     1      63.466  65.302  71.078  0.00  0.00    +0.000 A 
ATOM     17  C   UNL     1      63.550  65.460  70.272  0.00  0.00    +0.000 A 
ATOM     18  C   UNL     1      63.114  65.030  69.720  0.00  0.00    +0.000 A 
ATOM     19  C   UNL     1      62.593  64.442  69.973  0.00  0.00    +0.000 A 
ENDROOT
TORSDOF 0
ENDMDL
