MODEL 1
REMARK VINA RESULT:    -3.795      0.000      0.000
REMARK INTER + INTRA:          -3.795
REMARK INTER:                  -3.795
REMARK INTRA:                   0.000
REMARK UNBOUND:                 0.000
ROOT
REMARK  Name = lactic acid
REMARK                            x       y       z     vdW  Elec       q    Type
REMARK                         _______ _______ _______ _____ _____    ______ ____
ATOM      1  C   UNL     1      62.338  62.067  64.852  0.00  0.00    +0.000 C 
ATOM      2  C   UNL     1      62.036  61.692  64.181  0.00  0.00    +0.000 C 
ATOM      3  O   UNL     1      62.497  61.630  63.501  0.00  0.00    +0.000 OA
ATOM      4  C   UNL     1      61.272  61.379  64.193  0.00  0.00    +0.000 C 
ATOM      5  O   UNL     1      60.970  61.004  63.522  0.00  0.00    +0.000 OA
ATOM      6  O   UNL     1      60.811  61.442  64.874  0.00  0.00    +0.000 OA
ENDROOT
TORSDOF 0
ENDMDL
MODEL 2
REMARK VINA RESULT:    -3.671      0.872      1.471
REMARK INTER + INTRA:          -3.671
REMARK INTER:                  -3.671
REMARK INTRA:                   0.000
REMARK UNBOUND:                 0.000
ROOT
REMARK  Name = lactic acid
REMARK                            x       y       z     vdW  Elec       q    Type
REMARK                         _______ _______ _______ _____ _____    ______ ____
ATOM      1  C   UNL     1      60.969  61.650  65.240  0.00  0.00    +0.000 C 
ATOM      2  C   UNL     1      61.369  61.550  64.526  0.00  0.00    +0.000 C 
ATOM      3  O   UNL     1      61.014  61.135  63.909  0.00  0.00    +0.000 OA
ATOM      4  C   UNL     1      62.125  61.866  64.429  0.00  0.00    +0.000 C 
ATOM      5  O   UNL     1      62.526  61.767  63.714  0.00  0.00    +0.000 OA
ATOM      6  O   UNL     1      62.481  62.282  65.047  0.00  0.00    +0.000 OA
ENDROOT
TORSDOF 0
ENDMDL
MODEL 3
REMARK VINA RESULT:    -3.587     17.038     17.543
REMARK INTER + INTRA:          -3.587
REMARK INTER:                  -3.587
REMARK INTRA:                   0.000
REMARK UNBOUND:                 0.000
ROOT
REMARK  Name = lactic acid
REMARK                            x       y       z     vdW  Elec       q    Type
REMARK                         _______ _______ _______ _____ _____    ______ ____
ATOM      1  C   UNL     1      65.846  77.066  60.353  0.00  0.00    +0.000 C 
ATOM      2  C   UNL     1      66.159  77.411  59.672  0.00  0.00    +0.000 C 
ATOM      3  O   UNL     1      66.070  77.037  58.943  0.00  0.00    +0.000 OA
ATOM      4  C   UNL     1      66.560  78.131  59.721  0.00  0.00    +0.000 C 
ATOM      5  O   UNL     1      66.874  78.476  59.040  0.00  0.00    +0.000 OA
ATOM      6  O   UNL     1      66.649  78.505  60.451  0.00  0.00    +0.000 OA
ENDROOT
TORSDOF 0
ENDMDL
MODEL 4
REMARK VINA RESULT:    -3.162     16.639     17.187
REMARK INTER + INTRA:          -3.162
REMARK INTER:                  -3.162
REMARK INTRA:                   0.000
REMARK UNBOUND:                 0.000
ROOT
REMARK  Name = lactic acid
REMARK                            x       y       z     vdW  Elec       q    Type
REMARK                         _______ _______ _______ _____ _____    ______ ____
ATOM      1  C   UNL     1      57.431  75.597  72.446  0.00  0.00    +0.000 C 
ATOM      2  C   UNL     1      58.000  76.165  72.632  0.00  0.00    +0.000 C 
ATOM      3  O   UNL     1      57.777  76.867  73.002  0.00  0.00    +0.000 OA
ATOM      4  C   UNL     1      58.793  76.030  72.447  0.00  0.00    +0.000 C 
ATOM      5  O   UNL     1      59.363  76.597  72.634  0.00  0.00    +0.000 OA
ATOM      6  O   UNL     1      59.017  75.327  72.077  0.00  0.00    +0.000 OA
ENDROOT
TORSDOF 0
ENDMDL
MODEL 5
REMARK VINA RESULT:    -3.099      9.532      9.951
REMARK INTER + INTRA:          -3.099
REMARK INTER:                  -3.099
REMARK INTRA:                   0.000
REMARK UNBOUND:                 0.000
ROOT
REMARK  Name = lactic acid
REMARK                            x       y       z     vdW  Elec       q    Type
REMARK                         _______ _______ _______ _____ _____    ______ ____
ATOM      1  C   UNL     1      66.068  67.621  70.185  0.00  0.00    +0.000 C 
ATOM      2  C   UNL     1      66.292  67.256  70.890  0.00  0.00    +0.000 C 
ATOM      3  O   UNL     1      67.083  67.249  71.118  0.00  0.00    +0.000 OA
ATOM      4  C   UNL     1      65.721  66.898  71.368  0.00  0.00    +0.000 C 
ATOM      5  O   UNL     1      65.944  66.533  72.074  0.00  0.00    +0.000 OA
ATOM      6  O   UNL     1      64.928  66.905  71.139  0.00  0.00    +0.000 OA
ENDROOT
TORSDOF 0
ENDMDL
MODEL 6
REMARK VINA RESULT:    -3.048     24.382     24.932
REMARK INTER + INTRA:          -3.048
REMARK INTER:                  -3.048
REMARK INTRA:                   0.000
REMARK UNBOUND:                 0.000
ROOT
REMARK  Name = lactic acid
REMARK                            x       y       z     vdW  Elec       q    Type
REMARK                         _______ _______ _______ _____ _____    ______ ____
ATOM      1  C   UNL     1      70.242  78.886  49.651  0.00  0.00    +0.000 C 
ATOM      2  C   UNL     1      70.812  78.556  49.155  0.00  0.00    +0.000 C 
ATOM      3  O   UNL     1      71.000  77.756  49.218  0.00  0.00    +0.000 OA
ATOM      4  C   UNL     1      71.194  79.027  48.595  0.00  0.00    +0.000 C 
ATOM      5  O   UNL     1      71.764  78.696  48.098  0.00  0.00    +0.000 OA
ATOM      6  O   UNL     1      71.006  79.827  48.531  0.00  0.00    +0.000 OA
ENDROOT
TORSDOF 0
ENDMDL
MODEL 7
REMARK VINA RESULT:    -2.795     10.771     11.182
REMARK INTER + INTRA:          -2.795
REMARK INTER:                  -2.795
REMARK INTRA:                   0.000
REMARK UNBOUND:                 0.000
ROOT
REMARK  Name = lactic acid
REMARK                            x       y       z     vdW  Elec       q    Type
REMARK                         _______ _______ _______ _____ _____    ______ ____
ATOM      1  C   UNL     1      63.173  68.476  54.275  0.00  0.00    +0.000 C 
ATOM      2  C   UNL     1      63.203  67.939  54.901  0.00  0.00    +0.000 C 
ATOM      3  O   UNL     1      63.641  67.245  54.829  0.00  0.00    +0.000 OA
ATOM      4  C   UNL     1      62.793  68.098  55.599  0.00  0.00    +0.000 C 
ATOM      5  O   UNL     1      62.822  67.561  56.226  0.00  0.00    +0.000 OA
ATOM      6  O   UNL     1      62.354  68.793  55.671  0.00  0.00    +0.000 OA
ENDROOT
TORSDOF 0
ENDMDL
MODEL 8
REMARK VINA RESULT:    -2.717     10.582     11.080
REMARK INTER + INTRA:          -2.717
REMARK INTER:                  -2.717
REMARK INTRA:                   0.000
REMARK UNBOUND:                 0.000
ROOT
REMARK  Name = lactic acid
REMARK                            x       y       z     vdW  Elec       q    Type
REMARK                         _______ _______ _______ _____ _____    ______ ____
ATOM      1  C   UNL     1      63.994  61.670  54.042  0.00  0.00    +0.000 C 
ATOM      2  C   UNL     1      63.928  60.871  53.847  0.00  0.00    +0.000 C 
ATOM      3  O   UNL     1      63.506  60.360  54.337  0.00  0.00    +0.000 OA
ATOM      4  C   UNL     1      64.286  60.583  53.161  0.00  0.00    +0.000 C 
ATOM      5  O   UNL     1      64.221  59.784  52.965  0.00  0.00    +0.000 OA
ATOM      6  O   UNL     1      64.708  61.095  52.670  0.00  0.00    +0.000 OA
ENDROOT
TORSDOF 0
ENDMDL
MODEL 9
REMARK VINA RESULT:    -2.679     10.380     10.634
REMARK INTER + INTRA:          -2.679
REMARK INTER:                  -2.679
REMARK INTRA:                   0.000
REMARK UNBOUND:                 0.000
ROOT
REMARK  Name = lactic acid
REMARK                            x       y       z     vdW  Elec       q    Type
REMARK                         _______ _______ _______ _____ _____    ______ ____
ATOM      1  C   UNL     1      63.852  63.520  53.738  0.00  0.00    +0.000 C 
ATOM      2  C   UNL     1      63.823  62.731  53.978  0.00  0.00    +0.000 C 
ATOM      3  O   UNL     1      63.098  62.374  54.137  0.00  0.00    +0.000 OA
ATOM      4  C   UNL     1      64.522  62.300  54.058  0.00  0.00    +0.000 C 
ATOM      5  O   UNL     1      64.495  61.510  54.298  0.00  0.00    +0.000 OA
ATOM      6  O   UNL     1      65.249  62.657  53.898  0.00  0.00    +0.000 OA
ENDROOT
TORSDOF 0
ENDMDL
