MODEL 1
REMARK VINA RESULT:    -9.545      0.000      0.000
REMARK INTER + INTRA:          -9.545
REMARK INTER:                  -9.545
REMARK INTRA:                   0.000
REMARK UNBOUND:                 0.000
ROOT
REMARK  Name = lactose
REMARK                            x       y       z     vdW  Elec       q    Type
REMARK                         _______ _______ _______ _____ _____    ______ ____
ATOM      1  O   UNL     1      59.562  66.818  69.090  0.00  0.00    +0.000 OA
ATOM      2  C   UNL     1      59.747  66.014  69.099  0.00  0.00    +0.000 C 
ATOM      3  C   UNL     1      59.733  65.596  69.811  0.00  0.00    +0.000 C 
ATOM      4  O   UNL     1      59.918  64.792  69.820  0.00  0.00    +0.000 OA
ATOM      5  C   UNL     1      59.904  64.374  70.531  0.00  0.00    +0.000 C 
ATOM      6  O   UNL     1      60.088  63.569  70.541  0.00  0.00    +0.000 OA
ATOM      7  C   UNL     1      60.287  63.184  69.839  0.00  0.00    +0.000 C 
ATOM      8  C   UNL     1      60.301  63.602  69.128  0.00  0.00    +0.000 C 
ATOM      9  O   UNL     1      60.116  64.405  69.118  0.00  0.00    +0.000 OA
ATOM     10  C   UNL     1      60.499  63.216  68.427  0.00  0.00    +0.000 C 
ATOM     11  O   UNL     1      60.513  63.635  67.715  0.00  0.00    +0.000 OA
ATOM     12  C   UNL     1      60.684  62.412  68.436  0.00  0.00    +0.000 C 
ATOM     13  O   UNL     1      60.883  62.026  67.735  0.00  0.00    +0.000 OA
ATOM     14  O   UNL     1      60.670  61.994  69.147  0.00  0.00    +0.000 OA
ATOM     15  C   UNL     1      60.472  62.380  69.849  0.00  0.00    +0.000 C 
ATOM     16  C   UNL     1      60.458  61.962  70.559  0.00  0.00    +0.000 C 
ATOM     17  O   UNL     1      60.259  62.347  71.261  0.00  0.00    +0.000 OA
ATOM     18  C   UNL     1      59.705  64.760  71.233  0.00  0.00    +0.000 C 
ATOM     19  O   UNL     1      59.691  64.342  71.943  0.00  0.00    +0.000 OA
ATOM     20  C   UNL     1      59.520  65.563  71.223  0.00  0.00    +0.000 C 
ATOM     21  O   UNL     1      59.322  65.949  71.925  0.00  0.00    +0.000 OA
ATOM     22  C   UNL     1      59.534  65.982  70.512  0.00  0.00    +0.000 C 
ATOM     23  O   UNL     1      59.349  66.785  70.503  0.00  0.00    +0.000 OA
ENDROOT
TORSDOF 0
ENDMDL
MODEL 2
REMARK VINA RESULT:    -9.425      0.654      3.399
REMARK INTER + INTRA:          -9.425
REMARK INTER:                  -9.425
REMARK INTRA:                   0.000
REMARK UNBOUND:                 0.000
ROOT
REMARK  Name = lactose
REMARK                            x       y       z     vdW  Elec       q    Type
REMARK                         _______ _______ _______ _____ _____    ______ ____
ATOM      1  O   UNL     1      60.850  62.869  67.965  0.00  0.00    +0.000 OA
ATOM      2  C   UNL     1      60.597  63.459  68.483  0.00  0.00    +0.000 C 
ATOM      3  C   UNL     1      60.462  63.281  69.278  0.00  0.00    +0.000 C 
ATOM      4  O   UNL     1      60.208  63.872  69.795  0.00  0.00    +0.000 OA
ATOM      5  C   UNL     1      60.073  63.694  70.589  0.00  0.00    +0.000 C 
ATOM      6  O   UNL     1      59.820  64.284  71.108  0.00  0.00    +0.000 OA
ATOM      7  C   UNL     1      59.701  65.052  70.831  0.00  0.00    +0.000 C 
ATOM      8  C   UNL     1      59.836  65.230  70.036  0.00  0.00    +0.000 C 
ATOM      9  O   UNL     1      60.089  64.640  69.519  0.00  0.00    +0.000 OA
ATOM     10  C   UNL     1      59.717  65.998  69.760  0.00  0.00    +0.000 C 
ATOM     11  O   UNL     1      59.852  66.176  68.965  0.00  0.00    +0.000 OA
ATOM     12  C   UNL     1      59.464  66.589  70.278  0.00  0.00    +0.000 C 
ATOM     13  O   UNL     1      59.345  67.356  70.002  0.00  0.00    +0.000 OA
ATOM     14  O   UNL     1      59.329  66.410  71.072  0.00  0.00    +0.000 OA
ATOM     15  C   UNL     1      59.448  65.642  71.349  0.00  0.00    +0.000 C 
ATOM     16  C   UNL     1      59.313  65.464  72.142  0.00  0.00    +0.000 C 
ATOM     17  O   UNL     1      59.431  64.696  72.419  0.00  0.00    +0.000 OA
ATOM     18  C   UNL     1      60.192  62.925  70.866  0.00  0.00    +0.000 C 
ATOM     19  O   UNL     1      60.057  62.747  71.659  0.00  0.00    +0.000 OA
ATOM     20  C   UNL     1      60.445  62.335  70.348  0.00  0.00    +0.000 C 
ATOM     21  O   UNL     1      60.564  61.567  70.625  0.00  0.00    +0.000 OA
ATOM     22  C   UNL     1      60.580  62.513  69.554  0.00  0.00    +0.000 C 
ATOM     23  O   UNL     1      60.834  61.923  69.037  0.00  0.00    +0.000 OA
ENDROOT
TORSDOF 0
ENDMDL
MODEL 3
REMARK VINA RESULT:    -9.392      2.175      3.572
REMARK INTER + INTRA:          -9.392
REMARK INTER:                  -9.392
REMARK INTRA:                   0.000
REMARK UNBOUND:                 0.000
ROOT
REMARK  Name = lactose
REMARK                            x       y       z     vdW  Elec       q    Type
REMARK                         _______ _______ _______ _____ _____    ______ ____
ATOM      1  O   UNL     1      61.475  63.366  67.426  0.00  0.00    +0.000 OA
ATOM      2  C   UNL     1      61.637  63.568  68.208  0.00  0.00    +0.000 C 
ATOM      3  C   UNL     1      61.321  63.119  68.825  0.00  0.00    +0.000 C 
ATOM      4  O   UNL     1      61.483  63.323  69.608  0.00  0.00    +0.000 OA
ATOM      5  C   UNL     1      61.167  62.874  70.224  0.00  0.00    +0.000 C 
ATOM      6  O   UNL     1      61.329  63.077  71.008  0.00  0.00    +0.000 OA
ATOM      7  C   UNL     1      61.808  63.728  71.174  0.00  0.00    +0.000 C 
ATOM      8  C   UNL     1      62.124  64.176  70.558  0.00  0.00    +0.000 C 
ATOM      9  O   UNL     1      61.962  63.974  69.776  0.00  0.00    +0.000 OA
ATOM     10  C   UNL     1      62.602  64.827  70.725  0.00  0.00    +0.000 C 
ATOM     11  O   UNL     1      62.919  65.276  70.109  0.00  0.00    +0.000 OA
ATOM     12  C   UNL     1      62.765  65.030  71.509  0.00  0.00    +0.000 C 
ATOM     13  O   UNL     1      63.243  65.680  71.676  0.00  0.00    +0.000 OA
ATOM     14  O   UNL     1      62.449  64.581  72.125  0.00  0.00    +0.000 OA
ATOM     15  C   UNL     1      61.970  63.930  71.958  0.00  0.00    +0.000 C 
ATOM     16  C   UNL     1      61.654  63.482  72.573  0.00  0.00    +0.000 C 
ATOM     17  O   UNL     1      61.175  62.831  72.407  0.00  0.00    +0.000 OA
ATOM     18  C   UNL     1      60.688  62.223  70.057  0.00  0.00    +0.000 C 
ATOM     19  O   UNL     1      60.372  61.775  70.673  0.00  0.00    +0.000 OA
ATOM     20  C   UNL     1      60.526  62.021  69.274  0.00  0.00    +0.000 C 
ATOM     21  O   UNL     1      60.048  61.370  69.108  0.00  0.00    +0.000 OA
ATOM     22  C   UNL     1      60.843  62.469  68.658  0.00  0.00    +0.000 C 
ATOM     23  O   UNL     1      60.680  62.267  67.876  0.00  0.00    +0.000 OA
ENDROOT
TORSDOF 0
ENDMDL
MODEL 4
REMARK VINA RESULT:    -9.290      0.766      2.259
REMARK INTER + INTRA:          -9.290
REMARK INTER:                  -9.290
REMARK INTRA:                   0.000
REMARK UNBOUND:                 0.000
ROOT
REMARK  Name = lactose
REMARK                            x       y       z     vdW  Elec       q    Type
REMARK                         _______ _______ _______ _____ _____    ______ ____
ATOM      1  O   UNL     1      59.003  66.096  72.544  0.00  0.00    +0.000 OA
ATOM      2  C   UNL     1      59.276  65.487  72.060  0.00  0.00    +0.000 C 
ATOM      3  C   UNL     1      59.451  65.637  71.267  0.00  0.00    +0.000 C 
ATOM      4  O   UNL     1      59.725  65.027  70.783  0.00  0.00    +0.000 OA
ATOM      5  C   UNL     1      59.900  65.177  69.991  0.00  0.00    +0.000 C 
ATOM      6  O   UNL     1      60.173  64.567  69.506  0.00  0.00    +0.000 OA
ATOM      7  C   UNL     1      60.271  63.808  69.814  0.00  0.00    +0.000 C 
ATOM      8  C   UNL     1      60.095  63.658  70.606  0.00  0.00    +0.000 C 
ATOM      9  O   UNL     1      59.822  64.267  71.090  0.00  0.00    +0.000 OA
ATOM     10  C   UNL     1      60.193  62.899  70.914  0.00  0.00    +0.000 C 
ATOM     11  O   UNL     1      60.017  62.749  71.707  0.00  0.00    +0.000 OA
ATOM     12  C   UNL     1      60.466  62.289  70.430  0.00  0.00    +0.000 C 
ATOM     13  O   UNL     1      60.563  61.531  70.737  0.00  0.00    +0.000 OA
ATOM     14  O   UNL     1      60.641  62.439  69.638  0.00  0.00    +0.000 OA
ATOM     15  C   UNL     1      60.544  63.199  69.330  0.00  0.00    +0.000 C 
ATOM     16  C   UNL     1      60.719  63.349  68.538  0.00  0.00    +0.000 C 
ATOM     17  O   UNL     1      60.622  64.107  68.230  0.00  0.00    +0.000 OA
ATOM     18  C   UNL     1      59.803  65.937  69.683  0.00  0.00    +0.000 C 
ATOM     19  O   UNL     1      59.978  66.086  68.892  0.00  0.00    +0.000 OA
ATOM     20  C   UNL     1      59.530  66.545  70.168  0.00  0.00    +0.000 C 
ATOM     21  O   UNL     1      59.432  67.304  69.860  0.00  0.00    +0.000 OA
ATOM     22  C   UNL     1      59.354  66.396  70.960  0.00  0.00    +0.000 C 
ATOM     23  O   UNL     1      59.081  67.005  71.444  0.00  0.00    +0.000 OA
ENDROOT
TORSDOF 0
ENDMDL
MODEL 5
REMARK VINA RESULT:    -9.119      4.015      5.540
REMARK INTER + INTRA:          -9.119
REMARK INTER:                  -9.119
REMARK INTRA:                   0.000
REMARK UNBOUND:                 0.000
ROOT
REMARK  Name = lactose
REMARK                            x       y       z     vdW  Elec       q    Type
REMARK                         _______ _______ _______ _____ _____    ______ ____
ATOM      1  O   UNL     1      63.542  64.196  70.318  0.00  0.00    +0.000 OA
ATOM      2  C   UNL     1      63.177  64.763  70.792  0.00  0.00    +0.000 C 
ATOM      3  C   UNL     1      63.596  65.432  71.033  0.00  0.00    +0.000 C 
ATOM      4  O   UNL     1      63.230  65.999  71.508  0.00  0.00    +0.000 OA
ATOM      5  C   UNL     1      63.649  66.668  71.748  0.00  0.00    +0.000 C 
ATOM      6  O   UNL     1      63.284  67.236  72.223  0.00  0.00    +0.000 OA
ATOM      7  C   UNL     1      62.499  67.134  72.458  0.00  0.00    +0.000 C 
ATOM      8  C   UNL     1      62.080  66.465  72.217  0.00  0.00    +0.000 C 
ATOM      9  O   UNL     1      62.445  65.898  71.743  0.00  0.00    +0.000 OA
ATOM     10  C   UNL     1      61.296  66.364  72.452  0.00  0.00    +0.000 C 
ATOM     11  O   UNL     1      60.877  65.694  72.211  0.00  0.00    +0.000 OA
ATOM     12  C   UNL     1      60.930  66.930  72.927  0.00  0.00    +0.000 C 
ATOM     13  O   UNL     1      60.147  66.829  73.161  0.00  0.00    +0.000 OA
ATOM     14  O   UNL     1      61.350  67.599  73.167  0.00  0.00    +0.000 OA
ATOM     15  C   UNL     1      62.135  67.701  72.932  0.00  0.00    +0.000 C 
ATOM     16  C   UNL     1      62.553  68.369  73.172  0.00  0.00    +0.000 C 
ATOM     17  O   UNL     1      63.337  68.471  72.938  0.00  0.00    +0.000 OA
ATOM     18  C   UNL     1      64.434  66.770  71.514  0.00  0.00    +0.000 C 
ATOM     19  O   UNL     1      64.853  67.438  71.754  0.00  0.00    +0.000 OA
ATOM     20  C   UNL     1      64.799  66.202  71.039  0.00  0.00    +0.000 C 
ATOM     21  O   UNL     1      65.583  66.305  70.805  0.00  0.00    +0.000 OA
ATOM     22  C   UNL     1      64.380  65.534  70.799  0.00  0.00    +0.000 C 
ATOM     23  O   UNL     1      64.745  64.967  70.324  0.00  0.00    +0.000 OA
ENDROOT
TORSDOF 0
ENDMDL
MODEL 6
REMARK VINA RESULT:    -9.093      3.512      5.180
REMARK INTER + INTRA:          -9.093
REMARK INTER:                  -9.093
REMARK INTRA:                   0.000
REMARK UNBOUND:                 0.000
ROOT
REMARK  Name = lactose
REMARK                            x       y       z     vdW  Elec       q    Type
REMARK                         _______ _______ _______ _____ _____    ______ ____
ATOM      1  O   UNL     1      64.728  64.931  70.354  0.00  0.00    +0.000 OA
ATOM      2  C   UNL     1      64.264  65.437  70.810  0.00  0.00    +0.000 C 
ATOM      3  C   UNL     1      63.479  65.239  70.976  0.00  0.00    +0.000 C 
ATOM      4  O   UNL     1      63.014  65.747  71.432  0.00  0.00    +0.000 OA
ATOM      5  C   UNL     1      62.230  65.549  71.598  0.00  0.00    +0.000 C 
ATOM      6  O   UNL     1      61.765  66.056  72.054  0.00  0.00    +0.000 OA
ATOM      7  C   UNL     1      62.084  66.760  72.343  0.00  0.00    +0.000 C 
ATOM      8  C   UNL     1      62.867  66.957  72.177  0.00  0.00    +0.000 C 
ATOM      9  O   UNL     1      63.332  66.451  71.722  0.00  0.00    +0.000 OA
ATOM     10  C   UNL     1      63.186  67.660  72.466  0.00  0.00    +0.000 C 
ATOM     11  O   UNL     1      63.970  67.858  72.300  0.00  0.00    +0.000 OA
ATOM     12  C   UNL     1      62.721  68.167  72.922  0.00  0.00    +0.000 C 
ATOM     13  O   UNL     1      63.039  68.871  73.212  0.00  0.00    +0.000 OA
ATOM     14  O   UNL     1      61.937  67.970  73.088  0.00  0.00    +0.000 OA
ATOM     15  C   UNL     1      61.618  67.266  72.799  0.00  0.00    +0.000 C 
ATOM     16  C   UNL     1      60.835  67.069  72.964  0.00  0.00    +0.000 C 
ATOM     17  O   UNL     1      60.516  66.365  72.675  0.00  0.00    +0.000 OA
ATOM     18  C   UNL     1      61.912  64.845  71.308  0.00  0.00    +0.000 C 
ATOM     19  O   UNL     1      61.129  64.648  71.474  0.00  0.00    +0.000 OA
ATOM     20  C   UNL     1      62.377  64.339  70.852  0.00  0.00    +0.000 C 
ATOM     21  O   UNL     1      62.058  63.635  70.563  0.00  0.00    +0.000 OA
ATOM     22  C   UNL     1      63.161  64.536  70.686  0.00  0.00    +0.000 C 
ATOM     23  O   UNL     1      63.625  64.030  70.231  0.00  0.00    +0.000 OA
ENDROOT
TORSDOF 0
ENDMDL
MODEL 7
REMARK VINA RESULT:    -9.063      2.023      2.098
REMARK INTER + INTRA:          -9.063
REMARK INTER:                  -9.063
REMARK INTRA:                   0.000
REMARK UNBOUND:                 0.000
ROOT
REMARK  Name = lactose
REMARK                            x       y       z     vdW  Elec       q    Type
REMARK                         _______ _______ _______ _____ _____    ______ ____
ATOM      1  O   UNL     1      63.146  66.196  69.534  0.00  0.00    +0.000 OA
ATOM      2  C   UNL     1      62.707  65.501  69.471  0.00  0.00    +0.000 C 
ATOM      3  C   UNL     1      62.455  65.109  70.153  0.00  0.00    +0.000 C 
ATOM      4  O   UNL     1      62.017  64.413  70.090  0.00  0.00    +0.000 OA
ATOM      5  C   UNL     1      61.765  64.021  70.771  0.00  0.00    +0.000 C 
ATOM      6  O   UNL     1      61.326  63.324  70.709  0.00  0.00    +0.000 OA
ATOM      7  C   UNL     1      61.140  63.021  69.965  0.00  0.00    +0.000 C 
ATOM      8  C   UNL     1      61.391  63.412  69.284  0.00  0.00    +0.000 C 
ATOM      9  O   UNL     1      61.830  64.108  69.346  0.00  0.00    +0.000 OA
ATOM     10  C   UNL     1      61.205  63.108  68.541  0.00  0.00    +0.000 C 
ATOM     11  O   UNL     1      61.457  63.500  67.859  0.00  0.00    +0.000 OA
ATOM     12  C   UNL     1      60.766  62.412  68.477  0.00  0.00    +0.000 C 
ATOM     13  O   UNL     1      60.579  62.108  67.734  0.00  0.00    +0.000 OA
ATOM     14  O   UNL     1      60.514  62.020  69.158  0.00  0.00    +0.000 OA
ATOM     15  C   UNL     1      60.701  62.325  69.903  0.00  0.00    +0.000 C 
ATOM     16  C   UNL     1      60.450  61.933  70.583  0.00  0.00    +0.000 C 
ATOM     17  O   UNL     1      60.637  62.237  71.327  0.00  0.00    +0.000 OA
ATOM     18  C   UNL     1      61.952  64.325  71.515  0.00  0.00    +0.000 C 
ATOM     19  O   UNL     1      61.701  63.934  72.196  0.00  0.00    +0.000 OA
ATOM     20  C   UNL     1      62.391  65.021  71.577  0.00  0.00    +0.000 C 
ATOM     21  O   UNL     1      62.577  65.325  72.321  0.00  0.00    +0.000 OA
ATOM     22  C   UNL     1      62.642  65.413  70.896  0.00  0.00    +0.000 C 
ATOM     23  O   UNL     1      63.080  66.108  70.959  0.00  0.00    +0.000 OA
ENDROOT
TORSDOF 0
ENDMDL
MODEL 8
REMARK VINA RESULT:    -9.010      0.746      3.967
REMARK INTER + INTRA:          -9.010
REMARK INTER:                  -9.010
REMARK INTRA:                   0.000
REMARK UNBOUND:                 0.000
ROOT
REMARK  Name = lactose
REMARK                            x       y       z     vdW  Elec       q    Type
REMARK                         _______ _______ _______ _____ _____    ______ ____
ATOM      1  O   UNL     1      60.639  61.612  70.101  0.00  0.00    +0.000 OA
ATOM      2  C   UNL     1      60.392  62.361  70.339  0.00  0.00    +0.000 C 
ATOM      3  C   UNL     1      60.453  63.001  69.820  0.00  0.00    +0.000 C 
ATOM      4  O   UNL     1      60.205  63.751  70.060  0.00  0.00    +0.000 OA
ATOM      5  C   UNL     1      60.266  64.390  69.541  0.00  0.00    +0.000 C 
ATOM      6  O   UNL     1      60.018  65.140  69.780  0.00  0.00    +0.000 OA
ATOM      7  C   UNL     1      59.709  65.250  70.537  0.00  0.00    +0.000 C 
ATOM      8  C   UNL     1      59.648  64.611  71.055  0.00  0.00    +0.000 C 
ATOM      9  O   UNL     1      59.896  63.862  70.817  0.00  0.00    +0.000 OA
ATOM     10  C   UNL     1      59.340  64.722  71.812  0.00  0.00    +0.000 C 
ATOM     11  O   UNL     1      59.279  64.083  72.331  0.00  0.00    +0.000 OA
ATOM     12  C   UNL     1      59.092  65.472  72.051  0.00  0.00    +0.000 C 
ATOM     13  O   UNL     1      58.783  65.583  72.807  0.00  0.00    +0.000 OA
ATOM     14  O   UNL     1      59.153  66.111  71.533  0.00  0.00    +0.000 OA
ATOM     15  C   UNL     1      59.462  66.000  70.775  0.00  0.00    +0.000 C 
ATOM     16  C   UNL     1      59.522  66.638  70.257  0.00  0.00    +0.000 C 
ATOM     17  O   UNL     1      59.831  66.528  69.500  0.00  0.00    +0.000 OA
ATOM     18  C   UNL     1      60.574  64.279  68.784  0.00  0.00    +0.000 C 
ATOM     19  O   UNL     1      60.635  64.917  68.266  0.00  0.00    +0.000 OA
ATOM     20  C   UNL     1      60.822  63.529  68.546  0.00  0.00    +0.000 C 
ATOM     21  O   UNL     1      61.131  63.418  67.789  0.00  0.00    +0.000 OA
ATOM     22  C   UNL     1      60.761  62.890  69.064  0.00  0.00    +0.000 C 
ATOM     23  O   UNL     1      61.009  62.141  68.825  0.00  0.00    +0.000 OA
ENDROOT
TORSDOF 0
ENDMDL
MODEL 9
REMARK VINA RESULT:    -8.889      3.102      3.836
REMARK INTER + INTRA:          -8.889
REMARK INTER:                  -8.889
REMARK INTRA:                   0.000
REMARK UNBOUND:                 0.000
ROOT
REMARK  Name = lactose
REMARK                            x       y       z     vdW  Elec       q    Type
REMARK                         _______ _______ _______ _____ _____    ______ ____
ATOM      1  O   UNL     1      64.626  64.568  69.873  0.00  0.00    +0.000 OA
ATOM      2  C   UNL     1      63.910  64.418  70.252  0.00  0.00    +0.000 C 
ATOM      3  C   UNL     1      63.627  64.941  70.825  0.00  0.00    +0.000 C 
ATOM      4  O   UNL     1      62.910  64.790  71.204  0.00  0.00    +0.000 OA
ATOM      5  C   UNL     1      62.628  65.312  71.776  0.00  0.00    +0.000 C 
ATOM      6  O   UNL     1      61.910  65.162  72.156  0.00  0.00    +0.000 OA
ATOM      7  C   UNL     1      61.476  64.488  71.962  0.00  0.00    +0.000 C 
ATOM      8  C   UNL     1      61.758  63.965  71.389  0.00  0.00    +0.000 C 
ATOM      9  O   UNL     1      62.474  64.116  71.011  0.00  0.00    +0.000 OA
ATOM     10  C   UNL     1      61.323  63.292  71.196  0.00  0.00    +0.000 C 
ATOM     11  O   UNL     1      61.605  62.768  70.623  0.00  0.00    +0.000 OA
ATOM     12  C   UNL     1      60.606  63.140  71.575  0.00  0.00    +0.000 C 
ATOM     13  O   UNL     1      60.171  62.467  71.382  0.00  0.00    +0.000 OA
ATOM     14  O   UNL     1      60.324  63.663  72.147  0.00  0.00    +0.000 OA
ATOM     15  C   UNL     1      60.759  64.338  72.341  0.00  0.00    +0.000 C 
ATOM     16  C   UNL     1      60.477  64.860  72.913  0.00  0.00    +0.000 C 
ATOM     17  O   UNL     1      60.912  65.534  73.107  0.00  0.00    +0.000 OA
ATOM     18  C   UNL     1      63.063  65.987  71.970  0.00  0.00    +0.000 C 
ATOM     19  O   UNL     1      62.782  66.509  72.542  0.00  0.00    +0.000 OA
ATOM     20  C   UNL     1      63.780  66.137  71.591  0.00  0.00    +0.000 C 
ATOM     21  O   UNL     1      64.215  66.811  71.784  0.00  0.00    +0.000 OA
ATOM     22  C   UNL     1      64.062  65.614  71.018  0.00  0.00    +0.000 C 
ATOM     23  O   UNL     1      64.779  65.765  70.640  0.00  0.00    +0.000 OA
ENDROOT
TORSDOF 0
ENDMDL
