MODEL 1
REMARK VINA RESULT:   -14.104      0.000      0.000
REMARK INTER + INTRA:         -14.104
REMARK INTER:                 -14.104
REMARK INTRA:                   0.000
REMARK UNBOUND:                 0.000
ROOT
REMARK  Name = lafutidine
REMARK                            x       y       z     vdW  Elec       q    Type
REMARK                         _______ _______ _______ _____ _____    ______ ____
ATOM      1  O   UNL     1      61.959  62.882  67.091  0.00  0.00    +0.000 OA
ATOM      2  C   UNL     1      61.260  62.460  67.211  0.00  0.00    +0.000 C 
ATOM      3  C   UNL     1      60.947  62.000  66.603  0.00  0.00    +0.000 C 
ATOM      4  S   UNL     1      61.331  61.961  65.873  0.00  0.00    +0.000 S 
ATOM      5  O   UNL     1      62.030  62.383  65.753  0.00  0.00    +0.000 OA
ATOM      6  C   UNL     1      61.018  61.501  65.265  0.00  0.00    +0.000 C 
ATOM      7  C   UNL     1      61.402  61.463  64.536  0.00  0.00    +0.000 A 
ATOM      8  C   UNL     1      61.155  61.028  63.880  0.00  0.00    +0.000 A 
ATOM      9  C   UNL     1      61.702  61.149  63.274  0.00  0.00    +0.000 A 
ATOM     10  C   UNL     1      62.287  61.659  63.556  0.00  0.00    +0.000 A 
ATOM     11  O   UNL     1      62.101  61.852  64.336  0.00  0.00    +0.000 OA
ATOM     12  N   UNL     1      60.876  62.498  67.940  0.00  0.00    +0.000 NA
ATOM     13  C   UNL     1      61.189  62.958  68.548  0.00  0.00    +0.000 C 
ATOM     14  C   UNL     1      60.804  62.997  69.277  0.00  0.00    +0.000 C 
ATOM     15  C   UNL     1      61.118  63.457  69.885  0.00  0.00    +0.000 C 
ATOM     16  C   UNL     1      61.816  63.879  69.765  0.00  0.00    +0.000 C 
ATOM     17  O   UNL     1      62.130  64.339  70.373  0.00  0.00    +0.000 OA
ATOM     18  C   UNL     1      62.828  64.761  70.253  0.00  0.00    +0.000 A 
ATOM     19  N   UNL     1      63.214  64.723  69.525  0.00  0.00    +0.000 NA
ATOM     20  C   UNL     1      63.912  65.145  69.405  0.00  0.00    +0.000 A 
ATOM     21  C   UNL     1      64.226  65.605  70.013  0.00  0.00    +0.000 A 
ATOM     22  C   UNL     1      63.841  65.643  70.742  0.00  0.00    +0.000 A 
ATOM     23  C   UNL     1      64.154  66.103  71.352  0.00  0.00    +0.000 C 
ATOM     24  N   UNL     1      64.854  66.526  71.231  0.00  0.00    +0.000 NA
ATOM     25  C   UNL     1      65.238  66.487  70.502  0.00  0.00    +0.000 C 
ATOM     26  C   UNL     1      65.937  66.909  70.382  0.00  0.00    +0.000 C 
ATOM     27  C   UNL     1      66.251  67.370  70.991  0.00  0.00    +0.000 C 
ATOM     28  C   UNL     1      65.866  67.408  71.719  0.00  0.00    +0.000 C 
ATOM     29  C   UNL     1      65.167  66.986  71.839  0.00  0.00    +0.000 C 
ATOM     30  C   UNL     1      63.142  65.221  70.862  0.00  0.00    +0.000 A 
ENDROOT
TORSDOF 0
ENDMDL
MODEL 2
REMARK VINA RESULT:   -13.776      1.861      7.158
REMARK INTER + INTRA:         -13.776
REMARK INTER:                 -13.776
REMARK INTRA:                   0.000
REMARK UNBOUND:                 0.000
ROOT
REMARK  Name = lafutidine
REMARK                            x       y       z     vdW  Elec       q    Type
REMARK                         _______ _______ _______ _____ _____    ______ ____
ATOM      1  O   UNL     1      63.097  64.827  69.747  0.00  0.00    +0.000 OA
ATOM      2  C   UNL     1      62.731  64.918  70.481  0.00  0.00    +0.000 C 
ATOM      3  C   UNL     1      63.083  65.384  71.062  0.00  0.00    +0.000 C 
ATOM      4  S   UNL     1      63.801  65.760  70.911  0.00  0.00    +0.000 S 
ATOM      5  O   UNL     1      64.168  65.670  70.177  0.00  0.00    +0.000 OA
ATOM      6  C   UNL     1      64.154  66.227  71.492  0.00  0.00    +0.000 C 
ATOM      7  C   UNL     1      64.872  66.603  71.341  0.00  0.00    +0.000 A 
ATOM      8  C   UNL     1      65.288  67.084  71.867  0.00  0.00    +0.000 A 
ATOM      9  C   UNL     1      65.973  67.342  71.488  0.00  0.00    +0.000 A 
ATOM     10  C   UNL     1      65.982  67.021  70.728  0.00  0.00    +0.000 A 
ATOM     11  O   UNL     1      65.301  66.564  70.638  0.00  0.00    +0.000 OA
ATOM     12  N   UNL     1      62.012  64.541  70.632  0.00  0.00    +0.000 NA
ATOM     13  C   UNL     1      61.660  64.075  70.051  0.00  0.00    +0.000 C 
ATOM     14  C   UNL     1      60.941  63.699  70.202  0.00  0.00    +0.000 C 
ATOM     15  C   UNL     1      60.589  63.232  69.620  0.00  0.00    +0.000 C 
ATOM     16  C   UNL     1      60.955  63.142  68.887  0.00  0.00    +0.000 C 
ATOM     17  O   UNL     1      60.603  62.675  68.304  0.00  0.00    +0.000 OA
ATOM     18  C   UNL     1      60.969  62.585  67.572  0.00  0.00    +0.000 A 
ATOM     19  N   UNL     1      61.687  62.960  67.419  0.00  0.00    +0.000 NA
ATOM     20  C   UNL     1      62.053  62.870  66.685  0.00  0.00    +0.000 A 
ATOM     21  C   UNL     1      61.701  62.403  66.104  0.00  0.00    +0.000 A 
ATOM     22  C   UNL     1      60.982  62.027  66.255  0.00  0.00    +0.000 A 
ATOM     23  C   UNL     1      60.629  61.560  65.674  0.00  0.00    +0.000 C 
ATOM     24  N   UNL     1      60.996  61.469  64.939  0.00  0.00    +0.000 NA
ATOM     25  C   UNL     1      61.714  61.846  64.788  0.00  0.00    +0.000 C 
ATOM     26  C   UNL     1      62.081  61.755  64.054  0.00  0.00    +0.000 C 
ATOM     27  C   UNL     1      61.728  61.288  63.471  0.00  0.00    +0.000 C 
ATOM     28  C   UNL     1      61.010  60.912  63.624  0.00  0.00    +0.000 C 
ATOM     29  C   UNL     1      60.644  61.003  64.358  0.00  0.00    +0.000 C 
ATOM     30  C   UNL     1      60.616  62.118  66.989  0.00  0.00    +0.000 A 
ENDROOT
TORSDOF 0
ENDMDL
