MODEL 1
REMARK VINA RESULT:   -13.960      0.000      0.000
REMARK INTER + INTRA:         -13.960
REMARK INTER:                 -13.960
REMARK INTRA:                   0.000
REMARK UNBOUND:                 0.000
ROOT
REMARK  Name = laninamivir octanoate hydrate
REMARK                            x       y       z     vdW  Elec       q    Type
REMARK                         _______ _______ _______ _____ _____    ______ ____
ATOM      1  C   UNL     1      61.221  60.484  62.833  0.00  0.00    +0.000 C 
ATOM      2  C   UNL     1      60.882  60.875  63.475  0.00  0.00    +0.000 C 
ATOM      3  C   UNL     1      61.364  61.217  64.051  0.00  0.00    +0.000 C 
ATOM      4  C   UNL     1      61.025  61.609  64.694  0.00  0.00    +0.000 C 
ATOM      5  C   UNL     1      61.507  61.950  65.269  0.00  0.00    +0.000 C 
ATOM      6  C   UNL     1      61.168  62.341  65.912  0.00  0.00    +0.000 C 
ATOM      7  C   UNL     1      61.649  62.683  66.489  0.00  0.00    +0.000 C 
ATOM      8  C   UNL     1      61.310  63.074  67.130  0.00  0.00    +0.000 C 
ATOM      9  O   UNL     1      60.490  63.123  67.197  0.00  0.00    +0.000 OA
ATOM     10  O   UNL     1      61.792  63.416  67.707  0.00  0.00    +0.000 OA
ATOM     11  C   UNL     1      61.453  63.807  68.349  0.00  0.00    +0.000 C 
ATOM     12  C   UNL     1      61.935  64.149  68.925  0.00  0.00    +0.000 C 
ATOM     13  O   UNL     1      62.755  64.099  68.858  0.00  0.00    +0.000 OA
ATOM     14  C   UNL     1      61.596  64.539  69.567  0.00  0.00    +0.000 C 
ATOM     15  O   UNL     1      60.775  64.589  69.633  0.00  0.00    +0.000 OA
ATOM     16  C   UNL     1      60.293  64.247  69.058  0.00  0.00    +0.000 C 
ATOM     17  C   UNL     1      62.077  64.881  70.143  0.00  0.00    +0.000 C 
ATOM     18  O   UNL     1      62.898  64.832  70.077  0.00  0.00    +0.000 OA
ATOM     19  C   UNL     1      63.380  65.174  70.653  0.00  0.00    +0.000 C 
ATOM     20  C   UNL     1      63.041  65.565  71.295  0.00  0.00    +0.000 C 
ATOM     21  C   UNL     1      62.220  65.614  71.361  0.00  0.00    +0.000 C 
ATOM     22  N   UNL     1      61.881  66.005  72.004  0.00  0.00    +0.000 NA
ATOM     23  C   UNL     1      62.363  66.347  72.580  0.00  0.00    +0.000 C 
ATOM     24  N   UNL     1      63.183  66.298  72.514  0.00  0.00    +0.000 NA
ATOM     25  N   UNL     1      62.024  66.738  73.222  0.00  0.00    +0.000 NA
ATOM     26  C   UNL     1      61.738  65.273  70.786  0.00  0.00    +0.000 C 
ATOM     27  N   UNL     1      60.918  65.322  70.852  0.00  0.00    +0.000 NA
ATOM     28  C   UNL     1      60.579  65.713  71.495  0.00  0.00    +0.000 C 
ATOM     29  C   UNL     1      61.060  66.055  72.071  0.00  0.00    +0.000 C 
ATOM     30  O   UNL     1      59.758  65.762  71.561  0.00  0.00    +0.000 OA
ATOM     31  C   UNL     1      64.201  65.125  70.586  0.00  0.00    +0.000 C 
ATOM     32  O   UNL     1      64.540  64.733  69.944  0.00  0.00    +0.000 OA
ATOM     33  O   UNL     1      64.683  65.466  71.162  0.00  0.00    +0.000 OA
ENDROOT
TORSDOF 0
ENDMDL
MODEL 2
REMARK VINA RESULT:   -13.810      2.335      2.612
REMARK INTER + INTRA:         -13.810
REMARK INTER:                 -13.810
REMARK INTRA:                   0.000
REMARK UNBOUND:                 0.000
ROOT
REMARK  Name = laninamivir octanoate hydrate
REMARK                            x       y       z     vdW  Elec       q    Type
REMARK                         _______ _______ _______ _____ _____    ______ ____
ATOM      1  C   UNL     1      62.749  61.304  62.835  0.00  0.00    +0.000 C 
ATOM      2  C   UNL     1      62.515  61.251  63.624  0.00  0.00    +0.000 C 
ATOM      3  C   UNL     1      62.293  61.932  64.035  0.00  0.00    +0.000 C 
ATOM      4  C   UNL     1      62.059  61.880  64.825  0.00  0.00    +0.000 C 
ATOM      5  C   UNL     1      61.836  62.560  65.234  0.00  0.00    +0.000 C 
ATOM      6  C   UNL     1      61.603  62.507  66.024  0.00  0.00    +0.000 C 
ATOM      7  C   UNL     1      61.380  63.188  66.435  0.00  0.00    +0.000 C 
ATOM      8  C   UNL     1      61.147  63.135  67.224  0.00  0.00    +0.000 C 
ATOM      9  O   UNL     1      61.136  62.403  67.603  0.00  0.00    +0.000 OA
ATOM     10  O   UNL     1      60.924  63.816  67.634  0.00  0.00    +0.000 OA
ATOM     11  C   UNL     1      60.690  63.763  68.423  0.00  0.00    +0.000 C 
ATOM     12  C   UNL     1      60.467  64.444  68.834  0.00  0.00    +0.000 C 
ATOM     13  O   UNL     1      60.478  65.176  68.454  0.00  0.00    +0.000 OA
ATOM     14  C   UNL     1      60.234  64.391  69.623  0.00  0.00    +0.000 C 
ATOM     15  O   UNL     1      60.224  63.659  70.003  0.00  0.00    +0.000 OA
ATOM     16  C   UNL     1      60.446  62.979  69.593  0.00  0.00    +0.000 C 
ATOM     17  C   UNL     1      60.011  65.072  70.033  0.00  0.00    +0.000 C 
ATOM     18  O   UNL     1      60.022  65.804  69.654  0.00  0.00    +0.000 OA
ATOM     19  C   UNL     1      59.799  66.484  70.064  0.00  0.00    +0.000 C 
ATOM     20  C   UNL     1      59.566  66.432  70.854  0.00  0.00    +0.000 C 
ATOM     21  C   UNL     1      59.555  65.700  71.233  0.00  0.00    +0.000 C 
ATOM     22  N   UNL     1      59.321  65.648  72.023  0.00  0.00    +0.000 NA
ATOM     23  C   UNL     1      59.098  66.328  72.433  0.00  0.00    +0.000 C 
ATOM     24  N   UNL     1      59.109  67.060  72.054  0.00  0.00    +0.000 NA
ATOM     25  N   UNL     1      58.865  66.275  73.222  0.00  0.00    +0.000 NA
ATOM     26  C   UNL     1      59.778  65.020  70.823  0.00  0.00    +0.000 C 
ATOM     27  N   UNL     1      59.767  64.287  71.202  0.00  0.00    +0.000 NA
ATOM     28  C   UNL     1      59.534  64.235  71.992  0.00  0.00    +0.000 C 
ATOM     29  C   UNL     1      59.311  64.915  72.402  0.00  0.00    +0.000 C 
ATOM     30  O   UNL     1      59.523  63.503  72.371  0.00  0.00    +0.000 OA
ATOM     31  C   UNL     1      59.809  67.218  69.685  0.00  0.00    +0.000 C 
ATOM     32  O   UNL     1      60.043  67.270  68.895  0.00  0.00    +0.000 OA
ATOM     33  O   UNL     1      59.587  67.898  70.094  0.00  0.00    +0.000 OA
ENDROOT
TORSDOF 0
ENDMDL
MODEL 3
REMARK VINA RESULT:   -11.636     14.103     15.479
REMARK INTER + INTRA:         -11.636
REMARK INTER:                 -11.636
REMARK INTRA:                   0.000
REMARK UNBOUND:                 0.000
ROOT
REMARK  Name = laninamivir octanoate hydrate
REMARK                            x       y       z     vdW  Elec       q    Type
REMARK                         _______ _______ _______ _____ _____    ______ ____
ATOM      1  C   UNL     1      63.877  59.122  53.874  0.00  0.00    +0.000 C 
ATOM      2  C   UNL     1      63.496  59.780  53.553  0.00  0.00    +0.000 C 
ATOM      3  C   UNL     1      63.528  60.506  53.944  0.00  0.00    +0.000 C 
ATOM      4  C   UNL     1      63.147  61.164  53.624  0.00  0.00    +0.000 C 
ATOM      5  C   UNL     1      63.179  61.890  54.015  0.00  0.00    +0.000 C 
ATOM      6  C   UNL     1      62.798  62.548  53.694  0.00  0.00    +0.000 C 
ATOM      7  C   UNL     1      62.830  63.274  54.085  0.00  0.00    +0.000 C 
ATOM      8  C   UNL     1      62.450  63.932  53.764  0.00  0.00    +0.000 C 
ATOM      9  O   UNL     1      62.038  63.864  53.053  0.00  0.00    +0.000 OA
ATOM     10  O   UNL     1      62.481  64.658  54.155  0.00  0.00    +0.000 OA
ATOM     11  C   UNL     1      62.101  65.316  53.835  0.00  0.00    +0.000 C 
ATOM     12  C   UNL     1      62.132  66.042  54.226  0.00  0.00    +0.000 C 
ATOM     13  O   UNL     1      62.544  66.109  54.937  0.00  0.00    +0.000 OA
ATOM     14  C   UNL     1      61.752  66.699  53.905  0.00  0.00    +0.000 C 
ATOM     15  O   UNL     1      61.340  66.632  53.193  0.00  0.00    +0.000 OA
ATOM     16  C   UNL     1      61.308  65.907  52.802  0.00  0.00    +0.000 C 
ATOM     17  C   UNL     1      61.783  67.425  54.296  0.00  0.00    +0.000 C 
ATOM     18  O   UNL     1      62.195  67.493  55.007  0.00  0.00    +0.000 OA
ATOM     19  C   UNL     1      62.226  68.219  55.398  0.00  0.00    +0.000 C 
ATOM     20  C   UNL     1      61.846  68.877  55.078  0.00  0.00    +0.000 C 
ATOM     21  C   UNL     1      61.434  68.809  54.366  0.00  0.00    +0.000 C 
ATOM     22  N   UNL     1      61.054  69.468  54.046  0.00  0.00    +0.000 NA
ATOM     23  C   UNL     1      61.085  70.194  54.436  0.00  0.00    +0.000 C 
ATOM     24  N   UNL     1      61.497  70.261  55.148  0.00  0.00    +0.000 NA
ATOM     25  N   UNL     1      60.705  70.851  54.116  0.00  0.00    +0.000 NA
ATOM     26  C   UNL     1      61.403  68.084  53.975  0.00  0.00    +0.000 C 
ATOM     27  N   UNL     1      60.991  68.015  53.264  0.00  0.00    +0.000 NA
ATOM     28  C   UNL     1      60.611  68.674  52.943  0.00  0.00    +0.000 C 
ATOM     29  C   UNL     1      60.642  69.400  53.334  0.00  0.00    +0.000 C 
ATOM     30  O   UNL     1      60.199  68.606  52.232  0.00  0.00    +0.000 OA
ATOM     31  C   UNL     1      62.638  68.287  56.111  0.00  0.00    +0.000 C 
ATOM     32  O   UNL     1      63.019  67.628  56.431  0.00  0.00    +0.000 OA
ATOM     33  O   UNL     1      62.670  69.012  56.502  0.00  0.00    +0.000 OA
ENDROOT
TORSDOF 0
ENDMDL
MODEL 4
REMARK VINA RESULT:   -11.578      4.262      5.865
REMARK INTER + INTRA:         -11.578
REMARK INTER:                 -11.578
REMARK INTRA:                   0.000
REMARK UNBOUND:                 0.000
ROOT
REMARK  Name = laninamivir octanoate hydrate
REMARK                            x       y       z     vdW  Elec       q    Type
REMARK                         _______ _______ _______ _____ _____    ______ ____
ATOM      1  C   UNL     1      69.235  68.678  69.202  0.00  0.00    +0.000 C 
ATOM      2  C   UNL     1      68.737  68.080  69.474  0.00  0.00    +0.000 C 
ATOM      3  C   UNL     1      67.932  68.230  69.580  0.00  0.00    +0.000 C 
ATOM      4  C   UNL     1      67.433  67.631  69.852  0.00  0.00    +0.000 C 
ATOM      5  C   UNL     1      66.630  67.781  69.958  0.00  0.00    +0.000 C 
ATOM      6  C   UNL     1      66.131  67.183  70.230  0.00  0.00    +0.000 C 
ATOM      7  C   UNL     1      65.326  67.332  70.336  0.00  0.00    +0.000 C 
ATOM      8  C   UNL     1      64.828  66.734  70.609  0.00  0.00    +0.000 C 
ATOM      9  O   UNL     1      65.134  65.986  70.775  0.00  0.00    +0.000 OA
ATOM     10  O   UNL     1      64.023  66.884  70.715  0.00  0.00    +0.000 OA
ATOM     11  C   UNL     1      63.525  66.286  70.987  0.00  0.00    +0.000 C 
ATOM     12  C   UNL     1      62.721  66.435  71.093  0.00  0.00    +0.000 C 
ATOM     13  O   UNL     1      62.415  67.183  70.927  0.00  0.00    +0.000 OA
ATOM     14  C   UNL     1      62.222  65.837  71.365  0.00  0.00    +0.000 C 
ATOM     15  O   UNL     1      62.528  65.089  71.531  0.00  0.00    +0.000 OA
ATOM     16  C   UNL     1      63.332  64.939  71.425  0.00  0.00    +0.000 C 
ATOM     17  C   UNL     1      61.418  65.987  71.471  0.00  0.00    +0.000 C 
ATOM     18  O   UNL     1      61.112  66.735  71.305  0.00  0.00    +0.000 OA
ATOM     19  C   UNL     1      60.308  66.884  71.411  0.00  0.00    +0.000 C 
ATOM     20  C   UNL     1      59.809  66.286  71.683  0.00  0.00    +0.000 C 
ATOM     21  C   UNL     1      60.115  65.538  71.849  0.00  0.00    +0.000 C 
ATOM     22  N   UNL     1      59.616  64.940  72.122  0.00  0.00    +0.000 NA
ATOM     23  C   UNL     1      58.812  65.089  72.228  0.00  0.00    +0.000 C 
ATOM     24  N   UNL     1      58.506  65.837  72.062  0.00  0.00    +0.000 NA
ATOM     25  N   UNL     1      58.313  64.491  72.500  0.00  0.00    +0.000 NA
ATOM     26  C   UNL     1      60.919  65.388  71.743  0.00  0.00    +0.000 C 
ATOM     27  N   UNL     1      61.225  64.641  71.909  0.00  0.00    +0.000 NA
ATOM     28  C   UNL     1      60.726  64.042  72.182  0.00  0.00    +0.000 C 
ATOM     29  C   UNL     1      59.922  64.192  72.288  0.00  0.00    +0.000 C 
ATOM     30  O   UNL     1      61.032  63.294  72.348  0.00  0.00    +0.000 OA
ATOM     31  C   UNL     1      60.001  67.633  71.245  0.00  0.00    +0.000 C 
ATOM     32  O   UNL     1      60.500  68.231  70.972  0.00  0.00    +0.000 OA
ATOM     33  O   UNL     1      59.198  67.783  71.350  0.00  0.00    +0.000 OA
ENDROOT
TORSDOF 0
ENDMDL
MODEL 5
REMARK VINA RESULT:   -11.227      3.640      5.786
REMARK INTER + INTRA:         -11.227
REMARK INTER:                 -11.227
REMARK INTRA:                   0.000
REMARK UNBOUND:                 0.000
ROOT
REMARK  Name = laninamivir octanoate hydrate
REMARK                            x       y       z     vdW  Elec       q    Type
REMARK                         _______ _______ _______ _____ _____    ______ ____
ATOM      1  C   UNL     1      69.130  67.955  69.506  0.00  0.00    +0.000 C 
ATOM      2  C   UNL     1      68.415  68.133  69.877  0.00  0.00    +0.000 C 
ATOM      3  C   UNL     1      67.803  67.580  69.879  0.00  0.00    +0.000 C 
ATOM      4  C   UNL     1      67.087  67.758  70.250  0.00  0.00    +0.000 C 
ATOM      5  C   UNL     1      66.475  67.206  70.252  0.00  0.00    +0.000 C 
ATOM      6  C   UNL     1      65.760  67.384  70.623  0.00  0.00    +0.000 C 
ATOM      7  C   UNL     1      65.147  66.831  70.625  0.00  0.00    +0.000 C 
ATOM      8  C   UNL     1      64.433  67.009  70.996  0.00  0.00    +0.000 C 
ATOM      9  O   UNL     1      64.330  67.740  71.364  0.00  0.00    +0.000 OA
ATOM     10  O   UNL     1      63.820  66.456  70.998  0.00  0.00    +0.000 OA
ATOM     11  C   UNL     1      63.105  66.634  71.369  0.00  0.00    +0.000 C 
ATOM     12  C   UNL     1      62.493  66.081  71.371  0.00  0.00    +0.000 C 
ATOM     13  O   UNL     1      62.596  65.350  71.003  0.00  0.00    +0.000 OA
ATOM     14  C   UNL     1      61.778  66.259  71.742  0.00  0.00    +0.000 C 
ATOM     15  O   UNL     1      61.675  66.990  72.110  0.00  0.00    +0.000 OA
ATOM     16  C   UNL     1      62.287  67.543  72.108  0.00  0.00    +0.000 C 
ATOM     17  C   UNL     1      61.165  65.706  71.744  0.00  0.00    +0.000 C 
ATOM     18  O   UNL     1      61.268  64.976  71.376  0.00  0.00    +0.000 OA
ATOM     19  C   UNL     1      60.656  64.423  71.378  0.00  0.00    +0.000 C 
ATOM     20  C   UNL     1      59.941  64.601  71.749  0.00  0.00    +0.000 C 
ATOM     21  C   UNL     1      59.838  65.332  72.117  0.00  0.00    +0.000 C 
ATOM     22  N   UNL     1      59.122  65.510  72.488  0.00  0.00    +0.000 NA
ATOM     23  C   UNL     1      58.510  64.957  72.491  0.00  0.00    +0.000 C 
ATOM     24  N   UNL     1      58.613  64.226  72.122  0.00  0.00    +0.000 NA
ATOM     25  N   UNL     1      57.795  65.135  72.861  0.00  0.00    +0.000 NA
ATOM     26  C   UNL     1      60.450  65.884  72.115  0.00  0.00    +0.000 C 
ATOM     27  N   UNL     1      60.348  66.615  72.483  0.00  0.00    +0.000 NA
ATOM     28  C   UNL     1      59.632  66.793  72.854  0.00  0.00    +0.000 C 
ATOM     29  C   UNL     1      59.019  66.240  72.857  0.00  0.00    +0.000 C 
ATOM     30  O   UNL     1      59.529  67.524  73.222  0.00  0.00    +0.000 OA
ATOM     31  C   UNL     1      60.759  63.691  71.010  0.00  0.00    +0.000 C 
ATOM     32  O   UNL     1      61.474  63.513  70.639  0.00  0.00    +0.000 OA
ATOM     33  O   UNL     1      60.147  63.138  71.012  0.00  0.00    +0.000 OA
ENDROOT
TORSDOF 0
ENDMDL
MODEL 6
REMARK VINA RESULT:   -11.085     15.488     17.660
REMARK INTER + INTRA:         -11.085
REMARK INTER:                 -11.085
REMARK INTRA:                   0.000
REMARK UNBOUND:                 0.000
ROOT
REMARK  Name = laninamivir octanoate hydrate
REMARK                            x       y       z     vdW  Elec       q    Type
REMARK                         _______ _______ _______ _____ _____    ______ ____
ATOM      1  C   UNL     1      62.377  68.742  55.723  0.00  0.00    +0.000 C 
ATOM      2  C   UNL     1      62.377  68.234  55.073  0.00  0.00    +0.000 C 
ATOM      3  C   UNL     1      62.502  67.426  55.181  0.00  0.00    +0.000 C 
ATOM      4  C   UNL     1      62.502  66.917  54.531  0.00  0.00    +0.000 C 
ATOM      5  C   UNL     1      62.627  66.110  54.640  0.00  0.00    +0.000 C 
ATOM      6  C   UNL     1      62.627  65.601  53.989  0.00  0.00    +0.000 C 
ATOM      7  C   UNL     1      62.752  64.793  54.097  0.00  0.00    +0.000 C 
ATOM      8  C   UNL     1      62.752  64.285  53.448  0.00  0.00    +0.000 C 
ATOM      9  O   UNL     1      62.627  64.585  52.690  0.00  0.00    +0.000 OA
ATOM     10  O   UNL     1      62.877  63.477  53.556  0.00  0.00    +0.000 OA
ATOM     11  C   UNL     1      62.877  62.969  52.906  0.00  0.00    +0.000 C 
ATOM     12  C   UNL     1      63.002  62.160  53.014  0.00  0.00    +0.000 C 
ATOM     13  O   UNL     1      63.127  61.860  53.772  0.00  0.00    +0.000 OA
ATOM     14  C   UNL     1      63.002  61.653  52.364  0.00  0.00    +0.000 C 
ATOM     15  O   UNL     1      62.877  61.953  51.606  0.00  0.00    +0.000 OA
ATOM     16  C   UNL     1      62.752  62.760  51.498  0.00  0.00    +0.000 C 
ATOM     17  C   UNL     1      63.127  60.844  52.472  0.00  0.00    +0.000 C 
ATOM     18  O   UNL     1      63.252  60.544  53.231  0.00  0.00    +0.000 OA
ATOM     19  C   UNL     1      63.377  59.736  53.339  0.00  0.00    +0.000 C 
ATOM     20  C   UNL     1      63.377  59.228  52.689  0.00  0.00    +0.000 C 
ATOM     21  C   UNL     1      63.252  59.528  51.931  0.00  0.00    +0.000 C 
ATOM     22  N   UNL     1      63.252  59.020  51.281  0.00  0.00    +0.000 NA
ATOM     23  C   UNL     1      63.377  58.211  51.389  0.00  0.00    +0.000 C 
ATOM     24  N   UNL     1      63.502  57.911  52.147  0.00  0.00    +0.000 NA
ATOM     25  N   UNL     1      63.377  57.703  50.739  0.00  0.00    +0.000 NA
ATOM     26  C   UNL     1      63.127  60.336  51.822  0.00  0.00    +0.000 C 
ATOM     27  N   UNL     1      63.002  60.637  51.065  0.00  0.00    +0.000 NA
ATOM     28  C   UNL     1      63.002  60.128  50.414  0.00  0.00    +0.000 C 
ATOM     29  C   UNL     1      63.127  59.320  50.522  0.00  0.00    +0.000 C 
ATOM     30  O   UNL     1      62.877  60.428  49.656  0.00  0.00    +0.000 OA
ATOM     31  C   UNL     1      63.503  59.435  54.098  0.00  0.00    +0.000 C 
ATOM     32  O   UNL     1      63.502  59.944  54.748  0.00  0.00    +0.000 OA
ATOM     33  O   UNL     1      63.627  58.627  54.206  0.00  0.00    +0.000 OA
ENDROOT
TORSDOF 0
ENDMDL
MODEL 7
REMARK VINA RESULT:   -11.012     15.387     17.441
REMARK INTER + INTRA:         -11.012
REMARK INTER:                 -11.012
REMARK INTRA:                   0.000
REMARK UNBOUND:                 0.000
ROOT
REMARK  Name = laninamivir octanoate hydrate
REMARK                            x       y       z     vdW  Elec       q    Type
REMARK                         _______ _______ _______ _____ _____    ______ ____
ATOM      1  C   UNL     1      61.977  69.153  55.243  0.00  0.00    +0.000 C 
ATOM      2  C   UNL     1      62.358  68.423  55.198  0.00  0.00    +0.000 C 
ATOM      3  C   UNL     1      61.991  67.788  54.820  0.00  0.00    +0.000 C 
ATOM      4  C   UNL     1      62.371  67.057  54.775  0.00  0.00    +0.000 C 
ATOM      5  C   UNL     1      62.004  66.424  54.396  0.00  0.00    +0.000 C 
ATOM      6  C   UNL     1      62.385  65.693  54.351  0.00  0.00    +0.000 C 
ATOM      7  C   UNL     1      62.017  65.058  53.973  0.00  0.00    +0.000 C 
ATOM      8  C   UNL     1      62.398  64.328  53.928  0.00  0.00    +0.000 C 
ATOM      9  O   UNL     1      63.147  64.232  54.261  0.00  0.00    +0.000 OA
ATOM     10  O   UNL     1      62.031  63.694  53.550  0.00  0.00    +0.000 OA
ATOM     11  C   UNL     1      62.412  62.964  53.505  0.00  0.00    +0.000 C 
ATOM     12  C   UNL     1      62.044  62.329  53.126  0.00  0.00    +0.000 C 
ATOM     13  O   UNL     1      61.296  62.425  52.793  0.00  0.00    +0.000 OA
ATOM     14  C   UNL     1      62.425  61.599  53.081  0.00  0.00    +0.000 C 
ATOM     15  O   UNL     1      63.173  61.503  53.415  0.00  0.00    +0.000 OA
ATOM     16  C   UNL     1      63.541  62.137  53.793  0.00  0.00    +0.000 C 
ATOM     17  C   UNL     1      62.058  60.964  52.703  0.00  0.00    +0.000 C 
ATOM     18  O   UNL     1      61.309  61.061  52.370  0.00  0.00    +0.000 OA
ATOM     19  C   UNL     1      60.942  60.426  51.991  0.00  0.00    +0.000 C 
ATOM     20  C   UNL     1      61.323  59.696  51.946  0.00  0.00    +0.000 C 
ATOM     21  C   UNL     1      62.071  59.600  52.280  0.00  0.00    +0.000 C 
ATOM     22  N   UNL     1      62.452  58.869  52.235  0.00  0.00    +0.000 NA
ATOM     23  C   UNL     1      62.085  58.234  51.856  0.00  0.00    +0.000 C 
ATOM     24  N   UNL     1      61.336  58.331  51.523  0.00  0.00    +0.000 NA
ATOM     25  N   UNL     1      62.465  57.504  51.812  0.00  0.00    +0.000 NA
ATOM     26  C   UNL     1      62.439  60.234  52.658  0.00  0.00    +0.000 C 
ATOM     27  N   UNL     1      63.187  60.138  52.992  0.00  0.00    +0.000 NA
ATOM     28  C   UNL     1      63.568  59.407  52.947  0.00  0.00    +0.000 C 
ATOM     29  C   UNL     1      63.200  58.773  52.568  0.00  0.00    +0.000 C 
ATOM     30  O   UNL     1      64.316  59.311  53.280  0.00  0.00    +0.000 OA
ATOM     31  C   UNL     1      60.193  60.522  51.657  0.00  0.00    +0.000 C 
ATOM     32  O   UNL     1      59.812  61.253  51.703  0.00  0.00    +0.000 OA
ATOM     33  O   UNL     1      59.825  59.888  51.279  0.00  0.00    +0.000 OA
ENDROOT
TORSDOF 0
ENDMDL
