MODEL 1
REMARK VINA RESULT:   -14.744      0.000      0.000
REMARK INTER + INTRA:         -14.744
REMARK INTER:                 -14.744
REMARK INTRA:                   0.000
REMARK UNBOUND:                 0.000
ROOT
REMARK  Name = latanoprost
REMARK                            x       y       z     vdW  Elec       q    Type
REMARK                         _______ _______ _______ _____ _____    ______ ____
ATOM      1  C   UNL     1      60.874  62.273  65.727  0.00  0.00    +0.000 C 
ATOM      2  C   UNL     1      60.952  62.290  66.548  0.00  0.00    +0.000 C 
ATOM      3  C   UNL     1      61.262  61.636  66.946  0.00  0.00    +0.000 C 
ATOM      4  O   UNL     1      60.722  62.958  66.972  0.00  0.00    +0.000 OA
ATOM      5  C   UNL     1      60.800  62.975  67.793  0.00  0.00    +0.000 C 
ATOM      6  O   UNL     1      61.110  62.321  68.191  0.00  0.00    +0.000 OA
ATOM      7  C   UNL     1      60.570  63.644  68.217  0.00  0.00    +0.000 C 
ATOM      8  C   UNL     1      60.649  63.660  69.038  0.00  0.00    +0.000 C 
ATOM      9  C   UNL     1      60.418  64.329  69.461  0.00  0.00    +0.000 C 
ATOM     10  C   UNL     1      60.109  64.982  69.064  0.00  0.00    +0.000 C 
ATOM     11  C   UNL     1      59.878  65.652  69.488  0.00  0.00    +0.000 C 
ATOM     12  C   UNL     1      59.957  65.667  70.309  0.00  0.00    +0.000 C 
ATOM     13  C   UNL     1      59.726  66.337  70.733  0.00  0.00    +0.000 C 
ATOM     14  C   UNL     1      59.409  67.028  70.413  0.00  0.00    +0.000 C 
ATOM     15  O   UNL     1      59.268  67.171  69.613  0.00  0.00    +0.000 OA
ATOM     16  C   UNL     1      59.259  67.551  71.033  0.00  0.00    +0.000 C 
ATOM     17  C   UNL     1      59.483  67.183  71.736  0.00  0.00    +0.000 C 
ATOM     18  O   UNL     1      59.428  67.508  72.493  0.00  0.00    +0.000 OA
ATOM     19  C   UNL     1      59.772  66.432  71.550  0.00  0.00    +0.000 C 
ATOM     20  C   UNL     1      60.056  65.876  72.089  0.00  0.00    +0.000 C 
ATOM     21  C   UNL     1      60.329  65.145  71.821  0.00  0.00    +0.000 C 
ATOM     22  C   UNL     1      60.613  64.587  72.359  0.00  0.00    +0.000 C 
ATOM     23  O   UNL     1      60.625  64.762  73.165  0.00  0.00    +0.000 OA
ATOM     24  C   UNL     1      60.885  63.856  72.091  0.00  0.00    +0.000 C 
ATOM     25  C   UNL     1      61.170  63.300  72.629  0.00  0.00    +0.000 C 
ATOM     26  C   UNL     1      61.442  62.568  72.361  0.00  0.00    +0.000 A 
ATOM     27  C   UNL     1      61.726  62.011  72.899  0.00  0.00    +0.000 A 
ATOM     28  C   UNL     1      61.998  61.280  72.631  0.00  0.00    +0.000 A 
ATOM     29  C   UNL     1      61.986  61.106  71.824  0.00  0.00    +0.000 A 
ATOM     30  C   UNL     1      61.702  61.663  71.287  0.00  0.00    +0.000 A 
ATOM     31  C   UNL     1      61.430  62.394  71.555  0.00  0.00    +0.000 A 
ENDROOT
TORSDOF 0
ENDMDL
MODEL 2
REMARK VINA RESULT:   -14.236      3.052      3.678
REMARK INTER + INTRA:         -14.236
REMARK INTER:                 -14.236
REMARK INTRA:                   0.000
REMARK UNBOUND:                 0.000
ROOT
REMARK  Name = latanoprost
REMARK                            x       y       z     vdW  Elec       q    Type
REMARK                         _______ _______ _______ _____ _____    ______ ____
ATOM      1  C   UNL     1      61.070  62.170  66.884  0.00  0.00    +0.000 C 
ATOM      2  C   UNL     1      60.976  62.568  67.601  0.00  0.00    +0.000 C 
ATOM      3  C   UNL     1      60.282  62.475  68.036  0.00  0.00    +0.000 C 
ATOM      4  O   UNL     1      61.576  63.058  67.882  0.00  0.00    +0.000 OA
ATOM      5  C   UNL     1      61.483  63.456  68.599  0.00  0.00    +0.000 C 
ATOM      6  O   UNL     1      60.788  63.363  69.035  0.00  0.00    +0.000 OA
ATOM      7  C   UNL     1      62.083  63.946  68.881  0.00  0.00    +0.000 C 
ATOM      8  C   UNL     1      61.989  64.344  69.598  0.00  0.00    +0.000 C 
ATOM      9  C   UNL     1      62.589  64.834  69.879  0.00  0.00    +0.000 C 
ATOM     10  C   UNL     1      63.284  64.928  69.444  0.00  0.00    +0.000 C 
ATOM     11  C   UNL     1      63.885  65.419  69.726  0.00  0.00    +0.000 C 
ATOM     12  C   UNL     1      63.790  65.816  70.443  0.00  0.00    +0.000 C 
ATOM     13  C   UNL     1      64.391  66.307  70.724  0.00  0.00    +0.000 C 
ATOM     14  C   UNL     1      65.112  66.453  70.352  0.00  0.00    +0.000 C 
ATOM     15  O   UNL     1      65.360  66.135  69.632  0.00  0.00    +0.000 OA
ATOM     16  C   UNL     1      65.543  66.974  70.825  0.00  0.00    +0.000 C 
ATOM     17  C   UNL     1      65.087  67.149  71.490  0.00  0.00    +0.000 C 
ATOM     18  O   UNL     1      65.306  67.649  72.109  0.00  0.00    +0.000 OA
ATOM     19  C   UNL     1      64.375  66.737  71.428  0.00  0.00    +0.000 C 
ATOM     20  C   UNL     1      63.757  66.752  71.974  0.00  0.00    +0.000 C 
ATOM     21  C   UNL     1      63.075  66.309  71.837  0.00  0.00    +0.000 C 
ATOM     22  C   UNL     1      62.456  66.324  72.382  0.00  0.00    +0.000 C 
ATOM     23  O   UNL     1      62.520  66.782  73.065  0.00  0.00    +0.000 OA
ATOM     24  C   UNL     1      61.774  65.880  72.245  0.00  0.00    +0.000 C 
ATOM     25  C   UNL     1      61.156  65.896  72.791  0.00  0.00    +0.000 C 
ATOM     26  C   UNL     1      60.474  65.452  72.654  0.00  0.00    +0.000 A 
ATOM     27  C   UNL     1      59.855  65.467  73.199  0.00  0.00    +0.000 A 
ATOM     28  C   UNL     1      59.173  65.024  73.062  0.00  0.00    +0.000 A 
ATOM     29  C   UNL     1      59.110  64.565  72.379  0.00  0.00    +0.000 A 
ATOM     30  C   UNL     1      59.728  64.550  71.834  0.00  0.00    +0.000 A 
ATOM     31  C   UNL     1      60.410  64.993  71.971  0.00  0.00    +0.000 A 
ENDROOT
TORSDOF 0
ENDMDL
MODEL 3
REMARK VINA RESULT:   -12.357      2.591      3.543
REMARK INTER + INTRA:         -12.357
REMARK INTER:                 -12.357
REMARK INTRA:                   0.000
REMARK UNBOUND:                 0.000
ROOT
REMARK  Name = latanoprost
REMARK                            x       y       z     vdW  Elec       q    Type
REMARK                         _______ _______ _______ _____ _____    ______ ____
ATOM      1  C   UNL     1      65.381  67.023  70.562  0.00  0.00    +0.000 C 
ATOM      2  C   UNL     1      64.787  66.456  70.644  0.00  0.00    +0.000 C 
ATOM      3  C   UNL     1      64.933  65.673  70.429  0.00  0.00    +0.000 C 
ATOM      4  O   UNL     1      64.048  66.672  70.939  0.00  0.00    +0.000 OA
ATOM      5  C   UNL     1      63.454  66.105  71.021  0.00  0.00    +0.000 C 
ATOM      6  O   UNL     1      63.600  65.322  70.806  0.00  0.00    +0.000 OA
ATOM      7  C   UNL     1      62.716  66.321  71.316  0.00  0.00    +0.000 C 
ATOM      8  C   UNL     1      62.121  65.754  71.398  0.00  0.00    +0.000 C 
ATOM      9  C   UNL     1      61.383  65.970  71.693  0.00  0.00    +0.000 C 
ATOM     10  C   UNL     1      61.237  66.753  71.908  0.00  0.00    +0.000 C 
ATOM     11  C   UNL     1      60.497  66.970  72.204  0.00  0.00    +0.000 C 
ATOM     12  C   UNL     1      59.904  66.402  72.285  0.00  0.00    +0.000 C 
ATOM     13  C   UNL     1      59.164  66.619  72.581  0.00  0.00    +0.000 C 
ATOM     14  C   UNL     1      58.940  67.376  72.818  0.00  0.00    +0.000 C 
ATOM     15  O   UNL     1      59.414  68.050  72.800  0.00  0.00    +0.000 OA
ATOM     16  C   UNL     1      58.157  67.341  73.075  0.00  0.00    +0.000 C 
ATOM     17  C   UNL     1      57.898  66.561  72.998  0.00  0.00    +0.000 C 
ATOM     18  O   UNL     1      57.148  66.278  73.192  0.00  0.00    +0.000 OA
ATOM     19  C   UNL     1      58.521  66.115  72.693  0.00  0.00    +0.000 C 
ATOM     20  C   UNL     1      58.503  65.306  72.528  0.00  0.00    +0.000 C 
ATOM     21  C   UNL     1      59.172  64.933  72.222  0.00  0.00    +0.000 C 
ATOM     22  C   UNL     1      59.155  64.125  72.057  0.00  0.00    +0.000 C 
ATOM     23  O   UNL     1      58.468  63.690  72.198  0.00  0.00    +0.000 OA
ATOM     24  C   UNL     1      59.824  63.751  71.752  0.00  0.00    +0.000 C 
ATOM     25  C   UNL     1      59.806  62.943  71.587  0.00  0.00    +0.000 C 
ATOM     26  C   UNL     1      60.475  62.570  71.282  0.00  0.00    +0.000 A 
ATOM     27  C   UNL     1      60.458  61.762  71.117  0.00  0.00    +0.000 A 
ATOM     28  C   UNL     1      61.127  61.388  70.811  0.00  0.00    +0.000 A 
ATOM     29  C   UNL     1      61.814  61.823  70.670  0.00  0.00    +0.000 A 
ATOM     30  C   UNL     1      61.831  62.631  70.835  0.00  0.00    +0.000 A 
ATOM     31  C   UNL     1      61.162  63.005  71.141  0.00  0.00    +0.000 A 
ENDROOT
TORSDOF 0
ENDMDL
MODEL 4
REMARK VINA RESULT:   -11.755     25.580     27.641
REMARK INTER + INTRA:         -11.755
REMARK INTER:                 -11.755
REMARK INTRA:                   0.000
REMARK UNBOUND:                 0.000
ROOT
REMARK  Name = latanoprost
REMARK                            x       y       z     vdW  Elec       q    Type
REMARK                         _______ _______ _______ _____ _____    ______ ____
ATOM      1  C   UNL     1      66.315  81.142  52.868  0.00  0.00    +0.000 C 
ATOM      2  C   UNL     1      67.138  81.198  52.894  0.00  0.00    +0.000 C 
ATOM      3  C   UNL     1      67.505  81.573  53.531  0.00  0.00    +0.000 C 
ATOM      4  O   UNL     1      67.593  80.879  52.285  0.00  0.00    +0.000 OA
ATOM      5  C   UNL     1      68.416  80.935  52.311  0.00  0.00    +0.000 C 
ATOM      6  O   UNL     1      68.783  81.310  52.948  0.00  0.00    +0.000 OA
ATOM      7  C   UNL     1      68.871  80.616  51.702  0.00  0.00    +0.000 C 
ATOM      8  C   UNL     1      69.694  80.672  51.728  0.00  0.00    +0.000 C 
ATOM      9  C   UNL     1      70.149  80.353  51.119  0.00  0.00    +0.000 C 
ATOM     10  C   UNL     1      69.781  79.978  50.483  0.00  0.00    +0.000 C 
ATOM     11  C   UNL     1      70.237  79.658  49.873  0.00  0.00    +0.000 C 
ATOM     12  C   UNL     1      71.059  79.715  49.900  0.00  0.00    +0.000 C 
ATOM     13  C   UNL     1      71.515  79.395  49.290  0.00  0.00    +0.000 C 
ATOM     14  C   UNL     1      71.227  79.007  48.623  0.00  0.00    +0.000 C 
ATOM     15  O   UNL     1      70.433  78.868  48.447  0.00  0.00    +0.000 OA
ATOM     16  C   UNL     1      71.872  78.780  48.161  0.00  0.00    +0.000 C 
ATOM     17  C   UNL     1      72.559  79.029  48.544  0.00  0.00    +0.000 C 
ATOM     18  O   UNL     1      73.331  78.917  48.276  0.00  0.00    +0.000 OA
ATOM     19  C   UNL     1      72.338  79.410  49.242  0.00  0.00    +0.000 C 
ATOM     20  C   UNL     1      72.851  79.745  49.794  0.00  0.00    +0.000 C 
ATOM     21  C   UNL     1      72.549  80.109  50.470  0.00  0.00    +0.000 C 
ATOM     22  C   UNL     1      73.061  80.445  51.023  0.00  0.00    +0.000 C 
ATOM     23  O   UNL     1      73.877  80.416  50.899  0.00  0.00    +0.000 OA
ATOM     24  C   UNL     1      72.759  80.809  51.698  0.00  0.00    +0.000 C 
ATOM     25  C   UNL     1      73.272  81.144  52.251  0.00  0.00    +0.000 C 
ATOM     26  C   UNL     1      72.970  81.508  52.926  0.00  0.00    +0.000 A 
ATOM     27  C   UNL     1      73.482  81.844  53.479  0.00  0.00    +0.000 A 
ATOM     28  C   UNL     1      73.180  82.208  54.155  0.00  0.00    +0.000 A 
ATOM     29  C   UNL     1      72.364  82.236  54.278  0.00  0.00    +0.000 A 
ATOM     30  C   UNL     1      71.852  81.900  53.726  0.00  0.00    +0.000 A 
ATOM     31  C   UNL     1      72.154  81.537  53.050  0.00  0.00    +0.000 A 
ENDROOT
TORSDOF 0
ENDMDL
