MODEL 1
REMARK VINA RESULT:   -12.458      0.000      0.000
REMARK INTER + INTRA:         -12.458
REMARK INTER:                 -12.458
REMARK INTRA:                   0.000
REMARK UNBOUND:                 0.000
ROOT
REMARK  Name = latanoprostene bunod
REMARK                            x       y       z     vdW  Elec       q    Type
REMARK                         _______ _______ _______ _____ _____    ______ ____
ATOM      1  O   UNL     1      60.199  69.026  53.246  0.00  0.00    +0.000 OA
ATOM      2  C   UNL     1      60.410  69.654  53.737  0.00  0.00    +0.000 C 
ATOM      3  C   UNL     1      60.966  69.541  54.337  0.00  0.00    +0.000 C 
ATOM      4  C   UNL     1      61.310  68.800  54.444  0.00  0.00    +0.000 C 
ATOM      5  C   UNL     1      61.865  68.686  55.044  0.00  0.00    +0.000 C 
ATOM      6  C   UNL     1      62.129  69.259  55.575  0.00  0.00    +0.000 C 
ATOM      7  O   UNL     1      61.884  70.047  55.600  0.00  0.00    +0.000 OA
ATOM      8  C   UNL     1      62.682  68.908  56.077  0.00  0.00    +0.000 C 
ATOM      9  C   UNL     1      62.759  68.117  55.856  0.00  0.00    +0.000 C 
ATOM     10  O   UNL     1      63.253  67.560  56.211  0.00  0.00    +0.000 OA
ATOM     11  C   UNL     1      62.255  67.980  55.218  0.00  0.00    +0.000 C 
ATOM     12  C   UNL     1      62.156  67.262  54.822  0.00  0.00    +0.000 C 
ATOM     13  C   UNL     1      61.629  67.209  54.190  0.00  0.00    +0.000 C 
ATOM     14  C   UNL     1      61.531  66.492  53.794  0.00  0.00    +0.000 C 
ATOM     15  C   UNL     1      61.960  65.828  54.031  0.00  0.00    +0.000 C 
ATOM     16  C   UNL     1      61.862  65.111  53.636  0.00  0.00    +0.000 C 
ATOM     17  C   UNL     1      62.291  64.446  53.872  0.00  0.00    +0.000 C 
ATOM     18  C   UNL     1      62.194  63.730  53.477  0.00  0.00    +0.000 C 
ATOM     19  O   UNL     1      61.666  63.676  52.845  0.00  0.00    +0.000 OA
ATOM     20  O   UNL     1      62.623  63.065  53.713  0.00  0.00    +0.000 OA
ATOM     21  C   UNL     1      62.525  62.349  53.318  0.00  0.00    +0.000 C 
ATOM     22  C   UNL     1      62.954  61.684  53.555  0.00  0.00    +0.000 C 
ATOM     23  C   UNL     1      62.856  60.968  53.160  0.00  0.00    +0.000 C 
ATOM     24  C   UNL     1      63.285  60.303  53.396  0.00  0.00    +0.000 C 
ATOM     25  O   UNL     1      63.187  59.587  53.001  0.00  0.00    +0.000 OA
ATOM     26  N   UNL     1      63.616  58.923  53.237  0.00  0.00    +0.000 N 
ATOM     27  O   UNL     1      63.518  58.206  52.842  0.00  0.00    +0.000 OA
ATOM     28  O   UNL     1      64.143  58.977  53.870  0.00  0.00    +0.000 OA
ATOM     29  C   UNL     1      60.065  70.395  53.628  0.00  0.00    +0.000 C 
ATOM     30  C   UNL     1      59.510  70.509  53.030  0.00  0.00    +0.000 C 
ATOM     31  C   UNL     1      59.165  71.251  52.921  0.00  0.00    +0.000 A 
ATOM     32  C   UNL     1      58.610  71.364  52.322  0.00  0.00    +0.000 A 
ATOM     33  C   UNL     1      58.265  72.106  52.214  0.00  0.00    +0.000 A 
ATOM     34  C   UNL     1      58.476  72.734  52.705  0.00  0.00    +0.000 A 
ATOM     35  C   UNL     1      59.031  72.621  53.304  0.00  0.00    +0.000 A 
ATOM     36  C   UNL     1      59.376  71.880  53.413  0.00  0.00    +0.000 A 
ENDROOT
TORSDOF 0
ENDMDL
MODEL 2
REMARK VINA RESULT:   -11.801      1.649      2.463
REMARK INTER + INTRA:         -11.801
REMARK INTER:                 -11.801
REMARK INTRA:                   0.000
REMARK UNBOUND:                 0.000
ROOT
REMARK  Name = latanoprostene bunod
REMARK                            x       y       z     vdW  Elec       q    Type
REMARK                         _______ _______ _______ _____ _____    ______ ____
ATOM      1  O   UNL     1      60.222  69.317  53.962  0.00  0.00    +0.000 OA
ATOM      2  C   UNL     1      60.229  69.877  53.356  0.00  0.00    +0.000 C 
ATOM      3  C   UNL     1      60.560  69.688  52.623  0.00  0.00    +0.000 C 
ATOM      4  C   UNL     1      60.884  68.941  52.498  0.00  0.00    +0.000 C 
ATOM      5  C   UNL     1      61.215  68.753  51.766  0.00  0.00    +0.000 C 
ATOM      6  C   UNL     1      61.262  69.253  51.112  0.00  0.00    +0.000 C 
ATOM      7  O   UNL     1      60.985  70.030  51.075  0.00  0.00    +0.000 OA
ATOM      8  C   UNL     1      61.633  68.841  50.501  0.00  0.00    +0.000 C 
ATOM      9  C   UNL     1      61.816  68.086  50.778  0.00  0.00    +0.000 C 
ATOM     10  O   UNL     1      62.191  67.490  50.349  0.00  0.00    +0.000 OA
ATOM     11  C   UNL     1      61.558  68.032  51.559  0.00  0.00    +0.000 C 
ATOM     12  C   UNL     1      61.629  67.371  52.049  0.00  0.00    +0.000 C 
ATOM     13  C   UNL     1      61.344  67.398  52.822  0.00  0.00    +0.000 C 
ATOM     14  C   UNL     1      61.415  66.738  53.311  0.00  0.00    +0.000 C 
ATOM     15  C   UNL     1      61.773  66.050  53.028  0.00  0.00    +0.000 C 
ATOM     16  C   UNL     1      61.845  65.390  53.517  0.00  0.00    +0.000 C 
ATOM     17  C   UNL     1      62.202  64.703  53.233  0.00  0.00    +0.000 C 
ATOM     18  C   UNL     1      62.274  64.043  53.722  0.00  0.00    +0.000 C 
ATOM     19  O   UNL     1      61.988  64.070  54.495  0.00  0.00    +0.000 OA
ATOM     20  O   UNL     1      62.632  63.355  53.438  0.00  0.00    +0.000 OA
ATOM     21  C   UNL     1      62.703  62.695  53.927  0.00  0.00    +0.000 C 
ATOM     22  C   UNL     1      63.061  62.008  53.644  0.00  0.00    +0.000 C 
ATOM     23  C   UNL     1      63.133  61.348  54.133  0.00  0.00    +0.000 C 
ATOM     24  C   UNL     1      63.490  60.660  53.849  0.00  0.00    +0.000 C 
ATOM     25  O   UNL     1      63.562  60.001  54.338  0.00  0.00    +0.000 OA
ATOM     26  N   UNL     1      63.919  59.314  54.054  0.00  0.00    +0.000 N 
ATOM     27  O   UNL     1      63.991  58.653  54.543  0.00  0.00    +0.000 OA
ATOM     28  O   UNL     1      64.205  59.287  53.281  0.00  0.00    +0.000 OA
ATOM     29  C   UNL     1      59.905  70.624  53.482  0.00  0.00    +0.000 C 
ATOM     30  C   UNL     1      59.574  70.813  54.213  0.00  0.00    +0.000 C 
ATOM     31  C   UNL     1      59.250  71.561  54.340  0.00  0.00    +0.000 A 
ATOM     32  C   UNL     1      58.919  71.749  55.072  0.00  0.00    +0.000 A 
ATOM     33  C   UNL     1      58.594  72.497  55.198  0.00  0.00    +0.000 A 
ATOM     34  C   UNL     1      58.601  73.057  54.592  0.00  0.00    +0.000 A 
ATOM     35  C   UNL     1      58.933  72.869  53.861  0.00  0.00    +0.000 A 
ATOM     36  C   UNL     1      59.257  72.121  53.734  0.00  0.00    +0.000 A 
ENDROOT
TORSDOF 0
ENDMDL
MODEL 3
REMARK VINA RESULT:   -11.106      2.161      4.171
REMARK INTER + INTRA:         -11.106
REMARK INTER:                 -11.106
REMARK INTRA:                   0.000
REMARK UNBOUND:                 0.000
ROOT
REMARK  Name = latanoprostene bunod
REMARK                            x       y       z     vdW  Elec       q    Type
REMARK                         _______ _______ _______ _____ _____    ______ ____
ATOM      1  O   UNL     1      59.419  72.013  55.053  0.00  0.00    +0.000 OA
ATOM      2  C   UNL     1      59.070  72.511  54.497  0.00  0.00    +0.000 C 
ATOM      3  C   UNL     1      59.037  72.286  53.703  0.00  0.00    +0.000 C 
ATOM      4  C   UNL     1      59.354  71.563  53.467  0.00  0.00    +0.000 C 
ATOM      5  C   UNL     1      59.322  71.337  52.674  0.00  0.00    +0.000 C 
ATOM      6  C   UNL     1      58.991  71.776  52.059  0.00  0.00    +0.000 C 
ATOM      7  O   UNL     1      58.635  72.517  52.128  0.00  0.00    +0.000 OA
ATOM      8  C   UNL     1      59.079  71.344  51.361  0.00  0.00    +0.000 C 
ATOM      9  C   UNL     1      59.464  70.638  51.546  0.00  0.00    +0.000 C 
ATOM     10  O   UNL     1      59.664  70.041  51.013  0.00  0.00    +0.000 OA
ATOM     11  C   UNL     1      59.614  70.634  52.357  0.00  0.00    +0.000 C 
ATOM     12  C   UNL     1      59.990  70.032  52.778  0.00  0.00    +0.000 C 
ATOM     13  C   UNL     1      60.102  70.105  53.592  0.00  0.00    +0.000 C 
ATOM     14  C   UNL     1      60.478  69.504  54.012  0.00  0.00    +0.000 C 
ATOM     15  C   UNL     1      60.743  68.828  53.619  0.00  0.00    +0.000 C 
ATOM     16  C   UNL     1      61.118  68.227  54.039  0.00  0.00    +0.000 C 
ATOM     17  C   UNL     1      61.383  67.551  53.646  0.00  0.00    +0.000 C 
ATOM     18  C   UNL     1      61.759  66.949  54.066  0.00  0.00    +0.000 C 
ATOM     19  O   UNL     1      61.871  67.023  54.880  0.00  0.00    +0.000 OA
ATOM     20  O   UNL     1      62.023  66.274  53.673  0.00  0.00    +0.000 OA
ATOM     21  C   UNL     1      62.399  65.672  54.093  0.00  0.00    +0.000 C 
ATOM     22  C   UNL     1      62.664  64.997  53.700  0.00  0.00    +0.000 C 
ATOM     23  C   UNL     1      63.040  64.395  54.120  0.00  0.00    +0.000 C 
ATOM     24  C   UNL     1      63.304  63.719  53.727  0.00  0.00    +0.000 C 
ATOM     25  O   UNL     1      63.680  63.118  54.147  0.00  0.00    +0.000 OA
ATOM     26  N   UNL     1      63.944  62.443  53.754  0.00  0.00    +0.000 N 
ATOM     27  O   UNL     1      64.321  61.841  54.174  0.00  0.00    +0.000 OA
ATOM     28  O   UNL     1      63.832  62.370  52.940  0.00  0.00    +0.000 OA
ATOM     29  C   UNL     1      58.753  73.235  54.734  0.00  0.00    +0.000 C 
ATOM     30  C   UNL     1      58.785  73.460  55.526  0.00  0.00    +0.000 C 
ATOM     31  C   UNL     1      58.468  74.184  55.763  0.00  0.00    +0.000 A 
ATOM     32  C   UNL     1      58.501  74.409  56.556  0.00  0.00    +0.000 A 
ATOM     33  C   UNL     1      58.184  75.133  56.792  0.00  0.00    +0.000 A 
ATOM     34  C   UNL     1      57.834  75.632  56.236  0.00  0.00    +0.000 A 
ATOM     35  C   UNL     1      57.802  75.406  55.443  0.00  0.00    +0.000 A 
ATOM     36  C   UNL     1      58.118  74.683  55.206  0.00  0.00    +0.000 A 
ENDROOT
TORSDOF 0
ENDMDL
MODEL 4
REMARK VINA RESULT:   -11.085     19.948     21.599
REMARK INTER + INTRA:         -11.085
REMARK INTER:                 -11.085
REMARK INTRA:                   0.000
REMARK UNBOUND:                 0.000
ROOT
REMARK  Name = latanoprostene bunod
REMARK                            x       y       z     vdW  Elec       q    Type
REMARK                         _______ _______ _______ _____ _____    ______ ____
ATOM      1  O   UNL     1      81.096  65.044  53.707  0.00  0.00    +0.000 OA
ATOM      2  C   UNL     1      80.985  64.697  54.447  0.00  0.00    +0.000 C 
ATOM      3  C   UNL     1      80.939  65.171  55.122  0.00  0.00    +0.000 C 
ATOM      4  C   UNL     1      81.005  65.990  55.056  0.00  0.00    +0.000 C 
ATOM      5  C   UNL     1      80.960  66.464  55.730  0.00  0.00    +0.000 C 
ATOM      6  C   UNL     1      80.851  66.197  56.503  0.00  0.00    +0.000 C 
ATOM      7  O   UNL     1      80.768  65.410  56.738  0.00  0.00    +0.000 OA
ATOM      8  C   UNL     1      80.839  66.855  57.001  0.00  0.00    +0.000 C 
ATOM      9  C   UNL     1      80.941  67.528  56.535  0.00  0.00    +0.000 C 
ATOM     10  O   UNL     1      80.964  68.307  56.807  0.00  0.00    +0.000 OA
ATOM     11  C   UNL     1      81.015  67.286  55.750  0.00  0.00    +0.000 C 
ATOM     12  C   UNL     1      81.126  67.781  55.098  0.00  0.00    +0.000 C 
ATOM     13  C   UNL     1      81.192  67.458  54.342  0.00  0.00    +0.000 C 
ATOM     14  C   UNL     1      81.302  67.952  53.691  0.00  0.00    +0.000 C 
ATOM     15  C   UNL     1      81.348  68.769  53.796  0.00  0.00    +0.000 C 
ATOM     16  C   UNL     1      81.458  69.263  53.145  0.00  0.00    +0.000 C 
ATOM     17  C   UNL     1      81.504  70.081  53.250  0.00  0.00    +0.000 C 
ATOM     18  C   UNL     1      81.614  70.575  52.599  0.00  0.00    +0.000 C 
ATOM     19  O   UNL     1      81.680  70.252  51.843  0.00  0.00    +0.000 OA
ATOM     20  O   UNL     1      81.660  71.392  52.703  0.00  0.00    +0.000 OA
ATOM     21  C   UNL     1      81.770  71.886  52.053  0.00  0.00    +0.000 C 
ATOM     22  C   UNL     1      81.816  72.703  52.157  0.00  0.00    +0.000 C 
ATOM     23  C   UNL     1      81.926  73.197  51.507  0.00  0.00    +0.000 C 
ATOM     24  C   UNL     1      81.972  74.014  51.611  0.00  0.00    +0.000 C 
ATOM     25  O   UNL     1      82.082  74.508  50.961  0.00  0.00    +0.000 OA
ATOM     26  N   UNL     1      82.128  75.325  51.065  0.00  0.00    +0.000 N 
ATOM     27  O   UNL     1      82.239  75.820  50.415  0.00  0.00    +0.000 OA
ATOM     28  O   UNL     1      82.062  75.648  51.822  0.00  0.00    +0.000 OA
ATOM     29  C   UNL     1      80.919  63.878  54.513  0.00  0.00    +0.000 C 
ATOM     30  C   UNL     1      80.965  63.405  53.840  0.00  0.00    +0.000 C 
ATOM     31  C   UNL     1      80.899  62.585  53.906  0.00  0.00    +0.000 A 
ATOM     32  C   UNL     1      80.944  62.112  53.232  0.00  0.00    +0.000 A 
ATOM     33  C   UNL     1      80.879  61.292  53.298  0.00  0.00    +0.000 A 
ATOM     34  C   UNL     1      80.768  60.946  54.038  0.00  0.00    +0.000 A 
ATOM     35  C   UNL     1      80.723  61.419  54.712  0.00  0.00    +0.000 A 
ATOM     36  C   UNL     1      80.788  62.238  54.646  0.00  0.00    +0.000 A 
ENDROOT
TORSDOF 0
ENDMDL
MODEL 5
REMARK VINA RESULT:   -10.926      3.244      9.558
REMARK INTER + INTRA:         -10.926
REMARK INTER:                 -10.926
REMARK INTRA:                   0.000
REMARK UNBOUND:                 0.000
ROOT
REMARK  Name = latanoprostene bunod
REMARK                            x       y       z     vdW  Elec       q    Type
REMARK                         _______ _______ _______ _____ _____    ______ ____
ATOM      1  O   UNL     1      62.602  61.178  50.763  0.00  0.00    +0.000 OA
ATOM      2  C   UNL     1      63.114  60.619  51.090  0.00  0.00    +0.000 C 
ATOM      3  C   UNL     1      63.526  60.792  51.784  0.00  0.00    +0.000 C 
ATOM      4  C   UNL     1      63.426  61.523  52.151  0.00  0.00    +0.000 C 
ATOM      5  C   UNL     1      63.837  61.696  52.845  0.00  0.00    +0.000 C 
ATOM      6  C   UNL     1      64.364  61.195  53.233  0.00  0.00    +0.000 C 
ATOM      7  O   UNL     1      64.573  60.432  52.997  0.00  0.00    +0.000 OA
ATOM      8  C   UNL     1      64.647  61.589  53.901  0.00  0.00    +0.000 C 
ATOM      9  C   UNL     1      64.294  62.334  53.924  0.00  0.00    +0.000 C 
ATOM     10  O   UNL     1      64.420  62.912  54.500  0.00  0.00    +0.000 OA
ATOM     11  C   UNL     1      63.794  62.400  53.272  0.00  0.00    +0.000 C 
ATOM     12  C   UNL     1      63.331  63.056  53.080  0.00  0.00    +0.000 C 
ATOM     13  C   UNL     1      62.855  63.042  52.406  0.00  0.00    +0.000 C 
ATOM     14  C   UNL     1      62.393  63.697  52.215  0.00  0.00    +0.000 C 
ATOM     15  C   UNL     1      62.405  64.367  52.696  0.00  0.00    +0.000 C 
ATOM     16  C   UNL     1      61.943  65.022  52.505  0.00  0.00    +0.000 C 
ATOM     17  C   UNL     1      61.956  65.692  52.987  0.00  0.00    +0.000 C 
ATOM     18  C   UNL     1      61.494  66.347  52.795  0.00  0.00    +0.000 C 
ATOM     19  O   UNL     1      61.018  66.333  52.121  0.00  0.00    +0.000 OA
ATOM     20  O   UNL     1      61.506  67.017  53.277  0.00  0.00    +0.000 OA
ATOM     21  C   UNL     1      61.044  67.673  53.085  0.00  0.00    +0.000 C 
ATOM     22  C   UNL     1      61.057  68.342  53.567  0.00  0.00    +0.000 C 
ATOM     23  C   UNL     1      60.595  68.998  53.375  0.00  0.00    +0.000 C 
ATOM     24  C   UNL     1      60.607  69.668  53.857  0.00  0.00    +0.000 C 
ATOM     25  O   UNL     1      60.145  70.323  53.665  0.00  0.00    +0.000 OA
ATOM     26  N   UNL     1      60.158  70.992  54.147  0.00  0.00    +0.000 N 
ATOM     27  O   UNL     1      59.696  71.648  53.956  0.00  0.00    +0.000 OA
ATOM     28  O   UNL     1      60.634  71.006  54.821  0.00  0.00    +0.000 OA
ATOM     29  C   UNL     1      63.213  59.887  50.722  0.00  0.00    +0.000 C 
ATOM     30  C   UNL     1      62.802  59.714  50.029  0.00  0.00    +0.000 C 
ATOM     31  C   UNL     1      62.902  58.982  49.661  0.00  0.00    +0.000 A 
ATOM     32  C   UNL     1      62.490  58.810  48.968  0.00  0.00    +0.000 A 
ATOM     33  C   UNL     1      62.590  58.078  48.600  0.00  0.00    +0.000 A 
ATOM     34  C   UNL     1      63.101  57.519  48.926  0.00  0.00    +0.000 A 
ATOM     35  C   UNL     1      63.513  57.692  49.620  0.00  0.00    +0.000 A 
ATOM     36  C   UNL     1      63.413  58.423  49.988  0.00  0.00    +0.000 A 
ENDROOT
TORSDOF 0
ENDMDL
MODEL 6
REMARK VINA RESULT:   -10.793      3.086      9.455
REMARK INTER + INTRA:         -10.793
REMARK INTER:                 -10.793
REMARK INTRA:                   0.000
REMARK UNBOUND:                 0.000
ROOT
REMARK  Name = latanoprostene bunod
REMARK                            x       y       z     vdW  Elec       q    Type
REMARK                         _______ _______ _______ _____ _____    ______ ____
ATOM      1  O   UNL     1      62.673  62.416  53.462  0.00  0.00    +0.000 OA
ATOM      2  C   UNL     1      62.889  61.995  52.787  0.00  0.00    +0.000 C 
ATOM      3  C   UNL     1      62.862  62.359  52.046  0.00  0.00    +0.000 C 
ATOM      4  C   UNL     1      62.618  63.144  51.982  0.00  0.00    +0.000 C 
ATOM      5  C   UNL     1      62.591  63.508  51.242  0.00  0.00    +0.000 C 
ATOM      6  C   UNL     1      62.790  63.158  50.522  0.00  0.00    +0.000 C 
ATOM      7  O   UNL     1      63.052  62.383  50.415  0.00  0.00    +0.000 OA
ATOM      8  C   UNL     1      62.682  63.719  49.927  0.00  0.00    +0.000 C 
ATOM      9  C   UNL     1      62.416  64.416  50.280  0.00  0.00    +0.000 C 
ATOM     10  O   UNL     1      62.238  65.120  49.888  0.00  0.00    +0.000 OA
ATOM     11  C   UNL     1      62.360  64.285  51.092  0.00  0.00    +0.000 C 
ATOM     12  C   UNL     1      62.116  64.836  51.656  0.00  0.00    +0.000 C 
ATOM     13  C   UNL     1      62.087  64.625  52.453  0.00  0.00    +0.000 C 
ATOM     14  C   UNL     1      61.843  65.175  53.017  0.00  0.00    +0.000 C 
ATOM     15  C   UNL     1      61.627  65.937  52.784  0.00  0.00    +0.000 C 
ATOM     16  C   UNL     1      61.382  66.487  53.348  0.00  0.00    +0.000 C 
ATOM     17  C   UNL     1      61.166  67.249  53.115  0.00  0.00    +0.000 C 
ATOM     18  C   UNL     1      60.922  67.799  53.678  0.00  0.00    +0.000 C 
ATOM     19  O   UNL     1      60.894  67.588  54.475  0.00  0.00    +0.000 OA
ATOM     20  O   UNL     1      60.706  68.560  53.446  0.00  0.00    +0.000 OA
ATOM     21  C   UNL     1      60.462  69.110  54.009  0.00  0.00    +0.000 C 
ATOM     22  C   UNL     1      60.246  69.872  53.777  0.00  0.00    +0.000 C 
ATOM     23  C   UNL     1      60.002  70.422  54.340  0.00  0.00    +0.000 C 
ATOM     24  C   UNL     1      59.786  71.184  54.107  0.00  0.00    +0.000 C 
ATOM     25  O   UNL     1      59.541  71.734  54.671  0.00  0.00    +0.000 OA
ATOM     26  N   UNL     1      59.326  72.495  54.438  0.00  0.00    +0.000 N 
ATOM     27  O   UNL     1      59.081  73.046  55.001  0.00  0.00    +0.000 OA
ATOM     28  O   UNL     1      59.354  72.706  53.641  0.00  0.00    +0.000 OA
ATOM     29  C   UNL     1      63.133  61.210  52.852  0.00  0.00    +0.000 C 
ATOM     30  C   UNL     1      63.160  60.846  53.590  0.00  0.00    +0.000 C 
ATOM     31  C   UNL     1      63.404  60.060  53.655  0.00  0.00    +0.000 A 
ATOM     32  C   UNL     1      63.432  59.696  54.395  0.00  0.00    +0.000 A 
ATOM     33  C   UNL     1      63.675  58.910  54.460  0.00  0.00    +0.000 A 
ATOM     34  C   UNL     1      63.892  58.489  53.785  0.00  0.00    +0.000 A 
ATOM     35  C   UNL     1      63.865  58.853  53.045  0.00  0.00    +0.000 A 
ATOM     36  C   UNL     1      63.621  59.638  52.980  0.00  0.00    +0.000 A 
ENDROOT
TORSDOF 0
ENDMDL
MODEL 7
REMARK VINA RESULT:   -10.704      3.960      9.085
REMARK INTER + INTRA:         -10.704
REMARK INTER:                 -10.704
REMARK INTRA:                   0.000
REMARK UNBOUND:                 0.000
ROOT
REMARK  Name = latanoprostene bunod
REMARK                            x       y       z     vdW  Elec       q    Type
REMARK                         _______ _______ _______ _____ _____    ______ ____
ATOM      1  O   UNL     1      61.842  65.810  52.854  0.00  0.00    +0.000 OA
ATOM      2  C   UNL     1      62.174  65.645  53.590  0.00  0.00    +0.000 C 
ATOM      3  C   UNL     1      62.258  66.246  54.150  0.00  0.00    +0.000 C 
ATOM      4  C   UNL     1      62.009  67.012  53.972  0.00  0.00    +0.000 C 
ATOM      5  C   UNL     1      62.093  67.613  54.531  0.00  0.00    +0.000 C 
ATOM      6  C   UNL     1      62.414  67.531  55.287  0.00  0.00    +0.000 C 
ATOM      7  O   UNL     1      62.707  66.833  55.616  0.00  0.00    +0.000 OA
ATOM      8  C   UNL     1      62.390  68.268  55.656  0.00  0.00    +0.000 C 
ATOM      9  C   UNL     1      62.055  68.806  55.128  0.00  0.00    +0.000 C 
ATOM     10  O   UNL     1      61.925  69.608  55.270  0.00  0.00    +0.000 OA
ATOM     11  C   UNL     1      61.871  68.401  54.434  0.00  0.00    +0.000 C 
ATOM     12  C   UNL     1      61.526  68.727  53.758  0.00  0.00    +0.000 C 
ATOM     13  C   UNL     1      61.374  68.252  53.101  0.00  0.00    +0.000 C 
ATOM     14  C   UNL     1      61.030  68.578  52.427  0.00  0.00    +0.000 C 
ATOM     15  C   UNL     1      60.836  69.380  52.409  0.00  0.00    +0.000 C 
ATOM     16  C   UNL     1      60.492  69.706  51.734  0.00  0.00    +0.000 C 
ATOM     17  C   UNL     1      60.298  70.508  51.716  0.00  0.00    +0.000 C 
ATOM     18  C   UNL     1      59.954  70.834  51.042  0.00  0.00    +0.000 C 
ATOM     19  O   UNL     1      59.802  70.358  50.385  0.00  0.00    +0.000 OA
ATOM     20  O   UNL     1      59.760  71.636  51.023  0.00  0.00    +0.000 OA
ATOM     21  C   UNL     1      59.416  71.962  50.349  0.00  0.00    +0.000 C 
ATOM     22  C   UNL     1      59.222  72.764  50.330  0.00  0.00    +0.000 C 
ATOM     23  C   UNL     1      58.878  73.090  49.656  0.00  0.00    +0.000 C 
ATOM     24  C   UNL     1      58.684  73.892  49.637  0.00  0.00    +0.000 C 
ATOM     25  O   UNL     1      58.340  74.218  48.963  0.00  0.00    +0.000 OA
ATOM     26  N   UNL     1      58.147  75.019  48.945  0.00  0.00    +0.000 N 
ATOM     27  O   UNL     1      57.802  75.346  48.271  0.00  0.00    +0.000 OA
ATOM     28  O   UNL     1      58.298  75.495  49.602  0.00  0.00    +0.000 OA
ATOM     29  C   UNL     1      62.422  64.879  53.767  0.00  0.00    +0.000 C 
ATOM     30  C   UNL     1      62.339  64.278  53.209  0.00  0.00    +0.000 C 
ATOM     31  C   UNL     1      62.587  63.511  53.387  0.00  0.00    +0.000 A 
ATOM     32  C   UNL     1      62.503  62.911  52.827  0.00  0.00    +0.000 A 
ATOM     33  C   UNL     1      62.752  62.144  53.005  0.00  0.00    +0.000 A 
ATOM     34  C   UNL     1      63.084  61.979  53.741  0.00  0.00    +0.000 A 
ATOM     35  C   UNL     1      63.168  62.580  54.300  0.00  0.00    +0.000 A 
ATOM     36  C   UNL     1      62.920  63.346  54.123  0.00  0.00    +0.000 A 
ENDROOT
TORSDOF 0
ENDMDL
MODEL 8
REMARK VINA RESULT:   -10.618      3.591      9.317
REMARK INTER + INTRA:         -10.618
REMARK INTER:                 -10.618
REMARK INTRA:                   0.000
REMARK UNBOUND:                 0.000
ROOT
REMARK  Name = latanoprostene bunod
REMARK                            x       y       z     vdW  Elec       q    Type
REMARK                         _______ _______ _______ _____ _____    ______ ____
ATOM      1  O   UNL     1      62.574  64.513  53.364  0.00  0.00    +0.000 OA
ATOM      2  C   UNL     1      62.676  64.110  52.652  0.00  0.00    +0.000 C 
ATOM      3  C   UNL     1      62.442  64.462  51.942  0.00  0.00    +0.000 C 
ATOM      4  C   UNL     1      62.108  65.215  51.946  0.00  0.00    +0.000 C 
ATOM      5  C   UNL     1      61.874  65.567  51.237  0.00  0.00    +0.000 C 
ATOM      6  C   UNL     1      61.941  65.233  50.486  0.00  0.00    +0.000 C 
ATOM      7  O   UNL     1      62.253  64.489  50.311  0.00  0.00    +0.000 OA
ATOM      8  C   UNL     1      61.642  65.773  49.938  0.00  0.00    +0.000 C 
ATOM      9  C   UNL     1      61.390  66.441  50.352  0.00  0.00    +0.000 C 
ATOM     10  O   UNL     1      61.053  67.118  50.022  0.00  0.00    +0.000 OA
ATOM     11  C   UNL     1      61.534  66.313  51.154  0.00  0.00    +0.000 C 
ATOM     12  C   UNL     1      61.366  66.840  51.767  0.00  0.00    +0.000 C 
ATOM     13  C   UNL     1      61.541  66.636  52.547  0.00  0.00    +0.000 C 
ATOM     14  C   UNL     1      61.374  67.162  53.159  0.00  0.00    +0.000 C 
ATOM     15  C   UNL     1      61.031  67.894  52.992  0.00  0.00    +0.000 C 
ATOM     16  C   UNL     1      60.863  68.420  53.604  0.00  0.00    +0.000 C 
ATOM     17  C   UNL     1      60.520  69.152  53.438  0.00  0.00    +0.000 C 
ATOM     18  C   UNL     1      60.352  69.678  54.050  0.00  0.00    +0.000 C 
ATOM     19  O   UNL     1      60.528  69.473  54.829  0.00  0.00    +0.000 OA
ATOM     20  O   UNL     1      60.009  70.410  53.883  0.00  0.00    +0.000 OA
ATOM     21  C   UNL     1      59.841  70.936  54.495  0.00  0.00    +0.000 C 
ATOM     22  C   UNL     1      59.498  71.668  54.329  0.00  0.00    +0.000 C 
ATOM     23  C   UNL     1      59.330  72.194  54.941  0.00  0.00    +0.000 C 
ATOM     24  C   UNL     1      58.987  72.926  54.774  0.00  0.00    +0.000 C 
ATOM     25  O   UNL     1      58.819  73.452  55.386  0.00  0.00    +0.000 OA
ATOM     26  N   UNL     1      58.476  74.183  55.219  0.00  0.00    +0.000 N 
ATOM     27  O   UNL     1      58.308  74.710  55.832  0.00  0.00    +0.000 OA
ATOM     28  O   UNL     1      58.300  74.387  54.440  0.00  0.00    +0.000 OA
ATOM     29  C   UNL     1      63.010  63.357  52.648  0.00  0.00    +0.000 C 
ATOM     30  C   UNL     1      63.243  63.005  53.356  0.00  0.00    +0.000 C 
ATOM     31  C   UNL     1      63.578  62.251  53.353  0.00  0.00    +0.000 A 
ATOM     32  C   UNL     1      63.811  61.900  54.062  0.00  0.00    +0.000 A 
ATOM     33  C   UNL     1      64.146  61.146  54.058  0.00  0.00    +0.000 A 
ATOM     34  C   UNL     1      64.248  60.743  53.346  0.00  0.00    +0.000 A 
ATOM     35  C   UNL     1      64.015  61.095  52.637  0.00  0.00    +0.000 A 
ATOM     36  C   UNL     1      63.680  61.848  52.640  0.00  0.00    +0.000 A 
ENDROOT
TORSDOF 0
ENDMDL
MODEL 9
REMARK VINA RESULT:   -10.555      3.082      3.930
REMARK INTER + INTRA:         -10.555
REMARK INTER:                 -10.555
REMARK INTRA:                   0.000
REMARK UNBOUND:                 0.000
ROOT
REMARK  Name = latanoprostene bunod
REMARK                            x       y       z     vdW  Elec       q    Type
REMARK                         _______ _______ _______ _____ _____    ______ ____
ATOM      1  O   UNL     1      60.667  68.774  50.994  0.00  0.00    +0.000 OA
ATOM      2  C   UNL     1      60.826  69.165  50.285  0.00  0.00    +0.000 C 
ATOM      3  C   UNL     1      61.273  68.791  49.699  0.00  0.00    +0.000 C 
ATOM      4  C   UNL     1      61.559  68.028  49.824  0.00  0.00    +0.000 C 
ATOM      5  C   UNL     1      62.006  67.655  49.239  0.00  0.00    +0.000 C 
ATOM      6  C   UNL     1      62.209  67.974  48.506  0.00  0.00    +0.000 C 
ATOM      7  O   UNL     1      62.000  68.724  48.229  0.00  0.00    +0.000 OA
ATOM      8  C   UNL     1      62.656  67.414  48.098  0.00  0.00    +0.000 C 
ATOM      9  C   UNL     1      62.730  66.748  48.579  0.00  0.00    +0.000 C 
ATOM     10  O   UNL     1      63.134  66.055  48.388  0.00  0.00    +0.000 OA
ATOM     11  C   UNL     1      62.328  66.897  49.283  0.00  0.00    +0.000 C 
ATOM     12  C   UNL     1      62.260  66.378  49.922  0.00  0.00    +0.000 C 
ATOM     13  C   UNL     1      61.839  66.605  50.595  0.00  0.00    +0.000 C 
ATOM     14  C   UNL     1      61.771  66.087  51.232  0.00  0.00    +0.000 C 
ATOM     15  C   UNL     1      62.125  65.342  51.199  0.00  0.00    +0.000 C 
ATOM     16  C   UNL     1      62.057  64.824  51.837  0.00  0.00    +0.000 C 
ATOM     17  C   UNL     1      62.410  64.079  51.803  0.00  0.00    +0.000 C 
ATOM     18  C   UNL     1      62.343  63.561  52.441  0.00  0.00    +0.000 C 
ATOM     19  O   UNL     1      61.921  63.787  53.113  0.00  0.00    +0.000 OA
ATOM     20  O   UNL     1      62.696  62.816  52.408  0.00  0.00    +0.000 OA
ATOM     21  C   UNL     1      62.628  62.298  53.045  0.00  0.00    +0.000 C 
ATOM     22  C   UNL     1      62.982  61.553  53.012  0.00  0.00    +0.000 C 
ATOM     23  C   UNL     1      62.914  61.035  53.650  0.00  0.00    +0.000 C 
ATOM     24  C   UNL     1      63.267  60.290  53.616  0.00  0.00    +0.000 C 
ATOM     25  O   UNL     1      63.200  59.772  54.254  0.00  0.00    +0.000 OA
ATOM     26  N   UNL     1      63.553  59.028  54.220  0.00  0.00    +0.000 N 
ATOM     27  O   UNL     1      63.485  58.509  54.858  0.00  0.00    +0.000 OA
ATOM     28  O   UNL     1      63.974  58.801  53.548  0.00  0.00    +0.000 OA
ATOM     29  C   UNL     1      60.539  69.927  50.161  0.00  0.00    +0.000 C 
ATOM     30  C   UNL     1      60.093  70.301  50.745  0.00  0.00    +0.000 C 
ATOM     31  C   UNL     1      59.806  71.064  50.621  0.00  0.00    +0.000 A 
ATOM     32  C   UNL     1      59.360  71.437  51.206  0.00  0.00    +0.000 A 
ATOM     33  C   UNL     1      59.073  72.201  51.082  0.00  0.00    +0.000 A 
ATOM     34  C   UNL     1      59.232  72.591  50.373  0.00  0.00    +0.000 A 
ATOM     35  C   UNL     1      59.678  72.218  49.788  0.00  0.00    +0.000 A 
ATOM     36  C   UNL     1      59.965  71.455  49.912  0.00  0.00    +0.000 A 
ENDROOT
TORSDOF 0
ENDMDL
