MODEL 1
REMARK VINA RESULT:   -10.194      0.000      0.000
REMARK INTER + INTRA:         -10.194
REMARK INTER:                 -10.194
REMARK INTRA:                   0.000
REMARK UNBOUND:                 0.000
ROOT
REMARK  Name = lenalidomide
REMARK                            x       y       z     vdW  Elec       q    Type
REMARK                         _______ _______ _______ _____ _____    ______ ____
ATOM      1  N   UNL     1      61.820  63.601  68.015  0.00  0.00    +0.000 NA
ATOM      2  C   UNL     1      61.124  63.211  67.800  0.00  0.00    +0.000 A 
ATOM      3  C   UNL     1      61.078  62.822  67.074  0.00  0.00    +0.000 A 
ATOM      4  C   UNL     1      61.622  62.729  66.461  0.00  0.00    +0.000 C 
ATOM      5  N   UNL     1      61.264  62.282  65.867  0.00  0.00    +0.000 N 
ATOM      6  C   UNL     1      61.610  62.057  65.153  0.00  0.00    +0.000 C 
ATOM      7  C   UNL     1      62.385  62.282  64.982  0.00  0.00    +0.000 C 
ATOM      8  C   UNL     1      62.731  62.057  64.268  0.00  0.00    +0.000 C 
ATOM      9  C   UNL     1      62.303  61.608  63.725  0.00  0.00    +0.000 C 
ATOM     10  O   UNL     1      62.649  61.384  63.011  0.00  0.00    +0.000 OA
ATOM     11  N   UNL     1      61.528  61.383  63.896  0.00  0.00    +0.000 NA
ATOM     12  C   UNL     1      61.181  61.608  64.610  0.00  0.00    +0.000 C 
ATOM     13  O   UNL     1      60.407  61.383  64.781  0.00  0.00    +0.000 OA
ATOM     14  C   UNL     1      60.497  62.099  66.113  0.00  0.00    +0.000 C 
ATOM     15  O   UNL     1      59.943  61.659  65.688  0.00  0.00    +0.000 OA
ATOM     16  C   UNL     1      60.383  62.433  66.859  0.00  0.00    +0.000 A 
ATOM     17  C   UNL     1      59.734  62.433  67.371  0.00  0.00    +0.000 A 
ATOM     18  C   UNL     1      59.782  62.822  68.096  0.00  0.00    +0.000 A 
ATOM     19  C   UNL     1      60.477  63.211  68.311  0.00  0.00    +0.000 A 
ENDROOT
TORSDOF 0
ENDMDL
MODEL 2
REMARK VINA RESULT:   -10.022      1.400      3.640
REMARK INTER + INTRA:         -10.022
REMARK INTER:                 -10.022
REMARK INTRA:                   0.000
REMARK UNBOUND:                 0.000
ROOT
REMARK  Name = lenalidomide
REMARK                            x       y       z     vdW  Elec       q    Type
REMARK                         _______ _______ _______ _____ _____    ______ ____
ATOM      1  N   UNL     1      62.759  62.372  64.823  0.00  0.00    +0.000 NA
ATOM      2  C   UNL     1      62.005  62.035  64.823  0.00  0.00    +0.000 A 
ATOM      3  C   UNL     1      61.483  62.194  65.443  0.00  0.00    +0.000 A 
ATOM      4  C   UNL     1      61.557  62.657  66.122  0.00  0.00    +0.000 C 
ATOM      5  N   UNL     1      60.849  62.607  66.543  0.00  0.00    +0.000 N 
ATOM      6  C   UNL     1      60.681  62.984  67.257  0.00  0.00    +0.000 C 
ATOM      7  C   UNL     1      61.250  63.463  67.613  0.00  0.00    +0.000 C 
ATOM      8  C   UNL     1      61.082  63.840  68.328  0.00  0.00    +0.000 C 
ATOM      9  C   UNL     1      60.346  63.738  68.685  0.00  0.00    +0.000 C 
ATOM     10  O   UNL     1      60.178  64.115  69.399  0.00  0.00    +0.000 OA
ATOM     11  N   UNL     1      59.777  63.259  68.329  0.00  0.00    +0.000 NA
ATOM     12  C   UNL     1      59.944  62.881  67.614  0.00  0.00    +0.000 C 
ATOM     13  O   UNL     1      59.376  62.403  67.258  0.00  0.00    +0.000 OA
ATOM     14  C   UNL     1      60.337  62.114  66.123  0.00  0.00    +0.000 C 
ATOM     15  O   UNL     1      59.568  61.911  66.344  0.00  0.00    +0.000 OA
ATOM     16  C   UNL     1      60.730  61.859  65.443  0.00  0.00    +0.000 A 
ATOM     17  C   UNL     1      60.498  61.364  64.824  0.00  0.00    +0.000 A 
ATOM     18  C   UNL     1      61.020  61.205  64.206  0.00  0.00    +0.000 A 
ATOM     19  C   UNL     1      61.773  61.541  64.205  0.00  0.00    +0.000 A 
ENDROOT
TORSDOF 0
ENDMDL
MODEL 3
REMARK VINA RESULT:    -9.330      3.095      4.624
REMARK INTER + INTRA:          -9.330
REMARK INTER:                  -9.330
REMARK INTRA:                   0.000
REMARK UNBOUND:                 0.000
ROOT
REMARK  Name = lenalidomide
REMARK                            x       y       z     vdW  Elec       q    Type
REMARK                         _______ _______ _______ _____ _____    ______ ____
ATOM      1  N   UNL     1      61.759  61.176  71.775  0.00  0.00    +0.000 NA
ATOM      2  C   UNL     1      61.540  61.970  71.839  0.00  0.00    +0.000 A 
ATOM      3  C   UNL     1      61.212  62.361  71.191  0.00  0.00    +0.000 A 
ATOM      4  C   UNL     1      61.038  62.110  70.424  0.00  0.00    +0.000 C 
ATOM      5  N   UNL     1      60.712  62.748  70.015  0.00  0.00    +0.000 N 
ATOM      6  C   UNL     1      60.459  62.742  69.230  0.00  0.00    +0.000 C 
ATOM      7  C   UNL     1      60.521  62.052  68.782  0.00  0.00    +0.000 C 
ATOM      8  C   UNL     1      60.267  62.046  67.997  0.00  0.00    +0.000 C 
ATOM      9  C   UNL     1      59.952  62.730  67.660  0.00  0.00    +0.000 C 
ATOM     10  O   UNL     1      59.698  62.723  66.875  0.00  0.00    +0.000 OA
ATOM     11  N   UNL     1      59.890  63.420  68.108  0.00  0.00    +0.000 NA
ATOM     12  C   UNL     1      60.143  63.426  68.893  0.00  0.00    +0.000 C 
ATOM     13  O   UNL     1      60.081  64.115  69.341  0.00  0.00    +0.000 OA
ATOM     14  C   UNL     1      60.685  63.394  70.528  0.00  0.00    +0.000 C 
ATOM     15  O   UNL     1      60.399  64.146  70.347  0.00  0.00    +0.000 OA
ATOM     16  C   UNL     1      60.994  63.154  71.255  0.00  0.00    +0.000 A 
ATOM     17  C   UNL     1      61.105  63.557  71.968  0.00  0.00    +0.000 A 
ATOM     18  C   UNL     1      61.433  63.165  72.615  0.00  0.00    +0.000 A 
ATOM     19  C   UNL     1      61.651  62.372  72.551  0.00  0.00    +0.000 A 
ENDROOT
TORSDOF 0
ENDMDL
MODEL 4
REMARK VINA RESULT:    -9.184      5.706      7.325
REMARK INTER + INTRA:          -9.184
REMARK INTER:                  -9.184
REMARK INTRA:                   0.000
REMARK UNBOUND:                 0.000
ROOT
REMARK  Name = lenalidomide
REMARK                            x       y       z     vdW  Elec       q    Type
REMARK                         _______ _______ _______ _____ _____    ______ ____
ATOM      1  N   UNL     1      66.168  66.671  72.200  0.00  0.00    +0.000 NA
ATOM      2  C   UNL     1      66.019  66.869  71.412  0.00  0.00    +0.000 A 
ATOM      3  C   UNL     1      65.343  66.582  71.036  0.00  0.00    +0.000 A 
ATOM      4  C   UNL     1      64.728  66.098  71.298  0.00  0.00    +0.000 C 
ATOM      5  N   UNL     1      64.200  65.996  70.673  0.00  0.00    +0.000 N 
ATOM      6  C   UNL     1      63.505  65.551  70.692  0.00  0.00    +0.000 C 
ATOM      7  C   UNL     1      63.288  65.157  71.383  0.00  0.00    +0.000 C 
ATOM      8  C   UNL     1      62.593  64.712  71.403  0.00  0.00    +0.000 C 
ATOM      9  C   UNL     1      62.118  64.661  70.731  0.00  0.00    +0.000 C 
ATOM     10  O   UNL     1      61.423  64.216  70.751  0.00  0.00    +0.000 OA
ATOM     11  N   UNL     1      62.335  65.055  70.039  0.00  0.00    +0.000 NA
ATOM     12  C   UNL     1      63.030  65.500  70.020  0.00  0.00    +0.000 C 
ATOM     13  O   UNL     1      63.248  65.894  69.329  0.00  0.00    +0.000 OA
ATOM     14  C   UNL     1      64.487  66.418  70.024  0.00  0.00    +0.000 C 
ATOM     15  O   UNL     1      64.131  66.469  69.282  0.00  0.00    +0.000 OA
ATOM     16  C   UNL     1      65.194  66.780  70.249  0.00  0.00    +0.000 A 
ATOM     17  C   UNL     1      65.721  67.265  69.838  0.00  0.00    +0.000 A 
ATOM     18  C   UNL     1      66.397  67.551  70.216  0.00  0.00    +0.000 A 
ATOM     19  C   UNL     1      66.546  67.354  71.003  0.00  0.00    +0.000 A 
ENDROOT
TORSDOF 0
ENDMDL
MODEL 5
REMARK VINA RESULT:    -8.935      4.788      6.413
REMARK INTER + INTRA:          -8.935
REMARK INTER:                  -8.935
REMARK INTRA:                   0.000
REMARK UNBOUND:                 0.000
ROOT
REMARK  Name = lenalidomide
REMARK                            x       y       z     vdW  Elec       q    Type
REMARK                         _______ _______ _______ _____ _____    ______ ____
ATOM      1  N   UNL     1      60.673  62.969  68.762  0.00  0.00    +0.000 NA
ATOM      2  C   UNL     1      60.539  62.789  69.556  0.00  0.00    +0.000 A 
ATOM      3  C   UNL     1      60.301  63.382  70.079  0.00  0.00    +0.000 A 
ATOM      4  C   UNL     1      60.155  64.187  69.971  0.00  0.00    +0.000 C 
ATOM      5  N   UNL     1      59.931  64.505  70.698  0.00  0.00    +0.000 N 
ATOM      6  C   UNL     1      59.734  65.293  70.844  0.00  0.00    +0.000 C 
ATOM      7  C   UNL     1      59.752  65.842  70.229  0.00  0.00    +0.000 C 
ATOM      8  C   UNL     1      59.555  66.630  70.374  0.00  0.00    +0.000 C 
ATOM      9  C   UNL     1      59.340  66.868  71.134  0.00  0.00    +0.000 C 
ATOM     10  O   UNL     1      59.143  67.656  71.279  0.00  0.00    +0.000 OA
ATOM     11  N   UNL     1      59.322  66.319  71.749  0.00  0.00    +0.000 NA
ATOM     12  C   UNL     1      59.519  65.531  71.604  0.00  0.00    +0.000 C 
ATOM     13  O   UNL     1      59.501  64.982  72.219  0.00  0.00    +0.000 OA
ATOM     14  C   UNL     1      59.938  63.896  71.256  0.00  0.00    +0.000 C 
ATOM     15  O   UNL     1      59.749  63.969  72.056  0.00  0.00    +0.000 OA
ATOM     16  C   UNL     1      60.166  63.202  70.873  0.00  0.00    +0.000 A 
ATOM     17  C   UNL     1      60.270  62.429  71.144  0.00  0.00    +0.000 A 
ATOM     18  C   UNL     1      60.507  61.837  70.621  0.00  0.00    +0.000 A 
ATOM     19  C   UNL     1      60.642  62.017  69.827  0.00  0.00    +0.000 A 
ENDROOT
TORSDOF 0
ENDMDL
MODEL 6
REMARK VINA RESULT:    -8.920      2.293      4.146
REMARK INTER + INTRA:          -8.920
REMARK INTER:                  -8.920
REMARK INTRA:                   0.000
REMARK UNBOUND:                 0.000
ROOT
REMARK  Name = lenalidomide
REMARK                            x       y       z     vdW  Elec       q    Type
REMARK                         _______ _______ _______ _____ _____    ______ ____
ATOM      1  N   UNL     1      61.875  62.015  65.975  0.00  0.00    +0.000 NA
ATOM      2  C   UNL     1      61.111  62.166  66.251  0.00  0.00    +0.000 A 
ATOM      3  C   UNL     1      61.001  62.618  66.933  0.00  0.00    +0.000 A 
ATOM      4  C   UNL     1      61.535  62.985  67.445  0.00  0.00    +0.000 C 
ATOM      5  N   UNL     1      61.102  63.362  68.037  0.00  0.00    +0.000 N 
ATOM      6  C   UNL     1      61.416  63.797  68.665  0.00  0.00    +0.000 C 
ATOM      7  C   UNL     1      62.232  63.882  68.740  0.00  0.00    +0.000 C 
ATOM      8  C   UNL     1      62.545  64.316  69.367  0.00  0.00    +0.000 C 
ATOM      9  C   UNL     1      62.041  64.664  69.919  0.00  0.00    +0.000 C 
ATOM     10  O   UNL     1      62.354  65.098  70.547  0.00  0.00    +0.000 OA
ATOM     11  N   UNL     1      61.224  64.579  69.845  0.00  0.00    +0.000 NA
ATOM     12  C   UNL     1      60.911  64.145  69.217  0.00  0.00    +0.000 C 
ATOM     13  O   UNL     1      60.094  64.059  69.142  0.00  0.00    +0.000 OA
ATOM     14  C   UNL     1      60.301  63.230  67.891  0.00  0.00    +0.000 C 
ATOM     15  O   UNL     1      59.672  63.508  68.347  0.00  0.00    +0.000 OA
ATOM     16  C   UNL     1      60.239  62.770  67.208  0.00  0.00    +0.000 A 
ATOM     17  C   UNL     1      59.586  62.470  66.802  0.00  0.00    +0.000 A 
ATOM     18  C   UNL     1      59.696  62.018  66.121  0.00  0.00    +0.000 A 
ATOM     19  C   UNL     1      60.459  61.866  65.845  0.00  0.00    +0.000 A 
ENDROOT
TORSDOF 0
ENDMDL
MODEL 7
REMARK VINA RESULT:    -8.546      4.009      6.125
REMARK INTER + INTRA:          -8.546
REMARK INTER:                  -8.546
REMARK INTRA:                   0.000
REMARK UNBOUND:                 0.000
ROOT
REMARK  Name = lenalidomide
REMARK                            x       y       z     vdW  Elec       q    Type
REMARK                         _______ _______ _______ _____ _____    ______ ____
ATOM      1  N   UNL     1      61.581  63.540  68.186  0.00  0.00    +0.000 NA
ATOM      2  C   UNL     1      61.204  63.050  68.734  0.00  0.00    +0.000 A 
ATOM      3  C   UNL     1      61.214  63.245  69.536  0.00  0.00    +0.000 A 
ATOM      4  C   UNL     1      61.548  63.878  69.946  0.00  0.00    +0.000 C 
ATOM      5  N   UNL     1      61.378  63.781  70.748  0.00  0.00    +0.000 N 
ATOM      6  C   UNL     1      61.606  64.287  71.357  0.00  0.00    +0.000 C 
ATOM      7  C   UNL     1      62.046  64.964  71.188  0.00  0.00    +0.000 C 
ATOM      8  C   UNL     1      62.274  65.471  71.797  0.00  0.00    +0.000 C 
ATOM      9  C   UNL     1      62.063  65.300  72.576  0.00  0.00    +0.000 C 
ATOM     10  O   UNL     1      62.291  65.807  73.185  0.00  0.00    +0.000 OA
ATOM     11  N   UNL     1      61.622  64.623  72.746  0.00  0.00    +0.000 NA
ATOM     12  C   UNL     1      61.394  64.117  72.136  0.00  0.00    +0.000 C 
ATOM     13  O   UNL     1      60.954  63.440  72.306  0.00  0.00    +0.000 OA
ATOM     14  C   UNL     1      60.939  63.087  70.832  0.00  0.00    +0.000 C 
ATOM     15  O   UNL     1      60.651  62.778  71.542  0.00  0.00    +0.000 OA
ATOM     16  C   UNL     1      60.838  62.756  70.083  0.00  0.00    +0.000 A 
ATOM     17  C   UNL     1      60.451  62.072  69.829  0.00  0.00    +0.000 A 
ATOM     18  C   UNL     1      60.442  61.878  69.027  0.00  0.00    +0.000 A 
ATOM     19  C   UNL     1      60.818  62.367  68.480  0.00  0.00    +0.000 A 
ENDROOT
TORSDOF 0
ENDMDL
MODEL 8
REMARK VINA RESULT:    -8.423      4.398      5.518
REMARK INTER + INTRA:          -8.423
REMARK INTER:                  -8.423
REMARK INTRA:                   0.000
REMARK UNBOUND:                 0.000
ROOT
REMARK  Name = lenalidomide
REMARK                            x       y       z     vdW  Elec       q    Type
REMARK                         _______ _______ _______ _____ _____    ______ ____
ATOM      1  N   UNL     1      59.300  66.657  71.454  0.00  0.00    +0.000 NA
ATOM      2  C   UNL     1      59.486  66.537  70.658  0.00  0.00    +0.000 A 
ATOM      3  C   UNL     1      59.717  65.789  70.397  0.00  0.00    +0.000 A 
ATOM      4  C   UNL     1      59.810  65.070  70.792  0.00  0.00    +0.000 C 
ATOM      5  N   UNL     1      60.053  64.506  70.241  0.00  0.00    +0.000 N 
ATOM      6  C   UNL     1      60.212  63.712  70.398  0.00  0.00    +0.000 C 
ATOM      7  C   UNL     1      60.130  63.419  71.164  0.00  0.00    +0.000 C 
ATOM      8  C   UNL     1      60.289  62.624  71.320  0.00  0.00    +0.000 C 
ATOM      9  C   UNL     1      60.529  62.124  70.711  0.00  0.00    +0.000 C 
ATOM     10  O   UNL     1      60.687  61.330  70.867  0.00  0.00    +0.000 OA
ATOM     11  N   UNL     1      60.611  62.417  69.944  0.00  0.00    +0.000 NA
ATOM     12  C   UNL     1      60.452  63.211  69.787  0.00  0.00    +0.000 C 
ATOM     13  O   UNL     1      60.534  63.505  69.021  0.00  0.00    +0.000 OA
ATOM     14  C   UNL     1      60.111  64.876  69.505  0.00  0.00    +0.000 C 
ATOM     15  O   UNL     1      60.336  64.517  68.797  0.00  0.00    +0.000 OA
ATOM     16  C   UNL     1      59.902  65.669  69.602  0.00  0.00    +0.000 A 
ATOM     17  C   UNL     1      59.858  66.298  69.068  0.00  0.00    +0.000 A 
ATOM     18  C   UNL     1      59.628  67.045  69.331  0.00  0.00    +0.000 A 
ATOM     19  C   UNL     1      59.442  67.165  70.126  0.00  0.00    +0.000 A 
ENDROOT
TORSDOF 0
ENDMDL
MODEL 9
REMARK VINA RESULT:    -8.355      4.558      5.842
REMARK INTER + INTRA:          -8.355
REMARK INTER:                  -8.355
REMARK INTRA:                   0.000
REMARK UNBOUND:                 0.000
ROOT
REMARK  Name = lenalidomide
REMARK                            x       y       z     vdW  Elec       q    Type
REMARK                         _______ _______ _______ _____ _____    ______ ____
ATOM      1  N   UNL     1      63.380  66.009  72.083  0.00  0.00    +0.000 NA
ATOM      2  C   UNL     1      63.462  65.851  71.277  0.00  0.00    +0.000 A 
ATOM      3  C   UNL     1      63.041  65.231  70.933  0.00  0.00    +0.000 A 
ATOM      4  C   UNL     1      62.507  64.684  71.246  0.00  0.00    +0.000 C 
ATOM      5  N   UNL     1      62.260  64.189  70.634  0.00  0.00    +0.000 N 
ATOM      6  C   UNL     1      61.727  63.564  70.701  0.00  0.00    +0.000 C 
ATOM      7  C   UNL     1      61.389  63.387  71.432  0.00  0.00    +0.000 C 
ATOM      8  C   UNL     1      60.855  62.762  71.500  0.00  0.00    +0.000 C 
ATOM      9  C   UNL     1      60.660  62.314  70.836  0.00  0.00    +0.000 C 
ATOM     10  O   UNL     1      60.126  61.688  70.903  0.00  0.00    +0.000 OA
ATOM     11  N   UNL     1      60.998  62.490  70.104  0.00  0.00    +0.000 NA
ATOM     12  C   UNL     1      61.532  63.115  70.037  0.00  0.00    +0.000 C 
ATOM     13  O   UNL     1      61.870  63.292  69.306  0.00  0.00    +0.000 OA
ATOM     14  C   UNL     1      62.641  64.430  69.942  0.00  0.00    +0.000 C 
ATOM     15  O   UNL     1      62.554  64.087  69.196  0.00  0.00    +0.000 OA
ATOM     16  C   UNL     1      63.123  65.074  70.127  0.00  0.00    +0.000 A 
ATOM     17  C   UNL     1      63.627  65.537  69.665  0.00  0.00    +0.000 A 
ATOM     18  C   UNL     1      64.048  66.157  70.010  0.00  0.00    +0.000 A 
ATOM     19  C   UNL     1      63.965  66.314  70.816  0.00  0.00    +0.000 A 
ENDROOT
TORSDOF 0
ENDMDL
