MODEL 1
REMARK VINA RESULT:   -14.576      0.000      0.000
REMARK INTER + INTRA:         -14.576
REMARK INTER:                 -14.576
REMARK INTRA:                   0.000
REMARK UNBOUND:                 0.000
ROOT
REMARK  Name = lenampicillin
REMARK                            x       y       z     vdW  Elec       q    Type
REMARK                         _______ _______ _______ _____ _____    ______ ____
ATOM      1  C   UNL     1      64.612  65.982  71.111  0.00  0.00    +0.000 C 
ATOM      2  C   UNL     1      63.830  65.855  71.345  0.00  0.00    +0.000 A 
ATOM      3  C   UNL     1      63.256  65.449  70.914  0.00  0.00    +0.000 A 
ATOM      4  C   UNL     1      63.361  65.099  70.175  0.00  0.00    +0.000 C 
ATOM      5  O   UNL     1      62.733  64.709  69.809  0.00  0.00    +0.000 OA
ATOM      6  C   UNL     1      61.999  64.670  70.183  0.00  0.00    +0.000 C 
ATOM      7  O   UNL     1      61.893  65.020  70.923  0.00  0.00    +0.000 OA
ATOM      8  C   UNL     1      61.370  64.281  69.818  0.00  0.00    +0.000 C 
ATOM      9  N   UNL     1      61.392  63.906  69.082  0.00  0.00    +0.000 N 
ATOM     10  C   UNL     1      60.645  63.592  68.933  0.00  0.00    +0.000 C 
ATOM     11  S   UNL     1      60.159  63.771  69.577  0.00  0.00    +0.000 S 
ATOM     12  C   UNL     1      60.608  64.197  70.123  0.00  0.00    +0.000 C 
ATOM     13  C   UNL     1      60.008  64.295  70.680  0.00  0.00    +0.000 C 
ATOM     14  C   UNL     1      60.743  64.605  70.827  0.00  0.00    +0.000 C 
ATOM     15  C   UNL     1      60.911  63.301  68.209  0.00  0.00    +0.000 C 
ATOM     16  N   UNL     1      60.572  62.872  67.592  0.00  0.00    +0.000 NA
ATOM     17  C   UNL     1      61.022  62.673  66.930  0.00  0.00    +0.000 C 
ATOM     18  O   UNL     1      61.814  62.901  66.886  0.00  0.00    +0.000 OA
ATOM     19  C   UNL     1      60.683  62.244  66.312  0.00  0.00    +0.000 C 
ATOM     20  N   UNL     1      59.891  62.015  66.356  0.00  0.00    +0.000 NA
ATOM     21  C   UNL     1      61.134  62.044  65.651  0.00  0.00    +0.000 A 
ATOM     22  C   UNL     1      61.925  62.273  65.608  0.00  0.00    +0.000 A 
ATOM     23  C   UNL     1      62.377  62.074  64.947  0.00  0.00    +0.000 A 
ATOM     24  C   UNL     1      62.036  61.645  64.329  0.00  0.00    +0.000 A 
ATOM     25  C   UNL     1      61.245  61.416  64.373  0.00  0.00    +0.000 A 
ATOM     26  C   UNL     1      60.794  61.616  65.034  0.00  0.00    +0.000 A 
ATOM     27  C   UNL     1      61.659  63.616  68.358  0.00  0.00    +0.000 C 
ATOM     28  O   UNL     1      62.376  63.632  67.951  0.00  0.00    +0.000 OA
ATOM     29  O   UNL     1      62.557  65.455  71.353  0.00  0.00    +0.000 OA
ATOM     30  C   UNL     1      62.700  65.864  72.054  0.00  0.00    +0.000 A 
ATOM     31  O   UNL     1      62.152  66.002  72.656  0.00  0.00    +0.000 OA
ATOM     32  O   UNL     1      63.487  66.111  72.049  0.00  0.00    +0.000 OA
ENDROOT
TORSDOF 0
ENDMDL
MODEL 2
REMARK VINA RESULT:   -14.358      2.133      2.285
REMARK INTER + INTRA:         -14.358
REMARK INTER:                 -14.358
REMARK INTRA:                   0.000
REMARK UNBOUND:                 0.000
ROOT
REMARK  Name = lenampicillin
REMARK                            x       y       z     vdW  Elec       q    Type
REMARK                         _______ _______ _______ _____ _____    ______ ____
ATOM      1  C   UNL     1      59.556  67.111  70.457  0.00  0.00    +0.000 C 
ATOM      2  C   UNL     1      59.548  66.379  70.839  0.00  0.00    +0.000 A 
ATOM      3  C   UNL     1      59.768  65.657  70.506  0.00  0.00    +0.000 A 
ATOM      4  C   UNL     1      60.033  65.539  69.735  0.00  0.00    +0.000 C 
ATOM      5  O   UNL     1      60.234  64.781  69.478  0.00  0.00    +0.000 OA
ATOM      6  C   UNL     1      60.169  64.141  69.996  0.00  0.00    +0.000 C 
ATOM      7  O   UNL     1      59.903  64.258  70.768  0.00  0.00    +0.000 OA
ATOM      8  C   UNL     1      60.369  63.382  69.740  0.00  0.00    +0.000 C 
ATOM      9  N   UNL     1      60.642  63.181  68.987  0.00  0.00    +0.000 N 
ATOM     10  C   UNL     1      60.774  62.366  68.974  0.00  0.00    +0.000 C 
ATOM     11  S   UNL     1      60.583  62.065  69.718  0.00  0.00    +0.000 S 
ATOM     12  C   UNL     1      60.333  62.693  70.191  0.00  0.00    +0.000 C 
ATOM     13  C   UNL     1      60.185  62.247  70.869  0.00  0.00    +0.000 C 
ATOM     14  C   UNL     1      60.056  63.047  70.882  0.00  0.00    +0.000 C 
ATOM     15  C   UNL     1      61.018  62.419  68.187  0.00  0.00    +0.000 C 
ATOM     16  N   UNL     1      61.283  61.880  67.622  0.00  0.00    +0.000 NA
ATOM     17  C   UNL     1      61.485  62.141  66.866  0.00  0.00    +0.000 C 
ATOM     18  O   UNL     1      61.421  62.942  66.675  0.00  0.00    +0.000 OA
ATOM     19  C   UNL     1      61.750  61.603  66.300  0.00  0.00    +0.000 C 
ATOM     20  N   UNL     1      61.814  60.803  66.490  0.00  0.00    +0.000 NA
ATOM     21  C   UNL     1      61.952  61.864  65.543  0.00  0.00    +0.000 A 
ATOM     22  C   UNL     1      61.887  62.664  65.353  0.00  0.00    +0.000 A 
ATOM     23  C   UNL     1      62.089  62.926  64.597  0.00  0.00    +0.000 A 
ATOM     24  C   UNL     1      62.354  62.387  64.032  0.00  0.00    +0.000 A 
ATOM     25  C   UNL     1      62.419  61.587  64.222  0.00  0.00    +0.000 A 
ATOM     26  C   UNL     1      62.217  61.326  64.978  0.00  0.00    +0.000 A 
ATOM     27  C   UNL     1      60.886  63.233  68.201  0.00  0.00    +0.000 C 
ATOM     28  O   UNL     1      60.965  63.846  67.655  0.00  0.00    +0.000 OA
ATOM     29  O   UNL     1      59.674  65.073  71.083  0.00  0.00    +0.000 OA
ATOM     30  C   UNL     1      59.398  65.434  71.770  0.00  0.00    +0.000 A 
ATOM     31  O   UNL     1      59.228  65.056  72.483  0.00  0.00    +0.000 OA
ATOM     32  O   UNL     1      59.320  66.242  71.619  0.00  0.00    +0.000 OA
ENDROOT
TORSDOF 0
ENDMDL
MODEL 3
REMARK VINA RESULT:   -13.980      1.427      5.959
REMARK INTER + INTRA:         -13.980
REMARK INTER:                 -13.980
REMARK INTRA:                   0.000
REMARK UNBOUND:                 0.000
ROOT
REMARK  Name = lenampicillin
REMARK                            x       y       z     vdW  Elec       q    Type
REMARK                         _______ _______ _______ _____ _____    ______ ____
ATOM      1  C   UNL     1      63.106  61.782  63.666  0.00  0.00    +0.000 C 
ATOM      2  C   UNL     1      62.321  61.660  63.891  0.00  0.00    +0.000 A 
ATOM      3  C   UNL     1      61.980  61.897  64.603  0.00  0.00    +0.000 A 
ATOM      4  C   UNL     1      62.360  62.297  65.215  0.00  0.00    +0.000 C 
ATOM      5  O   UNL     1      61.945  62.500  65.898  0.00  0.00    +0.000 OA
ATOM      6  C   UNL     1      61.147  62.301  65.969  0.00  0.00    +0.000 C 
ATOM      7  O   UNL     1      60.765  61.900  65.357  0.00  0.00    +0.000 OA
ATOM      8  C   UNL     1      60.731  62.503  66.653  0.00  0.00    +0.000 C 
ATOM      9  N   UNL     1      61.037  62.901  67.307  0.00  0.00    +0.000 N 
ATOM     10  C   UNL     1      60.431  62.986  67.860  0.00  0.00    +0.000 C 
ATOM     11  S   UNL     1      59.750  62.640  67.548  0.00  0.00    +0.000 S 
ATOM     12  C   UNL     1      59.936  62.341  66.801  0.00  0.00    +0.000 C 
ATOM     13  C   UNL     1      59.186  62.043  66.631  0.00  0.00    +0.000 C 
ATOM     14  C   UNL     1      59.782  61.959  66.087  0.00  0.00    +0.000 C 
ATOM     15  C   UNL     1      60.950  63.378  68.369  0.00  0.00    +0.000 C 
ATOM     16  N   UNL     1      60.889  63.714  69.119  0.00  0.00    +0.000 NA
ATOM     17  C   UNL     1      61.547  64.070  69.467  0.00  0.00    +0.000 C 
ATOM     18  O   UNL     1      62.267  64.090  69.064  0.00  0.00    +0.000 OA
ATOM     19  C   UNL     1      61.486  64.408  70.217  0.00  0.00    +0.000 C 
ATOM     20  N   UNL     1      60.766  64.388  70.620  0.00  0.00    +0.000 NA
ATOM     21  C   UNL     1      62.143  64.764  70.565  0.00  0.00    +0.000 A 
ATOM     22  C   UNL     1      62.863  64.783  70.162  0.00  0.00    +0.000 A 
ATOM     23  C   UNL     1      63.521  65.139  70.509  0.00  0.00    +0.000 A 
ATOM     24  C   UNL     1      63.459  65.475  71.260  0.00  0.00    +0.000 A 
ATOM     25  C   UNL     1      62.740  65.457  71.663  0.00  0.00    +0.000 A 
ATOM     26  C   UNL     1      62.082  65.100  71.315  0.00  0.00    +0.000 A 
ATOM     27  C   UNL     1      61.556  63.293  67.815  0.00  0.00    +0.000 C 
ATOM     28  O   UNL     1      62.351  63.509  67.783  0.00  0.00    +0.000 OA
ATOM     29  O   UNL     1      61.188  61.663  64.595  0.00  0.00    +0.000 OA
ATOM     30  C   UNL     1      61.041  61.282  63.879  0.00  0.00    +0.000 A 
ATOM     31  O   UNL     1      60.321  60.959  63.639  0.00  0.00    +0.000 OA
ATOM     32  O   UNL     1      61.742  61.280  63.444  0.00  0.00    +0.000 OA
ENDROOT
TORSDOF 0
ENDMDL
MODEL 4
REMARK VINA RESULT:   -13.511      1.601      5.672
REMARK INTER + INTRA:         -13.511
REMARK INTER:                 -13.511
REMARK INTRA:                   0.000
REMARK UNBOUND:                 0.000
ROOT
REMARK  Name = lenampicillin
REMARK                            x       y       z     vdW  Elec       q    Type
REMARK                         _______ _______ _______ _____ _____    ______ ____
ATOM      1  C   UNL     1      61.317  62.552  65.651  0.00  0.00    +0.000 C 
ATOM      2  C   UNL     1      60.915  62.445  66.364  0.00  0.00    +0.000 A 
ATOM      3  C   UNL     1      61.113  62.788  67.087  0.00  0.00    +0.000 A 
ATOM      4  C   UNL     1      61.745  63.298  67.226  0.00  0.00    +0.000 C 
ATOM      5  O   UNL     1      61.875  63.600  67.982  0.00  0.00    +0.000 OA
ATOM      6  C   UNL     1      61.370  63.390  68.601  0.00  0.00    +0.000 C 
ATOM      7  O   UNL     1      60.737  62.879  68.463  0.00  0.00    +0.000 OA
ATOM      8  C   UNL     1      61.499  63.692  69.359  0.00  0.00    +0.000 C 
ATOM      9  N   UNL     1      62.107  64.205  69.579  0.00  0.00    +0.000 N 
ATOM     10  C   UNL     1      62.026  64.364  70.385  0.00  0.00    +0.000 C 
ATOM     11  S   UNL     1      61.370  63.948  70.662  0.00  0.00    +0.000 S 
ATOM     12  C   UNL     1      61.044  63.532  70.028  0.00  0.00    +0.000 C 
ATOM     13  C   UNL     1      60.427  63.185  70.450  0.00  0.00    +0.000 C 
ATOM     14  C   UNL     1      60.506  63.029  69.658  0.00  0.00    +0.000 C 
ATOM     15  C   UNL     1      62.690  64.852  70.355  0.00  0.00    +0.000 C 
ATOM     16  N   UNL     1      63.103  65.309  70.903  0.00  0.00    +0.000 NA
ATOM     17  C   UNL     1      63.765  65.741  70.666  0.00  0.00    +0.000 C 
ATOM     18  O   UNL     1      64.015  65.715  69.880  0.00  0.00    +0.000 OA
ATOM     19  C   UNL     1      64.179  66.198  71.214  0.00  0.00    +0.000 C 
ATOM     20  N   UNL     1      63.929  66.224  72.001  0.00  0.00    +0.000 NA
ATOM     21  C   UNL     1      64.841  66.630  70.977  0.00  0.00    +0.000 A 
ATOM     22  C   UNL     1      65.090  66.603  70.191  0.00  0.00    +0.000 A 
ATOM     23  C   UNL     1      65.752  67.034  69.953  0.00  0.00    +0.000 A 
ATOM     24  C   UNL     1      66.165  67.491  70.503  0.00  0.00    +0.000 A 
ATOM     25  C   UNL     1      65.916  67.518  71.289  0.00  0.00    +0.000 A 
ATOM     26  C   UNL     1      65.254  67.087  71.526  0.00  0.00    +0.000 A 
ATOM     27  C   UNL     1      62.771  64.694  69.549  0.00  0.00    +0.000 C 
ATOM     28  O   UNL     1      63.296  64.928  68.959  0.00  0.00    +0.000 OA
ATOM     29  O   UNL     1      60.565  62.530  67.649  0.00  0.00    +0.000 OA
ATOM     30  C   UNL     1      60.030  62.028  67.272  0.00  0.00    +0.000 A 
ATOM     31  O   UNL     1      59.391  61.646  67.627  0.00  0.00    +0.000 OA
ATOM     32  O   UNL     1      60.247  61.975  66.478  0.00  0.00    +0.000 OA
ENDROOT
TORSDOF 0
ENDMDL
MODEL 5
REMARK VINA RESULT:   -13.136      4.201      5.757
REMARK INTER + INTRA:         -13.136
REMARK INTER:                 -13.136
REMARK INTRA:                   0.000
REMARK UNBOUND:                 0.000
ROOT
REMARK  Name = lenampicillin
REMARK                            x       y       z     vdW  Elec       q    Type
REMARK                         _______ _______ _______ _____ _____    ______ ____
ATOM      1  C   UNL     1      57.736  67.571  73.222  0.00  0.00    +0.000 C 
ATOM      2  C   UNL     1      57.817  66.769  73.046  0.00  0.00    +0.000 A 
ATOM      3  C   UNL     1      58.505  66.398  72.784  0.00  0.00    +0.000 A 
ATOM      4  C   UNL     1      59.233  66.762  72.651  0.00  0.00    +0.000 C 
ATOM      5  O   UNL     1      59.876  66.319  72.387  0.00  0.00    +0.000 OA
ATOM      6  C   UNL     1      59.790  65.508  72.256  0.00  0.00    +0.000 C 
ATOM      7  O   UNL     1      59.063  65.142  72.388  0.00  0.00    +0.000 OA
ATOM      8  C   UNL     1      60.433  65.063  71.992  0.00  0.00    +0.000 C 
ATOM      9  N   UNL     1      61.191  65.351  71.836  0.00  0.00    +0.000 N 
ATOM     10  C   UNL     1      61.657  64.718  71.585  0.00  0.00    +0.000 C 
ATOM     11  S   UNL     1      61.188  64.039  71.586  0.00  0.00    +0.000 S 
ATOM     12  C   UNL     1      60.431  64.253  71.837  0.00  0.00    +0.000 C 
ATOM     13  C   UNL     1      60.099  63.500  71.786  0.00  0.00    +0.000 C 
ATOM     14  C   UNL     1      59.641  64.122  72.032  0.00  0.00    +0.000 C 
ATOM     15  C   UNL     1      62.302  65.226  71.502  0.00  0.00    +0.000 C 
ATOM     16  N   UNL     1      63.087  65.138  71.267  0.00  0.00    +0.000 NA
ATOM     17  C   UNL     1      63.590  65.792  71.252  0.00  0.00    +0.000 C 
ATOM     18  O   UNL     1      63.307  66.535  71.473  0.00  0.00    +0.000 OA
ATOM     19  C   UNL     1      64.376  65.705  71.017  0.00  0.00    +0.000 C 
ATOM     20  N   UNL     1      64.659  64.962  70.796  0.00  0.00    +0.000 NA
ATOM     21  C   UNL     1      64.878  66.359  71.002  0.00  0.00    +0.000 A 
ATOM     22  C   UNL     1      64.594  67.101  71.223  0.00  0.00    +0.000 A 
ATOM     23  C   UNL     1      65.096  67.756  71.208  0.00  0.00    +0.000 A 
ATOM     24  C   UNL     1      65.882  67.667  70.972  0.00  0.00    +0.000 A 
ATOM     25  C   UNL     1      66.166  66.925  70.751  0.00  0.00    +0.000 A 
ATOM     26  C   UNL     1      65.664  66.270  70.766  0.00  0.00    +0.000 A 
ATOM     27  C   UNL     1      61.836  65.859  71.753  0.00  0.00    +0.000 C 
ATOM     28  O   UNL     1      61.962  66.665  71.872  0.00  0.00    +0.000 OA
ATOM     29  O   UNL     1      58.337  65.597  72.677  0.00  0.00    +0.000 OA
ATOM     30  C   UNL     1      57.547  65.473  72.874  0.00  0.00    +0.000 A 
ATOM     31  O   UNL     1      57.147  64.752  72.847  0.00  0.00    +0.000 OA
ATOM     32  O   UNL     1      57.225  66.198  73.102  0.00  0.00    +0.000 OA
ENDROOT
TORSDOF 0
ENDMDL
MODEL 6
REMARK VINA RESULT:   -11.935      2.272      5.791
REMARK INTER + INTRA:         -11.935
REMARK INTER:                 -11.935
REMARK INTRA:                   0.000
REMARK UNBOUND:                 0.000
ROOT
REMARK  Name = lenampicillin
REMARK                            x       y       z     vdW  Elec       q    Type
REMARK                         _______ _______ _______ _____ _____    ______ ____
ATOM      1  C   UNL     1      61.791  63.114  64.989  0.00  0.00    +0.000 C 
ATOM      2  C   UNL     1      61.713  62.516  65.554  0.00  0.00    +0.000 A 
ATOM      3  C   UNL     1      61.463  62.616  66.333  0.00  0.00    +0.000 A 
ATOM      4  C   UNL     1      61.246  63.329  66.686  0.00  0.00    +0.000 C 
ATOM      5  O   UNL     1      61.006  63.345  67.475  0.00  0.00    +0.000 OA
ATOM      6  C   UNL     1      60.983  62.644  67.911  0.00  0.00    +0.000 C 
ATOM      7  O   UNL     1      61.200  61.930  67.559  0.00  0.00    +0.000 OA
ATOM      8  C   UNL     1      60.743  62.659  68.701  0.00  0.00    +0.000 C 
ATOM      9  N   UNL     1      60.512  63.327  69.125  0.00  0.00    +0.000 N 
ATOM     10  C   UNL     1      60.318  63.089  69.891  0.00  0.00    +0.000 C 
ATOM     11  S   UNL     1      60.430  62.273  69.940  0.00  0.00    +0.000 S 
ATOM     12  C   UNL     1      60.693  62.007  69.204  0.00  0.00    +0.000 C 
ATOM     13  C   UNL     1      60.754  61.210  69.409  0.00  0.00    +0.000 C 
ATOM     14  C   UNL     1      60.945  61.445  68.656  0.00  0.00    +0.000 C 
ATOM     15  C   UNL     1      60.138  63.869  70.088  0.00  0.00    +0.000 C 
ATOM     16  N   UNL     1      59.873  64.252  70.769  0.00  0.00    +0.000 NA
ATOM     17  C   UNL     1      59.749  65.068  70.762  0.00  0.00    +0.000 C 
ATOM     18  O   UNL     1      59.889  65.501  70.074  0.00  0.00    +0.000 OA
ATOM     19  C   UNL     1      59.484  65.452  71.443  0.00  0.00    +0.000 C 
ATOM     20  N   UNL     1      59.344  65.019  72.131  0.00  0.00    +0.000 NA
ATOM     21  C   UNL     1      59.360  66.267  71.436  0.00  0.00    +0.000 A 
ATOM     22  C   UNL     1      59.500  66.699  70.747  0.00  0.00    +0.000 A 
ATOM     23  C   UNL     1      59.376  67.515  70.739  0.00  0.00    +0.000 A 
ATOM     24  C   UNL     1      59.112  67.898  71.421  0.00  0.00    +0.000 A 
ATOM     25  C   UNL     1      58.971  67.466  72.110  0.00  0.00    +0.000 A 
ATOM     26  C   UNL     1      59.096  66.650  72.117  0.00  0.00    +0.000 A 
ATOM     27  C   UNL     1      60.331  64.108  69.323  0.00  0.00    +0.000 C 
ATOM     28  O   UNL     1      60.341  64.828  68.921  0.00  0.00    +0.000 OA
ATOM     29  O   UNL     1      61.468  61.876  66.698  0.00  0.00    +0.000 OA
ATOM     30  C   UNL     1      61.721  61.320  66.145  0.00  0.00    +0.000 A 
ATOM     31  O   UNL     1      61.807  60.509  66.276  0.00  0.00    +0.000 OA
ATOM     32  O   UNL     1      61.873  61.716  65.437  0.00  0.00    +0.000 OA
ENDROOT
TORSDOF 0
ENDMDL
