MODEL 1
REMARK VINA RESULT:   -11.550      0.000      0.000
REMARK INTER + INTRA:         -11.550
REMARK INTER:                 -11.550
REMARK INTRA:                   0.000
REMARK UNBOUND:                 0.000
ROOT
REMARK  Name = leteprinim
REMARK                            x       y       z     vdW  Elec       q    Type
REMARK                         _______ _______ _______ _____ _____    ______ ____
ATOM      1  O   UNL     1      60.883  60.893  63.360  0.00  0.00    +0.000 OA
ATOM      2  C   UNL     1      61.444  61.285  63.821  0.00  0.00    +0.000 C 
ATOM      3  O   UNL     1      62.200  61.422  63.521  0.00  0.00    +0.000 OA
ATOM      4  C   UNL     1      61.249  61.541  64.580  0.00  0.00    +0.000 A 
ATOM      5  C   UNL     1      61.810  61.933  65.039  0.00  0.00    +0.000 A 
ATOM      6  C   UNL     1      61.616  62.190  65.799  0.00  0.00    +0.000 A 
ATOM      7  C   UNL     1      60.859  62.053  66.099  0.00  0.00    +0.000 A 
ATOM      8  N   UNL     1      60.664  62.309  66.858  0.00  0.00    +0.000 NA
ATOM      9  C   UNL     1      61.226  62.702  67.318  0.00  0.00    +0.000 C 
ATOM     10  O   UNL     1      61.982  62.838  67.019  0.00  0.00    +0.000 OA
ATOM     11  C   UNL     1      61.030  62.958  68.078  0.00  0.00    +0.000 C 
ATOM     12  C   UNL     1      61.592  63.350  68.538  0.00  0.00    +0.000 C 
ATOM     13  N   UNL     1      61.396  63.606  69.297  0.00  0.00    +0.000 N 
ATOM     14  C   UNL     1      60.667  63.510  69.670  0.00  0.00    +0.000 A 
ATOM     15  N   UNL     1      60.716  63.848  70.421  0.00  0.00    +0.000 NA
ATOM     16  C   UNL     1      61.477  64.153  70.513  0.00  0.00    +0.000 A 
ATOM     17  C   UNL     1      61.898  64.004  69.819  0.00  0.00    +0.000 A 
ATOM     18  N   UNL     1      62.683  64.249  69.751  0.00  0.00    +0.000 NA
ATOM     19  C   UNL     1      63.046  64.644  70.378  0.00  0.00    +0.000 A 
ATOM     20  N   UNL     1      62.626  64.793  71.072  0.00  0.00    +0.000 NA
ATOM     21  C   UNL     1      61.841  64.548  71.139  0.00  0.00    +0.000 A 
ATOM     22  O   UNL     1      61.420  64.697  71.833  0.00  0.00    +0.000 OA
ATOM     23  C   UNL     1      60.297  61.661  65.639  0.00  0.00    +0.000 A 
ATOM     24  C   UNL     1      60.493  61.405  64.879  0.00  0.00    +0.000 A 
ENDROOT
TORSDOF 0
ENDMDL
MODEL 2
REMARK VINA RESULT:   -11.183      1.384      5.822
REMARK INTER + INTRA:         -11.183
REMARK INTER:                 -11.183
REMARK INTRA:                   0.000
REMARK UNBOUND:                 0.000
ROOT
REMARK  Name = leteprinim
REMARK                            x       y       z     vdW  Elec       q    Type
REMARK                         _______ _______ _______ _____ _____    ______ ____
ATOM      1  O   UNL     1      60.790  63.570  72.846  0.00  0.00    +0.000 OA
ATOM      2  C   UNL     1      61.291  63.666  72.198  0.00  0.00    +0.000 C 
ATOM      3  O   UNL     1      62.007  64.067  72.286  0.00  0.00    +0.000 OA
ATOM      4  C   UNL     1      61.078  63.361  71.462  0.00  0.00    +0.000 A 
ATOM      5  C   UNL     1      61.579  63.457  70.815  0.00  0.00    +0.000 A 
ATOM      6  C   UNL     1      61.366  63.152  70.078  0.00  0.00    +0.000 A 
ATOM      7  C   UNL     1      60.650  62.751  69.990  0.00  0.00    +0.000 A 
ATOM      8  N   UNL     1      60.436  62.446  69.254  0.00  0.00    +0.000 NA
ATOM      9  C   UNL     1      60.938  62.542  68.606  0.00  0.00    +0.000 C 
ATOM     10  O   UNL     1      61.654  62.943  68.694  0.00  0.00    +0.000 OA
ATOM     11  C   UNL     1      60.724  62.237  67.870  0.00  0.00    +0.000 C 
ATOM     12  C   UNL     1      61.226  62.333  67.222  0.00  0.00    +0.000 C 
ATOM     13  N   UNL     1      61.012  62.028  66.486  0.00  0.00    +0.000 N 
ATOM     14  C   UNL     1      60.318  61.616  66.314  0.00  0.00    +0.000 A 
ATOM     15  N   UNL     1      60.332  61.415  65.514  0.00  0.00    +0.000 NA
ATOM     16  C   UNL     1      61.035  61.702  65.192  0.00  0.00    +0.000 A 
ATOM     17  C   UNL     1      61.455  62.081  65.792  0.00  0.00    +0.000 A 
ATOM     18  N   UNL     1      62.188  62.425  65.629  0.00  0.00    +0.000 NA
ATOM     19  C   UNL     1      62.498  62.390  64.866  0.00  0.00    +0.000 A 
ATOM     20  N   UNL     1      62.078  62.011  64.265  0.00  0.00    +0.000 NA
ATOM     21  C   UNL     1      61.346  61.667  64.428  0.00  0.00    +0.000 A 
ATOM     22  O   UNL     1      60.925  61.288  63.828  0.00  0.00    +0.000 OA
ATOM     23  C   UNL     1      60.148  62.655  70.638  0.00  0.00    +0.000 A 
ATOM     24  C   UNL     1      60.362  62.960  71.374  0.00  0.00    +0.000 A 
ENDROOT
TORSDOF 0
ENDMDL
MODEL 3
REMARK VINA RESULT:   -10.724      2.517      6.050
REMARK INTER + INTRA:         -10.724
REMARK INTER:                 -10.724
REMARK INTRA:                   0.000
REMARK UNBOUND:                 0.000
ROOT
REMARK  Name = leteprinim
REMARK                            x       y       z     vdW  Elec       q    Type
REMARK                         _______ _______ _______ _____ _____    ______ ____
ATOM      1  O   UNL     1      66.313  67.596  71.292  0.00  0.00    +0.000 OA
ATOM      2  C   UNL     1      66.012  67.325  70.573  0.00  0.00    +0.000 C 
ATOM      3  O   UNL     1      66.318  67.615  69.863  0.00  0.00    +0.000 OA
ATOM      4  C   UNL     1      65.406  66.767  70.563  0.00  0.00    +0.000 A 
ATOM      5  C   UNL     1      65.105  66.497  69.844  0.00  0.00    +0.000 A 
ATOM      6  C   UNL     1      64.499  65.938  69.833  0.00  0.00    +0.000 A 
ATOM      7  C   UNL     1      64.193  65.648  70.543  0.00  0.00    +0.000 A 
ATOM      8  N   UNL     1      63.586  65.089  70.533  0.00  0.00    +0.000 NA
ATOM      9  C   UNL     1      63.286  64.820  69.813  0.00  0.00    +0.000 C 
ATOM     10  O   UNL     1      63.591  65.109  69.104  0.00  0.00    +0.000 OA
ATOM     11  C   UNL     1      62.679  64.261  69.804  0.00  0.00    +0.000 C 
ATOM     12  C   UNL     1      62.378  63.991  69.084  0.00  0.00    +0.000 C 
ATOM     13  N   UNL     1      61.772  63.432  69.074  0.00  0.00    +0.000 N 
ATOM     14  C   UNL     1      61.413  63.094  69.735  0.00  0.00    +0.000 A 
ATOM     15  N   UNL     1      60.836  62.565  69.471  0.00  0.00    +0.000 NA
ATOM     16  C   UNL     1      60.840  62.577  68.646  0.00  0.00    +0.000 A 
ATOM     17  C   UNL     1      61.418  63.112  68.401  0.00  0.00    +0.000 A 
ATOM     18  N   UNL     1      61.547  63.240  67.595  0.00  0.00    +0.000 NA
ATOM     19  C   UNL     1      61.098  62.832  67.036  0.00  0.00    +0.000 A 
ATOM     20  N   UNL     1      60.520  62.296  67.282  0.00  0.00    +0.000 NA
ATOM     21  C   UNL     1      60.391  62.169  68.087  0.00  0.00    +0.000 A 
ATOM     22  O   UNL     1      59.813  61.634  68.332  0.00  0.00    +0.000 OA
ATOM     23  C   UNL     1      64.493  65.918  71.263  0.00  0.00    +0.000 A 
ATOM     24  C   UNL     1      65.100  66.477  71.272  0.00  0.00    +0.000 A 
ENDROOT
TORSDOF 0
ENDMDL
MODEL 4
REMARK VINA RESULT:   -10.287      2.085      5.952
REMARK INTER + INTRA:         -10.287
REMARK INTER:                 -10.287
REMARK INTRA:                   0.000
REMARK UNBOUND:                 0.000
ROOT
REMARK  Name = leteprinim
REMARK                            x       y       z     vdW  Elec       q    Type
REMARK                         _______ _______ _______ _____ _____    ______ ____
ATOM      1  O   UNL     1      58.981  67.050  72.146  0.00  0.00    +0.000 OA
ATOM      2  C   UNL     1      59.237  67.046  71.362  0.00  0.00    +0.000 C 
ATOM      3  O   UNL     1      59.280  67.754  70.940  0.00  0.00    +0.000 OA
ATOM      4  C   UNL     1      59.450  66.337  71.000  0.00  0.00    +0.000 A 
ATOM      5  C   UNL     1      59.705  66.334  70.216  0.00  0.00    +0.000 A 
ATOM      6  C   UNL     1      59.918  65.624  69.853  0.00  0.00    +0.000 A 
ATOM      7  C   UNL     1      59.875  64.917  70.275  0.00  0.00    +0.000 A 
ATOM      8  N   UNL     1      60.088  64.206  69.914  0.00  0.00    +0.000 NA
ATOM      9  C   UNL     1      60.344  64.204  69.129  0.00  0.00    +0.000 C 
ATOM     10  O   UNL     1      60.387  64.911  68.707  0.00  0.00    +0.000 OA
ATOM     11  C   UNL     1      60.556  63.494  68.767  0.00  0.00    +0.000 C 
ATOM     12  C   UNL     1      60.812  63.491  67.982  0.00  0.00    +0.000 C 
ATOM     13  N   UNL     1      61.025  62.781  67.621  0.00  0.00    +0.000 N 
ATOM     14  C   UNL     1      61.010  62.034  67.970  0.00  0.00    +0.000 A 
ATOM     15  N   UNL     1      61.266  61.484  67.411  0.00  0.00    +0.000 NA
ATOM     16  C   UNL     1      61.438  61.892  66.714  0.00  0.00    +0.000 A 
ATOM     17  C   UNL     1      61.289  62.693  66.844  0.00  0.00    +0.000 A 
ATOM     18  N   UNL     1      61.414  63.239  66.237  0.00  0.00    +0.000 NA
ATOM     19  C   UNL     1      61.687  62.983  65.502  0.00  0.00    +0.000 A 
ATOM     20  N   UNL     1      61.836  62.182  65.373  0.00  0.00    +0.000 NA
ATOM     21  C   UNL     1      61.712  61.636  65.979  0.00  0.00    +0.000 A 
ATOM     22  O   UNL     1      61.861  60.835  65.850  0.00  0.00    +0.000 OA
ATOM     23  C   UNL     1      59.619  64.919  71.060  0.00  0.00    +0.000 A 
ATOM     24  C   UNL     1      59.407  65.629  71.422  0.00  0.00    +0.000 A 
ENDROOT
TORSDOF 0
ENDMDL
MODEL 5
REMARK VINA RESULT:    -9.952      5.279      6.672
REMARK INTER + INTRA:          -9.952
REMARK INTER:                  -9.952
REMARK INTRA:                   0.000
REMARK UNBOUND:                 0.000
ROOT
REMARK  Name = leteprinim
REMARK                            x       y       z     vdW  Elec       q    Type
REMARK                         _______ _______ _______ _____ _____    ______ ____
ATOM      1  O   UNL     1      67.586  67.624  70.569  0.00  0.00    +0.000 OA
ATOM      2  C   UNL     1      66.837  67.628  70.221  0.00  0.00    +0.000 C 
ATOM      3  O   UNL     1      66.723  67.998  69.493  0.00  0.00    +0.000 OA
ATOM      4  C   UNL     1      66.204  67.262  70.601  0.00  0.00    +0.000 A 
ATOM      5  C   UNL     1      65.457  67.266  70.254  0.00  0.00    +0.000 A 
ATOM      6  C   UNL     1      64.822  66.899  70.634  0.00  0.00    +0.000 A 
ATOM      7  C   UNL     1      64.937  66.529  71.362  0.00  0.00    +0.000 A 
ATOM      8  N   UNL     1      64.303  66.162  71.743  0.00  0.00    +0.000 NA
ATOM      9  C   UNL     1      63.555  66.166  71.394  0.00  0.00    +0.000 C 
ATOM     10  O   UNL     1      63.440  66.537  70.666  0.00  0.00    +0.000 OA
ATOM     11  C   UNL     1      62.921  65.800  71.775  0.00  0.00    +0.000 C 
ATOM     12  C   UNL     1      62.173  65.804  71.427  0.00  0.00    +0.000 C 
ATOM     13  N   UNL     1      61.540  65.437  71.808  0.00  0.00    +0.000 N 
ATOM     14  C   UNL     1      61.569  65.047  72.533  0.00  0.00    +0.000 A 
ATOM     15  N   UNL     1      60.812  64.765  72.704  0.00  0.00    +0.000 NA
ATOM     16  C   UNL     1      60.315  64.981  72.082  0.00  0.00    +0.000 A 
ATOM     17  C   UNL     1      60.764  65.397  71.528  0.00  0.00    +0.000 A 
ATOM     18  N   UNL     1      60.409  65.684  70.841  0.00  0.00    +0.000 NA
ATOM     19  C   UNL     1      59.604  65.557  70.708  0.00  0.00    +0.000 A 
ATOM     20  N   UNL     1      59.156  65.141  71.262  0.00  0.00    +0.000 NA
ATOM     21  C   UNL     1      59.511  64.853  71.949  0.00  0.00    +0.000 A 
ATOM     22  O   UNL     1      59.062  64.438  72.503  0.00  0.00    +0.000 OA
ATOM     23  C   UNL     1      65.685  66.525  71.710  0.00  0.00    +0.000 A 
ATOM     24  C   UNL     1      66.318  66.891  71.330  0.00  0.00    +0.000 A 
ENDROOT
TORSDOF 0
ENDMDL
MODEL 6
REMARK VINA RESULT:    -8.745     14.133     14.824
REMARK INTER + INTRA:          -8.745
REMARK INTER:                  -8.745
REMARK INTRA:                   0.000
REMARK UNBOUND:                 0.000
ROOT
REMARK  Name = leteprinim
REMARK                            x       y       z     vdW  Elec       q    Type
REMARK                         _______ _______ _______ _____ _____    ______ ____
ATOM      1  O   UNL     1      61.604  69.990  54.091  0.00  0.00    +0.000 OA
ATOM      2  C   UNL     1      62.224  69.460  54.217  0.00  0.00    +0.000 C 
ATOM      3  O   UNL     1      62.963  69.740  54.452  0.00  0.00    +0.000 OA
ATOM      4  C   UNL     1      62.105  68.652  54.109  0.00  0.00    +0.000 A 
ATOM      5  C   UNL     1      62.724  68.123  54.236  0.00  0.00    +0.000 A 
ATOM      6  C   UNL     1      62.606  67.313  54.128  0.00  0.00    +0.000 A 
ATOM      7  C   UNL     1      61.866  67.033  53.893  0.00  0.00    +0.000 A 
ATOM      8  N   UNL     1      61.746  66.224  53.785  0.00  0.00    +0.000 NA
ATOM      9  C   UNL     1      62.367  65.695  53.912  0.00  0.00    +0.000 C 
ATOM     10  O   UNL     1      63.106  65.975  54.146  0.00  0.00    +0.000 OA
ATOM     11  C   UNL     1      62.247  64.886  53.803  0.00  0.00    +0.000 C 
ATOM     12  C   UNL     1      62.868  64.357  53.930  0.00  0.00    +0.000 C 
ATOM     13  N   UNL     1      62.748  63.548  53.822  0.00  0.00    +0.000 N 
ATOM     14  C   UNL     1      62.043  63.188  53.590  0.00  0.00    +0.000 A 
ATOM     15  N   UNL     1      62.171  62.374  53.551  0.00  0.00    +0.000 NA
ATOM     16  C   UNL     1      62.957  62.231  53.760  0.00  0.00    +0.000 A 
ATOM     17  C   UNL     1      63.313  62.956  53.927  0.00  0.00    +0.000 A 
ATOM     18  N   UNL     1      64.106  62.984  54.153  0.00  0.00    +0.000 NA
ATOM     19  C   UNL     1      64.542  62.286  54.212  0.00  0.00    +0.000 A 
ATOM     20  N   UNL     1      64.186  61.561  54.045  0.00  0.00    +0.000 NA
ATOM     21  C   UNL     1      63.393  61.533  53.819  0.00  0.00    +0.000 A 
ATOM     22  O   UNL     1      63.037  60.808  53.651  0.00  0.00    +0.000 OA
ATOM     23  C   UNL     1      61.245  67.563  53.767  0.00  0.00    +0.000 A 
ATOM     24  C   UNL     1      61.365  68.371  53.875  0.00  0.00    +0.000 A 
ENDROOT
TORSDOF 0
ENDMDL
MODEL 7
REMARK VINA RESULT:    -8.646     24.405     25.259
REMARK INTER + INTRA:          -8.646
REMARK INTER:                  -8.646
REMARK INTRA:                   0.000
REMARK UNBOUND:                 0.000
ROOT
REMARK  Name = leteprinim
REMARK                            x       y       z     vdW  Elec       q    Type
REMARK                         _______ _______ _______ _____ _____    ______ ____
ATOM      1  O   UNL     1      72.535  78.672  48.123  0.00  0.00    +0.000 OA
ATOM      2  C   UNL     1      72.539  79.071  48.845  0.00  0.00    +0.000 C 
ATOM      3  O   UNL     1      73.255  79.293  49.189  0.00  0.00    +0.000 OA
ATOM      4  C   UNL     1      71.827  79.249  49.222  0.00  0.00    +0.000 A 
ATOM      5  C   UNL     1      71.832  79.648  49.943  0.00  0.00    +0.000 A 
ATOM      6  C   UNL     1      71.120  79.826  50.321  0.00  0.00    +0.000 A 
ATOM      7  C   UNL     1      70.404  79.604  49.977  0.00  0.00    +0.000 A 
ATOM      8  N   UNL     1      69.692  79.781  50.354  0.00  0.00    +0.000 NA
ATOM      9  C   UNL     1      69.696  80.181  51.076  0.00  0.00    +0.000 C 
ATOM     10  O   UNL     1      70.412  80.403  51.421  0.00  0.00    +0.000 OA
ATOM     11  C   UNL     1      68.984  80.358  51.453  0.00  0.00    +0.000 C 
ATOM     12  C   UNL     1      68.989  80.758  52.176  0.00  0.00    +0.000 C 
ATOM     13  N   UNL     1      68.277  80.935  52.552  0.00  0.00    +0.000 N 
ATOM     14  C   UNL     1      67.522  80.749  52.277  0.00  0.00    +0.000 A 
ATOM     15  N   UNL     1      66.973  81.029  52.826  0.00  0.00    +0.000 NA
ATOM     16  C   UNL     1      67.389  81.387  53.441  0.00  0.00    +0.000 A 
ATOM     17  C   UNL     1      68.195  81.329  53.273  0.00  0.00    +0.000 A 
ATOM     18  N   UNL     1      68.750  81.643  53.797  0.00  0.00    +0.000 NA
ATOM     19  C   UNL     1      68.499  82.015  54.489  0.00  0.00    +0.000 A 
ATOM     20  N   UNL     1      67.693  82.073  54.658  0.00  0.00    +0.000 NA
ATOM     21  C   UNL     1      67.138  81.759  54.134  0.00  0.00    +0.000 A 
ATOM     22  O   UNL     1      66.333  81.817  54.302  0.00  0.00    +0.000 OA
ATOM     23  C   UNL     1      70.399  79.204  49.254  0.00  0.00    +0.000 A 
ATOM     24  C   UNL     1      71.111  79.027  48.878  0.00  0.00    +0.000 A 
ENDROOT
TORSDOF 0
ENDMDL
