MODEL 1
REMARK VINA RESULT:    -8.152      0.000      0.000
REMARK INTER + INTRA:          -8.152
REMARK INTER:                  -8.152
REMARK INTRA:                   0.000
REMARK UNBOUND:                 0.000
ROOT
REMARK  Name = letosteine
REMARK                            x       y       z     vdW  Elec       q    Type
REMARK                         _______ _______ _______ _____ _____    ______ ____
ATOM      1  C   UNK     1      62.373  62.064  64.322  0.00  0.00    +0.000 C 
ATOM      2  C   UNK     1      62.121  61.926  65.095  0.00  0.00    +0.000 C 
ATOM      3  O   UNK     1      61.866  62.556  65.565  0.00  0.00    +0.000 OA
ATOM      4  C   UNK     1      61.614  62.417  66.338  0.00  0.00    +0.000 C 
ATOM      5  O   UNK     1      61.615  61.651  66.642  0.00  0.00    +0.000 OA
ATOM      6  C   UNK     1      61.359  63.047  66.807  0.00  0.00    +0.000 C 
ATOM      7  S   UNK     1      61.107  62.909  67.580  0.00  0.00    +0.000 S 
ATOM      8  C   UNK     1      60.852  63.539  68.049  0.00  0.00    +0.000 C 
ATOM      9  C   UNK     1      60.600  63.401  68.822  0.00  0.00    +0.000 C 
ATOM     10  C   UNK     1      60.345  64.030  69.292  0.00  0.00    +0.000 C 
ATOM     11  N   UNK     1      60.079  63.977  70.070  0.00  0.00    +0.000 NA
ATOM     12  C   UNK     1      59.882  64.737  70.324  0.00  0.00    +0.000 C 
ATOM     13  C   UNK     1      60.027  65.259  69.703  0.00  0.00    +0.000 C 
ATOM     14  S   UNK     1      60.313  64.822  69.064  0.00  0.00    +0.000 S 
ATOM     15  C   UNK     1      59.591  64.939  71.070  0.00  0.00    +0.000 C 
ATOM     16  O   UNK     1      59.473  64.354  71.639  0.00  0.00    +0.000 OA
ATOM     17  O   UNK     1      59.418  65.726  71.246  0.00  0.00    +0.000 OA
ENDROOT
TORSDOF 0
ENDMDL
MODEL 2
REMARK VINA RESULT:    -8.067      1.932      5.494
REMARK INTER + INTRA:          -8.067
REMARK INTER:                  -8.067
REMARK INTRA:                   0.000
REMARK UNBOUND:                 0.000
ROOT
REMARK  Name = letosteine
REMARK                            x       y       z     vdW  Elec       q    Type
REMARK                         _______ _______ _______ _____ _____    ______ ____
ATOM      1  C   UNK     1      59.955  63.869  71.462  0.00  0.00    +0.000 C 
ATOM      2  C   UNK     1      60.493  63.888  70.837  0.00  0.00    +0.000 C 
ATOM      3  O   UNK     1      60.322  63.492  70.133  0.00  0.00    +0.000 OA
ATOM      4  C   UNK     1      60.860  63.510  69.509  0.00  0.00    +0.000 C 
ATOM      5  O   UNK     1      61.570  63.924  69.587  0.00  0.00    +0.000 OA
ATOM      6  C   UNK     1      60.689  63.114  68.805  0.00  0.00    +0.000 C 
ATOM      7  S   UNK     1      61.227  63.132  68.180  0.00  0.00    +0.000 S 
ATOM      8  C   UNK     1      61.056  62.736  67.476  0.00  0.00    +0.000 C 
ATOM      9  C   UNK     1      61.594  62.754  66.852  0.00  0.00    +0.000 C 
ATOM     10  C   UNK     1      61.423  62.358  66.148  0.00  0.00    +0.000 C 
ATOM     11  N   UNK     1      61.905  62.328  65.480  0.00  0.00    +0.000 NA
ATOM     12  C   UNK     1      61.520  61.874  64.909  0.00  0.00    +0.000 C 
ATOM     13  C   UNK     1      60.800  61.625  65.224  0.00  0.00    +0.000 C 
ATOM     14  S   UNK     1      60.740  61.924  65.990  0.00  0.00    +0.000 S 
ATOM     15  C   UNK     1      61.804  61.700  64.154  0.00  0.00    +0.000 C 
ATOM     16  O   UNK     1      62.539  61.990  63.914  0.00  0.00    +0.000 OA
ATOM     17  O   UNK     1      61.355  61.238  63.639  0.00  0.00    +0.000 OA
ENDROOT
TORSDOF 0
ENDMDL
MODEL 3
REMARK VINA RESULT:    -7.691      2.613      4.724
REMARK INTER + INTRA:          -7.691
REMARK INTER:                  -7.691
REMARK INTRA:                   0.000
REMARK UNBOUND:                 0.000
ROOT
REMARK  Name = letosteine
REMARK                            x       y       z     vdW  Elec       q    Type
REMARK                         _______ _______ _______ _____ _____    ______ ____
ATOM      1  C   UNK     1      64.631  65.531  70.978  0.00  0.00    +0.000 C 
ATOM      2  C   UNK     1      63.856  65.301  70.816  0.00  0.00    +0.000 C 
ATOM      3  O   UNK     1      63.684  64.894  70.118  0.00  0.00    +0.000 OA
ATOM      4  C   UNK     1      62.909  64.664  69.956  0.00  0.00    +0.000 C 
ATOM      5  O   UNK     1      62.305  64.840  70.490  0.00  0.00    +0.000 OA
ATOM      6  C   UNK     1      62.737  64.257  69.258  0.00  0.00    +0.000 C 
ATOM      7  S   UNK     1      61.962  64.027  69.096  0.00  0.00    +0.000 S 
ATOM      8  C   UNK     1      61.790  63.621  68.398  0.00  0.00    +0.000 C 
ATOM      9  C   UNK     1      61.015  63.390  68.236  0.00  0.00    +0.000 C 
ATOM     10  C   UNK     1      60.843  62.984  67.538  0.00  0.00    +0.000 C 
ATOM     11  N   UNK     1      60.098  62.720  67.303  0.00  0.00    +0.000 NA
ATOM     12  C   UNK     1      60.181  62.343  66.573  0.00  0.00    +0.000 C 
ATOM     13  C   UNK     1      60.976  62.374  66.359  0.00  0.00    +0.000 C 
ATOM     14  S   UNK     1      61.386  62.770  66.955  0.00  0.00    +0.000 S 
ATOM     15  C   UNK     1      59.574  61.995  66.135  0.00  0.00    +0.000 C 
ATOM     16  O   UNK     1      58.800  62.007  66.422  0.00  0.00    +0.000 OA
ATOM     17  O   UNK     1      59.740  61.637  65.411  0.00  0.00    +0.000 OA
ENDROOT
TORSDOF 0
ENDMDL
MODEL 4
REMARK VINA RESULT:    -7.643      3.695      4.914
REMARK INTER + INTRA:          -7.643
REMARK INTER:                  -7.643
REMARK INTRA:                   0.000
REMARK UNBOUND:                 0.000
ROOT
REMARK  Name = letosteine
REMARK                            x       y       z     vdW  Elec       q    Type
REMARK                         _______ _______ _______ _____ _____    ______ ____
ATOM      1  C   UNK     1      66.061  67.684  70.396  0.00  0.00    +0.000 C 
ATOM      2  C   UNK     1      65.613  67.052  70.679  0.00  0.00    +0.000 C 
ATOM      3  O   UNK     1      65.053  66.693  70.190  0.00  0.00    +0.000 OA
ATOM      4  C   UNK     1      64.605  66.061  70.473  0.00  0.00    +0.000 C 
ATOM      5  O   UNK     1      64.715  65.788  71.243  0.00  0.00    +0.000 OA
ATOM      6  C   UNK     1      64.045  65.701  69.984  0.00  0.00    +0.000 C 
ATOM      7  S   UNK     1      63.596  65.069  70.267  0.00  0.00    +0.000 S 
ATOM      8  C   UNK     1      63.036  64.710  69.778  0.00  0.00    +0.000 C 
ATOM      9  C   UNK     1      62.588  64.078  70.061  0.00  0.00    +0.000 C 
ATOM     10  C   UNK     1      62.028  63.718  69.572  0.00  0.00    +0.000 C 
ATOM     11  N   UNK     1      61.542  63.085  69.777  0.00  0.00    +0.000 NA
ATOM     12  C   UNK     1      61.070  62.905  69.125  0.00  0.00    +0.000 C 
ATOM     13  C   UNK     1      61.265  63.426  68.517  0.00  0.00    +0.000 C 
ATOM     14  S   UNK     1      61.857  63.930  68.793  0.00  0.00    +0.000 S 
ATOM     15  C   UNK     1      60.502  62.307  69.087  0.00  0.00    +0.000 C 
ATOM     16  O   UNK     1      60.367  61.825  69.743  0.00  0.00    +0.000 OA
ATOM     17  O   UNK     1      60.071  62.191  68.394  0.00  0.00    +0.000 OA
ENDROOT
TORSDOF 0
ENDMDL
MODEL 5
REMARK VINA RESULT:    -7.547      4.287      4.711
REMARK INTER + INTRA:          -7.547
REMARK INTER:                  -7.547
REMARK INTRA:                   0.000
REMARK UNBOUND:                 0.000
ROOT
REMARK  Name = letosteine
REMARK                            x       y       z     vdW  Elec       q    Type
REMARK                         _______ _______ _______ _____ _____    ______ ____
ATOM      1  C   UNK     1      60.256  62.543  67.861  0.00  0.00    +0.000 C 
ATOM      2  C   UNK     1      60.677  62.747  68.541  0.00  0.00    +0.000 C 
ATOM      3  O   UNK     1      61.276  63.313  68.500  0.00  0.00    +0.000 OA
ATOM      4  C   UNK     1      61.697  63.516  69.180  0.00  0.00    +0.000 C 
ATOM      5  O   UNK     1      61.519  63.154  69.900  0.00  0.00    +0.000 OA
ATOM      6  C   UNK     1      62.297  64.082  69.139  0.00  0.00    +0.000 C 
ATOM      7  S   UNK     1      62.718  64.286  69.819  0.00  0.00    +0.000 S 
ATOM      8  C   UNK     1      63.317  64.852  69.779  0.00  0.00    +0.000 C 
ATOM      9  C   UNK     1      63.738  65.055  70.458  0.00  0.00    +0.000 C 
ATOM     10  C   UNK     1      64.338  65.622  70.418  0.00  0.00    +0.000 C 
ATOM     11  N   UNK     1      64.803  65.880  71.048  0.00  0.00    +0.000 NA
ATOM     12  C   UNK     1      65.329  66.446  70.760  0.00  0.00    +0.000 C 
ATOM     13  C   UNK     1      65.189  66.537  69.953  0.00  0.00    +0.000 C 
ATOM     14  S   UNK     1      64.576  66.028  69.741  0.00  0.00    +0.000 S 
ATOM     15  C   UNK     1      65.897  66.850  71.202  0.00  0.00    +0.000 C 
ATOM     16  O   UNK     1      65.974  66.700  72.009  0.00  0.00    +0.000 OA
ATOM     17  O   UNK     1      66.387  67.404  70.837  0.00  0.00    +0.000 OA
ENDROOT
TORSDOF 0
ENDMDL
MODEL 6
REMARK VINA RESULT:    -7.505      1.362      5.472
REMARK INTER + INTRA:          -7.505
REMARK INTER:                  -7.505
REMARK INTRA:                   0.000
REMARK UNBOUND:                 0.000
ROOT
REMARK  Name = letosteine
REMARK                            x       y       z     vdW  Elec       q    Type
REMARK                         _______ _______ _______ _____ _____    ______ ____
ATOM      1  C   UNK     1      58.634  67.028  72.705  0.00  0.00    +0.000 C 
ATOM      2  C   UNK     1      58.927  66.973  71.936  0.00  0.00    +0.000 C 
ATOM      3  O   UNK     1      59.131  66.235  71.625  0.00  0.00    +0.000 OA
ATOM      4  C   UNK     1      59.425  66.180  70.856  0.00  0.00    +0.000 C 
ATOM      5  O   UNK     1      59.514  66.860  70.398  0.00  0.00    +0.000 OA
ATOM      6  C   UNK     1      59.629  65.443  70.545  0.00  0.00    +0.000 C 
ATOM      7  S   UNK     1      59.923  65.387  69.776  0.00  0.00    +0.000 S 
ATOM      8  C   UNK     1      60.127  64.650  69.465  0.00  0.00    +0.000 C 
ATOM      9  C   UNK     1      60.420  64.595  68.696  0.00  0.00    +0.000 C 
ATOM     10  C   UNK     1      60.625  63.857  68.385  0.00  0.00    +0.000 C 
ATOM     11  N   UNK     1      60.923  63.717  67.630  0.00  0.00    +0.000 NA
ATOM     12  C   UNK     1      61.049  62.905  67.553  0.00  0.00    +0.000 C 
ATOM     13  C   UNK     1      60.828  62.545  68.261  0.00  0.00    +0.000 C 
ATOM     14  S   UNK     1      60.566  63.134  68.776  0.00  0.00    +0.000 S 
ATOM     15  C   UNK     1      61.344  62.521  66.885  0.00  0.00    +0.000 C 
ATOM     16  O   UNK     1      61.543  62.957  66.213  0.00  0.00    +0.000 OA
ATOM     17  O   UNK     1      61.441  61.702  66.889  0.00  0.00    +0.000 OA
ENDROOT
TORSDOF 0
ENDMDL
MODEL 7
REMARK VINA RESULT:    -7.176      4.689      6.085
REMARK INTER + INTRA:          -7.176
REMARK INTER:                  -7.176
REMARK INTRA:                   0.000
REMARK UNBOUND:                 0.000
ROOT
REMARK  Name = letosteine
REMARK                            x       y       z     vdW  Elec       q    Type
REMARK                         _______ _______ _______ _____ _____    ______ ____
ATOM      1  C   UNK     1      59.632  63.710  71.775  0.00  0.00    +0.000 C 
ATOM      2  C   UNK     1      60.100  64.159  71.264  0.00  0.00    +0.000 C 
ATOM      3  O   UNK     1      60.854  64.400  71.500  0.00  0.00    +0.000 OA
ATOM      4  C   UNK     1      61.322  64.848  70.990  0.00  0.00    +0.000 C 
ATOM      5  O   UNK     1      61.037  65.057  70.245  0.00  0.00    +0.000 OA
ATOM      6  C   UNK     1      62.075  65.089  71.226  0.00  0.00    +0.000 C 
ATOM      7  S   UNK     1      62.543  65.538  70.716  0.00  0.00    +0.000 S 
ATOM      8  C   UNK     1      63.297  65.778  70.952  0.00  0.00    +0.000 C 
ATOM      9  C   UNK     1      63.764  66.227  70.442  0.00  0.00    +0.000 C 
ATOM     10  C   UNK     1      64.518  66.467  70.678  0.00  0.00    +0.000 C 
ATOM     11  N   UNK     1      65.046  66.915  70.230  0.00  0.00    +0.000 NA
ATOM     12  C   UNK     1      65.729  67.027  70.678  0.00  0.00    +0.000 C 
ATOM     13  C   UNK     1      65.624  66.648  71.403  0.00  0.00    +0.000 C 
ATOM     14  S   UNK     1      64.875  66.302  71.403  0.00  0.00    +0.000 S 
ATOM     15  C   UNK     1      66.401  67.445  70.443  0.00  0.00    +0.000 C 
ATOM     16  O   UNK     1      66.427  67.797  69.698  0.00  0.00    +0.000 OA
ATOM     17  O   UNK     1      67.046  67.510  70.953  0.00  0.00    +0.000 OA
ENDROOT
TORSDOF 0
ENDMDL
MODEL 8
REMARK VINA RESULT:    -7.039      2.612      2.875
REMARK INTER + INTRA:          -7.039
REMARK INTER:                  -7.039
REMARK INTRA:                   0.000
REMARK UNBOUND:                 0.000
ROOT
REMARK  Name = letosteine
REMARK                            x       y       z     vdW  Elec       q    Type
REMARK                         _______ _______ _______ _____ _____    ______ ____
ATOM      1  C   UNK     1      59.486  62.047  66.078  0.00  0.00    +0.000 C 
ATOM      2  C   UNK     1      59.679  62.166  66.871  0.00  0.00    +0.000 C 
ATOM      3  O   UNK     1      60.177  62.788  67.085  0.00  0.00    +0.000 OA
ATOM      4  C   UNK     1      60.370  62.908  67.878  0.00  0.00    +0.000 C 
ATOM      5  O   UNK     1      60.065  62.406  68.457  0.00  0.00    +0.000 OA
ATOM      6  C   UNK     1      60.869  63.530  68.091  0.00  0.00    +0.000 C 
ATOM      7  S   UNK     1      61.062  63.650  68.884  0.00  0.00    +0.000 S 
ATOM      8  C   UNK     1      61.561  64.272  69.098  0.00  0.00    +0.000 C 
ATOM      9  C   UNK     1      61.754  64.391  69.891  0.00  0.00    +0.000 C 
ATOM     10  C   UNK     1      62.253  65.014  70.104  0.00  0.00    +0.000 C 
ATOM     11  N   UNK     1      62.493  65.200  70.871  0.00  0.00    +0.000 NA
ATOM     12  C   UNK     1      62.987  65.860  70.829  0.00  0.00    +0.000 C 
ATOM     13  C   UNK     1      63.051  66.080  70.037  0.00  0.00    +0.000 C 
ATOM     14  S   UNK     1      62.598  65.557  69.589  0.00  0.00    +0.000 S 
ATOM     15  C   UNK     1      63.353  66.234  71.468  0.00  0.00    +0.000 C 
ATOM     16  O   UNK     1      63.236  65.949  72.233  0.00  0.00    +0.000 OA
ATOM     17  O   UNK     1      63.834  66.891  71.341  0.00  0.00    +0.000 OA
ENDROOT
TORSDOF 0
ENDMDL
MODEL 9
REMARK VINA RESULT:    -6.354     13.897     14.396
REMARK INTER + INTRA:          -6.354
REMARK INTER:                  -6.354
REMARK INTRA:                   0.000
REMARK UNBOUND:                 0.000
ROOT
REMARK  Name = letosteine
REMARK                            x       y       z     vdW  Elec       q    Type
REMARK                         _______ _______ _______ _____ _____    ______ ____
ATOM      1  C   UNK     1      61.852  62.121  52.461  0.00  0.00    +0.000 C 
ATOM      2  C   UNK     1      61.909  62.593  53.135  0.00  0.00    +0.000 C 
ATOM      3  O   UNK     1      61.947  63.415  53.062  0.00  0.00    +0.000 OA
ATOM      4  C   UNK     1      62.004  63.886  53.736  0.00  0.00    +0.000 C 
ATOM      5  O   UNK     1      62.024  63.538  54.483  0.00  0.00    +0.000 OA
ATOM      6  C   UNK     1      62.042  64.708  53.662  0.00  0.00    +0.000 C 
ATOM      7  S   UNK     1      62.099  65.180  54.336  0.00  0.00    +0.000 S 
ATOM      8  C   UNK     1      62.136  66.001  54.262  0.00  0.00    +0.000 C 
ATOM      9  C   UNK     1      62.194  66.473  54.936  0.00  0.00    +0.000 C 
ATOM     10  C   UNK     1      62.231  67.295  54.862  0.00  0.00    +0.000 C 
ATOM     11  N   UNK     1      62.289  67.834  55.483  0.00  0.00    +0.000 NA
ATOM     12  C   UNK     1      62.311  68.593  55.159  0.00  0.00    +0.000 C 
ATOM     13  C   UNK     1      62.267  68.521  54.339  0.00  0.00    +0.000 C 
ATOM     14  S   UNK     1      62.217  67.719  54.155  0.00  0.00    +0.000 S 
ATOM     15  C   UNK     1      62.368  69.300  55.582  0.00  0.00    +0.000 C 
ATOM     16  O   UNK     1      62.408  69.285  56.406  0.00  0.00    +0.000 OA
ATOM     17  O   UNK     1      62.384  70.020  55.181  0.00  0.00    +0.000 OA
ENDROOT
TORSDOF 0
ENDMDL
