MODEL 1
REMARK VINA RESULT:   -10.510      0.000      0.000
REMARK INTER + INTRA:         -10.510
REMARK INTER:                 -10.510
REMARK INTRA:                   0.000
REMARK UNBOUND:                 0.000
ROOT
REMARK  Name = letrozole
REMARK                            x       y       z     vdW  Elec       q    Type
REMARK                         _______ _______ _______ _____ _____    ______ ____
ATOM      1  N   UNL     1      61.637  62.810  70.974  0.00  0.00    +0.000 NA
ATOM      2  C   UNL     1      61.971  63.545  71.149  0.00  0.00    +0.000 C 
ATOM      3  C   UNL     1      62.303  64.279  71.325  0.00  0.00    +0.000 A 
ATOM      4  C   UNL     1      61.908  64.801  71.827  0.00  0.00    +0.000 A 
ATOM      5  C   UNL     1      62.241  65.535  72.002  0.00  0.00    +0.000 A 
ATOM      6  C   UNL     1      62.968  65.748  71.676  0.00  0.00    +0.000 A 
ATOM      7  C   UNL     1      63.362  65.226  71.174  0.00  0.00    +0.000 A 
ATOM      8  C   UNL     1      63.030  64.491  70.998  0.00  0.00    +0.000 A 
ATOM      9  C   UNL     1      63.301  66.482  71.851  0.00  0.00    +0.000 C 
ATOM     10  N   UNL     1      62.906  67.004  72.354  0.00  0.00    +0.000 N 
ATOM     11  C   UNL     1      62.179  66.868  72.720  0.00  0.00    +0.000 A 
ATOM     12  N   UNL     1      61.993  67.534  73.171  0.00  0.00    +0.000 NA
ATOM     13  C   UNL     1      62.604  68.081  73.084  0.00  0.00    +0.000 A 
ATOM     14  N   UNL     1      63.169  67.753  72.578  0.00  0.00    +0.000 NA
ATOM     15  C   UNL     1      64.028  66.694  71.525  0.00  0.00    +0.000 A 
ATOM     16  C   UNL     1      64.361  67.429  71.700  0.00  0.00    +0.000 A 
ATOM     17  C   UNL     1      65.087  67.641  71.374  0.00  0.00    +0.000 A 
ATOM     18  C   UNL     1      65.482  67.119  70.871  0.00  0.00    +0.000 A 
ATOM     19  C   UNL     1      65.150  66.385  70.695  0.00  0.00    +0.000 A 
ATOM     20  C   UNL     1      64.422  66.172  71.022  0.00  0.00    +0.000 A 
ATOM     21  C   UNL     1      66.210  67.331  70.544  0.00  0.00    +0.000 C 
ATOM     22  N   UNL     1      66.936  67.543  70.218  0.00  0.00    +0.000 NA
ENDROOT
TORSDOF 0
ENDMDL
MODEL 2
REMARK VINA RESULT:   -10.476      4.258      5.108
REMARK INTER + INTRA:         -10.476
REMARK INTER:                 -10.476
REMARK INTRA:                   0.000
REMARK UNBOUND:                 0.000
ROOT
REMARK  Name = letrozole
REMARK                            x       y       z     vdW  Elec       q    Type
REMARK                         _______ _______ _______ _____ _____    ______ ____
ATOM      1  N   UNL     1      60.584  61.983  66.211  0.00  0.00    +0.000 NA
ATOM      2  C   UNL     1      60.560  62.342  66.954  0.00  0.00    +0.000 C 
ATOM      3  C   UNL     1      60.536  62.703  67.695  0.00  0.00    +0.000 A 
ATOM      4  C   UNL     1      60.215  63.458  67.777  0.00  0.00    +0.000 A 
ATOM      5  C   UNL     1      60.191  63.817  68.520  0.00  0.00    +0.000 A 
ATOM      6  C   UNL     1      60.488  63.422  69.180  0.00  0.00    +0.000 A 
ATOM      7  C   UNL     1      60.809  62.667  69.098  0.00  0.00    +0.000 A 
ATOM      8  C   UNL     1      60.833  62.306  68.356  0.00  0.00    +0.000 A 
ATOM      9  C   UNL     1      60.464  63.781  69.922  0.00  0.00    +0.000 C 
ATOM     10  N   UNL     1      60.142  64.537  70.004  0.00  0.00    +0.000 N 
ATOM     11  C   UNL     1      59.826  64.998  69.397  0.00  0.00    +0.000 A 
ATOM     12  N   UNL     1      59.569  65.710  69.725  0.00  0.00    +0.000 NA
ATOM     13  C   UNL     1      59.727  65.689  70.534  0.00  0.00    +0.000 A 
ATOM     14  N   UNL     1      60.081  64.964  70.707  0.00  0.00    +0.000 NA
ATOM     15  C   UNL     1      60.761  63.386  70.582  0.00  0.00    +0.000 A 
ATOM     16  C   UNL     1      60.737  63.746  71.324  0.00  0.00    +0.000 A 
ATOM     17  C   UNL     1      61.034  63.350  71.984  0.00  0.00    +0.000 A 
ATOM     18  C   UNL     1      61.355  62.595  71.902  0.00  0.00    +0.000 A 
ATOM     19  C   UNL     1      61.379  62.235  71.160  0.00  0.00    +0.000 A 
ATOM     20  C   UNL     1      61.082  62.631  70.500  0.00  0.00    +0.000 A 
ATOM     21  C   UNL     1      61.652  62.199  72.563  0.00  0.00    +0.000 C 
ATOM     22  N   UNL     1      61.949  61.804  73.222  0.00  0.00    +0.000 NA
ENDROOT
TORSDOF 0
ENDMDL
MODEL 3
REMARK VINA RESULT:   -10.448      4.208      5.231
REMARK INTER + INTRA:         -10.448
REMARK INTER:                 -10.448
REMARK INTRA:                   0.000
REMARK UNBOUND:                 0.000
ROOT
REMARK  Name = letrozole
REMARK                            x       y       z     vdW  Elec       q    Type
REMARK                         _______ _______ _______ _____ _____    ______ ____
ATOM      1  N   UNL     1      62.000  61.651  73.201  0.00  0.00    +0.000 NA
ATOM      2  C   UNL     1      61.678  62.065  72.563  0.00  0.00    +0.000 C 
ATOM      3  C   UNL     1      61.357  62.480  71.927  0.00  0.00    +0.000 A 
ATOM      4  C   UNL     1      61.090  63.254  72.031  0.00  0.00    +0.000 A 
ATOM      5  C   UNL     1      60.769  63.668  71.394  0.00  0.00    +0.000 A 
ATOM      6  C   UNL     1      60.714  63.309  70.653  0.00  0.00    +0.000 A 
ATOM      7  C   UNL     1      60.981  62.536  70.550  0.00  0.00    +0.000 A 
ATOM      8  C   UNL     1      61.302  62.121  71.186  0.00  0.00    +0.000 A 
ATOM      9  C   UNL     1      60.393  63.723  70.016  0.00  0.00    +0.000 C 
ATOM     10  N   UNL     1      60.126  64.497  70.120  0.00  0.00    +0.000 N 
ATOM     11  C   UNL     1      60.145  64.926  70.825  0.00  0.00    +0.000 A 
ATOM     12  N   UNL     1      59.824  65.672  70.678  0.00  0.00    +0.000 NA
ATOM     13  C   UNL     1      59.607  65.704  69.882  0.00  0.00    +0.000 A 
ATOM     14  N   UNL     1      59.794  64.978  69.538  0.00  0.00    +0.000 NA
ATOM     15  C   UNL     1      60.339  63.365  69.276  0.00  0.00    +0.000 A 
ATOM     16  C   UNL     1      60.017  63.779  68.638  0.00  0.00    +0.000 A 
ATOM     17  C   UNL     1      59.963  63.420  67.898  0.00  0.00    +0.000 A 
ATOM     18  C   UNL     1      60.230  62.646  67.794  0.00  0.00    +0.000 A 
ATOM     19  C   UNL     1      60.551  62.231  68.431  0.00  0.00    +0.000 A 
ATOM     20  C   UNL     1      60.605  62.591  69.172  0.00  0.00    +0.000 A 
ATOM     21  C   UNL     1      60.175  62.287  67.053  0.00  0.00    +0.000 C 
ATOM     22  N   UNL     1      60.121  61.928  66.313  0.00  0.00    +0.000 NA
ENDROOT
TORSDOF 0
ENDMDL
MODEL 4
REMARK VINA RESULT:   -10.436      0.349      3.610
REMARK INTER + INTRA:         -10.436
REMARK INTER:                 -10.436
REMARK INTRA:                   0.000
REMARK UNBOUND:                 0.000
ROOT
REMARK  Name = letrozole
REMARK                            x       y       z     vdW  Elec       q    Type
REMARK                         _______ _______ _______ _____ _____    ______ ____
ATOM      1  N   UNL     1      66.864  67.612  70.173  0.00  0.00    +0.000 NA
ATOM      2  C   UNL     1      66.145  67.383  70.508  0.00  0.00    +0.000 C 
ATOM      3  C   UNL     1      65.427  67.157  70.844  0.00  0.00    +0.000 A 
ATOM      4  C   UNL     1      65.033  67.666  71.360  0.00  0.00    +0.000 A 
ATOM      5  C   UNL     1      64.314  67.438  71.695  0.00  0.00    +0.000 A 
ATOM      6  C   UNL     1      63.990  66.701  71.516  0.00  0.00    +0.000 A 
ATOM      7  C   UNL     1      64.385  66.192  71.001  0.00  0.00    +0.000 A 
ATOM      8  C   UNL     1      65.103  66.419  70.665  0.00  0.00    +0.000 A 
ATOM      9  C   UNL     1      63.272  66.473  71.851  0.00  0.00    +0.000 C 
ATOM     10  N   UNL     1      62.877  66.983  72.366  0.00  0.00    +0.000 N 
ATOM     11  C   UNL     1      63.133  67.733  72.596  0.00  0.00    +0.000 A 
ATOM     12  N   UNL     1      62.571  68.046  73.114  0.00  0.00    +0.000 NA
ATOM     13  C   UNL     1      61.969  67.489  73.204  0.00  0.00    +0.000 A 
ATOM     14  N   UNL     1      62.159  66.832  72.742  0.00  0.00    +0.000 NA
ATOM     15  C   UNL     1      62.948  65.737  71.672  0.00  0.00    +0.000 A 
ATOM     16  C   UNL     1      62.229  65.508  72.008  0.00  0.00    +0.000 A 
ATOM     17  C   UNL     1      61.905  64.772  71.829  0.00  0.00    +0.000 A 
ATOM     18  C   UNL     1      62.300  64.262  71.313  0.00  0.00    +0.000 A 
ATOM     19  C   UNL     1      63.018  64.489  70.977  0.00  0.00    +0.000 A 
ATOM     20  C   UNL     1      63.342  65.227  71.157  0.00  0.00    +0.000 A 
ATOM     21  C   UNL     1      61.975  63.524  71.134  0.00  0.00    +0.000 C 
ATOM     22  N   UNL     1      61.652  62.788  70.955  0.00  0.00    +0.000 NA
ENDROOT
TORSDOF 0
ENDMDL
MODEL 5
REMARK VINA RESULT:   -10.299      2.230      4.524
REMARK INTER + INTRA:         -10.299
REMARK INTER:                 -10.299
REMARK INTRA:                   0.000
REMARK UNBOUND:                 0.000
ROOT
REMARK  Name = letrozole
REMARK                            x       y       z     vdW  Elec       q    Type
REMARK                         _______ _______ _______ _____ _____    ______ ____
ATOM      1  N   UNL     1      63.399  68.678  72.893  0.00  0.00    +0.000 NA
ATOM      2  C   UNL     1      62.841  68.071  72.852  0.00  0.00    +0.000 C 
ATOM      3  C   UNL     1      62.282  67.465  72.811  0.00  0.00    +0.000 A 
ATOM      4  C   UNL     1      61.479  67.639  72.885  0.00  0.00    +0.000 A 
ATOM      5  C   UNL     1      60.921  67.032  72.844  0.00  0.00    +0.000 A 
ATOM      6  C   UNL     1      61.166  66.253  72.730  0.00  0.00    +0.000 A 
ATOM      7  C   UNL     1      61.969  66.080  72.656  0.00  0.00    +0.000 A 
ATOM      8  C   UNL     1      62.528  66.685  72.696  0.00  0.00    +0.000 A 
ATOM      9  C   UNL     1      60.608  65.646  72.689  0.00  0.00    +0.000 C 
ATOM     10  N   UNL     1      59.805  65.819  72.763  0.00  0.00    +0.000 N 
ATOM     11  C   UNL     1      59.479  66.569  72.879  0.00  0.00    +0.000 A 
ATOM     12  N   UNL     1      58.659  66.487  72.922  0.00  0.00    +0.000 NA
ATOM     13  C   UNL     1      58.478  65.687  72.832  0.00  0.00    +0.000 A 
ATOM     14  N   UNL     1      59.187  65.275  72.734  0.00  0.00    +0.000 NA
ATOM     15  C   UNL     1      60.853  64.867  72.574  0.00  0.00    +0.000 A 
ATOM     16  C   UNL     1      60.295  64.261  72.534  0.00  0.00    +0.000 A 
ATOM     17  C   UNL     1      60.540  63.482  72.419  0.00  0.00    +0.000 A 
ATOM     18  C   UNL     1      61.343  63.309  72.345  0.00  0.00    +0.000 A 
ATOM     19  C   UNL     1      61.901  63.914  72.386  0.00  0.00    +0.000 A 
ATOM     20  C   UNL     1      61.656  64.694  72.500  0.00  0.00    +0.000 A 
ATOM     21  C   UNL     1      61.588  62.529  72.230  0.00  0.00    +0.000 C 
ATOM     22  N   UNL     1      61.833  61.750  72.116  0.00  0.00    +0.000 NA
ENDROOT
TORSDOF 0
ENDMDL
MODEL 6
REMARK VINA RESULT:   -10.275      4.345      5.838
REMARK INTER + INTRA:         -10.275
REMARK INTER:                 -10.275
REMARK INTRA:                   0.000
REMARK UNBOUND:                 0.000
ROOT
REMARK  Name = letrozole
REMARK                            x       y       z     vdW  Elec       q    Type
REMARK                         _______ _______ _______ _____ _____    ______ ____
ATOM      1  N   UNL     1      59.409  67.239  70.359  0.00  0.00    +0.000 NA
ATOM      2  C   UNL     1      59.598  66.448  70.218  0.00  0.00    +0.000 C 
ATOM      3  C   UNL     1      59.787  65.658  70.078  0.00  0.00    +0.000 A 
ATOM      4  C   UNL     1      59.910  65.144  70.712  0.00  0.00    +0.000 A 
ATOM      5  C   UNL     1      60.099  64.353  70.571  0.00  0.00    +0.000 A 
ATOM      6  C   UNL     1      60.166  64.076  69.797  0.00  0.00    +0.000 A 
ATOM      7  C   UNL     1      60.044  64.590  69.163  0.00  0.00    +0.000 A 
ATOM      8  C   UNL     1      59.854  65.381  69.303  0.00  0.00    +0.000 A 
ATOM      9  C   UNL     1      60.355  63.286  69.656  0.00  0.00    +0.000 C 
ATOM     10  N   UNL     1      60.477  62.772  70.290  0.00  0.00    +0.000 N 
ATOM     11  C   UNL     1      60.429  62.969  71.090  0.00  0.00    +0.000 A 
ATOM     12  N   UNL     1      60.591  62.289  71.530  0.00  0.00    +0.000 NA
ATOM     13  C   UNL     1      60.739  61.673  71.001  0.00  0.00    +0.000 A 
ATOM     14  N   UNL     1      60.669  61.971  70.235  0.00  0.00    +0.000 NA
ATOM     15  C   UNL     1      60.422  63.009  68.882  0.00  0.00    +0.000 A 
ATOM     16  C   UNL     1      60.611  62.218  68.741  0.00  0.00    +0.000 A 
ATOM     17  C   UNL     1      60.678  61.941  67.967  0.00  0.00    +0.000 A 
ATOM     18  C   UNL     1      60.556  62.455  67.334  0.00  0.00    +0.000 A 
ATOM     19  C   UNL     1      60.367  63.246  67.473  0.00  0.00    +0.000 A 
ATOM     20  C   UNL     1      60.300  63.523  68.249  0.00  0.00    +0.000 A 
ATOM     21  C   UNL     1      60.623  62.179  66.559  0.00  0.00    +0.000 C 
ATOM     22  N   UNL     1      60.690  61.902  65.785  0.00  0.00    +0.000 NA
ENDROOT
TORSDOF 0
ENDMDL
MODEL 7
REMARK VINA RESULT:   -10.258      4.398      5.516
REMARK INTER + INTRA:         -10.258
REMARK INTER:                 -10.258
REMARK INTRA:                   0.000
REMARK UNBOUND:                 0.000
ROOT
REMARK  Name = letrozole
REMARK                            x       y       z     vdW  Elec       q    Type
REMARK                         _______ _______ _______ _____ _____    ______ ____
ATOM      1  N   UNL     1      61.024  61.991  65.714  0.00  0.00    +0.000 NA
ATOM      2  C   UNL     1      60.897  62.252  66.487  0.00  0.00    +0.000 C 
ATOM      3  C   UNL     1      60.771  62.511  67.260  0.00  0.00    +0.000 A 
ATOM      4  C   UNL     1      60.845  61.983  67.889  0.00  0.00    +0.000 A 
ATOM      5  C   UNL     1      60.718  62.243  68.662  0.00  0.00    +0.000 A 
ATOM      6  C   UNL     1      60.517  63.030  68.805  0.00  0.00    +0.000 A 
ATOM      7  C   UNL     1      60.442  63.558  68.175  0.00  0.00    +0.000 A 
ATOM      8  C   UNL     1      60.569  63.299  67.402  0.00  0.00    +0.000 A 
ATOM      9  C   UNL     1      60.390  63.290  69.578  0.00  0.00    +0.000 C 
ATOM     10  N   UNL     1      60.464  62.763  70.208  0.00  0.00    +0.000 N 
ATOM     11  C   UNL     1      60.661  61.963  70.150  0.00  0.00    +0.000 A 
ATOM     12  N   UNL     1      60.674  61.648  70.913  0.00  0.00    +0.000 NA
ATOM     13  C   UNL     1      60.484  62.252  71.441  0.00  0.00    +0.000 A 
ATOM     14  N   UNL     1      60.355  62.941  71.005  0.00  0.00    +0.000 NA
ATOM     15  C   UNL     1      60.188  64.077  69.721  0.00  0.00    +0.000 A 
ATOM     16  C   UNL     1      60.061  64.337  70.493  0.00  0.00    +0.000 A 
ATOM     17  C   UNL     1      59.860  65.124  70.636  0.00  0.00    +0.000 A 
ATOM     18  C   UNL     1      59.786  65.651  70.007  0.00  0.00    +0.000 A 
ATOM     19  C   UNL     1      59.912  65.392  69.234  0.00  0.00    +0.000 A 
ATOM     20  C   UNL     1      60.114  64.604  69.091  0.00  0.00    +0.000 A 
ATOM     21  C   UNL     1      59.584  66.439  70.149  0.00  0.00    +0.000 C 
ATOM     22  N   UNL     1      59.383  67.226  70.292  0.00  0.00    +0.000 NA
ENDROOT
TORSDOF 0
ENDMDL
MODEL 8
REMARK VINA RESULT:    -9.982      2.083      4.365
REMARK INTER + INTRA:          -9.982
REMARK INTER:                  -9.982
REMARK INTRA:                   0.000
REMARK UNBOUND:                 0.000
ROOT
REMARK  Name = letrozole
REMARK                            x       y       z     vdW  Elec       q    Type
REMARK                         _______ _______ _______ _____ _____    ______ ____
ATOM      1  N   UNL     1      57.449  67.196  73.221  0.00  0.00    +0.000 NA
ATOM      2  C   UNL     1      58.195  66.871  73.084  0.00  0.00    +0.000 C 
ATOM      3  C   UNL     1      58.942  66.548  72.948  0.00  0.00    +0.000 A 
ATOM      4  C   UNL     1      59.612  67.029  72.976  0.00  0.00    +0.000 A 
ATOM      5  C   UNL     1      60.358  66.704  72.840  0.00  0.00    +0.000 A 
ATOM      6  C   UNL     1      60.435  65.900  72.676  0.00  0.00    +0.000 A 
ATOM      7  C   UNL     1      59.765  65.419  72.648  0.00  0.00    +0.000 A 
ATOM      8  C   UNL     1      59.018  65.742  72.784  0.00  0.00    +0.000 A 
ATOM      9  C   UNL     1      61.181  65.575  72.539  0.00  0.00    +0.000 C 
ATOM     10  N   UNL     1      61.851  66.056  72.567  0.00  0.00    +0.000 N 
ATOM     11  C   UNL     1      61.860  66.866  72.724  0.00  0.00    +0.000 A 
ATOM     12  N   UNL     1      62.644  67.122  72.697  0.00  0.00    +0.000 NA
ATOM     13  C   UNL     1      63.119  66.470  72.524  0.00  0.00    +0.000 A 
ATOM     14  N   UNL     1      62.628  65.811  72.444  0.00  0.00    +0.000 NA
ATOM     15  C   UNL     1      61.257  64.771  72.376  0.00  0.00    +0.000 A 
ATOM     16  C   UNL     1      62.004  64.446  72.239  0.00  0.00    +0.000 A 
ATOM     17  C   UNL     1      62.080  63.642  72.075  0.00  0.00    +0.000 A 
ATOM     18  C   UNL     1      61.411  63.161  72.048  0.00  0.00    +0.000 A 
ATOM     19  C   UNL     1      60.664  63.484  72.184  0.00  0.00    +0.000 A 
ATOM     20  C   UNL     1      60.588  64.290  72.348  0.00  0.00    +0.000 A 
ATOM     21  C   UNL     1      61.487  62.355  71.883  0.00  0.00    +0.000 C 
ATOM     22  N   UNL     1      61.564  61.551  71.719  0.00  0.00    +0.000 NA
ENDROOT
TORSDOF 0
ENDMDL
MODEL 9
REMARK VINA RESULT:    -9.948      1.584      2.501
REMARK INTER + INTRA:          -9.948
REMARK INTER:                  -9.948
REMARK INTRA:                   0.000
REMARK UNBOUND:                 0.000
ROOT
REMARK  Name = letrozole
REMARK                            x       y       z     vdW  Elec       q    Type
REMARK                         _______ _______ _______ _____ _____    ______ ____
ATOM      1  N   UNL     1      60.498  61.249  70.725  0.00  0.00    +0.000 NA
ATOM      2  C   UNL     1      60.646  62.009  71.010  0.00  0.00    +0.000 C 
ATOM      3  C   UNL     1      60.794  62.769  71.295  0.00  0.00    +0.000 A 
ATOM      4  C   UNL     1      60.200  63.184  71.690  0.00  0.00    +0.000 A 
ATOM      5  C   UNL     1      60.348  63.944  71.975  0.00  0.00    +0.000 A 
ATOM      6  C   UNL     1      61.089  64.288  71.866  0.00  0.00    +0.000 A 
ATOM      7  C   UNL     1      61.683  63.873  71.471  0.00  0.00    +0.000 A 
ATOM      8  C   UNL     1      61.536  63.113  71.186  0.00  0.00    +0.000 A 
ATOM      9  C   UNL     1      61.238  65.049  72.151  0.00  0.00    +0.000 C 
ATOM     10  N   UNL     1      60.644  65.464  72.545  0.00  0.00    +0.000 N 
ATOM     11  C   UNL     1      59.879  65.192  72.695  0.00  0.00    +0.000 A 
ATOM     12  N   UNL     1      59.473  65.784  73.101  0.00  0.00    +0.000 NA
ATOM     13  C   UNL     1      59.987  66.422  73.203  0.00  0.00    +0.000 A 
ATOM     14  N   UNL     1      60.710  66.224  72.859  0.00  0.00    +0.000 NA
ATOM     15  C   UNL     1      61.979  65.393  72.042  0.00  0.00    +0.000 A 
ATOM     16  C   UNL     1      62.127  66.153  72.327  0.00  0.00    +0.000 A 
ATOM     17  C   UNL     1      62.868  66.497  72.217  0.00  0.00    +0.000 A 
ATOM     18  C   UNL     1      63.462  66.082  71.823  0.00  0.00    +0.000 A 
ATOM     19  C   UNL     1      63.315  65.322  71.538  0.00  0.00    +0.000 A 
ATOM     20  C   UNL     1      62.573  64.978  71.647  0.00  0.00    +0.000 A 
ATOM     21  C   UNL     1      64.204  66.427  71.714  0.00  0.00    +0.000 C 
ATOM     22  N   UNL     1      64.945  66.771  71.605  0.00  0.00    +0.000 NA
ENDROOT
TORSDOF 0
ENDMDL
