MODEL 1
REMARK VINA RESULT:   -13.447      0.000      0.000
REMARK INTER + INTRA:         -13.447
REMARK INTER:                 -13.447
REMARK INTRA:                   0.000
REMARK UNBOUND:                 0.000
ROOT
REMARK  Name = levallorphan
REMARK                            x       y       z     vdW  Elec       q    Type
REMARK                         _______ _______ _______ _____ _____    ______ ____
ATOM      1  O   UNL     1      62.356  61.207  63.102  0.00  0.00    +0.000 OA
ATOM      2  C   UNL     1      62.136  61.550  63.819  0.00  0.00    +0.000 A 
ATOM      3  C   UNL     1      61.389  61.401  64.135  0.00  0.00    +0.000 A 
ATOM      4  C   UNL     1      61.169  61.744  64.852  0.00  0.00    +0.000 A 
ATOM      5  C   UNL     1      61.622  62.167  65.197  0.00  0.00    +0.000 A 
ATOM      6  C   UNL     1      61.674  62.664  65.958  0.00  0.00    +0.000 C 
ATOM      7  C   UNL     1      61.115  62.776  66.556  0.00  0.00    +0.000 C 
ATOM      8  C   UNL     1      60.993  62.154  65.643  0.00  0.00    +0.000 C 
ATOM      9  C   UNL     1      61.757  62.372  65.426  0.00  0.00    +0.000 C 
ATOM     10  C   UNL     1      62.084  62.087  64.723  0.00  0.00    +0.000 C 
ATOM     11  C   UNL     1      61.645  61.584  64.239  0.00  0.00    +0.000 C 
ATOM     12  C   UNL     1      60.880  61.365  64.456  0.00  0.00    +0.000 C 
ATOM     13  C   UNL     1      60.553  61.650  65.159  0.00  0.00    +0.000 C 
ATOM     14  C   UNL     1      59.843  61.588  65.589  0.00  0.00    +0.000 C 
ATOM     15  C   UNL     1      59.821  62.015  66.294  0.00  0.00    +0.000 C 
ATOM     16  N   UNL     1      60.348  62.507  66.694  0.00  0.00    +0.000 NA
ATOM     17  C   UNL     1      60.034  62.799  67.399  0.00  0.00    +0.000 C 
ATOM     18  C   UNL     1      60.483  63.302  67.874  0.00  0.00    +0.000 C 
ATOM     19  C   UNL     1      60.169  63.594  68.579  0.00  0.00    +0.000 C 
ATOM     20  C   UNL     1      62.443  62.386  64.936  0.00  0.00    +0.000 A 
ATOM     21  C   UNL     1      62.663  62.043  64.220  0.00  0.00    +0.000 A 
ENDROOT
TORSDOF 0
ENDMDL
MODEL 2
REMARK VINA RESULT:   -11.855      1.566      3.326
REMARK INTER + INTRA:         -11.855
REMARK INTER:                 -11.855
REMARK INTRA:                   0.000
REMARK UNBOUND:                 0.000
ROOT
REMARK  Name = levallorphan
REMARK                            x       y       z     vdW  Elec       q    Type
REMARK                         _______ _______ _______ _____ _____    ______ ____
ATOM      1  O   UNL     1      59.769  63.208  68.784  0.00  0.00    +0.000 OA
ATOM      2  C   UNL     1      60.201  63.030  68.104  0.00  0.00    +0.000 A 
ATOM      3  C   UNL     1      59.853  62.592  67.497  0.00  0.00    +0.000 A 
ATOM      4  C   UNL     1      60.286  62.415  66.818  0.00  0.00    +0.000 A 
ATOM      5  C   UNL     1      60.956  62.638  66.755  0.00  0.00    +0.000 A 
ATOM      6  C   UNL     1      61.652  62.607  66.169  0.00  0.00    +0.000 C 
ATOM      7  C   UNL     1      61.701  62.251  65.425  0.00  0.00    +0.000 C 
ATOM      8  C   UNL     1      60.819  62.255  66.100  0.00  0.00    +0.000 C 
ATOM      9  C   UNL     1      61.265  62.695  66.636  0.00  0.00    +0.000 C 
ATOM     10  C   UNL     1      60.933  62.930  67.353  0.00  0.00    +0.000 C 
ATOM     11  C   UNL     1      60.154  62.726  67.535  0.00  0.00    +0.000 C 
ATOM     12  C   UNL     1      59.707  62.286  66.999  0.00  0.00    +0.000 C 
ATOM     13  C   UNL     1      60.039  62.051  66.281  0.00  0.00    +0.000 C 
ATOM     14  C   UNL     1      59.819  61.624  65.600  0.00  0.00    +0.000 C 
ATOM     15  C   UNL     1      60.406  61.556  65.024  0.00  0.00    +0.000 C 
ATOM     16  N   UNL     1      61.185  61.816  64.951  0.00  0.00    +0.000 NA
ATOM     17  C   UNL     1      61.529  61.588  64.237  0.00  0.00    +0.000 C 
ATOM     18  C   UNL     1      62.308  61.799  64.069  0.00  0.00    +0.000 C 
ATOM     19  C   UNL     1      62.652  61.570  63.354  0.00  0.00    +0.000 C 
ATOM     20  C   UNL     1      61.413  63.112  67.352  0.00  0.00    +0.000 A 
ATOM     21  C   UNL     1      60.981  63.290  68.031  0.00  0.00    +0.000 A 
ENDROOT
TORSDOF 0
ENDMDL
MODEL 3
REMARK VINA RESULT:   -11.720      5.860      6.828
REMARK INTER + INTRA:         -11.720
REMARK INTER:                 -11.720
REMARK INTRA:                   0.000
REMARK UNBOUND:                 0.000
ROOT
REMARK  Name = levallorphan
REMARK                            x       y       z     vdW  Elec       q    Type
REMARK                         _______ _______ _______ _____ _____    ______ ____
ATOM      1  O   UNL     1      61.802  60.942  71.347  0.00  0.00    +0.000 OA
ATOM      2  C   UNL     1      61.346  61.626  71.413  0.00  0.00    +0.000 A 
ATOM      3  C   UNL     1      61.568  62.221  71.938  0.00  0.00    +0.000 A 
ATOM      4  C   UNL     1      61.111  62.905  72.003  0.00  0.00    +0.000 A 
ATOM      5  C   UNL     1      60.528  62.981  71.608  0.00  0.00    +0.000 A 
ATOM      6  C   UNL     1      59.857  63.578  71.458  0.00  0.00    +0.000 C 
ATOM      7  C   UNL     1      59.722  64.318  71.800  0.00  0.00    +0.000 C 
ATOM      8  C   UNL     1      60.565  63.629  72.024  0.00  0.00    +0.000 C 
ATOM      9  C   UNL     1      60.248  63.107  71.471  0.00  0.00    +0.000 C 
ATOM     10  C   UNL     1      60.623  62.387  71.323  0.00  0.00    +0.000 C 
ATOM     11  C   UNL     1      61.314  62.190  71.728  0.00  0.00    +0.000 C 
ATOM     12  C   UNL     1      61.632  62.713  72.281  0.00  0.00    +0.000 C 
ATOM     13  C   UNL     1      61.257  63.433  72.430  0.00  0.00    +0.000 C 
ATOM     14  C   UNL     1      61.361  64.105  72.911  0.00  0.00    +0.000 C 
ATOM     15  C   UNL     1      60.785  64.690  72.827  0.00  0.00    +0.000 C 
ATOM     16  N   UNL     1      60.107  64.778  72.367  0.00  0.00    +0.000 NA
ATOM     17  C   UNL     1      59.722  65.494  72.505  0.00  0.00    +0.000 C 
ATOM     18  C   UNL     1      59.032  65.678  72.094  0.00  0.00    +0.000 C 
ATOM     19  C   UNL     1      58.647  66.395  72.233  0.00  0.00    +0.000 C 
ATOM     20  C   UNL     1      60.210  62.398  71.017  0.00  0.00    +0.000 A 
ATOM     21  C   UNL     1      60.666  61.714  70.952  0.00  0.00    +0.000 A 
ENDROOT
TORSDOF 0
ENDMDL
MODEL 4
REMARK VINA RESULT:   -11.553      2.912      5.074
REMARK INTER + INTRA:         -11.553
REMARK INTER:                 -11.553
REMARK INTRA:                   0.000
REMARK UNBOUND:                 0.000
ROOT
REMARK  Name = levallorphan
REMARK                            x       y       z     vdW  Elec       q    Type
REMARK                         _______ _______ _______ _____ _____    ______ ____
ATOM      1  O   UNL     1      61.559  62.439  72.056  0.00  0.00    +0.000 OA
ATOM      2  C   UNL     1      61.248  62.339  71.298  0.00  0.00    +0.000 A 
ATOM      3  C   UNL     1      61.437  62.875  70.700  0.00  0.00    +0.000 A 
ATOM      4  C   UNL     1      61.126  62.774  69.943  0.00  0.00    +0.000 A 
ATOM      5  C   UNL     1      60.697  62.228  69.806  0.00  0.00    +0.000 A 
ATOM      6  C   UNL     1      60.223  61.866  69.118  0.00  0.00    +0.000 C 
ATOM      7  C   UNL     1      60.152  62.117  68.334  0.00  0.00    +0.000 C 
ATOM      8  C   UNL     1      60.750  62.604  69.135  0.00  0.00    +0.000 C 
ATOM      9  C   UNL     1      60.494  62.011  69.648  0.00  0.00    +0.000 C 
ATOM     10  C   UNL     1      60.743  62.011  70.434  0.00  0.00    +0.000 C 
ATOM     11  C   UNL     1      61.248  62.604  70.707  0.00  0.00    +0.000 C 
ATOM     12  C   UNL     1      61.504  63.197  70.195  0.00  0.00    +0.000 C 
ATOM     13  C   UNL     1      61.255  63.197  69.408  0.00  0.00    +0.000 C 
ATOM     14  C   UNL     1      61.359  63.654  68.719  0.00  0.00    +0.000 C 
ATOM     15  C   UNL     1      60.956  63.381  68.053  0.00  0.00    +0.000 C 
ATOM     16  N   UNL     1      60.456  62.745  67.894  0.00  0.00    +0.000 NA
ATOM     17  C   UNL     1      60.200  62.733  67.110  0.00  0.00    +0.000 C 
ATOM     18  C   UNL     1      59.695  62.136  66.850  0.00  0.00    +0.000 C 
ATOM     19  C   UNL     1      59.439  62.124  66.066  0.00  0.00    +0.000 C 
ATOM     20  C   UNL     1      60.437  61.602  70.382  0.00  0.00    +0.000 A 
ATOM     21  C   UNL     1      60.748  61.702  71.139  0.00  0.00    +0.000 A 
ENDROOT
TORSDOF 0
ENDMDL
MODEL 5
REMARK VINA RESULT:   -11.550      6.262      7.586
REMARK INTER + INTRA:         -11.550
REMARK INTER:                 -11.550
REMARK INTRA:                   0.000
REMARK UNBOUND:                 0.000
ROOT
REMARK  Name = levallorphan
REMARK                            x       y       z     vdW  Elec       q    Type
REMARK                         _______ _______ _______ _____ _____    ______ ____
ATOM      1  O   UNL     1      66.517  67.811  69.902  0.00  0.00    +0.000 OA
ATOM      2  C   UNL     1      65.916  67.378  70.265  0.00  0.00    +0.000 A 
ATOM      3  C   UNL     1      65.430  66.887  69.814  0.00  0.00    +0.000 A 
ATOM      4  C   UNL     1      64.829  66.455  70.178  0.00  0.00    +0.000 A 
ATOM      5  C   UNL     1      64.730  66.506  70.878  0.00  0.00    +0.000 A 
ATOM      6  C   UNL     1      64.189  66.179  71.533  0.00  0.00    +0.000 C 
ATOM      7  C   UNL     1      63.561  65.645  71.483  0.00  0.00    +0.000 C 
ATOM      8  C   UNL     1      64.189  66.009  70.642  0.00  0.00    +0.000 C 
ATOM      9  C   UNL     1      64.608  66.463  71.188  0.00  0.00    +0.000 C 
ATOM     10  C   UNL     1      65.234  66.938  70.936  0.00  0.00    +0.000 C 
ATOM     11  C   UNL     1      65.441  66.958  70.138  0.00  0.00    +0.000 C 
ATOM     12  C   UNL     1      65.022  66.504  69.591  0.00  0.00    +0.000 C 
ATOM     13  C   UNL     1      64.396  66.029  69.843  0.00  0.00    +0.000 C 
ATOM     14  C   UNL     1      63.840  65.503  69.517  0.00  0.00    +0.000 C 
ATOM     15  C   UNL     1      63.314  65.167  70.057  0.00  0.00    +0.000 C 
ATOM     16  N   UNL     1      63.199  65.226  70.872  0.00  0.00    +0.000 NA
ATOM     17  C   UNL     1      62.575  64.756  71.137  0.00  0.00    +0.000 C 
ATOM     18  C   UNL     1      62.379  64.746  71.938  0.00  0.00    +0.000 C 
ATOM     19  C   UNL     1      61.755  64.276  72.204  0.00  0.00    +0.000 C 
ATOM     20  C   UNL     1      65.200  67.006  71.444  0.00  0.00    +0.000 A 
ATOM     21  C   UNL     1      65.800  67.438  71.080  0.00  0.00    +0.000 A 
ENDROOT
TORSDOF 0
ENDMDL
MODEL 6
REMARK VINA RESULT:   -11.195      2.941      4.338
REMARK INTER + INTRA:         -11.195
REMARK INTER:                 -11.195
REMARK INTRA:                   0.000
REMARK UNBOUND:                 0.000
ROOT
REMARK  Name = levallorphan
REMARK                            x       y       z     vdW  Elec       q    Type
REMARK                         _______ _______ _______ _____ _____    ______ ____
ATOM      1  O   UNL     1      60.477  62.116  66.874  0.00  0.00    +0.000 OA
ATOM      2  C   UNL     1      60.474  62.468  67.620  0.00  0.00    +0.000 A 
ATOM      3  C   UNL     1      60.465  61.998  68.298  0.00  0.00    +0.000 A 
ATOM      4  C   UNL     1      60.463  62.352  69.043  0.00  0.00    +0.000 A 
ATOM      5  C   UNL     1      60.468  63.058  69.101  0.00  0.00    +0.000 A 
ATOM      6  C   UNL     1      60.469  63.707  69.740  0.00  0.00    +0.000 C 
ATOM      7  C   UNL     1      60.462  63.640  70.563  0.00  0.00    +0.000 C 
ATOM      8  C   UNL     1      60.461  62.805  69.830  0.00  0.00    +0.000 C 
ATOM      9  C   UNL     1      60.470  63.369  69.229  0.00  0.00    +0.000 C 
ATOM     10  C   UNL     1      60.474  63.129  68.439  0.00  0.00    +0.000 C 
ATOM     11  C   UNL     1      60.468  62.326  68.252  0.00  0.00    +0.000 C 
ATOM     12  C   UNL     1      60.459  61.761  68.853  0.00  0.00    +0.000 C 
ATOM     13  C   UNL     1      60.455  62.000  69.642  0.00  0.00    +0.000 C 
ATOM     14  C   UNL     1      60.447  61.655  70.400  0.00  0.00    +0.000 C 
ATOM     15  C   UNL     1      60.447  62.189  71.029  0.00  0.00    +0.000 C 
ATOM     16  N   UNL     1      60.453  63.011  71.096  0.00  0.00    +0.000 NA
ATOM     17  C   UNL     1      60.449  63.264  71.882  0.00  0.00    +0.000 C 
ATOM     18  C   UNL     1      60.455  64.069  72.056  0.00  0.00    +0.000 C 
ATOM     19  C   UNL     1      60.451  64.322  72.841  0.00  0.00    +0.000 C 
ATOM     20  C   UNL     1      60.478  63.643  68.432  0.00  0.00    +0.000 A 
ATOM     21  C   UNL     1      60.481  63.291  67.687  0.00  0.00    +0.000 A 
ENDROOT
TORSDOF 0
ENDMDL
MODEL 7
REMARK VINA RESULT:   -10.901      6.256      7.326
REMARK INTER + INTRA:         -10.901
REMARK INTER:                 -10.901
REMARK INTRA:                   0.000
REMARK UNBOUND:                 0.000
ROOT
REMARK  Name = levallorphan
REMARK                            x       y       z     vdW  Elec       q    Type
REMARK                         _______ _______ _______ _____ _____    ______ ____
ATOM      1  O   UNL     1      61.451  61.794  71.506  0.00  0.00    +0.000 OA
ATOM      2  C   UNL     1      61.528  62.565  71.788  0.00  0.00    +0.000 A 
ATOM      3  C   UNL     1      61.942  63.127  71.348  0.00  0.00    +0.000 A 
ATOM      4  C   UNL     1      62.017  63.898  71.631  0.00  0.00    +0.000 A 
ATOM      5  C   UNL     1      61.727  64.078  72.251  0.00  0.00    +0.000 A 
ATOM      6  C   UNL     1      61.640  64.800  72.799  0.00  0.00    +0.000 C 
ATOM      7  C   UNL     1      61.923  65.570  72.708  0.00  0.00    +0.000 C 
ATOM      8  C   UNL     1      62.062  64.726  72.000  0.00  0.00    +0.000 C 
ATOM      9  C   UNL     1      61.630  64.255  72.520  0.00  0.00    +0.000 C 
ATOM     10  C   UNL     1      61.491  63.461  72.340  0.00  0.00    +0.000 C 
ATOM     11  C   UNL     1      61.784  63.140  71.639  0.00  0.00    +0.000 C 
ATOM     12  C   UNL     1      62.216  63.611  71.118  0.00  0.00    +0.000 C 
ATOM     13  C   UNL     1      62.356  64.405  71.298  0.00  0.00    +0.000 C 
ATOM     14  C   UNL     1      62.740  65.063  70.964  0.00  0.00    +0.000 C 
ATOM     15  C   UNL     1      62.701  65.756  71.411  0.00  0.00    +0.000 C 
ATOM     16  N   UNL     1      62.363  65.966  72.133  0.00  0.00    +0.000 NA
ATOM     17  C   UNL     1      62.494  66.757  72.325  0.00  0.00    +0.000 C 
ATOM     18  C   UNL     1      62.196  67.066  73.029  0.00  0.00    +0.000 C 
ATOM     19  C   UNL     1      62.328  67.857  73.222  0.00  0.00    +0.000 C 
ATOM     20  C   UNL     1      61.265  63.546  72.793  0.00  0.00    +0.000 A 
ATOM     21  C   UNL     1      61.189  62.775  72.511  0.00  0.00    +0.000 A 
ENDROOT
TORSDOF 0
ENDMDL
MODEL 8
REMARK VINA RESULT:   -10.685      5.976      7.203
REMARK INTER + INTRA:         -10.685
REMARK INTER:                 -10.685
REMARK INTRA:                   0.000
REMARK UNBOUND:                 0.000
ROOT
REMARK  Name = levallorphan
REMARK                            x       y       z     vdW  Elec       q    Type
REMARK                         _______ _______ _______ _____ _____    ______ ____
ATOM      1  O   UNL     1      61.519  63.682  71.766  0.00  0.00    +0.000 OA
ATOM      2  C   UNL     1      62.104  64.237  71.594  0.00  0.00    +0.000 A 
ATOM      3  C   UNL     1      62.585  64.138  70.931  0.00  0.00    +0.000 A 
ATOM      4  C   UNL     1      63.169  64.694  70.760  0.00  0.00    +0.000 A 
ATOM      5  C   UNL     1      63.259  65.256  71.182  0.00  0.00    +0.000 A 
ATOM      6  C   UNL     1      63.783  65.997  71.257  0.00  0.00    +0.000 C 
ATOM      7  C   UNL     1      64.399  66.261  70.775  0.00  0.00    +0.000 C 
ATOM      8  C   UNL     1      63.792  65.342  70.630  0.00  0.00    +0.000 C 
ATOM      9  C   UNL     1      63.376  65.543  71.313  0.00  0.00    +0.000 C 
ATOM     10  C   UNL     1      62.765  65.057  71.581  0.00  0.00    +0.000 C 
ATOM     11  C   UNL     1      62.571  64.371  71.166  0.00  0.00    +0.000 C 
ATOM     12  C   UNL     1      62.987  64.170  70.483  0.00  0.00    +0.000 C 
ATOM     13  C   UNL     1      63.598  64.655  70.215  0.00  0.00    +0.000 C 
ATOM     14  C   UNL     1      64.146  64.681  69.589  0.00  0.00    +0.000 C 
ATOM     15  C   UNL     1      64.656  65.331  69.595  0.00  0.00    +0.000 C 
ATOM     16  N   UNL     1      64.760  65.985  70.086  0.00  0.00    +0.000 NA
ATOM     17  C   UNL     1      65.369  66.479  69.829  0.00  0.00    +0.000 C 
ATOM     18  C   UNL     1      65.552  67.162  70.253  0.00  0.00    +0.000 C 
ATOM     19  C   UNL     1      66.161  67.656  69.996  0.00  0.00    +0.000 C 
ATOM     20  C   UNL     1      62.793  65.447  71.914  0.00  0.00    +0.000 A 
ATOM     21  C   UNL     1      62.209  64.892  72.086  0.00  0.00    +0.000 A 
ENDROOT
TORSDOF 0
ENDMDL
MODEL 9
REMARK VINA RESULT:   -10.514      1.645      2.968
REMARK INTER + INTRA:         -10.514
REMARK INTER:                 -10.514
REMARK INTRA:                   0.000
REMARK UNBOUND:                 0.000
ROOT
REMARK  Name = levallorphan
REMARK                            x       y       z     vdW  Elec       q    Type
REMARK                         _______ _______ _______ _____ _____    ______ ____
ATOM      1  O   UNL     1      61.555  62.731  65.246  0.00  0.00    +0.000 OA
ATOM      2  C   UNL     1      61.334  62.574  66.025  0.00  0.00    +0.000 A 
ATOM      3  C   UNL     1      61.594  63.066  66.635  0.00  0.00    +0.000 A 
ATOM      4  C   UNL     1      61.372  62.908  67.413  0.00  0.00    +0.000 A 
ATOM      5  C   UNL     1      60.959  62.351  67.559  0.00  0.00    +0.000 A 
ATOM      6  C   UNL     1      60.568  61.938  68.270  0.00  0.00    +0.000 C 
ATOM      7  C   UNL     1      60.590  62.131  69.072  0.00  0.00    +0.000 C 
ATOM      8  C   UNL     1      61.092  62.678  68.245  0.00  0.00    +0.000 C 
ATOM      9  C   UNL     1      60.776  62.123  67.724  0.00  0.00    +0.000 C 
ATOM     10  C   UNL     1      60.931  62.182  66.916  0.00  0.00    +0.000 C 
ATOM     11  C   UNL     1      61.403  62.795  66.630  0.00  0.00    +0.000 C 
ATOM     12  C   UNL     1      61.720  63.350  67.151  0.00  0.00    +0.000 C 
ATOM     13  C   UNL     1      61.564  63.292  67.959  0.00  0.00    +0.000 C 
ATOM     14  C   UNL     1      61.750  63.697  68.663  0.00  0.00    +0.000 C 
ATOM     15  C   UNL     1      61.426  63.375  69.350  0.00  0.00    +0.000 C 
ATOM     16  N   UNL     1      60.945  62.727  69.519  0.00  0.00    +0.000 NA
ATOM     17  C   UNL     1      60.781  62.657  70.325  0.00  0.00    +0.000 C 
ATOM     18  C   UNL     1      60.308  62.039  70.597  0.00  0.00    +0.000 C 
ATOM     19  C   UNL     1      60.145  61.969  71.403  0.00  0.00    +0.000 C 
ATOM     20  C   UNL     1      60.632  61.768  66.973  0.00  0.00    +0.000 A 
ATOM     21  C   UNL     1      60.853  61.925  66.195  0.00  0.00    +0.000 A 
ENDROOT
TORSDOF 0
ENDMDL
