MODEL 1
REMARK VINA RESULT:   -11.508      0.000      0.000
REMARK INTER + INTRA:         -11.508
REMARK INTER:                 -11.508
REMARK INTRA:                   0.000
REMARK UNBOUND:                 0.000
ROOT
REMARK  Name = levothyroxine
REMARK                            x       y       z     vdW  Elec       q    Type
REMARK                         _______ _______ _______ _____ _____    ______ ____
ATOM      1  N   UNL     1      61.052  63.503  67.196  0.00  0.00    +0.000 NA
ATOM      2  CA  UNL     1      61.225  62.699  67.155  0.00  0.00    +0.000 C 
ATOM      3  C   UNL     1      61.145  62.225  67.825  0.00  0.00    +0.000 C 
ATOM      4  C   UNL     1      60.890  62.557  68.537  0.00  0.00    +0.000 A 
ATOM      5  C   UNL     1      60.810  62.082  69.208  0.00  0.00    +0.000 A 
ATOM      6  C   UNL     1      60.556  62.414  69.919  0.00  0.00    +0.000 A 
ATOM      7  I   UNL     1      60.475  61.941  70.590  0.00  0.00    +0.000 I 
ATOM      8  C   UNL     1      60.382  63.220  69.960  0.00  0.00    +0.000 A 
ATOM      9  O   UNL     1      60.128  63.551  70.670  0.00  0.00    +0.000 OA
ATOM     10  C   UNL     1      59.954  64.356  70.712  0.00  0.00    +0.000 A 
ATOM     11  C   UNL     1      59.699  64.688  71.423  0.00  0.00    +0.000 A 
ATOM     12  C   UNL     1      59.526  65.493  71.464  0.00  0.00    +0.000 A 
ATOM     13  I   UNL     1      59.271  65.825  72.176  0.00  0.00    +0.000 I 
ATOM     14  C   UNL     1      59.606  65.967  70.794  0.00  0.00    +0.000 A 
ATOM     15  O   UNL     1      59.432  66.773  70.834  0.00  0.00    +0.000 OA
ATOM     16  C   UNL     1      59.860  65.636  70.082  0.00  0.00    +0.000 A 
ATOM     17  I   UNL     1      59.941  66.110  69.411  0.00  0.00    +0.000 I 
ATOM     18  C   UNL     1      60.034  64.830  70.041  0.00  0.00    +0.000 A 
ATOM     19  C   UNL     1      60.462  63.693  69.289  0.00  0.00    +0.000 A 
ATOM     20  I   UNL     1      60.288  64.498  69.331  0.00  0.00    +0.000 I 
ATOM     21  C   UNL     1      60.717  63.362  68.578  0.00  0.00    +0.000 A 
ATOM     22  C   UNL     1      61.480  62.367  66.444  0.00  0.00    +0.000 C 
ATOM     23  O   UNL     1      61.560  62.840  65.773  0.00  0.00    +0.000 OA
ATOM     24  OXT UNL     1      61.654  61.562  66.402  0.00  0.00    +0.000 OA
ENDROOT
TORSDOF 0
ENDMDL
MODEL 2
REMARK VINA RESULT:   -10.378      3.087      3.348
REMARK INTER + INTRA:         -10.378
REMARK INTER:                 -10.378
REMARK INTRA:                   0.000
REMARK UNBOUND:                 0.000
ROOT
REMARK  Name = levothyroxine
REMARK                            x       y       z     vdW  Elec       q    Type
REMARK                         _______ _______ _______ _____ _____    ______ ____
ATOM      1  N   UNL     1      61.681  63.126  68.830  0.00  0.00    +0.000 NA
ATOM      2  CA  UNL     1      61.094  62.668  69.183  0.00  0.00    +0.000 C 
ATOM      3  C   UNL     1      60.912  62.774  69.980  0.00  0.00    +0.000 C 
ATOM      4  C   UNL     1      61.318  63.339  70.425  0.00  0.00    +0.000 A 
ATOM      5  C   UNL     1      61.135  63.445  71.223  0.00  0.00    +0.000 A 
ATOM      6  C   UNL     1      61.541  64.010  71.667  0.00  0.00    +0.000 A 
ATOM      7  I   UNL     1      61.359  64.116  72.464  0.00  0.00    +0.000 I 
ATOM      8  C   UNL     1      62.129  64.469  71.313  0.00  0.00    +0.000 A 
ATOM      9  O   UNL     1      62.534  65.033  71.756  0.00  0.00    +0.000 OA
ATOM     10  C   UNL     1      63.122  65.492  71.404  0.00  0.00    +0.000 A 
ATOM     11  C   UNL     1      63.527  66.057  71.848  0.00  0.00    +0.000 A 
ATOM     12  C   UNL     1      64.114  66.515  71.494  0.00  0.00    +0.000 A 
ATOM     13  I   UNL     1      64.520  67.081  71.939  0.00  0.00    +0.000 I 
ATOM     14  C   UNL     1      64.297  66.409  70.696  0.00  0.00    +0.000 A 
ATOM     15  O   UNL     1      64.884  66.868  70.342  0.00  0.00    +0.000 OA
ATOM     16  C   UNL     1      63.891  65.844  70.252  0.00  0.00    +0.000 A 
ATOM     17  I   UNL     1      64.073  65.738  69.454  0.00  0.00    +0.000 I 
ATOM     18  C   UNL     1      63.303  65.385  70.606  0.00  0.00    +0.000 A 
ATOM     19  C   UNL     1      62.311  64.362  70.516  0.00  0.00    +0.000 A 
ATOM     20  I   UNL     1      62.898  64.821  70.163  0.00  0.00    +0.000 I 
ATOM     21  C   UNL     1      61.905  63.797  70.072  0.00  0.00    +0.000 A 
ATOM     22  C   UNL     1      60.689  62.103  68.739  0.00  0.00    +0.000 C 
ATOM     23  O   UNL     1      60.870  61.996  67.942  0.00  0.00    +0.000 OA
ATOM     24  OXT UNL     1      60.101  61.644  69.092  0.00  0.00    +0.000 OA
ENDROOT
TORSDOF 0
ENDMDL
MODEL 3
REMARK VINA RESULT:   -10.366      3.419      5.092
REMARK INTER + INTRA:         -10.366
REMARK INTER:                 -10.366
REMARK INTRA:                   0.000
REMARK UNBOUND:                 0.000
ROOT
REMARK  Name = levothyroxine
REMARK                            x       y       z     vdW  Elec       q    Type
REMARK                         _______ _______ _______ _____ _____    ______ ____
ATOM      1  N   UNL     1      62.728  67.047  72.467  0.00  0.00    +0.000 NA
ATOM      2  CA  UNL     1      63.443  67.334  72.175  0.00  0.00    +0.000 C 
ATOM      3  C   UNL     1      63.863  66.901  71.613  0.00  0.00    +0.000 C 
ATOM      4  C   UNL     1      63.566  66.179  71.342  0.00  0.00    +0.000 A 
ATOM      5  C   UNL     1      63.986  65.746  70.779  0.00  0.00    +0.000 A 
ATOM      6  C   UNL     1      63.689  65.025  70.508  0.00  0.00    +0.000 A 
ATOM      7  I   UNL     1      64.108  64.591  69.946  0.00  0.00    +0.000 I 
ATOM      8  C   UNL     1      62.973  64.737  70.801  0.00  0.00    +0.000 A 
ATOM      9  O   UNL     1      62.677  64.017  70.531  0.00  0.00    +0.000 OA
ATOM     10  C   UNL     1      61.961  63.730  70.823  0.00  0.00    +0.000 A 
ATOM     11  C   UNL     1      61.665  63.009  70.552  0.00  0.00    +0.000 A 
ATOM     12  C   UNL     1      60.949  62.722  70.845  0.00  0.00    +0.000 A 
ATOM     13  I   UNL     1      60.652  62.000  70.574  0.00  0.00    +0.000 I 
ATOM     14  C   UNL     1      60.529  63.155  71.408  0.00  0.00    +0.000 A 
ATOM     15  O   UNL     1      59.813  62.868  71.700  0.00  0.00    +0.000 OA
ATOM     16  C   UNL     1      60.826  63.876  71.678  0.00  0.00    +0.000 A 
ATOM     17  I   UNL     1      60.406  64.310  72.241  0.00  0.00    +0.000 I 
ATOM     18  C   UNL     1      61.542  64.163  71.385  0.00  0.00    +0.000 A 
ATOM     19  C   UNL     1      62.554  65.171  71.364  0.00  0.00    +0.000 A 
ATOM     20  I   UNL     1      61.838  64.883  71.656  0.00  0.00    +0.000 I 
ATOM     21  C   UNL     1      62.850  65.892  71.634  0.00  0.00    +0.000 A 
ATOM     22  C   UNL     1      63.740  68.055  72.445  0.00  0.00    +0.000 C 
ATOM     23  O   UNL     1      63.321  68.488  73.008  0.00  0.00    +0.000 OA
ATOM     24  OXT UNL     1      64.455  68.342  72.154  0.00  0.00    +0.000 OA
ENDROOT
TORSDOF 0
ENDMDL
MODEL 4
REMARK VINA RESULT:   -10.255      3.168      3.265
REMARK INTER + INTRA:         -10.255
REMARK INTER:                 -10.255
REMARK INTRA:                   0.000
REMARK UNBOUND:                 0.000
ROOT
REMARK  Name = levothyroxine
REMARK                            x       y       z     vdW  Elec       q    Type
REMARK                         _______ _______ _______ _____ _____    ______ ____
ATOM      1  N   UNL     1      63.098  65.859  70.365  0.00  0.00    +0.000 NA
ATOM      2  CA  UNL     1      63.552  65.171  70.346  0.00  0.00    +0.000 C 
ATOM      3  C   UNL     1      63.286  64.490  70.727  0.00  0.00    +0.000 C 
ATOM      4  C   UNL     1      62.563  64.497  71.127  0.00  0.00    +0.000 A 
ATOM      5  C   UNL     1      62.297  63.815  71.508  0.00  0.00    +0.000 A 
ATOM      6  C   UNL     1      61.576  63.821  71.907  0.00  0.00    +0.000 A 
ATOM      7  I   UNL     1      61.308  63.140  72.288  0.00  0.00    +0.000 I 
ATOM      8  C   UNL     1      61.120  64.509  71.926  0.00  0.00    +0.000 A 
ATOM      9  O   UNL     1      60.399  64.516  72.325  0.00  0.00    +0.000 OA
ATOM     10  C   UNL     1      59.944  65.203  72.345  0.00  0.00    +0.000 A 
ATOM     11  C   UNL     1      59.222  65.210  72.744  0.00  0.00    +0.000 A 
ATOM     12  C   UNL     1      58.768  65.897  72.763  0.00  0.00    +0.000 A 
ATOM     13  I   UNL     1      58.045  65.904  73.163  0.00  0.00    +0.000 I 
ATOM     14  C   UNL     1      59.034  66.579  72.382  0.00  0.00    +0.000 A 
ATOM     15  O   UNL     1      58.579  67.268  72.401  0.00  0.00    +0.000 OA
ATOM     16  C   UNL     1      59.756  66.573  71.982  0.00  0.00    +0.000 A 
ATOM     17  I   UNL     1      60.023  67.255  71.601  0.00  0.00    +0.000 I 
ATOM     18  C   UNL     1      60.211  65.884  71.964  0.00  0.00    +0.000 A 
ATOM     19  C   UNL     1      61.387  65.190  71.545  0.00  0.00    +0.000 A 
ATOM     20  I   UNL     1      60.932  65.878  71.564  0.00  0.00    +0.000 I 
ATOM     21  C   UNL     1      62.109  65.184  71.145  0.00  0.00    +0.000 A 
ATOM     22  C   UNL     1      64.274  65.165  69.946  0.00  0.00    +0.000 C 
ATOM     23  O   UNL     1      64.541  65.846  69.565  0.00  0.00    +0.000 OA
ATOM     24  OXT UNL     1      64.729  64.477  69.927  0.00  0.00    +0.000 OA
ENDROOT
TORSDOF 0
ENDMDL
MODEL 5
REMARK VINA RESULT:    -9.801      1.908      4.620
REMARK INTER + INTRA:          -9.801
REMARK INTER:                  -9.801
REMARK INTRA:                   0.000
REMARK UNBOUND:                 0.000
ROOT
REMARK  Name = levothyroxine
REMARK                            x       y       z     vdW  Elec       q    Type
REMARK                         _______ _______ _______ _____ _____    ______ ____
ATOM      1  N   UNL     1      59.552  63.851  70.670  0.00  0.00    +0.000 NA
ATOM      2  CA  UNL     1      60.003  64.273  71.216  0.00  0.00    +0.000 C 
ATOM      3  C   UNL     1      60.782  64.476  71.038  0.00  0.00    +0.000 C 
ATOM      4  C   UNL     1      61.110  64.257  70.313  0.00  0.00    +0.000 A 
ATOM      5  C   UNL     1      61.890  64.460  70.135  0.00  0.00    +0.000 A 
ATOM      6  C   UNL     1      62.219  64.241  69.411  0.00  0.00    +0.000 A 
ATOM      7  I   UNL     1      62.998  64.444  69.233  0.00  0.00    +0.000 I 
ATOM      8  C   UNL     1      61.767  63.818  68.864  0.00  0.00    +0.000 A 
ATOM      9  O   UNL     1      62.095  63.599  68.141  0.00  0.00    +0.000 OA
ATOM     10  C   UNL     1      61.645  63.177  67.594  0.00  0.00    +0.000 A 
ATOM     11  C   UNL     1      61.973  62.958  66.869  0.00  0.00    +0.000 A 
ATOM     12  C   UNL     1      61.523  62.535  66.324  0.00  0.00    +0.000 A 
ATOM     13  I   UNL     1      61.851  62.316  65.598  0.00  0.00    +0.000 I 
ATOM     14  C   UNL     1      60.743  62.332  66.501  0.00  0.00    +0.000 A 
ATOM     15  O   UNL     1      60.291  61.909  65.955  0.00  0.00    +0.000 OA
ATOM     16  C   UNL     1      60.414  62.551  67.225  0.00  0.00    +0.000 A 
ATOM     17  I   UNL     1      59.634  62.347  67.403  0.00  0.00    +0.000 I 
ATOM     18  C   UNL     1      60.866  62.974  67.772  0.00  0.00    +0.000 A 
ATOM     19  C   UNL     1      60.988  63.615  69.043  0.00  0.00    +0.000 A 
ATOM     20  I   UNL     1      60.538  63.193  68.496  0.00  0.00    +0.000 I 
ATOM     21  C   UNL     1      60.660  63.834  69.767  0.00  0.00    +0.000 A 
ATOM     22  C   UNL     1      59.674  64.492  71.940  0.00  0.00    +0.000 C 
ATOM     23  O   UNL     1      58.895  64.289  72.118  0.00  0.00    +0.000 OA
ATOM     24  OXT UNL     1      60.125  64.915  72.487  0.00  0.00    +0.000 OA
ENDROOT
TORSDOF 0
ENDMDL
MODEL 6
REMARK VINA RESULT:    -9.489      1.782      2.645
REMARK INTER + INTRA:          -9.489
REMARK INTER:                  -9.489
REMARK INTRA:                   0.000
REMARK UNBOUND:                 0.000
ROOT
REMARK  Name = levothyroxine
REMARK                            x       y       z     vdW  Elec       q    Type
REMARK                         _______ _______ _______ _____ _____    ______ ____
ATOM      1  N   UNL     1      62.434  62.633  65.577  0.00  0.00    +0.000 NA
ATOM      2  CA  UNL     1      61.967  62.219  65.037  0.00  0.00    +0.000 C 
ATOM      3  C   UNL     1      61.184  62.042  65.221  0.00  0.00    +0.000 C 
ATOM      4  C   UNL     1      60.865  62.280  65.945  0.00  0.00    +0.000 A 
ATOM      5  C   UNL     1      60.081  62.102  66.129  0.00  0.00    +0.000 A 
ATOM      6  C   UNL     1      59.763  62.339  66.852  0.00  0.00    +0.000 A 
ATOM      7  I   UNL     1      58.979  62.163  67.037  0.00  0.00    +0.000 I 
ATOM      8  C   UNL     1      60.230  62.754  67.392  0.00  0.00    +0.000 A 
ATOM      9  O   UNL     1      59.913  62.991  68.115  0.00  0.00    +0.000 OA
ATOM     10  C   UNL     1      60.379  63.405  68.655  0.00  0.00    +0.000 A 
ATOM     11  C   UNL     1      60.061  63.642  69.378  0.00  0.00    +0.000 A 
ATOM     12  C   UNL     1      60.528  64.056  69.918  0.00  0.00    +0.000 A 
ATOM     13  I   UNL     1      60.210  64.293  70.642  0.00  0.00    +0.000 I 
ATOM     14  C   UNL     1      61.313  64.233  69.734  0.00  0.00    +0.000 A 
ATOM     15  O   UNL     1      61.780  64.647  70.274  0.00  0.00    +0.000 OA
ATOM     16  C   UNL     1      61.630  63.996  69.011  0.00  0.00    +0.000 A 
ATOM     17  I   UNL     1      62.416  64.173  68.827  0.00  0.00    +0.000 I 
ATOM     18  C   UNL     1      61.163  63.581  68.471  0.00  0.00    +0.000 A 
ATOM     19  C   UNL     1      61.014  62.931  67.208  0.00  0.00    +0.000 A 
ATOM     20  I   UNL     1      61.481  63.345  67.748  0.00  0.00    +0.000 I 
ATOM     21  C   UNL     1      61.332  62.693  66.484  0.00  0.00    +0.000 A 
ATOM     22  C   UNL     1      62.285  61.982  64.314  0.00  0.00    +0.000 C 
ATOM     23  O   UNL     1      63.070  62.159  64.130  0.00  0.00    +0.000 OA
ATOM     24  OXT UNL     1      61.819  61.568  63.774  0.00  0.00    +0.000 OA
ENDROOT
TORSDOF 0
ENDMDL
MODEL 7
REMARK VINA RESULT:    -8.957     26.160     26.811
REMARK INTER + INTRA:          -8.957
REMARK INTER:                  -8.957
REMARK INTRA:                   0.000
REMARK UNBOUND:                 0.000
ROOT
REMARK  Name = levothyroxine
REMARK                            x       y       z     vdW  Elec       q    Type
REMARK                         _______ _______ _______ _____ _____    ______ ____
ATOM      1  N   UNL     1      71.982  79.628  49.607  0.00  0.00    +0.000 NA
ATOM      2  CA  UNL     1      71.285  79.409  49.225  0.00  0.00    +0.000 C 
ATOM      3  C   UNL     1      70.555  79.565  49.575  0.00  0.00    +0.000 C 
ATOM      4  C   UNL     1      70.522  79.940  50.310  0.00  0.00    +0.000 A 
ATOM      5  C   UNL     1      69.792  80.096  50.661  0.00  0.00    +0.000 A 
ATOM      6  C   UNL     1      69.758  80.471  51.395  0.00  0.00    +0.000 A 
ATOM      7  I   UNL     1      69.029  80.627  51.746  0.00  0.00    +0.000 I 
ATOM      8  C   UNL     1      70.456  80.690  51.779  0.00  0.00    +0.000 A 
ATOM      9  O   UNL     1      70.423  81.064  52.512  0.00  0.00    +0.000 OA
ATOM     10  C   UNL     1      71.119  81.284  52.895  0.00  0.00    +0.000 A 
ATOM     11  C   UNL     1      71.086  81.658  53.630  0.00  0.00    +0.000 A 
ATOM     12  C   UNL     1      71.783  81.877  54.012  0.00  0.00    +0.000 A 
ATOM     13  I   UNL     1      71.750  82.252  54.747  0.00  0.00    +0.000 I 
ATOM     14  C   UNL     1      72.514  81.722  53.662  0.00  0.00    +0.000 A 
ATOM     15  O   UNL     1      73.211  81.940  54.044  0.00  0.00    +0.000 OA
ATOM     16  C   UNL     1      72.547  81.347  52.928  0.00  0.00    +0.000 A 
ATOM     17  I   UNL     1      73.277  81.191  52.576  0.00  0.00    +0.000 I 
ATOM     18  C   UNL     1      71.849  81.128  52.544  0.00  0.00    +0.000 A 
ATOM     19  C   UNL     1      71.186  80.534  51.427  0.00  0.00    +0.000 A 
ATOM     20  I   UNL     1      71.882  80.753  51.811  0.00  0.00    +0.000 I 
ATOM     21  C   UNL     1      71.219  80.159  50.693  0.00  0.00    +0.000 A 
ATOM     22  C   UNL     1      71.318  79.035  48.490  0.00  0.00    +0.000 C 
ATOM     23  O   UNL     1      72.048  78.878  48.139  0.00  0.00    +0.000 OA
ATOM     24  OXT UNL     1      70.622  78.815  48.107  0.00  0.00    +0.000 OA
ENDROOT
TORSDOF 0
ENDMDL
MODEL 8
REMARK VINA RESULT:    -8.650     14.798     15.766
REMARK INTER + INTRA:          -8.650
REMARK INTER:                  -8.650
REMARK INTRA:                   0.000
REMARK UNBOUND:                 0.000
ROOT
REMARK  Name = levothyroxine
REMARK                            x       y       z     vdW  Elec       q    Type
REMARK                         _______ _______ _______ _____ _____    ______ ____
ATOM      1  N   UNL     1      62.526  64.325  54.451  0.00  0.00    +0.000 NA
ATOM      2  CA  UNL     1      62.256  63.910  53.792  0.00  0.00    +0.000 C 
ATOM      3  C   UNL     1      61.884  64.312  53.176  0.00  0.00    +0.000 C 
ATOM      4  C   UNL     1      61.781  65.130  53.219  0.00  0.00    +0.000 A 
ATOM      5  C   UNL     1      61.408  65.532  52.602  0.00  0.00    +0.000 A 
ATOM      6  C   UNL     1      61.305  66.349  52.645  0.00  0.00    +0.000 A 
ATOM      7  I   UNL     1      60.933  66.752  52.029  0.00  0.00    +0.000 I 
ATOM      8  C   UNL     1      61.576  66.765  53.306  0.00  0.00    +0.000 A 
ATOM      9  O   UNL     1      61.473  67.582  53.349  0.00  0.00    +0.000 OA
ATOM     10  C   UNL     1      61.743  67.998  54.008  0.00  0.00    +0.000 A 
ATOM     11  C   UNL     1      61.640  68.815  54.051  0.00  0.00    +0.000 A 
ATOM     12  C   UNL     1      61.910  69.230  54.710  0.00  0.00    +0.000 A 
ATOM     13  I   UNL     1      61.808  70.048  54.754  0.00  0.00    +0.000 I 
ATOM     14  C   UNL     1      62.283  68.828  55.327  0.00  0.00    +0.000 A 
ATOM     15  O   UNL     1      62.554  69.243  55.987  0.00  0.00    +0.000 OA
ATOM     16  C   UNL     1      62.386  68.011  55.284  0.00  0.00    +0.000 A 
ATOM     17  I   UNL     1      62.759  67.608  55.901  0.00  0.00    +0.000 I 
ATOM     18  C   UNL     1      62.116  67.595  54.624  0.00  0.00    +0.000 A 
ATOM     19  C   UNL     1      61.948  66.363  53.922  0.00  0.00    +0.000 A 
ATOM     20  I   UNL     1      62.218  66.779  54.581  0.00  0.00    +0.000 I 
ATOM     21  C   UNL     1      62.051  65.545  53.878  0.00  0.00    +0.000 A 
ATOM     22  C   UNL     1      62.359  63.093  53.749  0.00  0.00    +0.000 C 
ATOM     23  O   UNL     1      62.731  62.690  54.365  0.00  0.00    +0.000 OA
ATOM     24  OXT UNL     1      62.089  62.677  53.090  0.00  0.00    +0.000 OA
ENDROOT
TORSDOF 0
ENDMDL
MODEL 9
REMARK VINA RESULT:    -8.544     25.277     26.381
REMARK INTER + INTRA:          -8.544
REMARK INTER:                  -8.544
REMARK INTRA:                   0.000
REMARK UNBOUND:                 0.000
ROOT
REMARK  Name = levothyroxine
REMARK                            x       y       z     vdW  Elec       q    Type
REMARK                         _______ _______ _______ _____ _____    ______ ____
ATOM      1  N   UNL     1      70.284  79.277  49.383  0.00  0.00    +0.000 NA
ATOM      2  CA  UNL     1      71.103  79.273  49.291  0.00  0.00    +0.000 C 
ATOM      3  C   UNL     1      71.581  79.661  49.838  0.00  0.00    +0.000 C 
ATOM      4  C   UNL     1      71.239  80.055  50.479  0.00  0.00    +0.000 A 
ATOM      5  C   UNL     1      71.719  80.444  51.027  0.00  0.00    +0.000 A 
ATOM      6  C   UNL     1      71.377  80.838  51.666  0.00  0.00    +0.000 A 
ATOM      7  I   UNL     1      71.855  81.227  52.215  0.00  0.00    +0.000 I 
ATOM      8  C   UNL     1      70.557  80.842  51.758  0.00  0.00    +0.000 A 
ATOM      9  O   UNL     1      70.216  81.235  52.397  0.00  0.00    +0.000 OA
ATOM     10  C   UNL     1      69.396  81.240  52.490  0.00  0.00    +0.000 A 
ATOM     11  C   UNL     1      69.055  81.634  53.129  0.00  0.00    +0.000 A 
ATOM     12  C   UNL     1      68.236  81.638  53.221  0.00  0.00    +0.000 A 
ATOM     13  I   UNL     1      67.894  82.032  53.861  0.00  0.00    +0.000 I 
ATOM     14  C   UNL     1      67.756  81.249  52.673  0.00  0.00    +0.000 A 
ATOM     15  O   UNL     1      66.936  81.253  52.764  0.00  0.00    +0.000 OA
ATOM     16  C   UNL     1      68.098  80.856  52.033  0.00  0.00    +0.000 A 
ATOM     17  I   UNL     1      67.619  80.466  51.485  0.00  0.00    +0.000 I 
ATOM     18  C   UNL     1      68.918  80.851  51.941  0.00  0.00    +0.000 A 
ATOM     19  C   UNL     1      70.079  80.453  51.210  0.00  0.00    +0.000 A 
ATOM     20  I   UNL     1      69.259  80.458  51.303  0.00  0.00    +0.000 I 
ATOM     21  C   UNL     1      70.420  80.060  50.570  0.00  0.00    +0.000 A 
ATOM     22  C   UNL     1      71.444  78.879  48.651  0.00  0.00    +0.000 C 
ATOM     23  O   UNL     1      70.966  78.490  48.103  0.00  0.00    +0.000 OA
ATOM     24  OXT UNL     1      72.264  78.874  48.559  0.00  0.00    +0.000 OA
ENDROOT
TORSDOF 0
ENDMDL
