MODEL 1
REMARK VINA RESULT:   -10.707      0.000      0.000
REMARK INTER + INTRA:         -10.707
REMARK INTER:                 -10.707
REMARK INTRA:                   0.000
REMARK UNBOUND:                 0.000
ROOT
REMARK  Name = levobupivacaine
REMARK                            x       y       z     vdW  Elec       q    Type
REMARK                         _______ _______ _______ _____ _____    ______ ____
ATOM      1  C   UNL     1      59.471  66.502  69.091  0.00  0.00    +0.000 C 
ATOM      2  C   UNL     1      59.771  65.848  69.494  0.00  0.00    +0.000 C 
ATOM      3  C   UNL     1      59.874  65.131  69.098  0.00  0.00    +0.000 C 
ATOM      4  C   UNL     1      60.175  64.477  69.501  0.00  0.00    +0.000 C 
ATOM      5  N   UNL     1      60.278  63.760  69.106  0.00  0.00    +0.000 NA
ATOM      6  C   UNL     1      60.079  63.697  68.307  0.00  0.00    +0.000 C 
ATOM      7  C   UNL     1      60.181  62.981  67.911  0.00  0.00    +0.000 C 
ATOM      8  C   UNL     1      60.483  62.327  68.314  0.00  0.00    +0.000 C 
ATOM      9  C   UNL     1      60.681  62.390  69.113  0.00  0.00    +0.000 C 
ATOM     10  C   UNL     1      60.579  63.105  69.508  0.00  0.00    +0.000 C 
ATOM     11  C   UNL     1      60.778  63.169  70.307  0.00  0.00    +0.000 C 
ATOM     12  O   UNL     1      60.675  63.885  70.702  0.00  0.00    +0.000 OA
ATOM     13  N   UNL     1      61.079  62.514  70.709  0.00  0.00    +0.000 NA
ATOM     14  C   UNL     1      61.277  62.577  71.508  0.00  0.00    +0.000 A 
ATOM     15  C   UNL     1      61.175  63.294  71.903  0.00  0.00    +0.000 A 
ATOM     16  C   UNL     1      60.874  63.948  71.500  0.00  0.00    +0.000 C 
ATOM     17  C   UNL     1      61.373  63.356  72.701  0.00  0.00    +0.000 A 
ATOM     18  C   UNL     1      61.675  62.703  73.104  0.00  0.00    +0.000 A 
ATOM     19  C   UNL     1      61.777  61.986  72.709  0.00  0.00    +0.000 A 
ATOM     20  C   UNL     1      61.578  61.923  71.910  0.00  0.00    +0.000 A 
ATOM     21  C   UNL     1      61.681  61.207  71.515  0.00  0.00    +0.000 C 
ENDROOT
TORSDOF 0
ENDMDL
MODEL 2
REMARK VINA RESULT:   -10.449      0.708      2.181
REMARK INTER + INTRA:         -10.449
REMARK INTER:                 -10.449
REMARK INTRA:                   0.000
REMARK UNBOUND:                 0.000
ROOT
REMARK  Name = levobupivacaine
REMARK                            x       y       z     vdW  Elec       q    Type
REMARK                         _______ _______ _______ _____ _____    ______ ____
ATOM      1  C   UNL     1      60.037  62.362  66.868  0.00  0.00    +0.000 C 
ATOM      2  C   UNL     1      60.228  62.448  67.665  0.00  0.00    +0.000 C 
ATOM      3  C   UNL     1      60.100  63.171  68.044  0.00  0.00    +0.000 C 
ATOM      4  C   UNL     1      60.292  63.257  68.842  0.00  0.00    +0.000 C 
ATOM      5  N   UNL     1      60.164  63.979  69.221  0.00  0.00    +0.000 NA
ATOM      6  C   UNL     1      59.845  64.615  68.801  0.00  0.00    +0.000 C 
ATOM      7  C   UNL     1      59.718  65.336  69.179  0.00  0.00    +0.000 C 
ATOM      8  C   UNL     1      59.909  65.423  69.978  0.00  0.00    +0.000 C 
ATOM      9  C   UNL     1      60.229  64.787  70.397  0.00  0.00    +0.000 C 
ATOM     10  C   UNL     1      60.356  64.066  70.019  0.00  0.00    +0.000 C 
ATOM     11  C   UNL     1      60.675  63.431  70.438  0.00  0.00    +0.000 C 
ATOM     12  O   UNL     1      60.802  62.709  70.059  0.00  0.00    +0.000 OA
ATOM     13  N   UNL     1      60.866  63.519  71.235  0.00  0.00    +0.000 NA
ATOM     14  C   UNL     1      61.185  62.883  71.655  0.00  0.00    +0.000 A 
ATOM     15  C   UNL     1      61.312  62.161  71.276  0.00  0.00    +0.000 A 
ATOM     16  C   UNL     1      61.121  62.075  70.478  0.00  0.00    +0.000 C 
ATOM     17  C   UNL     1      61.631  61.527  71.695  0.00  0.00    +0.000 A 
ATOM     18  C   UNL     1      61.823  61.613  72.493  0.00  0.00    +0.000 A 
ATOM     19  C   UNL     1      61.695  62.335  72.872  0.00  0.00    +0.000 A 
ATOM     20  C   UNL     1      61.376  62.971  72.452  0.00  0.00    +0.000 A 
ATOM     21  C   UNL     1      61.249  63.692  72.831  0.00  0.00    +0.000 C 
ENDROOT
TORSDOF 0
ENDMDL
MODEL 3
REMARK VINA RESULT:   -10.402      1.510      3.568
REMARK INTER + INTRA:         -10.402
REMARK INTER:                 -10.402
REMARK INTRA:                   0.000
REMARK UNBOUND:                 0.000
ROOT
REMARK  Name = levobupivacaine
REMARK                            x       y       z     vdW  Elec       q    Type
REMARK                         _______ _______ _______ _____ _____    ______ ____
ATOM      1  C   UNL     1      63.523  66.415  71.558  0.00  0.00    +0.000 C 
ATOM      2  C   UNL     1      63.121  65.822  71.150  0.00  0.00    +0.000 C 
ATOM      3  C   UNL     1      62.732  65.225  71.567  0.00  0.00    +0.000 C 
ATOM      4  C   UNL     1      62.330  64.631  71.159  0.00  0.00    +0.000 C 
ATOM      5  N   UNL     1      61.942  64.034  71.575  0.00  0.00    +0.000 NA
ATOM      6  C   UNL     1      61.956  64.031  72.401  0.00  0.00    +0.000 C 
ATOM      7  C   UNL     1      61.568  63.435  72.817  0.00  0.00    +0.000 C 
ATOM      8  C   UNL     1      61.166  62.841  72.409  0.00  0.00    +0.000 C 
ATOM      9  C   UNL     1      61.152  62.844  71.583  0.00  0.00    +0.000 C 
ATOM     10  C   UNL     1      61.539  63.440  71.167  0.00  0.00    +0.000 C 
ATOM     11  C   UNL     1      61.526  63.444  70.342  0.00  0.00    +0.000 C 
ATOM     12  O   UNL     1      61.914  64.041  69.925  0.00  0.00    +0.000 OA
ATOM     13  N   UNL     1      61.123  62.850  69.935  0.00  0.00    +0.000 NA
ATOM     14  C   UNL     1      61.109  62.854  69.109  0.00  0.00    +0.000 A 
ATOM     15  C   UNL     1      61.497  63.451  68.692  0.00  0.00    +0.000 A 
ATOM     16  C   UNL     1      61.900  64.044  69.101  0.00  0.00    +0.000 C 
ATOM     17  C   UNL     1      61.483  63.454  67.868  0.00  0.00    +0.000 A 
ATOM     18  C   UNL     1      61.081  62.861  67.459  0.00  0.00    +0.000 A 
ATOM     19  C   UNL     1      60.693  62.264  67.876  0.00  0.00    +0.000 A 
ATOM     20  C   UNL     1      60.707  62.260  68.702  0.00  0.00    +0.000 A 
ATOM     21  C   UNL     1      60.319  61.664  69.118  0.00  0.00    +0.000 C 
ENDROOT
TORSDOF 0
ENDMDL
MODEL 4
REMARK VINA RESULT:   -10.362      2.694      3.987
REMARK INTER + INTRA:         -10.362
REMARK INTER:                 -10.362
REMARK INTRA:                   0.000
REMARK UNBOUND:                 0.000
ROOT
REMARK  Name = levobupivacaine
REMARK                            x       y       z     vdW  Elec       q    Type
REMARK                         _______ _______ _______ _____ _____    ______ ____
ATOM      1  C   UNL     1      60.506  62.005  69.015  0.00  0.00    +0.000 C 
ATOM      2  C   UNL     1      61.041  62.566  69.296  0.00  0.00    +0.000 C 
ATOM      3  C   UNL     1      61.012  62.804  70.087  0.00  0.00    +0.000 C 
ATOM      4  C   UNL     1      61.548  63.366  70.367  0.00  0.00    +0.000 C 
ATOM      5  N   UNL     1      61.518  63.604  71.157  0.00  0.00    +0.000 NA
ATOM      6  C   UNL     1      60.954  63.281  71.665  0.00  0.00    +0.000 C 
ATOM      7  C   UNL     1      60.924  63.519  72.453  0.00  0.00    +0.000 C 
ATOM      8  C   UNL     1      61.460  64.081  72.735  0.00  0.00    +0.000 C 
ATOM      9  C   UNL     1      62.025  64.404  72.227  0.00  0.00    +0.000 C 
ATOM     10  C   UNL     1      62.054  64.166  71.438  0.00  0.00    +0.000 C 
ATOM     11  C   UNL     1      62.618  64.488  70.930  0.00  0.00    +0.000 C 
ATOM     12  O   UNL     1      62.647  64.249  70.141  0.00  0.00    +0.000 OA
ATOM     13  N   UNL     1      63.153  65.049  71.212  0.00  0.00    +0.000 NA
ATOM     14  C   UNL     1      63.718  65.372  70.704  0.00  0.00    +0.000 A 
ATOM     15  C   UNL     1      63.747  65.133  69.915  0.00  0.00    +0.000 A 
ATOM     16  C   UNL     1      63.212  64.572  69.634  0.00  0.00    +0.000 C 
ATOM     17  C   UNL     1      64.311  65.456  69.407  0.00  0.00    +0.000 A 
ATOM     18  C   UNL     1      64.847  66.017  69.688  0.00  0.00    +0.000 A 
ATOM     19  C   UNL     1      64.818  66.256  70.477  0.00  0.00    +0.000 A 
ATOM     20  C   UNL     1      64.253  65.933  70.986  0.00  0.00    +0.000 A 
ATOM     21  C   UNL     1      64.224  66.171  71.774  0.00  0.00    +0.000 C 
ENDROOT
TORSDOF 0
ENDMDL
MODEL 5
REMARK VINA RESULT:   -10.245      3.715      4.865
REMARK INTER + INTRA:         -10.245
REMARK INTER:                 -10.245
REMARK INTRA:                   0.000
REMARK UNBOUND:                 0.000
ROOT
REMARK  Name = levobupivacaine
REMARK                            x       y       z     vdW  Elec       q    Type
REMARK                         _______ _______ _______ _____ _____    ______ ____
ATOM      1  C   UNL     1      65.967  67.256  70.828  0.00  0.00    +0.000 C 
ATOM      2  C   UNL     1      65.279  66.862  71.054  0.00  0.00    +0.000 C 
ATOM      3  C   UNL     1      64.722  67.244  71.529  0.00  0.00    +0.000 C 
ATOM      4  C   UNL     1      64.034  66.850  71.756  0.00  0.00    +0.000 C 
ATOM      5  N   UNL     1      63.478  67.231  72.231  0.00  0.00    +0.000 NA
ATOM      6  C   UNL     1      63.610  68.007  72.480  0.00  0.00    +0.000 C 
ATOM      7  C   UNL     1      63.054  68.388  72.954  0.00  0.00    +0.000 C 
ATOM      8  C   UNL     1      62.365  67.994  73.181  0.00  0.00    +0.000 C 
ATOM      9  C   UNL     1      62.233  67.218  72.932  0.00  0.00    +0.000 C 
ATOM     10  C   UNL     1      62.788  66.837  72.457  0.00  0.00    +0.000 C 
ATOM     11  C   UNL     1      62.656  66.062  72.208  0.00  0.00    +0.000 C 
ATOM     12  O   UNL     1      63.213  65.680  71.733  0.00  0.00    +0.000 OA
ATOM     13  N   UNL     1      61.968  65.668  72.435  0.00  0.00    +0.000 NA
ATOM     14  C   UNL     1      61.835  64.892  72.186  0.00  0.00    +0.000 A 
ATOM     15  C   UNL     1      62.392  64.511  71.711  0.00  0.00    +0.000 A 
ATOM     16  C   UNL     1      63.080  64.906  71.485  0.00  0.00    +0.000 C 
ATOM     17  C   UNL     1      62.259  63.736  71.462  0.00  0.00    +0.000 A 
ATOM     18  C   UNL     1      61.571  63.342  71.688  0.00  0.00    +0.000 A 
ATOM     19  C   UNL     1      61.014  63.723  72.163  0.00  0.00    +0.000 A 
ATOM     20  C   UNL     1      61.147  64.499  72.413  0.00  0.00    +0.000 A 
ATOM     21  C   UNL     1      60.591  64.880  72.887  0.00  0.00    +0.000 C 
ENDROOT
TORSDOF 0
ENDMDL
MODEL 6
REMARK VINA RESULT:   -10.180      1.269      3.498
REMARK INTER + INTRA:         -10.180
REMARK INTER:                 -10.180
REMARK INTRA:                   0.000
REMARK UNBOUND:                 0.000
ROOT
REMARK  Name = levobupivacaine
REMARK                            x       y       z     vdW  Elec       q    Type
REMARK                         _______ _______ _______ _____ _____    ______ ____
ATOM      1  C   UNL     1      61.215  62.259  66.928  0.00  0.00    +0.000 C 
ATOM      2  C   UNL     1      60.971  62.788  67.511  0.00  0.00    +0.000 C 
ATOM      3  C   UNL     1      60.857  62.524  68.286  0.00  0.00    +0.000 C 
ATOM      4  C   UNL     1      60.613  63.054  68.870  0.00  0.00    +0.000 C 
ATOM      5  N   UNL     1      60.499  62.791  69.643  0.00  0.00    +0.000 NA
ATOM      6  C   UNL     1      60.629  61.998  69.833  0.00  0.00    +0.000 C 
ATOM      7  C   UNL     1      60.515  61.735  70.605  0.00  0.00    +0.000 C 
ATOM      8  C   UNL     1      60.271  62.264  71.190  0.00  0.00    +0.000 C 
ATOM      9  C   UNL     1      60.141  63.058  71.000  0.00  0.00    +0.000 C 
ATOM     10  C   UNL     1      60.255  63.320  70.228  0.00  0.00    +0.000 C 
ATOM     11  C   UNL     1      60.126  64.113  70.038  0.00  0.00    +0.000 C 
ATOM     12  O   UNL     1      60.240  64.376  69.264  0.00  0.00    +0.000 OA
ATOM     13  N   UNL     1      59.882  64.641  70.622  0.00  0.00    +0.000 NA
ATOM     14  C   UNL     1      59.752  65.434  70.433  0.00  0.00    +0.000 A 
ATOM     15  C   UNL     1      59.866  65.698  69.659  0.00  0.00    +0.000 A 
ATOM     16  C   UNL     1      60.110  65.168  69.075  0.00  0.00    +0.000 C 
ATOM     17  C   UNL     1      59.737  66.489  69.470  0.00  0.00    +0.000 A 
ATOM     18  C   UNL     1      59.493  67.019  70.054  0.00  0.00    +0.000 A 
ATOM     19  C   UNL     1      59.379  66.756  70.827  0.00  0.00    +0.000 A 
ATOM     20  C   UNL     1      59.508  65.963  71.017  0.00  0.00    +0.000 A 
ATOM     21  C   UNL     1      59.395  65.700  71.790  0.00  0.00    +0.000 C 
ENDROOT
TORSDOF 0
ENDMDL
MODEL 7
REMARK VINA RESULT:    -9.886      4.139      4.777
REMARK INTER + INTRA:          -9.886
REMARK INTER:                  -9.886
REMARK INTRA:                   0.000
REMARK UNBOUND:                 0.000
ROOT
REMARK  Name = levobupivacaine
REMARK                            x       y       z     vdW  Elec       q    Type
REMARK                         _______ _______ _______ _____ _____    ______ ____
ATOM      1  C   UNL     1      66.464  67.691  69.965  0.00  0.00    +0.000 C 
ATOM      2  C   UNL     1      65.761  67.476  70.339  0.00  0.00    +0.000 C 
ATOM      3  C   UNL     1      65.440  66.725  70.214  0.00  0.00    +0.000 C 
ATOM      4  C   UNL     1      64.736  66.510  70.587  0.00  0.00    +0.000 C 
ATOM      5  N   UNL     1      64.416  65.760  70.463  0.00  0.00    +0.000 NA
ATOM      6  C   UNL     1      64.799  65.225  69.964  0.00  0.00    +0.000 C 
ATOM      7  C   UNL     1      64.479  64.476  69.839  0.00  0.00    +0.000 C 
ATOM      8  C   UNL     1      63.775  64.261  70.213  0.00  0.00    +0.000 C 
ATOM      9  C   UNL     1      63.392  64.796  70.712  0.00  0.00    +0.000 C 
ATOM     10  C   UNL     1      63.712  65.545  70.836  0.00  0.00    +0.000 C 
ATOM     11  C   UNL     1      63.330  66.079  71.335  0.00  0.00    +0.000 C 
ATOM     12  O   UNL     1      63.650  66.829  71.459  0.00  0.00    +0.000 OA
ATOM     13  N   UNL     1      62.627  65.863  71.708  0.00  0.00    +0.000 NA
ATOM     14  C   UNL     1      62.244  66.399  72.207  0.00  0.00    +0.000 A 
ATOM     15  C   UNL     1      62.564  67.148  72.331  0.00  0.00    +0.000 A 
ATOM     16  C   UNL     1      63.268  67.363  71.958  0.00  0.00    +0.000 C 
ATOM     17  C   UNL     1      62.181  67.682  72.830  0.00  0.00    +0.000 A 
ATOM     18  C   UNL     1      61.478  67.468  73.203  0.00  0.00    +0.000 A 
ATOM     19  C   UNL     1      61.157  66.718  73.079  0.00  0.00    +0.000 A 
ATOM     20  C   UNL     1      61.540  66.183  72.580  0.00  0.00    +0.000 A 
ATOM     21  C   UNL     1      61.220  65.434  72.455  0.00  0.00    +0.000 C 
ENDROOT
TORSDOF 0
ENDMDL
MODEL 8
REMARK VINA RESULT:    -9.859      1.308      3.022
REMARK INTER + INTRA:          -9.859
REMARK INTER:                  -9.859
REMARK INTRA:                   0.000
REMARK UNBOUND:                 0.000
ROOT
REMARK  Name = levobupivacaine
REMARK                            x       y       z     vdW  Elec       q    Type
REMARK                         _______ _______ _______ _____ _____    ______ ____
ATOM      1  C   UNL     1      60.213  67.781  69.940  0.00  0.00    +0.000 C 
ATOM      2  C   UNL     1      60.245  66.957  69.953  0.00  0.00    +0.000 C 
ATOM      3  C   UNL     1      60.261  66.556  70.674  0.00  0.00    +0.000 C 
ATOM      4  C   UNL     1      60.293  65.731  70.686  0.00  0.00    +0.000 C 
ATOM      5  N   UNL     1      60.309  65.330  71.407  0.00  0.00    +0.000 NA
ATOM      6  C   UNL     1      60.292  65.753  72.116  0.00  0.00    +0.000 C 
ATOM      7  C   UNL     1      60.307  65.353  72.836  0.00  0.00    +0.000 C 
ATOM      8  C   UNL     1      60.340  64.528  72.848  0.00  0.00    +0.000 C 
ATOM      9  C   UNL     1      60.356  64.104  72.140  0.00  0.00    +0.000 C 
ATOM     10  C   UNL     1      60.341  64.505  71.420  0.00  0.00    +0.000 C 
ATOM     11  C   UNL     1      60.358  64.083  70.712  0.00  0.00    +0.000 C 
ATOM     12  O   UNL     1      60.342  64.484  69.991  0.00  0.00    +0.000 OA
ATOM     13  N   UNL     1      60.390  63.259  70.725  0.00  0.00    +0.000 NA
ATOM     14  C   UNL     1      60.407  62.835  70.016  0.00  0.00    +0.000 A 
ATOM     15  C   UNL     1      60.391  63.236  69.296  0.00  0.00    +0.000 A 
ATOM     16  C   UNL     1      60.359  64.061  69.284  0.00  0.00    +0.000 C 
ATOM     17  C   UNL     1      60.408  62.813  68.588  0.00  0.00    +0.000 A 
ATOM     18  C   UNL     1      60.440  61.989  68.600  0.00  0.00    +0.000 A 
ATOM     19  C   UNL     1      60.456  61.588  69.321  0.00  0.00    +0.000 A 
ATOM     20  C   UNL     1      60.439  62.011  70.030  0.00  0.00    +0.000 A 
ATOM     21  C   UNL     1      60.454  61.610  70.750  0.00  0.00    +0.000 C 
ENDROOT
TORSDOF 0
ENDMDL
MODEL 9
REMARK VINA RESULT:    -9.856      2.977      3.479
REMARK INTER + INTRA:          -9.856
REMARK INTER:                  -9.856
REMARK INTRA:                   0.000
REMARK UNBOUND:                 0.000
ROOT
REMARK  Name = levobupivacaine
REMARK                            x       y       z     vdW  Elec       q    Type
REMARK                         _______ _______ _______ _____ _____    ______ ____
ATOM      1  C   UNL     1      64.178  68.004  72.256  0.00  0.00    +0.000 C 
ATOM      2  C   UNL     1      63.787  67.287  72.143  0.00  0.00    +0.000 C 
ATOM      3  C   UNL     1      63.994  66.800  71.509  0.00  0.00    +0.000 C 
ATOM      4  C   UNL     1      63.603  66.082  71.396  0.00  0.00    +0.000 C 
ATOM      5  N   UNL     1      63.810  65.595  70.763  0.00  0.00    +0.000 NA
ATOM      6  C   UNL     1      64.408  65.826  70.242  0.00  0.00    +0.000 C 
ATOM      7  C   UNL     1      64.614  65.340  69.610  0.00  0.00    +0.000 C 
ATOM      8  C   UNL     1      64.223  64.622  69.496  0.00  0.00    +0.000 C 
ATOM      9  C   UNL     1      63.626  64.391  70.017  0.00  0.00    +0.000 C 
ATOM     10  C   UNL     1      63.419  64.877  70.649  0.00  0.00    +0.000 C 
ATOM     11  C   UNL     1      62.822  64.646  71.170  0.00  0.00    +0.000 C 
ATOM     12  O   UNL     1      62.615  65.133  71.803  0.00  0.00    +0.000 OA
ATOM     13  N   UNL     1      62.432  63.928  71.056  0.00  0.00    +0.000 NA
ATOM     14  C   UNL     1      61.834  63.697  71.577  0.00  0.00    +0.000 A 
ATOM     15  C   UNL     1      61.628  64.184  72.210  0.00  0.00    +0.000 A 
ATOM     16  C   UNL     1      62.019  64.902  72.323  0.00  0.00    +0.000 C 
ATOM     17  C   UNL     1      61.031  63.953  72.730  0.00  0.00    +0.000 A 
ATOM     18  C   UNL     1      60.640  63.235  72.617  0.00  0.00    +0.000 A 
ATOM     19  C   UNL     1      60.846  62.748  71.983  0.00  0.00    +0.000 A 
ATOM     20  C   UNL     1      61.444  62.979  71.463  0.00  0.00    +0.000 A 
ATOM     21  C   UNL     1      61.651  62.493  70.830  0.00  0.00    +0.000 C 
ENDROOT
TORSDOF 0
ENDMDL
