MODEL 1
REMARK VINA RESULT:   -11.762      0.000      0.000
REMARK INTER + INTRA:         -11.762
REMARK INTER:                 -11.762
REMARK INTRA:                   0.000
REMARK UNBOUND:                 0.000
ROOT
REMARK  Name = levofolinic acid
REMARK                            x       y       z     vdW  Elec       q    Type
REMARK                         _______ _______ _______ _____ _____    ______ ____
ATOM      1  N   UNK A   0      63.279  57.909  52.237  0.00  0.00    +0.000 NA
ATOM      2  C   UNK A   0      63.205  58.689  52.493  0.00  0.00    +0.000 A 
ATOM      3  N   UNK A   0      63.576  58.933  53.189  0.00  0.00    +0.000 NA
ATOM      4  C   UNK A   0      63.502  59.713  53.446  0.00  0.00    +0.000 A 
ATOM      5  O   UNK A   0      63.873  59.956  54.141  0.00  0.00    +0.000 OA
ATOM      6  C   UNK A   0      63.056  60.252  53.006  0.00  0.00    +0.000 A 
ATOM      7  C   UNK A   0      62.685  60.008  52.310  0.00  0.00    +0.000 A 
ATOM      8  N   UNK A   0      62.239  60.546  51.871  0.00  0.00    +0.000 NA
ATOM      9  C   UNK A   0      62.164  61.327  52.127  0.00  0.00    +0.000 C 
ATOM     10  C   UNK A   0      62.536  61.569  52.823  0.00  0.00    +0.000 C 
ATOM     11  C   UNK A   0      62.461  62.350  53.079  0.00  0.00    +0.000 C 
ATOM     12  N   UNK A   0      62.016  62.887  52.640  0.00  0.00    +0.000 NA
ATOM     13  C   UNK A   0      61.941  63.668  52.896  0.00  0.00    +0.000 A 
ATOM     14  C   UNK A   0      61.496  64.206  52.457  0.00  0.00    +0.000 A 
ATOM     15  C   UNK A   0      61.421  64.986  52.713  0.00  0.00    +0.000 A 
ATOM     16  C   UNK A   0      61.792  65.230  53.409  0.00  0.00    +0.000 A 
ATOM     17  C   UNK A   0      62.238  64.692  53.848  0.00  0.00    +0.000 A 
ATOM     18  C   UNK A   0      62.312  63.911  53.592  0.00  0.00    +0.000 A 
ATOM     19  C   UNK A   0      61.718  66.010  53.665  0.00  0.00    +0.000 C 
ATOM     20  O   UNK A   0      61.272  66.547  53.226  0.00  0.00    +0.000 OA
ATOM     21  N   GLU A   1      62.089  66.253  54.361  0.00  0.00    +0.000 NA
ATOM     22  CA  GLU A   1      62.014  67.033  54.617  0.00  0.00    +0.000 C 
ATOM     23  CB  GLU A   1      62.385  67.277  55.313  0.00  0.00    +0.000 C 
ATOM     24  CG  GLU A   1      62.311  68.057  55.569  0.00  0.00    +0.000 C 
ATOM     25  CD  GLU A   1      62.682  68.300  56.265  0.00  0.00    +0.000 C 
ATOM     26  OE1 GLU A   1      62.608  69.080  56.521  0.00  0.00    +0.000 OA
ATOM     27  OE2 GLU A   1      63.128  67.763  56.704  0.00  0.00    +0.000 OA
ATOM     28  C   GLU A   1      61.569  67.571  54.178  0.00  0.00    +0.000 C 
ATOM     29  O   GLU A   1      61.494  68.352  54.434  0.00  0.00    +0.000 OA
ATOM     30  OXT GLU A   1      61.198  67.329  53.482  0.00  0.00    +0.000 OA
ATOM     31  N   UNK A   0      62.981  61.032  53.262  0.00  0.00    +0.000 N 
ATOM     32  C   UNK A   0      63.352  61.275  53.957  0.00  0.00    +0.000 C 
ATOM     33  O   UNK A   0      63.798  60.736  54.397  0.00  0.00    +0.000 OA
ATOM     34  N   UNK A   0      62.759  59.227  52.053  0.00  0.00    +0.000 NA
ENDROOT
TORSDOF 0
ENDMDL
MODEL 2
REMARK VINA RESULT:   -11.338      1.700      7.148
REMARK INTER + INTRA:         -11.338
REMARK INTER:                 -11.338
REMARK INTRA:                   0.000
REMARK UNBOUND:                 0.000
ROOT
REMARK  Name = levofolinic acid
REMARK                            x       y       z     vdW  Elec       q    Type
REMARK                         _______ _______ _______ _____ _____    ______ ____
ATOM      1  N   UNK A   0      61.731  70.575  55.287  0.00  0.00    +0.000 NA
ATOM      2  C   UNK A   0      61.818  69.770  55.135  0.00  0.00    +0.000 A 
ATOM      3  N   UNK A   0      62.289  69.304  55.628  0.00  0.00    +0.000 NA
ATOM      4  C   UNK A   0      62.376  68.498  55.476  0.00  0.00    +0.000 A 
ATOM      5  O   UNK A   0      62.846  68.034  55.968  0.00  0.00    +0.000 OA
ATOM      6  C   UNK A   0      61.991  68.156  54.830  0.00  0.00    +0.000 A 
ATOM      7  C   UNK A   0      61.521  68.621  54.337  0.00  0.00    +0.000 A 
ATOM      8  N   UNK A   0      61.137  68.280  53.692  0.00  0.00    +0.000 NA
ATOM      9  C   UNK A   0      61.223  67.473  53.539  0.00  0.00    +0.000 C 
ATOM     10  C   UNK A   0      61.694  67.009  54.032  0.00  0.00    +0.000 C 
ATOM     11  C   UNK A   0      61.781  66.203  53.880  0.00  0.00    +0.000 C 
ATOM     12  N   UNK A   0      61.397  65.862  53.235  0.00  0.00    +0.000 NA
ATOM     13  C   UNK A   0      61.484  65.055  53.083  0.00  0.00    +0.000 A 
ATOM     14  C   UNK A   0      61.100  64.713  52.437  0.00  0.00    +0.000 A 
ATOM     15  C   UNK A   0      61.187  63.908  52.285  0.00  0.00    +0.000 A 
ATOM     16  C   UNK A   0      61.658  63.442  52.778  0.00  0.00    +0.000 A 
ATOM     17  C   UNK A   0      62.042  63.784  53.423  0.00  0.00    +0.000 A 
ATOM     18  C   UNK A   0      61.955  64.591  53.576  0.00  0.00    +0.000 A 
ATOM     19  C   UNK A   0      61.745  62.637  52.626  0.00  0.00    +0.000 C 
ATOM     20  O   UNK A   0      61.361  62.295  51.981  0.00  0.00    +0.000 OA
ATOM     21  N   GLU A   1      62.216  62.172  53.119  0.00  0.00    +0.000 NA
ATOM     22  CA  GLU A   1      62.303  61.366  52.967  0.00  0.00    +0.000 C 
ATOM     23  CB  GLU A   1      62.773  60.901  53.460  0.00  0.00    +0.000 C 
ATOM     24  CG  GLU A   1      62.860  60.095  53.308  0.00  0.00    +0.000 C 
ATOM     25  CD  GLU A   1      63.331  59.630  53.800  0.00  0.00    +0.000 C 
ATOM     26  OE1 GLU A   1      63.418  58.825  53.648  0.00  0.00    +0.000 OA
ATOM     27  OE2 GLU A   1      63.715  59.972  54.446  0.00  0.00    +0.000 OA
ATOM     28  C   GLU A   1      61.919  61.025  52.321  0.00  0.00    +0.000 C 
ATOM     29  O   GLU A   1      62.005  60.218  52.169  0.00  0.00    +0.000 OA
ATOM     30  OXT GLU A   1      61.448  61.488  51.828  0.00  0.00    +0.000 OA
ATOM     31  N   UNK A   0      62.078  67.350  54.678  0.00  0.00    +0.000 N 
ATOM     32  C   UNK A   0      62.549  66.886  55.170  0.00  0.00    +0.000 C 
ATOM     33  O   UNK A   0      62.933  67.228  55.816  0.00  0.00    +0.000 OA
ATOM     34  N   UNK A   0      61.433  69.428  54.489  0.00  0.00    +0.000 NA
ENDROOT
TORSDOF 0
ENDMDL
MODEL 3
REMARK VINA RESULT:   -11.235      1.971      7.349
REMARK INTER + INTRA:         -11.235
REMARK INTER:                 -11.235
REMARK INTRA:                   0.000
REMARK UNBOUND:                 0.000
ROOT
REMARK  Name = levofolinic acid
REMARK                            x       y       z     vdW  Elec       q    Type
REMARK                         _______ _______ _______ _____ _____    ______ ____
ATOM      1  N   UNK A   0      62.376  70.253  54.638  0.00  0.00    +0.000 NA
ATOM      2  C   UNK A   0      62.250  69.465  54.429  0.00  0.00    +0.000 A 
ATOM      3  N   UNK A   0      61.594  69.258  53.974  0.00  0.00    +0.000 NA
ATOM      4  C   UNK A   0      61.467  68.470  53.765  0.00  0.00    +0.000 A 
ATOM      5  O   UNK A   0      60.812  68.263  53.310  0.00  0.00    +0.000 OA
ATOM      6  C   UNK A   0      61.998  67.887  54.013  0.00  0.00    +0.000 A 
ATOM      7  C   UNK A   0      62.654  68.094  54.469  0.00  0.00    +0.000 A 
ATOM      8  N   UNK A   0      63.184  67.512  54.717  0.00  0.00    +0.000 NA
ATOM      9  C   UNK A   0      63.057  66.723  54.508  0.00  0.00    +0.000 C 
ATOM     10  C   UNK A   0      62.401  66.518  54.053  0.00  0.00    +0.000 C 
ATOM     11  C   UNK A   0      62.276  65.729  53.845  0.00  0.00    +0.000 C 
ATOM     12  N   UNK A   0      62.805  65.148  54.092  0.00  0.00    +0.000 NA
ATOM     13  C   UNK A   0      62.679  64.359  53.884  0.00  0.00    +0.000 A 
ATOM     14  C   UNK A   0      63.209  63.777  54.132  0.00  0.00    +0.000 A 
ATOM     15  C   UNK A   0      63.083  62.990  53.924  0.00  0.00    +0.000 A 
ATOM     16  C   UNK A   0      62.427  62.783  53.468  0.00  0.00    +0.000 A 
ATOM     17  C   UNK A   0      61.897  63.364  53.220  0.00  0.00    +0.000 A 
ATOM     18  C   UNK A   0      62.023  64.153  53.428  0.00  0.00    +0.000 A 
ATOM     19  C   UNK A   0      62.301  61.995  53.260  0.00  0.00    +0.000 C 
ATOM     20  O   UNK A   0      62.831  61.413  53.507  0.00  0.00    +0.000 OA
ATOM     21  N   GLU A   1      61.645  61.788  52.804  0.00  0.00    +0.000 NA
ATOM     22  CA  GLU A   1      61.519  61.000  52.596  0.00  0.00    +0.000 C 
ATOM     23  CB  GLU A   1      60.863  60.793  52.140  0.00  0.00    +0.000 C 
ATOM     24  CG  GLU A   1      60.737  60.005  51.932  0.00  0.00    +0.000 C 
ATOM     25  CD  GLU A   1      60.081  59.798  51.476  0.00  0.00    +0.000 C 
ATOM     26  OE1 GLU A   1      59.954  59.011  51.268  0.00  0.00    +0.000 OA
ATOM     27  OE2 GLU A   1      59.551  60.380  51.228  0.00  0.00    +0.000 OA
ATOM     28  C   GLU A   1      62.048  60.418  52.843  0.00  0.00    +0.000 C 
ATOM     29  O   GLU A   1      61.922  59.629  52.635  0.00  0.00    +0.000 OA
ATOM     30  OXT GLU A   1      62.704  60.624  53.299  0.00  0.00    +0.000 OA
ATOM     31  N   UNK A   0      61.872  67.099  53.805  0.00  0.00    +0.000 N 
ATOM     32  C   UNK A   0      61.216  66.893  53.350  0.00  0.00    +0.000 C 
ATOM     33  O   UNK A   0      60.686  67.476  53.102  0.00  0.00    +0.000 OA
ATOM     34  N   UNK A   0      62.780  68.883  54.677  0.00  0.00    +0.000 NA
ENDROOT
TORSDOF 0
ENDMDL
MODEL 4
REMARK VINA RESULT:   -11.148      1.464      2.093
REMARK INTER + INTRA:         -11.148
REMARK INTER:                 -11.148
REMARK INTRA:                   0.000
REMARK UNBOUND:                 0.000
ROOT
REMARK  Name = levofolinic acid
REMARK                            x       y       z     vdW  Elec       q    Type
REMARK                         _______ _______ _______ _____ _____    ______ ____
ATOM      1  N   UNK A   0      63.507  57.867  51.357  0.00  0.00    +0.000 NA
ATOM      2  C   UNK A   0      63.390  58.671  51.499  0.00  0.00    +0.000 A 
ATOM      3  N   UNK A   0      63.444  59.212  50.879  0.00  0.00    +0.000 NA
ATOM      4  C   UNK A   0      63.327  60.017  51.021  0.00  0.00    +0.000 A 
ATOM      5  O   UNK A   0      63.381  60.558  50.401  0.00  0.00    +0.000 OA
ATOM      6  C   UNK A   0      63.155  60.280  51.785  0.00  0.00    +0.000 A 
ATOM      7  C   UNK A   0      63.101  59.738  52.405  0.00  0.00    +0.000 A 
ATOM      8  N   UNK A   0      62.929  60.001  53.168  0.00  0.00    +0.000 NA
ATOM      9  C   UNK A   0      62.812  60.806  53.311  0.00  0.00    +0.000 C 
ATOM     10  C   UNK A   0      62.866  61.347  52.690  0.00  0.00    +0.000 C 
ATOM     11  C   UNK A   0      62.749  62.150  52.833  0.00  0.00    +0.000 C 
ATOM     12  N   UNK A   0      62.577  62.413  53.595  0.00  0.00    +0.000 NA
ATOM     13  C   UNK A   0      62.460  63.218  53.738  0.00  0.00    +0.000 A 
ATOM     14  C   UNK A   0      62.288  63.481  54.500  0.00  0.00    +0.000 A 
ATOM     15  C   UNK A   0      62.171  64.285  54.643  0.00  0.00    +0.000 A 
ATOM     16  C   UNK A   0      62.226  64.826  54.022  0.00  0.00    +0.000 A 
ATOM     17  C   UNK A   0      62.397  64.563  53.260  0.00  0.00    +0.000 A 
ATOM     18  C   UNK A   0      62.514  63.758  53.117  0.00  0.00    +0.000 A 
ATOM     19  C   UNK A   0      62.108  65.630  54.165  0.00  0.00    +0.000 C 
ATOM     20  O   UNK A   0      61.937  65.893  54.927  0.00  0.00    +0.000 OA
ATOM     21  N   GLU A   1      62.163  66.171  53.544  0.00  0.00    +0.000 NA
ATOM     22  CA  GLU A   1      62.045  66.975  53.687  0.00  0.00    +0.000 C 
ATOM     23  CB  GLU A   1      62.100  67.517  53.066  0.00  0.00    +0.000 C 
ATOM     24  CG  GLU A   1      61.983  68.320  53.209  0.00  0.00    +0.000 C 
ATOM     25  CD  GLU A   1      62.037  68.862  52.588  0.00  0.00    +0.000 C 
ATOM     26  OE1 GLU A   1      61.920  69.665  52.731  0.00  0.00    +0.000 OA
ATOM     27  OE2 GLU A   1      62.208  68.599  51.826  0.00  0.00    +0.000 OA
ATOM     28  C   GLU A   1      61.874  67.238  54.449  0.00  0.00    +0.000 C 
ATOM     29  O   GLU A   1      61.757  68.043  54.592  0.00  0.00    +0.000 OA
ATOM     30  OXT GLU A   1      61.819  66.698  55.070  0.00  0.00    +0.000 OA
ATOM     31  N   UNK A   0      63.038  61.084  51.927  0.00  0.00    +0.000 N 
ATOM     32  C   UNK A   0      63.092  61.624  51.307  0.00  0.00    +0.000 C 
ATOM     33  O   UNK A   0      63.264  61.361  50.543  0.00  0.00    +0.000 OA
ATOM     34  N   UNK A   0      63.218  58.934  52.263  0.00  0.00    +0.000 NA
ENDROOT
TORSDOF 0
ENDMDL
MODEL 5
REMARK VINA RESULT:   -11.121      1.989      3.365
REMARK INTER + INTRA:         -11.121
REMARK INTER:                 -11.121
REMARK INTRA:                   0.000
REMARK UNBOUND:                 0.000
ROOT
REMARK  Name = levofolinic acid
REMARK                            x       y       z     vdW  Elec       q    Type
REMARK                         _______ _______ _______ _____ _____    ______ ____
ATOM      1  N   UNK A   0      62.994  60.402  52.856  0.00  0.00    +0.000 NA
ATOM      2  C   UNK A   0      62.774  61.192  52.938  0.00  0.00    +0.000 A 
ATOM      3  N   UNK A   0      62.123  61.486  52.524  0.00  0.00    +0.000 NA
ATOM      4  C   UNK A   0      61.902  62.276  52.607  0.00  0.00    +0.000 A 
ATOM      5  O   UNK A   0      61.252  62.569  52.192  0.00  0.00    +0.000 OA
ATOM      6  C   UNK A   0      62.333  62.775  53.105  0.00  0.00    +0.000 A 
ATOM      7  C   UNK A   0      62.983  62.482  53.519  0.00  0.00    +0.000 A 
ATOM      8  N   UNK A   0      63.413  62.980  54.017  0.00  0.00    +0.000 NA
ATOM      9  C   UNK A   0      63.193  63.771  54.100  0.00  0.00    +0.000 C 
ATOM     10  C   UNK A   0      62.542  64.063  53.686  0.00  0.00    +0.000 C 
ATOM     11  C   UNK A   0      62.322  64.854  53.769  0.00  0.00    +0.000 C 
ATOM     12  N   UNK A   0      62.752  65.351  54.266  0.00  0.00    +0.000 NA
ATOM     13  C   UNK A   0      62.531  66.142  54.349  0.00  0.00    +0.000 A 
ATOM     14  C   UNK A   0      62.961  66.640  54.847  0.00  0.00    +0.000 A 
ATOM     15  C   UNK A   0      62.741  67.430  54.930  0.00  0.00    +0.000 A 
ATOM     16  C   UNK A   0      62.090  67.724  54.515  0.00  0.00    +0.000 A 
ATOM     17  C   UNK A   0      61.660  67.226  54.018  0.00  0.00    +0.000 A 
ATOM     18  C   UNK A   0      61.881  66.434  53.934  0.00  0.00    +0.000 A 
ATOM     19  C   UNK A   0      61.870  68.514  54.598  0.00  0.00    +0.000 C 
ATOM     20  O   UNK A   0      62.300  69.012  55.096  0.00  0.00    +0.000 OA
ATOM     21  N   GLU A   1      61.219  68.807  54.184  0.00  0.00    +0.000 NA
ATOM     22  CA  GLU A   1      60.999  69.597  54.267  0.00  0.00    +0.000 C 
ATOM     23  CB  GLU A   1      60.348  69.890  53.852  0.00  0.00    +0.000 C 
ATOM     24  CG  GLU A   1      60.128  70.680  53.935  0.00  0.00    +0.000 C 
ATOM     25  CD  GLU A   1      59.478  70.974  53.520  0.00  0.00    +0.000 C 
ATOM     26  OE1 GLU A   1      59.257  71.764  53.603  0.00  0.00    +0.000 OA
ATOM     27  OE2 GLU A   1      59.048  70.476  53.023  0.00  0.00    +0.000 OA
ATOM     28  C   GLU A   1      61.429  70.095  54.764  0.00  0.00    +0.000 C 
ATOM     29  O   GLU A   1      61.208  70.886  54.848  0.00  0.00    +0.000 OA
ATOM     30  OXT GLU A   1      62.079  69.803  55.179  0.00  0.00    +0.000 OA
ATOM     31  N   UNK A   0      62.112  63.565  53.188  0.00  0.00    +0.000 N 
ATOM     32  C   UNK A   0      61.462  63.858  52.773  0.00  0.00    +0.000 C 
ATOM     33  O   UNK A   0      61.032  63.359  52.275  0.00  0.00    +0.000 OA
ATOM     34  N   UNK A   0      63.204  61.691  53.437  0.00  0.00    +0.000 NA
ENDROOT
TORSDOF 0
ENDMDL
MODEL 6
REMARK VINA RESULT:   -10.224      2.296      3.318
REMARK INTER + INTRA:         -10.224
REMARK INTER:                 -10.224
REMARK INTRA:                   0.000
REMARK UNBOUND:                 0.000
ROOT
REMARK  Name = levofolinic acid
REMARK                            x       y       z     vdW  Elec       q    Type
REMARK                         _______ _______ _______ _____ _____    ______ ____
ATOM      1  N   UNK A   0      64.013  60.015  53.515  0.00  0.00    +0.000 NA
ATOM      2  C   UNK A   0      63.787  60.785  53.328  0.00  0.00    +0.000 A 
ATOM      3  N   UNK A   0      63.964  61.099  52.586  0.00  0.00    +0.000 NA
ATOM      4  C   UNK A   0      63.737  61.870  52.398  0.00  0.00    +0.000 A 
ATOM      5  O   UNK A   0      63.915  62.184  51.657  0.00  0.00    +0.000 OA
ATOM      6  C   UNK A   0      63.332  62.328  52.954  0.00  0.00    +0.000 A 
ATOM      7  C   UNK A   0      63.154  62.013  53.696  0.00  0.00    +0.000 A 
ATOM      8  N   UNK A   0      62.749  62.470  54.250  0.00  0.00    +0.000 NA
ATOM      9  C   UNK A   0      62.522  63.242  54.063  0.00  0.00    +0.000 C 
ATOM     10  C   UNK A   0      62.700  63.555  53.321  0.00  0.00    +0.000 C 
ATOM     11  C   UNK A   0      62.473  64.326  53.135  0.00  0.00    +0.000 C 
ATOM     12  N   UNK A   0      62.068  64.782  53.689  0.00  0.00    +0.000 NA
ATOM     13  C   UNK A   0      61.841  65.553  53.502  0.00  0.00    +0.000 A 
ATOM     14  C   UNK A   0      61.436  66.010  54.057  0.00  0.00    +0.000 A 
ATOM     15  C   UNK A   0      61.209  66.780  53.870  0.00  0.00    +0.000 A 
ATOM     16  C   UNK A   0      61.387  67.095  53.128  0.00  0.00    +0.000 A 
ATOM     17  C   UNK A   0      61.792  66.638  52.573  0.00  0.00    +0.000 A 
ATOM     18  C   UNK A   0      62.019  65.867  52.760  0.00  0.00    +0.000 A 
ATOM     19  C   UNK A   0      61.160  67.865  52.940  0.00  0.00    +0.000 C 
ATOM     20  O   UNK A   0      60.755  68.322  53.495  0.00  0.00    +0.000 OA
ATOM     21  N   GLU A   1      61.338  68.180  52.199  0.00  0.00    +0.000 NA
ATOM     22  CA  GLU A   1      61.111  68.950  52.011  0.00  0.00    +0.000 C 
ATOM     23  CB  GLU A   1      61.289  69.264  51.269  0.00  0.00    +0.000 C 
ATOM     24  CG  GLU A   1      61.062  70.034  51.082  0.00  0.00    +0.000 C 
ATOM     25  CD  GLU A   1      61.240  70.349  50.340  0.00  0.00    +0.000 C 
ATOM     26  OE1 GLU A   1      61.013  71.119  50.153  0.00  0.00    +0.000 OA
ATOM     27  OE2 GLU A   1      61.645  69.892  49.786  0.00  0.00    +0.000 OA
ATOM     28  C   GLU A   1      60.706  69.407  52.566  0.00  0.00    +0.000 C 
ATOM     29  O   GLU A   1      60.479  70.178  52.379  0.00  0.00    +0.000 OA
ATOM     30  OXT GLU A   1      60.528  69.093  53.308  0.00  0.00    +0.000 OA
ATOM     31  N   UNK A   0      63.105  63.098  52.767  0.00  0.00    +0.000 N 
ATOM     32  C   UNK A   0      63.283  63.412  52.025  0.00  0.00    +0.000 C 
ATOM     33  O   UNK A   0      63.688  62.954  51.470  0.00  0.00    +0.000 OA
ATOM     34  N   UNK A   0      63.381  61.242  53.883  0.00  0.00    +0.000 NA
ENDROOT
TORSDOF 0
ENDMDL
MODEL 7
REMARK VINA RESULT:    -9.822      3.731      6.197
REMARK INTER + INTRA:          -9.822
REMARK INTER:                  -9.822
REMARK INTRA:                   0.000
REMARK UNBOUND:                 0.000
ROOT
REMARK  Name = levofolinic acid
REMARK                            x       y       z     vdW  Elec       q    Type
REMARK                         _______ _______ _______ _____ _____    ______ ____
ATOM      1  N   UNK A   0      63.129  63.579  53.556  0.00  0.00    +0.000 NA
ATOM      2  C   UNK A   0      62.756  64.310  53.476  0.00  0.00    +0.000 A 
ATOM      3  N   UNK A   0      62.377  64.506  52.770  0.00  0.00    +0.000 NA
ATOM      4  C   UNK A   0      62.003  65.237  52.689  0.00  0.00    +0.000 A 
ATOM      5  O   UNK A   0      61.625  65.432  51.983  0.00  0.00    +0.000 OA
ATOM      6  C   UNK A   0      62.008  65.773  53.317  0.00  0.00    +0.000 A 
ATOM      7  C   UNK A   0      62.386  65.578  54.024  0.00  0.00    +0.000 A 
ATOM      8  N   UNK A   0      62.391  66.114  54.651  0.00  0.00    +0.000 NA
ATOM      9  C   UNK A   0      62.017  66.845  54.572  0.00  0.00    +0.000 C 
ATOM     10  C   UNK A   0      61.639  67.040  53.865  0.00  0.00    +0.000 C 
ATOM     11  C   UNK A   0      61.265  67.771  53.786  0.00  0.00    +0.000 C 
ATOM     12  N   UNK A   0      61.270  68.307  54.412  0.00  0.00    +0.000 NA
ATOM     13  C   UNK A   0      60.896  69.038  54.333  0.00  0.00    +0.000 A 
ATOM     14  C   UNK A   0      60.901  69.574  54.960  0.00  0.00    +0.000 A 
ATOM     15  C   UNK A   0      60.527  70.305  54.880  0.00  0.00    +0.000 A 
ATOM     16  C   UNK A   0      60.148  70.501  54.174  0.00  0.00    +0.000 A 
ATOM     17  C   UNK A   0      60.144  69.965  53.547  0.00  0.00    +0.000 A 
ATOM     18  C   UNK A   0      60.518  69.233  53.626  0.00  0.00    +0.000 A 
ATOM     19  C   UNK A   0      59.775  71.231  54.094  0.00  0.00    +0.000 C 
ATOM     20  O   UNK A   0      59.779  71.767  54.721  0.00  0.00    +0.000 OA
ATOM     21  N   GLU A   1      59.396  71.427  53.388  0.00  0.00    +0.000 NA
ATOM     22  CA  GLU A   1      59.022  72.158  53.308  0.00  0.00    +0.000 C 
ATOM     23  CB  GLU A   1      58.644  72.353  52.602  0.00  0.00    +0.000 C 
ATOM     24  CG  GLU A   1      58.270  73.084  52.522  0.00  0.00    +0.000 C 
ATOM     25  CD  GLU A   1      57.891  73.280  51.815  0.00  0.00    +0.000 C 
ATOM     26  OE1 GLU A   1      57.518  74.010  51.736  0.00  0.00    +0.000 OA
ATOM     27  OE2 GLU A   1      57.887  72.744  51.188  0.00  0.00    +0.000 OA
ATOM     28  C   GLU A   1      59.027  72.694  53.935  0.00  0.00    +0.000 C 
ATOM     29  O   GLU A   1      58.653  73.425  53.856  0.00  0.00    +0.000 OA
ATOM     30  OXT GLU A   1      59.405  72.499  54.642  0.00  0.00    +0.000 OA
ATOM     31  N   UNK A   0      61.634  66.504  53.238  0.00  0.00    +0.000 N 
ATOM     32  C   UNK A   0      61.256  66.699  52.532  0.00  0.00    +0.000 C 
ATOM     33  O   UNK A   0      61.251  66.162  51.904  0.00  0.00    +0.000 OA
ATOM     34  N   UNK A   0      62.760  64.846  54.104  0.00  0.00    +0.000 NA
ENDROOT
TORSDOF 0
ENDMDL
MODEL 8
REMARK VINA RESULT:    -9.283     18.454     19.166
REMARK INTER + INTRA:          -9.283
REMARK INTER:                  -9.283
REMARK INTRA:                   0.000
REMARK UNBOUND:                 0.000
ROOT
REMARK  Name = levofolinic acid
REMARK                            x       y       z     vdW  Elec       q    Type
REMARK                         _______ _______ _______ _____ _____    ______ ____
ATOM      1  N   UNK A   0      73.129  81.069  51.646  0.00  0.00    +0.000 NA
ATOM      2  C   UNK A   0      72.464  81.077  52.134  0.00  0.00    +0.000 A 
ATOM      3  N   UNK A   0      72.491  80.716  52.875  0.00  0.00    +0.000 NA
ATOM      4  C   UNK A   0      71.827  80.723  53.364  0.00  0.00    +0.000 A 
ATOM      5  O   UNK A   0      71.854  80.362  54.105  0.00  0.00    +0.000 OA
ATOM      6  C   UNK A   0      71.133  81.092  53.110  0.00  0.00    +0.000 A 
ATOM      7  C   UNK A   0      71.105  81.453  52.369  0.00  0.00    +0.000 A 
ATOM      8  N   UNK A   0      70.412  81.822  52.116  0.00  0.00    +0.000 NA
ATOM      9  C   UNK A   0      69.746  81.830  52.604  0.00  0.00    +0.000 C 
ATOM     10  C   UNK A   0      69.775  81.469  53.345  0.00  0.00    +0.000 C 
ATOM     11  C   UNK A   0      69.110  81.477  53.833  0.00  0.00    +0.000 C 
ATOM     12  N   UNK A   0      68.417  81.845  53.580  0.00  0.00    +0.000 NA
ATOM     13  C   UNK A   0      67.751  81.853  54.068  0.00  0.00    +0.000 A 
ATOM     14  C   UNK A   0      67.058  82.222  53.815  0.00  0.00    +0.000 A 
ATOM     15  C   UNK A   0      66.394  82.229  54.303  0.00  0.00    +0.000 A 
ATOM     16  C   UNK A   0      66.421  81.868  55.044  0.00  0.00    +0.000 A 
ATOM     17  C   UNK A   0      67.114  81.499  55.298  0.00  0.00    +0.000 A 
ATOM     18  C   UNK A   0      67.780  81.492  54.809  0.00  0.00    +0.000 A 
ATOM     19  C   UNK A   0      65.757  81.876  55.532  0.00  0.00    +0.000 C 
ATOM     20  O   UNK A   0      65.064  82.245  55.279  0.00  0.00    +0.000 OA
ATOM     21  N   GLU A   1      65.784  81.515  56.274  0.00  0.00    +0.000 NA
ATOM     22  CA  GLU A   1      65.120  81.522  56.762  0.00  0.00    +0.000 C 
ATOM     23  CB  GLU A   1      65.147  81.161  57.503  0.00  0.00    +0.000 C 
ATOM     24  CG  GLU A   1      64.483  81.169  57.991  0.00  0.00    +0.000 C 
ATOM     25  CD  GLU A   1      64.510  80.808  58.732  0.00  0.00    +0.000 C 
ATOM     26  OE1 GLU A   1      63.846  80.815  59.220  0.00  0.00    +0.000 OA
ATOM     27  OE2 GLU A   1      65.203  80.439  58.985  0.00  0.00    +0.000 OA
ATOM     28  C   GLU A   1      64.427  81.891  56.508  0.00  0.00    +0.000 C 
ATOM     29  O   GLU A   1      63.761  81.899  56.997  0.00  0.00    +0.000 OA
ATOM     30  OXT GLU A   1      64.398  82.252  55.767  0.00  0.00    +0.000 OA
ATOM     31  N   UNK A   0      70.468  81.100  53.598  0.00  0.00    +0.000 N 
ATOM     32  C   UNK A   0      70.496  80.739  54.339  0.00  0.00    +0.000 C 
ATOM     33  O   UNK A   0      71.190  80.370  54.592  0.00  0.00    +0.000 OA
ATOM     34  N   UNK A   0      71.770  81.446  51.880  0.00  0.00    +0.000 NA
ENDROOT
TORSDOF 0
ENDMDL
MODEL 9
REMARK VINA RESULT:    -8.943     18.046     18.620
REMARK INTER + INTRA:          -8.943
REMARK INTER:                  -8.943
REMARK INTRA:                   0.000
REMARK UNBOUND:                 0.000
ROOT
REMARK  Name = levofolinic acid
REMARK                            x       y       z     vdW  Elec       q    Type
REMARK                         _______ _______ _______ _____ _____    ______ ____
ATOM      1  N   UNK A   0      81.192  58.550  52.673  0.00  0.00    +0.000 NA
ATOM      2  C   UNK A   0      81.127  59.320  52.962  0.00  0.00    +0.000 A 
ATOM      3  N   UNK A   0      80.717  59.465  53.663  0.00  0.00    +0.000 NA
ATOM      4  C   UNK A   0      80.651  60.235  53.952  0.00  0.00    +0.000 A 
ATOM      5  O   UNK A   0      80.241  60.380  54.652  0.00  0.00    +0.000 OA
ATOM      6  C   UNK A   0      80.997  60.861  53.539  0.00  0.00    +0.000 A 
ATOM      7  C   UNK A   0      81.407  60.716  52.838  0.00  0.00    +0.000 A 
ATOM      8  N   UNK A   0      81.752  61.342  52.426  0.00  0.00    +0.000 NA
ATOM      9  C   UNK A   0      81.687  62.113  52.714  0.00  0.00    +0.000 C 
ATOM     10  C   UNK A   0      81.277  62.256  53.415  0.00  0.00    +0.000 C 
ATOM     11  C   UNK A   0      81.212  63.027  53.703  0.00  0.00    +0.000 C 
ATOM     12  N   UNK A   0      81.557  63.652  53.291  0.00  0.00    +0.000 NA
ATOM     13  C   UNK A   0      81.492  64.422  53.580  0.00  0.00    +0.000 A 
ATOM     14  C   UNK A   0      81.838  65.048  53.168  0.00  0.00    +0.000 A 
ATOM     15  C   UNK A   0      81.772  65.817  53.456  0.00  0.00    +0.000 A 
ATOM     16  C   UNK A   0      81.362  65.963  54.158  0.00  0.00    +0.000 A 
ATOM     17  C   UNK A   0      81.017  65.337  54.570  0.00  0.00    +0.000 A 
ATOM     18  C   UNK A   0      81.082  64.566  54.281  0.00  0.00    +0.000 A 
ATOM     19  C   UNK A   0      81.297  66.732  54.446  0.00  0.00    +0.000 C 
ATOM     20  O   UNK A   0      81.642  67.358  54.034  0.00  0.00    +0.000 OA
ATOM     21  N   GLU A   1      80.887  66.877  55.147  0.00  0.00    +0.000 NA
ATOM     22  CA  GLU A   1      80.822  67.647  55.436  0.00  0.00    +0.000 C 
ATOM     23  CB  GLU A   1      80.412  67.792  56.137  0.00  0.00    +0.000 C 
ATOM     24  CG  GLU A   1      80.347  68.561  56.426  0.00  0.00    +0.000 C 
ATOM     25  CD  GLU A   1      79.936  68.707  57.127  0.00  0.00    +0.000 C 
ATOM     26  OE1 GLU A   1      79.871  69.476  57.415  0.00  0.00    +0.000 OA
ATOM     27  OE2 GLU A   1      79.591  68.081  57.539  0.00  0.00    +0.000 OA
ATOM     28  C   GLU A   1      81.167  68.272  55.023  0.00  0.00    +0.000 C 
ATOM     29  O   GLU A   1      81.102  69.043  55.312  0.00  0.00    +0.000 OA
ATOM     30  OXT GLU A   1      81.577  68.129  54.323  0.00  0.00    +0.000 OA
ATOM     31  N   UNK A   0      80.932  61.631  53.828  0.00  0.00    +0.000 N 
ATOM     32  C   UNK A   0      80.522  61.775  54.528  0.00  0.00    +0.000 C 
ATOM     33  O   UNK A   0      80.176  61.149  54.941  0.00  0.00    +0.000 OA
ATOM     34  N   UNK A   0      81.472  59.946  52.549  0.00  0.00    +0.000 NA
ENDROOT
TORSDOF 0
ENDMDL
