MODEL 1
REMARK VINA RESULT:    -9.599      0.000      0.000
REMARK INTER + INTRA:          -9.599
REMARK INTER:                  -9.599
REMARK INTRA:                   0.000
REMARK UNBOUND:                 0.000
ROOT
REMARK  Name = levofacetoperane
REMARK                            x       y       z     vdW  Elec       q    Type
REMARK                         _______ _______ _______ _____ _____    ______ ____
ATOM      1  C   UNL     1      61.930  63.553  68.057  0.00  0.00    +0.000 C 
ATOM      2  C   UNL     1      61.450  63.168  67.509  0.00  0.00    +0.000 C 
ATOM      3  O   UNL     1      60.650  63.049  67.673  0.00  0.00    +0.000 OA
ATOM      4  O   UNL     1      61.769  62.901  66.796  0.00  0.00    +0.000 OA
ATOM      5  C   UNL     1      61.288  62.516  66.248  0.00  0.00    +0.000 C 
ATOM      6  C   UNL     1      61.607  62.248  65.535  0.00  0.00    +0.000 C 
ATOM      7  C   UNL     1      61.126  61.863  64.987  0.00  0.00    +0.000 C 
ATOM      8  C   UNL     1      61.445  61.596  64.274  0.00  0.00    +0.000 C 
ATOM      9  C   UNL     1      62.245  61.715  64.110  0.00  0.00    +0.000 C 
ATOM     10  C   UNL     1      62.725  62.100  64.658  0.00  0.00    +0.000 C 
ATOM     11  N   UNL     1      62.407  62.367  65.371  0.00  0.00    +0.000 NA
ATOM     12  C   UNL     1      60.488  62.396  66.412  0.00  0.00    +0.000 A 
ATOM     13  C   UNL     1      60.169  62.663  67.124  0.00  0.00    +0.000 A 
ATOM     14  C   UNL     1      59.370  62.545  67.289  0.00  0.00    +0.000 A 
ATOM     15  C   UNL     1      58.889  62.159  66.740  0.00  0.00    +0.000 A 
ATOM     16  C   UNL     1      59.208  61.892  66.028  0.00  0.00    +0.000 A 
ATOM     17  C   UNL     1      60.008  62.011  65.864  0.00  0.00    +0.000 A 
ENDROOT
TORSDOF 0
ENDMDL
MODEL 2
REMARK VINA RESULT:    -9.183      1.076      2.785
REMARK INTER + INTRA:          -9.183
REMARK INTER:                  -9.183
REMARK INTRA:                   0.000
REMARK UNBOUND:                 0.000
ROOT
REMARK  Name = levofacetoperane
REMARK                            x       y       z     vdW  Elec       q    Type
REMARK                         _______ _______ _______ _____ _____    ______ ____
ATOM      1  C   UNL     1      62.527  62.268  65.322  0.00  0.00    +0.000 C 
ATOM      2  C   UNL     1      61.836  62.334  65.767  0.00  0.00    +0.000 C 
ATOM      3  O   UNL     1      61.129  62.026  65.476  0.00  0.00    +0.000 OA
ATOM      4  O   UNL     1      61.852  62.707  66.503  0.00  0.00    +0.000 OA
ATOM      5  C   UNL     1      61.161  62.773  66.947  0.00  0.00    +0.000 C 
ATOM      6  C   UNL     1      61.177  63.147  67.683  0.00  0.00    +0.000 C 
ATOM      7  C   UNL     1      60.484  63.212  68.127  0.00  0.00    +0.000 C 
ATOM      8  C   UNL     1      60.500  63.585  68.863  0.00  0.00    +0.000 C 
ATOM      9  C   UNL     1      61.209  63.894  69.154  0.00  0.00    +0.000 C 
ATOM     10  C   UNL     1      61.900  63.828  68.709  0.00  0.00    +0.000 C 
ATOM     11  N   UNL     1      61.884  63.454  67.974  0.00  0.00    +0.000 NA
ATOM     12  C   UNL     1      60.452  62.465  66.656  0.00  0.00    +0.000 A 
ATOM     13  C   UNL     1      60.436  62.091  65.921  0.00  0.00    +0.000 A 
ATOM     14  C   UNL     1      59.729  61.783  65.630  0.00  0.00    +0.000 A 
ATOM     15  C   UNL     1      59.036  61.849  66.075  0.00  0.00    +0.000 A 
ATOM     16  C   UNL     1      59.052  62.222  66.810  0.00  0.00    +0.000 A 
ATOM     17  C   UNL     1      59.761  62.530  67.101  0.00  0.00    +0.000 A 
ENDROOT
TORSDOF 0
ENDMDL
MODEL 3
REMARK VINA RESULT:    -8.826      4.279      6.232
REMARK INTER + INTRA:          -8.826
REMARK INTER:                  -8.826
REMARK INTRA:                   0.000
REMARK UNBOUND:                 0.000
ROOT
REMARK  Name = levofacetoperane
REMARK                            x       y       z     vdW  Elec       q    Type
REMARK                         _______ _______ _______ _____ _____    ______ ____
ATOM      1  C   UNL     1      60.481  62.003  69.360  0.00  0.00    +0.000 C 
ATOM      2  C   UNL     1      60.661  62.212  70.137  0.00  0.00    +0.000 C 
ATOM      3  O   UNL     1      61.141  61.722  70.595  0.00  0.00    +0.000 OA
ATOM      4  O   UNL     1      60.362  62.912  70.456  0.00  0.00    +0.000 OA
ATOM      5  C   UNL     1      60.542  63.120  71.233  0.00  0.00    +0.000 C 
ATOM      6  C   UNL     1      60.242  63.820  71.553  0.00  0.00    +0.000 C 
ATOM      7  C   UNL     1      60.423  64.029  72.331  0.00  0.00    +0.000 C 
ATOM      8  C   UNL     1      60.123  64.728  72.650  0.00  0.00    +0.000 C 
ATOM      9  C   UNL     1      59.643  65.219  72.191  0.00  0.00    +0.000 C 
ATOM     10  C   UNL     1      59.463  65.010  71.414  0.00  0.00    +0.000 C 
ATOM     11  N   UNL     1      59.763  64.310  71.095  0.00  0.00    +0.000 NA
ATOM     12  C   UNL     1      61.022  62.630  71.692  0.00  0.00    +0.000 A 
ATOM     13  C   UNL     1      61.321  61.931  71.373  0.00  0.00    +0.000 A 
ATOM     14  C   UNL     1      61.801  61.440  71.831  0.00  0.00    +0.000 A 
ATOM     15  C   UNL     1      61.981  61.649  72.609  0.00  0.00    +0.000 A 
ATOM     16  C   UNL     1      61.681  62.349  72.928  0.00  0.00    +0.000 A 
ATOM     17  C   UNL     1      61.202  62.839  72.469  0.00  0.00    +0.000 A 
ENDROOT
TORSDOF 0
ENDMDL
MODEL 4
REMARK VINA RESULT:    -8.735      2.213      3.303
REMARK INTER + INTRA:          -8.735
REMARK INTER:                  -8.735
REMARK INTRA:                   0.000
REMARK UNBOUND:                 0.000
ROOT
REMARK  Name = levofacetoperane
REMARK                            x       y       z     vdW  Elec       q    Type
REMARK                         _______ _______ _______ _____ _____    ______ ____
ATOM      1  C   UNL     1      62.590  64.598  69.790  0.00  0.00    +0.000 C 
ATOM      2  C   UNL     1      62.067  63.962  69.735  0.00  0.00    +0.000 C 
ATOM      3  O   UNL     1      61.857  63.543  70.414  0.00  0.00    +0.000 OA
ATOM      4  O   UNL     1      61.754  63.746  69.003  0.00  0.00    +0.000 OA
ATOM      5  C   UNL     1      61.232  63.111  68.949  0.00  0.00    +0.000 C 
ATOM      6  C   UNL     1      60.919  62.894  68.216  0.00  0.00    +0.000 C 
ATOM      7  C   UNL     1      60.396  62.258  68.163  0.00  0.00    +0.000 C 
ATOM      8  C   UNL     1      60.084  62.042  67.431  0.00  0.00    +0.000 C 
ATOM      9  C   UNL     1      60.294  62.462  66.751  0.00  0.00    +0.000 C 
ATOM     10  C   UNL     1      60.817  63.097  66.806  0.00  0.00    +0.000 C 
ATOM     11  N   UNL     1      61.130  63.314  67.538  0.00  0.00    +0.000 NA
ATOM     12  C   UNL     1      61.021  62.690  69.627  0.00  0.00    +0.000 A 
ATOM     13  C   UNL     1      61.334  62.907  70.360  0.00  0.00    +0.000 A 
ATOM     14  C   UNL     1      61.124  62.487  71.038  0.00  0.00    +0.000 A 
ATOM     15  C   UNL     1      60.600  61.851  70.984  0.00  0.00    +0.000 A 
ATOM     16  C   UNL     1      60.288  61.635  70.252  0.00  0.00    +0.000 A 
ATOM     17  C   UNL     1      60.499  62.055  69.574  0.00  0.00    +0.000 A 
ENDROOT
TORSDOF 0
ENDMDL
MODEL 5
REMARK VINA RESULT:    -8.684      3.362      4.996
REMARK INTER + INTRA:          -8.684
REMARK INTER:                  -8.684
REMARK INTRA:                   0.000
REMARK UNBOUND:                 0.000
ROOT
REMARK  Name = levofacetoperane
REMARK                            x       y       z     vdW  Elec       q    Type
REMARK                         _______ _______ _______ _____ _____    ______ ____
ATOM      1  C   UNL     1      62.583  65.502  70.240  0.00  0.00    +0.000 C 
ATOM      2  C   UNL     1      62.227  64.833  70.567  0.00  0.00    +0.000 C 
ATOM      3  O   UNL     1      62.226  64.726  71.384  0.00  0.00    +0.000 OA
ATOM      4  O   UNL     1      61.874  64.272  70.076  0.00  0.00    +0.000 OA
ATOM      5  C   UNL     1      61.518  63.604  70.403  0.00  0.00    +0.000 C 
ATOM      6  C   UNL     1      61.164  63.042  69.912  0.00  0.00    +0.000 C 
ATOM      7  C   UNL     1      60.809  62.374  70.240  0.00  0.00    +0.000 C 
ATOM      8  C   UNL     1      60.455  61.812  69.749  0.00  0.00    +0.000 C 
ATOM      9  C   UNL     1      60.457  61.920  68.931  0.00  0.00    +0.000 C 
ATOM     10  C   UNL     1      60.812  62.589  68.604  0.00  0.00    +0.000 C 
ATOM     11  N   UNL     1      61.166  63.150  69.095  0.00  0.00    +0.000 NA
ATOM     12  C   UNL     1      61.516  63.496  71.221  0.00  0.00    +0.000 A 
ATOM     13  C   UNL     1      61.870  64.057  71.712  0.00  0.00    +0.000 A 
ATOM     14  C   UNL     1      61.869  63.950  72.530  0.00  0.00    +0.000 A 
ATOM     15  C   UNL     1      61.513  63.280  72.857  0.00  0.00    +0.000 A 
ATOM     16  C   UNL     1      61.159  62.719  72.366  0.00  0.00    +0.000 A 
ATOM     17  C   UNL     1      61.161  62.827  71.548  0.00  0.00    +0.000 A 
ENDROOT
TORSDOF 0
ENDMDL
MODEL 6
REMARK VINA RESULT:    -8.420      3.253      4.986
REMARK INTER + INTRA:          -8.420
REMARK INTER:                  -8.420
REMARK INTRA:                   0.000
REMARK UNBOUND:                 0.000
ROOT
REMARK  Name = levofacetoperane
REMARK                            x       y       z     vdW  Elec       q    Type
REMARK                         _______ _______ _______ _____ _____    ______ ____
ATOM      1  C   UNL     1      60.979  65.513  69.118  0.00  0.00    +0.000 C 
ATOM      2  C   UNL     1      60.916  64.721  69.339  0.00  0.00    +0.000 C 
ATOM      3  O   UNL     1      60.694  64.155  68.782  0.00  0.00    +0.000 OA
ATOM      4  O   UNL     1      61.074  64.496  70.117  0.00  0.00    +0.000 OA
ATOM      5  C   UNL     1      61.010  63.704  70.338  0.00  0.00    +0.000 C 
ATOM      6  C   UNL     1      61.169  63.479  71.116  0.00  0.00    +0.000 C 
ATOM      7  C   UNL     1      61.105  62.686  71.337  0.00  0.00    +0.000 C 
ATOM      8  C   UNL     1      61.264  62.461  72.115  0.00  0.00    +0.000 C 
ATOM      9  C   UNL     1      61.486  63.028  72.672  0.00  0.00    +0.000 C 
ATOM     10  C   UNL     1      61.549  63.820  72.450  0.00  0.00    +0.000 C 
ATOM     11  N   UNL     1      61.391  64.046  71.673  0.00  0.00    +0.000 NA
ATOM     12  C   UNL     1      60.789  63.137  69.782  0.00  0.00    +0.000 A 
ATOM     13  C   UNL     1      60.630  63.362  69.004  0.00  0.00    +0.000 A 
ATOM     14  C   UNL     1      60.408  62.795  68.447  0.00  0.00    +0.000 A 
ATOM     15  C   UNL     1      60.345  62.002  68.668  0.00  0.00    +0.000 A 
ATOM     16  C   UNL     1      60.503  61.777  69.446  0.00  0.00    +0.000 A 
ATOM     17  C   UNL     1      60.725  62.345  70.002  0.00  0.00    +0.000 A 
ENDROOT
TORSDOF 0
ENDMDL
MODEL 7
REMARK VINA RESULT:    -8.372      2.991      4.773
REMARK INTER + INTRA:          -8.372
REMARK INTER:                  -8.372
REMARK INTRA:                   0.000
REMARK UNBOUND:                 0.000
ROOT
REMARK  Name = levofacetoperane
REMARK                            x       y       z     vdW  Elec       q    Type
REMARK                         _______ _______ _______ _____ _____    ______ ____
ATOM      1  C   UNL     1      60.307  62.377  67.586  0.00  0.00    +0.000 C 
ATOM      2  C   UNL     1      60.343  62.584  68.384  0.00  0.00    +0.000 C 
ATOM      3  O   UNL     1      60.526  62.012  68.949  0.00  0.00    +0.000 OA
ATOM      4  O   UNL     1      60.196  63.362  68.616  0.00  0.00    +0.000 OA
ATOM      5  C   UNL     1      60.233  63.568  69.413  0.00  0.00    +0.000 C 
ATOM      6  C   UNL     1      60.086  64.347  69.645  0.00  0.00    +0.000 C 
ATOM      7  C   UNL     1      60.123  64.552  70.444  0.00  0.00    +0.000 C 
ATOM      8  C   UNL     1      59.977  65.330  70.676  0.00  0.00    +0.000 C 
ATOM      9  C   UNL     1      59.794  65.903  70.110  0.00  0.00    +0.000 C 
ATOM     10  C   UNL     1      59.758  65.696  69.312  0.00  0.00    +0.000 C 
ATOM     11  N   UNL     1      59.904  64.918  69.080  0.00  0.00    +0.000 NA
ATOM     12  C   UNL     1      60.416  62.996  69.980  0.00  0.00    +0.000 A 
ATOM     13  C   UNL     1      60.562  62.218  69.747  0.00  0.00    +0.000 A 
ATOM     14  C   UNL     1      60.745  61.646  70.313  0.00  0.00    +0.000 A 
ATOM     15  C   UNL     1      60.781  61.852  71.111  0.00  0.00    +0.000 A 
ATOM     16  C   UNL     1      60.635  62.630  71.344  0.00  0.00    +0.000 A 
ATOM     17  C   UNL     1      60.452  63.202  70.777  0.00  0.00    +0.000 A 
ENDROOT
TORSDOF 0
ENDMDL
MODEL 8
REMARK VINA RESULT:    -8.153      4.055      5.535
REMARK INTER + INTRA:          -8.153
REMARK INTER:                  -8.153
REMARK INTRA:                   0.000
REMARK UNBOUND:                 0.000
ROOT
REMARK  Name = levofacetoperane
REMARK                            x       y       z     vdW  Elec       q    Type
REMARK                         _______ _______ _______ _____ _____    ______ ____
ATOM      1  C   UNL     1      59.818  66.151  69.177  0.00  0.00    +0.000 C 
ATOM      2  C   UNL     1      59.775  65.678  69.851  0.00  0.00    +0.000 C 
ATOM      3  O   UNL     1      59.501  65.996  70.561  0.00  0.00    +0.000 OA
ATOM      4  O   UNL     1      60.007  64.887  69.816  0.00  0.00    +0.000 OA
ATOM      5  C   UNL     1      59.964  64.414  70.490  0.00  0.00    +0.000 C 
ATOM      6  C   UNL     1      60.196  63.623  70.455  0.00  0.00    +0.000 C 
ATOM      7  C   UNL     1      60.153  63.150  71.130  0.00  0.00    +0.000 C 
ATOM      8  C   UNL     1      60.385  62.359  71.094  0.00  0.00    +0.000 C 
ATOM      9  C   UNL     1      60.660  62.041  70.384  0.00  0.00    +0.000 C 
ATOM     10  C   UNL     1      60.703  62.514  69.710  0.00  0.00    +0.000 C 
ATOM     11  N   UNL     1      60.471  63.305  69.745  0.00  0.00    +0.000 NA
ATOM     12  C   UNL     1      59.690  64.732  71.200  0.00  0.00    +0.000 A 
ATOM     13  C   UNL     1      59.458  65.523  71.236  0.00  0.00    +0.000 A 
ATOM     14  C   UNL     1      59.183  65.842  71.945  0.00  0.00    +0.000 A 
ATOM     15  C   UNL     1      59.140  65.368  72.620  0.00  0.00    +0.000 A 
ATOM     16  C   UNL     1      59.372  64.577  72.585  0.00  0.00    +0.000 A 
ATOM     17  C   UNL     1      59.647  64.260  71.875  0.00  0.00    +0.000 A 
ENDROOT
TORSDOF 0
ENDMDL
MODEL 9
REMARK VINA RESULT:    -8.060      5.560      6.968
REMARK INTER + INTRA:          -8.060
REMARK INTER:                  -8.060
REMARK INTRA:                   0.000
REMARK UNBOUND:                 0.000
ROOT
REMARK  Name = levofacetoperane
REMARK                            x       y       z     vdW  Elec       q    Type
REMARK                         _______ _______ _______ _____ _____    ______ ____
ATOM      1  C   UNL     1      63.588  64.464  70.075  0.00  0.00    +0.000 C 
ATOM      2  C   UNL     1      63.049  64.506  70.698  0.00  0.00    +0.000 C 
ATOM      3  O   UNL     1      62.671  63.822  70.962  0.00  0.00    +0.000 OA
ATOM      4  O   UNL     1      62.887  65.232  71.056  0.00  0.00    +0.000 OA
ATOM      5  C   UNL     1      62.348  65.273  71.679  0.00  0.00    +0.000 C 
ATOM      6  C   UNL     1      62.186  65.999  72.037  0.00  0.00    +0.000 C 
ATOM      7  C   UNL     1      61.646  66.040  72.660  0.00  0.00    +0.000 C 
ATOM      8  C   UNL     1      61.485  66.765  73.018  0.00  0.00    +0.000 C 
ATOM      9  C   UNL     1      61.863  67.450  72.754  0.00  0.00    +0.000 C 
ATOM     10  C   UNL     1      62.402  67.408  72.131  0.00  0.00    +0.000 C 
ATOM     11  N   UNL     1      62.564  66.682  71.773  0.00  0.00    +0.000 NA
ATOM     12  C   UNL     1      61.970  64.589  71.944  0.00  0.00    +0.000 A 
ATOM     13  C   UNL     1      62.131  63.864  71.585  0.00  0.00    +0.000 A 
ATOM     14  C   UNL     1      61.754  63.179  71.849  0.00  0.00    +0.000 A 
ATOM     15  C   UNL     1      61.214  63.221  72.473  0.00  0.00    +0.000 A 
ATOM     16  C   UNL     1      61.052  63.946  72.831  0.00  0.00    +0.000 A 
ATOM     17  C   UNL     1      61.431  64.630  72.566  0.00  0.00    +0.000 A 
ENDROOT
TORSDOF 0
ENDMDL
