MODEL 1
REMARK VINA RESULT:    -9.583      0.000      0.000
REMARK INTER + INTRA:          -9.583
REMARK INTER:                  -9.583
REMARK INTRA:                   0.000
REMARK UNBOUND:                 0.000
ROOT
REMARK  Name = lidocaine
REMARK                            x       y       z     vdW  Elec       q    Type
REMARK                         _______ _______ _______ _____ _____    ______ ____
ATOM      1  C   UNL     1      60.520  63.011  69.206  0.00  0.00    +0.000 C 
ATOM      2  C   UNL     1      60.322  62.552  68.549  0.00  0.00    +0.000 C 
ATOM      3  N   UNL     1      60.776  62.598  67.863  0.00  0.00    +0.000 NA
ATOM      4  C   UNL     1      61.428  63.103  67.831  0.00  0.00    +0.000 C 
ATOM      5  C   UNL     1      61.626  63.562  68.488  0.00  0.00    +0.000 C 
ATOM      6  C   UNL     1      60.578  62.139  67.206  0.00  0.00    +0.000 C 
ATOM      7  C   UNL     1      61.033  62.185  66.519  0.00  0.00    +0.000 C 
ATOM      8  O   UNL     1      61.684  62.690  66.489  0.00  0.00    +0.000 OA
ATOM      9  N   UNL     1      60.835  61.726  65.862  0.00  0.00    +0.000 NA
ATOM     10  C   UNL     1      61.289  61.772  65.176  0.00  0.00    +0.000 A 
ATOM     11  C   UNL     1      61.091  61.313  64.519  0.00  0.00    +0.000 A 
ATOM     12  C   UNL     1      60.440  60.808  64.549  0.00  0.00    +0.000 C 
ATOM     13  C   UNL     1      61.546  61.358  63.831  0.00  0.00    +0.000 A 
ATOM     14  C   UNL     1      62.198  61.863  63.801  0.00  0.00    +0.000 A 
ATOM     15  C   UNL     1      62.395  62.322  64.458  0.00  0.00    +0.000 A 
ATOM     16  C   UNL     1      61.941  62.276  65.144  0.00  0.00    +0.000 A 
ATOM     17  C   UNL     1      62.139  62.735  65.801  0.00  0.00    +0.000 C 
ENDROOT
TORSDOF 0
ENDMDL
MODEL 2
REMARK VINA RESULT:    -9.082      0.666      3.940
REMARK INTER + INTRA:          -9.082
REMARK INTER:                  -9.082
REMARK INTRA:                   0.000
REMARK UNBOUND:                 0.000
ROOT
REMARK  Name = lidocaine
REMARK                            x       y       z     vdW  Elec       q    Type
REMARK                         _______ _______ _______ _____ _____    ______ ____
ATOM      1  C   UNL     1      62.192  61.930  63.862  0.00  0.00    +0.000 C 
ATOM      2  C   UNL     1      62.319  62.383  64.540  0.00  0.00    +0.000 C 
ATOM      3  N   UNL     1      61.890  62.228  65.226  0.00  0.00    +0.000 NA
ATOM      4  C   UNL     1      61.333  61.620  65.236  0.00  0.00    +0.000 C 
ATOM      5  C   UNL     1      61.205  61.167  64.559  0.00  0.00    +0.000 C 
ATOM      6  C   UNL     1      62.017  62.682  65.903  0.00  0.00    +0.000 C 
ATOM      7  C   UNL     1      61.587  62.527  66.591  0.00  0.00    +0.000 C 
ATOM      8  O   UNL     1      61.031  61.918  66.600  0.00  0.00    +0.000 OA
ATOM      9  N   UNL     1      61.715  62.980  67.268  0.00  0.00    +0.000 NA
ATOM     10  C   UNL     1      61.285  62.825  67.955  0.00  0.00    +0.000 A 
ATOM     11  C   UNL     1      61.413  63.278  68.632  0.00  0.00    +0.000 A 
ATOM     12  C   UNL     1      61.970  63.887  68.623  0.00  0.00    +0.000 C 
ATOM     13  C   UNL     1      60.983  63.123  69.320  0.00  0.00    +0.000 A 
ATOM     14  C   UNL     1      60.426  62.515  69.329  0.00  0.00    +0.000 A 
ATOM     15  C   UNL     1      60.299  62.062  68.651  0.00  0.00    +0.000 A 
ATOM     16  C   UNL     1      60.728  62.217  67.965  0.00  0.00    +0.000 A 
ATOM     17  C   UNL     1      60.601  61.763  67.288  0.00  0.00    +0.000 C 
ENDROOT
TORSDOF 0
ENDMDL
MODEL 3
REMARK VINA RESULT:    -8.661      1.158      1.755
REMARK INTER + INTRA:          -8.661
REMARK INTER:                  -8.661
REMARK INTRA:                   0.000
REMARK UNBOUND:                 0.000
ROOT
REMARK  Name = lidocaine
REMARK                            x       y       z     vdW  Elec       q    Type
REMARK                         _______ _______ _______ _____ _____    ______ ____
ATOM      1  C   UNL     1      60.996  64.680  70.099  0.00  0.00    +0.000 C 
ATOM      2  C   UNL     1      60.483  64.300  69.577  0.00  0.00    +0.000 C 
ATOM      3  N   UNL     1      60.783  63.911  68.915  0.00  0.00    +0.000 NA
ATOM      4  C   UNL     1      61.596  63.902  68.773  0.00  0.00    +0.000 C 
ATOM      5  C   UNL     1      62.109  64.282  69.296  0.00  0.00    +0.000 C 
ATOM      6  C   UNL     1      60.270  63.530  68.392  0.00  0.00    +0.000 C 
ATOM      7  C   UNL     1      60.571  63.140  67.729  0.00  0.00    +0.000 C 
ATOM      8  O   UNL     1      61.383  63.132  67.589  0.00  0.00    +0.000 OA
ATOM      9  N   UNL     1      60.058  62.760  67.207  0.00  0.00    +0.000 NA
ATOM     10  C   UNL     1      60.358  62.371  66.545  0.00  0.00    +0.000 A 
ATOM     11  C   UNL     1      59.845  61.990  66.023  0.00  0.00    +0.000 A 
ATOM     12  C   UNL     1      59.032  61.998  66.163  0.00  0.00    +0.000 C 
ATOM     13  C   UNL     1      60.145  61.600  65.360  0.00  0.00    +0.000 A 
ATOM     14  C   UNL     1      60.958  61.592  65.220  0.00  0.00    +0.000 A 
ATOM     15  C   UNL     1      61.471  61.973  65.742  0.00  0.00    +0.000 A 
ATOM     16  C   UNL     1      61.171  62.362  66.404  0.00  0.00    +0.000 A 
ATOM     17  C   UNL     1      61.684  62.742  66.926  0.00  0.00    +0.000 C 
ENDROOT
TORSDOF 0
ENDMDL
MODEL 4
REMARK VINA RESULT:    -8.658      4.694      6.974
REMARK INTER + INTRA:          -8.658
REMARK INTER:                  -8.658
REMARK INTRA:                   0.000
REMARK UNBOUND:                 0.000
ROOT
REMARK  Name = lidocaine
REMARK                            x       y       z     vdW  Elec       q    Type
REMARK                         _______ _______ _______ _____ _____    ______ ____
ATOM      1  C   UNL     1      62.004  63.542  70.365  0.00  0.00    +0.000 C 
ATOM      2  C   UNL     1      62.543  63.937  70.850  0.00  0.00    +0.000 C 
ATOM      3  N   UNL     1      63.053  64.499  70.528  0.00  0.00    +0.000 NA
ATOM      4  C   UNL     1      63.025  64.667  69.720  0.00  0.00    +0.000 C 
ATOM      5  C   UNL     1      62.486  64.272  69.236  0.00  0.00    +0.000 C 
ATOM      6  C   UNL     1      63.591  64.893  71.012  0.00  0.00    +0.000 C 
ATOM      7  C   UNL     1      64.102  65.456  70.690  0.00  0.00    +0.000 C 
ATOM      8  O   UNL     1      64.073  65.623  69.882  0.00  0.00    +0.000 OA
ATOM      9  N   UNL     1      64.640  65.851  71.174  0.00  0.00    +0.000 NA
ATOM     10  C   UNL     1      65.150  66.412  70.852  0.00  0.00    +0.000 A 
ATOM     11  C   UNL     1      65.689  66.807  71.337  0.00  0.00    +0.000 A 
ATOM     12  C   UNL     1      65.717  66.640  72.144  0.00  0.00    +0.000 C 
ATOM     13  C   UNL     1      66.200  67.370  71.014  0.00  0.00    +0.000 A 
ATOM     14  C   UNL     1      66.171  67.537  70.207  0.00  0.00    +0.000 A 
ATOM     15  C   UNL     1      65.632  67.142  69.722  0.00  0.00    +0.000 A 
ATOM     16  C   UNL     1      65.123  66.581  70.044  0.00  0.00    +0.000 A 
ATOM     17  C   UNL     1      64.584  66.186  69.560  0.00  0.00    +0.000 C 
ENDROOT
TORSDOF 0
ENDMDL
MODEL 5
REMARK VINA RESULT:    -8.576      2.656      5.532
REMARK INTER + INTRA:          -8.576
REMARK INTER:                  -8.576
REMARK INTRA:                   0.000
REMARK UNBOUND:                 0.000
ROOT
REMARK  Name = lidocaine
REMARK                            x       y       z     vdW  Elec       q    Type
REMARK                         _______ _______ _______ _____ _____    ______ ____
ATOM      1  C   UNL     1      60.067  62.437  67.324  0.00  0.00    +0.000 C 
ATOM      2  C   UNL     1      60.393  62.031  67.964  0.00  0.00    +0.000 C 
ATOM      3  N   UNL     1      60.483  62.411  68.690  0.00  0.00    +0.000 NA
ATOM      4  C   UNL     1      60.246  63.197  68.778  0.00  0.00    +0.000 C 
ATOM      5  C   UNL     1      59.920  63.602  68.138  0.00  0.00    +0.000 C 
ATOM      6  C   UNL     1      60.810  62.006  69.331  0.00  0.00    +0.000 C 
ATOM      7  C   UNL     1      60.900  62.387  70.058  0.00  0.00    +0.000 C 
ATOM      8  O   UNL     1      60.662  63.172  70.144  0.00  0.00    +0.000 OA
ATOM      9  N   UNL     1      61.226  61.982  70.698  0.00  0.00    +0.000 NA
ATOM     10  C   UNL     1      61.316  62.362  71.424  0.00  0.00    +0.000 A 
ATOM     11  C   UNL     1      61.642  61.956  72.064  0.00  0.00    +0.000 A 
ATOM     12  C   UNL     1      61.880  61.171  71.978  0.00  0.00    +0.000 C 
ATOM     13  C   UNL     1      61.732  62.337  72.791  0.00  0.00    +0.000 A 
ATOM     14  C   UNL     1      61.495  63.122  72.877  0.00  0.00    +0.000 A 
ATOM     15  C   UNL     1      61.169  63.527  72.237  0.00  0.00    +0.000 A 
ATOM     16  C   UNL     1      61.079  63.147  71.511  0.00  0.00    +0.000 A 
ATOM     17  C   UNL     1      60.752  63.553  70.871  0.00  0.00    +0.000 C 
ENDROOT
TORSDOF 0
ENDMDL
MODEL 6
REMARK VINA RESULT:    -8.522      3.499      5.019
REMARK INTER + INTRA:          -8.522
REMARK INTER:                  -8.522
REMARK INTRA:                   0.000
REMARK UNBOUND:                 0.000
ROOT
REMARK  Name = lidocaine
REMARK                            x       y       z     vdW  Elec       q    Type
REMARK                         _______ _______ _______ _____ _____    ______ ____
ATOM      1  C   UNL     1      59.612  67.181  69.404  0.00  0.00    +0.000 C 
ATOM      2  C   UNL     1      59.760  66.440  69.074  0.00  0.00    +0.000 C 
ATOM      3  N   UNL     1      59.863  65.784  69.563  0.00  0.00    +0.000 NA
ATOM      4  C   UNL     1      59.819  65.869  70.383  0.00  0.00    +0.000 C 
ATOM      5  C   UNL     1      59.670  66.610  70.713  0.00  0.00    +0.000 C 
ATOM      6  C   UNL     1      60.012  65.043  69.233  0.00  0.00    +0.000 C 
ATOM      7  C   UNL     1      60.115  64.386  69.722  0.00  0.00    +0.000 C 
ATOM      8  O   UNL     1      60.070  64.472  70.541  0.00  0.00    +0.000 OA
ATOM      9  N   UNL     1      60.263  63.645  69.392  0.00  0.00    +0.000 NA
ATOM     10  C   UNL     1      60.366  62.989  69.881  0.00  0.00    +0.000 A 
ATOM     11  C   UNL     1      60.515  62.248  69.551  0.00  0.00    +0.000 A 
ATOM     12  C   UNL     1      60.560  62.162  68.732  0.00  0.00    +0.000 C 
ATOM     13  C   UNL     1      60.618  61.591  70.041  0.00  0.00    +0.000 A 
ATOM     14  C   UNL     1      60.573  61.677  70.860  0.00  0.00    +0.000 A 
ATOM     15  C   UNL     1      60.425  62.418  71.190  0.00  0.00    +0.000 A 
ATOM     16  C   UNL     1      60.322  63.074  70.701  0.00  0.00    +0.000 A 
ATOM     17  C   UNL     1      60.173  63.815  71.031  0.00  0.00    +0.000 C 
ENDROOT
TORSDOF 0
ENDMDL
MODEL 7
REMARK VINA RESULT:    -8.444      3.519      5.063
REMARK INTER + INTRA:          -8.444
REMARK INTER:                  -8.444
REMARK INTRA:                   0.000
REMARK UNBOUND:                 0.000
ROOT
REMARK  Name = lidocaine
REMARK                            x       y       z     vdW  Elec       q    Type
REMARK                         _______ _______ _______ _____ _____    ______ ____
ATOM      1  C   UNL     1      64.179  66.053  69.934  0.00  0.00    +0.000 C 
ATOM      2  C   UNL     1      63.651  65.561  69.535  0.00  0.00    +0.000 C 
ATOM      3  N   UNL     1      63.220  64.996  69.953  0.00  0.00    +0.000 NA
ATOM      4  C   UNL     1      63.316  64.922  70.769  0.00  0.00    +0.000 C 
ATOM      5  C   UNL     1      63.845  65.414  71.167  0.00  0.00    +0.000 C 
ATOM      6  C   UNL     1      62.691  64.503  69.554  0.00  0.00    +0.000 C 
ATOM      7  C   UNL     1      62.259  63.937  69.972  0.00  0.00    +0.000 C 
ATOM      8  O   UNL     1      62.357  63.864  70.788  0.00  0.00    +0.000 OA
ATOM      9  N   UNL     1      61.731  63.444  69.573  0.00  0.00    +0.000 NA
ATOM     10  C   UNL     1      61.300  62.879  69.990  0.00  0.00    +0.000 A 
ATOM     11  C   UNL     1      60.771  62.387  69.592  0.00  0.00    +0.000 A 
ATOM     12  C   UNL     1      60.674  62.459  68.776  0.00  0.00    +0.000 C 
ATOM     13  C   UNL     1      60.339  61.820  70.010  0.00  0.00    +0.000 A 
ATOM     14  C   UNL     1      60.437  61.748  70.825  0.00  0.00    +0.000 A 
ATOM     15  C   UNL     1      60.965  62.240  71.224  0.00  0.00    +0.000 A 
ATOM     16  C   UNL     1      61.396  62.805  70.807  0.00  0.00    +0.000 A 
ATOM     17  C   UNL     1      61.925  63.298  71.205  0.00  0.00    +0.000 C 
ENDROOT
TORSDOF 0
ENDMDL
MODEL 8
REMARK VINA RESULT:    -8.384      5.217      6.606
REMARK INTER + INTRA:          -8.384
REMARK INTER:                  -8.384
REMARK INTRA:                   0.000
REMARK UNBOUND:                 0.000
ROOT
REMARK  Name = lidocaine
REMARK                            x       y       z     vdW  Elec       q    Type
REMARK                         _______ _______ _______ _____ _____    ______ ____
ATOM      1  C   UNL     1      58.926  67.072  72.190  0.00  0.00    +0.000 C 
ATOM      2  C   UNL     1      59.004  66.362  71.776  0.00  0.00    +0.000 C 
ATOM      3  N   UNL     1      59.514  65.777  72.052  0.00  0.00    +0.000 NA
ATOM      4  C   UNL     1      59.948  65.900  72.744  0.00  0.00    +0.000 C 
ATOM      5  C   UNL     1      59.870  66.609  73.158  0.00  0.00    +0.000 C 
ATOM      6  C   UNL     1      59.592  65.068  71.638  0.00  0.00    +0.000 C 
ATOM      7  C   UNL     1      60.103  64.481  71.915  0.00  0.00    +0.000 C 
ATOM      8  O   UNL     1      60.535  64.605  72.606  0.00  0.00    +0.000 OA
ATOM      9  N   UNL     1      60.180  63.772  71.501  0.00  0.00    +0.000 NA
ATOM     10  C   UNL     1      60.690  63.187  71.778  0.00  0.00    +0.000 A 
ATOM     11  C   UNL     1      60.768  62.478  71.363  0.00  0.00    +0.000 A 
ATOM     12  C   UNL     1      60.335  62.354  70.672  0.00  0.00    +0.000 C 
ATOM     13  C   UNL     1      61.279  61.891  71.640  0.00  0.00    +0.000 A 
ATOM     14  C   UNL     1      61.712  62.015  72.332  0.00  0.00    +0.000 A 
ATOM     15  C   UNL     1      61.634  62.725  72.746  0.00  0.00    +0.000 A 
ATOM     16  C   UNL     1      61.124  63.310  72.469  0.00  0.00    +0.000 A 
ATOM     17  C   UNL     1      61.046  64.019  72.883  0.00  0.00    +0.000 C 
ENDROOT
TORSDOF 0
ENDMDL
MODEL 9
REMARK VINA RESULT:    -8.282      5.446      6.569
REMARK INTER + INTRA:          -8.282
REMARK INTER:                  -8.282
REMARK INTRA:                   0.000
REMARK UNBOUND:                 0.000
ROOT
REMARK  Name = lidocaine
REMARK                            x       y       z     vdW  Elec       q    Type
REMARK                         _______ _______ _______ _____ _____    ______ ____
ATOM      1  C   UNL     1      64.907  66.432  69.868  0.00  0.00    +0.000 C 
ATOM      2  C   UNL     1      64.322  66.376  70.447  0.00  0.00    +0.000 C 
ATOM      3  N   UNL     1      63.900  65.674  70.539  0.00  0.00    +0.000 NA
ATOM      4  C   UNL     1      64.062  65.027  70.053  0.00  0.00    +0.000 C 
ATOM      5  C   UNL     1      64.647  65.083  69.474  0.00  0.00    +0.000 C 
ATOM      6  C   UNL     1      63.314  65.618  71.118  0.00  0.00    +0.000 C 
ATOM      7  C   UNL     1      62.891  64.915  71.210  0.00  0.00    +0.000 C 
ATOM      8  O   UNL     1      63.054  64.269  70.723  0.00  0.00    +0.000 OA
ATOM      9  N   UNL     1      62.306  64.858  71.789  0.00  0.00    +0.000 NA
ATOM     10  C   UNL     1      61.884  64.157  71.881  0.00  0.00    +0.000 A 
ATOM     11  C   UNL     1      61.298  64.100  72.460  0.00  0.00    +0.000 A 
ATOM     12  C   UNL     1      61.135  64.746  72.946  0.00  0.00    +0.000 C 
ATOM     13  C   UNL     1      60.875  63.397  72.552  0.00  0.00    +0.000 A 
ATOM     14  C   UNL     1      61.038  62.752  72.065  0.00  0.00    +0.000 A 
ATOM     15  C   UNL     1      61.623  62.808  71.487  0.00  0.00    +0.000 A 
ATOM     16  C   UNL     1      62.046  63.510  71.395  0.00  0.00    +0.000 A 
ATOM     17  C   UNL     1      62.631  63.566  70.816  0.00  0.00    +0.000 C 
ENDROOT
TORSDOF 0
ENDMDL
