MODEL 1
REMARK VINA RESULT:   -15.528      0.000      0.000
REMARK INTER + INTRA:         -15.528
REMARK INTER:                 -15.528
REMARK INTRA:                   0.000
REMARK UNBOUND:                 0.000
ROOT
REMARK  Name = linagliptin
REMARK                            x       y       z     vdW  Elec       q    Type
REMARK                         _______ _______ _______ _____ _____    ______ ____
ATOM      1  C   UNL     1      62.252  65.331  72.151  0.00  0.00    +0.000 C 
ATOM      2  C   UNL     1      62.216  64.996  71.398  0.00  0.00    +0.000 C 
ATOM      3  C   UNL     1      62.181  64.661  70.645  0.00  0.00    +0.000 C 
ATOM      4  C   UNL     1      62.144  64.325  69.892  0.00  0.00    +0.000 C 
ATOM      5  N   UNL     1      61.522  63.821  69.694  0.00  0.00    +0.000 N 
ATOM      6  C   UNL     1      60.900  63.602  70.189  0.00  0.00    +0.000 A 
ATOM      7  N   UNL     1      60.407  63.092  69.768  0.00  0.00    +0.000 NA
ATOM      8  C   UNL     1      60.723  62.996  69.012  0.00  0.00    +0.000 A 
ATOM      9  C   UNL     1      61.414  63.447  68.967  0.00  0.00    +0.000 A 
ATOM     10  C   UNL     1      61.854  63.458  68.269  0.00  0.00    +0.000 A 
ATOM     11  O   UNL     1      62.543  63.908  68.224  0.00  0.00    +0.000 OA
ATOM     12  N   UNL     1      61.604  63.019  67.618  0.00  0.00    +0.000 N 
ATOM     13  C   UNL     1      62.044  63.030  66.919  0.00  0.00    +0.000 C 
ATOM     14  C   UNL     1      61.794  62.591  66.266  0.00  0.00    +0.000 A 
ATOM     15  N   UNL     1      62.234  62.602  65.569  0.00  0.00    +0.000 NA
ATOM     16  C   UNL     1      61.985  62.164  64.917  0.00  0.00    +0.000 A 
ATOM     17  C   UNL     1      62.424  62.175  64.219  0.00  0.00    +0.000 A 
ATOM     18  C   UNL     1      62.175  61.736  63.567  0.00  0.00    +0.000 A 
ATOM     19  C   UNL     1      61.484  61.285  63.613  0.00  0.00    +0.000 A 
ATOM     20  C   UNL     1      61.045  61.274  64.310  0.00  0.00    +0.000 A 
ATOM     21  C   UNL     1      61.294  61.713  64.963  0.00  0.00    +0.000 A 
ATOM     22  C   UNL     1      60.855  61.702  65.660  0.00  0.00    +0.000 A 
ATOM     23  C   UNL     1      60.165  61.251  65.706  0.00  0.00    +0.000 C 
ATOM     24  N   UNL     1      61.104  62.140  66.312  0.00  0.00    +0.000 NA
ATOM     25  C   UNL     1      60.914  62.568  67.663  0.00  0.00    +0.000 A 
ATOM     26  O   UNL     1      60.664  62.129  67.010  0.00  0.00    +0.000 OA
ATOM     27  N   UNL     1      60.474  62.557  68.360  0.00  0.00    +0.000 N 
ATOM     28  C   UNL     1      59.784  62.107  68.406  0.00  0.00    +0.000 C 
ATOM     29  N   UNL     1      60.790  63.849  70.969  0.00  0.00    +0.000 N 
ATOM     30  C   UNL     1      60.137  63.582  71.399  0.00  0.00    +0.000 C 
ATOM     31  C   UNL     1      60.027  63.829  72.178  0.00  0.00    +0.000 C 
ATOM     32  C   UNL     1      60.570  64.343  72.528  0.00  0.00    +0.000 C 
ATOM     33  C   UNL     1      61.222  64.609  72.099  0.00  0.00    +0.000 C 
ATOM     34  N   UNL     1      61.765  65.123  72.449  0.00  0.00    +0.000 NA
ATOM     35  C   UNL     1      61.332  64.362  71.320  0.00  0.00    +0.000 C 
ENDROOT
TORSDOF 0
ENDMDL
MODEL 2
REMARK VINA RESULT:   -15.076      1.008      6.169
REMARK INTER + INTRA:         -15.076
REMARK INTER:                 -15.076
REMARK INTRA:                   0.000
REMARK UNBOUND:                 0.000
ROOT
REMARK  Name = linagliptin
REMARK                            x       y       z     vdW  Elec       q    Type
REMARK                         _______ _______ _______ _____ _____    ______ ____
ATOM      1  C   UNL     1      60.056  61.251  64.831  0.00  0.00    +0.000 C 
ATOM      2  C   UNL     1      60.066  61.625  65.567  0.00  0.00    +0.000 C 
ATOM      3  C   UNL     1      60.075  62.000  66.302  0.00  0.00    +0.000 C 
ATOM      4  C   UNL     1      60.085  62.374  67.037  0.00  0.00    +0.000 C 
ATOM      5  N   UNL     1      60.770  62.754  67.297  0.00  0.00    +0.000 N 
ATOM      6  C   UNL     1      61.482  62.805  66.885  0.00  0.00    +0.000 A 
ATOM      7  N   UNL     1      62.014  63.232  67.349  0.00  0.00    +0.000 NA
ATOM      8  C   UNL     1      61.631  63.446  68.048  0.00  0.00    +0.000 A 
ATOM      9  C   UNL     1      60.860  63.150  68.016  0.00  0.00    +0.000 A 
ATOM     10  C   UNL     1      60.343  63.279  68.644  0.00  0.00    +0.000 A 
ATOM     11  O   UNL     1      59.573  62.983  68.613  0.00  0.00    +0.000 OA
ATOM     12  N   UNL     1      60.594  63.703  69.305  0.00  0.00    +0.000 N 
ATOM     13  C   UNL     1      60.076  63.833  69.934  0.00  0.00    +0.000 C 
ATOM     14  C   UNL     1      60.327  64.258  70.596  0.00  0.00    +0.000 A 
ATOM     15  N   UNL     1      59.810  64.387  71.224  0.00  0.00    +0.000 NA
ATOM     16  C   UNL     1      60.061  64.812  71.885  0.00  0.00    +0.000 A 
ATOM     17  C   UNL     1      59.543  64.941  72.514  0.00  0.00    +0.000 A 
ATOM     18  C   UNL     1      59.795  65.366  73.175  0.00  0.00    +0.000 A 
ATOM     19  C   UNL     1      60.565  65.662  73.207  0.00  0.00    +0.000 A 
ATOM     20  C   UNL     1      61.083  65.532  72.578  0.00  0.00    +0.000 A 
ATOM     21  C   UNL     1      60.832  65.108  71.917  0.00  0.00    +0.000 A 
ATOM     22  C   UNL     1      61.349  64.978  71.288  0.00  0.00    +0.000 A 
ATOM     23  C   UNL     1      62.119  65.274  71.320  0.00  0.00    +0.000 C 
ATOM     24  N   UNL     1      61.098  64.554  70.628  0.00  0.00    +0.000 NA
ATOM     25  C   UNL     1      61.364  63.999  69.337  0.00  0.00    +0.000 A 
ATOM     26  O   UNL     1      61.615  64.424  69.998  0.00  0.00    +0.000 OA
ATOM     27  N   UNL     1      61.882  63.870  68.708  0.00  0.00    +0.000 N 
ATOM     28  C   UNL     1      62.651  64.166  68.740  0.00  0.00    +0.000 C 
ATOM     29  N   UNL     1      61.636  62.485  66.141  0.00  0.00    +0.000 N 
ATOM     30  C   UNL     1      62.380  62.581  65.796  0.00  0.00    +0.000 C 
ATOM     31  C   UNL     1      62.534  62.261  65.051  0.00  0.00    +0.000 C 
ATOM     32  C   UNL     1      61.944  61.845  64.651  0.00  0.00    +0.000 C 
ATOM     33  C   UNL     1      61.201  61.749  64.996  0.00  0.00    +0.000 C 
ATOM     34  N   UNL     1      60.611  61.334  64.596  0.00  0.00    +0.000 NA
ATOM     35  C   UNL     1      61.047  62.069  65.740  0.00  0.00    +0.000 C 
ENDROOT
TORSDOF 0
ENDMDL
MODEL 3
REMARK VINA RESULT:   -14.984      0.869      1.188
REMARK INTER + INTRA:         -14.984
REMARK INTER:                 -14.984
REMARK INTRA:                   0.000
REMARK UNBOUND:                 0.000
ROOT
REMARK  Name = linagliptin
REMARK                            x       y       z     vdW  Elec       q    Type
REMARK                         _______ _______ _______ _____ _____    ______ ____
ATOM      1  C   UNL     1      63.143  66.237  72.409  0.00  0.00    +0.000 C 
ATOM      2  C   UNL     1      62.974  65.820  71.717  0.00  0.00    +0.000 C 
ATOM      3  C   UNL     1      62.807  65.405  71.024  0.00  0.00    +0.000 C 
ATOM      4  C   UNL     1      62.639  64.988  70.332  0.00  0.00    +0.000 C 
ATOM      5  N   UNL     1      61.895  64.646  70.226  0.00  0.00    +0.000 N 
ATOM      6  C   UNL     1      61.269  64.673  70.762  0.00  0.00    +0.000 A 
ATOM      7  N   UNL     1      60.635  64.260  70.433  0.00  0.00    +0.000 NA
ATOM      8  C   UNL     1      60.870  63.977  69.694  0.00  0.00    +0.000 A 
ATOM      9  C   UNL     1      61.650  64.216  69.566  0.00  0.00    +0.000 A 
ATOM     10  C   UNL     1      62.034  64.011  68.866  0.00  0.00    +0.000 A 
ATOM     11  O   UNL     1      62.813  64.249  68.738  0.00  0.00    +0.000 OA
ATOM     12  N   UNL     1      61.640  63.567  68.294  0.00  0.00    +0.000 N 
ATOM     13  C   UNL     1      62.024  63.362  67.593  0.00  0.00    +0.000 C 
ATOM     14  C   UNL     1      61.629  62.918  67.020  0.00  0.00    +0.000 A 
ATOM     15  N   UNL     1      62.013  62.713  66.320  0.00  0.00    +0.000 NA
ATOM     16  C   UNL     1      61.619  62.270  65.748  0.00  0.00    +0.000 A 
ATOM     17  C   UNL     1      62.003  62.065  65.047  0.00  0.00    +0.000 A 
ATOM     18  C   UNL     1      61.609  61.621  64.474  0.00  0.00    +0.000 A 
ATOM     19  C   UNL     1      60.829  61.382  64.602  0.00  0.00    +0.000 A 
ATOM     20  C   UNL     1      60.445  61.587  65.302  0.00  0.00    +0.000 A 
ATOM     21  C   UNL     1      60.839  62.031  65.876  0.00  0.00    +0.000 A 
ATOM     22  C   UNL     1      60.455  62.236  66.576  0.00  0.00    +0.000 A 
ATOM     23  C   UNL     1      59.676  61.997  66.703  0.00  0.00    +0.000 C 
ATOM     24  N   UNL     1      60.849  62.679  67.148  0.00  0.00    +0.000 NA
ATOM     25  C   UNL     1      60.859  63.329  68.422  0.00  0.00    +0.000 A 
ATOM     26  O   UNL     1      60.465  62.885  67.849  0.00  0.00    +0.000 OA
ATOM     27  N   UNL     1      60.475  63.534  69.122  0.00  0.00    +0.000 N 
ATOM     28  C   UNL     1      59.696  63.295  69.250  0.00  0.00    +0.000 C 
ATOM     29  N   UNL     1      61.275  65.047  71.497  0.00  0.00    +0.000 N 
ATOM     30  C   UNL     1      60.602  65.028  71.976  0.00  0.00    +0.000 C 
ATOM     31  C   UNL     1      60.608  65.403  72.711  0.00  0.00    +0.000 C 
ATOM     32  C   UNL     1      61.286  65.796  72.967  0.00  0.00    +0.000 C 
ATOM     33  C   UNL     1      61.958  65.816  72.489  0.00  0.00    +0.000 C 
ATOM     34  N   UNL     1      62.636  66.210  72.746  0.00  0.00    +0.000 NA
ATOM     35  C   UNL     1      61.952  65.441  71.754  0.00  0.00    +0.000 C 
ENDROOT
TORSDOF 0
ENDMDL
MODEL 4
REMARK VINA RESULT:   -14.754      1.796      2.138
REMARK INTER + INTRA:         -14.754
REMARK INTER:                 -14.754
REMARK INTRA:                   0.000
REMARK UNBOUND:                 0.000
ROOT
REMARK  Name = linagliptin
REMARK                            x       y       z     vdW  Elec       q    Type
REMARK                         _______ _______ _______ _____ _____    ______ ____
ATOM      1  C   UNL     1      59.107  67.624  71.746  0.00  0.00    +0.000 C 
ATOM      2  C   UNL     1      59.359  67.101  71.160  0.00  0.00    +0.000 C 
ATOM      3  C   UNL     1      59.611  66.579  70.573  0.00  0.00    +0.000 C 
ATOM      4  C   UNL     1      59.863  66.056  69.987  0.00  0.00    +0.000 C 
ATOM      5  N   UNL     1      59.920  65.249  70.150  0.00  0.00    +0.000 N 
ATOM      6  C   UNL     1      59.744  64.887  70.869  0.00  0.00    +0.000 A 
ATOM      7  N   UNL     1      59.877  64.077  70.786  0.00  0.00    +0.000 NA
ATOM      8  C   UNL     1      60.136  63.938  70.015  0.00  0.00    +0.000 A 
ATOM      9  C   UNL     1      60.162  64.664  69.621  0.00  0.00    +0.000 A 
ATOM     10  C   UNL     1      60.403  64.697  68.833  0.00  0.00    +0.000 A 
ATOM     11  O   UNL     1      60.429  65.422  68.440  0.00  0.00    +0.000 OA
ATOM     12  N   UNL     1      60.618  64.006  68.439  0.00  0.00    +0.000 N 
ATOM     13  C   UNL     1      60.859  64.038  67.650  0.00  0.00    +0.000 C 
ATOM     14  C   UNL     1      61.074  63.347  67.254  0.00  0.00    +0.000 A 
ATOM     15  N   UNL     1      61.315  63.380  66.467  0.00  0.00    +0.000 NA
ATOM     16  C   UNL     1      61.530  62.689  66.072  0.00  0.00    +0.000 A 
ATOM     17  C   UNL     1      61.772  62.721  65.284  0.00  0.00    +0.000 A 
ATOM     18  C   UNL     1      61.986  62.030  64.889  0.00  0.00    +0.000 A 
ATOM     19  C   UNL     1      61.960  61.304  65.282  0.00  0.00    +0.000 A 
ATOM     20  C   UNL     1      61.719  61.271  66.070  0.00  0.00    +0.000 A 
ATOM     21  C   UNL     1      61.504  61.963  66.466  0.00  0.00    +0.000 A 
ATOM     22  C   UNL     1      61.263  61.930  67.253  0.00  0.00    +0.000 A 
ATOM     23  C   UNL     1      61.236  61.205  67.647  0.00  0.00    +0.000 C 
ATOM     24  N   UNL     1      61.048  62.621  67.648  0.00  0.00    +0.000 NA
ATOM     25  C   UNL     1      60.592  63.280  68.832  0.00  0.00    +0.000 A 
ATOM     26  O   UNL     1      60.807  62.589  68.437  0.00  0.00    +0.000 OA
ATOM     27  N   UNL     1      60.350  63.247  69.620  0.00  0.00    +0.000 N 
ATOM     28  C   UNL     1      60.324  62.523  70.013  0.00  0.00    +0.000 C 
ATOM     29  N   UNL     1      59.480  65.267  71.553  0.00  0.00    +0.000 N 
ATOM     30  C   UNL     1      59.326  64.829  72.235  0.00  0.00    +0.000 C 
ATOM     31  C   UNL     1      59.062  65.209  72.919  0.00  0.00    +0.000 C 
ATOM     32  C   UNL     1      58.953  66.027  72.919  0.00  0.00    +0.000 C 
ATOM     33  C   UNL     1      59.108  66.465  72.237  0.00  0.00    +0.000 C 
ATOM     34  N   UNL     1      58.999  67.283  72.238  0.00  0.00    +0.000 NA
ATOM     35  C   UNL     1      59.371  66.084  71.554  0.00  0.00    +0.000 C 
ENDROOT
TORSDOF 0
ENDMDL
MODEL 5
REMARK VINA RESULT:   -14.595      1.296      5.900
REMARK INTER + INTRA:         -14.595
REMARK INTER:                 -14.595
REMARK INTRA:                   0.000
REMARK UNBOUND:                 0.000
ROOT
REMARK  Name = linagliptin
REMARK                            x       y       z     vdW  Elec       q    Type
REMARK                         _______ _______ _______ _____ _____    ______ ____
ATOM      1  C   UNL     1      61.405  61.635  65.142  0.00  0.00    +0.000 C 
ATOM      2  C   UNL     1      61.565  62.100  65.805  0.00  0.00    +0.000 C 
ATOM      3  C   UNL     1      61.726  62.565  66.467  0.00  0.00    +0.000 C 
ATOM      4  C   UNL     1      61.885  63.030  67.130  0.00  0.00    +0.000 C 
ATOM      5  N   UNL     1      61.272  63.257  67.633  0.00  0.00    +0.000 N 
ATOM      6  C   UNL     1      60.475  63.063  67.543  0.00  0.00    +0.000 A 
ATOM      7  N   UNL     1      60.059  63.405  68.168  0.00  0.00    +0.000 NA
ATOM      8  C   UNL     1      60.597  63.810  68.644  0.00  0.00    +0.000 A 
ATOM      9  C   UNL     1      61.348  63.719  68.312  0.00  0.00    +0.000 A 
ATOM     10  C   UNL     1      62.003  64.068  68.672  0.00  0.00    +0.000 A 
ATOM     11  O   UNL     1      62.753  63.977  68.341  0.00  0.00    +0.000 OA
ATOM     12  N   UNL     1      61.908  64.508  69.362  0.00  0.00    +0.000 N 
ATOM     13  C   UNL     1      62.563  64.858  69.723  0.00  0.00    +0.000 C 
ATOM     14  C   UNL     1      62.468  65.298  70.414  0.00  0.00    +0.000 A 
ATOM     15  N   UNL     1      63.123  65.647  70.774  0.00  0.00    +0.000 NA
ATOM     16  C   UNL     1      63.028  66.087  71.465  0.00  0.00    +0.000 A 
ATOM     17  C   UNL     1      63.683  66.437  71.825  0.00  0.00    +0.000 A 
ATOM     18  C   UNL     1      63.588  66.877  72.516  0.00  0.00    +0.000 A 
ATOM     19  C   UNL     1      62.837  66.968  72.848  0.00  0.00    +0.000 A 
ATOM     20  C   UNL     1      62.183  66.619  72.488  0.00  0.00    +0.000 A 
ATOM     21  C   UNL     1      62.277  66.178  71.796  0.00  0.00    +0.000 A 
ATOM     22  C   UNL     1      61.623  65.829  71.437  0.00  0.00    +0.000 A 
ATOM     23  C   UNL     1      60.873  65.921  71.768  0.00  0.00    +0.000 C 
ATOM     24  N   UNL     1      61.717  65.389  70.746  0.00  0.00    +0.000 NA
ATOM     25  C   UNL     1      61.157  64.599  69.694  0.00  0.00    +0.000 A 
ATOM     26  O   UNL     1      61.063  65.040  70.385  0.00  0.00    +0.000 OA
ATOM     27  N   UNL     1      60.503  64.250  69.334  0.00  0.00    +0.000 N 
ATOM     28  C   UNL     1      59.752  64.342  69.665  0.00  0.00    +0.000 C 
ATOM     29  N   UNL     1      60.152  62.607  66.937  0.00  0.00    +0.000 N 
ATOM     30  C   UNL     1      59.340  62.458  66.920  0.00  0.00    +0.000 C 
ATOM     31  C   UNL     1      59.016  62.002  66.313  0.00  0.00    +0.000 C 
ATOM     32  C   UNL     1      59.505  61.696  65.723  0.00  0.00    +0.000 C 
ATOM     33  C   UNL     1      60.316  61.844  65.739  0.00  0.00    +0.000 C 
ATOM     34  N   UNL     1      60.804  61.538  65.149  0.00  0.00    +0.000 NA
ATOM     35  C   UNL     1      60.639  62.300  66.346  0.00  0.00    +0.000 C 
ENDROOT
TORSDOF 0
ENDMDL
MODEL 6
REMARK VINA RESULT:   -13.856      2.001      3.214
REMARK INTER + INTRA:         -13.856
REMARK INTER:                 -13.856
REMARK INTRA:                   0.000
REMARK UNBOUND:                 0.000
ROOT
REMARK  Name = linagliptin
REMARK                            x       y       z     vdW  Elec       q    Type
REMARK                         _______ _______ _______ _____ _____    ______ ____
ATOM      1  C   UNL     1      65.796  66.866  71.684  0.00  0.00    +0.000 C 
ATOM      2  C   UNL     1      65.290  66.427  71.203  0.00  0.00    +0.000 C 
ATOM      3  C   UNL     1      64.785  65.987  70.722  0.00  0.00    +0.000 C 
ATOM      4  C   UNL     1      64.278  65.547  70.241  0.00  0.00    +0.000 C 
ATOM      5  N   UNL     1      63.461  65.631  70.316  0.00  0.00    +0.000 N 
ATOM      6  C   UNL     1      63.071  66.130  70.845  0.00  0.00    +0.000 A 
ATOM      7  N   UNL     1      62.260  66.038  70.731  0.00  0.00    +0.000 NA
ATOM      8  C   UNL     1      62.147  65.482  70.132  0.00  0.00    +0.000 A 
ATOM      9  C   UNL     1      62.890  65.230  69.876  0.00  0.00    +0.000 A 
ATOM     10  C   UNL     1      62.950  64.669  69.275  0.00  0.00    +0.000 A 
ATOM     11  O   UNL     1      63.693  64.417  69.018  0.00  0.00    +0.000 OA
ATOM     12  N   UNL     1      62.268  64.359  68.930  0.00  0.00    +0.000 N 
ATOM     13  C   UNL     1      62.328  63.797  68.328  0.00  0.00    +0.000 C 
ATOM     14  C   UNL     1      61.646  63.487  67.983  0.00  0.00    +0.000 A 
ATOM     15  N   UNL     1      61.706  62.926  67.382  0.00  0.00    +0.000 NA
ATOM     16  C   UNL     1      61.024  62.616  67.037  0.00  0.00    +0.000 A 
ATOM     17  C   UNL     1      61.084  62.055  66.436  0.00  0.00    +0.000 A 
ATOM     18  C   UNL     1      60.402  61.745  66.091  0.00  0.00    +0.000 A 
ATOM     19  C   UNL     1      59.658  61.997  66.348  0.00  0.00    +0.000 A 
ATOM     20  C   UNL     1      59.598  62.558  66.949  0.00  0.00    +0.000 A 
ATOM     21  C   UNL     1      60.281  62.868  67.294  0.00  0.00    +0.000 A 
ATOM     22  C   UNL     1      60.221  63.429  67.895  0.00  0.00    +0.000 A 
ATOM     23  C   UNL     1      59.478  63.681  68.151  0.00  0.00    +0.000 C 
ATOM     24  N   UNL     1      60.902  63.739  68.240  0.00  0.00    +0.000 NA
ATOM     25  C   UNL     1      61.525  64.611  69.187  0.00  0.00    +0.000 A 
ATOM     26  O   UNL     1      60.843  64.301  68.841  0.00  0.00    +0.000 OA
ATOM     27  N   UNL     1      61.465  65.172  69.788  0.00  0.00    +0.000 N 
ATOM     28  C   UNL     1      60.722  65.424  70.044  0.00  0.00    +0.000 C 
ATOM     29  N   UNL     1      63.431  66.634  71.391  0.00  0.00    +0.000 N 
ATOM     30  C   UNL     1      62.967  67.104  71.887  0.00  0.00    +0.000 C 
ATOM     31  C   UNL     1      63.326  67.607  72.433  0.00  0.00    +0.000 C 
ATOM     32  C   UNL     1      64.149  67.640  72.484  0.00  0.00    +0.000 C 
ATOM     33  C   UNL     1      64.612  67.171  71.989  0.00  0.00    +0.000 C 
ATOM     34  N   UNL     1      65.435  67.204  72.040  0.00  0.00    +0.000 NA
ATOM     35  C   UNL     1      64.253  66.668  71.443  0.00  0.00    +0.000 C 
ENDROOT
TORSDOF 0
ENDMDL
