MODEL 1
REMARK VINA RESULT:   -15.013      0.000      0.000
REMARK INTER + INTRA:         -15.013
REMARK INTER:                 -15.013
REMARK INTRA:                   0.000
REMARK UNBOUND:                 0.000
ROOT
REMARK  Name = linzagolix
REMARK                            x       y       z     vdW  Elec       q    Type
REMARK                         _______ _______ _______ _____ _____    ______ ____
ATOM      1  C   UNL     1      59.755  60.951  64.975  0.00  0.00    +0.000 C 
ATOM      2  O   UNL     1      60.194  61.393  65.514  0.00  0.00    +0.000 OA
ATOM      3  C   UNL     1      60.931  61.695  65.296  0.00  0.00    +0.000 A 
ATOM      4  C   UNL     1      61.227  61.555  64.540  0.00  0.00    +0.000 A 
ATOM      5  C   UNL     1      61.963  61.858  64.322  0.00  0.00    +0.000 A 
ATOM      6  C   UNL     1      62.403  62.300  64.862  0.00  0.00    +0.000 A 
ATOM      7  F   UNL     1      63.139  62.602  64.644  0.00  0.00    +0.000 F 
ATOM      8  C   UNL     1      62.107  62.441  65.619  0.00  0.00    +0.000 A 
ATOM      9  F   UNL     1      62.547  62.883  66.158  0.00  0.00    +0.000 F 
ATOM     10  C   UNL     1      61.371  62.138  65.836  0.00  0.00    +0.000 A 
ATOM     11  C   UNL     1      61.074  62.278  66.593  0.00  0.00    +0.000 C 
ATOM     12  O   UNL     1      61.515  62.721  67.133  0.00  0.00    +0.000 OA
ATOM     13  C   UNL     1      61.218  62.861  67.890  0.00  0.00    +0.000 A 
ATOM     14  C   UNL     1      61.658  63.304  68.430  0.00  0.00    +0.000 A 
ATOM     15  C   UNL     1      61.362  63.444  69.187  0.00  0.00    +0.000 A 
ATOM     16  N   UNL     1      61.802  63.887  69.727  0.00  0.00    +0.000 N 
ATOM     17  C   UNL     1      62.538  64.189  69.510  0.00  0.00    +0.000 A 
ATOM     18  O   UNL     1      62.834  64.048  68.752  0.00  0.00    +0.000 OA
ATOM     19  N   UNL     1      62.978  64.631  70.049  0.00  0.00    +0.000 NA
ATOM     20  C   UNL     1      62.682  64.772  70.806  0.00  0.00    +0.000 A 
ATOM     21  C   UNL     1      62.987  65.184  71.451  0.00  0.00    +0.000 A 
ATOM     22  S   UNL     1      62.441  65.138  72.067  0.00  0.00    +0.000 S 
ATOM     23  C   UNL     1      61.797  64.696  71.803  0.00  0.00    +0.000 A 
ATOM     24  C   UNL     1      61.122  64.512  72.241  0.00  0.00    +0.000 C 
ATOM     25  O   UNL     1      61.050  64.778  73.019  0.00  0.00    +0.000 OA
ATOM     26  O   UNL     1      60.520  64.062  71.901  0.00  0.00    +0.000 OA
ATOM     27  C   UNL     1      61.946  64.469  71.024  0.00  0.00    +0.000 A 
ATOM     28  C   UNL     1      61.505  64.026  70.484  0.00  0.00    +0.000 A 
ATOM     29  O   UNL     1      60.769  63.724  70.701  0.00  0.00    +0.000 OA
ATOM     30  C   UNL     1      60.625  63.141  69.404  0.00  0.00    +0.000 A 
ATOM     31  F   UNL     1      60.330  63.282  70.162  0.00  0.00    +0.000 F 
ATOM     32  C   UNL     1      60.186  62.699  68.865  0.00  0.00    +0.000 A 
ATOM     33  C   UNL     1      60.482  62.558  68.108  0.00  0.00    +0.000 A 
ATOM     34  O   UNL     1      60.042  62.116  67.568  0.00  0.00    +0.000 OA
ATOM     35  C   UNL     1      60.338  61.976  66.811  0.00  0.00    +0.000 C 
ENDROOT
TORSDOF 0
ENDMDL
MODEL 2
REMARK VINA RESULT:   -14.542      1.949      5.967
REMARK INTER + INTRA:         -14.542
REMARK INTER:                 -14.542
REMARK INTRA:                   0.000
REMARK UNBOUND:                 0.000
ROOT
REMARK  Name = linzagolix
REMARK                            x       y       z     vdW  Elec       q    Type
REMARK                         _______ _______ _______ _____ _____    ______ ____
ATOM      1  C   UNL     1      62.051  65.662  72.551  0.00  0.00    +0.000 C 
ATOM      2  O   UNL     1      61.693  65.256  71.930  0.00  0.00    +0.000 OA
ATOM      3  C   UNL     1      60.900  65.036  71.984  0.00  0.00    +0.000 A 
ATOM      4  C   UNL     1      60.465  65.222  72.660  0.00  0.00    +0.000 A 
ATOM      5  C   UNL     1      59.672  65.002  72.714  0.00  0.00    +0.000 A 
ATOM      6  C   UNL     1      59.314  64.596  72.092  0.00  0.00    +0.000 A 
ATOM      7  F   UNL     1      58.520  64.375  72.146  0.00  0.00    +0.000 F 
ATOM      8  C   UNL     1      59.748  64.409  71.416  0.00  0.00    +0.000 A 
ATOM      9  F   UNL     1      59.390  64.003  70.794  0.00  0.00    +0.000 F 
ATOM     10  C   UNL     1      60.541  64.629  71.362  0.00  0.00    +0.000 A 
ATOM     11  C   UNL     1      60.976  64.443  70.686  0.00  0.00    +0.000 C 
ATOM     12  O   UNL     1      60.617  64.036  70.064  0.00  0.00    +0.000 OA
ATOM     13  C   UNL     1      61.052  63.850  69.388  0.00  0.00    +0.000 A 
ATOM     14  C   UNL     1      60.693  63.443  68.766  0.00  0.00    +0.000 A 
ATOM     15  C   UNL     1      61.128  63.257  68.090  0.00  0.00    +0.000 A 
ATOM     16  N   UNL     1      60.769  62.850  67.468  0.00  0.00    +0.000 N 
ATOM     17  C   UNL     1      59.976  62.630  67.522  0.00  0.00    +0.000 A 
ATOM     18  O   UNL     1      59.542  62.817  68.198  0.00  0.00    +0.000 OA
ATOM     19  N   UNL     1      59.618  62.224  66.900  0.00  0.00    +0.000 NA
ATOM     20  C   UNL     1      60.052  62.037  66.224  0.00  0.00    +0.000 A 
ATOM     21  C   UNL     1      59.850  61.644  65.529  0.00  0.00    +0.000 A 
ATOM     22  S   UNL     1      60.517  61.621  65.044  0.00  0.00    +0.000 S 
ATOM     23  C   UNL     1      61.132  62.000  65.441  0.00  0.00    +0.000 A 
ATOM     24  C   UNL     1      61.901  62.104  65.158  0.00  0.00    +0.000 C 
ATOM     25  O   UNL     1      62.109  61.815  64.414  0.00  0.00    +0.000 OA
ATOM     26  O   UNL     1      62.461  62.497  65.619  0.00  0.00    +0.000 OA
ATOM     27  C   UNL     1      60.845  62.257  66.170  0.00  0.00    +0.000 A 
ATOM     28  C   UNL     1      61.204  62.664  66.792  0.00  0.00    +0.000 A 
ATOM     29  O   UNL     1      61.998  62.885  66.738  0.00  0.00    +0.000 OA
ATOM     30  C   UNL     1      61.922  63.477  68.036  0.00  0.00    +0.000 A 
ATOM     31  F   UNL     1      62.356  63.291  67.360  0.00  0.00    +0.000 F 
ATOM     32  C   UNL     1      62.280  63.884  68.658  0.00  0.00    +0.000 A 
ATOM     33  C   UNL     1      61.845  64.070  69.334  0.00  0.00    +0.000 A 
ATOM     34  O   UNL     1      62.204  64.477  69.956  0.00  0.00    +0.000 OA
ATOM     35  C   UNL     1      61.769  64.663  70.632  0.00  0.00    +0.000 C 
ENDROOT
TORSDOF 0
ENDMDL
MODEL 3
REMARK VINA RESULT:   -14.132      2.292      5.711
REMARK INTER + INTRA:         -14.132
REMARK INTER:                 -14.132
REMARK INTRA:                   0.000
REMARK UNBOUND:                 0.000
ROOT
REMARK  Name = linzagolix
REMARK                            x       y       z     vdW  Elec       q    Type
REMARK                         _______ _______ _______ _____ _____    ______ ____
ATOM      1  C   UNL     1      60.124  63.796  71.446  0.00  0.00    +0.000 C 
ATOM      2  O   UNL     1      60.494  63.677  70.720  0.00  0.00    +0.000 OA
ATOM      3  C   UNL     1      61.246  63.990  70.583  0.00  0.00    +0.000 A 
ATOM      4  C   UNL     1      61.626  64.422  71.174  0.00  0.00    +0.000 A 
ATOM      5  C   UNL     1      62.378  64.734  71.038  0.00  0.00    +0.000 A 
ATOM      6  C   UNL     1      62.748  64.615  70.311  0.00  0.00    +0.000 A 
ATOM      7  F   UNL     1      63.499  64.928  70.175  0.00  0.00    +0.000 F 
ATOM      8  C   UNL     1      62.368  64.183  69.719  0.00  0.00    +0.000 A 
ATOM      9  F   UNL     1      62.738  64.064  68.993  0.00  0.00    +0.000 F 
ATOM     10  C   UNL     1      61.617  63.870  69.855  0.00  0.00    +0.000 A 
ATOM     11  C   UNL     1      61.236  63.438  69.265  0.00  0.00    +0.000 C 
ATOM     12  O   UNL     1      61.607  63.319  68.537  0.00  0.00    +0.000 OA
ATOM     13  C   UNL     1      61.227  62.887  67.947  0.00  0.00    +0.000 A 
ATOM     14  C   UNL     1      61.598  62.767  67.219  0.00  0.00    +0.000 A 
ATOM     15  C   UNL     1      61.217  62.335  66.628  0.00  0.00    +0.000 A 
ATOM     16  N   UNL     1      61.588  62.216  65.901  0.00  0.00    +0.000 N 
ATOM     17  C   UNL     1      62.339  62.529  65.764  0.00  0.00    +0.000 A 
ATOM     18  O   UNL     1      62.719  62.961  66.356  0.00  0.00    +0.000 OA
ATOM     19  N   UNL     1      62.710  62.409  65.038  0.00  0.00    +0.000 NA
ATOM     20  C   UNL     1      62.330  61.977  64.446  0.00  0.00    +0.000 A 
ATOM     21  C   UNL     1      62.556  61.771  63.681  0.00  0.00    +0.000 A 
ATOM     22  S   UNL     1      61.945  61.331  63.344  0.00  0.00    +0.000 S 
ATOM     23  C   UNL     1      61.341  61.266  63.901  0.00  0.00    +0.000 A 
ATOM     24  C   UNL     1      60.625  60.870  63.795  0.00  0.00    +0.000 C 
ATOM     25  O   UNL     1      60.463  60.493  63.079  0.00  0.00    +0.000 OA
ATOM     26  O   UNL     1      60.070  60.850  64.406  0.00  0.00    +0.000 OA
ATOM     27  C   UNL     1      61.579  61.665  64.582  0.00  0.00    +0.000 A 
ATOM     28  C   UNL     1      61.207  61.784  65.310  0.00  0.00    +0.000 A 
ATOM     29  O   UNL     1      60.456  61.471  65.446  0.00  0.00    +0.000 OA
ATOM     30  C   UNL     1      60.466  62.023  66.765  0.00  0.00    +0.000 A 
ATOM     31  F   UNL     1      60.086  61.591  66.173  0.00  0.00    +0.000 F 
ATOM     32  C   UNL     1      60.095  62.142  67.491  0.00  0.00    +0.000 A 
ATOM     33  C   UNL     1      60.475  62.574  68.083  0.00  0.00    +0.000 A 
ATOM     34  O   UNL     1      60.105  62.693  68.810  0.00  0.00    +0.000 OA
ATOM     35  C   UNL     1      60.485  63.125  69.401  0.00  0.00    +0.000 C 
ENDROOT
TORSDOF 0
ENDMDL
MODEL 4
REMARK VINA RESULT:   -13.933      2.178      5.768
REMARK INTER + INTRA:         -13.933
REMARK INTER:                 -13.933
REMARK INTRA:                   0.000
REMARK UNBOUND:                 0.000
ROOT
REMARK  Name = linzagolix
REMARK                            x       y       z     vdW  Elec       q    Type
REMARK                         _______ _______ _______ _____ _____    ______ ____
ATOM      1  C   UNL     1      60.741  67.233  72.929  0.00  0.00    +0.000 C 
ATOM      2  O   UNL     1      60.978  66.755  72.300  0.00  0.00    +0.000 OA
ATOM      3  C   UNL     1      61.781  66.641  72.149  0.00  0.00    +0.000 A 
ATOM      4  C   UNL     1      62.347  67.004  72.627  0.00  0.00    +0.000 A 
ATOM      5  C   UNL     1      63.150  66.890  72.476  0.00  0.00    +0.000 A 
ATOM      6  C   UNL     1      63.387  66.412  71.848  0.00  0.00    +0.000 A 
ATOM      7  F   UNL     1      64.190  66.297  71.697  0.00  0.00    +0.000 F 
ATOM      8  C   UNL     1      62.822  66.048  71.369  0.00  0.00    +0.000 A 
ATOM      9  F   UNL     1      63.059  65.570  70.741  0.00  0.00    +0.000 F 
ATOM     10  C   UNL     1      62.019  66.162  71.520  0.00  0.00    +0.000 A 
ATOM     11  C   UNL     1      61.453  65.799  71.042  0.00  0.00    +0.000 C 
ATOM     12  O   UNL     1      61.691  65.320  70.413  0.00  0.00    +0.000 OA
ATOM     13  C   UNL     1      61.125  64.957  69.935  0.00  0.00    +0.000 A 
ATOM     14  C   UNL     1      61.363  64.478  69.306  0.00  0.00    +0.000 A 
ATOM     15  C   UNL     1      60.797  64.115  68.828  0.00  0.00    +0.000 A 
ATOM     16  N   UNL     1      61.034  63.636  68.199  0.00  0.00    +0.000 N 
ATOM     17  C   UNL     1      61.837  63.521  68.048  0.00  0.00    +0.000 A 
ATOM     18  O   UNL     1      62.403  63.885  68.527  0.00  0.00    +0.000 OA
ATOM     19  N   UNL     1      62.074  63.043  67.420  0.00  0.00    +0.000 NA
ATOM     20  C   UNL     1      61.509  62.679  66.941  0.00  0.00    +0.000 A 
ATOM     21  C   UNL     1      61.577  62.182  66.288  0.00  0.00    +0.000 A 
ATOM     22  S   UNL     1      60.816  61.989  66.034  0.00  0.00    +0.000 S 
ATOM     23  C   UNL     1      60.278  62.367  66.531  0.00  0.00    +0.000 A 
ATOM     24  C   UNL     1      59.456  62.326  66.477  0.00  0.00    +0.000 C 
ATOM     25  O   UNL     1      59.103  61.875  65.884  0.00  0.00    +0.000 OA
ATOM     26  O   UNL     1      58.986  62.737  67.017  0.00  0.00    +0.000 OA
ATOM     27  C   UNL     1      60.706  62.794  67.092  0.00  0.00    +0.000 A 
ATOM     28  C   UNL     1      60.469  63.273  67.721  0.00  0.00    +0.000 A 
ATOM     29  O   UNL     1      59.666  63.387  67.872  0.00  0.00    +0.000 OA
ATOM     30  C   UNL     1      59.994  64.229  68.979  0.00  0.00    +0.000 A 
ATOM     31  F   UNL     1      59.429  63.865  68.501  0.00  0.00    +0.000 F 
ATOM     32  C   UNL     1      59.757  64.707  69.608  0.00  0.00    +0.000 A 
ATOM     33  C   UNL     1      60.322  65.071  70.086  0.00  0.00    +0.000 A 
ATOM     34  O   UNL     1      60.085  65.549  70.715  0.00  0.00    +0.000 OA
ATOM     35  C   UNL     1      60.650  65.913  71.193  0.00  0.00    +0.000 C 
ENDROOT
TORSDOF 0
ENDMDL
MODEL 5
REMARK VINA RESULT:   -13.482      2.265      6.166
REMARK INTER + INTRA:         -13.482
REMARK INTER:                 -13.482
REMARK INTRA:                   0.000
REMARK UNBOUND:                 0.000
ROOT
REMARK  Name = linzagolix
REMARK                            x       y       z     vdW  Elec       q    Type
REMARK                         _______ _______ _______ _____ _____    ______ ____
ATOM      1  C   UNL     1      64.416  67.327  72.224  0.00  0.00    +0.000 C 
ATOM      2  O   UNL     1      63.805  66.948  71.821  0.00  0.00    +0.000 OA
ATOM      3  C   UNL     1      63.020  67.103  72.020  0.00  0.00    +0.000 A 
ATOM      4  C   UNL     1      62.845  67.638  72.623  0.00  0.00    +0.000 A 
ATOM      5  C   UNL     1      62.060  67.794  72.822  0.00  0.00    +0.000 A 
ATOM      6  C   UNL     1      61.449  67.414  72.419  0.00  0.00    +0.000 A 
ATOM      7  F   UNL     1      60.664  67.569  72.618  0.00  0.00    +0.000 F 
ATOM      8  C   UNL     1      61.623  66.879  71.815  0.00  0.00    +0.000 A 
ATOM      9  F   UNL     1      61.013  66.499  71.412  0.00  0.00    +0.000 F 
ATOM     10  C   UNL     1      62.408  66.723  71.616  0.00  0.00    +0.000 A 
ATOM     11  C   UNL     1      62.583  66.188  71.013  0.00  0.00    +0.000 C 
ATOM     12  O   UNL     1      61.971  65.808  70.609  0.00  0.00    +0.000 OA
ATOM     13  C   UNL     1      62.146  65.273  70.006  0.00  0.00    +0.000 A 
ATOM     14  C   UNL     1      61.535  64.893  69.602  0.00  0.00    +0.000 A 
ATOM     15  C   UNL     1      61.710  64.358  68.999  0.00  0.00    +0.000 A 
ATOM     16  N   UNL     1      61.098  63.978  68.595  0.00  0.00    +0.000 N 
ATOM     17  C   UNL     1      60.313  64.133  68.795  0.00  0.00    +0.000 A 
ATOM     18  O   UNL     1      60.139  64.669  69.398  0.00  0.00    +0.000 OA
ATOM     19  N   UNL     1      59.702  63.754  68.391  0.00  0.00    +0.000 NA
ATOM     20  C   UNL     1      59.876  63.218  67.788  0.00  0.00    +0.000 A 
ATOM     21  C   UNL     1      59.395  62.764  67.297  0.00  0.00    +0.000 A 
ATOM     22  S   UNL     1      59.881  62.328  66.794  0.00  0.00    +0.000 S 
ATOM     23  C   UNL     1      60.664  62.513  66.974  0.00  0.00    +0.000 A 
ATOM     24  C   UNL     1      61.334  62.201  66.605  0.00  0.00    +0.000 C 
ATOM     25  O   UNL     1      61.251  61.652  65.995  0.00  0.00    +0.000 OA
ATOM     26  O   UNL     1      62.086  62.439  66.846  0.00  0.00    +0.000 OA
ATOM     27  C   UNL     1      60.661  63.063  67.588  0.00  0.00    +0.000 A 
ATOM     28  C   UNL     1      61.273  63.443  67.992  0.00  0.00    +0.000 A 
ATOM     29  O   UNL     1      62.058  63.287  67.793  0.00  0.00    +0.000 OA
ATOM     30  C   UNL     1      62.495  64.202  68.800  0.00  0.00    +0.000 A 
ATOM     31  F   UNL     1      62.669  63.667  68.197  0.00  0.00    +0.000 F 
ATOM     32  C   UNL     1      63.105  64.582  69.203  0.00  0.00    +0.000 A 
ATOM     33  C   UNL     1      62.932  65.118  69.807  0.00  0.00    +0.000 A 
ATOM     34  O   UNL     1      63.542  65.497  70.210  0.00  0.00    +0.000 OA
ATOM     35  C   UNL     1      63.368  66.033  70.814  0.00  0.00    +0.000 C 
ENDROOT
TORSDOF 0
ENDMDL
MODEL 6
REMARK VINA RESULT:   -13.379      2.675      4.680
REMARK INTER + INTRA:         -13.379
REMARK INTER:                 -13.379
REMARK INTRA:                   0.000
REMARK UNBOUND:                 0.000
ROOT
REMARK  Name = linzagolix
REMARK                            x       y       z     vdW  Elec       q    Type
REMARK                         _______ _______ _______ _____ _____    ______ ____
ATOM      1  C   UNL     1      60.274  62.004  68.472  0.00  0.00    +0.000 C 
ATOM      2  O   UNL     1      60.768  62.458  68.951  0.00  0.00    +0.000 OA
ATOM      3  C   UNL     1      60.725  62.389  69.772  0.00  0.00    +0.000 A 
ATOM      4  C   UNL     1      60.187  61.865  70.114  0.00  0.00    +0.000 A 
ATOM      5  C   UNL     1      60.144  61.796  70.935  0.00  0.00    +0.000 A 
ATOM      6  C   UNL     1      60.638  62.250  71.413  0.00  0.00    +0.000 A 
ATOM      7  F   UNL     1      60.594  62.181  72.234  0.00  0.00    +0.000 F 
ATOM      8  C   UNL     1      61.176  62.774  71.072  0.00  0.00    +0.000 A 
ATOM      9  F   UNL     1      61.670  63.229  71.551  0.00  0.00    +0.000 F 
ATOM     10  C   UNL     1      61.219  62.844  70.251  0.00  0.00    +0.000 A 
ATOM     11  C   UNL     1      61.757  63.367  69.909  0.00  0.00    +0.000 C 
ATOM     12  O   UNL     1      62.252  63.822  70.389  0.00  0.00    +0.000 OA
ATOM     13  C   UNL     1      62.789  64.346  70.046  0.00  0.00    +0.000 A 
ATOM     14  C   UNL     1      63.284  64.801  70.526  0.00  0.00    +0.000 A 
ATOM     15  C   UNL     1      63.821  65.325  70.184  0.00  0.00    +0.000 A 
ATOM     16  N   UNL     1      64.316  65.780  70.663  0.00  0.00    +0.000 N 
ATOM     17  C   UNL     1      64.272  65.711  71.484  0.00  0.00    +0.000 A 
ATOM     18  O   UNL     1      63.734  65.186  71.825  0.00  0.00    +0.000 OA
ATOM     19  N   UNL     1      64.766  66.165  71.963  0.00  0.00    +0.000 NA
ATOM     20  C   UNL     1      65.305  66.689  71.621  0.00  0.00    +0.000 A 
ATOM     21  C   UNL     1      65.857  67.205  71.949  0.00  0.00    +0.000 A 
ATOM     22  S   UNL     1      66.243  67.593  71.332  0.00  0.00    +0.000 S 
ATOM     23  C   UNL     1      65.928  67.317  70.622  0.00  0.00    +0.000 A 
ATOM     24  C   UNL     1      66.153  67.557  69.865  0.00  0.00    +0.000 C 
ATOM     25  O   UNL     1      66.745  68.125  69.772  0.00  0.00    +0.000 OA
ATOM     26  O   UNL     1      65.787  67.231  69.202  0.00  0.00    +0.000 OA
ATOM     27  C   UNL     1      65.348  66.759  70.800  0.00  0.00    +0.000 A 
ATOM     28  C   UNL     1      64.853  66.304  70.321  0.00  0.00    +0.000 A 
ATOM     29  O   UNL     1      64.897  66.373  69.500  0.00  0.00    +0.000 OA
ATOM     30  C   UNL     1      63.865  65.394  69.363  0.00  0.00    +0.000 A 
ATOM     31  F   UNL     1      64.403  65.918  69.021  0.00  0.00    +0.000 F 
ATOM     32  C   UNL     1      63.371  64.940  68.884  0.00  0.00    +0.000 A 
ATOM     33  C   UNL     1      62.833  64.415  69.225  0.00  0.00    +0.000 A 
ATOM     34  O   UNL     1      62.339  63.961  68.747  0.00  0.00    +0.000 OA
ATOM     35  C   UNL     1      61.800  63.437  69.088  0.00  0.00    +0.000 C 
ENDROOT
TORSDOF 0
ENDMDL
MODEL 7
REMARK VINA RESULT:   -12.232     14.719     15.583
REMARK INTER + INTRA:         -12.232
REMARK INTER:                 -12.232
REMARK INTRA:                   0.000
REMARK UNBOUND:                 0.000
ROOT
REMARK  Name = linzagolix
REMARK                            x       y       z     vdW  Elec       q    Type
REMARK                         _______ _______ _______ _____ _____    ______ ____
ATOM      1  C   UNL     1      60.882  68.262  53.465  0.00  0.00    +0.000 C 
ATOM      2  O   UNL     1      61.315  67.571  53.586  0.00  0.00    +0.000 OA
ATOM      3  C   UNL     1      62.043  67.603  53.974  0.00  0.00    +0.000 A 
ATOM      4  C   UNL     1      62.338  68.325  54.240  0.00  0.00    +0.000 A 
ATOM      5  C   UNL     1      63.066  68.357  54.627  0.00  0.00    +0.000 A 
ATOM      6  C   UNL     1      63.499  67.666  54.748  0.00  0.00    +0.000 A 
ATOM      7  F   UNL     1      64.226  67.698  55.135  0.00  0.00    +0.000 F 
ATOM      8  C   UNL     1      63.205  66.943  54.482  0.00  0.00    +0.000 A 
ATOM      9  F   UNL     1      63.638  66.252  54.603  0.00  0.00    +0.000 F 
ATOM     10  C   UNL     1      62.477  66.911  54.095  0.00  0.00    +0.000 A 
ATOM     11  C   UNL     1      62.182  66.188  53.829  0.00  0.00    +0.000 C 
ATOM     12  O   UNL     1      62.616  65.496  53.951  0.00  0.00    +0.000 OA
ATOM     13  C   UNL     1      62.321  64.773  53.685  0.00  0.00    +0.000 A 
ATOM     14  C   UNL     1      62.755  64.081  53.806  0.00  0.00    +0.000 A 
ATOM     15  C   UNL     1      62.460  63.358  53.540  0.00  0.00    +0.000 A 
ATOM     16  N   UNL     1      62.894  62.666  53.662  0.00  0.00    +0.000 N 
ATOM     17  C   UNL     1      63.622  62.698  54.049  0.00  0.00    +0.000 A 
ATOM     18  O   UNL     1      63.916  63.422  54.315  0.00  0.00    +0.000 OA
ATOM     19  N   UNL     1      64.054  62.007  54.170  0.00  0.00    +0.000 NA
ATOM     20  C   UNL     1      63.761  61.283  53.905  0.00  0.00    +0.000 A 
ATOM     21  C   UNL     1      64.061  60.517  53.945  0.00  0.00    +0.000 A 
ATOM     22  S   UNL     1      63.520  60.011  53.582  0.00  0.00    +0.000 S 
ATOM     23  C   UNL     1      62.884  60.465  53.319  0.00  0.00    +0.000 A 
ATOM     24  C   UNL     1      62.216  60.182  52.924  0.00  0.00    +0.000 C 
ATOM     25  O   UNL     1      62.143  59.376  52.762  0.00  0.00    +0.000 OA
ATOM     26  O   UNL     1      61.622  60.705  52.692  0.00  0.00    +0.000 OA
ATOM     27  C   UNL     1      63.033  61.251  53.517  0.00  0.00    +0.000 A 
ATOM     28  C   UNL     1      62.599  61.943  53.396  0.00  0.00    +0.000 A 
ATOM     29  O   UNL     1      61.871  61.911  53.009  0.00  0.00    +0.000 OA
ATOM     30  C   UNL     1      61.732  63.326  53.153  0.00  0.00    +0.000 A 
ATOM     31  F   UNL     1      61.438  62.602  52.888  0.00  0.00    +0.000 F 
ATOM     32  C   UNL     1      61.299  64.017  53.032  0.00  0.00    +0.000 A 
ATOM     33  C   UNL     1      61.593  64.741  53.298  0.00  0.00    +0.000 A 
ATOM     34  O   UNL     1      61.160  65.432  53.176  0.00  0.00    +0.000 OA
ATOM     35  C   UNL     1      61.454  66.156  53.442  0.00  0.00    +0.000 C 
ENDROOT
TORSDOF 0
ENDMDL
MODEL 8
REMARK VINA RESULT:   -12.039     14.720     15.206
REMARK INTER + INTRA:         -12.039
REMARK INTER:                 -12.039
REMARK INTRA:                   0.000
REMARK UNBOUND:                 0.000
ROOT
REMARK  Name = linzagolix
REMARK                            x       y       z     vdW  Elec       q    Type
REMARK                         _______ _______ _______ _____ _____    ______ ____
ATOM      1  C   UNL     1      61.839  61.216  52.675  0.00  0.00    +0.000 C 
ATOM      2  O   UNL     1      62.064  61.963  52.940  0.00  0.00    +0.000 OA
ATOM      3  C   UNL     1      62.776  62.061  53.344  0.00  0.00    +0.000 A 
ATOM      4  C   UNL     1      63.265  61.410  53.482  0.00  0.00    +0.000 A 
ATOM      5  C   UNL     1      63.978  61.508  53.886  0.00  0.00    +0.000 A 
ATOM      6  C   UNL     1      64.202  62.255  54.151  0.00  0.00    +0.000 A 
ATOM      7  F   UNL     1      64.915  62.352  54.555  0.00  0.00    +0.000 F 
ATOM      8  C   UNL     1      63.715  62.907  54.013  0.00  0.00    +0.000 A 
ATOM      9  F   UNL     1      63.939  63.654  54.278  0.00  0.00    +0.000 F 
ATOM     10  C   UNL     1      63.002  62.809  53.610  0.00  0.00    +0.000 A 
ATOM     11  C   UNL     1      62.514  63.460  53.471  0.00  0.00    +0.000 C 
ATOM     12  O   UNL     1      62.739  64.208  53.737  0.00  0.00    +0.000 OA
ATOM     13  C   UNL     1      62.251  64.858  53.598  0.00  0.00    +0.000 A 
ATOM     14  C   UNL     1      62.476  65.607  53.864  0.00  0.00    +0.000 A 
ATOM     15  C   UNL     1      61.988  66.257  53.725  0.00  0.00    +0.000 A 
ATOM     16  N   UNL     1      62.213  67.006  53.991  0.00  0.00    +0.000 N 
ATOM     17  C   UNL     1      62.926  67.103  54.394  0.00  0.00    +0.000 A 
ATOM     18  O   UNL     1      63.414  66.452  54.532  0.00  0.00    +0.000 OA
ATOM     19  N   UNL     1      63.151  67.851  54.659  0.00  0.00    +0.000 NA
ATOM     20  C   UNL     1      62.664  68.502  54.521  0.00  0.00    +0.000 A 
ATOM     21  C   UNL     1      62.739  69.299  54.715  0.00  0.00    +0.000 A 
ATOM     22  S   UNL     1      62.073  69.696  54.432  0.00  0.00    +0.000 S 
ATOM     23  C   UNL     1      61.586  69.142  54.063  0.00  0.00    +0.000 A 
ATOM     24  C   UNL     1      60.861  69.299  53.701  0.00  0.00    +0.000 C 
ATOM     25  O   UNL     1      60.564  70.069  53.689  0.00  0.00    +0.000 OA
ATOM     26  O   UNL     1      60.433  68.687  53.352  0.00  0.00    +0.000 OA
ATOM     27  C   UNL     1      61.951  68.405  54.118  0.00  0.00    +0.000 A 
ATOM     28  C   UNL     1      61.725  67.656  53.852  0.00  0.00    +0.000 A 
ATOM     29  O   UNL     1      61.012  67.559  53.448  0.00  0.00    +0.000 OA
ATOM     30  C   UNL     1      61.275  66.160  53.321  0.00  0.00    +0.000 A 
ATOM     31  F   UNL     1      60.788  66.811  53.183  0.00  0.00    +0.000 F 
ATOM     32  C   UNL     1      61.051  65.413  53.056  0.00  0.00    +0.000 A 
ATOM     33  C   UNL     1      61.538  64.761  53.194  0.00  0.00    +0.000 A 
ATOM     34  O   UNL     1      61.313  64.014  52.929  0.00  0.00    +0.000 OA
ATOM     35  C   UNL     1      61.801  63.362  53.067  0.00  0.00    +0.000 C 
ENDROOT
TORSDOF 0
ENDMDL
