MODEL 1
REMARK VINA RESULT:   -11.702      0.000      0.000
REMARK INTER + INTRA:         -11.702
REMARK INTER:                 -11.702
REMARK INTRA:                   0.000
REMARK UNBOUND:                 0.000
ROOT
REMARK  Name = liranaftate
REMARK                            x       y       z     vdW  Elec       q    Type
REMARK                         _______ _______ _______ _____ _____    ______ ____
ATOM      1  C   UNL     1      62.669  65.371  71.652  0.00  0.00    +0.000 C 
ATOM      2  O   UNL     1      61.994  65.074  71.280  0.00  0.00    +0.000 OA
ATOM      3  C   UNL     1      62.059  64.695  70.551  0.00  0.00    +0.000 A 
ATOM      4  N   UNL     1      61.385  64.398  70.179  0.00  0.00    +0.000 NA
ATOM      5  C   UNL     1      61.449  64.018  69.450  0.00  0.00    +0.000 A 
ATOM      6  C   UNL     1      62.189  63.935  69.092  0.00  0.00    +0.000 A 
ATOM      7  C   UNL     1      62.863  64.231  69.464  0.00  0.00    +0.000 A 
ATOM      8  C   UNL     1      62.797  64.611  70.194  0.00  0.00    +0.000 A 
ATOM      9  N   UNL     1      60.776  63.722  69.078  0.00  0.00    +0.000 N 
ATOM     10  C   UNL     1      60.037  63.806  69.435  0.00  0.00    +0.000 C 
ATOM     11  C   UNL     1      60.841  63.342  68.348  0.00  0.00    +0.000 C 
ATOM     12  S   UNL     1      61.580  63.259  67.990  0.00  0.00    +0.000 S 
ATOM     13  O   UNL     1      60.167  63.046  67.976  0.00  0.00    +0.000 OA
ATOM     14  C   UNL     1      60.232  62.666  67.246  0.00  0.00    +0.000 A 
ATOM     15  C   UNL     1      59.557  62.369  66.874  0.00  0.00    +0.000 A 
ATOM     16  C   UNL     1      59.622  61.989  66.145  0.00  0.00    +0.000 A 
ATOM     17  C   UNL     1      60.361  61.906  65.788  0.00  0.00    +0.000 A 
ATOM     18  C   UNL     1      60.426  61.526  65.058  0.00  0.00    +0.000 C 
ATOM     19  C   UNL     1      61.164  61.442  64.701  0.00  0.00    +0.000 C 
ATOM     20  C   UNL     1      61.839  61.739  65.073  0.00  0.00    +0.000 C 
ATOM     21  C   UNL     1      61.774  62.119  65.802  0.00  0.00    +0.000 C 
ATOM     22  C   UNL     1      61.035  62.203  66.160  0.00  0.00    +0.000 A 
ATOM     23  C   UNL     1      60.970  62.582  66.889  0.00  0.00    +0.000 A 
ENDROOT
TORSDOF 0
ENDMDL
MODEL 2
REMARK VINA RESULT:   -11.646      1.516      2.172
REMARK INTER + INTRA:         -11.646
REMARK INTER:                 -11.646
REMARK INTRA:                   0.000
REMARK UNBOUND:                 0.000
ROOT
REMARK  Name = liranaftate
REMARK                            x       y       z     vdW  Elec       q    Type
REMARK                         _______ _______ _______ _____ _____    ______ ____
ATOM      1  C   UNL     1      60.442  63.082  71.535  0.00  0.00    +0.000 C 
ATOM      2  O   UNL     1      60.877  63.333  70.880  0.00  0.00    +0.000 OA
ATOM      3  C   UNL     1      60.780  62.957  70.153  0.00  0.00    +0.000 A 
ATOM      4  N   UNL     1      61.215  63.207  69.498  0.00  0.00    +0.000 NA
ATOM      5  C   UNL     1      61.119  62.831  68.770  0.00  0.00    +0.000 A 
ATOM      6  C   UNL     1      60.587  62.203  68.697  0.00  0.00    +0.000 A 
ATOM      7  C   UNL     1      60.153  61.953  69.352  0.00  0.00    +0.000 A 
ATOM      8  C   UNL     1      60.250  62.330  70.080  0.00  0.00    +0.000 A 
ATOM      9  N   UNL     1      61.554  63.081  68.116  0.00  0.00    +0.000 N 
ATOM     10  C   UNL     1      62.085  63.708  68.188  0.00  0.00    +0.000 C 
ATOM     11  C   UNL     1      61.457  62.704  67.388  0.00  0.00    +0.000 C 
ATOM     12  S   UNL     1      60.925  62.077  67.315  0.00  0.00    +0.000 S 
ATOM     13  O   UNL     1      61.892  62.954  66.733  0.00  0.00    +0.000 OA
ATOM     14  C   UNL     1      61.795  62.577  66.005  0.00  0.00    +0.000 A 
ATOM     15  C   UNL     1      62.230  62.828  65.349  0.00  0.00    +0.000 A 
ATOM     16  C   UNL     1      62.134  62.451  64.622  0.00  0.00    +0.000 A 
ATOM     17  C   UNL     1      61.603  61.825  64.549  0.00  0.00    +0.000 A 
ATOM     18  C   UNL     1      61.506  61.448  63.822  0.00  0.00    +0.000 C 
ATOM     19  C   UNL     1      60.975  60.822  63.749  0.00  0.00    +0.000 C 
ATOM     20  C   UNL     1      60.540  60.571  64.405  0.00  0.00    +0.000 C 
ATOM     21  C   UNL     1      60.636  60.947  65.132  0.00  0.00    +0.000 C 
ATOM     22  C   UNL     1      61.168  61.574  65.205  0.00  0.00    +0.000 A 
ATOM     23  C   UNL     1      61.264  61.951  65.932  0.00  0.00    +0.000 A 
ENDROOT
TORSDOF 0
ENDMDL
MODEL 3
REMARK VINA RESULT:   -11.146      3.339      4.624
REMARK INTER + INTRA:         -11.146
REMARK INTER:                 -11.146
REMARK INTRA:                   0.000
REMARK UNBOUND:                 0.000
ROOT
REMARK  Name = liranaftate
REMARK                            x       y       z     vdW  Elec       q    Type
REMARK                         _______ _______ _______ _____ _____    ______ ____
ATOM      1  C   UNL     1      66.127  67.628  69.849  0.00  0.00    +0.000 C 
ATOM      2  O   UNL     1      65.599  67.406  70.444  0.00  0.00    +0.000 OA
ATOM      3  C   UNL     1      65.075  66.782  70.318  0.00  0.00    +0.000 A 
ATOM      4  N   UNL     1      64.548  66.560  70.913  0.00  0.00    +0.000 NA
ATOM      5  C   UNL     1      64.023  65.936  70.788  0.00  0.00    +0.000 A 
ATOM      6  C   UNL     1      64.026  65.533  70.067  0.00  0.00    +0.000 A 
ATOM      7  C   UNL     1      64.554  65.755  69.473  0.00  0.00    +0.000 A 
ATOM      8  C   UNL     1      65.078  66.379  69.599  0.00  0.00    +0.000 A 
ATOM      9  N   UNL     1      63.497  65.715  71.381  0.00  0.00    +0.000 N 
ATOM     10  C   UNL     1      63.493  66.117  72.101  0.00  0.00    +0.000 C 
ATOM     11  C   UNL     1      62.972  65.090  71.256  0.00  0.00    +0.000 C 
ATOM     12  S   UNL     1      62.975  64.687  70.535  0.00  0.00    +0.000 S 
ATOM     13  O   UNL     1      62.444  64.868  71.850  0.00  0.00    +0.000 OA
ATOM     14  C   UNL     1      61.920  64.244  71.724  0.00  0.00    +0.000 A 
ATOM     15  C   UNL     1      61.392  64.022  72.319  0.00  0.00    +0.000 A 
ATOM     16  C   UNL     1      60.868  63.398  72.193  0.00  0.00    +0.000 A 
ATOM     17  C   UNL     1      60.871  62.995  71.474  0.00  0.00    +0.000 A 
ATOM     18  C   UNL     1      60.346  62.371  71.348  0.00  0.00    +0.000 C 
ATOM     19  C   UNL     1      60.349  61.968  70.628  0.00  0.00    +0.000 C 
ATOM     20  C   UNL     1      60.877  62.190  70.033  0.00  0.00    +0.000 C 
ATOM     21  C   UNL     1      61.401  62.814  70.159  0.00  0.00    +0.000 C 
ATOM     22  C   UNL     1      61.399  63.217  70.879  0.00  0.00    +0.000 A 
ATOM     23  C   UNL     1      61.923  63.841  71.005  0.00  0.00    +0.000 A 
ENDROOT
TORSDOF 0
ENDMDL
MODEL 4
REMARK VINA RESULT:   -11.060      2.232      5.830
REMARK INTER + INTRA:         -11.060
REMARK INTER:                 -11.060
REMARK INTRA:                   0.000
REMARK UNBOUND:                 0.000
ROOT
REMARK  Name = liranaftate
REMARK                            x       y       z     vdW  Elec       q    Type
REMARK                         _______ _______ _______ _____ _____    ______ ____
ATOM      1  C   UNL     1      60.299  62.266  68.768  0.00  0.00    +0.000 C 
ATOM      2  O   UNL     1      60.552  62.666  69.445  0.00  0.00    +0.000 OA
ATOM      3  C   UNL     1      61.181  63.197  69.399  0.00  0.00    +0.000 A 
ATOM      4  N   UNL     1      61.434  63.597  70.075  0.00  0.00    +0.000 NA
ATOM      5  C   UNL     1      62.063  64.128  70.030  0.00  0.00    +0.000 A 
ATOM      6  C   UNL     1      62.441  64.259  69.308  0.00  0.00    +0.000 A 
ATOM      7  C   UNL     1      62.188  63.859  68.632  0.00  0.00    +0.000 A 
ATOM      8  C   UNL     1      61.558  63.328  68.678  0.00  0.00    +0.000 A 
ATOM      9  N   UNL     1      62.316  64.527  70.706  0.00  0.00    +0.000 N 
ATOM     10  C   UNL     1      61.939  64.396  71.428  0.00  0.00    +0.000 C 
ATOM     11  C   UNL     1      62.946  65.058  70.660  0.00  0.00    +0.000 C 
ATOM     12  S   UNL     1      63.323  65.190  69.937  0.00  0.00    +0.000 S 
ATOM     13  O   UNL     1      63.198  65.458  71.336  0.00  0.00    +0.000 OA
ATOM     14  C   UNL     1      63.828  65.989  71.289  0.00  0.00    +0.000 A 
ATOM     15  C   UNL     1      64.081  66.389  71.966  0.00  0.00    +0.000 A 
ATOM     16  C   UNL     1      64.710  66.920  71.920  0.00  0.00    +0.000 A 
ATOM     17  C   UNL     1      65.087  67.051  71.199  0.00  0.00    +0.000 A 
ATOM     18  C   UNL     1      65.717  67.582  71.153  0.00  0.00    +0.000 C 
ATOM     19  C   UNL     1      66.094  67.713  70.431  0.00  0.00    +0.000 C 
ATOM     20  C   UNL     1      65.841  67.313  69.754  0.00  0.00    +0.000 C 
ATOM     21  C   UNL     1      65.212  66.783  69.800  0.00  0.00    +0.000 C 
ATOM     22  C   UNL     1      64.835  66.651  70.522  0.00  0.00    +0.000 A 
ATOM     23  C   UNL     1      64.205  66.120  70.568  0.00  0.00    +0.000 A 
ENDROOT
TORSDOF 0
ENDMDL
MODEL 5
REMARK VINA RESULT:   -11.025      3.183      5.786
REMARK INTER + INTRA:         -11.025
REMARK INTER:                 -11.025
REMARK INTRA:                   0.000
REMARK UNBOUND:                 0.000
ROOT
REMARK  Name = liranaftate
REMARK                            x       y       z     vdW  Elec       q    Type
REMARK                         _______ _______ _______ _____ _____    ______ ____
ATOM      1  C   UNL     1      60.126  61.964  70.972  0.00  0.00    +0.000 C 
ATOM      2  O   UNL     1      60.531  62.442  70.434  0.00  0.00    +0.000 OA
ATOM      3  C   UNL     1      61.148  62.924  70.693  0.00  0.00    +0.000 A 
ATOM      4  N   UNL     1      61.552  63.401  70.155  0.00  0.00    +0.000 NA
ATOM      5  C   UNL     1      62.170  63.883  70.414  0.00  0.00    +0.000 A 
ATOM      6  C   UNL     1      62.383  63.888  71.211  0.00  0.00    +0.000 A 
ATOM      7  C   UNL     1      61.979  63.410  71.749  0.00  0.00    +0.000 A 
ATOM      8  C   UNL     1      61.361  62.929  71.489  0.00  0.00    +0.000 A 
ATOM      9  N   UNL     1      62.573  64.360  69.876  0.00  0.00    +0.000 N 
ATOM     10  C   UNL     1      62.361  64.356  69.079  0.00  0.00    +0.000 C 
ATOM     11  C   UNL     1      63.191  64.843  70.136  0.00  0.00    +0.000 C 
ATOM     12  S   UNL     1      63.405  64.847  70.933  0.00  0.00    +0.000 S 
ATOM     13  O   UNL     1      63.596  65.320  69.598  0.00  0.00    +0.000 OA
ATOM     14  C   UNL     1      64.213  65.802  69.858  0.00  0.00    +0.000 A 
ATOM     15  C   UNL     1      64.618  66.280  69.319  0.00  0.00    +0.000 A 
ATOM     16  C   UNL     1      65.235  66.761  69.578  0.00  0.00    +0.000 A 
ATOM     17  C   UNL     1      65.448  66.766  70.374  0.00  0.00    +0.000 A 
ATOM     18  C   UNL     1      66.065  67.248  70.634  0.00  0.00    +0.000 C 
ATOM     19  C   UNL     1      66.279  67.252  71.430  0.00  0.00    +0.000 C 
ATOM     20  C   UNL     1      65.874  66.774  71.969  0.00  0.00    +0.000 C 
ATOM     21  C   UNL     1      65.257  66.293  71.710  0.00  0.00    +0.000 C 
ATOM     22  C   UNL     1      65.043  66.288  70.913  0.00  0.00    +0.000 A 
ATOM     23  C   UNL     1      64.426  65.806  70.654  0.00  0.00    +0.000 A 
ENDROOT
TORSDOF 0
ENDMDL
MODEL 6
REMARK VINA RESULT:   -10.972      1.474      4.870
REMARK INTER + INTRA:         -10.972
REMARK INTER:                 -10.972
REMARK INTRA:                   0.000
REMARK UNBOUND:                 0.000
ROOT
REMARK  Name = liranaftate
REMARK                            x       y       z     vdW  Elec       q    Type
REMARK                         _______ _______ _______ _____ _____    ______ ____
ATOM      1  C   UNL     1      61.207  60.902  63.457  0.00  0.00    +0.000 C 
ATOM      2  O   UNL     1      60.725  61.152  64.080  0.00  0.00    +0.000 OA
ATOM      3  C   UNL     1      61.059  61.529  64.733  0.00  0.00    +0.000 A 
ATOM      4  N   UNL     1      60.578  61.778  65.355  0.00  0.00    +0.000 NA
ATOM      5  C   UNL     1      60.911  62.155  66.009  0.00  0.00    +0.000 A 
ATOM      6  C   UNL     1      61.726  62.283  66.040  0.00  0.00    +0.000 A 
ATOM      7  C   UNL     1      62.207  62.034  65.418  0.00  0.00    +0.000 A 
ATOM      8  C   UNL     1      61.873  61.657  64.765  0.00  0.00    +0.000 A 
ATOM      9  N   UNL     1      60.430  62.404  66.631  0.00  0.00    +0.000 N 
ATOM     10  C   UNL     1      59.616  62.277  66.600  0.00  0.00    +0.000 C 
ATOM     11  C   UNL     1      60.764  62.782  67.285  0.00  0.00    +0.000 C 
ATOM     12  S   UNL     1      61.579  62.910  67.316  0.00  0.00    +0.000 S 
ATOM     13  O   UNL     1      60.283  63.031  67.907  0.00  0.00    +0.000 OA
ATOM     14  C   UNL     1      60.617  63.408  68.560  0.00  0.00    +0.000 A 
ATOM     15  C   UNL     1      60.136  63.658  69.183  0.00  0.00    +0.000 A 
ATOM     16  C   UNL     1      60.469  64.035  69.836  0.00  0.00    +0.000 A 
ATOM     17  C   UNL     1      61.283  64.163  69.868  0.00  0.00    +0.000 A 
ATOM     18  C   UNL     1      61.617  64.540  70.521  0.00  0.00    +0.000 C 
ATOM     19  C   UNL     1      62.431  64.668  70.553  0.00  0.00    +0.000 C 
ATOM     20  C   UNL     1      62.912  64.419  69.929  0.00  0.00    +0.000 C 
ATOM     21  C   UNL     1      62.579  64.042  69.277  0.00  0.00    +0.000 C 
ATOM     22  C   UNL     1      61.764  63.913  69.245  0.00  0.00    +0.000 A 
ATOM     23  C   UNL     1      61.431  63.536  68.592  0.00  0.00    +0.000 A 
ENDROOT
TORSDOF 0
ENDMDL
MODEL 7
REMARK VINA RESULT:   -10.871      1.495      2.371
REMARK INTER + INTRA:         -10.871
REMARK INTER:                 -10.871
REMARK INTRA:                   0.000
REMARK UNBOUND:                 0.000
ROOT
REMARK  Name = liranaftate
REMARK                            x       y       z     vdW  Elec       q    Type
REMARK                         _______ _______ _______ _____ _____    ______ ____
ATOM      1  C   UNL     1      64.978  66.817  71.597  0.00  0.00    +0.000 C 
ATOM      2  O   UNL     1      64.419  66.220  71.710  0.00  0.00    +0.000 OA
ATOM      3  C   UNL     1      64.044  65.878  71.060  0.00  0.00    +0.000 A 
ATOM      4  N   UNL     1      63.486  65.282  71.173  0.00  0.00    +0.000 NA
ATOM      5  C   UNL     1      63.111  64.938  70.523  0.00  0.00    +0.000 A 
ATOM      6  C   UNL     1      63.295  65.193  69.759  0.00  0.00    +0.000 A 
ATOM      7  C   UNL     1      63.854  65.789  69.647  0.00  0.00    +0.000 A 
ATOM      8  C   UNL     1      64.228  66.131  70.297  0.00  0.00    +0.000 A 
ATOM      9  N   UNL     1      62.553  64.343  70.636  0.00  0.00    +0.000 N 
ATOM     10  C   UNL     1      62.368  64.089  71.399  0.00  0.00    +0.000 C 
ATOM     11  C   UNL     1      62.178  64.000  69.985  0.00  0.00    +0.000 C 
ATOM     12  S   UNL     1      62.362  64.254  69.221  0.00  0.00    +0.000 S 
ATOM     13  O   UNL     1      61.619  63.403  70.098  0.00  0.00    +0.000 OA
ATOM     14  C   UNL     1      61.245  63.061  69.447  0.00  0.00    +0.000 A 
ATOM     15  C   UNL     1      60.685  62.464  69.560  0.00  0.00    +0.000 A 
ATOM     16  C   UNL     1      60.311  62.121  68.910  0.00  0.00    +0.000 A 
ATOM     17  C   UNL     1      60.495  62.375  68.148  0.00  0.00    +0.000 A 
ATOM     18  C   UNL     1      60.121  62.032  67.497  0.00  0.00    +0.000 C 
ATOM     19  C   UNL     1      60.304  62.286  66.734  0.00  0.00    +0.000 C 
ATOM     20  C   UNL     1      60.864  62.883  66.621  0.00  0.00    +0.000 C 
ATOM     21  C   UNL     1      61.238  63.225  67.271  0.00  0.00    +0.000 C 
ATOM     22  C   UNL     1      61.054  62.972  68.035  0.00  0.00    +0.000 A 
ATOM     23  C   UNL     1      61.429  63.314  68.685  0.00  0.00    +0.000 A 
ENDROOT
TORSDOF 0
ENDMDL
MODEL 8
REMARK VINA RESULT:   -10.720      1.191      4.935
REMARK INTER + INTRA:         -10.720
REMARK INTER:                 -10.720
REMARK INTRA:                   0.000
REMARK UNBOUND:                 0.000
ROOT
REMARK  Name = liranaftate
REMARK                            x       y       z     vdW  Elec       q    Type
REMARK                         _______ _______ _______ _____ _____    ______ ____
ATOM      1  C   UNL     1      59.276  61.851  66.094  0.00  0.00    +0.000 C 
ATOM      2  O   UNL     1      59.376  62.018  66.897  0.00  0.00    +0.000 OA
ATOM      3  C   UNL     1      60.032  62.450  67.149  0.00  0.00    +0.000 A 
ATOM      4  N   UNL     1      60.132  62.617  67.951  0.00  0.00    +0.000 NA
ATOM      5  C   UNL     1      60.788  63.049  68.203  0.00  0.00    +0.000 A 
ATOM      6  C   UNL     1      61.344  63.314  67.653  0.00  0.00    +0.000 A 
ATOM      7  C   UNL     1      61.243  63.147  66.852  0.00  0.00    +0.000 A 
ATOM      8  C   UNL     1      60.587  62.715  66.600  0.00  0.00    +0.000 A 
ATOM      9  N   UNL     1      60.888  63.216  69.004  0.00  0.00    +0.000 N 
ATOM     10  C   UNL     1      60.333  62.951  69.554  0.00  0.00    +0.000 C 
ATOM     11  C   UNL     1      61.545  63.648  69.257  0.00  0.00    +0.000 C 
ATOM     12  S   UNL     1      62.100  63.914  68.707  0.00  0.00    +0.000 S 
ATOM     13  O   UNL     1      61.645  63.815  70.058  0.00  0.00    +0.000 OA
ATOM     14  C   UNL     1      62.301  64.248  70.310  0.00  0.00    +0.000 A 
ATOM     15  C   UNL     1      62.402  64.415  71.113  0.00  0.00    +0.000 A 
ATOM     16  C   UNL     1      63.057  64.847  71.364  0.00  0.00    +0.000 A 
ATOM     17  C   UNL     1      63.613  65.112  70.816  0.00  0.00    +0.000 A 
ATOM     18  C   UNL     1      64.269  65.544  71.067  0.00  0.00    +0.000 C 
ATOM     19  C   UNL     1      64.824  65.809  70.519  0.00  0.00    +0.000 C 
ATOM     20  C   UNL     1      64.723  65.642  69.716  0.00  0.00    +0.000 C 
ATOM     21  C   UNL     1      64.068  65.210  69.464  0.00  0.00    +0.000 C 
ATOM     22  C   UNL     1      63.512  64.944  70.013  0.00  0.00    +0.000 A 
ATOM     23  C   UNL     1      62.857  64.513  69.761  0.00  0.00    +0.000 A 
ENDROOT
TORSDOF 0
ENDMDL
MODEL 9
REMARK VINA RESULT:   -10.551      1.598      5.076
REMARK INTER + INTRA:         -10.551
REMARK INTER:                 -10.551
REMARK INTRA:                   0.000
REMARK UNBOUND:                 0.000
ROOT
REMARK  Name = liranaftate
REMARK                            x       y       z     vdW  Elec       q    Type
REMARK                         _______ _______ _______ _____ _____    ______ ____
ATOM      1  C   UNL     1      61.056  61.848  65.204  0.00  0.00    +0.000 C 
ATOM      2  O   UNL     1      60.784  61.665  65.962  0.00  0.00    +0.000 OA
ATOM      3  C   UNL     1      61.019  62.123  66.606  0.00  0.00    +0.000 A 
ATOM      4  N   UNL     1      60.748  61.941  67.363  0.00  0.00    +0.000 NA
ATOM      5  C   UNL     1      60.982  62.399  68.008  0.00  0.00    +0.000 A 
ATOM      6  C   UNL     1      61.490  63.040  67.895  0.00  0.00    +0.000 A 
ATOM      7  C   UNL     1      61.761  63.223  67.137  0.00  0.00    +0.000 A 
ATOM      8  C   UNL     1      61.526  62.764  66.493  0.00  0.00    +0.000 A 
ATOM      9  N   UNL     1      60.711  62.216  68.764  0.00  0.00    +0.000 N 
ATOM     10  C   UNL     1      60.204  61.576  68.878  0.00  0.00    +0.000 C 
ATOM     11  C   UNL     1      60.946  62.675  69.409  0.00  0.00    +0.000 C 
ATOM     12  S   UNL     1      61.453  63.317  69.296  0.00  0.00    +0.000 S 
ATOM     13  O   UNL     1      60.674  62.493  70.166  0.00  0.00    +0.000 OA
ATOM     14  C   UNL     1      60.910  62.951  70.810  0.00  0.00    +0.000 A 
ATOM     15  C   UNL     1      60.638  62.769  71.569  0.00  0.00    +0.000 A 
ATOM     16  C   UNL     1      60.873  63.227  72.212  0.00  0.00    +0.000 A 
ATOM     17  C   UNL     1      61.379  63.867  72.100  0.00  0.00    +0.000 A 
ATOM     18  C   UNL     1      61.615  64.326  72.744  0.00  0.00    +0.000 C 
ATOM     19  C   UNL     1      62.121  64.967  72.631  0.00  0.00    +0.000 C 
ATOM     20  C   UNL     1      62.393  65.150  71.873  0.00  0.00    +0.000 C 
ATOM     21  C   UNL     1      62.158  64.692  71.229  0.00  0.00    +0.000 C 
ATOM     22  C   UNL     1      61.651  64.050  71.342  0.00  0.00    +0.000 A 
ATOM     23  C   UNL     1      61.416  63.592  70.698  0.00  0.00    +0.000 A 
ENDROOT
TORSDOF 0
ENDMDL
