MODEL 1
REMARK VINA RESULT:   -10.776      0.000      0.000
REMARK INTER + INTRA:         -10.776
REMARK INTER:                 -10.776
REMARK INTRA:                   0.000
REMARK UNBOUND:                 0.000
ROOT
REMARK  Name = lisdexamfetamine
REMARK                            x       y       z     vdW  Elec       q    Type
REMARK                         _______ _______ _______ _____ _____    ______ ____
ATOM      1  C   UNL     1      60.740  62.055  66.357  0.00  0.00    +0.000 C 
ATOM      2  C   UNL     1      61.439  62.480  66.469  0.00  0.00    +0.000 C 
ATOM      3  C   UNL     1      62.004  62.511  65.869  0.00  0.00    +0.000 C 
ATOM      4  C   UNL     1      61.869  62.117  65.155  0.00  0.00    +0.000 A 
ATOM      5  C   UNL     1      62.435  62.149  64.554  0.00  0.00    +0.000 A 
ATOM      6  C   UNL     1      62.300  61.755  63.842  0.00  0.00    +0.000 A 
ATOM      7  C   UNL     1      61.602  61.331  63.730  0.00  0.00    +0.000 A 
ATOM      8  C   UNL     1      61.038  61.300  64.330  0.00  0.00    +0.000 A 
ATOM      9  C   UNL     1      61.171  61.693  65.043  0.00  0.00    +0.000 A 
ATOM     10  N   UNL     1      61.573  62.873  67.181  0.00  0.00    +0.000 NA
ATOM     11  C   UNL     1      61.008  62.842  67.782  0.00  0.00    +0.000 C 
ATOM     12  O   UNL     1      60.309  62.417  67.670  0.00  0.00    +0.000 OA
ATOM     13  C   UNL     1      61.142  63.235  68.495  0.00  0.00    +0.000 C 
ATOM     14  N   UNL     1      61.840  63.659  68.607  0.00  0.00    +0.000 NA
ATOM     15  C   UNL     1      60.577  63.204  69.096  0.00  0.00    +0.000 C 
ATOM     16  C   UNL     1      60.711  63.598  69.808  0.00  0.00    +0.000 C 
ATOM     17  C   UNL     1      60.146  63.566  70.409  0.00  0.00    +0.000 C 
ATOM     18  C   UNL     1      60.281  63.960  71.122  0.00  0.00    +0.000 C 
ATOM     19  N   UNL     1      59.715  63.928  71.723  0.00  0.00    +0.000 NA
ENDROOT
TORSDOF 0
ENDMDL
MODEL 2
REMARK VINA RESULT:   -10.061      1.355      5.320
REMARK INTER + INTRA:         -10.061
REMARK INTER:                 -10.061
REMARK INTRA:                   0.000
REMARK UNBOUND:                 0.000
ROOT
REMARK  Name = lisdexamfetamine
REMARK                            x       y       z     vdW  Elec       q    Type
REMARK                         _______ _______ _______ _____ _____    ______ ____
ATOM      1  C   UNL     1      61.075  63.222  68.643  0.00  0.00    +0.000 C 
ATOM      2  C   UNL     1      60.954  62.406  68.625  0.00  0.00    +0.000 C 
ATOM      3  C   UNL     1      60.666  62.016  69.292  0.00  0.00    +0.000 C 
ATOM      4  C   UNL     1      60.499  62.443  69.979  0.00  0.00    +0.000 A 
ATOM      5  C   UNL     1      60.210  62.052  70.647  0.00  0.00    +0.000 A 
ATOM      6  C   UNL     1      60.043  62.479  71.333  0.00  0.00    +0.000 A 
ATOM      7  C   UNL     1      60.164  63.295  71.351  0.00  0.00    +0.000 A 
ATOM      8  C   UNL     1      60.452  63.684  70.684  0.00  0.00    +0.000 A 
ATOM      9  C   UNL     1      60.620  63.258  69.997  0.00  0.00    +0.000 A 
ATOM     10  N   UNL     1      61.121  61.979  67.939  0.00  0.00    +0.000 NA
ATOM     11  C   UNL     1      61.410  62.369  67.271  0.00  0.00    +0.000 C 
ATOM     12  O   UNL     1      61.530  63.185  67.289  0.00  0.00    +0.000 OA
ATOM     13  C   UNL     1      61.577  61.942  66.585  0.00  0.00    +0.000 C 
ATOM     14  N   UNL     1      61.456  61.127  66.567  0.00  0.00    +0.000 NA
ATOM     15  C   UNL     1      61.865  62.332  65.917  0.00  0.00    +0.000 C 
ATOM     16  C   UNL     1      62.032  61.906  65.231  0.00  0.00    +0.000 C 
ATOM     17  C   UNL     1      62.320  62.296  64.563  0.00  0.00    +0.000 C 
ATOM     18  C   UNL     1      62.487  61.869  63.877  0.00  0.00    +0.000 C 
ATOM     19  N   UNL     1      62.776  62.259  63.209  0.00  0.00    +0.000 NA
ENDROOT
TORSDOF 0
ENDMDL
MODEL 3
REMARK VINA RESULT:    -9.744      4.403      6.109
REMARK INTER + INTRA:          -9.744
REMARK INTER:                  -9.744
REMARK INTRA:                   0.000
REMARK UNBOUND:                 0.000
ROOT
REMARK  Name = lisdexamfetamine
REMARK                            x       y       z     vdW  Elec       q    Type
REMARK                         _______ _______ _______ _____ _____    ______ ____
ATOM      1  C   UNL     1      64.157  65.459  70.027  0.00  0.00    +0.000 C 
ATOM      2  C   UNL     1      63.968  65.572  70.822  0.00  0.00    +0.000 C 
ATOM      3  C   UNL     1      64.353  66.156  71.258  0.00  0.00    +0.000 C 
ATOM      4  C   UNL     1      64.927  66.629  70.899  0.00  0.00    +0.000 A 
ATOM      5  C   UNL     1      65.312  67.214  71.335  0.00  0.00    +0.000 A 
ATOM      6  C   UNL     1      65.886  67.685  70.976  0.00  0.00    +0.000 A 
ATOM      7  C   UNL     1      66.074  67.572  70.181  0.00  0.00    +0.000 A 
ATOM      8  C   UNL     1      65.689  66.988  69.745  0.00  0.00    +0.000 A 
ATOM      9  C   UNL     1      65.116  66.515  70.104  0.00  0.00    +0.000 A 
ATOM     10  N   UNL     1      63.395  65.100  71.181  0.00  0.00    +0.000 NA
ATOM     11  C   UNL     1      63.010  64.515  70.745  0.00  0.00    +0.000 C 
ATOM     12  O   UNL     1      63.198  64.402  69.950  0.00  0.00    +0.000 OA
ATOM     13  C   UNL     1      62.436  64.043  71.105  0.00  0.00    +0.000 C 
ATOM     14  N   UNL     1      62.248  64.156  71.899  0.00  0.00    +0.000 NA
ATOM     15  C   UNL     1      62.051  63.458  70.668  0.00  0.00    +0.000 C 
ATOM     16  C   UNL     1      61.478  62.987  71.028  0.00  0.00    +0.000 C 
ATOM     17  C   UNL     1      61.092  62.401  70.591  0.00  0.00    +0.000 C 
ATOM     18  C   UNL     1      60.519  61.930  70.951  0.00  0.00    +0.000 C 
ATOM     19  N   UNL     1      60.134  61.344  70.514  0.00  0.00    +0.000 NA
ENDROOT
TORSDOF 0
ENDMDL
MODEL 4
REMARK VINA RESULT:    -9.406      4.183      5.697
REMARK INTER + INTRA:          -9.406
REMARK INTER:                  -9.406
REMARK INTRA:                   0.000
REMARK UNBOUND:                 0.000
ROOT
REMARK  Name = lisdexamfetamine
REMARK                            x       y       z     vdW  Elec       q    Type
REMARK                         _______ _______ _______ _____ _____    ______ ____
ATOM      1  C   UNL     1      62.103  64.218  71.185  0.00  0.00    +0.000 C 
ATOM      2  C   UNL     1      62.384  63.888  70.483  0.00  0.00    +0.000 C 
ATOM      3  C   UNL     1      62.029  63.211  70.174  0.00  0.00    +0.000 C 
ATOM      4  C   UNL     1      61.391  62.864  70.567  0.00  0.00    +0.000 A 
ATOM      5  C   UNL     1      61.036  62.186  70.257  0.00  0.00    +0.000 A 
ATOM      6  C   UNL     1      60.399  61.839  70.651  0.00  0.00    +0.000 A 
ATOM      7  C   UNL     1      60.118  62.169  71.353  0.00  0.00    +0.000 A 
ATOM      8  C   UNL     1      60.473  62.846  71.661  0.00  0.00    +0.000 A 
ATOM      9  C   UNL     1      61.110  63.194  71.269  0.00  0.00    +0.000 A 
ATOM     10  N   UNL     1      63.021  64.235  70.090  0.00  0.00    +0.000 NA
ATOM     11  C   UNL     1      63.377  64.913  70.399  0.00  0.00    +0.000 C 
ATOM     12  O   UNL     1      63.096  65.242  71.101  0.00  0.00    +0.000 OA
ATOM     13  C   UNL     1      64.014  65.259  70.006  0.00  0.00    +0.000 C 
ATOM     14  N   UNL     1      64.295  64.930  69.305  0.00  0.00    +0.000 NA
ATOM     15  C   UNL     1      64.370  65.937  70.315  0.00  0.00    +0.000 C 
ATOM     16  C   UNL     1      65.007  66.284  69.922  0.00  0.00    +0.000 C 
ATOM     17  C   UNL     1      65.362  66.961  70.232  0.00  0.00    +0.000 C 
ATOM     18  C   UNL     1      65.999  67.308  69.838  0.00  0.00    +0.000 C 
ATOM     19  N   UNL     1      66.355  67.986  70.148  0.00  0.00    +0.000 NA
ENDROOT
TORSDOF 0
ENDMDL
MODEL 5
REMARK VINA RESULT:    -9.364      2.053      2.786
REMARK INTER + INTRA:          -9.364
REMARK INTER:                  -9.364
REMARK INTRA:                   0.000
REMARK UNBOUND:                 0.000
ROOT
REMARK  Name = lisdexamfetamine
REMARK                            x       y       z     vdW  Elec       q    Type
REMARK                         _______ _______ _______ _____ _____    ______ ____
ATOM      1  C   UNL     1      61.577  63.168  67.664  0.00  0.00    +0.000 C 
ATOM      2  C   UNL     1      60.883  63.360  68.066  0.00  0.00    +0.000 C 
ATOM      3  C   UNL     1      60.154  63.102  67.778  0.00  0.00    +0.000 C 
ATOM      4  C   UNL     1      60.120  62.651  67.087  0.00  0.00    +0.000 A 
ATOM      5  C   UNL     1      59.391  62.392  66.799  0.00  0.00    +0.000 A 
ATOM      6  C   UNL     1      59.358  61.941  66.109  0.00  0.00    +0.000 A 
ATOM      7  C   UNL     1      60.052  61.749  65.707  0.00  0.00    +0.000 A 
ATOM      8  C   UNL     1      60.780  62.007  65.995  0.00  0.00    +0.000 A 
ATOM      9  C   UNL     1      60.815  62.458  66.686  0.00  0.00    +0.000 A 
ATOM     10  N   UNL     1      60.916  63.811  68.756  0.00  0.00    +0.000 NA
ATOM     11  C   UNL     1      61.645  64.069  69.044  0.00  0.00    +0.000 C 
ATOM     12  O   UNL     1      62.340  63.877  68.643  0.00  0.00    +0.000 OA
ATOM     13  C   UNL     1      61.679  64.520  69.734  0.00  0.00    +0.000 C 
ATOM     14  N   UNL     1      60.985  64.712  70.136  0.00  0.00    +0.000 NA
ATOM     15  C   UNL     1      62.408  64.779  70.023  0.00  0.00    +0.000 C 
ATOM     16  C   UNL     1      62.441  65.230  70.713  0.00  0.00    +0.000 C 
ATOM     17  C   UNL     1      63.170  65.488  71.001  0.00  0.00    +0.000 C 
ATOM     18  C   UNL     1      63.204  65.939  71.691  0.00  0.00    +0.000 C 
ATOM     19  N   UNL     1      63.933  66.198  71.980  0.00  0.00    +0.000 NA
ENDROOT
TORSDOF 0
ENDMDL
MODEL 6
REMARK VINA RESULT:    -8.947      2.829      5.523
REMARK INTER + INTRA:          -8.947
REMARK INTER:                  -8.947
REMARK INTRA:                   0.000
REMARK UNBOUND:                 0.000
ROOT
REMARK  Name = lisdexamfetamine
REMARK                            x       y       z     vdW  Elec       q    Type
REMARK                         _______ _______ _______ _____ _____    ______ ____
ATOM      1  C   UNL     1      63.197  64.611  69.502  0.00  0.00    +0.000 C 
ATOM      2  C   UNL     1      62.514  64.877  69.881  0.00  0.00    +0.000 C 
ATOM      3  C   UNL     1      62.571  65.381  70.531  0.00  0.00    +0.000 C 
ATOM      4  C   UNL     1      63.314  65.620  70.802  0.00  0.00    +0.000 A 
ATOM      5  C   UNL     1      63.372  66.125  71.453  0.00  0.00    +0.000 A 
ATOM      6  C   UNL     1      64.114  66.363  71.724  0.00  0.00    +0.000 A 
ATOM      7  C   UNL     1      64.797  66.098  71.345  0.00  0.00    +0.000 A 
ATOM      8  C   UNL     1      64.738  65.593  70.696  0.00  0.00    +0.000 A 
ATOM      9  C   UNL     1      63.997  65.354  70.424  0.00  0.00    +0.000 A 
ATOM     10  N   UNL     1      61.772  64.639  69.610  0.00  0.00    +0.000 NA
ATOM     11  C   UNL     1      61.713  64.134  68.959  0.00  0.00    +0.000 C 
ATOM     12  O   UNL     1      62.396  63.868  68.580  0.00  0.00    +0.000 OA
ATOM     13  C   UNL     1      60.972  63.896  68.688  0.00  0.00    +0.000 C 
ATOM     14  N   UNL     1      60.289  64.161  69.066  0.00  0.00    +0.000 NA
ATOM     15  C   UNL     1      60.913  63.391  68.037  0.00  0.00    +0.000 C 
ATOM     16  C   UNL     1      60.172  63.152  67.766  0.00  0.00    +0.000 C 
ATOM     17  C   UNL     1      60.113  62.648  67.116  0.00  0.00    +0.000 C 
ATOM     18  C   UNL     1      59.371  62.409  66.845  0.00  0.00    +0.000 C 
ATOM     19  N   UNL     1      59.313  61.904  66.194  0.00  0.00    +0.000 NA
ENDROOT
TORSDOF 0
ENDMDL
MODEL 7
REMARK VINA RESULT:    -8.389      6.640      7.736
REMARK INTER + INTRA:          -8.389
REMARK INTER:                  -8.389
REMARK INTRA:                   0.000
REMARK UNBOUND:                 0.000
ROOT
REMARK  Name = lisdexamfetamine
REMARK                            x       y       z     vdW  Elec       q    Type
REMARK                         _______ _______ _______ _____ _____    ______ ____
ATOM      1  C   UNL     1      60.680  65.617  72.392  0.00  0.00    +0.000 C 
ATOM      2  C   UNL     1      60.664  66.409  72.626  0.00  0.00    +0.000 C 
ATOM      3  C   UNL     1      59.957  66.749  72.882  0.00  0.00    +0.000 C 
ATOM      4  C   UNL     1      59.267  66.297  72.905  0.00  0.00    +0.000 A 
ATOM      5  C   UNL     1      58.560  66.637  73.162  0.00  0.00    +0.000 A 
ATOM      6  C   UNL     1      57.870  66.185  73.185  0.00  0.00    +0.000 A 
ATOM      7  C   UNL     1      57.887  65.393  72.951  0.00  0.00    +0.000 A 
ATOM      8  C   UNL     1      58.593  65.054  72.695  0.00  0.00    +0.000 A 
ATOM      9  C   UNL     1      59.284  65.505  72.672  0.00  0.00    +0.000 A 
ATOM     10  N   UNL     1      61.353  66.860  72.603  0.00  0.00    +0.000 NA
ATOM     11  C   UNL     1      62.061  66.520  72.346  0.00  0.00    +0.000 C 
ATOM     12  O   UNL     1      62.077  65.729  72.112  0.00  0.00    +0.000 OA
ATOM     13  C   UNL     1      62.750  66.972  72.323  0.00  0.00    +0.000 C 
ATOM     14  N   UNL     1      62.734  67.763  72.556  0.00  0.00    +0.000 NA
ATOM     15  C   UNL     1      63.458  66.632  72.066  0.00  0.00    +0.000 C 
ATOM     16  C   UNL     1      64.147  67.084  72.043  0.00  0.00    +0.000 C 
ATOM     17  C   UNL     1      64.854  66.744  71.787  0.00  0.00    +0.000 C 
ATOM     18  C   UNL     1      65.544  67.196  71.764  0.00  0.00    +0.000 C 
ATOM     19  N   UNL     1      66.251  66.856  71.507  0.00  0.00    +0.000 NA
ENDROOT
TORSDOF 0
ENDMDL
