MODEL 1
REMARK VINA RESULT:   -12.350      0.000      0.000
REMARK INTER + INTRA:         -12.350
REMARK INTER:                 -12.350
REMARK INTRA:                   0.000
REMARK UNBOUND:                 0.000
ROOT
REMARK  Name = lisuride
REMARK                            x       y       z     vdW  Elec       q    Type
REMARK                         _______ _______ _______ _____ _____    ______ ____
ATOM      1  C   UNL     1      62.815  64.658  69.821  0.00  0.00    +0.000 C 
ATOM      2  C   UNL     1      62.589  64.249  69.141  0.00  0.00    +0.000 C 
ATOM      3  N   UNL     1      61.811  63.989  69.056  0.00  0.00    +0.000 N 
ATOM      4  C   UNL     1      61.258  64.139  69.652  0.00  0.00    +0.000 C 
ATOM      5  C   UNL     1      60.481  63.879  69.567  0.00  0.00    +0.000 C 
ATOM      6  C   UNL     1      61.584  63.580  68.377  0.00  0.00    +0.000 C 
ATOM      7  O   UNL     1      62.136  63.430  67.782  0.00  0.00    +0.000 OA
ATOM      8  N   UNL     1      60.806  63.320  68.292  0.00  0.00    +0.000 NA
ATOM      9  C   UNL     1      60.580  62.911  67.612  0.00  0.00    +0.000 C 
ATOM     10  C   UNL     1      59.801  62.651  67.527  0.00  0.00    +0.000 C 
ATOM     11  N   UNL     1      59.575  62.242  66.848  0.00  0.00    +0.000 NA
ATOM     12  C   UNL     1      58.796  61.982  66.763  0.00  0.00    +0.000 C 
ATOM     13  C   UNL     1      60.127  62.093  66.253  0.00  0.00    +0.000 C 
ATOM     14  C   UNL     1      59.900  61.684  65.574  0.00  0.00    +0.000 C 
ATOM     15  C   UNL     1      60.452  61.534  64.979  0.00  0.00    +0.000 C 
ATOM     16  C   UNL     1      60.390  61.147  64.253  0.00  0.00    +0.000 C 
ATOM     17  N   UNL     1      61.130  61.167  63.889  0.00  0.00    +0.000 NA
ATOM     18  C   UNL     1      61.650  61.567  64.391  0.00  0.00    +0.000 C 
ATOM     19  C   UNL     1      62.450  61.754  64.320  0.00  0.00    +0.000 C 
ATOM     20  C   UNL     1      62.831  62.167  64.924  0.00  0.00    +0.000 C 
ATOM     21  C   UNL     1      62.412  62.394  65.598  0.00  0.00    +0.000 C 
ATOM     22  C   UNL     1      61.457  62.203  65.744  0.00  0.00    +0.000 C 
ATOM     23  C   UNL     1      61.230  61.794  65.064  0.00  0.00    +0.000 C 
ATOM     24  C   UNL     1      60.905  62.352  66.338  0.00  0.00    +0.000 C 
ATOM     25  C   UNL     1      61.132  62.762  67.018  0.00  0.00    +0.000 C 
ENDROOT
TORSDOF 0
ENDMDL
MODEL 2
REMARK VINA RESULT:   -11.416      1.593      5.575
REMARK INTER + INTRA:         -11.416
REMARK INTER:                 -11.416
REMARK INTRA:                   0.000
REMARK UNBOUND:                 0.000
ROOT
REMARK  Name = lisuride
REMARK                            x       y       z     vdW  Elec       q    Type
REMARK                         _______ _______ _______ _____ _____    ______ ____
ATOM      1  C   UNL     1      59.332  62.091  66.477  0.00  0.00    +0.000 C 
ATOM      2  C   UNL     1      59.623  62.380  67.193  0.00  0.00    +0.000 C 
ATOM      3  N   UNL     1      60.378  62.710  67.227  0.00  0.00    +0.000 N 
ATOM      4  C   UNL     1      60.842  62.751  66.545  0.00  0.00    +0.000 C 
ATOM      5  C   UNL     1      61.596  63.081  66.580  0.00  0.00    +0.000 C 
ATOM      6  C   UNL     1      60.671  62.999  67.942  0.00  0.00    +0.000 C 
ATOM      7  O   UNL     1      60.207  62.957  68.624  0.00  0.00    +0.000 OA
ATOM      8  N   UNL     1      61.425  63.328  67.977  0.00  0.00    +0.000 NA
ATOM      9  C   UNL     1      61.717  63.617  68.693  0.00  0.00    +0.000 C 
ATOM     10  C   UNL     1      62.472  63.948  68.727  0.00  0.00    +0.000 C 
ATOM     11  N   UNL     1      62.764  64.236  69.442  0.00  0.00    +0.000 NA
ATOM     12  C   UNL     1      63.520  64.567  69.476  0.00  0.00    +0.000 C 
ATOM     13  C   UNL     1      62.301  64.195  70.124  0.00  0.00    +0.000 C 
ATOM     14  C   UNL     1      62.592  64.483  70.839  0.00  0.00    +0.000 C 
ATOM     15  C   UNL     1      62.129  64.442  71.521  0.00  0.00    +0.000 C 
ATOM     16  C   UNL     1      62.269  64.679  72.298  0.00  0.00    +0.000 C 
ATOM     17  N   UNL     1      61.600  64.496  72.744  0.00  0.00    +0.000 NA
ATOM     18  C   UNL     1      61.047  64.145  72.243  0.00  0.00    +0.000 C 
ATOM     19  C   UNL     1      60.287  63.852  72.377  0.00  0.00    +0.000 C 
ATOM     20  C   UNL     1      59.856  63.525  71.755  0.00  0.00    +0.000 C 
ATOM     21  C   UNL     1      60.183  63.491  70.998  0.00  0.00    +0.000 C 
ATOM     22  C   UNL     1      61.082  63.823  70.771  0.00  0.00    +0.000 C 
ATOM     23  C   UNL     1      61.374  64.111  71.487  0.00  0.00    +0.000 C 
ATOM     24  C   UNL     1      61.546  63.864  70.090  0.00  0.00    +0.000 C 
ATOM     25  C   UNL     1      61.253  63.575  69.374  0.00  0.00    +0.000 C 
ENDROOT
TORSDOF 0
ENDMDL
MODEL 3
REMARK VINA RESULT:   -11.387      3.392      5.393
REMARK INTER + INTRA:         -11.387
REMARK INTER:                 -11.387
REMARK INTRA:                   0.000
REMARK UNBOUND:                 0.000
ROOT
REMARK  Name = lisuride
REMARK                            x       y       z     vdW  Elec       q    Type
REMARK                         _______ _______ _______ _____ _____    ______ ____
ATOM      1  C   UNL     1      65.528  66.926  71.713  0.00  0.00    +0.000 C 
ATOM      2  C   UNL     1      64.925  66.368  71.636  0.00  0.00    +0.000 C 
ATOM      3  N   UNL     1      64.662  66.147  70.887  0.00  0.00    +0.000 N 
ATOM      4  C   UNL     1      65.001  66.484  70.214  0.00  0.00    +0.000 C 
ATOM      5  C   UNL     1      64.738  66.263  69.465  0.00  0.00    +0.000 C 
ATOM      6  C   UNL     1      64.060  65.589  70.808  0.00  0.00    +0.000 C 
ATOM      7  O   UNL     1      63.720  65.252  71.482  0.00  0.00    +0.000 OA
ATOM      8  N   UNL     1      63.797  65.368  70.060  0.00  0.00    +0.000 NA
ATOM      9  C   UNL     1      63.193  64.809  69.982  0.00  0.00    +0.000 C 
ATOM     10  C   UNL     1      62.930  64.588  69.232  0.00  0.00    +0.000 C 
ATOM     11  N   UNL     1      62.328  64.030  69.155  0.00  0.00    +0.000 NA
ATOM     12  C   UNL     1      62.064  63.809  68.404  0.00  0.00    +0.000 C 
ATOM     13  C   UNL     1      61.988  63.693  69.827  0.00  0.00    +0.000 C 
ATOM     14  C   UNL     1      61.386  63.135  69.750  0.00  0.00    +0.000 C 
ATOM     15  C   UNL     1      61.047  62.798  70.422  0.00  0.00    +0.000 C 
ATOM     16  C   UNL     1      60.449  62.238  70.517  0.00  0.00    +0.000 C 
ATOM     17  N   UNL     1      60.342  62.113  71.325  0.00  0.00    +0.000 NA
ATOM     18  C   UNL     1      60.875  62.596  71.730  0.00  0.00    +0.000 C 
ATOM     19  C   UNL     1      61.019  62.705  72.535  0.00  0.00    +0.000 C 
ATOM     20  C   UNL     1      61.599  63.237  72.782  0.00  0.00    +0.000 C 
ATOM     21  C   UNL     1      62.035  63.660  72.223  0.00  0.00    +0.000 C 
ATOM     22  C   UNL     1      61.913  63.577  71.250  0.00  0.00    +0.000 C 
ATOM     23  C   UNL     1      61.310  63.019  71.172  0.00  0.00    +0.000 C 
ATOM     24  C   UNL     1      62.252  63.914  70.577  0.00  0.00    +0.000 C 
ATOM     25  C   UNL     1      62.855  64.473  70.655  0.00  0.00    +0.000 C 
ENDROOT
TORSDOF 0
ENDMDL
MODEL 4
REMARK VINA RESULT:   -11.275      3.765      6.389
REMARK INTER + INTRA:         -11.275
REMARK INTER:                 -11.275
REMARK INTRA:                   0.000
REMARK UNBOUND:                 0.000
ROOT
REMARK  Name = lisuride
REMARK                            x       y       z     vdW  Elec       q    Type
REMARK                         _______ _______ _______ _____ _____    ______ ____
ATOM      1  C   UNL     1      60.503  62.000  69.618  0.00  0.00    +0.000 C 
ATOM      2  C   UNL     1      61.029  62.608  69.805  0.00  0.00    +0.000 C 
ATOM      3  N   UNL     1      60.936  63.031  70.508  0.00  0.00    +0.000 N 
ATOM      4  C   UNL     1      60.318  62.845  71.022  0.00  0.00    +0.000 C 
ATOM      5  C   UNL     1      60.225  63.267  71.724  0.00  0.00    +0.000 C 
ATOM      6  C   UNL     1      61.461  63.638  70.697  0.00  0.00    +0.000 C 
ATOM      7  O   UNL     1      62.080  63.823  70.182  0.00  0.00    +0.000 OA
ATOM      8  N   UNL     1      61.368  64.060  71.398  0.00  0.00    +0.000 NA
ATOM      9  C   UNL     1      61.894  64.668  71.587  0.00  0.00    +0.000 C 
ATOM     10  C   UNL     1      61.801  65.091  72.289  0.00  0.00    +0.000 C 
ATOM     11  N   UNL     1      62.326  65.698  72.478  0.00  0.00    +0.000 NA
ATOM     12  C   UNL     1      62.233  66.121  73.181  0.00  0.00    +0.000 C 
ATOM     13  C   UNL     1      62.945  65.884  71.964  0.00  0.00    +0.000 C 
ATOM     14  C   UNL     1      63.470  66.491  72.152  0.00  0.00    +0.000 C 
ATOM     15  C   UNL     1      64.088  66.676  71.638  0.00  0.00    +0.000 C 
ATOM     16  C   UNL     1      64.687  67.242  71.676  0.00  0.00    +0.000 C 
ATOM     17  N   UNL     1      65.150  67.169  70.998  0.00  0.00    +0.000 NA
ATOM     18  C   UNL     1      64.837  66.558  70.540  0.00  0.00    +0.000 C 
ATOM     19  C   UNL     1      65.066  66.240  69.813  0.00  0.00    +0.000 C 
ATOM     20  C   UNL     1      64.637  65.618  69.483  0.00  0.00    +0.000 C 
ATOM     21  C   UNL     1      63.980  65.313  69.879  0.00  0.00    +0.000 C 
ATOM     22  C   UNL     1      63.655  65.646  70.747  0.00  0.00    +0.000 C 
ATOM     23  C   UNL     1      64.181  66.254  70.936  0.00  0.00    +0.000 C 
ATOM     24  C   UNL     1      63.038  65.461  71.261  0.00  0.00    +0.000 C 
ATOM     25  C   UNL     1      62.512  64.853  71.073  0.00  0.00    +0.000 C 
ENDROOT
TORSDOF 0
ENDMDL
MODEL 5
REMARK VINA RESULT:   -11.078      1.342      5.156
REMARK INTER + INTRA:         -11.078
REMARK INTER:                 -11.078
REMARK INTRA:                   0.000
REMARK UNBOUND:                 0.000
ROOT
REMARK  Name = lisuride
REMARK                            x       y       z     vdW  Elec       q    Type
REMARK                         _______ _______ _______ _____ _____    ______ ____
ATOM      1  C   UNL     1      61.423  62.357  65.771  0.00  0.00    +0.000 C 
ATOM      2  C   UNL     1      61.647  62.713  66.481  0.00  0.00    +0.000 C 
ATOM      3  N   UNL     1      61.101  62.786  67.096  0.00  0.00    +0.000 N 
ATOM      4  C   UNL     1      60.331  62.503  67.000  0.00  0.00    +0.000 C 
ATOM      5  C   UNL     1      59.786  62.577  67.613  0.00  0.00    +0.000 C 
ATOM      6  C   UNL     1      61.324  63.142  67.806  0.00  0.00    +0.000 C 
ATOM      7  O   UNL     1      62.093  63.425  67.901  0.00  0.00    +0.000 OA
ATOM      8  N   UNL     1      60.778  63.216  68.419  0.00  0.00    +0.000 NA
ATOM      9  C   UNL     1      61.002  63.572  69.130  0.00  0.00    +0.000 C 
ATOM     10  C   UNL     1      60.456  63.645  69.744  0.00  0.00    +0.000 C 
ATOM     11  N   UNL     1      60.679  64.001  70.453  0.00  0.00    +0.000 NA
ATOM     12  C   UNL     1      60.133  64.075  71.068  0.00  0.00    +0.000 C 
ATOM     13  C   UNL     1      61.448  64.284  70.549  0.00  0.00    +0.000 C 
ATOM     14  C   UNL     1      61.672  64.640  71.259  0.00  0.00    +0.000 C 
ATOM     15  C   UNL     1      62.441  64.923  71.355  0.00  0.00    +0.000 C 
ATOM     16  C   UNL     1      62.816  65.296  71.987  0.00  0.00    +0.000 C 
ATOM     17  N   UNL     1      63.595  65.454  71.764  0.00  0.00    +0.000 NA
ATOM     18  C   UNL     1      63.700  65.177  70.993  0.00  0.00    +0.000 C 
ATOM     19  C   UNL     1      64.353  65.182  70.489  0.00  0.00    +0.000 C 
ATOM     20  C   UNL     1      64.293  64.859  69.733  0.00  0.00    +0.000 C 
ATOM     21  C   UNL     1      63.579  64.531  69.480  0.00  0.00    +0.000 C 
ATOM     22  C   UNL     1      62.763  64.493  70.030  0.00  0.00    +0.000 C 
ATOM     23  C   UNL     1      62.987  64.850  70.741  0.00  0.00    +0.000 C 
ATOM     24  C   UNL     1      61.994  64.211  69.935  0.00  0.00    +0.000 C 
ATOM     25  C   UNL     1      61.771  63.854  69.225  0.00  0.00    +0.000 C 
ENDROOT
TORSDOF 0
ENDMDL
MODEL 6
REMARK VINA RESULT:   -10.960      5.935      7.349
REMARK INTER + INTRA:         -10.960
REMARK INTER:                 -10.960
REMARK INTRA:                   0.000
REMARK UNBOUND:                 0.000
ROOT
REMARK  Name = lisuride
REMARK                            x       y       z     vdW  Elec       q    Type
REMARK                         _______ _______ _______ _____ _____    ______ ____
ATOM      1  C   UNL     1      58.972  64.635  72.235  0.00  0.00    +0.000 C 
ATOM      2  C   UNL     1      59.746  64.890  72.107  0.00  0.00    +0.000 C 
ATOM      3  N   UNL     1      60.003  65.604  72.432  0.00  0.00    +0.000 N 
ATOM      4  C   UNL     1      59.487  66.062  72.885  0.00  0.00    +0.000 C 
ATOM      5  C   UNL     1      59.744  66.774  73.210  0.00  0.00    +0.000 C 
ATOM      6  C   UNL     1      60.777  65.860  72.306  0.00  0.00    +0.000 C 
ATOM      7  O   UNL     1      61.294  65.402  71.853  0.00  0.00    +0.000 OA
ATOM      8  N   UNL     1      61.034  66.572  72.631  0.00  0.00    +0.000 NA
ATOM      9  C   UNL     1      61.809  66.828  72.504  0.00  0.00    +0.000 C 
ATOM     10  C   UNL     1      62.067  67.541  72.829  0.00  0.00    +0.000 C 
ATOM     11  N   UNL     1      62.840  67.796  72.702  0.00  0.00    +0.000 NA
ATOM     12  C   UNL     1      63.098  68.510  73.027  0.00  0.00    +0.000 C 
ATOM     13  C   UNL     1      63.357  67.339  72.250  0.00  0.00    +0.000 C 
ATOM     14  C   UNL     1      64.131  67.594  72.123  0.00  0.00    +0.000 C 
ATOM     15  C   UNL     1      64.648  67.137  71.671  0.00  0.00    +0.000 C 
ATOM     16  C   UNL     1      65.436  67.246  71.454  0.00  0.00    +0.000 C 
ATOM     17  N   UNL     1      65.666  66.601  70.994  0.00  0.00    +0.000 NA
ATOM     18  C   UNL     1      65.019  66.092  70.928  0.00  0.00    +0.000 C 
ATOM     19  C   UNL     1      64.923  65.370  70.540  0.00  0.00    +0.000 C 
ATOM     20  C   UNL     1      64.197  64.980  70.571  0.00  0.00    +0.000 C 
ATOM     21  C   UNL     1      63.567  65.311  70.989  0.00  0.00    +0.000 C 
ATOM     22  C   UNL     1      63.616  66.168  71.473  0.00  0.00    +0.000 C 
ATOM     23  C   UNL     1      64.391  66.424  71.346  0.00  0.00    +0.000 C 
ATOM     24  C   UNL     1      63.100  66.626  71.925  0.00  0.00    +0.000 C 
ATOM     25  C   UNL     1      62.325  66.370  72.052  0.00  0.00    +0.000 C 
ENDROOT
TORSDOF 0
ENDMDL
MODEL 7
REMARK VINA RESULT:   -10.906      2.655      4.481
REMARK INTER + INTRA:         -10.906
REMARK INTER:                 -10.906
REMARK INTRA:                   0.000
REMARK UNBOUND:                 0.000
ROOT
REMARK  Name = lisuride
REMARK                            x       y       z     vdW  Elec       q    Type
REMARK                         _______ _______ _______ _____ _____    ______ ____
ATOM      1  C   UNL     1      65.158  66.872  69.726  0.00  0.00    +0.000 C 
ATOM      2  C   UNL     1      64.583  66.281  69.691  0.00  0.00    +0.000 C 
ATOM      3  N   UNL     1      64.269  65.971  70.388  0.00  0.00    +0.000 N 
ATOM      4  C   UNL     1      64.530  66.251  71.119  0.00  0.00    +0.000 C 
ATOM      5  C   UNL     1      64.217  65.941  71.815  0.00  0.00    +0.000 C 
ATOM      6  C   UNL     1      63.694  65.380  70.355  0.00  0.00    +0.000 C 
ATOM      7  O   UNL     1      63.433  65.100  69.623  0.00  0.00    +0.000 OA
ATOM      8  N   UNL     1      63.380  65.070  71.051  0.00  0.00    +0.000 NA
ATOM      9  C   UNL     1      62.805  64.479  71.017  0.00  0.00    +0.000 C 
ATOM     10  C   UNL     1      62.491  64.168  71.714  0.00  0.00    +0.000 C 
ATOM     11  N   UNL     1      61.916  63.578  71.680  0.00  0.00    +0.000 NA
ATOM     12  C   UNL     1      61.602  63.267  72.377  0.00  0.00    +0.000 C 
ATOM     13  C   UNL     1      61.655  63.298  70.949  0.00  0.00    +0.000 C 
ATOM     14  C   UNL     1      61.080  62.708  70.915  0.00  0.00    +0.000 C 
ATOM     15  C   UNL     1      60.818  62.427  70.184  0.00  0.00    +0.000 C 
ATOM     16  C   UNL     1      60.263  61.853  69.980  0.00  0.00    +0.000 C 
ATOM     17  N   UNL     1      60.233  61.809  69.157  0.00  0.00    +0.000 NA
ATOM     18  C   UNL     1      60.771  62.356  68.853  0.00  0.00    +0.000 C 
ATOM     19  C   UNL     1      60.977  62.555  68.079  0.00  0.00    +0.000 C 
ATOM     20  C   UNL     1      61.546  63.136  67.941  0.00  0.00    +0.000 C 
ATOM     21  C   UNL     1      61.908  63.519  68.576  0.00  0.00    +0.000 C 
ATOM     22  C   UNL     1      61.708  63.329  69.521  0.00  0.00    +0.000 C 
ATOM     23  C   UNL     1      61.132  62.738  69.487  0.00  0.00    +0.000 C 
ATOM     24  C   UNL     1      61.969  63.608  70.252  0.00  0.00    +0.000 C 
ATOM     25  C   UNL     1      62.544  64.199  70.286  0.00  0.00    +0.000 C 
ENDROOT
TORSDOF 0
ENDMDL
MODEL 8
REMARK VINA RESULT:   -10.695      5.082      6.476
REMARK INTER + INTRA:         -10.695
REMARK INTER:                 -10.695
REMARK INTRA:                   0.000
REMARK UNBOUND:                 0.000
ROOT
REMARK  Name = lisuride
REMARK                            x       y       z     vdW  Elec       q    Type
REMARK                         _______ _______ _______ _____ _____    ______ ____
ATOM      1  C   UNL     1      65.786  66.870  71.355  0.00  0.00    +0.000 C 
ATOM      2  C   UNL     1      65.076  66.455  71.422  0.00  0.00    +0.000 C 
ATOM      3  N   UNL     1      64.422  66.811  71.777  0.00  0.00    +0.000 N 
ATOM      4  C   UNL     1      64.479  67.583  72.065  0.00  0.00    +0.000 C 
ATOM      5  C   UNL     1      63.826  67.939  72.420  0.00  0.00    +0.000 C 
ATOM      6  C   UNL     1      63.712  66.398  71.845  0.00  0.00    +0.000 C 
ATOM      7  O   UNL     1      63.655  65.626  71.556  0.00  0.00    +0.000 OA
ATOM      8  N   UNL     1      63.059  66.754  72.199  0.00  0.00    +0.000 NA
ATOM      9  C   UNL     1      62.348  66.339  72.266  0.00  0.00    +0.000 C 
ATOM     10  C   UNL     1      61.694  66.696  72.621  0.00  0.00    +0.000 C 
ATOM     11  N   UNL     1      60.985  66.282  72.689  0.00  0.00    +0.000 NA
ATOM     12  C   UNL     1      60.330  66.639  73.044  0.00  0.00    +0.000 C 
ATOM     13  C   UNL     1      60.928  65.511  72.401  0.00  0.00    +0.000 C 
ATOM     14  C   UNL     1      60.218  65.096  72.468  0.00  0.00    +0.000 C 
ATOM     15  C   UNL     1      60.161  64.325  72.180  0.00  0.00    +0.000 C 
ATOM     16  C   UNL     1      59.538  63.785  72.169  0.00  0.00    +0.000 C 
ATOM     17  N   UNL     1      59.806  63.094  71.807  0.00  0.00    +0.000 NA
ATOM     18  C   UNL     1      60.596  63.208  71.594  0.00  0.00    +0.000 C 
ATOM     19  C   UNL     1      61.143  62.716  71.220  0.00  0.00    +0.000 C 
ATOM     20  C   UNL     1      61.909  62.986  71.078  0.00  0.00    +0.000 C 
ATOM     21  C   UNL     1      62.129  63.747  71.309  0.00  0.00    +0.000 C 
ATOM     22  C   UNL     1      61.525  64.383  71.758  0.00  0.00    +0.000 C 
ATOM     23  C   UNL     1      60.815  63.968  71.825  0.00  0.00    +0.000 C 
ATOM     24  C   UNL     1      61.581  65.154  72.046  0.00  0.00    +0.000 C 
ATOM     25  C   UNL     1      62.292  65.568  71.978  0.00  0.00    +0.000 C 
ENDROOT
TORSDOF 0
ENDMDL
MODEL 9
REMARK VINA RESULT:   -10.693      4.661      6.878
REMARK INTER + INTRA:         -10.693
REMARK INTER:                 -10.693
REMARK INTRA:                   0.000
REMARK UNBOUND:                 0.000
ROOT
REMARK  Name = lisuride
REMARK                            x       y       z     vdW  Elec       q    Type
REMARK                         _______ _______ _______ _____ _____    ______ ____
ATOM      1  C   UNL     1      59.199  64.268  72.088  0.00  0.00    +0.000 C 
ATOM      2  C   UNL     1      59.938  64.624  72.001  0.00  0.00    +0.000 C 
ATOM      3  N   UNL     1      60.517  64.264  71.537  0.00  0.00    +0.000 N 
ATOM      4  C   UNL     1      60.357  63.547  71.159  0.00  0.00    +0.000 C 
ATOM      5  C   UNL     1      60.936  63.188  70.696  0.00  0.00    +0.000 C 
ATOM      6  C   UNL     1      61.257  64.620  71.449  0.00  0.00    +0.000 C 
ATOM      7  O   UNL     1      61.416  65.337  71.826  0.00  0.00    +0.000 OA
ATOM      8  N   UNL     1      61.835  64.260  70.985  0.00  0.00    +0.000 NA
ATOM      9  C   UNL     1      62.575  64.616  70.898  0.00  0.00    +0.000 C 
ATOM     10  C   UNL     1      63.154  64.256  70.433  0.00  0.00    +0.000 C 
ATOM     11  N   UNL     1      63.892  64.612  70.346  0.00  0.00    +0.000 NA
ATOM     12  C   UNL     1      64.472  64.252  69.881  0.00  0.00    +0.000 C 
ATOM     13  C   UNL     1      64.053  65.329  70.723  0.00  0.00    +0.000 C 
ATOM     14  C   UNL     1      64.791  65.684  70.636  0.00  0.00    +0.000 C 
ATOM     15  C   UNL     1      64.952  66.401  71.012  0.00  0.00    +0.000 C 
ATOM     16  C   UNL     1      65.624  66.878  71.028  0.00  0.00    +0.000 C 
ATOM     17  N   UNL     1      65.461  67.533  71.501  0.00  0.00    +0.000 NA
ATOM     18  C   UNL     1      64.687  67.461  71.779  0.00  0.00    +0.000 C 
ATOM     19  C   UNL     1      64.229  67.942  72.268  0.00  0.00    +0.000 C 
ATOM     20  C   UNL     1      63.456  67.723  72.455  0.00  0.00    +0.000 C 
ATOM     21  C   UNL     1      63.141  67.023  72.152  0.00  0.00    +0.000 C 
ATOM     22  C   UNL     1      63.633  66.405  71.564  0.00  0.00    +0.000 C 
ATOM     23  C   UNL     1      64.373  66.761  71.477  0.00  0.00    +0.000 C 
ATOM     24  C   UNL     1      63.474  65.689  71.187  0.00  0.00    +0.000 C 
ATOM     25  C   UNL     1      62.734  65.332  71.275  0.00  0.00    +0.000 C 
ENDROOT
TORSDOF 0
ENDMDL
