MODEL 1
REMARK VINA RESULT:   -10.997      0.000      0.000
REMARK INTER + INTRA:         -10.997
REMARK INTER:                 -10.997
REMARK INTRA:                   0.000
REMARK UNBOUND:                 0.000
ROOT
REMARK  Name = lomefloxacin
REMARK                            x       y       z     vdW  Elec       q    Type
REMARK                         _______ _______ _______ _____ _____    ______ ____
ATOM      1  C   UNL     1      59.927  65.119  69.209  0.00  0.00    +0.000 C 
ATOM      2  C   UNL     1      59.721  65.810  69.610  0.00  0.00    +0.000 C 
ATOM      3  N   UNL     1      59.622  65.798  70.429  0.00  0.00    +0.000 N 
ATOM      4  C   UNL     1      59.417  66.489  70.829  0.00  0.00    +0.000 A 
ATOM      5  C   UNL     1      59.318  66.477  71.649  0.00  0.00    +0.000 A 
ATOM      6  C   UNL     1      59.112  67.169  72.049  0.00  0.00    +0.000 C 
ATOM      7  O   UNL     1      59.004  67.872  71.631  0.00  0.00    +0.000 OA
ATOM      8  O   UNL     1      59.014  67.158  72.868  0.00  0.00    +0.000 OA
ATOM      9  C   UNL     1      59.426  65.775  72.067  0.00  0.00    +0.000 A 
ATOM     10  O   UNL     1      59.328  65.764  72.886  0.00  0.00    +0.000 OA
ATOM     11  C   UNL     1      59.632  65.084  71.667  0.00  0.00    +0.000 A 
ATOM     12  C   UNL     1      59.740  64.381  72.085  0.00  0.00    +0.000 A 
ATOM     13  C   UNL     1      59.946  63.690  71.685  0.00  0.00    +0.000 A 
ATOM     14  F   UNL     1      60.054  62.987  72.103  0.00  0.00    +0.000 F 
ATOM     15  C   UNL     1      60.044  63.702  70.865  0.00  0.00    +0.000 A 
ATOM     16  N   UNL     1      60.250  63.010  70.465  0.00  0.00    +0.000 N 
ATOM     17  C   UNL     1      60.358  62.308  70.883  0.00  0.00    +0.000 C 
ATOM     18  C   UNL     1      60.564  61.616  70.483  0.00  0.00    +0.000 C 
ATOM     19  N   UNL     1      60.662  61.628  69.664  0.00  0.00    +0.000 NA
ATOM     20  C   UNL     1      60.554  62.331  69.245  0.00  0.00    +0.000 C 
ATOM     21  C   UNL     1      60.652  62.342  68.427  0.00  0.00    +0.000 C 
ATOM     22  C   UNL     1      60.348  63.022  69.646  0.00  0.00    +0.000 C 
ATOM     23  C   UNL     1      59.936  64.404  70.447  0.00  0.00    +0.000 A 
ATOM     24  F   UNL     1      60.034  64.416  69.628  0.00  0.00    +0.000 F 
ATOM     25  C   UNL     1      59.730  65.096  70.847  0.00  0.00    +0.000 A 
ENDROOT
TORSDOF 0
ENDMDL
MODEL 2
REMARK VINA RESULT:   -10.965      3.978      5.769
REMARK INTER + INTRA:         -10.965
REMARK INTER:                 -10.965
REMARK INTRA:                   0.000
REMARK UNBOUND:                 0.000
ROOT
REMARK  Name = lomefloxacin
REMARK                            x       y       z     vdW  Elec       q    Type
REMARK                         _______ _______ _______ _____ _____    ______ ____
ATOM      1  C   UNL     1      59.456  61.647  65.762  0.00  0.00    +0.000 C 
ATOM      2  C   UNL     1      59.349  62.005  66.497  0.00  0.00    +0.000 C 
ATOM      3  N   UNL     1      59.974  62.409  66.854  0.00  0.00    +0.000 N 
ATOM      4  C   UNL     1      59.866  62.767  67.589  0.00  0.00    +0.000 A 
ATOM      5  C   UNL     1      60.491  63.171  67.947  0.00  0.00    +0.000 A 
ATOM      6  C   UNL     1      60.383  63.529  68.683  0.00  0.00    +0.000 C 
ATOM      7  O   UNL     1      59.652  63.483  69.062  0.00  0.00    +0.000 OA
ATOM      8  O   UNL     1      61.008  63.933  69.040  0.00  0.00    +0.000 OA
ATOM      9  C   UNL     1      61.222  63.218  67.569  0.00  0.00    +0.000 A 
ATOM     10  O   UNL     1      61.846  63.622  67.926  0.00  0.00    +0.000 OA
ATOM     11  C   UNL     1      61.330  62.860  66.834  0.00  0.00    +0.000 A 
ATOM     12  C   UNL     1      62.061  62.906  66.455  0.00  0.00    +0.000 A 
ATOM     13  C   UNL     1      62.168  62.549  65.720  0.00  0.00    +0.000 A 
ATOM     14  F   UNL     1      62.900  62.595  65.340  0.00  0.00    +0.000 F 
ATOM     15  C   UNL     1      61.543  62.144  65.362  0.00  0.00    +0.000 A 
ATOM     16  N   UNL     1      61.651  61.786  64.626  0.00  0.00    +0.000 N 
ATOM     17  C   UNL     1      62.382  61.833  64.248  0.00  0.00    +0.000 C 
ATOM     18  C   UNL     1      62.490  61.475  63.512  0.00  0.00    +0.000 C 
ATOM     19  N   UNL     1      61.866  61.071  63.155  0.00  0.00    +0.000 NA
ATOM     20  C   UNL     1      61.134  61.024  63.534  0.00  0.00    +0.000 C 
ATOM     21  C   UNL     1      60.510  60.621  63.177  0.00  0.00    +0.000 C 
ATOM     22  C   UNL     1      61.027  61.382  64.269  0.00  0.00    +0.000 C 
ATOM     23  C   UNL     1      60.812  62.098  65.740  0.00  0.00    +0.000 A 
ATOM     24  F   UNL     1      60.188  61.694  65.383  0.00  0.00    +0.000 F 
ATOM     25  C   UNL     1      60.705  62.455  66.476  0.00  0.00    +0.000 A 
ENDROOT
TORSDOF 0
ENDMDL
MODEL 3
REMARK VINA RESULT:   -10.868      3.229      4.208
REMARK INTER + INTRA:         -10.868
REMARK INTER:                 -10.868
REMARK INTRA:                   0.000
REMARK UNBOUND:                 0.000
ROOT
REMARK  Name = lomefloxacin
REMARK                            x       y       z     vdW  Elec       q    Type
REMARK                         _______ _______ _______ _____ _____    ______ ____
ATOM      1  C   UNL     1      62.013  64.572  69.445  0.00  0.00    +0.000 C 
ATOM      2  C   UNL     1      61.828  64.359  68.670  0.00  0.00    +0.000 C 
ATOM      3  N   UNL     1      61.400  63.669  68.522  0.00  0.00    +0.000 N 
ATOM      4  C   UNL     1      61.216  63.456  67.747  0.00  0.00    +0.000 A 
ATOM      5  C   UNL     1      60.788  62.765  67.600  0.00  0.00    +0.000 A 
ATOM      6  C   UNL     1      60.604  62.553  66.824  0.00  0.00    +0.000 C 
ATOM      7  O   UNL     1      60.846  63.029  66.195  0.00  0.00    +0.000 OA
ATOM      8  O   UNL     1      60.176  61.863  66.676  0.00  0.00    +0.000 OA
ATOM      9  C   UNL     1      60.545  62.289  68.227  0.00  0.00    +0.000 A 
ATOM     10  O   UNL     1      60.117  61.599  68.080  0.00  0.00    +0.000 OA
ATOM     11  C   UNL     1      60.729  62.502  69.002  0.00  0.00    +0.000 A 
ATOM     12  C   UNL     1      60.487  62.025  69.630  0.00  0.00    +0.000 A 
ATOM     13  C   UNL     1      60.671  62.238  70.405  0.00  0.00    +0.000 A 
ATOM     14  F   UNL     1      60.428  61.761  71.033  0.00  0.00    +0.000 F 
ATOM     15  C   UNL     1      61.099  62.929  70.553  0.00  0.00    +0.000 A 
ATOM     16  N   UNL     1      61.283  63.141  71.329  0.00  0.00    +0.000 N 
ATOM     17  C   UNL     1      61.041  62.665  71.956  0.00  0.00    +0.000 C 
ATOM     18  C   UNL     1      61.225  62.878  72.732  0.00  0.00    +0.000 C 
ATOM     19  N   UNL     1      61.652  63.567  72.879  0.00  0.00    +0.000 NA
ATOM     20  C   UNL     1      61.896  64.045  72.251  0.00  0.00    +0.000 C 
ATOM     21  C   UNL     1      62.323  64.734  72.398  0.00  0.00    +0.000 C 
ATOM     22  C   UNL     1      61.711  63.831  71.476  0.00  0.00    +0.000 C 
ATOM     23  C   UNL     1      61.342  63.405  69.925  0.00  0.00    +0.000 A 
ATOM     24  F   UNL     1      61.769  64.095  70.073  0.00  0.00    +0.000 F 
ATOM     25  C   UNL     1      61.158  63.193  69.150  0.00  0.00    +0.000 A 
ENDROOT
TORSDOF 0
ENDMDL
MODEL 4
REMARK VINA RESULT:   -10.673      4.250      4.557
REMARK INTER + INTRA:         -10.673
REMARK INTER:                 -10.673
REMARK INTRA:                   0.000
REMARK UNBOUND:                 0.000
ROOT
REMARK  Name = lomefloxacin
REMARK                            x       y       z     vdW  Elec       q    Type
REMARK                         _______ _______ _______ _____ _____    ______ ____
ATOM      1  C   UNL     1      63.738  64.339  69.990  0.00  0.00    +0.000 C 
ATOM      2  C   UNL     1      64.332  64.892  69.840  0.00  0.00    +0.000 C 
ATOM      3  N   UNL     1      64.404  65.560  70.319  0.00  0.00    +0.000 N 
ATOM      4  C   UNL     1      64.997  66.112  70.168  0.00  0.00    +0.000 A 
ATOM      5  C   UNL     1      65.070  66.781  70.647  0.00  0.00    +0.000 A 
ATOM      6  C   UNL     1      65.664  67.334  70.496  0.00  0.00    +0.000 C 
ATOM      7  O   UNL     1      66.186  67.219  69.867  0.00  0.00    +0.000 OA
ATOM      8  O   UNL     1      65.736  68.002  70.974  0.00  0.00    +0.000 OA
ATOM      9  C   UNL     1      64.549  66.897  71.275  0.00  0.00    +0.000 A 
ATOM     10  O   UNL     1      64.621  67.565  71.754  0.00  0.00    +0.000 OA
ATOM     11  C   UNL     1      63.955  66.344  71.426  0.00  0.00    +0.000 A 
ATOM     12  C   UNL     1      63.434  66.459  72.055  0.00  0.00    +0.000 A 
ATOM     13  C   UNL     1      62.840  65.907  72.205  0.00  0.00    +0.000 A 
ATOM     14  F   UNL     1      62.318  66.022  72.834  0.00  0.00    +0.000 F 
ATOM     15  C   UNL     1      62.768  65.238  71.726  0.00  0.00    +0.000 A 
ATOM     16  N   UNL     1      62.174  64.686  71.877  0.00  0.00    +0.000 N 
ATOM     17  C   UNL     1      61.653  64.801  72.506  0.00  0.00    +0.000 C 
ATOM     18  C   UNL     1      61.059  64.248  72.657  0.00  0.00    +0.000 C 
ATOM     19  N   UNL     1      60.987  63.580  72.179  0.00  0.00    +0.000 NA
ATOM     20  C   UNL     1      61.508  63.464  71.549  0.00  0.00    +0.000 C 
ATOM     21  C   UNL     1      61.436  62.797  71.071  0.00  0.00    +0.000 C 
ATOM     22  C   UNL     1      62.102  64.017  71.399  0.00  0.00    +0.000 C 
ATOM     23  C   UNL     1      63.289  65.123  71.098  0.00  0.00    +0.000 A 
ATOM     24  F   UNL     1      63.217  64.455  70.620  0.00  0.00    +0.000 F 
ATOM     25  C   UNL     1      63.883  65.675  70.947  0.00  0.00    +0.000 A 
ENDROOT
TORSDOF 0
ENDMDL
MODEL 5
REMARK VINA RESULT:   -10.636      2.128      3.946
REMARK INTER + INTRA:         -10.636
REMARK INTER:                 -10.636
REMARK INTRA:                   0.000
REMARK UNBOUND:                 0.000
ROOT
REMARK  Name = lomefloxacin
REMARK                            x       y       z     vdW  Elec       q    Type
REMARK                         _______ _______ _______ _____ _____    ______ ____
ATOM      1  C   UNL     1      59.748  65.789  69.477  0.00  0.00    +0.000 C 
ATOM      2  C   UNL     1      59.959  65.150  69.000  0.00  0.00    +0.000 C 
ATOM      3  N   UNL     1      60.110  64.413  69.340  0.00  0.00    +0.000 N 
ATOM      4  C   UNL     1      60.322  63.775  68.863  0.00  0.00    +0.000 A 
ATOM      5  C   UNL     1      60.473  63.038  69.204  0.00  0.00    +0.000 A 
ATOM      6  C   UNL     1      60.684  62.399  68.726  0.00  0.00    +0.000 C 
ATOM      7  O   UNL     1      60.745  62.496  67.909  0.00  0.00    +0.000 OA
ATOM      8  O   UNL     1      60.835  61.663  69.066  0.00  0.00    +0.000 OA
ATOM      9  C   UNL     1      60.413  62.941  70.020  0.00  0.00    +0.000 A 
ATOM     10  O   UNL     1      60.564  62.204  70.360  0.00  0.00    +0.000 OA
ATOM     11  C   UNL     1      60.201  63.579  70.497  0.00  0.00    +0.000 A 
ATOM     12  C   UNL     1      60.141  63.483  71.314  0.00  0.00    +0.000 A 
ATOM     13  C   UNL     1      59.930  64.121  71.791  0.00  0.00    +0.000 A 
ATOM     14  F   UNL     1      59.870  64.024  72.608  0.00  0.00    +0.000 F 
ATOM     15  C   UNL     1      59.779  64.858  71.451  0.00  0.00    +0.000 A 
ATOM     16  N   UNL     1      59.567  65.497  71.928  0.00  0.00    +0.000 N 
ATOM     17  C   UNL     1      59.507  65.400  72.745  0.00  0.00    +0.000 C 
ATOM     18  C   UNL     1      59.296  66.039  73.222  0.00  0.00    +0.000 C 
ATOM     19  N   UNL     1      59.144  66.775  72.882  0.00  0.00    +0.000 NA
ATOM     20  C   UNL     1      59.205  66.873  72.065  0.00  0.00    +0.000 C 
ATOM     21  C   UNL     1      59.054  67.608  71.725  0.00  0.00    +0.000 C 
ATOM     22  C   UNL     1      59.416  66.233  71.588  0.00  0.00    +0.000 C 
ATOM     23  C   UNL     1      59.839  64.955  70.634  0.00  0.00    +0.000 A 
ATOM     24  F   UNL     1      59.688  65.692  70.294  0.00  0.00    +0.000 F 
ATOM     25  C   UNL     1      60.050  64.316  70.157  0.00  0.00    +0.000 A 
ENDROOT
TORSDOF 0
ENDMDL
MODEL 6
REMARK VINA RESULT:   -10.449      2.389      2.481
REMARK INTER + INTRA:         -10.449
REMARK INTER:                 -10.449
REMARK INTRA:                   0.000
REMARK UNBOUND:                 0.000
ROOT
REMARK  Name = lomefloxacin
REMARK                            x       y       z     vdW  Elec       q    Type
REMARK                         _______ _______ _______ _____ _____    ______ ____
ATOM      1  C   UNL     1      62.348  64.460  69.377  0.00  0.00    +0.000 C 
ATOM      2  C   UNL     1      62.700  65.108  69.746  0.00  0.00    +0.000 C 
ATOM      3  N   UNL     1      62.601  65.225  70.557  0.00  0.00    +0.000 N 
ATOM      4  C   UNL     1      62.953  65.872  70.926  0.00  0.00    +0.000 A 
ATOM      5  C   UNL     1      62.854  65.989  71.737  0.00  0.00    +0.000 A 
ATOM      6  C   UNL     1      63.206  66.638  72.106  0.00  0.00    +0.000 C 
ATOM      7  O   UNL     1      63.657  67.170  71.665  0.00  0.00    +0.000 OA
ATOM      8  O   UNL     1      63.108  66.755  72.917  0.00  0.00    +0.000 OA
ATOM      9  C   UNL     1      62.403  65.458  72.178  0.00  0.00    +0.000 A 
ATOM     10  O   UNL     1      62.305  65.575  72.989  0.00  0.00    +0.000 OA
ATOM     11  C   UNL     1      62.052  64.810  71.810  0.00  0.00    +0.000 A 
ATOM     12  C   UNL     1      61.601  64.278  72.251  0.00  0.00    +0.000 A 
ATOM     13  C   UNL     1      61.249  63.630  71.882  0.00  0.00    +0.000 A 
ATOM     14  F   UNL     1      60.798  63.098  72.323  0.00  0.00    +0.000 F 
ATOM     15  C   UNL     1      61.348  63.513  71.070  0.00  0.00    +0.000 A 
ATOM     16  N   UNL     1      60.995  62.865  70.702  0.00  0.00    +0.000 N 
ATOM     17  C   UNL     1      60.545  62.334  71.142  0.00  0.00    +0.000 C 
ATOM     18  C   UNL     1      60.192  61.685  70.774  0.00  0.00    +0.000 C 
ATOM     19  N   UNL     1      60.291  61.568  69.963  0.00  0.00    +0.000 NA
ATOM     20  C   UNL     1      60.742  62.100  69.521  0.00  0.00    +0.000 C 
ATOM     21  C   UNL     1      60.841  61.983  68.711  0.00  0.00    +0.000 C 
ATOM     22  C   UNL     1      61.094  62.748  69.891  0.00  0.00    +0.000 C 
ATOM     23  C   UNL     1      61.798  64.045  70.629  0.00  0.00    +0.000 A 
ATOM     24  F   UNL     1      61.897  63.928  69.819  0.00  0.00    +0.000 F 
ATOM     25  C   UNL     1      62.150  64.693  70.998  0.00  0.00    +0.000 A 
ENDROOT
TORSDOF 0
ENDMDL
MODEL 7
REMARK VINA RESULT:   -10.354      2.976      3.557
REMARK INTER + INTRA:         -10.354
REMARK INTER:                 -10.354
REMARK INTRA:                   0.000
REMARK UNBOUND:                 0.000
ROOT
REMARK  Name = lomefloxacin
REMARK                            x       y       z     vdW  Elec       q    Type
REMARK                         _______ _______ _______ _____ _____    ______ ____
ATOM      1  C   UNL     1      61.808  63.811  71.920  0.00  0.00    +0.000 C 
ATOM      2  C   UNL     1      62.314  64.442  72.079  0.00  0.00    +0.000 C 
ATOM      3  N   UNL     1      62.681  64.844  71.459  0.00  0.00    +0.000 N 
ATOM      4  C   UNL     1      63.187  65.475  71.619  0.00  0.00    +0.000 A 
ATOM      5  C   UNL     1      63.554  65.877  70.998  0.00  0.00    +0.000 A 
ATOM      6  C   UNL     1      64.060  66.508  71.159  0.00  0.00    +0.000 C 
ATOM      7  O   UNL     1      64.200  66.739  71.939  0.00  0.00    +0.000 OA
ATOM      8  O   UNL     1      64.428  66.910  70.539  0.00  0.00    +0.000 OA
ATOM      9  C   UNL     1      63.415  65.647  70.219  0.00  0.00    +0.000 A 
ATOM     10  O   UNL     1      63.783  66.048  69.599  0.00  0.00    +0.000 OA
ATOM     11  C   UNL     1      62.910  65.016  70.059  0.00  0.00    +0.000 A 
ATOM     12  C   UNL     1      62.771  64.785  69.279  0.00  0.00    +0.000 A 
ATOM     13  C   UNL     1      62.265  64.154  69.119  0.00  0.00    +0.000 A 
ATOM     14  F   UNL     1      62.126  63.923  68.339  0.00  0.00    +0.000 F 
ATOM     15  C   UNL     1      61.897  63.752  69.740  0.00  0.00    +0.000 A 
ATOM     16  N   UNL     1      61.391  63.120  69.579  0.00  0.00    +0.000 N 
ATOM     17  C   UNL     1      61.252  62.890  68.800  0.00  0.00    +0.000 C 
ATOM     18  C   UNL     1      60.746  62.258  68.639  0.00  0.00    +0.000 C 
ATOM     19  N   UNL     1      60.379  61.857  69.260  0.00  0.00    +0.000 NA
ATOM     20  C   UNL     1      60.518  62.087  70.040  0.00  0.00    +0.000 C 
ATOM     21  C   UNL     1      60.151  61.686  70.660  0.00  0.00    +0.000 C 
ATOM     22  C   UNL     1      61.024  62.719  70.200  0.00  0.00    +0.000 C 
ATOM     23  C   UNL     1      62.036  63.982  70.519  0.00  0.00    +0.000 A 
ATOM     24  F   UNL     1      61.669  63.580  71.139  0.00  0.00    +0.000 F 
ATOM     25  C   UNL     1      62.542  64.614  70.680  0.00  0.00    +0.000 A 
ENDROOT
TORSDOF 0
ENDMDL
MODEL 8
REMARK VINA RESULT:   -10.340      3.774      4.643
REMARK INTER + INTRA:         -10.340
REMARK INTER:                 -10.340
REMARK INTRA:                   0.000
REMARK UNBOUND:                 0.000
ROOT
REMARK  Name = lomefloxacin
REMARK                            x       y       z     vdW  Elec       q    Type
REMARK                         _______ _______ _______ _____ _____    ______ ____
ATOM      1  C   UNL     1      63.579  64.594  69.920  0.00  0.00    +0.000 C 
ATOM      2  C   UNL     1      62.958  64.062  70.028  0.00  0.00    +0.000 C 
ATOM      3  N   UNL     1      62.456  64.139  70.679  0.00  0.00    +0.000 N 
ATOM      4  C   UNL     1      61.836  63.607  70.786  0.00  0.00    +0.000 A 
ATOM      5  C   UNL     1      61.334  63.685  71.437  0.00  0.00    +0.000 A 
ATOM      6  C   UNL     1      60.713  63.152  71.544  0.00  0.00    +0.000 C 
ATOM      7  O   UNL     1      60.593  62.541  71.002  0.00  0.00    +0.000 OA
ATOM      8  O   UNL     1      60.211  63.229  72.194  0.00  0.00    +0.000 OA
ATOM      9  C   UNL     1      61.453  64.294  71.979  0.00  0.00    +0.000 A 
ATOM     10  O   UNL     1      60.951  64.372  72.629  0.00  0.00    +0.000 OA
ATOM     11  C   UNL     1      62.073  64.827  71.871  0.00  0.00    +0.000 A 
ATOM     12  C   UNL     1      62.192  65.437  72.414  0.00  0.00    +0.000 A 
ATOM     13  C   UNL     1      62.813  65.969  72.306  0.00  0.00    +0.000 A 
ATOM     14  F   UNL     1      62.932  66.580  72.848  0.00  0.00    +0.000 F 
ATOM     15  C   UNL     1      63.315  65.891  71.655  0.00  0.00    +0.000 A 
ATOM     16  N   UNL     1      63.936  66.424  71.548  0.00  0.00    +0.000 N 
ATOM     17  C   UNL     1      64.055  67.034  72.090  0.00  0.00    +0.000 C 
ATOM     18  C   UNL     1      64.676  67.567  71.983  0.00  0.00    +0.000 C 
ATOM     19  N   UNL     1      65.178  67.489  71.333  0.00  0.00    +0.000 NA
ATOM     20  C   UNL     1      65.059  66.879  70.790  0.00  0.00    +0.000 C 
ATOM     21  C   UNL     1      65.560  66.801  70.141  0.00  0.00    +0.000 C 
ATOM     22  C   UNL     1      64.438  66.347  70.898  0.00  0.00    +0.000 C 
ATOM     23  C   UNL     1      63.196  65.282  71.113  0.00  0.00    +0.000 A 
ATOM     24  F   UNL     1      63.698  65.204  70.463  0.00  0.00    +0.000 F 
ATOM     25  C   UNL     1      62.575  64.749  71.221  0.00  0.00    +0.000 A 
ENDROOT
TORSDOF 0
ENDMDL
MODEL 9
REMARK VINA RESULT:   -10.330      2.369      4.169
REMARK INTER + INTRA:         -10.330
REMARK INTER:                 -10.330
REMARK INTRA:                   0.000
REMARK UNBOUND:                 0.000
ROOT
REMARK  Name = lomefloxacin
REMARK                            x       y       z     vdW  Elec       q    Type
REMARK                         _______ _______ _______ _____ _____    ______ ____
ATOM      1  C   UNL     1      60.127  65.048  70.154  0.00  0.00    +0.000 C 
ATOM      2  C   UNL     1      60.127  64.229  70.057  0.00  0.00    +0.000 C 
ATOM      3  N   UNL     1      60.502  63.748  70.612  0.00  0.00    +0.000 N 
ATOM      4  C   UNL     1      60.502  62.929  70.514  0.00  0.00    +0.000 A 
ATOM      5  C   UNL     1      60.878  62.447  71.070  0.00  0.00    +0.000 A 
ATOM      6  C   UNL     1      60.878  61.628  70.972  0.00  0.00    +0.000 C 
ATOM      7  O   UNL     1      60.503  61.289  70.319  0.00  0.00    +0.000 OA
ATOM      8  O   UNL     1      61.253  61.146  71.527  0.00  0.00    +0.000 OA
ATOM      9  C   UNL     1      61.253  62.785  71.722  0.00  0.00    +0.000 A 
ATOM     10  O   UNL     1      61.628  62.303  72.277  0.00  0.00    +0.000 OA
ATOM     11  C   UNL     1      61.253  63.603  71.820  0.00  0.00    +0.000 A 
ATOM     12  C   UNL     1      61.628  63.942  72.472  0.00  0.00    +0.000 A 
ATOM     13  C   UNL     1      61.628  64.760  72.570  0.00  0.00    +0.000 A 
ATOM     14  F   UNL     1      62.003  65.099  73.222  0.00  0.00    +0.000 F 
ATOM     15  C   UNL     1      61.252  65.242  72.014  0.00  0.00    +0.000 A 
ATOM     16  N   UNL     1      61.253  66.062  72.112  0.00  0.00    +0.000 N 
ATOM     17  C   UNL     1      61.627  66.399  72.764  0.00  0.00    +0.000 C 
ATOM     18  C   UNL     1      61.628  67.219  72.863  0.00  0.00    +0.000 C 
ATOM     19  N   UNL     1      61.252  67.700  72.308  0.00  0.00    +0.000 NA
ATOM     20  C   UNL     1      60.877  67.362  71.654  0.00  0.00    +0.000 C 
ATOM     21  C   UNL     1      60.502  67.843  71.100  0.00  0.00    +0.000 C 
ATOM     22  C   UNL     1      60.877  66.543  71.557  0.00  0.00    +0.000 C 
ATOM     23  C   UNL     1      60.877  64.905  71.362  0.00  0.00    +0.000 A 
ATOM     24  F   UNL     1      60.502  65.386  70.807  0.00  0.00    +0.000 F 
ATOM     25  C   UNL     1      60.877  64.085  71.264  0.00  0.00    +0.000 A 
ENDROOT
TORSDOF 0
ENDMDL
