MODEL 1
REMARK VINA RESULT:   -14.639      0.000      0.000
REMARK INTER + INTRA:         -14.639
REMARK INTER:                 -14.639
REMARK INTRA:                   0.000
REMARK UNBOUND:                 0.000
ROOT
REMARK  Name = lomerizine
REMARK                            x       y       z     vdW  Elec       q    Type
REMARK                         _______ _______ _______ _____ _____    ______ ____
ATOM      1  C   UNL     1      62.740  62.403  64.917  0.00  0.00    +0.000 C 
ATOM      2  O   UNL     1      61.952  62.173  65.006  0.00  0.00    +0.000 OA
ATOM      3  C   UNL     1      61.562  62.306  65.720  0.00  0.00    +0.000 A 
ATOM      4  C   UNL     1      60.775  62.077  65.810  0.00  0.00    +0.000 A 
ATOM      5  O   UNL     1      60.379  61.713  65.185  0.00  0.00    +0.000 OA
ATOM      6  C   UNL     1      59.591  61.483  65.274  0.00  0.00    +0.000 C 
ATOM      7  C   UNL     1      60.385  62.210  66.525  0.00  0.00    +0.000 A 
ATOM      8  O   UNL     1      59.599  61.980  66.614  0.00  0.00    +0.000 OA
ATOM      9  C   UNL     1      59.208  62.114  67.329  0.00  0.00    +0.000 C 
ATOM     10  C   UNL     1      60.782  62.573  67.149  0.00  0.00    +0.000 A 
ATOM     11  C   UNL     1      60.392  62.707  67.865  0.00  0.00    +0.000 C 
ATOM     12  N   UNL     1      60.789  63.071  68.489  0.00  0.00    +0.000 NA
ATOM     13  C   UNL     1      60.399  63.204  69.204  0.00  0.00    +0.000 C 
ATOM     14  C   UNL     1      60.796  63.568  69.829  0.00  0.00    +0.000 C 
ATOM     15  N   UNL     1      61.584  63.798  69.740  0.00  0.00    +0.000 NA
ATOM     16  C   UNL     1      61.974  63.664  69.025  0.00  0.00    +0.000 C 
ATOM     17  C   UNL     1      61.576  63.301  68.400  0.00  0.00    +0.000 C 
ATOM     18  C   UNL     1      61.980  64.161  70.365  0.00  0.00    +0.000 C 
ATOM     19  C   UNL     1      62.768  64.391  70.275  0.00  0.00    +0.000 A 
ATOM     20  C   UNL     1      63.165  64.755  70.901  0.00  0.00    +0.000 A 
ATOM     21  C   UNL     1      63.953  64.985  70.811  0.00  0.00    +0.000 A 
ATOM     22  C   UNL     1      64.343  64.851  70.097  0.00  0.00    +0.000 A 
ATOM     23  F   UNL     1      65.129  65.081  70.007  0.00  0.00    +0.000 F 
ATOM     24  C   UNL     1      63.945  64.487  69.472  0.00  0.00    +0.000 A 
ATOM     25  C   UNL     1      63.158  64.258  69.561  0.00  0.00    +0.000 A 
ATOM     26  C   UNL     1      61.591  64.295  71.079  0.00  0.00    +0.000 A 
ATOM     27  C   UNL     1      60.804  64.065  71.169  0.00  0.00    +0.000 A 
ATOM     28  C   UNL     1      60.413  64.199  71.883  0.00  0.00    +0.000 A 
ATOM     29  C   UNL     1      60.810  64.562  72.508  0.00  0.00    +0.000 A 
ATOM     30  F   UNL     1      60.420  64.695  73.222  0.00  0.00    +0.000 F 
ATOM     31  C   UNL     1      61.598  64.792  72.419  0.00  0.00    +0.000 A 
ATOM     32  C   UNL     1      61.988  64.658  71.705  0.00  0.00    +0.000 A 
ATOM     33  C   UNL     1      61.570  62.804  67.060  0.00  0.00    +0.000 A 
ATOM     34  C   UNL     1      61.960  62.670  66.346  0.00  0.00    +0.000 A 
ENDROOT
TORSDOF 0
ENDMDL
MODEL 2
REMARK VINA RESULT:   -14.269      3.812      6.066
REMARK INTER + INTRA:         -14.269
REMARK INTER:                 -14.269
REMARK INTRA:                   0.000
REMARK UNBOUND:                 0.000
ROOT
REMARK  Name = lomerizine
REMARK                            x       y       z     vdW  Elec       q    Type
REMARK                         _______ _______ _______ _____ _____    ______ ____
ATOM      1  C   UNL     1      63.506  68.810  72.839  0.00  0.00    +0.000 C 
ATOM      2  O   UNL     1      64.130  68.420  72.466  0.00  0.00    +0.000 OA
ATOM      3  C   UNL     1      64.022  67.659  72.168  0.00  0.00    +0.000 A 
ATOM      4  C   UNL     1      64.645  67.269  71.795  0.00  0.00    +0.000 A 
ATOM      5  O   UNL     1      65.378  67.640  71.722  0.00  0.00    +0.000 OA
ATOM      6  C   UNL     1      66.003  67.250  71.349  0.00  0.00    +0.000 C 
ATOM      7  C   UNL     1      64.537  66.507  71.497  0.00  0.00    +0.000 A 
ATOM      8  O   UNL     1      65.161  66.118  71.124  0.00  0.00    +0.000 OA
ATOM      9  C   UNL     1      65.052  65.355  70.826  0.00  0.00    +0.000 C 
ATOM     10  C   UNL     1      63.804  66.136  71.571  0.00  0.00    +0.000 A 
ATOM     11  C   UNL     1      63.695  65.374  71.272  0.00  0.00    +0.000 C 
ATOM     12  N   UNL     1      62.962  65.003  71.346  0.00  0.00    +0.000 NA
ATOM     13  C   UNL     1      62.853  64.242  71.048  0.00  0.00    +0.000 C 
ATOM     14  C   UNL     1      62.120  63.870  71.121  0.00  0.00    +0.000 C 
ATOM     15  N   UNL     1      61.496  64.261  71.494  0.00  0.00    +0.000 NA
ATOM     16  C   UNL     1      61.604  65.022  71.793  0.00  0.00    +0.000 C 
ATOM     17  C   UNL     1      62.338  65.393  71.718  0.00  0.00    +0.000 C 
ATOM     18  C   UNL     1      60.763  63.889  71.568  0.00  0.00    +0.000 C 
ATOM     19  C   UNL     1      60.138  64.280  71.941  0.00  0.00    +0.000 A 
ATOM     20  C   UNL     1      59.406  63.908  72.014  0.00  0.00    +0.000 A 
ATOM     21  C   UNL     1      58.781  64.298  72.387  0.00  0.00    +0.000 A 
ATOM     22  C   UNL     1      58.890  65.060  72.686  0.00  0.00    +0.000 A 
ATOM     23  F   UNL     1      58.266  65.449  73.058  0.00  0.00    +0.000 F 
ATOM     24  C   UNL     1      59.623  65.431  72.611  0.00  0.00    +0.000 A 
ATOM     25  C   UNL     1      60.247  65.041  72.239  0.00  0.00    +0.000 A 
ATOM     26  C   UNL     1      60.654  63.129  71.269  0.00  0.00    +0.000 A 
ATOM     27  C   UNL     1      61.278  62.738  70.897  0.00  0.00    +0.000 A 
ATOM     28  C   UNL     1      61.169  61.977  70.598  0.00  0.00    +0.000 A 
ATOM     29  C   UNL     1      60.437  61.606  70.672  0.00  0.00    +0.000 A 
ATOM     30  F   UNL     1      60.328  60.845  70.374  0.00  0.00    +0.000 F 
ATOM     31  C   UNL     1      59.812  61.996  71.045  0.00  0.00    +0.000 A 
ATOM     32  C   UNL     1      59.921  62.757  71.343  0.00  0.00    +0.000 A 
ATOM     33  C   UNL     1      63.179  66.526  71.943  0.00  0.00    +0.000 A 
ATOM     34  C   UNL     1      63.288  67.287  72.242  0.00  0.00    +0.000 A 
ENDROOT
TORSDOF 0
ENDMDL
MODEL 3
REMARK VINA RESULT:   -13.513      3.095      5.748
REMARK INTER + INTRA:         -13.513
REMARK INTER:                 -13.513
REMARK INTRA:                   0.000
REMARK UNBOUND:                 0.000
ROOT
REMARK  Name = lomerizine
REMARK                            x       y       z     vdW  Elec       q    Type
REMARK                         _______ _______ _______ _____ _____    ______ ____
ATOM      1  C   UNL     1      64.146  68.088  72.757  0.00  0.00    +0.000 C 
ATOM      2  O   UNL     1      64.642  67.949  72.113  0.00  0.00    +0.000 OA
ATOM      3  C   UNL     1      64.458  67.356  71.571  0.00  0.00    +0.000 A 
ATOM      4  C   UNL     1      64.953  67.216  70.927  0.00  0.00    +0.000 A 
ATOM      5  O   UNL     1      65.635  67.670  70.826  0.00  0.00    +0.000 OA
ATOM      6  C   UNL     1      66.131  67.530  70.181  0.00  0.00    +0.000 C 
ATOM      7  C   UNL     1      64.769  66.622  70.384  0.00  0.00    +0.000 A 
ATOM      8  O   UNL     1      65.265  66.483  69.741  0.00  0.00    +0.000 OA
ATOM      9  C   UNL     1      65.079  65.888  69.198  0.00  0.00    +0.000 C 
ATOM     10  C   UNL     1      64.088  66.169  70.486  0.00  0.00    +0.000 A 
ATOM     11  C   UNL     1      63.903  65.574  69.943  0.00  0.00    +0.000 C 
ATOM     12  N   UNL     1      63.221  65.121  70.046  0.00  0.00    +0.000 NA
ATOM     13  C   UNL     1      63.036  64.527  69.503  0.00  0.00    +0.000 C 
ATOM     14  C   UNL     1      62.355  64.073  69.604  0.00  0.00    +0.000 C 
ATOM     15  N   UNL     1      61.858  64.213  70.249  0.00  0.00    +0.000 NA
ATOM     16  C   UNL     1      62.043  64.806  70.791  0.00  0.00    +0.000 C 
ATOM     17  C   UNL     1      62.725  65.260  70.689  0.00  0.00    +0.000 C 
ATOM     18  C   UNL     1      61.177  63.758  70.350  0.00  0.00    +0.000 C 
ATOM     19  C   UNL     1      60.681  63.898  70.995  0.00  0.00    +0.000 A 
ATOM     20  C   UNL     1      59.999  63.444  71.096  0.00  0.00    +0.000 A 
ATOM     21  C   UNL     1      59.503  63.584  71.740  0.00  0.00    +0.000 A 
ATOM     22  C   UNL     1      59.688  64.177  72.283  0.00  0.00    +0.000 A 
ATOM     23  F   UNL     1      59.192  64.317  72.926  0.00  0.00    +0.000 F 
ATOM     24  C   UNL     1      60.369  64.631  72.180  0.00  0.00    +0.000 A 
ATOM     25  C   UNL     1      60.865  64.492  71.537  0.00  0.00    +0.000 A 
ATOM     26  C   UNL     1      60.993  63.165  69.808  0.00  0.00    +0.000 A 
ATOM     27  C   UNL     1      61.488  63.025  69.164  0.00  0.00    +0.000 A 
ATOM     28  C   UNL     1      61.303  62.432  68.622  0.00  0.00    +0.000 A 
ATOM     29  C   UNL     1      60.623  61.978  68.724  0.00  0.00    +0.000 A 
ATOM     30  F   UNL     1      60.438  61.385  68.182  0.00  0.00    +0.000 F 
ATOM     31  C   UNL     1      60.126  62.117  69.368  0.00  0.00    +0.000 A 
ATOM     32  C   UNL     1      60.311  62.711  69.910  0.00  0.00    +0.000 A 
ATOM     33  C   UNL     1      63.591  66.308  71.130  0.00  0.00    +0.000 A 
ATOM     34  C   UNL     1      63.776  66.901  71.673  0.00  0.00    +0.000 A 
ENDROOT
TORSDOF 0
ENDMDL
MODEL 4
REMARK VINA RESULT:   -12.218      4.069      5.822
REMARK INTER + INTRA:         -12.218
REMARK INTER:                 -12.218
REMARK INTRA:                   0.000
REMARK UNBOUND:                 0.000
ROOT
REMARK  Name = lomerizine
REMARK                            x       y       z     vdW  Elec       q    Type
REMARK                         _______ _______ _______ _____ _____    ______ ____
ATOM      1  C   UNL     1      65.719  65.334  70.653  0.00  0.00    +0.000 C 
ATOM      2  O   UNL     1      65.601  66.080  70.986  0.00  0.00    +0.000 OA
ATOM      3  C   UNL     1      64.860  66.287  71.283  0.00  0.00    +0.000 A 
ATOM      4  C   UNL     1      64.742  67.032  71.615  0.00  0.00    +0.000 A 
ATOM      5  O   UNL     1      65.366  67.571  71.650  0.00  0.00    +0.000 OA
ATOM      6  C   UNL     1      65.248  68.317  71.983  0.00  0.00    +0.000 C 
ATOM      7  C   UNL     1      64.001  67.239  71.912  0.00  0.00    +0.000 A 
ATOM      8  O   UNL     1      63.883  67.984  72.245  0.00  0.00    +0.000 OA
ATOM      9  C   UNL     1      63.141  68.191  72.542  0.00  0.00    +0.000 C 
ATOM     10  C   UNL     1      63.378  66.700  71.877  0.00  0.00    +0.000 A 
ATOM     11  C   UNL     1      62.635  66.907  72.175  0.00  0.00    +0.000 C 
ATOM     12  N   UNL     1      62.012  66.367  72.139  0.00  0.00    +0.000 NA
ATOM     13  C   UNL     1      61.271  66.574  72.436  0.00  0.00    +0.000 C 
ATOM     14  C   UNL     1      60.647  66.036  72.402  0.00  0.00    +0.000 C 
ATOM     15  N   UNL     1      60.765  65.289  72.069  0.00  0.00    +0.000 NA
ATOM     16  C   UNL     1      61.507  65.082  71.772  0.00  0.00    +0.000 C 
ATOM     17  C   UNL     1      62.130  65.622  71.807  0.00  0.00    +0.000 C 
ATOM     18  C   UNL     1      60.141  64.751  72.034  0.00  0.00    +0.000 C 
ATOM     19  C   UNL     1      60.260  64.004  71.701  0.00  0.00    +0.000 A 
ATOM     20  C   UNL     1      59.636  63.466  71.666  0.00  0.00    +0.000 A 
ATOM     21  C   UNL     1      59.754  62.719  71.334  0.00  0.00    +0.000 A 
ATOM     22  C   UNL     1      60.495  62.512  71.036  0.00  0.00    +0.000 A 
ATOM     23  F   UNL     1      60.613  61.767  70.704  0.00  0.00    +0.000 F 
ATOM     24  C   UNL     1      61.118  63.052  71.072  0.00  0.00    +0.000 A 
ATOM     25  C   UNL     1      61.001  63.797  71.404  0.00  0.00    +0.000 A 
ATOM     26  C   UNL     1      59.401  64.957  72.331  0.00  0.00    +0.000 A 
ATOM     27  C   UNL     1      59.283  65.703  72.663  0.00  0.00    +0.000 A 
ATOM     28  C   UNL     1      58.541  65.909  72.961  0.00  0.00    +0.000 A 
ATOM     29  C   UNL     1      57.918  65.370  72.925  0.00  0.00    +0.000 A 
ATOM     30  F   UNL     1      57.177  65.577  73.222  0.00  0.00    +0.000 F 
ATOM     31  C   UNL     1      58.036  64.624  72.593  0.00  0.00    +0.000 A 
ATOM     32  C   UNL     1      58.777  64.418  72.296  0.00  0.00    +0.000 A 
ATOM     33  C   UNL     1      63.495  65.954  71.545  0.00  0.00    +0.000 A 
ATOM     34  C   UNL     1      64.236  65.747  71.248  0.00  0.00    +0.000 A 
ENDROOT
TORSDOF 0
ENDMDL
MODEL 5
REMARK VINA RESULT:   -12.134      3.485      5.601
REMARK INTER + INTRA:         -12.134
REMARK INTER:                 -12.134
REMARK INTRA:                   0.000
REMARK UNBOUND:                 0.000
ROOT
REMARK  Name = lomerizine
REMARK                            x       y       z     vdW  Elec       q    Type
REMARK                         _______ _______ _______ _____ _____    ______ ____
ATOM      1  C   UNL     1      60.479  68.145  69.819  0.00  0.00    +0.000 C 
ATOM      2  O   UNL     1      60.866  68.221  70.544  0.00  0.00    +0.000 OA
ATOM      3  C   UNL     1      61.112  67.549  70.953  0.00  0.00    +0.000 A 
ATOM      4  C   UNL     1      61.499  67.625  71.677  0.00  0.00    +0.000 A 
ATOM      5  O   UNL     1      61.641  68.375  71.991  0.00  0.00    +0.000 OA
ATOM      6  C   UNL     1      62.028  68.452  72.716  0.00  0.00    +0.000 C 
ATOM      7  C   UNL     1      61.745  66.953  72.087  0.00  0.00    +0.000 A 
ATOM      8  O   UNL     1      62.132  67.030  72.810  0.00  0.00    +0.000 OA
ATOM      9  C   UNL     1      62.378  66.356  73.221  0.00  0.00    +0.000 C 
ATOM     10  C   UNL     1      61.603  66.204  71.772  0.00  0.00    +0.000 A 
ATOM     11  C   UNL     1      61.849  65.531  72.182  0.00  0.00    +0.000 C 
ATOM     12  N   UNL     1      61.707  64.781  71.867  0.00  0.00    +0.000 NA
ATOM     13  C   UNL     1      61.952  64.109  72.277  0.00  0.00    +0.000 C 
ATOM     14  C   UNL     1      61.811  63.359  71.963  0.00  0.00    +0.000 C 
ATOM     15  N   UNL     1      61.423  63.283  71.238  0.00  0.00    +0.000 NA
ATOM     16  C   UNL     1      61.177  63.955  70.828  0.00  0.00    +0.000 C 
ATOM     17  C   UNL     1      61.320  64.705  71.144  0.00  0.00    +0.000 C 
ATOM     18  C   UNL     1      61.282  62.533  70.924  0.00  0.00    +0.000 C 
ATOM     19  C   UNL     1      60.894  62.457  70.199  0.00  0.00    +0.000 A 
ATOM     20  C   UNL     1      60.752  61.707  69.885  0.00  0.00    +0.000 A 
ATOM     21  C   UNL     1      60.365  61.630  69.160  0.00  0.00    +0.000 A 
ATOM     22  C   UNL     1      60.119  62.303  68.750  0.00  0.00    +0.000 A 
ATOM     23  F   UNL     1      59.732  62.226  68.027  0.00  0.00    +0.000 F 
ATOM     24  C   UNL     1      60.261  63.052  69.066  0.00  0.00    +0.000 A 
ATOM     25  C   UNL     1      60.648  63.129  69.789  0.00  0.00    +0.000 A 
ATOM     26  C   UNL     1      61.527  61.861  71.333  0.00  0.00    +0.000 A 
ATOM     27  C   UNL     1      61.914  61.937  72.057  0.00  0.00    +0.000 A 
ATOM     28  C   UNL     1      62.160  61.265  72.467  0.00  0.00    +0.000 A 
ATOM     29  C   UNL     1      62.018  60.516  72.153  0.00  0.00    +0.000 A 
ATOM     30  F   UNL     1      62.264  59.844  72.562  0.00  0.00    +0.000 F 
ATOM     31  C   UNL     1      61.631  60.439  71.428  0.00  0.00    +0.000 A 
ATOM     32  C   UNL     1      61.385  61.111  71.019  0.00  0.00    +0.000 A 
ATOM     33  C   UNL     1      61.215  66.127  71.048  0.00  0.00    +0.000 A 
ATOM     34  C   UNL     1      60.970  66.799  70.638  0.00  0.00    +0.000 A 
ENDROOT
TORSDOF 0
ENDMDL
MODEL 6
REMARK VINA RESULT:   -12.045     13.646     15.650
REMARK INTER + INTRA:         -12.045
REMARK INTER:                 -12.045
REMARK INTRA:                   0.000
REMARK UNBOUND:                 0.000
ROOT
REMARK  Name = lomerizine
REMARK                            x       y       z     vdW  Elec       q    Type
REMARK                         _______ _______ _______ _____ _____    ______ ____
ATOM      1  C   UNL     1      61.633  63.829  50.278  0.00  0.00    +0.000 C 
ATOM      2  O   UNL     1      61.750  63.325  50.922  0.00  0.00    +0.000 OA
ATOM      3  C   UNL     1      61.874  63.639  51.674  0.00  0.00    +0.000 A 
ATOM      4  C   UNL     1      61.990  63.136  52.317  0.00  0.00    +0.000 A 
ATOM      5  O   UNL     1      61.983  62.319  52.207  0.00  0.00    +0.000 OA
ATOM      6  C   UNL     1      62.100  61.815  52.850  0.00  0.00    +0.000 C 
ATOM      7  C   UNL     1      62.115  63.450  53.070  0.00  0.00    +0.000 A 
ATOM      8  O   UNL     1      62.231  62.947  53.712  0.00  0.00    +0.000 OA
ATOM      9  C   UNL     1      62.355  63.261  54.466  0.00  0.00    +0.000 C 
ATOM     10  C   UNL     1      62.122  64.267  53.179  0.00  0.00    +0.000 A 
ATOM     11  C   UNL     1      62.246  64.582  53.933  0.00  0.00    +0.000 C 
ATOM     12  N   UNL     1      62.253  65.400  54.042  0.00  0.00    +0.000 NA
ATOM     13  C   UNL     1      62.378  65.714  54.794  0.00  0.00    +0.000 C 
ATOM     14  C   UNL     1      62.385  66.531  54.905  0.00  0.00    +0.000 C 
ATOM     15  N   UNL     1      62.268  67.035  54.261  0.00  0.00    +0.000 NA
ATOM     16  C   UNL     1      62.144  66.721  53.508  0.00  0.00    +0.000 C 
ATOM     17  C   UNL     1      62.137  65.903  53.399  0.00  0.00    +0.000 C 
ATOM     18  C   UNL     1      62.276  67.852  54.371  0.00  0.00    +0.000 C 
ATOM     19  C   UNL     1      62.159  68.356  53.728  0.00  0.00    +0.000 A 
ATOM     20  C   UNL     1      62.166  69.174  53.838  0.00  0.00    +0.000 A 
ATOM     21  C   UNL     1      62.049  69.677  53.194  0.00  0.00    +0.000 A 
ATOM     22  C   UNL     1      61.925  69.363  52.442  0.00  0.00    +0.000 A 
ATOM     23  F   UNL     1      61.809  69.867  51.799  0.00  0.00    +0.000 F 
ATOM     24  C   UNL     1      61.918  68.545  52.332  0.00  0.00    +0.000 A 
ATOM     25  C   UNL     1      62.035  68.042  52.975  0.00  0.00    +0.000 A 
ATOM     26  C   UNL     1      62.400  68.166  55.123  0.00  0.00    +0.000 A 
ATOM     27  C   UNL     1      62.516  67.663  55.766  0.00  0.00    +0.000 A 
ATOM     28  C   UNL     1      62.641  67.977  56.519  0.00  0.00    +0.000 A 
ATOM     29  C   UNL     1      62.648  68.795  56.628  0.00  0.00    +0.000 A 
ATOM     30  F   UNL     1      62.772  69.109  57.381  0.00  0.00    +0.000 F 
ATOM     31  C   UNL     1      62.531  69.299  55.986  0.00  0.00    +0.000 A 
ATOM     32  C   UNL     1      62.407  68.985  55.233  0.00  0.00    +0.000 A 
ATOM     33  C   UNL     1      62.005  64.771  52.536  0.00  0.00    +0.000 A 
ATOM     34  C   UNL     1      61.881  64.457  51.784  0.00  0.00    +0.000 A 
ENDROOT
TORSDOF 0
ENDMDL
MODEL 7
REMARK VINA RESULT:   -11.999     13.630     15.551
REMARK INTER + INTRA:         -11.999
REMARK INTER:                 -11.999
REMARK INTRA:                   0.000
REMARK UNBOUND:                 0.000
ROOT
REMARK  Name = lomerizine
REMARK                            x       y       z     vdW  Elec       q    Type
REMARK                         _______ _______ _______ _____ _____    ______ ____
ATOM      1  C   UNL     1      63.498  62.966  54.124  0.00  0.00    +0.000 C 
ATOM      2  O   UNL     1      63.079  63.014  53.414  0.00  0.00    +0.000 OA
ATOM      3  C   UNL     1      62.694  63.714  53.209  0.00  0.00    +0.000 A 
ATOM      4  C   UNL     1      62.275  63.762  52.500  0.00  0.00    +0.000 A 
ATOM      5  O   UNL     1      62.242  63.110  51.996  0.00  0.00    +0.000 OA
ATOM      6  C   UNL     1      61.823  63.158  51.287  0.00  0.00    +0.000 C 
ATOM      7  C   UNL     1      61.890  64.462  52.295  0.00  0.00    +0.000 A 
ATOM      8  O   UNL     1      61.471  64.510  51.587  0.00  0.00    +0.000 OA
ATOM      9  C   UNL     1      61.085  65.211  51.382  0.00  0.00    +0.000 C 
ATOM     10  C   UNL     1      61.923  65.114  52.799  0.00  0.00    +0.000 A 
ATOM     11  C   UNL     1      61.537  65.815  52.594  0.00  0.00    +0.000 C 
ATOM     12  N   UNL     1      61.571  66.467  53.099  0.00  0.00    +0.000 NA
ATOM     13  C   UNL     1      61.186  67.167  52.894  0.00  0.00    +0.000 C 
ATOM     14  C   UNL     1      61.219  67.819  53.398  0.00  0.00    +0.000 C 
ATOM     15  N   UNL     1      61.638  67.771  54.108  0.00  0.00    +0.000 NA
ATOM     16  C   UNL     1      62.023  67.071  54.313  0.00  0.00    +0.000 C 
ATOM     17  C   UNL     1      61.989  66.419  53.808  0.00  0.00    +0.000 C 
ATOM     18  C   UNL     1      61.671  68.423  54.612  0.00  0.00    +0.000 C 
ATOM     19  C   UNL     1      62.090  68.375  55.322  0.00  0.00    +0.000 A 
ATOM     20  C   UNL     1      62.123  69.027  55.825  0.00  0.00    +0.000 A 
ATOM     21  C   UNL     1      62.542  68.979  56.535  0.00  0.00    +0.000 A 
ATOM     22  C   UNL     1      62.928  68.279  56.740  0.00  0.00    +0.000 A 
ATOM     23  F   UNL     1      63.346  68.231  57.449  0.00  0.00    +0.000 F 
ATOM     24  C   UNL     1      62.894  67.627  56.235  0.00  0.00    +0.000 A 
ATOM     25  C   UNL     1      62.476  67.675  55.526  0.00  0.00    +0.000 A 
ATOM     26  C   UNL     1      61.286  69.122  54.407  0.00  0.00    +0.000 A 
ATOM     27  C   UNL     1      60.867  69.171  53.698  0.00  0.00    +0.000 A 
ATOM     28  C   UNL     1      60.482  69.871  53.493  0.00  0.00    +0.000 A 
ATOM     29  C   UNL     1      60.515  70.523  53.997  0.00  0.00    +0.000 A 
ATOM     30  F   UNL     1      60.130  71.223  53.793  0.00  0.00    +0.000 F 
ATOM     31  C   UNL     1      60.934  70.475  54.707  0.00  0.00    +0.000 A 
ATOM     32  C   UNL     1      61.319  69.775  54.912  0.00  0.00    +0.000 A 
ATOM     33  C   UNL     1      62.342  65.066  53.509  0.00  0.00    +0.000 A 
ATOM     34  C   UNL     1      62.727  64.366  53.714  0.00  0.00    +0.000 A 
ENDROOT
TORSDOF 0
ENDMDL
