MODEL 1
REMARK VINA RESULT:   -15.758      0.000      0.000
REMARK INTER + INTRA:         -15.758
REMARK INTER:                 -15.758
REMARK INTRA:                   0.000
REMARK UNBOUND:                 0.000
ROOT
REMARK  Name = lonafarnib
REMARK                            x       y       z     vdW  Elec       q    Type
REMARK                         _______ _______ _______ _____ _____    ______ ____
ATOM      1  C   UNL     1      60.217  62.383  66.920  0.00  0.00    +0.000 C 
ATOM      2  C   UNL     1      60.189  61.998  66.191  0.00  0.00    +0.000 C 
ATOM      3  N   UNL     1      60.865  61.956  65.721  0.00  0.00    +0.000 N 
ATOM      4  C   UNL     1      61.570  62.298  65.979  0.00  0.00    +0.000 C 
ATOM      5  C   UNL     1      61.598  62.683  66.709  0.00  0.00    +0.000 C 
ATOM      6  C   UNL     1      60.922  62.725  67.179  0.00  0.00    +0.000 C 
ATOM      7  C   UNL     1      60.950  63.110  67.908  0.00  0.00    +0.000 C 
ATOM      8  C   UNL     1      61.655  63.452  68.167  0.00  0.00    +0.000 C 
ATOM      9  O   UNL     1      62.331  63.410  67.697  0.00  0.00    +0.000 OA
ATOM     10  N   UNL     1      61.683  63.837  68.897  0.00  0.00    +0.000 N 
ATOM     11  C   UNL     1      62.387  64.179  69.156  0.00  0.00    +0.000 C 
ATOM     12  C   UNL     1      62.415  64.564  69.885  0.00  0.00    +0.000 C 
ATOM     13  C   UNL     1      61.739  64.606  70.355  0.00  0.00    +0.000 C 
ATOM     14  C   UNL     1      61.034  64.264  70.097  0.00  0.00    +0.000 C 
ATOM     15  C   UNL     1      61.006  63.880  69.368  0.00  0.00    +0.000 C 
ATOM     16  C   UNL     1      61.767  64.991  71.085  0.00  0.00    +0.000 C 
ATOM     17  C   UNL     1      62.498  65.314  71.291  0.00  0.00    +0.000 A 
ATOM     18  C   UNL     1      62.703  65.727  71.974  0.00  0.00    +0.000 A 
ATOM     19  C   UNL     1      62.227  65.920  72.621  0.00  0.00    +0.000 C 
ATOM     20  C   UNL     1      61.430  65.747  72.743  0.00  0.00    +0.000 C 
ATOM     21  C   UNL     1      60.911  65.338  72.249  0.00  0.00    +0.000 A 
ATOM     22  C   UNL     1      61.061  65.002  71.511  0.00  0.00    +0.000 A 
ATOM     23  N   UNL     1      60.458  64.613  71.105  0.00  0.00    +0.000 NA
ATOM     24  C   UNL     1      59.704  64.561  71.436  0.00  0.00    +0.000 A 
ATOM     25  C   UNL     1      59.554  64.898  72.174  0.00  0.00    +0.000 A 
ATOM     26  C   UNL     1      60.157  65.286  72.581  0.00  0.00    +0.000 A 
ATOM     27 BR   UNL     1      58.800  64.845  72.506  0.00  0.00    +0.000 Br
ATOM     28  C   UNL     1      63.473  66.006  72.073  0.00  0.00    +0.000 A 
ATOM     29  C   UNL     1      64.038  65.871  71.487  0.00  0.00    +0.000 A 
ATOM     30  C   UNL     1      63.833  65.458  70.804  0.00  0.00    +0.000 A 
ATOM     31  C   UNL     1      63.063  65.179  70.706  0.00  0.00    +0.000 A 
ATOM     32 BR   UNL     1      62.858  64.766  70.022  0.00  0.00    +0.000 Br
ATOM     33 CL   UNL     1      64.808  66.150  71.585  0.00  0.00    +0.000 Cl
ATOM     34  C   UNL     1      60.837  61.571  64.991  0.00  0.00    +0.000 C 
ATOM     35  O   UNL     1      60.133  61.229  64.732  0.00  0.00    +0.000 OA
ATOM     36  N   UNL     1      61.514  61.529  64.521  0.00  0.00    +0.000 NA
ENDROOT
TORSDOF 0
ENDMDL
MODEL 2
REMARK VINA RESULT:   -14.733      3.004      5.447
REMARK INTER + INTRA:         -14.733
REMARK INTER:                 -14.733
REMARK INTRA:                   0.000
REMARK UNBOUND:                 0.000
ROOT
REMARK  Name = lonafarnib
REMARK                            x       y       z     vdW  Elec       q    Type
REMARK                         _______ _______ _______ _____ _____    ______ ____
ATOM      1  C   UNL     1      65.381  66.283  71.008  0.00  0.00    +0.000 C 
ATOM      2  C   UNL     1      65.956  66.872  70.953  0.00  0.00    +0.000 C 
ATOM      3  N   UNL     1      66.057  67.284  70.247  0.00  0.00    +0.000 N 
ATOM      4  C   UNL     1      65.583  67.109  69.594  0.00  0.00    +0.000 C 
ATOM      5  C   UNL     1      65.008  66.520  69.649  0.00  0.00    +0.000 C 
ATOM      6  C   UNL     1      64.907  66.107  70.357  0.00  0.00    +0.000 C 
ATOM      7  C   UNL     1      64.332  65.518  70.412  0.00  0.00    +0.000 C 
ATOM      8  C   UNL     1      63.858  65.342  69.759  0.00  0.00    +0.000 C 
ATOM      9  O   UNL     1      63.960  65.755  69.053  0.00  0.00    +0.000 OA
ATOM     10  N   UNL     1      63.283  64.753  69.814  0.00  0.00    +0.000 N 
ATOM     11  C   UNL     1      62.809  64.576  69.163  0.00  0.00    +0.000 C 
ATOM     12  C   UNL     1      62.234  63.987  69.218  0.00  0.00    +0.000 C 
ATOM     13  C   UNL     1      62.133  63.575  69.924  0.00  0.00    +0.000 C 
ATOM     14  C   UNL     1      62.607  63.750  70.577  0.00  0.00    +0.000 C 
ATOM     15  C   UNL     1      63.182  64.339  70.522  0.00  0.00    +0.000 C 
ATOM     16  C   UNL     1      61.558  62.985  69.979  0.00  0.00    +0.000 C 
ATOM     17  C   UNL     1      61.115  62.853  69.296  0.00  0.00    +0.000 A 
ATOM     18  C   UNL     1      60.506  62.309  69.175  0.00  0.00    +0.000 A 
ATOM     19  C   UNL     1      60.191  61.764  69.708  0.00  0.00    +0.000 C 
ATOM     20  C   UNL     1      60.406  61.627  70.493  0.00  0.00    +0.000 C 
ATOM     21  C   UNL     1      60.990  62.002  70.938  0.00  0.00    +0.000 A 
ATOM     22  C   UNL     1      61.503  62.607  70.711  0.00  0.00    +0.000 A 
ATOM     23  N   UNL     1      62.051  62.907  71.248  0.00  0.00    +0.000 NA
ATOM     24  C   UNL     1      62.087  62.603  72.014  0.00  0.00    +0.000 A 
ATOM     25  C   UNL     1      61.575  61.998  72.242  0.00  0.00    +0.000 A 
ATOM     26  C   UNL     1      61.026  61.698  71.705  0.00  0.00    +0.000 A 
ATOM     27 BR   UNL     1      61.611  61.694  73.009  0.00  0.00    +0.000 Br
ATOM     28  C   UNL     1      60.132  62.267  68.442  0.00  0.00    +0.000 A 
ATOM     29  C   UNL     1      60.365  62.767  67.829  0.00  0.00    +0.000 A 
ATOM     30  C   UNL     1      60.973  63.311  67.950  0.00  0.00    +0.000 A 
ATOM     31  C   UNL     1      61.348  63.354  68.684  0.00  0.00    +0.000 A 
ATOM     32 BR   UNL     1      61.956  63.897  68.805  0.00  0.00    +0.000 Br
ATOM     33 CL   UNL     1      59.990  62.725  67.096  0.00  0.00    +0.000 Cl
ATOM     34  C   UNL     1      66.633  67.874  70.192  0.00  0.00    +0.000 C 
ATOM     35  O   UNL     1      67.106  68.050  70.843  0.00  0.00    +0.000 OA
ATOM     36  N   UNL     1      66.733  68.287  69.484  0.00  0.00    +0.000 NA
ENDROOT
TORSDOF 0
ENDMDL
MODEL 3
REMARK VINA RESULT:   -14.132      2.821      5.759
REMARK INTER + INTRA:         -14.132
REMARK INTER:                 -14.132
REMARK INTRA:                   0.000
REMARK UNBOUND:                 0.000
ROOT
REMARK  Name = lonafarnib
REMARK                            x       y       z     vdW  Elec       q    Type
REMARK                         _______ _______ _______ _____ _____    ______ ____
ATOM      1  C   UNL     1      65.100  66.462  69.474  0.00  0.00    +0.000 C 
ATOM      2  C   UNL     1      65.671  66.988  69.756  0.00  0.00    +0.000 C 
ATOM      3  N   UNL     1      65.813  67.046  70.565  0.00  0.00    +0.000 N 
ATOM      4  C   UNL     1      65.386  66.579  71.095  0.00  0.00    +0.000 C 
ATOM      5  C   UNL     1      64.816  66.053  70.814  0.00  0.00    +0.000 C 
ATOM      6  C   UNL     1      64.674  65.996  70.003  0.00  0.00    +0.000 C 
ATOM      7  C   UNL     1      64.103  65.470  69.721  0.00  0.00    +0.000 C 
ATOM      8  C   UNL     1      63.675  65.002  70.250  0.00  0.00    +0.000 C 
ATOM      9  O   UNL     1      63.819  65.061  71.061  0.00  0.00    +0.000 OA
ATOM     10  N   UNL     1      63.105  64.477  69.969  0.00  0.00    +0.000 N 
ATOM     11  C   UNL     1      62.677  64.010  70.497  0.00  0.00    +0.000 C 
ATOM     12  C   UNL     1      62.107  63.484  70.216  0.00  0.00    +0.000 C 
ATOM     13  C   UNL     1      61.964  63.426  69.406  0.00  0.00    +0.000 C 
ATOM     14  C   UNL     1      62.392  63.893  68.876  0.00  0.00    +0.000 C 
ATOM     15  C   UNL     1      62.962  64.419  69.158  0.00  0.00    +0.000 C 
ATOM     16  C   UNL     1      61.394  62.901  69.124  0.00  0.00    +0.000 C 
ATOM     17  C   UNL     1      60.999  62.460  69.699  0.00  0.00    +0.000 A 
ATOM     18  C   UNL     1      60.406  61.895  69.597  0.00  0.00    +0.000 A 
ATOM     19  C   UNL     1      60.063  61.632  68.894  0.00  0.00    +0.000 C 
ATOM     20  C   UNL     1      60.227  61.868  68.121  0.00  0.00    +0.000 C 
ATOM     21  C   UNL     1      60.775  62.426  67.859  0.00  0.00    +0.000 A 
ATOM     22  C   UNL     1      61.295  62.885  68.305  0.00  0.00    +0.000 A 
ATOM     23  N   UNL     1      61.803  63.416  67.930  0.00  0.00    +0.000 NA
ATOM     24  C   UNL     1      61.792  63.487  67.108  0.00  0.00    +0.000 A 
ATOM     25  C   UNL     1      61.273  63.027  66.662  0.00  0.00    +0.000 A 
ATOM     26  C   UNL     1      60.765  62.497  67.036  0.00  0.00    +0.000 A 
ATOM     27 BR   UNL     1      61.262  63.098  65.839  0.00  0.00    +0.000 Br
ATOM     28  C   UNL     1      60.082  61.515  70.252  0.00  0.00    +0.000 A 
ATOM     29  C   UNL     1      60.349  61.699  71.011  0.00  0.00    +0.000 A 
ATOM     30  C   UNL     1      60.941  62.264  71.113  0.00  0.00    +0.000 A 
ATOM     31  C   UNL     1      61.266  62.644  70.457  0.00  0.00    +0.000 A 
ATOM     32 BR   UNL     1      61.859  63.209  70.559  0.00  0.00    +0.000 Br
ATOM     33 CL   UNL     1      60.024  61.319  71.666  0.00  0.00    +0.000 Cl
ATOM     34  C   UNL     1      66.384  67.572  70.847  0.00  0.00    +0.000 C 
ATOM     35  O   UNL     1      66.811  68.039  70.319  0.00  0.00    +0.000 OA
ATOM     36  N   UNL     1      66.527  67.630  71.658  0.00  0.00    +0.000 NA
ENDROOT
TORSDOF 0
ENDMDL
MODEL 4
REMARK VINA RESULT:   -13.244     14.225     16.142
REMARK INTER + INTRA:         -13.244
REMARK INTER:                 -13.244
REMARK INTRA:                   0.000
REMARK UNBOUND:                 0.000
ROOT
REMARK  Name = lonafarnib
REMARK                            x       y       z     vdW  Elec       q    Type
REMARK                         _______ _______ _______ _____ _____    ______ ____
ATOM      1  C   UNL     1      61.742  63.444  52.046  0.00  0.00    +0.000 C 
ATOM      2  C   UNL     1      61.704  62.633  51.900  0.00  0.00    +0.000 C 
ATOM      3  N   UNL     1      61.817  62.098  52.517  0.00  0.00    +0.000 N 
ATOM      4  C   UNL     1      61.968  62.373  53.280  0.00  0.00    +0.000 C 
ATOM      5  C   UNL     1      62.005  63.184  53.426  0.00  0.00    +0.000 C 
ATOM      6  C   UNL     1      61.892  63.719  52.808  0.00  0.00    +0.000 C 
ATOM      7  C   UNL     1      61.930  64.531  52.954  0.00  0.00    +0.000 C 
ATOM      8  C   UNL     1      62.080  64.806  53.718  0.00  0.00    +0.000 C 
ATOM      9  O   UNL     1      62.193  64.270  54.334  0.00  0.00    +0.000 OA
ATOM     10  N   UNL     1      62.117  65.617  53.864  0.00  0.00    +0.000 N 
ATOM     11  C   UNL     1      62.268  65.893  54.626  0.00  0.00    +0.000 C 
ATOM     12  C   UNL     1      62.305  66.705  54.772  0.00  0.00    +0.000 C 
ATOM     13  C   UNL     1      62.192  67.240  54.156  0.00  0.00    +0.000 C 
ATOM     14  C   UNL     1      62.042  66.965  53.392  0.00  0.00    +0.000 C 
ATOM     15  C   UNL     1      62.004  66.154  53.246  0.00  0.00    +0.000 C 
ATOM     16  C   UNL     1      62.230  68.051  54.301  0.00  0.00    +0.000 C 
ATOM     17  C   UNL     1      62.383  68.267  55.082  0.00  0.00    +0.000 A 
ATOM     18  C   UNL     1      62.453  69.024  55.402  0.00  0.00    +0.000 A 
ATOM     19  C   UNL     1      62.387  69.752  55.019  0.00  0.00    +0.000 C 
ATOM     20  C   UNL     1      62.235  69.903  54.222  0.00  0.00    +0.000 C 
ATOM     21  C   UNL     1      62.111  69.362  53.612  0.00  0.00    +0.000 A 
ATOM     22  C   UNL     1      62.109  68.538  53.646  0.00  0.00    +0.000 A 
ATOM     23  N   UNL     1      61.972  68.097  52.964  0.00  0.00    +0.000 NA
ATOM     24  C   UNL     1      61.837  68.480  52.245  0.00  0.00    +0.000 A 
ATOM     25  C   UNL     1      61.840  69.303  52.210  0.00  0.00    +0.000 A 
ATOM     26  C   UNL     1      61.977  69.745  52.892  0.00  0.00    +0.000 A 
ATOM     27 BR   UNL     1      61.705  69.686  51.491  0.00  0.00    +0.000 Br
ATOM     28  C   UNL     1      62.609  69.120  56.206  0.00  0.00    +0.000 A 
ATOM     29  C   UNL     1      62.696  68.458  56.691  0.00  0.00    +0.000 A 
ATOM     30  C   UNL     1      62.625  67.701  56.371  0.00  0.00    +0.000 A 
ATOM     31  C   UNL     1      62.469  67.606  55.567  0.00  0.00    +0.000 A 
ATOM     32 BR   UNL     1      62.399  66.849  55.248  0.00  0.00    +0.000 Br
ATOM     33 CL   UNL     1      62.852  68.553  57.495  0.00  0.00    +0.000 Cl
ATOM     34  C   UNL     1      61.780  61.286  52.371  0.00  0.00    +0.000 C 
ATOM     35  O   UNL     1      61.630  61.011  51.608  0.00  0.00    +0.000 OA
ATOM     36  N   UNL     1      61.893  60.751  52.989  0.00  0.00    +0.000 NA
ENDROOT
TORSDOF 0
ENDMDL
MODEL 5
REMARK VINA RESULT:   -13.189      3.648      5.457
REMARK INTER + INTRA:         -13.189
REMARK INTER:                 -13.189
REMARK INTRA:                   0.000
REMARK UNBOUND:                 0.000
ROOT
REMARK  Name = lonafarnib
REMARK                            x       y       z     vdW  Elec       q    Type
REMARK                         _______ _______ _______ _____ _____    ______ ____
ATOM      1  C   UNL     1      65.691  67.698  69.775  0.00  0.00    +0.000 C 
ATOM      2  C   UNL     1      66.473  67.959  69.734  0.00  0.00    +0.000 C 
ATOM      3  N   UNL     1      67.053  67.595  70.193  0.00  0.00    +0.000 N 
ATOM      4  C   UNL     1      66.852  66.970  70.694  0.00  0.00    +0.000 C 
ATOM      5  C   UNL     1      66.071  66.709  70.735  0.00  0.00    +0.000 C 
ATOM      6  C   UNL     1      65.490  67.074  70.275  0.00  0.00    +0.000 C 
ATOM      7  C   UNL     1      64.708  66.813  70.316  0.00  0.00    +0.000 C 
ATOM      8  C   UNL     1      64.507  66.188  70.816  0.00  0.00    +0.000 C 
ATOM      9  O   UNL     1      65.088  65.825  71.275  0.00  0.00    +0.000 OA
ATOM     10  N   UNL     1      63.725  65.928  70.857  0.00  0.00    +0.000 N 
ATOM     11  C   UNL     1      63.524  65.303  71.357  0.00  0.00    +0.000 C 
ATOM     12  C   UNL     1      62.742  65.043  71.398  0.00  0.00    +0.000 C 
ATOM     13  C   UNL     1      62.162  65.406  70.939  0.00  0.00    +0.000 C 
ATOM     14  C   UNL     1      62.362  66.031  70.438  0.00  0.00    +0.000 C 
ATOM     15  C   UNL     1      63.144  66.292  70.397  0.00  0.00    +0.000 C 
ATOM     16  C   UNL     1      61.380  65.146  70.980  0.00  0.00    +0.000 C 
ATOM     17  C   UNL     1      61.239  64.519  71.496  0.00  0.00    +0.000 A 
ATOM     18  C   UNL     1      60.526  64.138  71.660  0.00  0.00    +0.000 A 
ATOM     19  C   UNL     1      59.778  64.290  71.346  0.00  0.00    +0.000 C 
ATOM     20  C   UNL     1      59.558  64.861  70.792  0.00  0.00    +0.000 C 
ATOM     21  C   UNL     1      60.033  65.420  70.414  0.00  0.00    +0.000 A 
ATOM     22  C   UNL     1      60.843  65.547  70.498  0.00  0.00    +0.000 A 
ATOM     23  N   UNL     1      61.215  66.142  70.064  0.00  0.00    +0.000 NA
ATOM     24  C   UNL     1      60.775  66.611  69.546  0.00  0.00    +0.000 A 
ATOM     25  C   UNL     1      59.964  66.484  69.463  0.00  0.00    +0.000 A 
ATOM     26  C   UNL     1      59.593  65.889  69.897  0.00  0.00    +0.000 A 
ATOM     27 BR   UNL     1      59.524  66.953  68.945  0.00  0.00    +0.000 Br
ATOM     28  C   UNL     1      60.505  63.516  72.201  0.00  0.00    +0.000 A 
ATOM     29  C   UNL     1      61.197  63.274  72.579  0.00  0.00    +0.000 A 
ATOM     30  C   UNL     1      61.910  63.656  72.416  0.00  0.00    +0.000 A 
ATOM     31  C   UNL     1      61.931  64.278  71.875  0.00  0.00    +0.000 A 
ATOM     32 BR   UNL     1      62.644  64.659  71.711  0.00  0.00    +0.000 Br
ATOM     33 CL   UNL     1      61.176  62.653  73.120  0.00  0.00    +0.000 Cl
ATOM     34  C   UNL     1      67.835  67.856  70.153  0.00  0.00    +0.000 C 
ATOM     35  O   UNL     1      68.036  68.480  69.653  0.00  0.00    +0.000 OA
ATOM     36  N   UNL     1      68.416  67.491  70.612  0.00  0.00    +0.000 NA
ENDROOT
TORSDOF 0
ENDMDL
MODEL 6
REMARK VINA RESULT:   -12.943     14.224     16.046
REMARK INTER + INTRA:         -12.943
REMARK INTER:                 -12.943
REMARK INTRA:                   0.000
REMARK UNBOUND:                 0.000
ROOT
REMARK  Name = lonafarnib
REMARK                            x       y       z     vdW  Elec       q    Type
REMARK                         _______ _______ _______ _____ _____    ______ ____
ATOM      1  C   UNL     1      62.920  63.056  54.307  0.00  0.00    +0.000 C 
ATOM      2  C   UNL     1      62.982  62.266  54.078  0.00  0.00    +0.000 C 
ATOM      3  N   UNL     1      62.782  62.043  53.310  0.00  0.00    +0.000 N 
ATOM      4  C   UNL     1      62.520  62.609  52.769  0.00  0.00    +0.000 C 
ATOM      5  C   UNL     1      62.458  63.399  52.998  0.00  0.00    +0.000 C 
ATOM      6  C   UNL     1      62.658  63.622  53.767  0.00  0.00    +0.000 C 
ATOM      7  C   UNL     1      62.596  64.412  53.996  0.00  0.00    +0.000 C 
ATOM      8  C   UNL     1      62.334  64.979  53.456  0.00  0.00    +0.000 C 
ATOM      9  O   UNL     1      62.135  64.755  52.688  0.00  0.00    +0.000 OA
ATOM     10  N   UNL     1      62.272  65.769  53.685  0.00  0.00    +0.000 N 
ATOM     11  C   UNL     1      62.010  66.336  53.146  0.00  0.00    +0.000 C 
ATOM     12  C   UNL     1      61.948  67.126  53.375  0.00  0.00    +0.000 C 
ATOM     13  C   UNL     1      62.148  67.350  54.143  0.00  0.00    +0.000 C 
ATOM     14  C   UNL     1      62.409  66.784  54.683  0.00  0.00    +0.000 C 
ATOM     15  C   UNL     1      62.472  65.993  54.454  0.00  0.00    +0.000 C 
ATOM     16  C   UNL     1      62.086  68.140  54.372  0.00  0.00    +0.000 C 
ATOM     17  C   UNL     1      61.819  68.661  53.791  0.00  0.00    +0.000 A 
ATOM     18  C   UNL     1      61.699  69.475  53.846  0.00  0.00    +0.000 A 
ATOM     19  C   UNL     1      61.816  69.969  54.496  0.00  0.00    +0.000 C 
ATOM     20  C   UNL     1      62.083  69.772  55.251  0.00  0.00    +0.000 C 
ATOM     21  C   UNL     1      62.297  69.030  55.543  0.00  0.00    +0.000 A 
ATOM     22  C   UNL     1      62.299  68.304  55.152  0.00  0.00    +0.000 A 
ATOM     23  N   UNL     1      62.536  67.622  55.550  0.00  0.00    +0.000 NA
ATOM     24  C   UNL     1      62.772  67.666  56.340  0.00  0.00    +0.000 A 
ATOM     25  C   UNL     1      62.771  68.392  56.730  0.00  0.00    +0.000 A 
ATOM     26  C   UNL     1      62.534  69.074  56.333  0.00  0.00    +0.000 A 
ATOM     27 BR   UNL     1      63.007  68.435  57.520  0.00  0.00    +0.000 Br
ATOM     28  C   UNL     1      61.426  69.897  53.191  0.00  0.00    +0.000 A 
ATOM     29  C   UNL     1      61.273  69.505  52.482  0.00  0.00    +0.000 A 
ATOM     30  C   UNL     1      61.393  68.691  52.427  0.00  0.00    +0.000 A 
ATOM     31  C   UNL     1      61.666  68.269  53.081  0.00  0.00    +0.000 A 
ATOM     32 BR   UNL     1      61.786  67.455  53.027  0.00  0.00    +0.000 Br
ATOM     33 CL   UNL     1      61.001  69.927  51.828  0.00  0.00    +0.000 Cl
ATOM     34  C   UNL     1      62.844  61.252  53.081  0.00  0.00    +0.000 C 
ATOM     35  O   UNL     1      63.106  60.686  53.620  0.00  0.00    +0.000 OA
ATOM     36  N   UNL     1      62.645  61.028  52.312  0.00  0.00    +0.000 NA
ENDROOT
TORSDOF 0
ENDMDL
