MODEL 1
REMARK VINA RESULT:   -19.056      0.000      0.000
REMARK INTER + INTRA:         -19.056
REMARK INTER:                 -19.056
REMARK INTRA:                   0.000
REMARK UNBOUND:                 0.000
ROOT
REMARK  Name = lopinavir
REMARK                            x       y       z     vdW  Elec       q    Type
REMARK                         _______ _______ _______ _____ _____    ______ ____
ATOM      1  C   UNL     1      60.008  66.779  73.222  0.00  0.00    +0.000 C 
ATOM      2  C   UNL     1      60.748  66.775  72.857  0.00  0.00    +0.000 C 
ATOM      3  C   UNL     1      61.367  67.218  73.172  0.00  0.00    +0.000 C 
ATOM      4  C   UNL     1      60.867  66.326  72.175  0.00  0.00    +0.000 C 
ATOM      5  N   UNL     1      60.247  65.883  71.858  0.00  0.00    +0.000 N 
ATOM      6  C   UNL     1      60.366  65.434  71.176  0.00  0.00    +0.000 C 
ATOM      7  C   UNL     1      59.747  64.991  70.861  0.00  0.00    +0.000 C 
ATOM      8  C   UNL     1      59.007  64.996  71.226  0.00  0.00    +0.000 C 
ATOM      9  N   UNL     1      58.888  65.444  71.908  0.00  0.00    +0.000 NA
ATOM     10  C   UNL     1      59.508  65.888  72.225  0.00  0.00    +0.000 C 
ATOM     11  O   UNL     1      59.389  66.337  72.907  0.00  0.00    +0.000 OA
ATOM     12  C   UNL     1      61.606  66.321  71.808  0.00  0.00    +0.000 C 
ATOM     13  O   UNL     1      61.726  65.872  71.126  0.00  0.00    +0.000 OA
ATOM     14  N   UNL     1      62.226  66.764  72.125  0.00  0.00    +0.000 NA
ATOM     15  C   UNL     1      62.966  66.759  71.758  0.00  0.00    +0.000 C 
ATOM     16  C   UNL     1      63.085  66.310  71.076  0.00  0.00    +0.000 C 
ATOM     17  C   UNL     1      62.465  65.867  70.761  0.00  0.00    +0.000 C 
ATOM     18  O   UNL     1      61.697  65.568  70.717  0.00  0.00    +0.000 OA
ATOM     19  C   UNL     1      62.584  65.419  70.079  0.00  0.00    +0.000 C 
ATOM     20  C   UNL     1      63.198  65.255  69.552  0.00  0.00    +0.000 C 
ATOM     21  C   UNL     1      63.941  65.595  69.666  0.00  0.00    +0.000 A 
ATOM     22  C   UNL     1      64.070  66.100  70.306  0.00  0.00    +0.000 A 
ATOM     23  C   UNL     1      64.812  66.440  70.419  0.00  0.00    +0.000 A 
ATOM     24  C   UNL     1      65.426  66.276  69.893  0.00  0.00    +0.000 A 
ATOM     25  C   UNL     1      65.297  65.771  69.253  0.00  0.00    +0.000 A 
ATOM     26  C   UNL     1      64.555  65.431  69.139  0.00  0.00    +0.000 A 
ATOM     27  N   UNL     1      61.965  64.975  69.762  0.00  0.00    +0.000 NA
ATOM     28  C   UNL     1      62.084  64.527  69.080  0.00  0.00    +0.000 C 
ATOM     29  O   UNL     1      62.823  64.522  68.714  0.00  0.00    +0.000 OA
ATOM     30  C   UNL     1      61.465  64.084  68.764  0.00  0.00    +0.000 C 
ATOM     31  O   UNL     1      61.584  63.636  68.082  0.00  0.00    +0.000 OA
ATOM     32  C   UNL     1      60.964  63.192  67.766  0.00  0.00    +0.000 A 
ATOM     33  C   UNL     1      61.083  62.743  67.084  0.00  0.00    +0.000 A 
ATOM     34  C   UNL     1      61.823  62.739  66.718  0.00  0.00    +0.000 C 
ATOM     35  C   UNL     1      60.464  62.301  66.768  0.00  0.00    +0.000 A 
ATOM     36  C   UNL     1      59.724  62.305  67.134  0.00  0.00    +0.000 A 
ATOM     37  C   UNL     1      59.604  62.754  67.816  0.00  0.00    +0.000 A 
ATOM     38  C   UNL     1      60.225  63.197  68.132  0.00  0.00    +0.000 A 
ATOM     39  C   UNL     1      60.105  63.646  68.814  0.00  0.00    +0.000 C 
ATOM     40  C   UNL     1      63.585  67.202  72.075  0.00  0.00    +0.000 C 
ATOM     41  C   UNL     1      64.325  67.197  71.708  0.00  0.00    +0.000 A 
ATOM     42  C   UNL     1      64.944  67.640  72.025  0.00  0.00    +0.000 A 
ATOM     43  C   UNL     1      65.684  67.635  71.658  0.00  0.00    +0.000 A 
ATOM     44  C   UNL     1      65.804  67.186  70.976  0.00  0.00    +0.000 A 
ATOM     45  C   UNL     1      65.183  66.743  70.661  0.00  0.00    +0.000 A 
ATOM     46  C   UNL     1      64.444  66.748  71.026  0.00  0.00    +0.000 A 
ENDROOT
TORSDOF 0
ENDMDL
