MODEL 1
REMARK VINA RESULT:   -13.996      0.000      0.000
REMARK INTER + INTRA:         -13.996
REMARK INTER:                 -13.996
REMARK INTRA:                   0.000
REMARK UNBOUND:                 0.000
ROOT
REMARK  Name = loprazolam
REMARK                            x       y       z     vdW  Elec       q    Type
REMARK                         _______ _______ _______ _____ _____    ______ ____
ATOM      1  C   UNL     1      61.149  61.908  65.767  0.00  0.00    +0.000 C 
ATOM      2  N   UNL     1      61.027  62.262  66.502  0.00  0.00    +0.000 NA
ATOM      3  C   UNL     1      61.622  62.722  66.842  0.00  0.00    +0.000 C 
ATOM      4  C   UNL     1      61.500  63.076  67.577  0.00  0.00    +0.000 C 
ATOM      5  N   UNL     1      60.782  62.970  67.973  0.00  0.00    +0.000 N 
ATOM      6  C   UNL     1      60.188  62.510  67.632  0.00  0.00    +0.000 C 
ATOM      7  C   UNL     1      60.310  62.156  66.897  0.00  0.00    +0.000 C 
ATOM      8  C   UNL     1      60.660  63.324  68.708  0.00  0.00    +0.000 C 
ATOM      9  C   UNL     1      61.255  63.783  69.048  0.00  0.00    +0.000 C 
ATOM     10  N   UNL     1      61.996  63.938  68.720  0.00  0.00    +0.000 NA
ATOM     11  C   UNL     1      62.412  64.420  69.246  0.00  0.00    +0.000 C 
ATOM     12  C   UNL     1      63.179  64.690  69.105  0.00  0.00    +0.000 C 
ATOM     13  N   UNL     1      63.651  65.171  69.582  0.00  0.00    +0.000 NA
ATOM     14  C   UNL     1      63.472  65.499  70.317  0.00  0.00    +0.000 C 
ATOM     15  C   UNL     1      62.777  65.428  70.757  0.00  0.00    +0.000 A 
ATOM     16  C   UNL     1      62.828  65.846  71.466  0.00  0.00    +0.000 A 
ATOM     17  C   UNL     1      62.189  65.847  71.990  0.00  0.00    +0.000 A 
ATOM     18  C   UNL     1      61.502  65.431  71.803  0.00  0.00    +0.000 A 
ATOM     19  C   UNL     1      61.452  65.013  71.093  0.00  0.00    +0.000 A 
ATOM     20  C   UNL     1      62.091  65.012  70.570  0.00  0.00    +0.000 A 
ATOM     21  N   UNL     1      61.928  64.563  69.898  0.00  0.00    +0.000 N 
ATOM     22  C   UNL     1      61.213  64.170  69.776  0.00  0.00    +0.000 C 
ATOM     23  O   UNL     1      60.568  64.164  70.291  0.00  0.00    +0.000 OA
ATOM     24  N   UNL     1      62.239  66.265  72.699  0.00  0.00    +0.000 N 
ATOM     25  O   UNL     1      61.600  66.266  73.222  0.00  0.00    +0.000 OA
ATOM     26  O   UNL     1      62.926  66.682  72.886  0.00  0.00    +0.000 OA
ATOM     27  C   UNL     1      64.066  65.959  70.657  0.00  0.00    +0.000 A 
ATOM     28  C   UNL     1      64.783  66.065  70.262  0.00  0.00    +0.000 A 
ATOM     29 CL   UNL     1      64.905  65.711  69.527  0.00  0.00    +0.000 Cl
ATOM     30  C   UNL     1      65.378  66.524  70.602  0.00  0.00    +0.000 A 
ATOM     31  C   UNL     1      65.255  66.878  71.338  0.00  0.00    +0.000 A 
ATOM     32  C   UNL     1      64.539  66.772  71.732  0.00  0.00    +0.000 A 
ATOM     33  C   UNL     1      63.944  66.313  71.392  0.00  0.00    +0.000 A 
ENDROOT
TORSDOF 0
ENDMDL
MODEL 2
REMARK VINA RESULT:   -13.771      1.536      4.924
REMARK INTER + INTRA:         -13.771
REMARK INTER:                 -13.771
REMARK INTRA:                   0.000
REMARK UNBOUND:                 0.000
ROOT
REMARK  Name = loprazolam
REMARK                            x       y       z     vdW  Elec       q    Type
REMARK                         _______ _______ _______ _____ _____    ______ ____
ATOM      1  C   UNL     1      66.346  67.825  69.864  0.00  0.00    +0.000 C 
ATOM      2  N   UNL     1      65.767  67.371  70.236  0.00  0.00    +0.000 NA
ATOM      3  C   UNL     1      65.297  66.857  69.792  0.00  0.00    +0.000 C 
ATOM      4  C   UNL     1      64.717  66.403  70.164  0.00  0.00    +0.000 C 
ATOM      5  N   UNL     1      64.606  66.462  70.980  0.00  0.00    +0.000 N 
ATOM      6  C   UNL     1      65.076  66.976  71.423  0.00  0.00    +0.000 C 
ATOM      7  C   UNL     1      65.656  67.430  71.052  0.00  0.00    +0.000 C 
ATOM      8  C   UNL     1      64.026  66.008  71.351  0.00  0.00    +0.000 C 
ATOM      9  C   UNL     1      63.557  65.496  70.908  0.00  0.00    +0.000 C 
ATOM     10  N   UNL     1      63.604  65.378  70.093  0.00  0.00    +0.000 NA
ATOM     11  C   UNL     1      63.034  64.819  69.882  0.00  0.00    +0.000 C 
ATOM     12  C   UNL     1      62.915  64.560  69.108  0.00  0.00    +0.000 C 
ATOM     13  N   UNL     1      62.369  64.009  68.828  0.00  0.00    +0.000 NA
ATOM     14  C   UNL     1      61.807  63.581  69.253  0.00  0.00    +0.000 C 
ATOM     15  C   UNL     1      61.651  63.599  70.064  0.00  0.00    +0.000 A 
ATOM     16  C   UNL     1      61.040  63.082  70.263  0.00  0.00    +0.000 A 
ATOM     17  C   UNL     1      60.797  63.016  71.049  0.00  0.00    +0.000 A 
ATOM     18  C   UNL     1      61.166  63.466  71.635  0.00  0.00    +0.000 A 
ATOM     19  C   UNL     1      61.778  63.982  71.434  0.00  0.00    +0.000 A 
ATOM     20  C   UNL     1      62.020  64.048  70.648  0.00  0.00    +0.000 A 
ATOM     21  N   UNL     1      62.635  64.591  70.567  0.00  0.00    +0.000 N 
ATOM     22  C   UNL     1      62.958  65.009  71.201  0.00  0.00    +0.000 C 
ATOM     23  O   UNL     1      62.725  64.951  71.991  0.00  0.00    +0.000 OA
ATOM     24  N   UNL     1      60.186  62.500  71.250  0.00  0.00    +0.000 N 
ATOM     25  O   UNL     1      59.943  62.433  72.036  0.00  0.00    +0.000 OA
ATOM     26  O   UNL     1      59.817  62.050  70.666  0.00  0.00    +0.000 OA
ATOM     27  C   UNL     1      61.337  63.068  68.810  0.00  0.00    +0.000 A 
ATOM     28  C   UNL     1      61.447  63.008  67.994  0.00  0.00    +0.000 A 
ATOM     29 CL   UNL     1      62.027  63.462  67.622  0.00  0.00    +0.000 Cl
ATOM     30  C   UNL     1      60.978  62.495  67.550  0.00  0.00    +0.000 A 
ATOM     31  C   UNL     1      60.398  62.041  67.923  0.00  0.00    +0.000 A 
ATOM     32  C   UNL     1      60.288  62.101  68.738  0.00  0.00    +0.000 A 
ATOM     33  C   UNL     1      60.757  62.614  69.181  0.00  0.00    +0.000 A 
ENDROOT
TORSDOF 0
ENDMDL
MODEL 3
REMARK VINA RESULT:   -13.490      1.692      2.846
REMARK INTER + INTRA:         -13.490
REMARK INTER:                 -13.490
REMARK INTRA:                   0.000
REMARK UNBOUND:                 0.000
ROOT
REMARK  Name = loprazolam
REMARK                            x       y       z     vdW  Elec       q    Type
REMARK                         _______ _______ _______ _____ _____    ______ ____
ATOM      1  C   UNL     1      59.381  61.634  65.784  0.00  0.00    +0.000 C 
ATOM      2  N   UNL     1      59.955  62.015  66.238  0.00  0.00    +0.000 NA
ATOM      3  C   UNL     1      59.752  62.348  66.966  0.00  0.00    +0.000 C 
ATOM      4  C   UNL     1      60.325  62.729  67.420  0.00  0.00    +0.000 C 
ATOM      5  N   UNL     1      61.103  62.777  67.147  0.00  0.00    +0.000 N 
ATOM      6  C   UNL     1      61.306  62.445  66.420  0.00  0.00    +0.000 C 
ATOM      7  C   UNL     1      60.732  62.064  65.966  0.00  0.00    +0.000 C 
ATOM      8  C   UNL     1      61.676  63.158  67.602  0.00  0.00    +0.000 C 
ATOM      9  C   UNL     1      61.473  63.490  68.329  0.00  0.00    +0.000 C 
ATOM     10  N   UNL     1      60.722  63.485  68.671  0.00  0.00    +0.000 NA
ATOM     11  C   UNL     1      60.770  63.878  69.396  0.00  0.00    +0.000 C 
ATOM     12  C   UNL     1      60.124  63.983  69.899  0.00  0.00    +0.000 C 
ATOM     13  N   UNL     1      60.099  64.363  70.631  0.00  0.00    +0.000 NA
ATOM     14  C   UNL     1      60.714  64.730  71.041  0.00  0.00    +0.000 C 
ATOM     15  C   UNL     1      61.505  64.809  70.820  0.00  0.00    +0.000 A 
ATOM     16  C   UNL     1      61.937  65.217  71.392  0.00  0.00    +0.000 A 
ATOM     17  C   UNL     1      62.743  65.356  71.277  0.00  0.00    +0.000 A 
ATOM     18  C   UNL     1      63.115  65.087  70.591  0.00  0.00    +0.000 A 
ATOM     19  C   UNL     1      62.682  64.679  70.020  0.00  0.00    +0.000 A 
ATOM     20  C   UNL     1      61.876  64.540  70.134  0.00  0.00    +0.000 A 
ATOM     21  N   UNL     1      61.549  64.126  69.501  0.00  0.00    +0.000 N 
ATOM     22  C   UNL     1      61.984  63.887  68.842  0.00  0.00    +0.000 C 
ATOM     23  O   UNL     1      62.789  64.020  68.716  0.00  0.00    +0.000 OA
ATOM     24  N   UNL     1      63.176  65.764  71.849  0.00  0.00    +0.000 N 
ATOM     25  O   UNL     1      63.981  65.903  71.734  0.00  0.00    +0.000 OA
ATOM     26  O   UNL     1      62.805  66.033  72.534  0.00  0.00    +0.000 OA
ATOM     27  C   UNL     1      60.510  65.063  71.768  0.00  0.00    +0.000 A 
ATOM     28  C   UNL     1      59.733  65.014  72.041  0.00  0.00    +0.000 A 
ATOM     29 CL   UNL     1      59.159  64.633  71.587  0.00  0.00    +0.000 Cl
ATOM     30  C   UNL     1      59.529  65.346  72.768  0.00  0.00    +0.000 A 
ATOM     31  C   UNL     1      60.104  65.727  73.222  0.00  0.00    +0.000 A 
ATOM     32  C   UNL     1      60.880  65.776  72.949  0.00  0.00    +0.000 A 
ATOM     33  C   UNL     1      61.084  65.444  72.223  0.00  0.00    +0.000 A 
ENDROOT
TORSDOF 0
ENDMDL
MODEL 4
REMARK VINA RESULT:   -12.998      2.052      5.281
REMARK INTER + INTRA:         -12.998
REMARK INTER:                 -12.998
REMARK INTRA:                   0.000
REMARK UNBOUND:                 0.000
ROOT
REMARK  Name = loprazolam
REMARK                            x       y       z     vdW  Elec       q    Type
REMARK                         _______ _______ _______ _____ _____    ______ ____
ATOM      1  C   UNL     1      66.454  66.925  72.105  0.00  0.00    +0.000 C 
ATOM      2  N   UNL     1      65.891  66.716  71.539  0.00  0.00    +0.000 NA
ATOM      3  C   UNL     1      65.379  66.085  71.679  0.00  0.00    +0.000 C 
ATOM      4  C   UNL     1      64.816  65.876  71.113  0.00  0.00    +0.000 C 
ATOM      5  N   UNL     1      64.764  66.300  70.406  0.00  0.00    +0.000 N 
ATOM      6  C   UNL     1      65.277  66.932  70.266  0.00  0.00    +0.000 C 
ATOM      7  C   UNL     1      65.840  67.140  70.832  0.00  0.00    +0.000 C 
ATOM      8  C   UNL     1      64.201  66.092  69.841  0.00  0.00    +0.000 C 
ATOM      9  C   UNL     1      63.690  65.460  69.981  0.00  0.00    +0.000 C 
ATOM     10  N   UNL     1      63.676  64.989  70.658  0.00  0.00    +0.000 NA
ATOM     11  C   UNL     1      63.079  64.426  70.564  0.00  0.00    +0.000 C 
ATOM     12  C   UNL     1      62.900  63.855  71.132  0.00  0.00    +0.000 C 
ATOM     13  N   UNL     1      62.321  63.266  71.106  0.00  0.00    +0.000 NA
ATOM     14  C   UNL     1      61.780  63.105  70.505  0.00  0.00    +0.000 C 
ATOM     15  C   UNL     1      61.683  63.491  69.782  0.00  0.00    +0.000 A 
ATOM     16  C   UNL     1      61.075  63.152  69.340  0.00  0.00    +0.000 A 
ATOM     17  C   UNL     1      60.887  63.457  68.597  0.00  0.00    +0.000 A 
ATOM     18  C   UNL     1      61.307  64.100  68.296  0.00  0.00    +0.000 A 
ATOM     19  C   UNL     1      61.915  64.439  68.739  0.00  0.00    +0.000 A 
ATOM     20  C   UNL     1      62.103  64.134  69.482  0.00  0.00    +0.000 A 
ATOM     21  N   UNL     1      62.724  64.550  69.830  0.00  0.00    +0.000 N 
ATOM     22  C   UNL     1      63.101  65.189  69.470  0.00  0.00    +0.000 C 
ATOM     23  O   UNL     1      62.923  65.503  68.728  0.00  0.00    +0.000 OA
ATOM     24  N   UNL     1      60.279  63.118  68.154  0.00  0.00    +0.000 N 
ATOM     25  O   UNL     1      60.091  63.423  67.410  0.00  0.00    +0.000 OA
ATOM     26  O   UNL     1      59.858  62.475  68.453  0.00  0.00    +0.000 OA
ATOM     27  C   UNL     1      61.268  62.473  70.645  0.00  0.00    +0.000 A 
ATOM     28  C   UNL     1      61.319  62.050  71.352  0.00  0.00    +0.000 A 
ATOM     29 CL   UNL     1      61.882  62.258  71.918  0.00  0.00    +0.000 Cl
ATOM     30  C   UNL     1      60.808  61.418  71.493  0.00  0.00    +0.000 A 
ATOM     31  C   UNL     1      60.244  61.210  70.926  0.00  0.00    +0.000 A 
ATOM     32  C   UNL     1      60.194  61.634  70.220  0.00  0.00    +0.000 A 
ATOM     33  C   UNL     1      60.705  62.265  70.080  0.00  0.00    +0.000 A 
ENDROOT
TORSDOF 0
ENDMDL
MODEL 5
REMARK VINA RESULT:   -12.840      2.396      5.065
REMARK INTER + INTRA:         -12.840
REMARK INTER:                 -12.840
REMARK INTRA:                   0.000
REMARK UNBOUND:                 0.000
ROOT
REMARK  Name = loprazolam
REMARK                            x       y       z     vdW  Elec       q    Type
REMARK                         _______ _______ _______ _____ _____    ______ ____
ATOM      1  C   UNL     1      66.685  67.192  71.012  0.00  0.00    +0.000 C 
ATOM      2  N   UNL     1      65.890  67.168  71.231  0.00  0.00    +0.000 NA
ATOM      3  C   UNL     1      65.450  66.480  71.114  0.00  0.00    +0.000 C 
ATOM      4  C   UNL     1      64.655  66.456  71.333  0.00  0.00    +0.000 C 
ATOM      5  N   UNL     1      64.299  67.121  71.668  0.00  0.00    +0.000 N 
ATOM      6  C   UNL     1      64.739  67.810  71.784  0.00  0.00    +0.000 C 
ATOM      7  C   UNL     1      65.534  67.834  71.566  0.00  0.00    +0.000 C 
ATOM      8  C   UNL     1      63.504  67.097  71.886  0.00  0.00    +0.000 C 
ATOM      9  C   UNL     1      63.065  66.409  71.770  0.00  0.00    +0.000 C 
ATOM     10  N   UNL     1      63.344  65.705  71.443  0.00  0.00    +0.000 NA
ATOM     11  C   UNL     1      62.721  65.164  71.432  0.00  0.00    +0.000 C 
ATOM     12  C   UNL     1      62.792  64.395  71.141  0.00  0.00    +0.000 C 
ATOM     13  N   UNL     1      62.216  63.805  71.099  0.00  0.00    +0.000 NA
ATOM     14  C   UNL     1      61.427  63.841  71.337  0.00  0.00    +0.000 C 
ATOM     15  C   UNL     1      61.018  64.473  71.675  0.00  0.00    +0.000 A 
ATOM     16  C   UNL     1      60.233  64.275  71.830  0.00  0.00    +0.000 A 
ATOM     17  C   UNL     1      59.727  64.832  72.169  0.00  0.00    +0.000 A 
ATOM     18  C   UNL     1      60.008  65.586  72.354  0.00  0.00    +0.000 A 
ATOM     19  C   UNL     1      60.794  65.783  72.199  0.00  0.00    +0.000 A 
ATOM     20  C   UNL     1      61.299  65.226  71.859  0.00  0.00    +0.000 A 
ATOM     21  N   UNL     1      62.057  65.534  71.751  0.00  0.00    +0.000 N 
ATOM     22  C   UNL     1      62.269  66.303  71.960  0.00  0.00    +0.000 C 
ATOM     23  O   UNL     1      61.773  66.868  72.300  0.00  0.00    +0.000 OA
ATOM     24  N   UNL     1      58.941  64.635  72.324  0.00  0.00    +0.000 N 
ATOM     25  O   UNL     1      58.436  65.192  72.664  0.00  0.00    +0.000 OA
ATOM     26  O   UNL     1      58.660  63.882  72.140  0.00  0.00    +0.000 OA
ATOM     27  C   UNL     1      60.987  63.152  71.220  0.00  0.00    +0.000 A 
ATOM     28  C   UNL     1      61.343  62.487  70.885  0.00  0.00    +0.000 A 
ATOM     29 CL   UNL     1      62.138  62.511  70.667  0.00  0.00    +0.000 Cl
ATOM     30  C   UNL     1      60.904  61.798  70.769  0.00  0.00    +0.000 A 
ATOM     31  C   UNL     1      60.108  61.775  70.988  0.00  0.00    +0.000 A 
ATOM     32  C   UNL     1      59.753  62.440  71.323  0.00  0.00    +0.000 A 
ATOM     33  C   UNL     1      60.192  63.128  71.439  0.00  0.00    +0.000 A 
ENDROOT
TORSDOF 0
ENDMDL
MODEL 6
REMARK VINA RESULT:   -12.775      2.258      3.013
REMARK INTER + INTRA:         -12.775
REMARK INTER:                 -12.775
REMARK INTRA:                   0.000
REMARK UNBOUND:                 0.000
ROOT
REMARK  Name = loprazolam
REMARK                            x       y       z     vdW  Elec       q    Type
REMARK                         _______ _______ _______ _____ _____    ______ ____
ATOM      1  C   UNL     1      61.005  60.899  64.879  0.00  0.00    +0.000 C 
ATOM      2  N   UNL     1      61.012  61.542  65.395  0.00  0.00    +0.000 NA
ATOM      3  C   UNL     1      61.090  61.418  66.208  0.00  0.00    +0.000 C 
ATOM      4  C   UNL     1      61.097  62.061  66.724  0.00  0.00    +0.000 C 
ATOM      5  N   UNL     1      61.027  62.829  66.429  0.00  0.00    +0.000 N 
ATOM      6  C   UNL     1      60.949  62.953  65.617  0.00  0.00    +0.000 C 
ATOM      7  C   UNL     1      60.942  62.310  65.100  0.00  0.00    +0.000 C 
ATOM      8  C   UNL     1      61.034  63.472  66.946  0.00  0.00    +0.000 C 
ATOM      9  C   UNL     1      61.112  63.348  67.757  0.00  0.00    +0.000 C 
ATOM     10  N   UNL     1      61.187  62.616  68.131  0.00  0.00    +0.000 NA
ATOM     11  C   UNL     1      61.250  62.750  68.943  0.00  0.00    +0.000 C 
ATOM     12  C   UNL     1      61.333  62.145  69.498  0.00  0.00    +0.000 C 
ATOM     13  N   UNL     1      61.401  62.206  70.319  0.00  0.00    +0.000 NA
ATOM     14  C   UNL     1      61.402  62.885  70.785  0.00  0.00    +0.000 C 
ATOM     15  C   UNL     1      61.335  63.673  70.548  0.00  0.00    +0.000 A 
ATOM     16  C   UNL     1      61.361  64.185  71.195  0.00  0.00    +0.000 A 
ATOM     17  C   UNL     1      61.303  65.000  71.077  0.00  0.00    +0.000 A 
ATOM     18  C   UNL     1      61.219  65.302  70.314  0.00  0.00    +0.000 A 
ATOM     19  C   UNL     1      61.193  64.790  69.668  0.00  0.00    +0.000 A 
ATOM     20  C   UNL     1      61.251  63.975  69.785  0.00  0.00    +0.000 A 
ATOM     21  N   UNL     1      61.213  63.564  69.071  0.00  0.00    +0.000 N 
ATOM     22  C   UNL     1      61.128  63.934  68.338  0.00  0.00    +0.000 C 
ATOM     23  O   UNL     1      61.069  64.747  68.208  0.00  0.00    +0.000 OA
ATOM     24  N   UNL     1      61.330  65.512  71.723  0.00  0.00    +0.000 N 
ATOM     25  O   UNL     1      61.272  66.327  71.606  0.00  0.00    +0.000 OA
ATOM     26  O   UNL     1      61.413  65.211  72.486  0.00  0.00    +0.000 OA
ATOM     27  C   UNL     1      61.479  62.762  71.598  0.00  0.00    +0.000 A 
ATOM     28  C   UNL     1      61.550  61.994  71.893  0.00  0.00    +0.000 A 
ATOM     29 CL   UNL     1      61.542  61.351  71.376  0.00  0.00    +0.000 Cl
ATOM     30  C   UNL     1      61.627  61.870  72.704  0.00  0.00    +0.000 A 
ATOM     31  C   UNL     1      61.635  62.514  73.221  0.00  0.00    +0.000 A 
ATOM     32  C   UNL     1      61.564  63.281  72.926  0.00  0.00    +0.000 A 
ATOM     33  C   UNL     1      61.487  63.405  72.114  0.00  0.00    +0.000 A 
ENDROOT
TORSDOF 0
ENDMDL
MODEL 7
REMARK VINA RESULT:   -12.684      2.407      5.258
REMARK INTER + INTRA:         -12.684
REMARK INTER:                 -12.684
REMARK INTRA:                   0.000
REMARK UNBOUND:                 0.000
ROOT
REMARK  Name = loprazolam
REMARK                            x       y       z     vdW  Elec       q    Type
REMARK                         _______ _______ _______ _____ _____    ______ ____
ATOM      1  C   UNL     1      67.551  66.969  72.399  0.00  0.00    +0.000 C 
ATOM      2  N   UNL     1      66.909  66.933  71.883  0.00  0.00    +0.000 NA
ATOM      3  C   UNL     1      66.236  66.503  72.090  0.00  0.00    +0.000 C 
ATOM      4  C   UNL     1      65.593  66.467  71.575  0.00  0.00    +0.000 C 
ATOM      5  N   UNL     1      65.623  66.862  70.850  0.00  0.00    +0.000 N 
ATOM      6  C   UNL     1      66.296  67.293  70.643  0.00  0.00    +0.000 C 
ATOM      7  C   UNL     1      66.939  67.328  71.158  0.00  0.00    +0.000 C 
ATOM      8  C   UNL     1      64.980  66.827  70.334  0.00  0.00    +0.000 C 
ATOM      9  C   UNL     1      64.308  66.397  70.542  0.00  0.00    +0.000 C 
ATOM     10  N   UNL     1      64.199  65.976  71.243  0.00  0.00    +0.000 NA
ATOM     11  C   UNL     1      63.449  65.631  71.220  0.00  0.00    +0.000 C 
ATOM     12  C   UNL     1      63.144  65.165  71.829  0.00  0.00    +0.000 C 
ATOM     13  N   UNL     1      62.409  64.792  71.872  0.00  0.00    +0.000 NA
ATOM     14  C   UNL     1      61.800  64.792  71.317  0.00  0.00    +0.000 C 
ATOM     15  C   UNL     1      61.773  65.166  70.582  0.00  0.00    +0.000 A 
ATOM     16  C   UNL     1      61.055  65.025  70.199  0.00  0.00    +0.000 A 
ATOM     17  C   UNL     1      60.916  65.350  69.454  0.00  0.00    +0.000 A 
ATOM     18  C   UNL     1      61.493  65.816  69.091  0.00  0.00    +0.000 A 
ATOM     19  C   UNL     1      62.210  65.956  69.475  0.00  0.00    +0.000 A 
ATOM     20  C   UNL     1      62.350  65.631  70.220  0.00  0.00    +0.000 A 
ATOM     21  N   UNL     1      63.096  65.838  70.504  0.00  0.00    +0.000 N 
ATOM     22  C   UNL     1      63.626  66.311  70.085  0.00  0.00    +0.000 C 
ATOM     23  O   UNL     1      63.498  66.642  69.340  0.00  0.00    +0.000 OA
ATOM     24  N   UNL     1      60.199  65.209  69.070  0.00  0.00    +0.000 N 
ATOM     25  O   UNL     1      60.059  65.534  68.325  0.00  0.00    +0.000 OA
ATOM     26  O   UNL     1      59.622  64.744  69.432  0.00  0.00    +0.000 OA
ATOM     27  C   UNL     1      61.127  64.362  71.525  0.00  0.00    +0.000 A 
ATOM     28  C   UNL     1      61.097  63.967  72.249  0.00  0.00    +0.000 A 
ATOM     29 CL   UNL     1      61.739  64.003  72.765  0.00  0.00    +0.000 Cl
ATOM     30  C   UNL     1      60.425  63.537  72.457  0.00  0.00    +0.000 A 
ATOM     31  C   UNL     1      59.781  63.502  71.940  0.00  0.00    +0.000 A 
ATOM     32  C   UNL     1      59.812  63.896  71.217  0.00  0.00    +0.000 A 
ATOM     33  C   UNL     1      60.484  64.326  71.009  0.00  0.00    +0.000 A 
ENDROOT
TORSDOF 0
ENDMDL
MODEL 8
REMARK VINA RESULT:   -11.923      1.811      5.227
REMARK INTER + INTRA:         -11.923
REMARK INTER:                 -11.923
REMARK INTRA:                   0.000
REMARK UNBOUND:                 0.000
ROOT
REMARK  Name = loprazolam
REMARK                            x       y       z     vdW  Elec       q    Type
REMARK                         _______ _______ _______ _____ _____    ______ ____
ATOM      1  C   UNL     1      63.260  68.813  72.375  0.00  0.00    +0.000 C 
ATOM      2  N   UNL     1      62.907  68.070  72.431  0.00  0.00    +0.000 NA
ATOM      3  C   UNL     1      62.798  67.612  71.753  0.00  0.00    +0.000 C 
ATOM      4  C   UNL     1      62.446  66.869  71.810  0.00  0.00    +0.000 C 
ATOM      5  N   UNL     1      62.201  66.582  72.544  0.00  0.00    +0.000 N 
ATOM      6  C   UNL     1      62.310  67.040  73.222  0.00  0.00    +0.000 C 
ATOM      7  C   UNL     1      62.663  67.783  73.166  0.00  0.00    +0.000 C 
ATOM      8  C   UNL     1      61.848  65.839  72.600  0.00  0.00    +0.000 C 
ATOM      9  C   UNL     1      61.740  65.382  71.923  0.00  0.00    +0.000 C 
ATOM     10  N   UNL     1      61.955  65.594  71.155  0.00  0.00    +0.000 NA
ATOM     11  C   UNL     1      61.745  64.975  70.651  0.00  0.00    +0.000 C 
ATOM     12  C   UNL     1      61.874  64.988  69.836  0.00  0.00    +0.000 C 
ATOM     13  N   UNL     1      61.692  64.410  69.276  0.00  0.00    +0.000 NA
ATOM     14  C   UNL     1      61.334  63.676  69.394  0.00  0.00    +0.000 C 
ATOM     15  C   UNL     1      61.071  63.338  70.100  0.00  0.00    +0.000 A 
ATOM     16  C   UNL     1      60.744  62.592  69.972  0.00  0.00    +0.000 A 
ATOM     17  C   UNL     1      60.447  62.158  70.608  0.00  0.00    +0.000 A 
ATOM     18  C   UNL     1      60.476  62.472  71.371  0.00  0.00    +0.000 A 
ATOM     19  C   UNL     1      60.803  63.219  71.498  0.00  0.00    +0.000 A 
ATOM     20  C   UNL     1      61.100  63.652  70.862  0.00  0.00    +0.000 A 
ATOM     21  N   UNL     1      61.400  64.380  71.107  0.00  0.00    +0.000 N 
ATOM     22  C   UNL     1      61.397  64.631  71.893  0.00  0.00    +0.000 C 
ATOM     23  O   UNL     1      61.103  64.208  72.537  0.00  0.00    +0.000 OA
ATOM     24  N   UNL     1      60.120  61.411  70.482  0.00  0.00    +0.000 N 
ATOM     25  O   UNL     1      59.823  60.978  71.118  0.00  0.00    +0.000 OA
ATOM     26  O   UNL     1      60.091  61.098  69.720  0.00  0.00    +0.000 OA
ATOM     27  C   UNL     1      61.225  63.218  68.716  0.00  0.00    +0.000 A 
ATOM     28  C   UNL     1      61.470  63.505  67.981  0.00  0.00    +0.000 A 
ATOM     29 CL   UNL     1      61.822  64.248  67.925  0.00  0.00    +0.000 Cl
ATOM     30  C   UNL     1      61.361  63.048  67.303  0.00  0.00    +0.000 A 
ATOM     31  C   UNL     1      61.008  62.303  67.360  0.00  0.00    +0.000 A 
ATOM     32  C   UNL     1      60.764  62.018  68.094  0.00  0.00    +0.000 A 
ATOM     33  C   UNL     1      60.872  62.475  68.772  0.00  0.00    +0.000 A 
ENDROOT
TORSDOF 0
ENDMDL
MODEL 9
REMARK VINA RESULT:   -11.727      2.751      5.025
REMARK INTER + INTRA:         -11.727
REMARK INTER:                 -11.727
REMARK INTRA:                   0.000
REMARK UNBOUND:                 0.000
ROOT
REMARK  Name = loprazolam
REMARK                            x       y       z     vdW  Elec       q    Type
REMARK                         _______ _______ _______ _____ _____    ______ ____
ATOM      1  C   UNL     1      66.194  68.195  70.575  0.00  0.00    +0.000 C 
ATOM      2  N   UNL     1      65.700  67.534  70.560  0.00  0.00    +0.000 NA
ATOM      3  C   UNL     1      64.952  67.569  70.909  0.00  0.00    +0.000 C 
ATOM      4  C   UNL     1      64.459  66.909  70.893  0.00  0.00    +0.000 C 
ATOM      5  N   UNL     1      64.712  66.212  70.530  0.00  0.00    +0.000 N 
ATOM      6  C   UNL     1      65.460  66.177  70.181  0.00  0.00    +0.000 C 
ATOM      7  C   UNL     1      65.953  66.838  70.196  0.00  0.00    +0.000 C 
ATOM      8  C   UNL     1      64.218  65.551  70.514  0.00  0.00    +0.000 C 
ATOM      9  C   UNL     1      63.472  65.587  70.863  0.00  0.00    +0.000 C 
ATOM     10  N   UNL     1      63.145  66.241  71.244  0.00  0.00    +0.000 NA
ATOM     11  C   UNL     1      62.391  66.032  71.508  0.00  0.00    +0.000 C 
ATOM     12  C   UNL     1      61.894  66.548  71.917  0.00  0.00    +0.000 C 
ATOM     13  N   UNL     1      61.134  66.408  72.208  0.00  0.00    +0.000 NA
ATOM     14  C   UNL     1      60.686  65.718  72.162  0.00  0.00    +0.000 C 
ATOM     15  C   UNL     1      60.885  64.996  71.814  0.00  0.00    +0.000 A 
ATOM     16  C   UNL     1      60.274  64.447  71.891  0.00  0.00    +0.000 A 
ATOM     17  C   UNL     1      60.362  63.688  71.579  0.00  0.00    +0.000 A 
ATOM     18  C   UNL     1      61.060  63.479  71.190  0.00  0.00    +0.000 A 
ATOM     19  C   UNL     1      61.670  64.029  71.114  0.00  0.00    +0.000 A 
ATOM     20  C   UNL     1      61.582  64.788  71.426  0.00  0.00    +0.000 A 
ATOM     21  N   UNL     1      62.252  65.249  71.290  0.00  0.00    +0.000 N 
ATOM     22  C   UNL     1      62.920  64.973  70.891  0.00  0.00    +0.000 C 
ATOM     23  O   UNL     1      63.019  64.218  70.575  0.00  0.00    +0.000 OA
ATOM     24  N   UNL     1      59.752  63.137  71.655  0.00  0.00    +0.000 N 
ATOM     25  O   UNL     1      59.840  62.378  71.344  0.00  0.00    +0.000 OA
ATOM     26  O   UNL     1      59.055  63.345  72.043  0.00  0.00    +0.000 OA
ATOM     27  C   UNL     1      59.938  65.752  72.510  0.00  0.00    +0.000 A 
ATOM     28  C   UNL     1      59.685  66.449  72.874  0.00  0.00    +0.000 A 
ATOM     29 CL   UNL     1      60.179  67.109  72.889  0.00  0.00    +0.000 Cl
ATOM     30  C   UNL     1      58.938  66.484  73.222  0.00  0.00    +0.000 A 
ATOM     31  C   UNL     1      58.444  65.822  73.207  0.00  0.00    +0.000 A 
ATOM     32  C   UNL     1      58.698  65.127  72.843  0.00  0.00    +0.000 A 
ATOM     33  C   UNL     1      59.445  65.092  72.495  0.00  0.00    +0.000 A 
ENDROOT
TORSDOF 0
ENDMDL
