MODEL 1
REMARK VINA RESULT:   -11.336      0.000      0.000
REMARK INTER + INTRA:         -11.336
REMARK INTER:                 -11.336
REMARK INTRA:                   0.000
REMARK UNBOUND:                 0.000
ROOT
REMARK  Name = loracarbef
REMARK                            x       y       z     vdW  Elec       q    Type
REMARK                         _______ _______ _______ _____ _____    ______ ____
ATOM      1  N   UNL     1      60.065  63.283  68.938  0.00  0.00    +0.000 NA
ATOM      2  CA  UNL     1      60.825  63.373  68.631  0.00  0.00    +0.000 C 
ATOM      3  C   UNL     1      61.008  63.072  67.884  0.00  0.00    +0.000 C 
ATOM      4  O   UNL     1      61.768  63.162  67.578  0.00  0.00    +0.000 OA
ATOM      5  N   UNL     1      60.429  62.681  67.445  0.00  0.00    +0.000 NA
ATOM      6  CA  UNL     1      60.611  62.380  66.699  0.00  0.00    +0.000 C 
ATOM      7  C   UNL     1      61.286  62.363  66.226  0.00  0.00    +0.000 C 
ATOM      8  C   UNL     1      62.080  62.554  66.107  0.00  0.00    +0.000 C 
ATOM      9  C   UNL     1      62.456  62.334  65.406  0.00  0.00    +0.000 C 
ATOM     10  C   UNL     1      62.038  61.925  64.824  0.00  0.00    +0.000 C 
ATOM     11 CL   UNL     1      62.414  61.706  64.122  0.00  0.00    +0.000 Cl
ATOM     12  CA  UNL     1      61.244  61.735  64.942  0.00  0.00    +0.000 C 
ATOM     13  N   UNL     1      60.868  61.954  65.644  0.00  0.00    +0.000 N 
ATOM     14  C   UNL     1      60.193  61.970  66.117  0.00  0.00    +0.000 C 
ATOM     15  O   UNL     1      59.420  61.693  66.041  0.00  0.00    +0.000 OA
ATOM     16  C   UNL     1      60.827  61.326  64.361  0.00  0.00    +0.000 C 
ATOM     17  O   UNL     1      60.032  61.135  64.481  0.00  0.00    +0.000 OA
ATOM     18  OXT UNL     1      61.202  61.107  63.660  0.00  0.00    +0.000 OA
ATOM     19  C   UNL     1      61.404  63.764  69.070  0.00  0.00    +0.000 A 
ATOM     20  C   UNL     1      61.222  64.065  69.817  0.00  0.00    +0.000 A 
ATOM     21  C   UNL     1      61.801  64.456  70.256  0.00  0.00    +0.000 A 
ATOM     22  C   UNL     1      62.561  64.546  69.949  0.00  0.00    +0.000 A 
ATOM     23  C   UNL     1      62.743  64.245  69.203  0.00  0.00    +0.000 A 
ATOM     24  C   UNL     1      62.165  63.854  68.763  0.00  0.00    +0.000 A 
ENDROOT
TORSDOF 0
ENDMDL
MODEL 2
REMARK VINA RESULT:   -11.090      2.081      4.791
REMARK INTER + INTRA:         -11.090
REMARK INTER:                 -11.090
REMARK INTRA:                   0.000
REMARK UNBOUND:                 0.000
ROOT
REMARK  Name = loracarbef
REMARK                            x       y       z     vdW  Elec       q    Type
REMARK                         _______ _______ _______ _____ _____    ______ ____
ATOM      1  N   UNL     1      59.581  62.376  66.997  0.00  0.00    +0.000 NA
ATOM      2  CA  UNL     1      60.392  62.525  66.953  0.00  0.00    +0.000 C 
ATOM      3  C   UNL     1      60.771  62.926  67.567  0.00  0.00    +0.000 C 
ATOM      4  O   UNL     1      61.581  63.074  67.523  0.00  0.00    +0.000 OA
ATOM      5  N   UNL     1      60.340  63.178  68.224  0.00  0.00    +0.000 NA
ATOM      6  CA  UNL     1      60.720  63.579  68.837  0.00  0.00    +0.000 C 
ATOM      7  C   UNL     1      61.494  63.820  68.985  0.00  0.00    +0.000 C 
ATOM      8  C   UNL     1      62.285  63.866  68.753  0.00  0.00    +0.000 C 
ATOM      9  C   UNL     1      62.836  64.238  69.241  0.00  0.00    +0.000 C 
ATOM     10  C   UNL     1      62.598  64.564  69.960  0.00  0.00    +0.000 C 
ATOM     11 CL   UNL     1      63.150  64.936  70.448  0.00  0.00    +0.000 Cl
ATOM     12  CA  UNL     1      61.807  64.518  70.192  0.00  0.00    +0.000 C 
ATOM     13  N   UNL     1      61.255  64.146  69.704  0.00  0.00    +0.000 N 
ATOM     14  C   UNL     1      60.481  63.905  69.556  0.00  0.00    +0.000 C 
ATOM     15  O   UNL     1      59.764  63.965  69.960  0.00  0.00    +0.000 OA
ATOM     16  C   UNL     1      61.569  64.844  70.911  0.00  0.00    +0.000 C 
ATOM     17  O   UNL     1      60.778  64.798  71.143  0.00  0.00    +0.000 OA
ATOM     18  OXT UNL     1      62.120  65.215  71.399  0.00  0.00    +0.000 OA
ATOM     19  C   UNL     1      60.823  62.272  66.297  0.00  0.00    +0.000 A 
ATOM     20  C   UNL     1      60.444  61.871  65.684  0.00  0.00    +0.000 A 
ATOM     21  C   UNL     1      60.875  61.619  65.027  0.00  0.00    +0.000 A 
ATOM     22  C   UNL     1      61.685  61.768  64.984  0.00  0.00    +0.000 A 
ATOM     23  C   UNL     1      62.064  62.169  65.597  0.00  0.00    +0.000 A 
ATOM     24  C   UNL     1      61.634  62.421  66.254  0.00  0.00    +0.000 A 
ENDROOT
TORSDOF 0
ENDMDL
MODEL 3
REMARK VINA RESULT:   -11.018      4.156      5.568
REMARK INTER + INTRA:         -11.018
REMARK INTER:                 -11.018
REMARK INTRA:                   0.000
REMARK UNBOUND:                 0.000
ROOT
REMARK  Name = loracarbef
REMARK                            x       y       z     vdW  Elec       q    Type
REMARK                         _______ _______ _______ _____ _____    ______ ____
ATOM      1  N   UNL     1      64.443  65.819  69.111  0.00  0.00    +0.000 NA
ATOM      2  CA  UNL     1      64.325  65.842  69.927  0.00  0.00    +0.000 C 
ATOM      3  C   UNL     1      63.729  65.384  70.271  0.00  0.00    +0.000 C 
ATOM      4  O   UNL     1      63.611  65.407  71.087  0.00  0.00    +0.000 OA
ATOM      5  N   UNL     1      63.254  64.904  69.798  0.00  0.00    +0.000 NA
ATOM      6  CA  UNL     1      62.659  64.446  70.142  0.00  0.00    +0.000 C 
ATOM      7  C   UNL     1      62.385  64.328  70.910  0.00  0.00    +0.000 C 
ATOM      8  C   UNL     1      62.430  64.490  71.718  0.00  0.00    +0.000 C 
ATOM      9  C   UNL     1      61.909  64.123  72.242  0.00  0.00    +0.000 C 
ATOM     10  C   UNL     1      61.343  63.595  71.958  0.00  0.00    +0.000 C 
ATOM     11 CL   UNL     1      60.822  63.228  72.483  0.00  0.00    +0.000 Cl
ATOM     12  CA  UNL     1      61.297  63.432  71.151  0.00  0.00    +0.000 C 
ATOM     13  N   UNL     1      61.819  63.800  70.626  0.00  0.00    +0.000 N 
ATOM     14  C   UNL     1      62.093  63.918  69.858  0.00  0.00    +0.000 C 
ATOM     15  O   UNL     1      61.887  63.628  69.114  0.00  0.00    +0.000 OA
ATOM     16  C   UNL     1      60.731  62.904  70.868  0.00  0.00    +0.000 C 
ATOM     17  O   UNL     1      60.686  62.742  70.059  0.00  0.00    +0.000 OA
ATOM     18  OXT UNL     1      60.210  62.537  71.391  0.00  0.00    +0.000 OA
ATOM     19  C   UNL     1      64.801  66.322  70.401  0.00  0.00    +0.000 A 
ATOM     20  C   UNL     1      65.395  66.779  70.057  0.00  0.00    +0.000 A 
ATOM     21  C   UNL     1      65.871  67.259  70.530  0.00  0.00    +0.000 A 
ATOM     22  C   UNL     1      65.752  67.282  71.346  0.00  0.00    +0.000 A 
ATOM     23  C   UNL     1      65.158  66.824  71.689  0.00  0.00    +0.000 A 
ATOM     24  C   UNL     1      64.682  66.344  71.217  0.00  0.00    +0.000 A 
ENDROOT
TORSDOF 0
ENDMDL
MODEL 4
REMARK VINA RESULT:   -10.643      4.613      6.347
REMARK INTER + INTRA:         -10.643
REMARK INTER:                 -10.643
REMARK INTRA:                   0.000
REMARK UNBOUND:                 0.000
ROOT
REMARK  Name = loracarbef
REMARK                            x       y       z     vdW  Elec       q    Type
REMARK                         _______ _______ _______ _____ _____    ______ ____
ATOM      1  N   UNL     1      60.896  63.993  72.433  0.00  0.00    +0.000 NA
ATOM      2  CA  UNL     1      61.285  63.841  71.721  0.00  0.00    +0.000 C 
ATOM      3  C   UNL     1      61.924  64.310  71.491  0.00  0.00    +0.000 C 
ATOM      4  O   UNL     1      62.312  64.158  70.780  0.00  0.00    +0.000 OA
ATOM      5  N   UNL     1      62.174  64.931  71.974  0.00  0.00    +0.000 NA
ATOM      6  CA  UNL     1      62.813  65.400  71.744  0.00  0.00    +0.000 C 
ATOM      7  C   UNL     1      63.321  65.416  71.095  0.00  0.00    +0.000 C 
ATOM      8  C   UNL     1      63.563  65.107  70.369  0.00  0.00    +0.000 C 
ATOM      9  C   UNL     1      64.201  65.445  69.969  0.00  0.00    +0.000 C 
ATOM     10  C   UNL     1      64.596  66.092  70.294  0.00  0.00    +0.000 C 
ATOM     11 CL   UNL     1      65.234  66.430  69.894  0.00  0.00    +0.000 Cl
ATOM     12  CA  UNL     1      64.354  66.401  71.019  0.00  0.00    +0.000 C 
ATOM     13  N   UNL     1      63.716  66.063  71.420  0.00  0.00    +0.000 N 
ATOM     14  C   UNL     1      63.208  66.047  72.069  0.00  0.00    +0.000 C 
ATOM     15  O   UNL     1      63.128  66.493  72.759  0.00  0.00    +0.000 OA
ATOM     16  C   UNL     1      64.749  67.048  71.344  0.00  0.00    +0.000 C 
ATOM     17  O   UNL     1      64.506  67.357  72.070  0.00  0.00    +0.000 OA
ATOM     18  OXT UNL     1      65.386  67.386  70.945  0.00  0.00    +0.000 OA
ATOM     19  C   UNL     1      61.035  63.220  71.238  0.00  0.00    +0.000 A 
ATOM     20  C   UNL     1      60.396  62.751  71.468  0.00  0.00    +0.000 A 
ATOM     21  C   UNL     1      60.146  62.131  70.985  0.00  0.00    +0.000 A 
ATOM     22  C   UNL     1      60.534  61.979  70.273  0.00  0.00    +0.000 A 
ATOM     23  C   UNL     1      61.173  62.448  70.044  0.00  0.00    +0.000 A 
ATOM     24  C   UNL     1      61.423  63.069  70.526  0.00  0.00    +0.000 A 
ENDROOT
TORSDOF 0
ENDMDL
MODEL 5
REMARK VINA RESULT:   -10.599      5.201      6.573
REMARK INTER + INTRA:         -10.599
REMARK INTER:                 -10.599
REMARK INTRA:                   0.000
REMARK UNBOUND:                 0.000
ROOT
REMARK  Name = loracarbef
REMARK                            x       y       z     vdW  Elec       q    Type
REMARK                         _______ _______ _______ _____ _____    ______ ____
ATOM      1  N   UNL     1      62.435  63.391  70.177  0.00  0.00    +0.000 NA
ATOM      2  CA  UNL     1      62.426  63.858  70.857  0.00  0.00    +0.000 C 
ATOM      3  C   UNL     1      62.937  64.503  70.922  0.00  0.00    +0.000 C 
ATOM      4  O   UNL     1      62.928  64.969  71.602  0.00  0.00    +0.000 OA
ATOM      5  N   UNL     1      63.457  64.680  70.306  0.00  0.00    +0.000 NA
ATOM      6  CA  UNL     1      63.968  65.325  70.371  0.00  0.00    +0.000 C 
ATOM      7  C   UNL     1      64.113  65.898  70.945  0.00  0.00    +0.000 C 
ATOM      8  C   UNL     1      63.950  66.227  71.685  0.00  0.00    +0.000 C 
ATOM      9  C   UNL     1      64.365  66.893  71.940  0.00  0.00    +0.000 C 
ATOM     10  C   UNL     1      64.942  67.230  71.457  0.00  0.00    +0.000 C 
ATOM     11 CL   UNL     1      65.357  67.897  71.713  0.00  0.00    +0.000 Cl
ATOM     12  CA  UNL     1      65.105  66.902  70.718  0.00  0.00    +0.000 C 
ATOM     13  N   UNL     1      64.690  66.236  70.462  0.00  0.00    +0.000 N 
ATOM     14  C   UNL     1      64.545  65.663  69.888  0.00  0.00    +0.000 C 
ATOM     15  O   UNL     1      64.850  65.495  69.140  0.00  0.00    +0.000 OA
ATOM     16  C   UNL     1      65.682  67.239  70.235  0.00  0.00    +0.000 C 
ATOM     17  O   UNL     1      65.845  66.911  69.495  0.00  0.00    +0.000 OA
ATOM     18  OXT UNL     1      66.096  67.905  70.491  0.00  0.00    +0.000 OA
ATOM     19  C   UNL     1      61.906  63.681  71.473  0.00  0.00    +0.000 A 
ATOM     20  C   UNL     1      61.395  63.036  71.408  0.00  0.00    +0.000 A 
ATOM     21  C   UNL     1      60.875  62.859  72.024  0.00  0.00    +0.000 A 
ATOM     22  C   UNL     1      60.867  63.326  72.704  0.00  0.00    +0.000 A 
ATOM     23  C   UNL     1      61.377  63.970  72.768  0.00  0.00    +0.000 A 
ATOM     24  C   UNL     1      61.897  64.148  72.153  0.00  0.00    +0.000 A 
ENDROOT
TORSDOF 0
ENDMDL
MODEL 6
REMARK VINA RESULT:   -10.511      3.437      5.849
REMARK INTER + INTRA:         -10.511
REMARK INTER:                 -10.511
REMARK INTRA:                   0.000
REMARK UNBOUND:                 0.000
ROOT
REMARK  Name = loracarbef
REMARK                            x       y       z     vdW  Elec       q    Type
REMARK                         _______ _______ _______ _____ _____    ______ ____
ATOM      1  N   UNL     1      60.491  62.205  69.799  0.00  0.00    +0.000 NA
ATOM      2  CA  UNL     1      60.481  62.857  69.293  0.00  0.00    +0.000 C 
ATOM      3  C   UNL     1      60.279  63.603  69.586  0.00  0.00    +0.000 C 
ATOM      4  O   UNL     1      60.269  64.254  69.081  0.00  0.00    +0.000 OA
ATOM      5  N   UNL     1      60.088  63.695  70.383  0.00  0.00    +0.000 NA
ATOM      6  CA  UNL     1      59.887  64.440  70.675  0.00  0.00    +0.000 C 
ATOM      7  C   UNL     1      59.818  65.194  70.350  0.00  0.00    +0.000 C 
ATOM      8  C   UNL     1      59.867  65.699  69.698  0.00  0.00    +0.000 C 
ATOM      9  C   UNL     1      59.699  66.502  69.787  0.00  0.00    +0.000 C 
ATOM     10  C   UNL     1      59.482  66.800  70.525  0.00  0.00    +0.000 C 
ATOM     11 CL   UNL     1      59.314  67.604  70.612  0.00  0.00    +0.000 Cl
ATOM     12  CA  UNL     1      59.434  66.296  71.176  0.00  0.00    +0.000 C 
ATOM     13  N   UNL     1      59.601  65.492  71.088  0.00  0.00    +0.000 N 
ATOM     14  C   UNL     1      59.670  64.738  71.413  0.00  0.00    +0.000 C 
ATOM     15  O   UNL     1      59.566  64.415  72.165  0.00  0.00    +0.000 OA
ATOM     16  C   UNL     1      59.217  66.594  71.913  0.00  0.00    +0.000 C 
ATOM     17  O   UNL     1      59.169  66.089  72.564  0.00  0.00    +0.000 OA
ATOM     18  OXT UNL     1      59.050  67.397  72.001  0.00  0.00    +0.000 OA
ATOM     19  C   UNL     1      60.672  62.765  68.496  0.00  0.00    +0.000 A 
ATOM     20  C   UNL     1      60.874  62.019  68.205  0.00  0.00    +0.000 A 
ATOM     21  C   UNL     1      61.065  61.927  67.407  0.00  0.00    +0.000 A 
ATOM     22  C   UNL     1      61.054  62.580  66.902  0.00  0.00    +0.000 A 
ATOM     23  C   UNL     1      60.853  63.324  67.194  0.00  0.00    +0.000 A 
ATOM     24  C   UNL     1      60.662  63.417  67.991  0.00  0.00    +0.000 A 
ENDROOT
TORSDOF 0
ENDMDL
MODEL 7
REMARK VINA RESULT:   -10.429      1.393      2.100
REMARK INTER + INTRA:         -10.429
REMARK INTER:                 -10.429
REMARK INTRA:                   0.000
REMARK UNBOUND:                 0.000
ROOT
REMARK  Name = loracarbef
REMARK                            x       y       z     vdW  Elec       q    Type
REMARK                         _______ _______ _______ _____ _____    ______ ____
ATOM      1  N   UNL     1      62.746  64.283  69.147  0.00  0.00    +0.000 NA
ATOM      2  CA  UNL     1      61.943  64.114  69.236  0.00  0.00    +0.000 C 
ATOM      3  C   UNL     1      61.538  63.712  68.639  0.00  0.00    +0.000 C 
ATOM      4  O   UNL     1      60.735  63.544  68.728  0.00  0.00    +0.000 OA
ATOM      5  N   UNL     1      61.936  63.480  67.955  0.00  0.00    +0.000 NA
ATOM      6  CA  UNL     1      61.530  63.079  67.359  0.00  0.00    +0.000 C 
ATOM      7  C   UNL     1      60.754  62.821  67.253  0.00  0.00    +0.000 C 
ATOM      8  C   UNL     1      59.979  62.753  67.529  0.00  0.00    +0.000 C 
ATOM      9  C   UNL     1      59.409  62.375  67.069  0.00  0.00    +0.000 C 
ATOM     10  C   UNL     1      59.613  62.065  66.332  0.00  0.00    +0.000 C 
ATOM     11 CL   UNL     1      59.042  61.687  65.871  0.00  0.00    +0.000 Cl
ATOM     12  CA  UNL     1      60.387  62.133  66.055  0.00  0.00    +0.000 C 
ATOM     13  N   UNL     1      60.958  62.511  66.516  0.00  0.00    +0.000 N 
ATOM     14  C   UNL     1      61.733  62.769  66.622  0.00  0.00    +0.000 C 
ATOM     15  O   UNL     1      62.427  62.732  66.176  0.00  0.00    +0.000 OA
ATOM     16  C   UNL     1      60.590  61.823  65.318  0.00  0.00    +0.000 C 
ATOM     17  O   UNL     1      61.365  61.892  65.042  0.00  0.00    +0.000 OA
ATOM     18  OXT UNL     1      60.020  61.445  64.858  0.00  0.00    +0.000 OA
ATOM     19  C   UNL     1      61.545  64.347  69.920  0.00  0.00    +0.000 A 
ATOM     20  C   UNL     1      61.951  64.748  70.516  0.00  0.00    +0.000 A 
ATOM     21  C   UNL     1      61.553  64.980  71.201  0.00  0.00    +0.000 A 
ATOM     22  C   UNL     1      60.750  64.812  71.288  0.00  0.00    +0.000 A 
ATOM     23  C   UNL     1      60.345  64.411  70.693  0.00  0.00    +0.000 A 
ATOM     24  C   UNL     1      60.742  64.178  70.008  0.00  0.00    +0.000 A 
ENDROOT
TORSDOF 0
ENDMDL
MODEL 8
REMARK VINA RESULT:   -10.361      3.181      5.744
REMARK INTER + INTRA:         -10.361
REMARK INTER:                 -10.361
REMARK INTRA:                   0.000
REMARK UNBOUND:                 0.000
ROOT
REMARK  Name = loracarbef
REMARK                            x       y       z     vdW  Elec       q    Type
REMARK                         _______ _______ _______ _____ _____    ______ ____
ATOM      1  N   UNL     1      60.643  63.302  70.155  0.00  0.00    +0.000 NA
ATOM      2  CA  UNL     1      61.198  63.462  69.566  0.00  0.00    +0.000 C 
ATOM      3  C   UNL     1      61.831  63.969  69.723  0.00  0.00    +0.000 C 
ATOM      4  O   UNL     1      62.386  64.129  69.135  0.00  0.00    +0.000 OA
ATOM      5  N   UNL     1      61.907  64.315  70.468  0.00  0.00    +0.000 NA
ATOM      6  CA  UNL     1      62.540  64.821  70.624  0.00  0.00    +0.000 C 
ATOM      7  C   UNL     1      63.182  65.103  70.192  0.00  0.00    +0.000 C 
ATOM      8  C   UNL     1      63.613  65.130  69.488  0.00  0.00    +0.000 C 
ATOM      9  C   UNL     1      64.295  65.592  69.441  0.00  0.00    +0.000 C 
ATOM     10  C   UNL     1      64.547  66.025  70.096  0.00  0.00    +0.000 C 
ATOM     11 CL   UNL     1      65.230  66.487  70.048  0.00  0.00    +0.000 Cl
ATOM     12  CA  UNL     1      64.116  65.999  70.799  0.00  0.00    +0.000 C 
ATOM     13  N   UNL     1      63.433  65.537  70.847  0.00  0.00    +0.000 N 
ATOM     14  C   UNL     1      62.791  65.255  71.280  0.00  0.00    +0.000 C 
ATOM     15  O   UNL     1      62.514  65.362  72.049  0.00  0.00    +0.000 OA
ATOM     16  C   UNL     1      64.367  66.432  71.453  0.00  0.00    +0.000 C 
ATOM     17  O   UNL     1      63.936  66.405  72.157  0.00  0.00    +0.000 OA
ATOM     18  OXT UNL     1      65.049  66.893  71.406  0.00  0.00    +0.000 OA
ATOM     19  C   UNL     1      61.122  63.116  68.821  0.00  0.00    +0.000 A 
ATOM     20  C   UNL     1      60.490  62.610  68.665  0.00  0.00    +0.000 A 
ATOM     21  C   UNL     1      60.414  62.264  67.919  0.00  0.00    +0.000 A 
ATOM     22  C   UNL     1      60.970  62.424  67.331  0.00  0.00    +0.000 A 
ATOM     23  C   UNL     1      61.602  62.930  67.488  0.00  0.00    +0.000 A 
ATOM     24  C   UNL     1      61.678  63.277  68.233  0.00  0.00    +0.000 A 
ENDROOT
TORSDOF 0
ENDMDL
MODEL 9
REMARK VINA RESULT:   -10.108      6.126      7.152
REMARK INTER + INTRA:         -10.108
REMARK INTER:                 -10.108
REMARK INTRA:                   0.000
REMARK UNBOUND:                 0.000
ROOT
REMARK  Name = loracarbef
REMARK                            x       y       z     vdW  Elec       q    Type
REMARK                         _______ _______ _______ _____ _____    ______ ____
ATOM      1  N   UNL     1      63.650  68.012  72.427  0.00  0.00    +0.000 NA
ATOM      2  CA  UNL     1      63.663  67.251  72.109  0.00  0.00    +0.000 C 
ATOM      3  C   UNL     1      62.987  66.777  72.145  0.00  0.00    +0.000 C 
ATOM      4  O   UNL     1      63.001  66.016  71.827  0.00  0.00    +0.000 OA
ATOM      5  N   UNL     1      62.300  67.065  72.499  0.00  0.00    +0.000 NA
ATOM      6  CA  UNL     1      61.625  66.591  72.534  0.00  0.00    +0.000 C 
ATOM      7  C   UNL     1      61.434  65.829  72.286  0.00  0.00    +0.000 C 
ATOM      8  C   UNL     1      61.650  65.121  71.920  0.00  0.00    +0.000 C 
ATOM      9  C   UNL     1      61.103  64.508  71.855  0.00  0.00    +0.000 C 
ATOM     10  C   UNL     1      60.340  64.602  72.154  0.00  0.00    +0.000 C 
ATOM     11 CL   UNL     1      59.792  63.987  72.089  0.00  0.00    +0.000 Cl
ATOM     12  CA  UNL     1      60.123  65.309  72.520  0.00  0.00    +0.000 C 
ATOM     13  N   UNL     1      60.671  65.923  72.585  0.00  0.00    +0.000 N 
ATOM     14  C   UNL     1      60.862  66.685  72.834  0.00  0.00    +0.000 C 
ATOM     15  O   UNL     1      60.459  67.292  73.221  0.00  0.00    +0.000 OA
ATOM     16  C   UNL     1      59.361  65.402  72.819  0.00  0.00    +0.000 C 
ATOM     17  O   UNL     1      59.145  66.111  73.184  0.00  0.00    +0.000 OA
ATOM     18  OXT UNL     1      58.814  64.789  72.753  0.00  0.00    +0.000 OA
ATOM     19  C   UNL     1      64.350  66.962  71.755  0.00  0.00    +0.000 A 
ATOM     20  C   UNL     1      65.025  67.436  71.719  0.00  0.00    +0.000 A 
ATOM     21  C   UNL     1      65.713  67.147  71.366  0.00  0.00    +0.000 A 
ATOM     22  C   UNL     1      65.725  66.386  71.048  0.00  0.00    +0.000 A 
ATOM     23  C   UNL     1      65.050  65.913  71.084  0.00  0.00    +0.000 A 
ATOM     24  C   UNL     1      64.363  66.201  71.437  0.00  0.00    +0.000 A 
ENDROOT
TORSDOF 0
ENDMDL
