MODEL 1
REMARK VINA RESULT:   -10.428      0.000      0.000
REMARK INTER + INTRA:         -10.428
REMARK INTER:                 -10.428
REMARK INTRA:                   0.000
REMARK UNBOUND:                 0.000
ROOT
REMARK  Name = loxoprofen
REMARK                            x       y       z     vdW  Elec       q    Type
REMARK                         _______ _______ _______ _____ _____    ______ ____
ATOM      1  C   UNL     1      61.057  61.133  63.879  0.00  0.00    +0.000 C 
ATOM      2  C   UNL     1      61.448  61.602  64.434  0.00  0.00    +0.000 C 
ATOM      3  C   UNL     1      62.224  61.847  64.294  0.00  0.00    +0.000 C 
ATOM      4  O   UNL     1      62.608  61.623  63.600  0.00  0.00    +0.000 OA
ATOM      5  O   UNL     1      62.614  62.317  64.849  0.00  0.00    +0.000 OA
ATOM      6  C   UNL     1      61.063  61.827  65.128  0.00  0.00    +0.000 A 
ATOM      7  C   UNL     1      60.287  61.581  65.268  0.00  0.00    +0.000 A 
ATOM      8  C   UNL     1      59.903  61.806  65.962  0.00  0.00    +0.000 A 
ATOM      9  C   UNL     1      60.294  62.275  66.517  0.00  0.00    +0.000 A 
ATOM     10  C   UNL     1      59.908  62.499  67.211  0.00  0.00    +0.000 C 
ATOM     11  C   UNL     1      60.299  62.969  67.766  0.00  0.00    +0.000 C 
ATOM     12  C   UNL     1      59.987  63.235  68.482  0.00  0.00    +0.000 C 
ATOM     13  C   UNL     1      60.565  63.685  68.861  0.00  0.00    +0.000 C 
ATOM     14  C   UNL     1      61.235  63.697  68.379  0.00  0.00    +0.000 C 
ATOM     15  C   UNL     1      61.071  63.254  67.702  0.00  0.00    +0.000 C 
ATOM     16  O   UNL     1      61.586  63.120  67.073  0.00  0.00    +0.000 OA
ATOM     17  C   UNL     1      61.068  62.520  66.377  0.00  0.00    +0.000 A 
ATOM     18  C   UNL     1      61.454  62.296  65.683  0.00  0.00    +0.000 A 
ENDROOT
TORSDOF 0
ENDMDL
MODEL 2
REMARK VINA RESULT:   -10.416      0.796      3.651
REMARK INTER + INTRA:         -10.416
REMARK INTER:                 -10.416
REMARK INTRA:                   0.000
REMARK UNBOUND:                 0.000
ROOT
REMARK  Name = loxoprofen
REMARK                            x       y       z     vdW  Elec       q    Type
REMARK                         _______ _______ _______ _____ _____    ______ ____
ATOM      1  C   UNL     1      60.101  63.159  68.773  0.00  0.00    +0.000 C 
ATOM      2  C   UNL     1      60.763  63.166  68.280  0.00  0.00    +0.000 C 
ATOM      3  C   UNL     1      61.459  63.535  68.528  0.00  0.00    +0.000 C 
ATOM      4  O   UNL     1      61.493  63.895  69.269  0.00  0.00    +0.000 OA
ATOM      5  O   UNL     1      62.120  63.542  68.034  0.00  0.00    +0.000 OA
ATOM      6  C   UNL     1      60.729  62.806  67.539  0.00  0.00    +0.000 A 
ATOM      7  C   UNL     1      60.032  62.438  67.291  0.00  0.00    +0.000 A 
ATOM      8  C   UNL     1      59.999  62.077  66.550  0.00  0.00    +0.000 A 
ATOM      9  C   UNL     1      60.660  62.084  66.057  0.00  0.00    +0.000 A 
ATOM     10  C   UNL     1      60.624  61.723  65.316  0.00  0.00    +0.000 C 
ATOM     11  C   UNL     1      61.286  61.730  64.822  0.00  0.00    +0.000 C 
ATOM     12  C   UNL     1      61.333  61.393  64.071  0.00  0.00    +0.000 C 
ATOM     13  C   UNL     1      62.093  61.530  63.778  0.00  0.00    +0.000 C 
ATOM     14  C   UNL     1      62.514  61.951  64.348  0.00  0.00    +0.000 C 
ATOM     15  C   UNL     1      62.016  62.074  64.994  0.00  0.00    +0.000 C 
ATOM     16  O   UNL     1      62.212  62.472  65.689  0.00  0.00    +0.000 OA
ATOM     17  C   UNL     1      61.355  62.451  66.304  0.00  0.00    +0.000 A 
ATOM     18  C   UNL     1      61.390  62.813  67.045  0.00  0.00    +0.000 A 
ENDROOT
TORSDOF 0
ENDMDL
MODEL 3
REMARK VINA RESULT:    -9.964      2.379      3.915
REMARK INTER + INTRA:          -9.964
REMARK INTER:                  -9.964
REMARK INTRA:                   0.000
REMARK UNBOUND:                 0.000
ROOT
REMARK  Name = loxoprofen
REMARK                            x       y       z     vdW  Elec       q    Type
REMARK                         _______ _______ _______ _____ _____    ______ ____
ATOM      1  C   UNL     1      60.354  62.012  67.542  0.00  0.00    +0.000 C 
ATOM      2  C   UNL     1      60.707  62.598  68.004  0.00  0.00    +0.000 C 
ATOM      3  C   UNL     1      61.023  63.271  67.646  0.00  0.00    +0.000 C 
ATOM      4  O   UNL     1      60.985  63.358  66.826  0.00  0.00    +0.000 OA
ATOM      5  O   UNL     1      61.376  63.857  68.107  0.00  0.00    +0.000 OA
ATOM      6  C   UNL     1      60.745  62.511  68.823  0.00  0.00    +0.000 A 
ATOM      7  C   UNL     1      60.429  61.837  69.181  0.00  0.00    +0.000 A 
ATOM      8  C   UNL     1      60.467  61.751  70.001  0.00  0.00    +0.000 A 
ATOM      9  C   UNL     1      60.821  62.336  70.462  0.00  0.00    +0.000 A 
ATOM     10  C   UNL     1      60.858  62.248  71.282  0.00  0.00    +0.000 C 
ATOM     11  C   UNL     1      61.211  62.833  71.743  0.00  0.00    +0.000 C 
ATOM     12  C   UNL     1      61.290  62.823  72.564  0.00  0.00    +0.000 C 
ATOM     13  C   UNL     1      61.675  63.516  72.793  0.00  0.00    +0.000 C 
ATOM     14  C   UNL     1      61.836  63.955  72.113  0.00  0.00    +0.000 C 
ATOM     15  C   UNL     1      61.549  63.533  71.464  0.00  0.00    +0.000 C 
ATOM     16  O   UNL     1      61.592  63.769  70.675  0.00  0.00    +0.000 OA
ATOM     17  C   UNL     1      61.136  63.008  70.104  0.00  0.00    +0.000 A 
ATOM     18  C   UNL     1      61.098  63.096  69.285  0.00  0.00    +0.000 A 
ENDROOT
TORSDOF 0
ENDMDL
MODEL 4
REMARK VINA RESULT:    -9.788      2.840      5.470
REMARK INTER + INTRA:          -9.788
REMARK INTER:                  -9.788
REMARK INTRA:                   0.000
REMARK UNBOUND:                 0.000
ROOT
REMARK  Name = loxoprofen
REMARK                            x       y       z     vdW  Elec       q    Type
REMARK                         _______ _______ _______ _____ _____    ______ ____
ATOM      1  C   UNL     1      61.492  62.859  72.887  0.00  0.00    +0.000 C 
ATOM      2  C   UNL     1      61.447  63.289  72.185  0.00  0.00    +0.000 C 
ATOM      3  C   UNL     1      61.652  64.089  72.177  0.00  0.00    +0.000 C 
ATOM      4  O   UNL     1      61.901  64.457  72.871  0.00  0.00    +0.000 OA
ATOM      5  O   UNL     1      61.607  64.519  71.474  0.00  0.00    +0.000 OA
ATOM      6  C   UNL     1      61.197  62.921  71.490  0.00  0.00    +0.000 A 
ATOM      7  C   UNL     1      60.993  62.121  71.498  0.00  0.00    +0.000 A 
ATOM      8  C   UNL     1      60.743  61.753  70.804  0.00  0.00    +0.000 A 
ATOM      9  C   UNL     1      60.698  62.183  70.101  0.00  0.00    +0.000 A 
ATOM     10  C   UNL     1      60.448  61.814  69.407  0.00  0.00    +0.000 C 
ATOM     11  C   UNL     1      60.404  62.244  68.704  0.00  0.00    +0.000 C 
ATOM     12  C   UNL     1      60.165  61.952  67.971  0.00  0.00    +0.000 C 
ATOM     13  C   UNL     1      60.203  62.570  67.425  0.00  0.00    +0.000 C 
ATOM     14  C   UNL     1      60.466  63.244  67.822  0.00  0.00    +0.000 C 
ATOM     15  C   UNL     1      60.589  63.043  68.612  0.00  0.00    +0.000 C 
ATOM     16  O   UNL     1      60.853  63.551  69.206  0.00  0.00    +0.000 OA
ATOM     17  C   UNL     1      60.903  62.982  70.093  0.00  0.00    +0.000 A 
ATOM     18  C   UNL     1      61.152  63.351  70.788  0.00  0.00    +0.000 A 
ENDROOT
TORSDOF 0
ENDMDL
MODEL 5
REMARK VINA RESULT:    -9.274      5.355      7.226
REMARK INTER + INTRA:          -9.274
REMARK INTER:                  -9.274
REMARK INTRA:                   0.000
REMARK UNBOUND:                 0.000
ROOT
REMARK  Name = loxoprofen
REMARK                            x       y       z     vdW  Elec       q    Type
REMARK                         _______ _______ _______ _____ _____    ______ ____
ATOM      1  C   UNL     1      59.911  66.578  73.222  0.00  0.00    +0.000 C 
ATOM      2  C   UNL     1      59.627  65.968  72.745  0.00  0.00    +0.000 C 
ATOM      3  C   UNL     1      58.883  66.031  72.393  0.00  0.00    +0.000 C 
ATOM      4  O   UNL     1      58.425  66.706  72.517  0.00  0.00    +0.000 OA
ATOM      5  O   UNL     1      58.599  65.421  71.916  0.00  0.00    +0.000 OA
ATOM      6  C   UNL     1      60.085  65.293  72.621  0.00  0.00    +0.000 A 
ATOM      7  C   UNL     1      60.829  65.230  72.974  0.00  0.00    +0.000 A 
ATOM      8  C   UNL     1      61.287  64.555  72.850  0.00  0.00    +0.000 A 
ATOM      9  C   UNL     1      61.003  63.945  72.373  0.00  0.00    +0.000 A 
ATOM     10  C   UNL     1      61.463  63.271  72.249  0.00  0.00    +0.000 C 
ATOM     11  C   UNL     1      61.179  62.660  71.773  0.00  0.00    +0.000 C 
ATOM     12  C   UNL     1      61.573  61.957  71.599  0.00  0.00    +0.000 C 
ATOM     13  C   UNL     1      61.088  61.507  71.105  0.00  0.00    +0.000 C 
ATOM     14  C   UNL     1      60.394  61.933  70.973  0.00  0.00    +0.000 C 
ATOM     15  C   UNL     1      60.450  62.646  71.386  0.00  0.00    +0.000 C 
ATOM     16  O   UNL     1      59.878  63.240  71.408  0.00  0.00    +0.000 OA
ATOM     17  C   UNL     1      60.261  64.009  72.021  0.00  0.00    +0.000 A 
ATOM     18  C   UNL     1      59.801  64.683  72.145  0.00  0.00    +0.000 A 
ENDROOT
TORSDOF 0
ENDMDL
MODEL 6
REMARK VINA RESULT:    -9.214      4.031      6.293
REMARK INTER + INTRA:          -9.214
REMARK INTER:                  -9.214
REMARK INTRA:                   0.000
REMARK UNBOUND:                 0.000
ROOT
REMARK  Name = loxoprofen
REMARK                            x       y       z     vdW  Elec       q    Type
REMARK                         _______ _______ _______ _____ _____    ______ ____
ATOM      1  C   UNL     1      62.361  65.917  72.888  0.00  0.00    +0.000 C 
ATOM      2  C   UNL     1      62.276  65.613  72.126  0.00  0.00    +0.000 C 
ATOM      3  C   UNL     1      62.564  66.038  71.478  0.00  0.00    +0.000 C 
ATOM      4  O   UNL     1      62.935  66.765  71.595  0.00  0.00    +0.000 OA
ATOM      5  O   UNL     1      62.479  65.735  70.716  0.00  0.00    +0.000 OA
ATOM      6  C   UNL     1      61.905  64.886  72.009  0.00  0.00    +0.000 A 
ATOM      7  C   UNL     1      61.618  64.462  72.657  0.00  0.00    +0.000 A 
ATOM      8  C   UNL     1      61.247  63.734  72.540  0.00  0.00    +0.000 A 
ATOM      9  C   UNL     1      61.162  63.431  71.778  0.00  0.00    +0.000 A 
ATOM     10  C   UNL     1      60.790  62.704  71.662  0.00  0.00    +0.000 C 
ATOM     11  C   UNL     1      60.706  62.400  70.900  0.00  0.00    +0.000 C 
ATOM     12  C   UNL     1      60.349  61.685  70.699  0.00  0.00    +0.000 C 
ATOM     13  C   UNL     1      60.386  61.602  69.879  0.00  0.00    +0.000 C 
ATOM     14  C   UNL     1      60.766  62.267  69.572  0.00  0.00    +0.000 C 
ATOM     15  C   UNL     1      60.964  62.761  70.203  0.00  0.00    +0.000 C 
ATOM     16  O   UNL     1      61.351  63.486  70.148  0.00  0.00    +0.000 OA
ATOM     17  C   UNL     1      61.449  63.855  71.131  0.00  0.00    +0.000 A 
ATOM     18  C   UNL     1      61.821  64.583  71.247  0.00  0.00    +0.000 A 
ENDROOT
TORSDOF 0
ENDMDL
MODEL 7
REMARK VINA RESULT:    -9.024      5.563      6.454
REMARK INTER + INTRA:          -9.024
REMARK INTER:                  -9.024
REMARK INTRA:                   0.000
REMARK UNBOUND:                 0.000
ROOT
REMARK  Name = loxoprofen
REMARK                            x       y       z     vdW  Elec       q    Type
REMARK                         _______ _______ _______ _____ _____    ______ ____
ATOM      1  C   UNL     1      64.995  66.207  69.827  0.00  0.00    +0.000 C 
ATOM      2  C   UNL     1      64.529  66.126  70.503  0.00  0.00    +0.000 C 
ATOM      3  C   UNL     1      64.594  66.673  71.117  0.00  0.00    +0.000 C 
ATOM      4  O   UNL     1      65.126  67.301  71.055  0.00  0.00    +0.000 OA
ATOM      5  O   UNL     1      64.128  66.592  71.793  0.00  0.00    +0.000 OA
ATOM      6  C   UNL     1      63.998  65.498  70.565  0.00  0.00    +0.000 A 
ATOM      7  C   UNL     1      63.932  64.950  69.951  0.00  0.00    +0.000 A 
ATOM      8  C   UNL     1      63.401  64.323  70.014  0.00  0.00    +0.000 A 
ATOM      9  C   UNL     1      62.935  64.242  70.690  0.00  0.00    +0.000 A 
ATOM     10  C   UNL     1      62.404  63.613  70.751  0.00  0.00    +0.000 C 
ATOM     11  C   UNL     1      61.938  63.532  71.427  0.00  0.00    +0.000 C 
ATOM     12  C   UNL     1      61.386  62.936  71.567  0.00  0.00    +0.000 C 
ATOM     13  C   UNL     1      61.049  63.069  72.309  0.00  0.00    +0.000 C 
ATOM     14  C   UNL     1      61.393  63.747  72.628  0.00  0.00    +0.000 C 
ATOM     15  C   UNL     1      61.943  64.034  72.083  0.00  0.00    +0.000 C 
ATOM     16  O   UNL     1      62.414  64.704  72.176  0.00  0.00    +0.000 OA
ATOM     17  C   UNL     1      63.001  64.789  71.303  0.00  0.00    +0.000 A 
ATOM     18  C   UNL     1      63.532  65.417  71.242  0.00  0.00    +0.000 A 
ENDROOT
TORSDOF 0
ENDMDL
MODEL 8
REMARK VINA RESULT:    -8.219      7.637      8.127
REMARK INTER + INTRA:          -8.219
REMARK INTER:                  -8.219
REMARK INTRA:                   0.000
REMARK UNBOUND:                 0.000
ROOT
REMARK  Name = loxoprofen
REMARK                            x       y       z     vdW  Elec       q    Type
REMARK                         _______ _______ _______ _____ _____    ______ ____
ATOM      1  C   UNL     1      63.269  66.270  72.460  0.00  0.00    +0.000 C 
ATOM      2  C   UNL     1      62.603  66.751  72.533  0.00  0.00    +0.000 C 
ATOM      3  C   UNL     1      62.679  67.572  72.490  0.00  0.00    +0.000 C 
ATOM      4  O   UNL     1      63.422  67.911  72.375  0.00  0.00    +0.000 OA
ATOM      5  O   UNL     1      62.013  68.053  72.562  0.00  0.00    +0.000 OA
ATOM      6  C   UNL     1      61.859  66.413  72.648  0.00  0.00    +0.000 A 
ATOM      7  C   UNL     1      61.783  65.592  72.691  0.00  0.00    +0.000 A 
ATOM      8  C   UNL     1      61.039  65.253  72.806  0.00  0.00    +0.000 A 
ATOM      9  C   UNL     1      60.373  65.734  72.878  0.00  0.00    +0.000 A 
ATOM     10  C   UNL     1      59.630  65.394  72.993  0.00  0.00    +0.000 C 
ATOM     11  C   UNL     1      58.964  65.875  73.066  0.00  0.00    +0.000 C 
ATOM     12  C   UNL     1      58.189  65.617  73.182  0.00  0.00    +0.000 C 
ATOM     13  C   UNL     1      57.701  66.281  73.222  0.00  0.00    +0.000 C 
ATOM     14  C   UNL     1      58.175  66.951  73.131  0.00  0.00    +0.000 C 
ATOM     15  C   UNL     1      58.955  66.700  73.034  0.00  0.00    +0.000 C 
ATOM     16  O   UNL     1      59.611  67.187  72.925  0.00  0.00    +0.000 OA
ATOM     17  C   UNL     1      60.450  66.554  72.835  0.00  0.00    +0.000 A 
ATOM     18  C   UNL     1      61.193  66.894  72.720  0.00  0.00    +0.000 A 
ENDROOT
TORSDOF 0
ENDMDL
MODEL 9
REMARK VINA RESULT:    -7.946      5.238      6.182
REMARK INTER + INTRA:          -7.946
REMARK INTER:                  -7.946
REMARK INTRA:                   0.000
REMARK UNBOUND:                 0.000
ROOT
REMARK  Name = loxoprofen
REMARK                            x       y       z     vdW  Elec       q    Type
REMARK                         _______ _______ _______ _____ _____    ______ ____
ATOM      1  C   UNL     1      59.823  65.114  69.960  0.00  0.00    +0.000 C 
ATOM      2  C   UNL     1      60.498  64.995  70.420  0.00  0.00    +0.000 C 
ATOM      3  C   UNL     1      60.456  64.537  71.105  0.00  0.00    +0.000 C 
ATOM      4  O   UNL     1      59.738  64.198  71.330  0.00  0.00    +0.000 OA
ATOM      5  O   UNL     1      61.130  64.419  71.565  0.00  0.00    +0.000 OA
ATOM      6  C   UNL     1      61.216  65.334  70.195  0.00  0.00    +0.000 A 
ATOM      7  C   UNL     1      61.258  65.792  69.509  0.00  0.00    +0.000 A 
ATOM      8  C   UNL     1      61.976  66.131  69.285  0.00  0.00    +0.000 A 
ATOM      9  C   UNL     1      62.651  66.013  69.744  0.00  0.00    +0.000 A 
ATOM     10  C   UNL     1      63.368  66.353  69.518  0.00  0.00    +0.000 C 
ATOM     11  C   UNL     1      64.043  66.235  69.978  0.00  0.00    +0.000 C 
ATOM     12  C   UNL     1      64.794  66.537  69.823  0.00  0.00    +0.000 C 
ATOM     13  C   UNL     1      65.300  66.282  70.423  0.00  0.00    +0.000 C 
ATOM     14  C   UNL     1      64.862  65.822  70.949  0.00  0.00    +0.000 C 
ATOM     15  C   UNL     1      64.084  65.792  70.674  0.00  0.00    +0.000 C 
ATOM     16  O   UNL     1      63.458  65.392  71.031  0.00  0.00    +0.000 OA
ATOM     17  C   UNL     1      62.608  65.556  70.429  0.00  0.00    +0.000 A 
ATOM     18  C   UNL     1      61.890  65.216  70.655  0.00  0.00    +0.000 A 
ENDROOT
TORSDOF 0
ENDMDL
