MODEL 1
REMARK VINA RESULT:   -16.111      0.000      0.000
REMARK INTER + INTRA:         -16.111
REMARK INTER:                 -16.111
REMARK INTRA:                   0.000
REMARK UNBOUND:                 0.000
ROOT
REMARK  Name = lubabegron
REMARK                            x       y       z     vdW  Elec       q    Type
REMARK                         _______ _______ _______ _____ _____    ______ ____
ATOM      1  C   UNL     1      61.494  63.238  67.609  0.00  0.00    +0.000 C 
ATOM      2  C   UNL     1      60.794  63.169  68.042  0.00  0.00    +0.000 C 
ATOM      3  C   UNL     1      60.095  63.100  68.473  0.00  0.00    +0.000 C 
ATOM      4  C   UNL     1      60.468  62.708  67.439  0.00  0.00    +0.000 C 
ATOM      5  C   UNL     1      60.910  62.538  66.765  0.00  0.00    +0.000 A 
ATOM      6  C   UNL     1      61.679  62.828  66.691  0.00  0.00    +0.000 A 
ATOM      7  C   UNL     1      62.121  62.658  66.015  0.00  0.00    +0.000 A 
ATOM      8  C   UNL     1      61.795  62.197  65.414  0.00  0.00    +0.000 A 
ATOM      9  O   UNL     1      62.237  62.027  64.739  0.00  0.00    +0.000 OA
ATOM     10  C   UNL     1      61.911  61.566  64.137  0.00  0.00    +0.000 A 
ATOM     11  N   UNL     1      62.354  61.396  63.463  0.00  0.00    +0.000 NA
ATOM     12  C   UNL     1      62.027  60.935  62.861  0.00  0.00    +0.000 A 
ATOM     13  C   UNL     1      61.258  60.644  62.934  0.00  0.00    +0.000 A 
ATOM     14  C   UNL     1      60.816  60.815  63.610  0.00  0.00    +0.000 A 
ATOM     15  C   UNL     1      61.142  61.276  64.211  0.00  0.00    +0.000 A 
ATOM     16  C   UNL     1      60.700  61.446  64.887  0.00  0.00    +0.000 C 
ATOM     17  N   UNL     1      60.257  61.616  65.562  0.00  0.00    +0.000 NA
ATOM     18  C   UNL     1      61.026  61.907  65.488  0.00  0.00    +0.000 A 
ATOM     19  C   UNL     1      60.584  62.077  66.163  0.00  0.00    +0.000 A 
ATOM     20  N   UNL     1      61.121  63.630  68.643  0.00  0.00    +0.000 NA
ATOM     21  C   UNL     1      60.678  63.800  69.318  0.00  0.00    +0.000 C 
ATOM     22  C   UNL     1      61.005  64.261  69.919  0.00  0.00    +0.000 C 
ATOM     23  O   UNL     1      61.773  64.551  69.846  0.00  0.00    +0.000 OA
ATOM     24  C   UNL     1      60.562  64.431  70.595  0.00  0.00    +0.000 C 
ATOM     25  O   UNL     1      60.888  64.892  71.196  0.00  0.00    +0.000 OA
ATOM     26  C   UNL     1      60.446  65.062  71.872  0.00  0.00    +0.000 A 
ATOM     27  C   UNL     1      59.677  64.772  71.946  0.00  0.00    +0.000 A 
ATOM     28  C   UNL     1      59.235  64.942  72.620  0.00  0.00    +0.000 A 
ATOM     29  C   UNL     1      59.561  65.403  73.222  0.00  0.00    +0.000 A 
ATOM     30  C   UNL     1      60.329  65.693  73.149  0.00  0.00    +0.000 A 
ATOM     31  C   UNL     1      60.772  65.523  72.473  0.00  0.00    +0.000 A 
ATOM     32  C   UNL     1      61.541  65.813  72.399  0.00  0.00    +0.000 A 
ATOM     33  C   UNL     1      61.938  66.279  72.953  0.00  0.00    +0.000 A 
ATOM     34  C   UNL     1      62.690  66.442  72.655  0.00  0.00    +0.000 A 
ATOM     35  C   UNL     1      62.757  66.078  71.918  0.00  0.00    +0.000 A 
ATOM     36  S   UNL     1      62.046  65.689  71.760  0.00  0.00    +0.000 S 
ENDROOT
TORSDOF 0
ENDMDL
MODEL 2
REMARK VINA RESULT:   -15.851      1.071      1.951
REMARK INTER + INTRA:         -15.851
REMARK INTER:                 -15.851
REMARK INTRA:                   0.000
REMARK UNBOUND:                 0.000
ROOT
REMARK  Name = lubabegron
REMARK                            x       y       z     vdW  Elec       q    Type
REMARK                         _______ _______ _______ _____ _____    ______ ____
ATOM      1  C   UNL     1      60.465  63.420  67.975  0.00  0.00    +0.000 C 
ATOM      2  C   UNL     1      61.106  63.837  68.286  0.00  0.00    +0.000 C 
ATOM      3  C   UNL     1      61.746  64.253  68.598  0.00  0.00    +0.000 C 
ATOM      4  C   UNL     1      61.574  63.590  67.653  0.00  0.00    +0.000 C 
ATOM      5  C   UNL     1      61.254  63.107  67.067  0.00  0.00    +0.000 A 
ATOM      6  C   UNL     1      60.465  62.869  67.114  0.00  0.00    +0.000 A 
ATOM      7  C   UNL     1      60.145  62.384  66.527  0.00  0.00    +0.000 A 
ATOM      8  C   UNL     1      60.613  62.139  65.894  0.00  0.00    +0.000 A 
ATOM      9  O   UNL     1      60.292  61.655  65.309  0.00  0.00    +0.000 OA
ATOM     10  C   UNL     1      60.761  61.408  64.675  0.00  0.00    +0.000 A 
ATOM     11  N   UNL     1      60.440  60.924  64.089  0.00  0.00    +0.000 NA
ATOM     12  C   UNL     1      60.909  60.678  63.456  0.00  0.00    +0.000 A 
ATOM     13  C   UNL     1      61.697  60.916  63.409  0.00  0.00    +0.000 A 
ATOM     14  C   UNL     1      62.017  61.400  63.995  0.00  0.00    +0.000 A 
ATOM     15  C   UNL     1      61.550  61.646  64.628  0.00  0.00    +0.000 A 
ATOM     16  C   UNL     1      61.869  62.131  65.215  0.00  0.00    +0.000 C 
ATOM     17  N   UNL     1      62.190  62.614  65.801  0.00  0.00    +0.000 NA
ATOM     18  C   UNL     1      61.402  62.376  65.848  0.00  0.00    +0.000 A 
ATOM     19  C   UNL     1      61.722  62.860  66.433  0.00  0.00    +0.000 A 
ATOM     20  N   UNL     1      60.638  64.082  68.919  0.00  0.00    +0.000 NA
ATOM     21  C   UNL     1      60.958  64.567  69.506  0.00  0.00    +0.000 C 
ATOM     22  C   UNL     1      60.490  64.813  70.139  0.00  0.00    +0.000 C 
ATOM     23  O   UNL     1      59.701  64.575  70.186  0.00  0.00    +0.000 OA
ATOM     24  C   UNL     1      60.810  65.297  70.725  0.00  0.00    +0.000 C 
ATOM     25  O   UNL     1      60.342  65.543  71.358  0.00  0.00    +0.000 OA
ATOM     26  C   UNL     1      60.663  66.027  71.945  0.00  0.00    +0.000 A 
ATOM     27  C   UNL     1      61.451  66.265  71.898  0.00  0.00    +0.000 A 
ATOM     28  C   UNL     1      61.771  66.749  72.484  0.00  0.00    +0.000 A 
ATOM     29  C   UNL     1      61.303  66.995  73.117  0.00  0.00    +0.000 A 
ATOM     30  C   UNL     1      60.515  66.757  73.164  0.00  0.00    +0.000 A 
ATOM     31  C   UNL     1      60.194  66.273  72.578  0.00  0.00    +0.000 A 
ATOM     32  C   UNL     1      59.405  66.035  72.625  0.00  0.00    +0.000 A 
ATOM     33  C   UNL     1      58.874  66.237  73.222  0.00  0.00    +0.000 A 
ATOM     34  C   UNL     1      58.150  65.880  73.049  0.00  0.00    +0.000 A 
ATOM     35  C   UNL     1      58.235  65.458  72.345  0.00  0.00    +0.000 A 
ATOM     36  S   UNL     1      59.012  65.555  72.083  0.00  0.00    +0.000 S 
ENDROOT
TORSDOF 0
ENDMDL
MODEL 3
REMARK VINA RESULT:   -13.853      2.342      7.616
REMARK INTER + INTRA:         -13.853
REMARK INTER:                 -13.853
REMARK INTRA:                   0.000
REMARK UNBOUND:                 0.000
ROOT
REMARK  Name = lubabegron
REMARK                            x       y       z     vdW  Elec       q    Type
REMARK                         _______ _______ _______ _____ _____    ______ ____
ATOM      1  C   UNL     1      62.262  65.104  69.049  0.00  0.00    +0.000 C 
ATOM      2  C   UNL     1      61.513  64.756  69.033  0.00  0.00    +0.000 C 
ATOM      3  C   UNL     1      60.765  64.410  69.017  0.00  0.00    +0.000 C 
ATOM      4  C   UNL     1      61.311  65.163  69.722  0.00  0.00    +0.000 C 
ATOM      5  C   UNL     1      61.857  65.666  70.080  0.00  0.00    +0.000 A 
ATOM      6  C   UNL     1      62.606  65.763  69.750  0.00  0.00    +0.000 A 
ATOM      7  C   UNL     1      63.153  66.267  70.108  0.00  0.00    +0.000 A 
ATOM      8  C   UNL     1      62.950  66.673  70.797  0.00  0.00    +0.000 A 
ATOM      9  O   UNL     1      63.497  67.176  71.155  0.00  0.00    +0.000 OA
ATOM     10  C   UNL     1      63.293  67.582  71.844  0.00  0.00    +0.000 A 
ATOM     11  N   UNL     1      63.840  68.085  72.202  0.00  0.00    +0.000 NA
ATOM     12  C   UNL     1      63.637  68.492  72.892  0.00  0.00    +0.000 A 
ATOM     13  C   UNL     1      62.887  68.394  73.222  0.00  0.00    +0.000 A 
ATOM     14  C   UNL     1      62.341  67.890  72.864  0.00  0.00    +0.000 A 
ATOM     15  C   UNL     1      62.544  67.484  72.175  0.00  0.00    +0.000 A 
ATOM     16  C   UNL     1      61.998  66.981  71.816  0.00  0.00    +0.000 C 
ATOM     17  N   UNL     1      61.451  66.477  71.458  0.00  0.00    +0.000 NA
ATOM     18  C   UNL     1      62.200  66.575  71.128  0.00  0.00    +0.000 A 
ATOM     19  C   UNL     1      61.654  66.072  70.769  0.00  0.00    +0.000 A 
ATOM     20  N   UNL     1      61.717  64.351  68.344  0.00  0.00    +0.000 NA
ATOM     21  C   UNL     1      61.170  63.847  67.985  0.00  0.00    +0.000 C 
ATOM     22  C   UNL     1      61.373  63.442  67.296  0.00  0.00    +0.000 C 
ATOM     23  O   UNL     1      62.123  63.539  66.966  0.00  0.00    +0.000 OA
ATOM     24  C   UNL     1      60.826  62.938  66.938  0.00  0.00    +0.000 C 
ATOM     25  O   UNL     1      61.030  62.532  66.249  0.00  0.00    +0.000 OA
ATOM     26  C   UNL     1      60.483  62.028  65.891  0.00  0.00    +0.000 A 
ATOM     27  C   UNL     1      59.733  61.931  66.221  0.00  0.00    +0.000 A 
ATOM     28  C   UNL     1      59.187  61.427  65.863  0.00  0.00    +0.000 A 
ATOM     29  C   UNL     1      59.389  61.021  65.174  0.00  0.00    +0.000 A 
ATOM     30  C   UNL     1      60.139  61.119  64.843  0.00  0.00    +0.000 A 
ATOM     31  C   UNL     1      60.686  61.623  65.202  0.00  0.00    +0.000 A 
ATOM     32  C   UNL     1      61.436  61.721  64.871  0.00  0.00    +0.000 A 
ATOM     33  C   UNL     1      61.715  61.353  64.187  0.00  0.00    +0.000 A 
ATOM     34  C   UNL     1      62.489  61.608  64.060  0.00  0.00    +0.000 A 
ATOM     35  C   UNL     1      62.687  62.133  64.664  0.00  0.00    +0.000 A 
ATOM     36  S   UNL     1      62.036  62.202  65.166  0.00  0.00    +0.000 S 
ENDROOT
TORSDOF 0
ENDMDL
MODEL 4
REMARK VINA RESULT:   -13.198     14.834     16.392
REMARK INTER + INTRA:         -13.198
REMARK INTER:                 -13.198
REMARK INTRA:                   0.000
REMARK UNBOUND:                 0.000
ROOT
REMARK  Name = lubabegron
REMARK                            x       y       z     vdW  Elec       q    Type
REMARK                         _______ _______ _______ _____ _____    ______ ____
ATOM      1  C   UNL     1      61.815  64.703  53.584  0.00  0.00    +0.000 C 
ATOM      2  C   UNL     1      62.470  64.282  53.856  0.00  0.00    +0.000 C 
ATOM      3  C   UNL     1      63.125  63.861  54.127  0.00  0.00    +0.000 C 
ATOM      4  C   UNL     1      62.783  64.976  54.175  0.00  0.00    +0.000 C 
ATOM      5  C   UNL     1      62.373  65.687  54.099  0.00  0.00    +0.000 A 
ATOM      6  C   UNL     1      61.648  65.705  53.704  0.00  0.00    +0.000 A 
ATOM      7  C   UNL     1      61.237  66.416  53.628  0.00  0.00    +0.000 A 
ATOM      8  C   UNL     1      61.550  67.109  53.947  0.00  0.00    +0.000 A 
ATOM      9  O   UNL     1      61.139  67.820  53.871  0.00  0.00    +0.000 OA
ATOM     10  C   UNL     1      61.453  68.514  54.190  0.00  0.00    +0.000 A 
ATOM     11  N   UNL     1      61.041  69.225  54.114  0.00  0.00    +0.000 NA
ATOM     12  C   UNL     1      61.355  69.919  54.433  0.00  0.00    +0.000 A 
ATOM     13  C   UNL     1      62.079  69.901  54.828  0.00  0.00    +0.000 A 
ATOM     14  C   UNL     1      62.490  69.189  54.904  0.00  0.00    +0.000 A 
ATOM     15  C   UNL     1      62.177  68.496  54.585  0.00  0.00    +0.000 A 
ATOM     16  C   UNL     1      62.587  67.784  54.660  0.00  0.00    +0.000 C 
ATOM     17  N   UNL     1      62.999  67.074  54.737  0.00  0.00    +0.000 NA
ATOM     18  C   UNL     1      62.275  67.091  54.342  0.00  0.00    +0.000 A 
ATOM     19  C   UNL     1      62.685  66.381  54.418  0.00  0.00    +0.000 A 
ATOM     20  N   UNL     1      62.157  63.589  53.537  0.00  0.00    +0.000 NA
ATOM     21  C   UNL     1      62.568  62.877  53.613  0.00  0.00    +0.000 C 
ATOM     22  C   UNL     1      62.255  62.184  53.294  0.00  0.00    +0.000 C 
ATOM     23  O   UNL     1      61.531  62.202  52.899  0.00  0.00    +0.000 OA
ATOM     24  C   UNL     1      62.666  61.472  53.370  0.00  0.00    +0.000 C 
ATOM     25  O   UNL     1      62.353  60.779  53.051  0.00  0.00    +0.000 OA
ATOM     26  C   UNL     1      62.764  60.068  53.127  0.00  0.00    +0.000 A 
ATOM     27  C   UNL     1      63.488  60.050  53.521  0.00  0.00    +0.000 A 
ATOM     28  C   UNL     1      63.899  59.339  53.597  0.00  0.00    +0.000 A 
ATOM     29  C   UNL     1      63.586  58.645  53.278  0.00  0.00    +0.000 A 
ATOM     30  C   UNL     1      62.862  58.663  52.884  0.00  0.00    +0.000 A 
ATOM     31  C   UNL     1      62.451  59.375  52.808  0.00  0.00    +0.000 A 
ATOM     32  C   UNL     1      61.726  59.392  52.413  0.00  0.00    +0.000 A 
ATOM     33  C   UNL     1      61.347  58.746  52.068  0.00  0.00    +0.000 A 
ATOM     34  C   UNL     1      60.641  59.014  51.735  0.00  0.00    +0.000 A 
ATOM     35  C   UNL     1      60.584  59.825  51.876  0.00  0.00    +0.000 A 
ATOM     36  S   UNL     1      61.256  60.059  52.295  0.00  0.00    +0.000 S 
ENDROOT
TORSDOF 0
ENDMDL
