MODEL 1
REMARK VINA RESULT:   -10.027      0.000      0.000
REMARK INTER + INTRA:         -10.027
REMARK INTER:                 -10.027
REMARK INTRA:                   0.000
REMARK UNBOUND:                 0.000
ROOT
REMARK  Name = lumiracoxib
REMARK                            x       y       z     vdW  Elec       q    Type
REMARK                         _______ _______ _______ _____ _____    ______ ____
ATOM      1  C   UNL     1      58.680  62.170  67.048  0.00  0.00    +0.000 C 
ATOM      2  C   UNL     1      59.407  62.172  66.655  0.00  0.00    +0.000 A 
ATOM      3  C   UNL     1      60.062  62.534  67.002  0.00  0.00    +0.000 A 
ATOM      4  C   UNL     1      60.787  62.536  66.610  0.00  0.00    +0.000 A 
ATOM      5  C   UNL     1      61.443  62.897  66.956  0.00  0.00    +0.000 C 
ATOM      6  C   UNL     1      61.373  63.256  67.697  0.00  0.00    +0.000 C 
ATOM      7  O   UNL     1      60.648  63.253  68.089  0.00  0.00    +0.000 OA
ATOM      8  O   UNL     1      62.029  63.616  68.043  0.00  0.00    +0.000 OA
ATOM      9  C   UNL     1      60.858  62.178  65.869  0.00  0.00    +0.000 A 
ATOM     10  N   UNL     1      61.582  62.181  65.477  0.00  0.00    +0.000 NA
ATOM     11  C   UNL     1      61.653  61.823  64.737  0.00  0.00    +0.000 A 
ATOM     12  C   UNL     1      62.378  61.825  64.344  0.00  0.00    +0.000 A 
ATOM     13 CL   UNL     1      63.033  62.186  64.691  0.00  0.00    +0.000 Cl
ATOM     14  C   UNL     1      62.448  61.467  63.605  0.00  0.00    +0.000 A 
ATOM     15  C   UNL     1      61.793  61.106  63.257  0.00  0.00    +0.000 A 
ATOM     16  C   UNL     1      61.067  61.103  63.650  0.00  0.00    +0.000 A 
ATOM     17  C   UNL     1      60.997  61.462  64.391  0.00  0.00    +0.000 A 
ATOM     18  F   UNL     1      60.272  61.459  64.783  0.00  0.00    +0.000 F 
ATOM     19  C   UNL     1      60.202  61.817  65.523  0.00  0.00    +0.000 A 
ATOM     20  C   UNL     1      59.476  61.814  65.915  0.00  0.00    +0.000 A 
ENDROOT
TORSDOF 0
ENDMDL
MODEL 2
REMARK VINA RESULT:    -9.788      4.014      5.714
REMARK INTER + INTRA:          -9.788
REMARK INTER:                  -9.788
REMARK INTRA:                   0.000
REMARK UNBOUND:                 0.000
ROOT
REMARK  Name = lumiracoxib
REMARK                            x       y       z     vdW  Elec       q    Type
REMARK                         _______ _______ _______ _____ _____    ______ ____
ATOM      1  C   UNL     1      60.158  62.670  67.920  0.00  0.00    +0.000 C 
ATOM      2  C   UNL     1      60.336  62.823  68.712  0.00  0.00    +0.000 A 
ATOM      3  C   UNL     1      60.169  63.563  69.036  0.00  0.00    +0.000 A 
ATOM      4  C   UNL     1      60.346  63.716  69.827  0.00  0.00    +0.000 A 
ATOM      5  C   UNL     1      60.180  64.456  70.152  0.00  0.00    +0.000 C 
ATOM      6  C   UNL     1      59.835  65.043  69.685  0.00  0.00    +0.000 C 
ATOM      7  O   UNL     1      59.658  64.890  68.894  0.00  0.00    +0.000 OA
ATOM      8  O   UNL     1      59.669  65.783  70.010  0.00  0.00    +0.000 OA
ATOM      9  C   UNL     1      60.691  63.129  70.294  0.00  0.00    +0.000 A 
ATOM     10  N   UNL     1      60.868  63.282  71.084  0.00  0.00    +0.000 NA
ATOM     11  C   UNL     1      61.213  62.695  71.551  0.00  0.00    +0.000 A 
ATOM     12  C   UNL     1      61.390  62.848  72.342  0.00  0.00    +0.000 A 
ATOM     13 CL   UNL     1      61.223  63.588  72.666  0.00  0.00    +0.000 Cl
ATOM     14  C   UNL     1      61.734  62.262  72.808  0.00  0.00    +0.000 A 
ATOM     15  C   UNL     1      61.901  61.521  72.484  0.00  0.00    +0.000 A 
ATOM     16  C   UNL     1      61.724  61.368  71.693  0.00  0.00    +0.000 A 
ATOM     17  C   UNL     1      61.379  61.956  71.226  0.00  0.00    +0.000 A 
ATOM     18  F   UNL     1      61.202  61.803  70.436  0.00  0.00    +0.000 F 
ATOM     19  C   UNL     1      60.857  62.389  69.969  0.00  0.00    +0.000 A 
ATOM     20  C   UNL     1      60.680  62.236  69.178  0.00  0.00    +0.000 A 
ENDROOT
TORSDOF 0
ENDMDL
MODEL 3
REMARK VINA RESULT:    -9.731      3.961      5.346
REMARK INTER + INTRA:          -9.731
REMARK INTER:                  -9.731
REMARK INTRA:                   0.000
REMARK UNBOUND:                 0.000
ROOT
REMARK  Name = lumiracoxib
REMARK                            x       y       z     vdW  Elec       q    Type
REMARK                         _______ _______ _______ _____ _____    ______ ____
ATOM      1  C   UNL     1      61.685  62.357  72.993  0.00  0.00    +0.000 C 
ATOM      2  C   UNL     1      61.413  62.673  72.280  0.00  0.00    +0.000 A 
ATOM      3  C   UNL     1      61.258  63.481  72.219  0.00  0.00    +0.000 A 
ATOM      4  C   UNL     1      60.986  63.796  71.507  0.00  0.00    +0.000 A 
ATOM      5  C   UNL     1      60.831  64.604  71.445  0.00  0.00    +0.000 C 
ATOM      6  C   UNL     1      60.948  65.097  72.097  0.00  0.00    +0.000 C 
ATOM      7  O   UNL     1      61.220  64.782  72.810  0.00  0.00    +0.000 OA
ATOM      8  O   UNL     1      60.792  65.905  72.036  0.00  0.00    +0.000 OA
ATOM      9  C   UNL     1      60.869  63.303  70.855  0.00  0.00    +0.000 A 
ATOM     10  N   UNL     1      60.597  63.618  70.144  0.00  0.00    +0.000 NA
ATOM     11  C   UNL     1      60.480  63.126  69.492  0.00  0.00    +0.000 A 
ATOM     12  C   UNL     1      60.208  63.441  68.780  0.00  0.00    +0.000 A 
ATOM     13 CL   UNL     1      60.053  64.248  68.719  0.00  0.00    +0.000 Cl
ATOM     14  C   UNL     1      60.091  62.948  68.129  0.00  0.00    +0.000 A 
ATOM     15  C   UNL     1      60.246  62.140  68.190  0.00  0.00    +0.000 A 
ATOM     16  C   UNL     1      60.518  61.825  68.902  0.00  0.00    +0.000 A 
ATOM     17  C   UNL     1      60.635  62.318  69.554  0.00  0.00    +0.000 A 
ATOM     18  F   UNL     1      60.907  62.003  70.265  0.00  0.00    +0.000 F 
ATOM     19  C   UNL     1      61.024  62.496  70.917  0.00  0.00    +0.000 A 
ATOM     20  C   UNL     1      61.296  62.180  71.629  0.00  0.00    +0.000 A 
ENDROOT
TORSDOF 0
ENDMDL
MODEL 4
REMARK VINA RESULT:    -9.624      4.764      5.979
REMARK INTER + INTRA:          -9.624
REMARK INTER:                  -9.624
REMARK INTRA:                   0.000
REMARK UNBOUND:                 0.000
ROOT
REMARK  Name = lumiracoxib
REMARK                            x       y       z     vdW  Elec       q    Type
REMARK                         _______ _______ _______ _____ _____    ______ ____
ATOM      1  C   UNL     1      59.010  65.935  72.702  0.00  0.00    +0.000 C 
ATOM      2  C   UNL     1      59.288  65.474  72.076  0.00  0.00    +0.000 A 
ATOM      3  C   UNL     1      59.387  65.809  71.329  0.00  0.00    +0.000 A 
ATOM      4  C   UNL     1      59.664  65.348  70.704  0.00  0.00    +0.000 A 
ATOM      5  C   UNL     1      59.763  65.683  69.956  0.00  0.00    +0.000 C 
ATOM      6  C   UNL     1      59.583  66.479  69.834  0.00  0.00    +0.000 C 
ATOM      7  O   UNL     1      59.306  66.940  70.459  0.00  0.00    +0.000 OA
ATOM      8  O   UNL     1      59.682  66.813  69.086  0.00  0.00    +0.000 OA
ATOM      9  C   UNL     1      59.844  64.552  70.826  0.00  0.00    +0.000 A 
ATOM     10  N   UNL     1      60.121  64.091  70.202  0.00  0.00    +0.000 NA
ATOM     11  C   UNL     1      60.301  63.295  70.323  0.00  0.00    +0.000 A 
ATOM     12  C   UNL     1      60.579  62.834  69.698  0.00  0.00    +0.000 A 
ATOM     13 CL   UNL     1      60.677  63.169  68.951  0.00  0.00    +0.000 Cl
ATOM     14  C   UNL     1      60.758  62.039  69.820  0.00  0.00    +0.000 A 
ATOM     15  C   UNL     1      60.659  61.704  70.568  0.00  0.00    +0.000 A 
ATOM     16  C   UNL     1      60.382  62.165  71.193  0.00  0.00    +0.000 A 
ATOM     17  C   UNL     1      60.202  62.961  71.071  0.00  0.00    +0.000 A 
ATOM     18  F   UNL     1      59.925  63.422  71.695  0.00  0.00    +0.000 F 
ATOM     19  C   UNL     1      59.745  64.218  71.574  0.00  0.00    +0.000 A 
ATOM     20  C   UNL     1      59.467  64.679  72.199  0.00  0.00    +0.000 A 
ENDROOT
TORSDOF 0
ENDMDL
MODEL 5
REMARK VINA RESULT:    -9.513      3.959      5.888
REMARK INTER + INTRA:          -9.513
REMARK INTER:                  -9.513
REMARK INTRA:                   0.000
REMARK UNBOUND:                 0.000
ROOT
REMARK  Name = lumiracoxib
REMARK                            x       y       z     vdW  Elec       q    Type
REMARK                         _______ _______ _______ _____ _____    ______ ____
ATOM      1  C   UNL     1      59.733  65.303  69.108  0.00  0.00    +0.000 C 
ATOM      2  C   UNL     1      60.047  64.642  69.491  0.00  0.00    +0.000 A 
ATOM      3  C   UNL     1      60.151  63.937  69.075  0.00  0.00    +0.000 A 
ATOM      4  C   UNL     1      60.464  63.276  69.457  0.00  0.00    +0.000 A 
ATOM      5  C   UNL     1      60.569  62.570  69.043  0.00  0.00    +0.000 C 
ATOM      6  C   UNL     1      60.361  62.526  68.245  0.00  0.00    +0.000 C 
ATOM      7  O   UNL     1      60.047  63.187  67.863  0.00  0.00    +0.000 OA
ATOM      8  O   UNL     1      60.466  61.821  67.830  0.00  0.00    +0.000 OA
ATOM      9  C   UNL     1      60.673  63.320  70.255  0.00  0.00    +0.000 A 
ATOM     10  N   UNL     1      60.986  62.660  70.636  0.00  0.00    +0.000 NA
ATOM     11  C   UNL     1      61.194  62.704  71.433  0.00  0.00    +0.000 A 
ATOM     12  C   UNL     1      61.507  62.043  71.815  0.00  0.00    +0.000 A 
ATOM     13 CL   UNL     1      61.612  61.338  71.400  0.00  0.00    +0.000 Cl
ATOM     14  C   UNL     1      61.715  62.088  72.611  0.00  0.00    +0.000 A 
ATOM     15  C   UNL     1      61.611  62.793  73.027  0.00  0.00    +0.000 A 
ATOM     16  C   UNL     1      61.298  63.454  72.645  0.00  0.00    +0.000 A 
ATOM     17  C   UNL     1      61.089  63.409  71.847  0.00  0.00    +0.000 A 
ATOM     18  F   UNL     1      60.776  64.069  71.466  0.00  0.00    +0.000 F 
ATOM     19  C   UNL     1      60.568  64.025  70.669  0.00  0.00    +0.000 A 
ATOM     20  C   UNL     1      60.255  64.686  70.287  0.00  0.00    +0.000 A 
ENDROOT
TORSDOF 0
ENDMDL
MODEL 6
REMARK VINA RESULT:    -9.482      5.881      7.491
REMARK INTER + INTRA:          -9.482
REMARK INTER:                  -9.482
REMARK INTRA:                   0.000
REMARK UNBOUND:                 0.000
ROOT
REMARK  Name = lumiracoxib
REMARK                            x       y       z     vdW  Elec       q    Type
REMARK                         _______ _______ _______ _____ _____    ______ ____
ATOM      1  C   UNL     1      61.860  65.587  69.134  0.00  0.00    +0.000 C 
ATOM      2  C   UNL     1      62.477  65.778  69.649  0.00  0.00    +0.000 A 
ATOM      3  C   UNL     1      62.416  65.596  70.451  0.00  0.00    +0.000 A 
ATOM      4  C   UNL     1      63.033  65.786  70.965  0.00  0.00    +0.000 A 
ATOM      5  C   UNL     1      62.973  65.605  71.767  0.00  0.00    +0.000 C 
ATOM      6  C   UNL     1      62.295  65.232  72.056  0.00  0.00    +0.000 C 
ATOM      7  O   UNL     1      61.678  65.042  71.542  0.00  0.00    +0.000 OA
ATOM      8  O   UNL     1      62.235  65.051  72.859  0.00  0.00    +0.000 OA
ATOM      9  C   UNL     1      63.711  66.158  70.676  0.00  0.00    +0.000 A 
ATOM     10  N   UNL     1      64.327  66.349  71.190  0.00  0.00    +0.000 NA
ATOM     11  C   UNL     1      65.004  66.721  70.902  0.00  0.00    +0.000 A 
ATOM     12  C   UNL     1      65.621  66.911  71.415  0.00  0.00    +0.000 A 
ATOM     13 CL   UNL     1      65.560  66.729  72.217  0.00  0.00    +0.000 Cl
ATOM     14  C   UNL     1      66.298  67.283  71.127  0.00  0.00    +0.000 A 
ATOM     15  C   UNL     1      66.359  67.465  70.324  0.00  0.00    +0.000 A 
ATOM     16  C   UNL     1      65.742  67.275  69.810  0.00  0.00    +0.000 A 
ATOM     17  C   UNL     1      65.064  66.902  70.099  0.00  0.00    +0.000 A 
ATOM     18  F   UNL     1      64.448  66.712  69.586  0.00  0.00    +0.000 F 
ATOM     19  C   UNL     1      63.771  66.340  69.874  0.00  0.00    +0.000 A 
ATOM     20  C   UNL     1      63.154  66.149  69.360  0.00  0.00    +0.000 A 
ENDROOT
TORSDOF 0
ENDMDL
MODEL 7
REMARK VINA RESULT:    -9.459      6.058      6.986
REMARK INTER + INTRA:          -9.459
REMARK INTER:                  -9.459
REMARK INTRA:                   0.000
REMARK UNBOUND:                 0.000
ROOT
REMARK  Name = lumiracoxib
REMARK                            x       y       z     vdW  Elec       q    Type
REMARK                         _______ _______ _______ _____ _____    ______ ____
ATOM      1  C   UNL     1      64.635  65.238  69.478  0.00  0.00    +0.000 C 
ATOM      2  C   UNL     1      64.054  65.092  70.046  0.00  0.00    +0.000 A 
ATOM      3  C   UNL     1      63.905  65.650  70.636  0.00  0.00    +0.000 A 
ATOM      4  C   UNL     1      63.324  65.504  71.203  0.00  0.00    +0.000 A 
ATOM      5  C   UNL     1      63.175  66.060  71.794  0.00  0.00    +0.000 C 
ATOM      6  C   UNL     1      63.608  66.763  71.817  0.00  0.00    +0.000 C 
ATOM      7  O   UNL     1      64.189  66.909  71.250  0.00  0.00    +0.000 OA
ATOM      8  O   UNL     1      63.458  67.319  72.407  0.00  0.00    +0.000 OA
ATOM      9  C   UNL     1      62.891  64.801  71.180  0.00  0.00    +0.000 A 
ATOM     10  N   UNL     1      62.311  64.656  71.747  0.00  0.00    +0.000 NA
ATOM     11  C   UNL     1      61.878  63.954  71.724  0.00  0.00    +0.000 A 
ATOM     12  C   UNL     1      61.297  63.808  72.291  0.00  0.00    +0.000 A 
ATOM     13 CL   UNL     1      61.149  64.365  72.881  0.00  0.00    +0.000 Cl
ATOM     14  C   UNL     1      60.865  63.107  72.268  0.00  0.00    +0.000 A 
ATOM     15  C   UNL     1      61.014  62.549  71.678  0.00  0.00    +0.000 A 
ATOM     16  C   UNL     1      61.595  62.695  71.111  0.00  0.00    +0.000 A 
ATOM     17  C   UNL     1      62.028  63.398  71.134  0.00  0.00    +0.000 A 
ATOM     18  F   UNL     1      62.608  63.543  70.567  0.00  0.00    +0.000 F 
ATOM     19  C   UNL     1      63.041  64.245  70.590  0.00  0.00    +0.000 A 
ATOM     20  C   UNL     1      63.622  64.390  70.023  0.00  0.00    +0.000 A 
ENDROOT
TORSDOF 0
ENDMDL
MODEL 8
REMARK VINA RESULT:    -9.298      1.884      3.036
REMARK INTER + INTRA:          -9.298
REMARK INTER:                  -9.298
REMARK INTRA:                   0.000
REMARK UNBOUND:                 0.000
ROOT
REMARK  Name = lumiracoxib
REMARK                            x       y       z     vdW  Elec       q    Type
REMARK                         _______ _______ _______ _____ _____    ______ ____
ATOM      1  C   UNL     1      59.923  64.652  70.233  0.00  0.00    +0.000 C 
ATOM      2  C   UNL     1      60.279  64.276  69.590  0.00  0.00    +0.000 A 
ATOM      3  C   UNL     1      61.100  64.289  69.506  0.00  0.00    +0.000 A 
ATOM      4  C   UNL     1      61.455  63.913  68.864  0.00  0.00    +0.000 A 
ATOM      5  C   UNL     1      62.275  63.926  68.779  0.00  0.00    +0.000 C 
ATOM      6  C   UNL     1      62.741  64.317  69.338  0.00  0.00    +0.000 C 
ATOM      7  O   UNL     1      62.386  64.693  69.981  0.00  0.00    +0.000 OA
ATOM      8  O   UNL     1      63.561  64.330  69.254  0.00  0.00    +0.000 OA
ATOM      9  C   UNL     1      60.989  63.523  68.305  0.00  0.00    +0.000 A 
ATOM     10  N   UNL     1      61.344  63.147  67.663  0.00  0.00    +0.000 NA
ATOM     11  C   UNL     1      60.879  62.757  67.104  0.00  0.00    +0.000 A 
ATOM     12  C   UNL     1      61.234  62.381  66.461  0.00  0.00    +0.000 A 
ATOM     13 CL   UNL     1      62.054  62.395  66.378  0.00  0.00    +0.000 Cl
ATOM     14  C   UNL     1      60.769  61.991  65.903  0.00  0.00    +0.000 A 
ATOM     15  C   UNL     1      59.948  61.978  65.987  0.00  0.00    +0.000 A 
ATOM     16  C   UNL     1      59.593  62.354  66.630  0.00  0.00    +0.000 A 
ATOM     17  C   UNL     1      60.059  62.744  67.189  0.00  0.00    +0.000 A 
ATOM     18  F   UNL     1      59.704  63.120  67.830  0.00  0.00    +0.000 F 
ATOM     19  C   UNL     1      60.169  63.510  68.389  0.00  0.00    +0.000 A 
ATOM     20  C   UNL     1      59.814  63.886  69.032  0.00  0.00    +0.000 A 
ENDROOT
TORSDOF 0
ENDMDL
MODEL 9
REMARK VINA RESULT:    -9.253      3.892      5.151
REMARK INTER + INTRA:          -9.253
REMARK INTER:                  -9.253
REMARK INTRA:                   0.000
REMARK UNBOUND:                 0.000
ROOT
REMARK  Name = lumiracoxib
REMARK                            x       y       z     vdW  Elec       q    Type
REMARK                         _______ _______ _______ _____ _____    ______ ____
ATOM      1  C   UNL     1      59.669  66.827  69.574  0.00  0.00    +0.000 C 
ATOM      2  C   UNL     1      59.799  66.026  69.728  0.00  0.00    +0.000 A 
ATOM      3  C   UNL     1      59.746  65.741  70.501  0.00  0.00    +0.000 A 
ATOM      4  C   UNL     1      59.876  64.941  70.655  0.00  0.00    +0.000 A 
ATOM      5  C   UNL     1      59.824  64.655  71.427  0.00  0.00    +0.000 C 
ATOM      6  C   UNL     1      59.642  65.171  72.046  0.00  0.00    +0.000 C 
ATOM      7  O   UNL     1      59.512  65.971  71.892  0.00  0.00    +0.000 OA
ATOM      8  O   UNL     1      59.590  64.885  72.817  0.00  0.00    +0.000 OA
ATOM      9  C   UNL     1      60.058  64.426  70.036  0.00  0.00    +0.000 A 
ATOM     10  N   UNL     1      60.188  63.627  70.189  0.00  0.00    +0.000 NA
ATOM     11  C   UNL     1      60.370  63.112  69.571  0.00  0.00    +0.000 A 
ATOM     12  C   UNL     1      60.499  62.312  69.725  0.00  0.00    +0.000 A 
ATOM     13 CL   UNL     1      60.447  62.027  70.496  0.00  0.00    +0.000 Cl
ATOM     14  C   UNL     1      60.681  61.798  69.107  0.00  0.00    +0.000 A 
ATOM     15  C   UNL     1      60.734  62.083  68.334  0.00  0.00    +0.000 A 
ATOM     16  C   UNL     1      60.604  62.883  68.180  0.00  0.00    +0.000 A 
ATOM     17  C   UNL     1      60.422  63.398  68.799  0.00  0.00    +0.000 A 
ATOM     18  F   UNL     1      60.292  64.197  68.646  0.00  0.00    +0.000 F 
ATOM     19  C   UNL     1      60.110  64.712  69.264  0.00  0.00    +0.000 A 
ATOM     20  C   UNL     1      59.980  65.512  69.110  0.00  0.00    +0.000 A 
ENDROOT
TORSDOF 0
ENDMDL
