MODEL 1
REMARK VINA RESULT:   -12.759      0.000      0.000
REMARK INTER + INTRA:         -12.759
REMARK INTER:                 -12.759
REMARK INTRA:                   0.000
REMARK UNBOUND:                 0.000
ROOT
REMARK  Name = lynestrenol
REMARK                            x       y       z     vdW  Elec       q    Type
REMARK                         _______ _______ _______ _____ _____    ______ ____
ATOM      1  C   UNL     1      61.997  61.882  64.517  0.00  0.00    +0.000 C 
ATOM      2  C   UNL     1      61.323  61.814  64.989  0.00  0.00    +0.000 C 
ATOM      3  C   UNL     1      61.933  62.248  65.336  0.00  0.00    +0.000 C 
ATOM      4  C   UNL     1      61.834  62.568  66.090  0.00  0.00    +0.000 C 
ATOM      5  C   UNL     1      61.126  62.454  66.497  0.00  0.00    +0.000 C 
ATOM      6  C   UNL     1      60.515  62.020  66.149  0.00  0.00    +0.000 C 
ATOM      7  C   UNL     1      59.807  61.906  66.557  0.00  0.00    +0.000 C 
ATOM      8  C   UNL     1      59.708  62.226  67.311  0.00  0.00    +0.000 C 
ATOM      9  C   UNL     1      60.318  62.659  67.657  0.00  0.00    +0.000 C 
ATOM     10  C   UNL     1      60.219  62.979  68.412  0.00  0.00    +0.000 C 
ATOM     11  C   UNL     1      60.829  63.412  68.759  0.00  0.00    +0.000 C 
ATOM     12  C   UNL     1      61.538  63.527  68.352  0.00  0.00    +0.000 C 
ATOM     13  C   UNL     1      61.636  63.207  67.598  0.00  0.00    +0.000 C 
ATOM     14  C   UNL     1      61.027  62.773  67.251  0.00  0.00    +0.000 C 
ATOM     15  C   UNL     1      60.614  61.700  65.395  0.00  0.00    +0.000 C 
ATOM     16  C   UNL     1      60.115  61.251  64.917  0.00  0.00    +0.000 C 
ATOM     17  C   UNL     1      60.514  61.088  64.214  0.00  0.00    +0.000 C 
ATOM     18  C   UNL     1      61.262  61.436  64.258  0.00  0.00    +0.000 C 
ATOM     19  O   UNL     1      61.523  61.192  63.514  0.00  0.00    +0.000 OA
ATOM     20  C   UNL     1      62.014  61.633  63.985  0.00  0.00    +0.000 C 
ATOM     21  C   UNL     1      62.767  61.831  63.711  0.00  0.00    +0.000 C 
ENDROOT
TORSDOF 0
ENDMDL
MODEL 2
REMARK VINA RESULT:   -12.722      1.304      3.551
REMARK INTER + INTRA:         -12.722
REMARK INTER:                 -12.722
REMARK INTRA:                   0.000
REMARK UNBOUND:                 0.000
ROOT
REMARK  Name = lynestrenol
REMARK                            x       y       z     vdW  Elec       q    Type
REMARK                         _______ _______ _______ _____ _____    ______ ____
ATOM      1  C   UNL     1      61.297  63.241  67.682  0.00  0.00    +0.000 C 
ATOM      2  C   UNL     1      60.883  62.752  67.162  0.00  0.00    +0.000 C 
ATOM      3  C   UNL     1      61.625  62.984  66.885  0.00  0.00    +0.000 C 
ATOM      4  C   UNL     1      61.889  62.726  66.148  0.00  0.00    +0.000 C 
ATOM      5  C   UNL     1      61.411  62.236  65.687  0.00  0.00    +0.000 C 
ATOM      6  C   UNL     1      60.669  62.004  65.964  0.00  0.00    +0.000 C 
ATOM      7  C   UNL     1      60.191  61.514  65.503  0.00  0.00    +0.000 C 
ATOM      8  C   UNL     1      60.455  61.256  64.765  0.00  0.00    +0.000 C 
ATOM      9  C   UNL     1      61.197  61.488  64.489  0.00  0.00    +0.000 C 
ATOM     10  C   UNL     1      61.460  61.229  63.750  0.00  0.00    +0.000 C 
ATOM     11  C   UNL     1      62.202  61.461  63.474  0.00  0.00    +0.000 C 
ATOM     12  C   UNL     1      62.680  61.951  63.934  0.00  0.00    +0.000 C 
ATOM     13  C   UNL     1      62.416  62.209  64.672  0.00  0.00    +0.000 C 
ATOM     14  C   UNL     1      61.675  61.978  64.949  0.00  0.00    +0.000 C 
ATOM     15  C   UNL     1      60.405  62.262  66.702  0.00  0.00    +0.000 C 
ATOM     16  C   UNL     1      59.705  62.125  67.117  0.00  0.00    +0.000 C 
ATOM     17  C   UNL     1      59.750  62.530  67.834  0.00  0.00    +0.000 C 
ATOM     18  C   UNL     1      60.478  62.918  67.863  0.00  0.00    +0.000 C 
ATOM     19  O   UNL     1      60.374  63.261  68.606  0.00  0.00    +0.000 OA
ATOM     20  C   UNL     1      61.061  63.395  68.198  0.00  0.00    +0.000 C 
ATOM     21  C   UNL     1      61.645  63.873  68.534  0.00  0.00    +0.000 C 
ENDROOT
TORSDOF 0
ENDMDL
MODEL 3
REMARK VINA RESULT:   -11.659      3.433      6.020
REMARK INTER + INTRA:         -11.659
REMARK INTER:                 -11.659
REMARK INTRA:                   0.000
REMARK UNBOUND:                 0.000
ROOT
REMARK  Name = lynestrenol
REMARK                            x       y       z     vdW  Elec       q    Type
REMARK                         _______ _______ _______ _____ _____    ______ ____
ATOM      1  C   UNL     1      61.631  64.322  71.924  0.00  0.00    +0.000 C 
ATOM      2  C   UNL     1      61.392  63.564  71.702  0.00  0.00    +0.000 C 
ATOM      3  C   UNL     1      61.385  64.113  71.085  0.00  0.00    +0.000 C 
ATOM      4  C   UNL     1      61.153  63.881  70.329  0.00  0.00    +0.000 C 
ATOM      5  C   UNL     1      60.927  63.099  70.189  0.00  0.00    +0.000 C 
ATOM      6  C   UNL     1      60.935  62.551  70.805  0.00  0.00    +0.000 C 
ATOM      7  C   UNL     1      60.709  61.769  70.664  0.00  0.00    +0.000 C 
ATOM      8  C   UNL     1      60.477  61.537  69.907  0.00  0.00    +0.000 C 
ATOM      9  C   UNL     1      60.470  62.086  69.292  0.00  0.00    +0.000 C 
ATOM     10  C   UNL     1      60.237  61.853  68.535  0.00  0.00    +0.000 C 
ATOM     11  C   UNL     1      60.230  62.401  67.919  0.00  0.00    +0.000 C 
ATOM     12  C   UNL     1      60.455  63.183  68.059  0.00  0.00    +0.000 C 
ATOM     13  C   UNL     1      60.687  63.415  68.816  0.00  0.00    +0.000 C 
ATOM     14  C   UNL     1      60.695  62.867  69.432  0.00  0.00    +0.000 C 
ATOM     15  C   UNL     1      61.167  62.783  71.561  0.00  0.00    +0.000 C 
ATOM     16  C   UNL     1      61.229  62.368  72.271  0.00  0.00    +0.000 C 
ATOM     17  C   UNL     1      61.493  62.893  72.851  0.00  0.00    +0.000 C 
ATOM     18  C   UNL     1      61.594  63.633  72.499  0.00  0.00    +0.000 C 
ATOM     19  O   UNL     1      61.848  64.026  73.178  0.00  0.00    +0.000 OA
ATOM     20  C   UNL     1      61.787  64.433  72.480  0.00  0.00    +0.000 C 
ATOM     21  C   UNL     1      61.981  65.236  72.461  0.00  0.00    +0.000 C 
ENDROOT
TORSDOF 0
ENDMDL
MODEL 4
REMARK VINA RESULT:   -11.634      2.701      4.715
REMARK INTER + INTRA:         -11.634
REMARK INTER:                 -11.634
REMARK INTRA:                   0.000
REMARK UNBOUND:                 0.000
ROOT
REMARK  Name = lynestrenol
REMARK                            x       y       z     vdW  Elec       q    Type
REMARK                         _______ _______ _______ _____ _____    ______ ____
ATOM      1  C   UNL     1      60.454  62.475  68.618  0.00  0.00    +0.000 C 
ATOM      2  C   UNL     1      60.488  62.982  69.269  0.00  0.00    +0.000 C 
ATOM      3  C   UNL     1      60.760  62.218  69.424  0.00  0.00    +0.000 C 
ATOM      4  C   UNL     1      61.032  62.022  70.177  0.00  0.00    +0.000 C 
ATOM      5  C   UNL     1      61.033  62.589  70.776  0.00  0.00    +0.000 C 
ATOM      6  C   UNL     1      60.761  63.353  70.621  0.00  0.00    +0.000 C 
ATOM      7  C   UNL     1      60.762  63.920  71.221  0.00  0.00    +0.000 C 
ATOM      8  C   UNL     1      61.035  63.724  71.974  0.00  0.00    +0.000 C 
ATOM      9  C   UNL     1      61.306  62.960  72.128  0.00  0.00    +0.000 C 
ATOM     10  C   UNL     1      61.579  62.764  72.883  0.00  0.00    +0.000 C 
ATOM     11  C   UNL     1      61.851  62.001  73.036  0.00  0.00    +0.000 C 
ATOM     12  C   UNL     1      61.850  61.433  72.437  0.00  0.00    +0.000 C 
ATOM     13  C   UNL     1      61.577  61.630  71.684  0.00  0.00    +0.000 C 
ATOM     14  C   UNL     1      61.306  62.393  71.529  0.00  0.00    +0.000 C 
ATOM     15  C   UNL     1      60.489  63.549  69.868  0.00  0.00    +0.000 C 
ATOM     16  C   UNL     1      60.190  64.251  69.555  0.00  0.00    +0.000 C 
ATOM     17  C   UNL     1      60.005  64.118  68.762  0.00  0.00    +0.000 C 
ATOM     18  C   UNL     1      60.189  63.333  68.585  0.00  0.00    +0.000 C 
ATOM     19  O   UNL     1      59.957  63.358  67.794  0.00  0.00    +0.000 OA
ATOM     20  C   UNL     1      60.250  62.668  68.102  0.00  0.00    +0.000 C 
ATOM     21  C   UNL     1      60.311  62.002  67.617  0.00  0.00    +0.000 C 
ENDROOT
TORSDOF 0
ENDMDL
MODEL 5
REMARK VINA RESULT:   -11.533      3.045      5.139
REMARK INTER + INTRA:         -11.533
REMARK INTER:                 -11.533
REMARK INTRA:                   0.000
REMARK UNBOUND:                 0.000
ROOT
REMARK  Name = lynestrenol
REMARK                            x       y       z     vdW  Elec       q    Type
REMARK                         _______ _______ _______ _____ _____    ______ ____
ATOM      1  C   UNL     1      60.848  62.603  69.215  0.00  0.00    +0.000 C 
ATOM      2  C   UNL     1      60.847  62.576  70.040  0.00  0.00    +0.000 C 
ATOM      3  C   UNL     1      61.182  63.262  69.727  0.00  0.00    +0.000 C 
ATOM      4  C   UNL     1      61.478  63.844  70.231  0.00  0.00    +0.000 C 
ATOM      5  C   UNL     1      61.439  63.740  71.048  0.00  0.00    +0.000 C 
ATOM      6  C   UNL     1      61.103  63.054  71.361  0.00  0.00    +0.000 C 
ATOM      7  C   UNL     1      61.064  62.951  72.179  0.00  0.00    +0.000 C 
ATOM      8  C   UNL     1      61.360  63.533  72.684  0.00  0.00    +0.000 C 
ATOM      9  C   UNL     1      61.695  64.218  72.370  0.00  0.00    +0.000 C 
ATOM     10  C   UNL     1      61.991  64.800  72.875  0.00  0.00    +0.000 C 
ATOM     11  C   UNL     1      62.326  65.486  72.562  0.00  0.00    +0.000 C 
ATOM     12  C   UNL     1      62.365  65.590  71.744  0.00  0.00    +0.000 C 
ATOM     13  C   UNL     1      62.070  65.008  71.240  0.00  0.00    +0.000 C 
ATOM     14  C   UNL     1      61.734  64.322  71.552  0.00  0.00    +0.000 C 
ATOM     15  C   UNL     1      60.808  62.472  70.857  0.00  0.00    +0.000 C 
ATOM     16  C   UNL     1      60.449  61.744  71.005  0.00  0.00    +0.000 C 
ATOM     17  C   UNL     1      60.267  61.398  70.278  0.00  0.00    +0.000 C 
ATOM     18  C   UNL     1      60.513  61.912  69.681  0.00  0.00    +0.000 C 
ATOM     19  O   UNL     1      60.271  61.443  69.047  0.00  0.00    +0.000 OA
ATOM     20  C   UNL     1      60.623  62.158  68.903  0.00  0.00    +0.000 C 
ATOM     21  C   UNL     1      60.734  62.405  68.122  0.00  0.00    +0.000 C 
ENDROOT
TORSDOF 0
ENDMDL
MODEL 6
REMARK VINA RESULT:   -11.495      5.220      7.055
REMARK INTER + INTRA:         -11.495
REMARK INTER:                 -11.495
REMARK INTRA:                   0.000
REMARK UNBOUND:                 0.000
ROOT
REMARK  Name = lynestrenol
REMARK                            x       y       z     vdW  Elec       q    Type
REMARK                         _______ _______ _______ _____ _____    ______ ____
ATOM      1  C   UNL     1      62.439  64.740  71.749  0.00  0.00    +0.000 C 
ATOM      2  C   UNL     1      62.922  64.825  71.084  0.00  0.00    +0.000 C 
ATOM      3  C   UNL     1      63.074  65.372  71.683  0.00  0.00    +0.000 C 
ATOM      4  C   UNL     1      63.667  65.938  71.584  0.00  0.00    +0.000 C 
ATOM      5  C   UNL     1      64.106  65.956  70.886  0.00  0.00    +0.000 C 
ATOM      6  C   UNL     1      63.953  65.409  70.287  0.00  0.00    +0.000 C 
ATOM      7  C   UNL     1      64.394  65.428  69.589  0.00  0.00    +0.000 C 
ATOM      8  C   UNL     1      64.986  65.993  69.490  0.00  0.00    +0.000 C 
ATOM      9  C   UNL     1      65.138  66.540  70.089  0.00  0.00    +0.000 C 
ATOM     10  C   UNL     1      65.731  67.105  69.989  0.00  0.00    +0.000 C 
ATOM     11  C   UNL     1      65.884  67.652  70.588  0.00  0.00    +0.000 C 
ATOM     12  C   UNL     1      65.444  67.633  71.286  0.00  0.00    +0.000 C 
ATOM     13  C   UNL     1      64.852  67.068  71.385  0.00  0.00    +0.000 C 
ATOM     14  C   UNL     1      64.699  66.521  70.787  0.00  0.00    +0.000 C 
ATOM     15  C   UNL     1      63.361  64.844  70.386  0.00  0.00    +0.000 C 
ATOM     16  C   UNL     1      63.088  64.239  69.897  0.00  0.00    +0.000 C 
ATOM     17  C   UNL     1      62.479  63.846  70.292  0.00  0.00    +0.000 C 
ATOM     18  C   UNL     1      62.376  64.209  71.026  0.00  0.00    +0.000 C 
ATOM     19  O   UNL     1      61.762  63.723  71.286  0.00  0.00    +0.000 OA
ATOM     20  C   UNL     1      62.030  64.317  71.766  0.00  0.00    +0.000 C 
ATOM     21  C   UNL     1      61.684  64.426  72.508  0.00  0.00    +0.000 C 
ENDROOT
TORSDOF 0
ENDMDL
MODEL 7
REMARK VINA RESULT:   -11.293      4.830      6.544
REMARK INTER + INTRA:         -11.293
REMARK INTER:                 -11.293
REMARK INTRA:                   0.000
REMARK UNBOUND:                 0.000
ROOT
REMARK  Name = lynestrenol
REMARK                            x       y       z     vdW  Elec       q    Type
REMARK                         _______ _______ _______ _____ _____    ______ ____
ATOM      1  C   UNL     1      60.561  62.424  70.976  0.00  0.00    +0.000 C 
ATOM      2  C   UNL     1      60.759  62.917  71.608  0.00  0.00    +0.000 C 
ATOM      3  C   UNL     1      60.206  63.242  71.089  0.00  0.00    +0.000 C 
ATOM      4  C   UNL     1      59.903  63.997  71.228  0.00  0.00    +0.000 C 
ATOM      5  C   UNL     1      60.154  64.426  71.887  0.00  0.00    +0.000 C 
ATOM      6  C   UNL     1      60.707  64.101  72.406  0.00  0.00    +0.000 C 
ATOM      7  C   UNL     1      60.958  64.532  73.064  0.00  0.00    +0.000 C 
ATOM      8  C   UNL     1      60.655  65.286  73.203  0.00  0.00    +0.000 C 
ATOM      9  C   UNL     1      60.103  65.611  72.684  0.00  0.00    +0.000 C 
ATOM     10  C   UNL     1      59.800  66.366  72.824  0.00  0.00    +0.000 C 
ATOM     11  C   UNL     1      59.247  66.691  72.305  0.00  0.00    +0.000 C 
ATOM     12  C   UNL     1      58.996  66.261  71.647  0.00  0.00    +0.000 C 
ATOM     13  C   UNL     1      59.299  65.506  71.507  0.00  0.00    +0.000 C 
ATOM     14  C   UNL     1      59.852  65.181  72.026  0.00  0.00    +0.000 C 
ATOM     15  C   UNL     1      61.010  63.346  72.267  0.00  0.00    +0.000 C 
ATOM     16  C   UNL     1      61.557  62.887  72.678  0.00  0.00    +0.000 C 
ATOM     17  C   UNL     1      61.644  62.172  72.274  0.00  0.00    +0.000 C 
ATOM     18  C   UNL     1      61.151  62.190  71.613  0.00  0.00    +0.000 C 
ATOM     19  O   UNL     1      61.345  61.441  71.329  0.00  0.00    +0.000 OA
ATOM     20  C   UNL     1      60.808  61.893  70.925  0.00  0.00    +0.000 C 
ATOM     21  C   UNL     1      60.464  61.594  70.236  0.00  0.00    +0.000 C 
ENDROOT
TORSDOF 0
ENDMDL
MODEL 8
REMARK VINA RESULT:   -11.173      5.867      7.000
REMARK INTER + INTRA:         -11.173
REMARK INTER:                 -11.173
REMARK INTRA:                   0.000
REMARK UNBOUND:                 0.000
ROOT
REMARK  Name = lynestrenol
REMARK                            x       y       z     vdW  Elec       q    Type
REMARK                         _______ _______ _______ _____ _____    ______ ____
ATOM      1  C   UNL     1      61.742  63.411  71.746  0.00  0.00    +0.000 C 
ATOM      2  C   UNL     1      62.027  64.175  71.877  0.00  0.00    +0.000 C 
ATOM      3  C   UNL     1      62.381  63.789  71.239  0.00  0.00    +0.000 C 
ATOM      4  C   UNL     1      62.964  64.171  70.797  0.00  0.00    +0.000 C 
ATOM      5  C   UNL     1      63.193  64.939  70.994  0.00  0.00    +0.000 C 
ATOM      6  C   UNL     1      62.840  65.325  71.632  0.00  0.00    +0.000 C 
ATOM      7  C   UNL     1      63.070  66.092  71.828  0.00  0.00    +0.000 C 
ATOM      8  C   UNL     1      63.653  66.474  71.387  0.00  0.00    +0.000 C 
ATOM      9  C   UNL     1      64.005  66.088  70.749  0.00  0.00    +0.000 C 
ATOM     10  C   UNL     1      64.589  66.471  70.308  0.00  0.00    +0.000 C 
ATOM     11  C   UNL     1      64.942  66.085  69.670  0.00  0.00    +0.000 C 
ATOM     12  C   UNL     1      64.713  65.317  69.473  0.00  0.00    +0.000 C 
ATOM     13  C   UNL     1      64.130  64.935  69.915  0.00  0.00    +0.000 C 
ATOM     14  C   UNL     1      63.776  65.320  70.553  0.00  0.00    +0.000 C 
ATOM     15  C   UNL     1      62.257  64.943  72.074  0.00  0.00    +0.000 C 
ATOM     16  C   UNL     1      61.814  65.182  72.727  0.00  0.00    +0.000 C 
ATOM     17  C   UNL     1      61.310  64.562  72.934  0.00  0.00    +0.000 C 
ATOM     18  C   UNL     1      61.442  63.939  72.409  0.00  0.00    +0.000 C 
ATOM     19  O   UNL     1      60.889  63.422  72.735  0.00  0.00    +0.000 OA
ATOM     20  C   UNL     1      61.324  63.187  72.093  0.00  0.00    +0.000 C 
ATOM     21  C   UNL     1      61.205  62.433  71.777  0.00  0.00    +0.000 C 
ENDROOT
TORSDOF 0
ENDMDL
MODEL 9
REMARK VINA RESULT:   -11.138      5.595      6.831
REMARK INTER + INTRA:         -11.138
REMARK INTER:                 -11.138
REMARK INTRA:                   0.000
REMARK UNBOUND:                 0.000
ROOT
REMARK  Name = lynestrenol
REMARK                            x       y       z     vdW  Elec       q    Type
REMARK                         _______ _______ _______ _____ _____    ______ ____
ATOM      1  C   UNL     1      64.695  66.613  70.912  0.00  0.00    +0.000 C 
ATOM      2  C   UNL     1      64.304  65.939  70.640  0.00  0.00    +0.000 C 
ATOM      3  C   UNL     1      64.021  66.223  71.361  0.00  0.00    +0.000 C 
ATOM      4  C   UNL     1      63.401  65.836  71.743  0.00  0.00    +0.000 C 
ATOM      5  C   UNL     1      63.062  65.165  71.402  0.00  0.00    +0.000 C 
ATOM      6  C   UNL     1      63.345  64.881  70.681  0.00  0.00    +0.000 C 
ATOM      7  C   UNL     1      63.005  64.209  70.341  0.00  0.00    +0.000 C 
ATOM      8  C   UNL     1      62.385  63.823  70.722  0.00  0.00    +0.000 C 
ATOM      9  C   UNL     1      62.103  64.107  71.443  0.00  0.00    +0.000 C 
ATOM     10  C   UNL     1      61.481  63.719  71.825  0.00  0.00    +0.000 C 
ATOM     11  C   UNL     1      61.200  64.004  72.546  0.00  0.00    +0.000 C 
ATOM     12  C   UNL     1      61.538  64.675  72.886  0.00  0.00    +0.000 C 
ATOM     13  C   UNL     1      62.159  65.062  72.505  0.00  0.00    +0.000 C 
ATOM     14  C   UNL     1      62.441  64.778  71.784  0.00  0.00    +0.000 C 
ATOM     15  C   UNL     1      63.965  65.268  70.299  0.00  0.00    +0.000 C 
ATOM     16  C   UNL     1      64.356  65.117  69.589  0.00  0.00    +0.000 C 
ATOM     17  C   UNL     1      64.937  65.695  69.490  0.00  0.00    +0.000 C 
ATOM     18  C   UNL     1      64.905  66.203  70.140  0.00  0.00    +0.000 C 
ATOM     19  O   UNL     1      65.518  66.701  69.901  0.00  0.00    +0.000 OA
ATOM     20  C   UNL     1      65.133  66.849  70.598  0.00  0.00    +0.000 C 
ATOM     21  C   UNL     1      65.362  67.496  71.058  0.00  0.00    +0.000 C 
ENDROOT
TORSDOF 0
ENDMDL
