MODEL 1
REMARK VINA RESULT:   -18.989      0.000      0.000
REMARK INTER + INTRA:         -18.989
REMARK INTER:                 -18.989
REMARK INTRA:                   0.000
REMARK UNBOUND:                 0.000
ROOT
REMARK  Name = lypressin
REMARK                            x       y       z     vdW  Elec       q    Type
REMARK                         _______ _______ _______ _____ _____    ______ ____
ATOM      1  N   UNL     1      63.119  59.152  49.655  0.00  0.00    +0.000 NA
ATOM      2  C   UNL     1      62.841  59.919  49.782  0.00  0.00    +0.000 C 
ATOM      3  C   UNL     1      63.045  60.322  50.473  0.00  0.00    +0.000 C 
ATOM      4  C   UNL     1      62.767  61.088  50.600  0.00  0.00    +0.000 C 
ATOM      5  C   UNL     1      62.971  61.492  51.290  0.00  0.00    +0.000 C 
ATOM      6  C   UNL     1      62.692  62.258  51.417  0.00  0.00    +0.000 C 
ATOM      7  N   UNL     1      62.897  62.662  52.107  0.00  0.00    +0.000 NA
ATOM      8  C   UNL     1      62.619  63.428  52.234  0.00  0.00    +0.000 C 
ATOM      9  O   UNL     1      62.136  63.791  51.671  0.00  0.00    +0.000 OA
ATOM     10  C   UNL     1      62.822  63.832  52.924  0.00  0.00    +0.000 C 
ATOM     11  C   UNL     1      63.298  63.541  53.533  0.00  0.00    +0.000 C 
ATOM     12  C   UNL     1      63.356  64.126  54.112  0.00  0.00    +0.000 C 
ATOM     13  C   UNL     1      62.917  64.779  53.860  0.00  0.00    +0.000 C 
ATOM     14  N   UNL     1      62.587  64.596  53.126  0.00  0.00    +0.000 N 
ATOM     15  C   UNL     1      62.107  65.091  52.674  0.00  0.00    +0.000 C 
ATOM     16  O   UNL     1      61.816  64.833  51.947  0.00  0.00    +0.000 OA
ATOM     17  C   UNL     1      61.918  65.845  52.949  0.00  0.00    +0.000 C 
ATOM     18  C   UNL     1      62.398  65.350  53.401  0.00  0.00    +0.000 C 
ATOM     19  S   UNL     1      62.688  65.610  54.128  0.00  0.00    +0.000 S 
ATOM     20  S   UNL     1      62.499  66.364  54.403  0.00  0.00    +0.000 S 
ATOM     21  C   UNL     1      62.019  66.859  53.951  0.00  0.00    +0.000 C 
ATOM     22  C   UNL     1      61.829  67.614  54.225  0.00  0.00    +0.000 C 
ATOM     23  N   UNL     1      62.292  67.399  54.874  0.00  0.00    +0.000 NA
ATOM     24  C   UNL     1      61.348  68.109  53.773  0.00  0.00    +0.000 C 
ATOM     25  O   UNL     1      61.058  67.849  53.046  0.00  0.00    +0.000 OA
ATOM     26  N   UNL     1      61.159  68.863  54.048  0.00  0.00    +0.000 NA
ATOM     27  C   UNL     1      60.679  69.358  53.596  0.00  0.00    +0.000 C 
ATOM     28  C   UNL     1      60.969  69.618  54.323  0.00  0.00    +0.000 C 
ATOM     29  C   UNL     1      61.450  69.122  54.776  0.00  0.00    +0.000 A 
ATOM     30  C   UNL     1      61.639  68.368  54.501  0.00  0.00    +0.000 A 
ATOM     31  C   UNL     1      62.120  67.873  54.953  0.00  0.00    +0.000 A 
ATOM     32  C   UNL     1      62.411  68.132  55.680  0.00  0.00    +0.000 A 
ATOM     33  O   UNL     1      62.891  67.637  56.133  0.00  0.00    +0.000 OA
ATOM     34  C   UNL     1      62.221  68.887  55.955  0.00  0.00    +0.000 A 
ATOM     35  C   UNL     1      61.740  69.382  55.502  0.00  0.00    +0.000 A 
ATOM     36  C   UNL     1      60.489  70.113  53.870  0.00  0.00    +0.000 C 
ATOM     37  O   UNL     1      60.780  70.372  54.598  0.00  0.00    +0.000 OA
ATOM     38  N   UNL     1      60.008  70.608  53.418  0.00  0.00    +0.000 NA
ATOM     39  C   UNL     1      59.718  70.348  52.691  0.00  0.00    +0.000 C 
ATOM     40  C   UNL     1      59.237  70.844  52.238  0.00  0.00    +0.000 C 
ATOM     41  C   UNL     1      59.047  71.598  52.513  0.00  0.00    +0.000 A 
ATOM     42  C   UNL     1      59.338  71.857  53.241  0.00  0.00    +0.000 A 
ATOM     43  C   UNL     1      59.149  72.612  53.515  0.00  0.00    +0.000 A 
ATOM     44  C   UNL     1      58.668  73.107  53.063  0.00  0.00    +0.000 A 
ATOM     45  C   UNL     1      58.378  72.848  52.336  0.00  0.00    +0.000 A 
ATOM     46  C   UNL     1      58.567  72.093  52.061  0.00  0.00    +0.000 A 
ATOM     47  C   UNL     1      59.907  69.594  52.416  0.00  0.00    +0.000 C 
ATOM     48  O   UNL     1      60.388  69.099  52.868  0.00  0.00    +0.000 OA
ATOM     49  N   UNL     1      59.616  69.335  51.688  0.00  0.00    +0.000 NA
ATOM     50  C   UNL     1      59.806  68.580  51.414  0.00  0.00    +0.000 C 
ATOM     51  C   UNL     1      59.515  68.321  50.687  0.00  0.00    +0.000 C 
ATOM     52  C   UNL     1      59.034  68.817  50.234  0.00  0.00    +0.000 C 
ATOM     53  C   UNL     1      58.744  68.558  49.508  0.00  0.00    +0.000 C 
ATOM     54  N   UNL     1      58.933  67.803  49.232  0.00  0.00    +0.000 NA
ATOM     55  O   UNL     1      58.264  69.053  49.055  0.00  0.00    +0.000 OA
ATOM     56  C   UNL     1      60.287  68.085  51.866  0.00  0.00    +0.000 C 
ATOM     57  O   UNL     1      60.577  68.344  52.594  0.00  0.00    +0.000 OA
ATOM     58  N   UNL     1      60.476  67.332  51.592  0.00  0.00    +0.000 NA
ATOM     59  C   UNL     1      60.957  66.836  52.044  0.00  0.00    +0.000 C 
ATOM     60  C   UNL     1      60.665  66.577  51.317  0.00  0.00    +0.000 C 
ATOM     61  C   UNL     1      60.185  67.071  50.864  0.00  0.00    +0.000 C 
ATOM     62  N   UNL     1      59.995  67.827  51.139  0.00  0.00    +0.000 NA
ATOM     63  O   UNL     1      59.894  66.813  50.137  0.00  0.00    +0.000 OA
ATOM     64  C   UNL     1      61.146  66.082  51.769  0.00  0.00    +0.000 C 
ATOM     65  O   UNL     1      60.855  65.823  51.043  0.00  0.00    +0.000 OA
ATOM     66  N   UNL     1      61.627  65.586  52.221  0.00  0.00    +0.000 NA
ATOM     67  C   UNL     1      62.211  62.621  50.854  0.00  0.00    +0.000 C 
ATOM     68  O   UNL     1      62.006  62.217  50.164  0.00  0.00    +0.000 OA
ATOM     69  N   UNL     1      61.933  63.387  50.982  0.00  0.00    +0.000 NA
ATOM     70  C   UNL     1      61.450  63.750  50.418  0.00  0.00    +0.000 C 
ATOM     71  C   UNL     1      61.172  64.516  50.546  0.00  0.00    +0.000 C 
ATOM     72  N   UNL     1      61.377  64.919  51.236  0.00  0.00    +0.000 NA
ATOM     73  O   UNL     1      60.690  64.878  49.983  0.00  0.00    +0.000 OA
ENDROOT
TORSDOF 0
ENDMDL
MODEL 2
REMARK VINA RESULT:   -17.651      1.568      7.497
REMARK INTER + INTRA:         -17.651
REMARK INTER:                 -17.651
REMARK INTRA:                   0.000
REMARK UNBOUND:                 0.000
ROOT
REMARK  Name = lypressin
REMARK                            x       y       z     vdW  Elec       q    Type
REMARK                         _______ _______ _______ _____ _____    ______ ____
ATOM      1  N   UNL     1      59.748  71.749  53.827  0.00  0.00    +0.000 NA
ATOM      2  C   UNL     1      59.825  70.986  53.524  0.00  0.00    +0.000 C 
ATOM      3  C   UNL     1      60.360  70.459  53.865  0.00  0.00    +0.000 C 
ATOM      4  C   UNL     1      60.437  69.696  53.561  0.00  0.00    +0.000 C 
ATOM      5  C   UNL     1      60.972  69.168  53.901  0.00  0.00    +0.000 C 
ATOM      6  C   UNL     1      61.048  68.405  53.597  0.00  0.00    +0.000 C 
ATOM      7  N   UNL     1      61.584  67.877  53.938  0.00  0.00    +0.000 NA
ATOM      8  C   UNL     1      61.661  67.114  53.634  0.00  0.00    +0.000 C 
ATOM      9  O   UNL     1      61.202  66.878  52.989  0.00  0.00    +0.000 OA
ATOM     10  C   UNL     1      62.195  66.586  53.974  0.00  0.00    +0.000 C 
ATOM     11  C   UNL     1      62.688  66.743  54.618  0.00  0.00    +0.000 C 
ATOM     12  C   UNL     1      63.129  66.063  54.772  0.00  0.00    +0.000 C 
ATOM     13  C   UNL     1      62.908  65.486  54.224  0.00  0.00    +0.000 C 
ATOM     14  N   UNL     1      62.332  65.810  53.731  0.00  0.00    +0.000 N 
ATOM     15  C   UNL     1      61.957  65.425  53.105  0.00  0.00    +0.000 C 
ATOM     16  O   UNL     1      61.388  65.820  52.658  0.00  0.00    +0.000 OA
ATOM     17  C   UNL     1      62.152  64.643  52.927  0.00  0.00    +0.000 C 
ATOM     18  C   UNL     1      62.526  65.028  53.552  0.00  0.00    +0.000 C 
ATOM     19  S   UNL     1      63.095  64.632  53.999  0.00  0.00    +0.000 S 
ATOM     20  S   UNL     1      63.290  63.850  53.820  0.00  0.00    +0.000 S 
ATOM     21  C   UNL     1      62.915  63.465  53.194  0.00  0.00    +0.000 C 
ATOM     22  C   UNL     1      63.109  62.684  53.015  0.00  0.00    +0.000 C 
ATOM     23  N   UNL     1      63.631  62.759  53.650  0.00  0.00    +0.000 NA
ATOM     24  C   UNL     1      62.734  62.299  52.389  0.00  0.00    +0.000 C 
ATOM     25  O   UNL     1      62.166  62.695  51.942  0.00  0.00    +0.000 OA
ATOM     26  N   UNL     1      62.929  61.517  52.210  0.00  0.00    +0.000 NA
ATOM     27  C   UNL     1      62.555  61.132  51.584  0.00  0.00    +0.000 C 
ATOM     28  C   UNL     1      63.123  60.735  52.031  0.00  0.00    +0.000 C 
ATOM     29  C   UNL     1      63.499  61.120  52.657  0.00  0.00    +0.000 A 
ATOM     30  C   UNL     1      63.304  61.902  52.836  0.00  0.00    +0.000 A 
ATOM     31  C   UNL     1      63.678  62.287  53.462  0.00  0.00    +0.000 A 
ATOM     32  C   UNL     1      64.248  61.891  53.909  0.00  0.00    +0.000 A 
ATOM     33  O   UNL     1      64.622  62.276  54.535  0.00  0.00    +0.000 OA
ATOM     34  C   UNL     1      64.442  61.109  53.730  0.00  0.00    +0.000 A 
ATOM     35  C   UNL     1      64.067  60.724  53.104  0.00  0.00    +0.000 A 
ATOM     36  C   UNL     1      62.749  60.350  51.405  0.00  0.00    +0.000 C 
ATOM     37  O   UNL     1      63.318  59.954  51.852  0.00  0.00    +0.000 OA
ATOM     38  N   UNL     1      62.374  59.965  50.779  0.00  0.00    +0.000 NA
ATOM     39  C   UNL     1      61.805  60.361  50.332  0.00  0.00    +0.000 C 
ATOM     40  C   UNL     1      61.430  59.976  49.706  0.00  0.00    +0.000 C 
ATOM     41  C   UNL     1      61.625  59.195  49.527  0.00  0.00    +0.000 A 
ATOM     42  C   UNL     1      62.194  58.798  49.974  0.00  0.00    +0.000 A 
ATOM     43  C   UNL     1      62.388  58.017  49.795  0.00  0.00    +0.000 A 
ATOM     44  C   UNL     1      62.014  57.632  49.169  0.00  0.00    +0.000 A 
ATOM     45  C   UNL     1      61.445  58.028  48.722  0.00  0.00    +0.000 A 
ATOM     46  C   UNL     1      61.250  58.809  48.901  0.00  0.00    +0.000 A 
ATOM     47  C   UNL     1      61.611  61.143  50.511  0.00  0.00    +0.000 C 
ATOM     48  O   UNL     1      61.985  61.528  51.137  0.00  0.00    +0.000 OA
ATOM     49  N   UNL     1      61.041  61.539  50.064  0.00  0.00    +0.000 NA
ATOM     50  C   UNL     1      60.847  62.321  50.243  0.00  0.00    +0.000 C 
ATOM     51  C   UNL     1      60.278  62.717  49.796  0.00  0.00    +0.000 C 
ATOM     52  C   UNL     1      59.904  62.331  49.170  0.00  0.00    +0.000 C 
ATOM     53  C   UNL     1      59.335  62.727  48.723  0.00  0.00    +0.000 C 
ATOM     54  N   UNL     1      59.140  63.509  48.902  0.00  0.00    +0.000 NA
ATOM     55  O   UNL     1      58.960  62.342  48.098  0.00  0.00    +0.000 OA
ATOM     56  C   UNL     1      61.222  62.706  50.869  0.00  0.00    +0.000 C 
ATOM     57  O   UNL     1      61.791  62.310  51.317  0.00  0.00    +0.000 OA
ATOM     58  N   UNL     1      61.028  63.487  51.048  0.00  0.00    +0.000 NA
ATOM     59  C   UNL     1      61.403  63.873  51.675  0.00  0.00    +0.000 C 
ATOM     60  C   UNL     1      60.833  64.268  51.227  0.00  0.00    +0.000 C 
ATOM     61  C   UNL     1      60.459  63.884  50.602  0.00  0.00    +0.000 C 
ATOM     62  N   UNL     1      60.653  63.102  50.422  0.00  0.00    +0.000 NA
ATOM     63  O   UNL     1      59.889  64.279  50.154  0.00  0.00    +0.000 OA
ATOM     64  C   UNL     1      61.208  64.653  51.853  0.00  0.00    +0.000 C 
ATOM     65  O   UNL     1      60.639  65.050  51.407  0.00  0.00    +0.000 OA
ATOM     66  N   UNL     1      61.582  65.040  52.479  0.00  0.00    +0.000 NA
ATOM     67  C   UNL     1      60.591  68.169  52.953  0.00  0.00    +0.000 C 
ATOM     68  O   UNL     1      60.055  68.697  52.612  0.00  0.00    +0.000 OA
ATOM     69  N   UNL     1      60.668  67.406  52.649  0.00  0.00    +0.000 NA
ATOM     70  C   UNL     1      60.209  67.171  52.004  0.00  0.00    +0.000 C 
ATOM     71  C   UNL     1      60.286  66.407  51.700  0.00  0.00    +0.000 C 
ATOM     72  N   UNL     1      60.821  65.880  52.041  0.00  0.00    +0.000 NA
ATOM     73  O   UNL     1      59.828  66.172  51.056  0.00  0.00    +0.000 OA
ENDROOT
TORSDOF 0
ENDMDL
MODEL 3
REMARK VINA RESULT:   -17.611      1.857      4.110
REMARK INTER + INTRA:         -17.611
REMARK INTER:                 -17.611
REMARK INTRA:                   0.000
REMARK UNBOUND:                 0.000
ROOT
REMARK  Name = lypressin
REMARK                            x       y       z     vdW  Elec       q    Type
REMARK                         _______ _______ _______ _____ _____    ______ ____
ATOM      1  N   UNL     1      64.426  57.842  54.564  0.00  0.00    +0.000 NA
ATOM      2  C   UNL     1      64.169  58.621  54.474  0.00  0.00    +0.000 C 
ATOM      3  C   UNL     1      63.753  58.842  53.797  0.00  0.00    +0.000 C 
ATOM      4  C   UNL     1      63.496  59.620  53.707  0.00  0.00    +0.000 C 
ATOM      5  C   UNL     1      63.079  59.842  53.030  0.00  0.00    +0.000 C 
ATOM      6  C   UNL     1      62.822  60.621  52.940  0.00  0.00    +0.000 C 
ATOM      7  N   UNL     1      62.406  60.842  52.263  0.00  0.00    +0.000 NA
ATOM      8  C   UNL     1      62.148  61.621  52.173  0.00  0.00    +0.000 C 
ATOM      9  O   UNL     1      62.308  62.179  52.761  0.00  0.00    +0.000 OA
ATOM     10  C   UNL     1      61.732  61.843  51.497  0.00  0.00    +0.000 C 
ATOM     11  C   UNL     1      61.533  61.348  50.866  0.00  0.00    +0.000 C 
ATOM     12  C   UNL     1      61.119  61.797  50.311  0.00  0.00    +0.000 C 
ATOM     13  C   UNL     1      61.063  62.569  50.599  0.00  0.00    +0.000 C 
ATOM     14  N   UNL     1      61.442  62.596  51.331  0.00  0.00    +0.000 N 
ATOM     15  C   UNL     1      61.517  63.262  51.813  0.00  0.00    +0.000 C 
ATOM     16  O   UNL     1      61.912  63.206  52.534  0.00  0.00    +0.000 OA
ATOM     17  C   UNL     1      61.196  63.983  51.573  0.00  0.00    +0.000 C 
ATOM     18  C   UNL     1      61.121  63.318  51.091  0.00  0.00    +0.000 C 
ATOM     19  S   UNL     1      60.726  63.374  50.370  0.00  0.00    +0.000 S 
ATOM     20  S   UNL     1      60.405  64.095  50.130  0.00  0.00    +0.000 S 
ATOM     21  C   UNL     1      60.480  64.761  50.612  0.00  0.00    +0.000 C 
ATOM     22  C   UNL     1      60.160  65.482  50.373  0.00  0.00    +0.000 C 
ATOM     23  N   UNL     1      59.923  65.057  49.706  0.00  0.00    +0.000 NA
ATOM     24  C   UNL     1      60.235  66.147  50.855  0.00  0.00    +0.000 C 
ATOM     25  O   UNL     1      60.630  66.091  51.576  0.00  0.00    +0.000 OA
ATOM     26  N   UNL     1      59.914  66.869  50.615  0.00  0.00    +0.000 NA
ATOM     27  C   UNL     1      59.989  67.534  51.097  0.00  0.00    +0.000 C 
ATOM     28  C   UNL     1      59.593  67.590  50.376  0.00  0.00    +0.000 C 
ATOM     29  C   UNL     1      59.518  66.925  49.893  0.00  0.00    +0.000 A 
ATOM     30  C   UNL     1      59.839  66.203  50.133  0.00  0.00    +0.000 A 
ATOM     31  C   UNL     1      59.764  65.538  49.651  0.00  0.00    +0.000 A 
ATOM     32  C   UNL     1      59.368  65.594  48.929  0.00  0.00    +0.000 A 
ATOM     33  O   UNL     1      59.293  64.929  48.447  0.00  0.00    +0.000 OA
ATOM     34  C   UNL     1      59.048  66.316  48.689  0.00  0.00    +0.000 A 
ATOM     35  C   UNL     1      59.123  66.981  49.171  0.00  0.00    +0.000 A 
ATOM     36  C   UNL     1      59.669  68.255  50.858  0.00  0.00    +0.000 C 
ATOM     37  O   UNL     1      59.273  68.312  50.136  0.00  0.00    +0.000 OA
ATOM     38  N   UNL     1      59.744  68.921  51.340  0.00  0.00    +0.000 NA
ATOM     39  C   UNL     1      60.139  68.864  52.061  0.00  0.00    +0.000 C 
ATOM     40  C   UNL     1      60.214  69.530  52.544  0.00  0.00    +0.000 C 
ATOM     41  C   UNL     1      59.894  70.251  52.304  0.00  0.00    +0.000 A 
ATOM     42  C   UNL     1      59.498  70.307  51.582  0.00  0.00    +0.000 A 
ATOM     43  C   UNL     1      59.177  71.029  51.342  0.00  0.00    +0.000 A 
ATOM     44  C   UNL     1      59.252  71.694  51.825  0.00  0.00    +0.000 A 
ATOM     45  C   UNL     1      59.648  71.637  52.546  0.00  0.00    +0.000 A 
ATOM     46  C   UNL     1      59.969  70.916  52.786  0.00  0.00    +0.000 A 
ATOM     47  C   UNL     1      60.460  68.143  52.301  0.00  0.00    +0.000 C 
ATOM     48  O   UNL     1      60.385  67.478  51.819  0.00  0.00    +0.000 OA
ATOM     49  N   UNL     1      60.856  68.087  53.023  0.00  0.00    +0.000 NA
ATOM     50  C   UNL     1      61.176  67.365  53.262  0.00  0.00    +0.000 C 
ATOM     51  C   UNL     1      61.572  67.309  53.984  0.00  0.00    +0.000 C 
ATOM     52  C   UNL     1      61.646  67.975  54.466  0.00  0.00    +0.000 C 
ATOM     53  C   UNL     1      62.042  67.919  55.187  0.00  0.00    +0.000 C 
ATOM     54  N   UNL     1      62.363  67.198  55.428  0.00  0.00    +0.000 NA
ATOM     55  O   UNL     1      62.117  68.584  55.670  0.00  0.00    +0.000 OA
ATOM     56  C   UNL     1      61.101  66.700  52.780  0.00  0.00    +0.000 C 
ATOM     57  O   UNL     1      60.705  66.756  52.058  0.00  0.00    +0.000 OA
ATOM     58  N   UNL     1      61.421  65.979  53.019  0.00  0.00    +0.000 NA
ATOM     59  C   UNL     1      61.346  65.313  52.537  0.00  0.00    +0.000 C 
ATOM     60  C   UNL     1      61.742  65.258  53.259  0.00  0.00    +0.000 C 
ATOM     61  C   UNL     1      61.817  65.922  53.741  0.00  0.00    +0.000 C 
ATOM     62  N   UNL     1      61.496  66.645  53.502  0.00  0.00    +0.000 NA
ATOM     63  O   UNL     1      62.213  65.867  54.463  0.00  0.00    +0.000 OA
ATOM     64  C   UNL     1      61.667  64.593  52.777  0.00  0.00    +0.000 C 
ATOM     65  O   UNL     1      62.062  64.537  53.499  0.00  0.00    +0.000 OA
ATOM     66  N   UNL     1      61.592  63.927  52.295  0.00  0.00    +0.000 NA
ATOM     67  C   UNL     1      62.981  61.178  53.527  0.00  0.00    +0.000 C 
ATOM     68  O   UNL     1      63.398  60.957  54.204  0.00  0.00    +0.000 OA
ATOM     69  N   UNL     1      62.724  61.957  53.437  0.00  0.00    +0.000 NA
ATOM     70  C   UNL     1      62.884  62.515  54.025  0.00  0.00    +0.000 C 
ATOM     71  C   UNL     1      62.627  63.293  53.935  0.00  0.00    +0.000 C 
ATOM     72  N   UNL     1      62.210  63.514  53.257  0.00  0.00    +0.000 NA
ATOM     73  O   UNL     1      62.786  63.850  54.521  0.00  0.00    +0.000 OA
ENDROOT
TORSDOF 0
ENDMDL
MODEL 4
REMARK VINA RESULT:   -17.442      1.777      7.925
REMARK INTER + INTRA:         -17.442
REMARK INTER:                 -17.442
REMARK INTRA:                   0.000
REMARK UNBOUND:                 0.000
ROOT
REMARK  Name = lypressin
REMARK                            x       y       z     vdW  Elec       q    Type
REMARK                         _______ _______ _______ _____ _____    ______ ____
ATOM      1  N   UNL     1      57.167  76.279  54.406  0.00  0.00    +0.000 NA
ATOM      2  C   UNL     1      57.553  75.550  54.394  0.00  0.00    +0.000 C 
ATOM      3  C   UNL     1      57.473  75.051  53.741  0.00  0.00    +0.000 C 
ATOM      4  C   UNL     1      57.859  74.323  53.730  0.00  0.00    +0.000 C 
ATOM      5  C   UNL     1      57.779  73.823  53.078  0.00  0.00    +0.000 C 
ATOM      6  C   UNL     1      58.166  73.095  53.066  0.00  0.00    +0.000 C 
ATOM      7  N   UNL     1      58.085  72.596  52.414  0.00  0.00    +0.000 NA
ATOM      8  C   UNL     1      58.472  71.867  52.402  0.00  0.00    +0.000 C 
ATOM      9  O   UNL     1      58.939  71.637  53.043  0.00  0.00    +0.000 OA
ATOM     10  C   UNL     1      58.392  71.368  51.750  0.00  0.00    +0.000 C 
ATOM     11  C   UNL     1      57.946  71.522  51.073  0.00  0.00    +0.000 C 
ATOM     12  C   UNL     1      58.022  70.877  50.565  0.00  0.00    +0.000 C 
ATOM     13  C   UNL     1      58.515  70.323  50.929  0.00  0.00    +0.000 C 
ATOM     14  N   UNL     1      58.743  70.627  51.661  0.00  0.00    +0.000 N 
ATOM     15  C   UNL     1      59.237  70.255  52.208  0.00  0.00    +0.000 C 
ATOM     16  O   UNL     1      59.418  70.627  52.920  0.00  0.00    +0.000 OA
ATOM     17  C   UNL     1      59.549  69.510  52.041  0.00  0.00    +0.000 C 
ATOM     18  C   UNL     1      59.056  69.882  51.494  0.00  0.00    +0.000 C 
ATOM     19  S   UNL     1      58.875  69.509  50.781  0.00  0.00    +0.000 S 
ATOM     20  S   UNL     1      59.187  68.764  50.614  0.00  0.00    +0.000 S 
ATOM     21  C   UNL     1      59.681  68.392  51.161  0.00  0.00    +0.000 C 
ATOM     22  C   UNL     1      59.993  67.647  50.995  0.00  0.00    +0.000 C 
ATOM     23  N   UNL     1      59.573  67.724  50.288  0.00  0.00    +0.000 NA
ATOM     24  C   UNL     1      60.487  67.275  51.541  0.00  0.00    +0.000 C 
ATOM     25  O   UNL     1      60.667  67.648  52.254  0.00  0.00    +0.000 OA
ATOM     26  N   UNL     1      60.799  66.529  51.374  0.00  0.00    +0.000 NA
ATOM     27  C   UNL     1      61.292  66.157  51.921  0.00  0.00    +0.000 C 
ATOM     28  C   UNL     1      61.112  65.784  51.208  0.00  0.00    +0.000 C 
ATOM     29  C   UNL     1      60.618  66.156  50.661  0.00  0.00    +0.000 A 
ATOM     30  C   UNL     1      60.306  66.901  50.828  0.00  0.00    +0.000 A 
ATOM     31  C   UNL     1      59.812  67.273  50.281  0.00  0.00    +0.000 A 
ATOM     32  C   UNL     1      59.631  66.900  49.568  0.00  0.00    +0.000 A 
ATOM     33  O   UNL     1      59.138  67.272  49.021  0.00  0.00    +0.000 OA
ATOM     34  C   UNL     1      59.944  66.155  49.401  0.00  0.00    +0.000 A 
ATOM     35  C   UNL     1      60.437  65.783  49.948  0.00  0.00    +0.000 A 
ATOM     36  C   UNL     1      61.605  65.412  51.755  0.00  0.00    +0.000 C 
ATOM     37  O   UNL     1      61.424  65.039  51.041  0.00  0.00    +0.000 OA
ATOM     38  N   UNL     1      62.098  65.040  52.301  0.00  0.00    +0.000 NA
ATOM     39  C   UNL     1      62.279  65.413  53.014  0.00  0.00    +0.000 C 
ATOM     40  C   UNL     1      62.773  65.042  53.561  0.00  0.00    +0.000 C 
ATOM     41  C   UNL     1      63.085  64.296  53.394  0.00  0.00    +0.000 A 
ATOM     42  C   UNL     1      62.904  63.923  52.681  0.00  0.00    +0.000 A 
ATOM     43  C   UNL     1      63.217  63.178  52.514  0.00  0.00    +0.000 A 
ATOM     44  C   UNL     1      63.710  62.806  53.061  0.00  0.00    +0.000 A 
ATOM     45  C   UNL     1      63.891  63.179  53.774  0.00  0.00    +0.000 A 
ATOM     46  C   UNL     1      63.579  63.924  53.941  0.00  0.00    +0.000 A 
ATOM     47  C   UNL     1      61.967  66.159  53.181  0.00  0.00    +0.000 C 
ATOM     48  O   UNL     1      61.473  66.531  52.634  0.00  0.00    +0.000 OA
ATOM     49  N   UNL     1      62.148  66.532  53.894  0.00  0.00    +0.000 NA
ATOM     50  C   UNL     1      61.835  67.277  54.060  0.00  0.00    +0.000 C 
ATOM     51  C   UNL     1      62.016  67.650  54.774  0.00  0.00    +0.000 C 
ATOM     52  C   UNL     1      62.510  67.277  55.321  0.00  0.00    +0.000 C 
ATOM     53  C   UNL     1      62.691  67.650  56.033  0.00  0.00    +0.000 C 
ATOM     54  N   UNL     1      62.378  68.396  56.200  0.00  0.00    +0.000 NA
ATOM     55  O   UNL     1      63.184  67.278  56.580  0.00  0.00    +0.000 OA
ATOM     56  C   UNL     1      61.342  67.649  53.514  0.00  0.00    +0.000 C 
ATOM     57  O   UNL     1      61.161  67.276  52.800  0.00  0.00    +0.000 OA
ATOM     58  N   UNL     1      61.030  68.393  53.680  0.00  0.00    +0.000 NA
ATOM     59  C   UNL     1      60.536  68.766  53.134  0.00  0.00    +0.000 C 
ATOM     60  C   UNL     1      60.717  69.138  53.847  0.00  0.00    +0.000 C 
ATOM     61  C   UNL     1      61.210  68.767  54.394  0.00  0.00    +0.000 C 
ATOM     62  N   UNL     1      61.523  68.021  54.227  0.00  0.00    +0.000 NA
ATOM     63  O   UNL     1      61.392  69.140  55.107  0.00  0.00    +0.000 OA
ATOM     64  C   UNL     1      60.224  69.510  53.301  0.00  0.00    +0.000 C 
ATOM     65  O   UNL     1      60.405  69.883  54.013  0.00  0.00    +0.000 OA
ATOM     66  N   UNL     1      59.730  69.883  52.754  0.00  0.00    +0.000 NA
ATOM     67  C   UNL     1      58.632  72.865  53.706  0.00  0.00    +0.000 C 
ATOM     68  O   UNL     1      58.713  73.364  54.359  0.00  0.00    +0.000 OA
ATOM     69  N   UNL     1      59.019  72.137  53.694  0.00  0.00    +0.000 NA
ATOM     70  C   UNL     1      59.486  71.907  54.335  0.00  0.00    +0.000 C 
ATOM     71  C   UNL     1      59.873  71.178  54.323  0.00  0.00    +0.000 C 
ATOM     72  N   UNL     1      59.792  70.679  53.671  0.00  0.00    +0.000 NA
ATOM     73  O   UNL     1      60.339  70.949  54.963  0.00  0.00    +0.000 OA
ENDROOT
TORSDOF 0
ENDMDL
MODEL 5
REMARK VINA RESULT:   -17.226      2.109      8.350
REMARK INTER + INTRA:         -17.226
REMARK INTER:                 -17.226
REMARK INTRA:                   0.000
REMARK UNBOUND:                 0.000
ROOT
REMARK  Name = lypressin
REMARK                            x       y       z     vdW  Elec       q    Type
REMARK                         _______ _______ _______ _____ _____    ______ ____
ATOM      1  N   UNL     1      61.998  71.078  55.587  0.00  0.00    +0.000 NA
ATOM      2  C   UNL     1      62.069  70.296  55.334  0.00  0.00    +0.000 C 
ATOM      3  C   UNL     1      61.707  70.056  54.632  0.00  0.00    +0.000 C 
ATOM      4  C   UNL     1      61.779  69.274  54.378  0.00  0.00    +0.000 C 
ATOM      5  C   UNL     1      61.417  69.032  53.678  0.00  0.00    +0.000 C 
ATOM      6  C   UNL     1      61.489  68.251  53.424  0.00  0.00    +0.000 C 
ATOM      7  N   UNL     1      61.126  68.010  52.722  0.00  0.00    +0.000 NA
ATOM      8  C   UNL     1      61.198  67.229  52.469  0.00  0.00    +0.000 C 
ATOM      9  O   UNL     1      61.632  66.687  52.916  0.00  0.00    +0.000 OA
ATOM     10  C   UNL     1      60.836  66.987  51.768  0.00  0.00    +0.000 C 
ATOM     11  C   UNL     1      60.387  67.464  51.265  0.00  0.00    +0.000 C 
ATOM     12  C   UNL     1      60.133  66.999  50.633  0.00  0.00    +0.000 C 
ATOM     13  C   UNL     1      60.425  66.235  50.745  0.00  0.00    +0.000 C 
ATOM     14  N   UNL     1      60.860  66.228  51.446  0.00  0.00    +0.000 N 
ATOM     15  C   UNL     1      61.249  65.577  51.769  0.00  0.00    +0.000 C 
ATOM     16  O   UNL     1      61.663  65.653  52.477  0.00  0.00    +0.000 OA
ATOM     17  C   UNL     1      61.223  64.848  51.383  0.00  0.00    +0.000 C 
ATOM     18  C   UNL     1      60.834  65.500  51.060  0.00  0.00    +0.000 C 
ATOM     19  S   UNL     1      60.420  65.423  50.351  0.00  0.00    +0.000 S 
ATOM     20  S   UNL     1      60.394  64.694  49.965  0.00  0.00    +0.000 S 
ATOM     21  C   UNL     1      60.783  64.042  50.288  0.00  0.00    +0.000 C 
ATOM     22  C   UNL     1      60.758  63.314  49.902  0.00  0.00    +0.000 C 
ATOM     23  N   UNL     1      60.299  63.720  49.349  0.00  0.00    +0.000 NA
ATOM     24  C   UNL     1      61.147  62.662  50.225  0.00  0.00    +0.000 C 
ATOM     25  O   UNL     1      61.562  62.739  50.933  0.00  0.00    +0.000 OA
ATOM     26  N   UNL     1      61.122  61.933  49.838  0.00  0.00    +0.000 NA
ATOM     27  C   UNL     1      61.511  61.282  50.161  0.00  0.00    +0.000 C 
ATOM     28  C   UNL     1      61.096  61.205  49.453  0.00  0.00    +0.000 C 
ATOM     29  C   UNL     1      60.707  61.857  49.129  0.00  0.00    +0.000 A 
ATOM     30  C   UNL     1      60.732  62.585  49.516  0.00  0.00    +0.000 A 
ATOM     31  C   UNL     1      60.343  63.237  49.193  0.00  0.00    +0.000 A 
ATOM     32  C   UNL     1      59.928  63.160  48.483  0.00  0.00    +0.000 A 
ATOM     33  O   UNL     1      59.539  63.812  48.160  0.00  0.00    +0.000 OA
ATOM     34  C   UNL     1      59.903  62.431  48.098  0.00  0.00    +0.000 A 
ATOM     35  C   UNL     1      60.292  61.779  48.420  0.00  0.00    +0.000 A 
ATOM     36  C   UNL     1      61.486  60.553  49.776  0.00  0.00    +0.000 C 
ATOM     37  O   UNL     1      61.071  60.476  49.066  0.00  0.00    +0.000 OA
ATOM     38  N   UNL     1      61.875  59.901  50.099  0.00  0.00    +0.000 NA
ATOM     39  C   UNL     1      62.289  59.978  50.807  0.00  0.00    +0.000 C 
ATOM     40  C   UNL     1      62.679  59.326  51.131  0.00  0.00    +0.000 C 
ATOM     41  C   UNL     1      62.653  58.598  50.744  0.00  0.00    +0.000 A 
ATOM     42  C   UNL     1      62.238  58.521  50.035  0.00  0.00    +0.000 A 
ATOM     43  C   UNL     1      62.213  57.792  49.649  0.00  0.00    +0.000 A 
ATOM     44  C   UNL     1      62.602  57.140  49.972  0.00  0.00    +0.000 A 
ATOM     45  C   UNL     1      63.017  57.217  50.681  0.00  0.00    +0.000 A 
ATOM     46  C   UNL     1      63.042  57.946  51.067  0.00  0.00    +0.000 A 
ATOM     47  C   UNL     1      62.315  60.707  51.194  0.00  0.00    +0.000 C 
ATOM     48  O   UNL     1      61.926  61.358  50.871  0.00  0.00    +0.000 OA
ATOM     49  N   UNL     1      62.730  60.784  51.903  0.00  0.00    +0.000 NA
ATOM     50  C   UNL     1      62.755  61.512  52.289  0.00  0.00    +0.000 C 
ATOM     51  C   UNL     1      63.170  61.589  52.998  0.00  0.00    +0.000 C 
ATOM     52  C   UNL     1      63.559  60.937  53.321  0.00  0.00    +0.000 C 
ATOM     53  C   UNL     1      63.973  61.014  54.029  0.00  0.00    +0.000 C 
ATOM     54  N   UNL     1      63.999  61.742  54.416  0.00  0.00    +0.000 NA
ATOM     55  O   UNL     1      64.363  60.362  54.352  0.00  0.00    +0.000 OA
ATOM     56  C   UNL     1      62.366  62.164  51.966  0.00  0.00    +0.000 C 
ATOM     57  O   UNL     1      61.951  62.087  51.256  0.00  0.00    +0.000 OA
ATOM     58  N   UNL     1      62.391  62.892  52.351  0.00  0.00    +0.000 NA
ATOM     59  C   UNL     1      62.002  63.545  52.029  0.00  0.00    +0.000 C 
ATOM     60  C   UNL     1      62.417  63.620  52.738  0.00  0.00    +0.000 C 
ATOM     61  C   UNL     1      62.806  62.970  53.061  0.00  0.00    +0.000 C 
ATOM     62  N   UNL     1      62.781  62.240  52.675  0.00  0.00    +0.000 NA
ATOM     63  O   UNL     1      63.221  63.046  53.770  0.00  0.00    +0.000 OA
ATOM     64  C   UNL     1      62.027  64.272  52.415  0.00  0.00    +0.000 C 
ATOM     65  O   UNL     1      62.442  64.349  53.123  0.00  0.00    +0.000 OA
ATOM     66  N   UNL     1      61.638  64.925  52.092  0.00  0.00    +0.000 NA
ATOM     67  C   UNL     1      61.922  67.710  53.871  0.00  0.00    +0.000 C 
ATOM     68  O   UNL     1      62.284  67.951  54.572  0.00  0.00    +0.000 OA
ATOM     69  N   UNL     1      61.994  66.929  53.617  0.00  0.00    +0.000 NA
ATOM     70  C   UNL     1      62.428  66.387  54.065  0.00  0.00    +0.000 C 
ATOM     71  C   UNL     1      62.499  65.606  53.811  0.00  0.00    +0.000 C 
ATOM     72  N   UNL     1      62.137  65.365  53.110  0.00  0.00    +0.000 NA
ATOM     73  O   UNL     1      62.932  65.065  54.258  0.00  0.00    +0.000 OA
ENDROOT
TORSDOF 0
ENDMDL
MODEL 6
REMARK VINA RESULT:   -17.115      2.776      7.902
REMARK INTER + INTRA:         -17.115
REMARK INTER:                 -17.115
REMARK INTRA:                   0.000
REMARK UNBOUND:                 0.000
ROOT
REMARK  Name = lypressin
REMARK                            x       y       z     vdW  Elec       q    Type
REMARK                         _______ _______ _______ _____ _____    ______ ____
ATOM      1  N   UNL     1      62.747  70.190  54.470  0.00  0.00    +0.000 NA
ATOM      2  C   UNL     1      62.443  69.510  54.117  0.00  0.00    +0.000 C 
ATOM      3  C   UNL     1      62.751  68.770  54.315  0.00  0.00    +0.000 C 
ATOM      4  C   UNL     1      62.446  68.089  53.962  0.00  0.00    +0.000 C 
ATOM      5  C   UNL     1      62.753  67.350  54.158  0.00  0.00    +0.000 C 
ATOM      6  C   UNL     1      62.449  66.669  53.805  0.00  0.00    +0.000 C 
ATOM      7  N   UNL     1      62.757  65.929  54.002  0.00  0.00    +0.000 NA
ATOM      8  C   UNL     1      62.453  65.249  53.649  0.00  0.00    +0.000 C 
ATOM      9  O   UNL     1      61.840  65.308  53.099  0.00  0.00    +0.000 OA
ATOM     10  C   UNL     1      62.760  64.509  53.846  0.00  0.00    +0.000 C 
ATOM     11  C   UNL     1      63.369  64.364  54.383  0.00  0.00    +0.000 C 
ATOM     12  C   UNL     1      63.498  63.550  54.410  0.00  0.00    +0.000 C 
ATOM     13  C   UNL     1      62.968  63.191  53.888  0.00  0.00    +0.000 C 
ATOM     14  N   UNL     1      62.512  63.784  53.540  0.00  0.00    +0.000 N 
ATOM     15  C   UNL     1      61.914  63.672  52.983  0.00  0.00    +0.000 C 
ATOM     16  O   UNL     1      61.503  64.319  52.682  0.00  0.00    +0.000 OA
ATOM     17  C   UNL     1      61.727  62.910  52.727  0.00  0.00    +0.000 C 
ATOM     18  C   UNL     1      62.325  63.022  53.284  0.00  0.00    +0.000 C 
ATOM     19  S   UNL     1      62.736  62.374  53.585  0.00  0.00    +0.000 S 
ATOM     20  S   UNL     1      62.549  61.612  53.329  0.00  0.00    +0.000 S 
ATOM     21  C   UNL     1      61.951  61.499  52.772  0.00  0.00    +0.000 C 
ATOM     22  C   UNL     1      61.763  60.738  52.516  0.00  0.00    +0.000 C 
ATOM     23  N   UNL     1      62.362  60.509  53.036  0.00  0.00    +0.000 NA
ATOM     24  C   UNL     1      61.164  60.625  51.960  0.00  0.00    +0.000 C 
ATOM     25  O   UNL     1      60.754  61.274  51.659  0.00  0.00    +0.000 OA
ATOM     26  N   UNL     1      60.977  59.863  51.704  0.00  0.00    +0.000 NA
ATOM     27  C   UNL     1      60.379  59.750  51.148  0.00  0.00    +0.000 C 
ATOM     28  C   UNL     1      60.790  59.102  51.448  0.00  0.00    +0.000 C 
ATOM     29  C   UNL     1      61.389  59.214  52.005  0.00  0.00    +0.000 A 
ATOM     30  C   UNL     1      61.576  59.976  52.261  0.00  0.00    +0.000 A 
ATOM     31  C   UNL     1      62.174  60.088  52.818  0.00  0.00    +0.000 A 
ATOM     32  C   UNL     1      62.585  59.439  53.119  0.00  0.00    +0.000 A 
ATOM     33  O   UNL     1      63.183  59.552  53.675  0.00  0.00    +0.000 OA
ATOM     34  C   UNL     1      62.397  58.678  52.863  0.00  0.00    +0.000 A 
ATOM     35  C   UNL     1      61.799  58.565  52.306  0.00  0.00    +0.000 A 
ATOM     36  C   UNL     1      60.191  58.989  50.892  0.00  0.00    +0.000 C 
ATOM     37  O   UNL     1      60.603  58.340  51.193  0.00  0.00    +0.000 OA
ATOM     38  N   UNL     1      59.593  58.876  50.335  0.00  0.00    +0.000 NA
ATOM     39  C   UNL     1      59.183  59.525  50.034  0.00  0.00    +0.000 C 
ATOM     40  C   UNL     1      58.584  59.413  49.477  0.00  0.00    +0.000 C 
ATOM     41  C   UNL     1      58.397  58.651  49.222  0.00  0.00    +0.000 A 
ATOM     42  C   UNL     1      58.808  58.002  49.523  0.00  0.00    +0.000 A 
ATOM     43  C   UNL     1      58.620  57.240  49.267  0.00  0.00    +0.000 A 
ATOM     44  C   UNL     1      58.022  57.128  48.710  0.00  0.00    +0.000 A 
ATOM     45  C   UNL     1      57.611  57.776  48.410  0.00  0.00    +0.000 A 
ATOM     46  C   UNL     1      57.798  58.538  48.665  0.00  0.00    +0.000 A 
ATOM     47  C   UNL     1      59.370  60.287  50.290  0.00  0.00    +0.000 C 
ATOM     48  O   UNL     1      59.968  60.400  50.847  0.00  0.00    +0.000 OA
ATOM     49  N   UNL     1      58.959  60.936  49.989  0.00  0.00    +0.000 NA
ATOM     50  C   UNL     1      59.146  61.697  50.245  0.00  0.00    +0.000 C 
ATOM     51  C   UNL     1      58.735  62.347  49.944  0.00  0.00    +0.000 C 
ATOM     52  C   UNL     1      58.136  62.233  49.387  0.00  0.00    +0.000 C 
ATOM     53  C   UNL     1      57.726  62.882  49.086  0.00  0.00    +0.000 C 
ATOM     54  N   UNL     1      57.913  63.644  49.341  0.00  0.00    +0.000 NA
ATOM     55  O   UNL     1      57.128  62.769  48.529  0.00  0.00    +0.000 OA
ATOM     56  C   UNL     1      59.745  61.810  50.801  0.00  0.00    +0.000 C 
ATOM     57  O   UNL     1      60.156  61.161  51.103  0.00  0.00    +0.000 OA
ATOM     58  N   UNL     1      59.932  62.571  51.057  0.00  0.00    +0.000 NA
ATOM     59  C   UNL     1      60.531  62.684  51.614  0.00  0.00    +0.000 C 
ATOM     60  C   UNL     1      60.119  63.333  51.313  0.00  0.00    +0.000 C 
ATOM     61  C   UNL     1      59.521  63.221  50.756  0.00  0.00    +0.000 C 
ATOM     62  N   UNL     1      59.333  62.459  50.500  0.00  0.00    +0.000 NA
ATOM     63  O   UNL     1      59.110  63.869  50.455  0.00  0.00    +0.000 OA
ATOM     64  C   UNL     1      60.717  63.445  51.869  0.00  0.00    +0.000 C 
ATOM     65  O   UNL     1      60.307  64.094  51.569  0.00  0.00    +0.000 OA
ATOM     66  N   UNL     1      61.316  63.559  52.426  0.00  0.00    +0.000 NA
ATOM     67  C   UNL     1      61.837  66.728  53.255  0.00  0.00    +0.000 C 
ATOM     68  O   UNL     1      61.529  67.468  53.058  0.00  0.00    +0.000 OA
ATOM     69  N   UNL     1      61.533  66.048  52.902  0.00  0.00    +0.000 NA
ATOM     70  C   UNL     1      60.920  66.107  52.352  0.00  0.00    +0.000 C 
ATOM     71  C   UNL     1      60.616  65.426  51.999  0.00  0.00    +0.000 C 
ATOM     72  N   UNL     1      60.924  64.686  52.196  0.00  0.00    +0.000 NA
ATOM     73  O   UNL     1      60.004  65.485  51.449  0.00  0.00    +0.000 OA
ENDROOT
TORSDOF 0
ENDMDL
MODEL 7
REMARK VINA RESULT:   -16.582      1.582      6.745
REMARK INTER + INTRA:         -16.582
REMARK INTER:                 -16.582
REMARK INTRA:                   0.000
REMARK UNBOUND:                 0.000
ROOT
REMARK  Name = lypressin
REMARK                            x       y       z     vdW  Elec       q    Type
REMARK                         _______ _______ _______ _____ _____    ______ ____
ATOM      1  N   UNL     1      57.944  74.097  48.701  0.00  0.00    +0.000 NA
ATOM      2  C   UNL     1      58.250  73.344  48.847  0.00  0.00    +0.000 C 
ATOM      3  C   UNL     1      58.480  73.134  49.611  0.00  0.00    +0.000 C 
ATOM      4  C   UNL     1      58.786  72.382  49.757  0.00  0.00    +0.000 C 
ATOM      5  C   UNL     1      59.016  72.171  50.520  0.00  0.00    +0.000 C 
ATOM      6  C   UNL     1      59.322  71.418  50.666  0.00  0.00    +0.000 C 
ATOM      7  N   UNL     1      59.552  71.208  51.430  0.00  0.00    +0.000 NA
ATOM      8  C   UNL     1      59.858  70.456  51.576  0.00  0.00    +0.000 C 
ATOM      9  O   UNL     1      59.935  69.914  50.958  0.00  0.00    +0.000 OA
ATOM     10  C   UNL     1      60.088  70.245  52.339  0.00  0.00    +0.000 C 
ATOM     11  C   UNL     1      60.044  70.725  53.009  0.00  0.00    +0.000 C 
ATOM     12  C   UNL     1      60.330  70.294  53.651  0.00  0.00    +0.000 C 
ATOM     13  C   UNL     1      60.552  69.547  53.378  0.00  0.00    +0.000 C 
ATOM     14  N   UNL     1      60.401  69.517  52.567  0.00  0.00    +0.000 N 
ATOM     15  C   UNL     1      60.540  68.872  52.072  0.00  0.00    +0.000 C 
ATOM     16  O   UNL     1      60.362  68.922  51.269  0.00  0.00    +0.000 OA
ATOM     17  C   UNL     1      60.858  68.176  52.381  0.00  0.00    +0.000 C 
ATOM     18  C   UNL     1      60.719  68.821  52.876  0.00  0.00    +0.000 C 
ATOM     19  S   UNL     1      60.898  68.770  53.680  0.00  0.00    +0.000 S 
ATOM     20  S   UNL     1      61.216  68.074  53.989  0.00  0.00    +0.000 S 
ATOM     21  C   UNL     1      61.355  67.429  53.493  0.00  0.00    +0.000 C 
ATOM     22  C   UNL     1      61.673  66.733  53.801  0.00  0.00    +0.000 C 
ATOM     23  N   UNL     1      61.662  67.147  54.515  0.00  0.00    +0.000 NA
ATOM     24  C   UNL     1      61.812  66.088  53.306  0.00  0.00    +0.000 C 
ATOM     25  O   UNL     1      61.633  66.139  52.503  0.00  0.00    +0.000 OA
ATOM     26  N   UNL     1      62.130  65.392  53.615  0.00  0.00    +0.000 NA
ATOM     27  C   UNL     1      62.269  64.747  53.120  0.00  0.00    +0.000 C 
ATOM     28  C   UNL     1      62.448  64.696  53.923  0.00  0.00    +0.000 C 
ATOM     29  C   UNL     1      62.309  65.341  54.419  0.00  0.00    +0.000 A 
ATOM     30  C   UNL     1      61.991  66.037  54.110  0.00  0.00    +0.000 A 
ATOM     31  C   UNL     1      61.852  66.682  54.605  0.00  0.00    +0.000 A 
ATOM     32  C   UNL     1      62.030  66.631  55.410  0.00  0.00    +0.000 A 
ATOM     33  O   UNL     1      61.891  67.276  55.905  0.00  0.00    +0.000 OA
ATOM     34  C   UNL     1      62.348  65.935  55.718  0.00  0.00    +0.000 A 
ATOM     35  C   UNL     1      62.487  65.290  55.222  0.00  0.00    +0.000 A 
ATOM     36  C   UNL     1      62.587  64.051  53.428  0.00  0.00    +0.000 C 
ATOM     37  O   UNL     1      62.766  64.000  54.232  0.00  0.00    +0.000 OA
ATOM     38  N   UNL     1      62.726  63.406  52.933  0.00  0.00    +0.000 NA
ATOM     39  C   UNL     1      62.548  63.458  52.129  0.00  0.00    +0.000 C 
ATOM     40  C   UNL     1      62.687  62.812  51.633  0.00  0.00    +0.000 C 
ATOM     41  C   UNL     1      63.005  62.117  51.942  0.00  0.00    +0.000 A 
ATOM     42  C   UNL     1      63.183  62.065  52.746  0.00  0.00    +0.000 A 
ATOM     43  C   UNL     1      63.501  61.369  53.054  0.00  0.00    +0.000 A 
ATOM     44  C   UNL     1      63.641  60.724  52.559  0.00  0.00    +0.000 A 
ATOM     45  C   UNL     1      63.462  60.776  51.756  0.00  0.00    +0.000 A 
ATOM     46  C   UNL     1      63.144  61.472  51.447  0.00  0.00    +0.000 A 
ATOM     47  C   UNL     1      62.230  64.153  51.820  0.00  0.00    +0.000 C 
ATOM     48  O   UNL     1      62.090  64.798  52.316  0.00  0.00    +0.000 OA
ATOM     49  N   UNL     1      62.051  64.204  51.016  0.00  0.00    +0.000 NA
ATOM     50  C   UNL     1      61.733  64.901  50.708  0.00  0.00    +0.000 C 
ATOM     51  C   UNL     1      61.554  64.952  49.904  0.00  0.00    +0.000 C 
ATOM     52  C   UNL     1      61.694  64.306  49.409  0.00  0.00    +0.000 C 
ATOM     53  C   UNL     1      61.515  64.357  48.606  0.00  0.00    +0.000 C 
ATOM     54  N   UNL     1      61.197  65.053  48.297  0.00  0.00    +0.000 NA
ATOM     55  O   UNL     1      61.655  63.712  48.111  0.00  0.00    +0.000 OA
ATOM     56  C   UNL     1      61.594  65.545  51.203  0.00  0.00    +0.000 C 
ATOM     57  O   UNL     1      61.773  65.494  52.008  0.00  0.00    +0.000 OA
ATOM     58  N   UNL     1      61.276  66.241  50.896  0.00  0.00    +0.000 NA
ATOM     59  C   UNL     1      61.137  66.886  51.391  0.00  0.00    +0.000 C 
ATOM     60  C   UNL     1      60.958  66.937  50.587  0.00  0.00    +0.000 C 
ATOM     61  C   UNL     1      61.097  66.293  50.091  0.00  0.00    +0.000 C 
ATOM     62  N   UNL     1      61.416  65.596  50.399  0.00  0.00    +0.000 NA
ATOM     63  O   UNL     1      60.919  66.343  49.287  0.00  0.00    +0.000 OA
ATOM     64  C   UNL     1      60.819  67.581  51.082  0.00  0.00    +0.000 C 
ATOM     65  O   UNL     1      60.641  67.633  50.279  0.00  0.00    +0.000 OA
ATOM     66  N   UNL     1      60.680  68.227  51.577  0.00  0.00    +0.000 NA
ATOM     67  C   UNL     1      59.399  70.878  50.048  0.00  0.00    +0.000 C 
ATOM     68  O   UNL     1      59.169  71.088  49.284  0.00  0.00    +0.000 OA
ATOM     69  N   UNL     1      59.705  70.126  50.194  0.00  0.00    +0.000 NA
ATOM     70  C   UNL     1      59.782  69.584  49.576  0.00  0.00    +0.000 C 
ATOM     71  C   UNL     1      60.088  68.832  49.721  0.00  0.00    +0.000 C 
ATOM     72  N   UNL     1      60.317  68.622  50.486  0.00  0.00    +0.000 NA
ATOM     73  O   UNL     1      60.164  68.292  49.104  0.00  0.00    +0.000 OA
ENDROOT
TORSDOF 0
ENDMDL
MODEL 8
REMARK VINA RESULT:   -16.515      1.471      3.761
REMARK INTER + INTRA:         -16.515
REMARK INTER:                 -16.515
REMARK INTRA:                   0.000
REMARK UNBOUND:                 0.000
ROOT
REMARK  Name = lypressin
REMARK                            x       y       z     vdW  Elec       q    Type
REMARK                         _______ _______ _______ _____ _____    ______ ____
ATOM      1  N   UNL     1      64.576  59.992  53.479  0.00  0.00    +0.000 NA
ATOM      2  C   UNL     1      64.261  60.755  53.486  0.00  0.00    +0.000 C 
ATOM      3  C   UNL     1      63.807  61.019  52.851  0.00  0.00    +0.000 C 
ATOM      4  C   UNL     1      63.492  61.782  52.858  0.00  0.00    +0.000 C 
ATOM      5  C   UNL     1      63.037  62.047  52.223  0.00  0.00    +0.000 C 
ATOM      6  C   UNL     1      62.722  62.810  52.231  0.00  0.00    +0.000 C 
ATOM      7  N   UNL     1      62.267  63.074  51.595  0.00  0.00    +0.000 NA
ATOM      8  C   UNL     1      61.952  63.836  51.603  0.00  0.00    +0.000 C 
ATOM      9  O   UNL     1      62.092  64.334  52.246  0.00  0.00    +0.000 OA
ATOM     10  C   UNL     1      61.497  64.102  50.968  0.00  0.00    +0.000 C 
ATOM     11  C   UNL     1      61.312  63.668  50.290  0.00  0.00    +0.000 C 
ATOM     12  C   UNL     1      60.848  64.145  49.802  0.00  0.00    +0.000 C 
ATOM     13  C   UNL     1      60.747  64.873  50.178  0.00  0.00    +0.000 C 
ATOM     14  N   UNL     1      61.148  64.845  50.899  0.00  0.00    +0.000 N 
ATOM     15  C   UNL     1      61.192  65.455  51.452  0.00  0.00    +0.000 C 
ATOM     16  O   UNL     1      61.616  65.348  52.151  0.00  0.00    +0.000 OA
ATOM     17  C   UNL     1      60.813  66.173  51.306  0.00  0.00    +0.000 C 
ATOM     18  C   UNL     1      60.768  65.563  50.753  0.00  0.00    +0.000 C 
ATOM     19  S   UNL     1      60.345  65.671  50.054  0.00  0.00    +0.000 S 
ATOM     20  S   UNL     1      59.965  66.389  49.907  0.00  0.00    +0.000 S 
ATOM     21  C   UNL     1      60.009  66.999  50.461  0.00  0.00    +0.000 C 
ATOM     22  C   UNL     1      59.630  67.717  50.315  0.00  0.00    +0.000 C 
ATOM     23  N   UNL     1      59.401  67.353  49.611  0.00  0.00    +0.000 NA
ATOM     24  C   UNL     1      59.674  68.327  50.869  0.00  0.00    +0.000 C 
ATOM     25  O   UNL     1      60.098  68.219  51.568  0.00  0.00    +0.000 OA
ATOM     26  N   UNL     1      59.295  69.045  50.723  0.00  0.00    +0.000 NA
ATOM     27  C   UNL     1      59.339  69.655  51.276  0.00  0.00    +0.000 C 
ATOM     28  C   UNL     1      58.915  69.763  50.577  0.00  0.00    +0.000 C 
ATOM     29  C   UNL     1      58.871  69.153  50.023  0.00  0.00    +0.000 A 
ATOM     30  C   UNL     1      59.250  68.435  50.169  0.00  0.00    +0.000 A 
ATOM     31  C   UNL     1      59.206  67.825  49.615  0.00  0.00    +0.000 A 
ATOM     32  C   UNL     1      58.782  67.933  48.916  0.00  0.00    +0.000 A 
ATOM     33  O   UNL     1      58.738  67.323  48.362  0.00  0.00    +0.000 OA
ATOM     34  C   UNL     1      58.403  68.651  48.770  0.00  0.00    +0.000 A 
ATOM     35  C   UNL     1      58.447  69.261  49.324  0.00  0.00    +0.000 A 
ATOM     36  C   UNL     1      58.960  70.373  51.131  0.00  0.00    +0.000 C 
ATOM     37  O   UNL     1      58.536  70.481  50.431  0.00  0.00    +0.000 OA
ATOM     38  N   UNL     1      59.004  70.983  51.684  0.00  0.00    +0.000 NA
ATOM     39  C   UNL     1      59.427  70.875  52.383  0.00  0.00    +0.000 C 
ATOM     40  C   UNL     1      59.472  71.485  52.938  0.00  0.00    +0.000 C 
ATOM     41  C   UNL     1      59.092  72.203  52.791  0.00  0.00    +0.000 A 
ATOM     42  C   UNL     1      58.668  72.310  52.091  0.00  0.00    +0.000 A 
ATOM     43  C   UNL     1      58.289  73.028  51.946  0.00  0.00    +0.000 A 
ATOM     44  C   UNL     1      58.333  73.638  52.500  0.00  0.00    +0.000 A 
ATOM     45  C   UNL     1      58.757  73.530  53.199  0.00  0.00    +0.000 A 
ATOM     46  C   UNL     1      59.137  72.813  53.345  0.00  0.00    +0.000 A 
ATOM     47  C   UNL     1      59.807  70.157  52.530  0.00  0.00    +0.000 C 
ATOM     48  O   UNL     1      59.763  69.547  51.976  0.00  0.00    +0.000 OA
ATOM     49  N   UNL     1      60.231  70.049  53.229  0.00  0.00    +0.000 NA
ATOM     50  C   UNL     1      60.611  69.331  53.375  0.00  0.00    +0.000 C 
ATOM     51  C   UNL     1      61.035  69.223  54.075  0.00  0.00    +0.000 C 
ATOM     52  C   UNL     1      61.078  69.834  54.628  0.00  0.00    +0.000 C 
ATOM     53  C   UNL     1      61.502  69.726  55.327  0.00  0.00    +0.000 C 
ATOM     54  N   UNL     1      61.882  69.009  55.474  0.00  0.00    +0.000 NA
ATOM     55  O   UNL     1      61.546  70.336  55.881  0.00  0.00    +0.000 OA
ATOM     56  C   UNL     1      60.566  68.721  52.821  0.00  0.00    +0.000 C 
ATOM     57  O   UNL     1      60.142  68.829  52.121  0.00  0.00    +0.000 OA
ATOM     58  N   UNL     1      60.945  68.004  52.967  0.00  0.00    +0.000 NA
ATOM     59  C   UNL     1      60.901  67.393  52.413  0.00  0.00    +0.000 C 
ATOM     60  C   UNL     1      61.325  67.286  53.113  0.00  0.00    +0.000 C 
ATOM     61  C   UNL     1      61.370  67.895  53.667  0.00  0.00    +0.000 C 
ATOM     62  N   UNL     1      60.990  68.614  53.521  0.00  0.00    +0.000 NA
ATOM     63  O   UNL     1      61.793  67.789  54.367  0.00  0.00    +0.000 OA
ATOM     64  C   UNL     1      61.281  66.676  52.560  0.00  0.00    +0.000 C 
ATOM     65  O   UNL     1      61.704  66.568  53.259  0.00  0.00    +0.000 OA
ATOM     66  N   UNL     1      61.237  66.065  52.006  0.00  0.00    +0.000 NA
ATOM     67  C   UNL     1      62.861  63.307  52.874  0.00  0.00    +0.000 C 
ATOM     68  O   UNL     1      63.316  63.042  53.509  0.00  0.00    +0.000 OA
ATOM     69  N   UNL     1      62.546  64.069  52.881  0.00  0.00    +0.000 NA
ATOM     70  C   UNL     1      62.686  64.567  53.525  0.00  0.00    +0.000 C 
ATOM     71  C   UNL     1      62.371  65.330  53.533  0.00  0.00    +0.000 C 
ATOM     72  N   UNL     1      61.916  65.594  52.897  0.00  0.00    +0.000 NA
ATOM     73  O   UNL     1      62.511  65.827  54.175  0.00  0.00    +0.000 OA
ENDROOT
TORSDOF 0
ENDMDL
MODEL 9
REMARK VINA RESULT:   -16.218      1.711      7.651
REMARK INTER + INTRA:         -16.218
REMARK INTER:                 -16.218
REMARK INTRA:                   0.000
REMARK UNBOUND:                 0.000
ROOT
REMARK  Name = lypressin
REMARK                            x       y       z     vdW  Elec       q    Type
REMARK                         _______ _______ _______ _____ _____    ______ ____
ATOM      1  N   UNL     1      57.895  75.353  52.220  0.00  0.00    +0.000 NA
ATOM      2  C   UNL     1      58.220  74.606  52.351  0.00  0.00    +0.000 C 
ATOM      3  C   UNL     1      58.250  74.056  51.736  0.00  0.00    +0.000 C 
ATOM      4  C   UNL     1      58.575  73.309  51.867  0.00  0.00    +0.000 C 
ATOM      5  C   UNL     1      58.605  72.758  51.254  0.00  0.00    +0.000 C 
ATOM      6  C   UNL     1      58.930  72.012  51.385  0.00  0.00    +0.000 C 
ATOM      7  N   UNL     1      58.959  71.462  50.770  0.00  0.00    +0.000 NA
ATOM      8  C   UNL     1      59.284  70.715  50.901  0.00  0.00    +0.000 C 
ATOM      9  O   UNL     1      59.580  70.518  51.646  0.00  0.00    +0.000 OA
ATOM     10  C   UNL     1      59.314  70.164  50.288  0.00  0.00    +0.000 C 
ATOM     11  C   UNL     1      59.042  70.281  49.517  0.00  0.00    +0.000 C 
ATOM     12  C   UNL     1      59.180  69.590  49.090  0.00  0.00    +0.000 C 
ATOM     13  C   UNL     1      59.539  69.045  49.596  0.00  0.00    +0.000 C 
ATOM     14  N   UNL     1      59.621  69.400  50.336  0.00  0.00    +0.000 N 
ATOM     15  C   UNL     1      59.953  69.052  51.007  0.00  0.00    +0.000 C 
ATOM     16  O   UNL     1      59.998  69.476  51.712  0.00  0.00    +0.000 OA
ATOM     17  C   UNL     1      60.239  68.279  50.971  0.00  0.00    +0.000 C 
ATOM     18  C   UNL     1      59.907  68.627  50.301  0.00  0.00    +0.000 C 
ATOM     19  S   UNL     1      59.862  68.202  49.596  0.00  0.00    +0.000 S 
ATOM     20  S   UNL     1      60.148  67.429  49.560  0.00  0.00    +0.000 S 
ATOM     21  C   UNL     1      60.479  67.081  50.231  0.00  0.00    +0.000 C 
ATOM     22  C   UNL     1      60.765  66.308  50.196  0.00  0.00    +0.000 C 
ATOM     23  N   UNL     1      60.519  66.345  49.409  0.00  0.00    +0.000 NA
ATOM     24  C   UNL     1      61.097  65.960  50.867  0.00  0.00    +0.000 C 
ATOM     25  O   UNL     1      61.142  66.385  51.572  0.00  0.00    +0.000 OA
ATOM     26  N   UNL     1      61.383  65.187  50.831  0.00  0.00    +0.000 NA
ATOM     27  C   UNL     1      61.714  64.839  51.502  0.00  0.00    +0.000 C 
ATOM     28  C   UNL     1      61.669  64.414  50.797  0.00  0.00    +0.000 C 
ATOM     29  C   UNL     1      61.337  64.762  50.125  0.00  0.00    +0.000 A 
ATOM     30  C   UNL     1      61.051  65.535  50.161  0.00  0.00    +0.000 A 
ATOM     31  C   UNL     1      60.720  65.883  49.490  0.00  0.00    +0.000 A 
ATOM     32  C   UNL     1      60.674  65.458  48.784  0.00  0.00    +0.000 A 
ATOM     33  O   UNL     1      60.343  65.806  48.114  0.00  0.00    +0.000 OA
ATOM     34  C   UNL     1      60.961  64.685  48.750  0.00  0.00    +0.000 A 
ATOM     35  C   UNL     1      61.292  64.337  49.420  0.00  0.00    +0.000 A 
ATOM     36  C   UNL     1      62.000  64.066  51.467  0.00  0.00    +0.000 C 
ATOM     37  O   UNL     1      61.955  63.641  50.761  0.00  0.00    +0.000 OA
ATOM     38  N   UNL     1      62.332  63.718  52.138  0.00  0.00    +0.000 NA
ATOM     39  C   UNL     1      62.377  64.143  52.843  0.00  0.00    +0.000 C 
ATOM     40  C   UNL     1      62.709  63.795  53.514  0.00  0.00    +0.000 C 
ATOM     41  C   UNL     1      62.995  63.022  53.479  0.00  0.00    +0.000 A 
ATOM     42  C   UNL     1      62.949  62.597  52.773  0.00  0.00    +0.000 A 
ATOM     43  C   UNL     1      63.235  61.824  52.738  0.00  0.00    +0.000 A 
ATOM     44  C   UNL     1      63.567  61.476  53.409  0.00  0.00    +0.000 A 
ATOM     45  C   UNL     1      63.612  61.901  54.114  0.00  0.00    +0.000 A 
ATOM     46  C   UNL     1      63.326  62.674  54.149  0.00  0.00    +0.000 A 
ATOM     47  C   UNL     1      62.091  64.916  52.878  0.00  0.00    +0.000 C 
ATOM     48  O   UNL     1      61.760  65.264  52.208  0.00  0.00    +0.000 OA
ATOM     49  N   UNL     1      62.137  65.342  53.584  0.00  0.00    +0.000 NA
ATOM     50  C   UNL     1      61.851  66.115  53.618  0.00  0.00    +0.000 C 
ATOM     51  C   UNL     1      61.896  66.540  54.324  0.00  0.00    +0.000 C 
ATOM     52  C   UNL     1      62.228  66.191  54.995  0.00  0.00    +0.000 C 
ATOM     53  C   UNL     1      62.273  66.616  55.700  0.00  0.00    +0.000 C 
ATOM     54  N   UNL     1      61.987  67.389  55.736  0.00  0.00    +0.000 NA
ATOM     55  O   UNL     1      62.605  66.268  56.371  0.00  0.00    +0.000 OA
ATOM     56  C   UNL     1      61.519  66.462  52.948  0.00  0.00    +0.000 C 
ATOM     57  O   UNL     1      61.474  66.037  52.242  0.00  0.00    +0.000 OA
ATOM     58  N   UNL     1      61.233  67.235  52.983  0.00  0.00    +0.000 NA
ATOM     59  C   UNL     1      60.902  67.583  52.312  0.00  0.00    +0.000 C 
ATOM     60  C   UNL     1      60.948  68.008  53.018  0.00  0.00    +0.000 C 
ATOM     61  C   UNL     1      61.279  67.661  53.688  0.00  0.00    +0.000 C 
ATOM     62  N   UNL     1      61.565  66.887  53.654  0.00  0.00    +0.000 NA
ATOM     63  O   UNL     1      61.325  68.085  54.395  0.00  0.00    +0.000 OA
ATOM     64  C   UNL     1      60.616  68.356  52.348  0.00  0.00    +0.000 C 
ATOM     65  O   UNL     1      60.661  68.781  53.053  0.00  0.00    +0.000 OA
ATOM     66  N   UNL     1      60.284  68.704  51.677  0.00  0.00    +0.000 NA
ATOM     67  C   UNL     1      59.225  71.815  52.129  0.00  0.00    +0.000 C 
ATOM     68  O   UNL     1      59.196  72.365  52.743  0.00  0.00    +0.000 OA
ATOM     69  N   UNL     1      59.550  71.069  52.260  0.00  0.00    +0.000 NA
ATOM     70  C   UNL     1      59.846  70.872  53.005  0.00  0.00    +0.000 C 
ATOM     71  C   UNL     1      60.171  70.125  53.136  0.00  0.00    +0.000 C 
ATOM     72  N   UNL     1      60.200  69.575  52.522  0.00  0.00    +0.000 NA
ATOM     73  O   UNL     1      60.466  69.929  53.880  0.00  0.00    +0.000 OA
ENDROOT
TORSDOF 0
ENDMDL
