MODEL 1
REMARK VINA RESULT:   -11.845      0.000      0.000
REMARK INTER + INTRA:         -11.845
REMARK INTER:                 -11.845
REMARK INTRA:                   0.000
REMARK UNBOUND:                 0.000
ROOT
REMARK  Name = lysergide
REMARK                            x       y       z     vdW  Elec       q    Type
REMARK                         _______ _______ _______ _____ _____    ______ ____
ATOM      1  C   UNL     1      62.422  64.371  69.096  0.00  0.00    +0.000 C 
ATOM      2  C   UNL     1      61.647  64.101  69.009  0.00  0.00    +0.000 C 
ATOM      3  N   UNL     1      61.435  63.666  68.341  0.00  0.00    +0.000 N 
ATOM      4  C   UNL     1      61.998  63.502  67.760  0.00  0.00    +0.000 C 
ATOM      5  C   UNL     1      61.786  63.067  67.092  0.00  0.00    +0.000 C 
ATOM      6  C   UNL     1      60.662  63.395  68.253  0.00  0.00    +0.000 C 
ATOM      7  O   UNL     1      60.099  63.559  68.833  0.00  0.00    +0.000 OA
ATOM      8  C   UNL     1      60.450  62.960  67.584  0.00  0.00    +0.000 C 
ATOM      9  C   UNL     1      59.675  62.689  67.496  0.00  0.00    +0.000 C 
ATOM     10  N   UNL     1      59.464  62.255  66.828  0.00  0.00    +0.000 NA
ATOM     11  C   UNL     1      58.689  61.984  66.741  0.00  0.00    +0.000 C 
ATOM     12  C   UNL     1      60.026  62.090  66.247  0.00  0.00    +0.000 C 
ATOM     13  C   UNL     1      59.815  61.656  65.579  0.00  0.00    +0.000 C 
ATOM     14  C   UNL     1      60.377  61.491  64.998  0.00  0.00    +0.000 C 
ATOM     15  C   UNL     1      60.331  61.079  64.286  0.00  0.00    +0.000 C 
ATOM     16  N   UNL     1      61.076  61.095  63.933  0.00  0.00    +0.000 NA
ATOM     17  C   UNL     1      61.584  61.517  64.428  0.00  0.00    +0.000 C 
ATOM     18  C   UNL     1      62.383  61.710  64.363  0.00  0.00    +0.000 C 
ATOM     19  C   UNL     1      62.751  62.148  64.958  0.00  0.00    +0.000 C 
ATOM     20  C   UNL     1      62.319  62.394  65.617  0.00  0.00    +0.000 C 
ATOM     21  C   UNL     1      61.364  62.198  65.755  0.00  0.00    +0.000 C 
ATOM     22  C   UNL     1      61.152  61.762  65.086  0.00  0.00    +0.000 C 
ATOM     23  C   UNL     1      60.801  62.361  66.335  0.00  0.00    +0.000 C 
ATOM     24  C   UNL     1      61.013  62.796  67.004  0.00  0.00    +0.000 C 
ENDROOT
TORSDOF 0
ENDMDL
MODEL 2
REMARK VINA RESULT:   -11.354      2.747      5.449
REMARK INTER + INTRA:         -11.354
REMARK INTER:                 -11.354
REMARK INTRA:                   0.000
REMARK UNBOUND:                 0.000
ROOT
REMARK  Name = lysergide
REMARK                            x       y       z     vdW  Elec       q    Type
REMARK                         _______ _______ _______ _____ _____    ______ ____
ATOM      1  C   UNL     1      60.147  61.982  67.170  0.00  0.00    +0.000 C 
ATOM      2  C   UNL     1      60.024  62.713  67.532  0.00  0.00    +0.000 C 
ATOM      3  N   UNL     1      60.224  62.821  68.325  0.00  0.00    +0.000 N 
ATOM      4  C   UNL     1      60.547  62.196  68.757  0.00  0.00    +0.000 C 
ATOM      5  C   UNL     1      60.746  62.303  69.550  0.00  0.00    +0.000 C 
ATOM      6  C   UNL     1      60.101  63.552  68.685  0.00  0.00    +0.000 C 
ATOM      7  O   UNL     1      59.779  64.176  68.254  0.00  0.00    +0.000 OA
ATOM      8  C   UNL     1      60.301  63.659  69.479  0.00  0.00    +0.000 C 
ATOM      9  C   UNL     1      60.179  64.390  69.840  0.00  0.00    +0.000 C 
ATOM     10  N   UNL     1      60.378  64.497  70.633  0.00  0.00    +0.000 NA
ATOM     11  C   UNL     1      60.256  65.230  70.995  0.00  0.00    +0.000 C 
ATOM     12  C   UNL     1      60.701  63.873  71.066  0.00  0.00    +0.000 C 
ATOM     13  C   UNL     1      60.901  63.980  71.858  0.00  0.00    +0.000 C 
ATOM     14  C   UNL     1      61.224  63.356  72.291  0.00  0.00    +0.000 C 
ATOM     15  C   UNL     1      61.472  63.298  73.075  0.00  0.00    +0.000 C 
ATOM     16  N   UNL     1      61.749  62.531  73.199  0.00  0.00    +0.000 NA
ATOM     17  C   UNL     1      61.671  62.114  72.491  0.00  0.00    +0.000 C 
ATOM     18  C   UNL     1      61.854  61.336  72.285  0.00  0.00    +0.000 C 
ATOM     19  C   UNL     1      61.712  61.069  71.517  0.00  0.00    +0.000 C 
ATOM     20  C   UNL     1      61.387  61.579  70.956  0.00  0.00    +0.000 C 
ATOM     21  C   UNL     1      61.146  62.517  71.136  0.00  0.00    +0.000 C 
ATOM     22  C   UNL     1      61.346  62.624  71.930  0.00  0.00    +0.000 C 
ATOM     23  C   UNL     1      60.824  63.141  70.705  0.00  0.00    +0.000 C 
ATOM     24  C   UNL     1      60.624  63.034  69.911  0.00  0.00    +0.000 C 
ENDROOT
TORSDOF 0
ENDMDL
MODEL 3
REMARK VINA RESULT:   -11.249      3.281      5.317
REMARK INTER + INTRA:         -11.249
REMARK INTER:                 -11.249
REMARK INTRA:                   0.000
REMARK UNBOUND:                 0.000
ROOT
REMARK  Name = lysergide
REMARK                            x       y       z     vdW  Elec       q    Type
REMARK                         _______ _______ _______ _____ _____    ______ ____
ATOM      1  C   UNL     1      59.595  67.574  71.107  0.00  0.00    +0.000 C 
ATOM      2  C   UNL     1      59.545  67.089  70.442  0.00  0.00    +0.000 C 
ATOM      3  N   UNL     1      59.794  66.303  70.485  0.00  0.00    +0.000 N 
ATOM      4  C   UNL     1      60.092  66.003  71.194  0.00  0.00    +0.000 C 
ATOM      5  C   UNL     1      60.341  65.218  71.236  0.00  0.00    +0.000 C 
ATOM      6  C   UNL     1      59.744  65.818  69.820  0.00  0.00    +0.000 C 
ATOM      7  O   UNL     1      59.446  66.118  69.112  0.00  0.00    +0.000 OA
ATOM      8  C   UNL     1      59.993  65.032  69.863  0.00  0.00    +0.000 C 
ATOM      9  C   UNL     1      59.943  64.547  69.198  0.00  0.00    +0.000 C 
ATOM     10  N   UNL     1      60.192  63.762  69.242  0.00  0.00    +0.000 NA
ATOM     11  C   UNL     1      60.142  63.276  68.576  0.00  0.00    +0.000 C 
ATOM     12  C   UNL     1      60.490  63.461  69.950  0.00  0.00    +0.000 C 
ATOM     13  C   UNL     1      60.739  62.676  69.993  0.00  0.00    +0.000 C 
ATOM     14  C   UNL     1      61.037  62.376  70.701  0.00  0.00    +0.000 C 
ATOM     15  C   UNL     1      61.322  61.630  70.908  0.00  0.00    +0.000 C 
ATOM     16  N   UNL     1      61.548  61.654  71.701  0.00  0.00    +0.000 NA
ATOM     17  C   UNL     1      61.402  62.416  71.984  0.00  0.00    +0.000 C 
ATOM     18  C   UNL     1      61.517  62.760  72.725  0.00  0.00    +0.000 C 
ATOM     19  C   UNL     1      61.315  63.551  72.848  0.00  0.00    +0.000 C 
ATOM     20  C   UNL     1      60.999  63.997  72.230  0.00  0.00    +0.000 C 
ATOM     21  C   UNL     1      60.838  63.647  71.323  0.00  0.00    +0.000 C 
ATOM     22  C   UNL     1      61.087  62.861  71.366  0.00  0.00    +0.000 C 
ATOM     23  C   UNL     1      60.540  63.947  70.615  0.00  0.00    +0.000 C 
ATOM     24  C   UNL     1      60.291  64.733  70.572  0.00  0.00    +0.000 C 
ENDROOT
TORSDOF 0
ENDMDL
MODEL 4
REMARK VINA RESULT:   -10.894      5.326      6.842
REMARK INTER + INTRA:         -10.894
REMARK INTER:                 -10.894
REMARK INTRA:                   0.000
REMARK UNBOUND:                 0.000
ROOT
REMARK  Name = lysergide
REMARK                            x       y       z     vdW  Elec       q    Type
REMARK                         _______ _______ _______ _____ _____    ______ ____
ATOM      1  C   UNL     1      60.544  62.790  71.422  0.00  0.00    +0.000 C 
ATOM      2  C   UNL     1      60.558  63.447  71.921  0.00  0.00    +0.000 C 
ATOM      3  N   UNL     1      61.163  64.003  71.856  0.00  0.00    +0.000 N 
ATOM      4  C   UNL     1      61.756  63.902  71.289  0.00  0.00    +0.000 C 
ATOM      5  C   UNL     1      62.361  64.459  71.224  0.00  0.00    +0.000 C 
ATOM      6  C   UNL     1      61.177  64.658  72.355  0.00  0.00    +0.000 C 
ATOM      7  O   UNL     1      60.585  64.759  72.921  0.00  0.00    +0.000 OA
ATOM      8  C   UNL     1      61.783  65.215  72.289  0.00  0.00    +0.000 C 
ATOM      9  C   UNL     1      61.797  65.871  72.788  0.00  0.00    +0.000 C 
ATOM     10  N   UNL     1      62.403  66.427  72.722  0.00  0.00    +0.000 NA
ATOM     11  C   UNL     1      62.416  67.084  73.222  0.00  0.00    +0.000 C 
ATOM     12  C   UNL     1      62.995  66.327  72.156  0.00  0.00    +0.000 C 
ATOM     13  C   UNL     1      63.600  66.883  72.090  0.00  0.00    +0.000 C 
ATOM     14  C   UNL     1      64.193  66.783  71.525  0.00  0.00    +0.000 C 
ATOM     15  C   UNL     1      64.854  67.236  71.332  0.00  0.00    +0.000 C 
ATOM     16  N   UNL     1      65.250  66.860  70.714  0.00  0.00    +0.000 NA
ATOM     17  C   UNL     1      64.832  66.174  70.524  0.00  0.00    +0.000 C 
ATOM     18  C   UNL     1      64.963  65.587  69.959  0.00  0.00    +0.000 C 
ATOM     19  C   UNL     1      64.439  64.952  69.896  0.00  0.00    +0.000 C 
ATOM     20  C   UNL     1      63.786  64.905  70.397  0.00  0.00    +0.000 C 
ATOM     21  C   UNL     1      63.573  65.570  71.091  0.00  0.00    +0.000 C 
ATOM     22  C   UNL     1      64.179  66.127  71.025  0.00  0.00    +0.000 C 
ATOM     23  C   UNL     1      62.981  65.671  71.657  0.00  0.00    +0.000 C 
ATOM     24  C   UNL     1      62.375  65.114  71.723  0.00  0.00    +0.000 C 
ENDROOT
TORSDOF 0
ENDMDL
MODEL 5
REMARK VINA RESULT:   -10.892      3.286      4.872
REMARK INTER + INTRA:         -10.892
REMARK INTER:                 -10.892
REMARK INTRA:                   0.000
REMARK UNBOUND:                 0.000
ROOT
REMARK  Name = lysergide
REMARK                            x       y       z     vdW  Elec       q    Type
REMARK                         _______ _______ _______ _____ _____    ______ ____
ATOM      1  C   UNL     1      59.593  67.275  68.736  0.00  0.00    +0.000 C 
ATOM      2  C   UNL     1      59.591  67.088  69.539  0.00  0.00    +0.000 C 
ATOM      3  N   UNL     1      59.721  66.310  69.782  0.00  0.00    +0.000 N 
ATOM      4  C   UNL     1      59.852  65.720  69.220  0.00  0.00    +0.000 C 
ATOM      5  C   UNL     1      59.982  64.942  69.463  0.00  0.00    +0.000 C 
ATOM      6  C   UNL     1      59.719  66.122  70.584  0.00  0.00    +0.000 C 
ATOM      7  O   UNL     1      59.587  66.712  71.146  0.00  0.00    +0.000 OA
ATOM      8  C   UNL     1      59.849  65.344  70.827  0.00  0.00    +0.000 C 
ATOM      9  C   UNL     1      59.847  65.156  71.630  0.00  0.00    +0.000 C 
ATOM     10  N   UNL     1      59.977  64.379  71.872  0.00  0.00    +0.000 NA
ATOM     11  C   UNL     1      59.975  64.191  72.676  0.00  0.00    +0.000 C 
ATOM     12  C   UNL     1      60.109  63.788  71.311  0.00  0.00    +0.000 C 
ATOM     13  C   UNL     1      60.239  63.011  71.552  0.00  0.00    +0.000 C 
ATOM     14  C   UNL     1      60.370  62.420  70.991  0.00  0.00    +0.000 C 
ATOM     15  C   UNL     1      60.513  61.611  71.065  0.00  0.00    +0.000 C 
ATOM     16  N   UNL     1      60.603  61.299  70.307  0.00  0.00    +0.000 NA
ATOM     17  C   UNL     1      60.516  61.915  69.765  0.00  0.00    +0.000 C 
ATOM     18  C   UNL     1      60.549  61.934  68.940  0.00  0.00    +0.000 C 
ATOM     19  C   UNL     1      60.438  62.647  68.540  0.00  0.00    +0.000 C 
ATOM     20  C   UNL     1      60.294  63.340  68.964  0.00  0.00    +0.000 C 
ATOM     21  C   UNL     1      60.242  63.386  69.946  0.00  0.00    +0.000 C 
ATOM     22  C   UNL     1      60.372  62.608  70.188  0.00  0.00    +0.000 C 
ATOM     23  C   UNL     1      60.110  63.976  70.507  0.00  0.00    +0.000 C 
ATOM     24  C   UNL     1      59.980  64.754  70.265  0.00  0.00    +0.000 C 
ENDROOT
TORSDOF 0
ENDMDL
MODEL 6
REMARK VINA RESULT:   -10.813      3.477      5.445
REMARK INTER + INTRA:         -10.813
REMARK INTER:                 -10.813
REMARK INTRA:                   0.000
REMARK UNBOUND:                 0.000
ROOT
REMARK  Name = lysergide
REMARK                            x       y       z     vdW  Elec       q    Type
REMARK                         _______ _______ _______ _____ _____    ______ ____
ATOM      1  C   UNL     1      64.689  66.757  71.466  0.00  0.00    +0.000 C 
ATOM      2  C   UNL     1      64.440  66.489  70.726  0.00  0.00    +0.000 C 
ATOM      3  N   UNL     1      63.879  65.887  70.672  0.00  0.00    +0.000 N 
ATOM      4  C   UNL     1      63.568  65.551  71.359  0.00  0.00    +0.000 C 
ATOM      5  C   UNL     1      63.007  64.948  71.305  0.00  0.00    +0.000 C 
ATOM      6  C   UNL     1      63.630  65.620  69.933  0.00  0.00    +0.000 C 
ATOM      7  O   UNL     1      63.941  65.955  69.247  0.00  0.00    +0.000 OA
ATOM      8  C   UNL     1      63.069  65.016  69.880  0.00  0.00    +0.000 C 
ATOM      9  C   UNL     1      62.820  64.749  69.140  0.00  0.00    +0.000 C 
ATOM     10  N   UNL     1      62.260  64.147  69.087  0.00  0.00    +0.000 NA
ATOM     11  C   UNL     1      62.010  63.879  68.347  0.00  0.00    +0.000 C 
ATOM     12  C   UNL     1      61.948  63.810  69.773  0.00  0.00    +0.000 C 
ATOM     13  C   UNL     1      61.388  63.208  69.720  0.00  0.00    +0.000 C 
ATOM     14  C   UNL     1      61.076  62.872  70.406  0.00  0.00    +0.000 C 
ATOM     15  C   UNL     1      60.520  62.274  70.525  0.00  0.00    +0.000 C 
ATOM     16  N   UNL     1      60.426  62.172  71.338  0.00  0.00    +0.000 NA
ATOM     17  C   UNL     1      60.924  62.707  71.722  0.00  0.00    +0.000 C 
ATOM     18  C   UNL     1      61.063  62.855  72.521  0.00  0.00    +0.000 C 
ATOM     19  C   UNL     1      61.603  63.437  72.745  0.00  0.00    +0.000 C 
ATOM     20  C   UNL     1      62.005  63.870  72.169  0.00  0.00    +0.000 C 
ATOM     21  C   UNL     1      61.886  63.743  71.199  0.00  0.00    +0.000 C 
ATOM     22  C   UNL     1      61.325  63.139  71.146  0.00  0.00    +0.000 C 
ATOM     23  C   UNL     1      62.197  64.078  70.513  0.00  0.00    +0.000 C 
ATOM     24  C   UNL     1      62.758  64.681  70.566  0.00  0.00    +0.000 C 
ENDROOT
TORSDOF 0
ENDMDL
MODEL 7
REMARK VINA RESULT:   -10.748      4.028      6.441
REMARK INTER + INTRA:         -10.748
REMARK INTER:                 -10.748
REMARK INTRA:                   0.000
REMARK UNBOUND:                 0.000
ROOT
REMARK  Name = lysergide
REMARK                            x       y       z     vdW  Elec       q    Type
REMARK                         _______ _______ _______ _____ _____    ______ ____
ATOM      1  C   UNL     1      60.725  61.611  70.654  0.00  0.00    +0.000 C 
ATOM      2  C   UNL     1      60.668  62.185  70.064  0.00  0.00    +0.000 C 
ATOM      3  N   UNL     1      60.437  62.953  70.256  0.00  0.00    +0.000 N 
ATOM      4  C   UNL     1      60.264  63.148  71.039  0.00  0.00    +0.000 C 
ATOM      5  C   UNL     1      60.033  63.916  71.231  0.00  0.00    +0.000 C 
ATOM      6  C   UNL     1      60.379  63.526  69.666  0.00  0.00    +0.000 C 
ATOM      7  O   UNL     1      60.552  63.332  68.884  0.00  0.00    +0.000 OA
ATOM      8  C   UNL     1      60.148  64.295  69.859  0.00  0.00    +0.000 C 
ATOM      9  C   UNL     1      60.091  64.868  69.269  0.00  0.00    +0.000 C 
ATOM     10  N   UNL     1      59.860  65.636  69.462  0.00  0.00    +0.000 NA
ATOM     11  C   UNL     1      59.802  66.210  68.871  0.00  0.00    +0.000 C 
ATOM     12  C   UNL     1      59.687  65.831  70.244  0.00  0.00    +0.000 C 
ATOM     13  C   UNL     1      59.456  66.599  70.437  0.00  0.00    +0.000 C 
ATOM     14  C   UNL     1      59.283  66.795  71.220  0.00  0.00    +0.000 C 
ATOM     15  C   UNL     1      59.044  67.500  71.573  0.00  0.00    +0.000 C 
ATOM     16  N   UNL     1      58.954  67.363  72.381  0.00  0.00    +0.000 NA
ATOM     17  C   UNL     1      59.137  66.572  72.528  0.00  0.00    +0.000 C 
ATOM     18  C   UNL     1      59.145  66.127  73.222  0.00  0.00    +0.000 C 
ATOM     19  C   UNL     1      59.357  65.330  73.199  0.00  0.00    +0.000 C 
ATOM     20  C   UNL     1      59.561  64.978  72.481  0.00  0.00    +0.000 C 
ATOM     21  C   UNL     1      59.572  65.452  71.617  0.00  0.00    +0.000 C 
ATOM     22  C   UNL     1      59.341  66.221  71.810  0.00  0.00    +0.000 C 
ATOM     23  C   UNL     1      59.745  65.258  70.835  0.00  0.00    +0.000 C 
ATOM     24  C   UNL     1      59.976  64.489  70.642  0.00  0.00    +0.000 C 
ENDROOT
TORSDOF 0
ENDMDL
MODEL 8
REMARK VINA RESULT:   -10.640      5.383      7.181
REMARK INTER + INTRA:         -10.640
REMARK INTER:                 -10.640
REMARK INTRA:                   0.000
REMARK UNBOUND:                 0.000
ROOT
REMARK  Name = lysergide
REMARK                            x       y       z     vdW  Elec       q    Type
REMARK                         _______ _______ _______ _____ _____    ______ ____
ATOM      1  C   UNL     1      60.415  64.715  72.892  0.00  0.00    +0.000 C 
ATOM      2  C   UNL     1      60.885  64.336  72.329  0.00  0.00    +0.000 C 
ATOM      3  N   UNL     1      61.580  64.691  72.065  0.00  0.00    +0.000 N 
ATOM      4  C   UNL     1      61.806  65.427  72.363  0.00  0.00    +0.000 C 
ATOM      5  C   UNL     1      62.502  65.783  72.099  0.00  0.00    +0.000 C 
ATOM      6  C   UNL     1      62.049  64.313  71.503  0.00  0.00    +0.000 C 
ATOM      7  O   UNL     1      61.824  63.578  71.205  0.00  0.00    +0.000 OA
ATOM      8  C   UNL     1      62.746  64.669  71.238  0.00  0.00    +0.000 C 
ATOM      9  C   UNL     1      63.215  64.290  70.676  0.00  0.00    +0.000 C 
ATOM     10  N   UNL     1      63.910  64.646  70.412  0.00  0.00    +0.000 NA
ATOM     11  C   UNL     1      64.380  64.266  69.849  0.00  0.00    +0.000 C 
ATOM     12  C   UNL     1      64.137  65.381  70.710  0.00  0.00    +0.000 C 
ATOM     13  C   UNL     1      64.832  65.737  70.446  0.00  0.00    +0.000 C 
ATOM     14  C   UNL     1      65.059  66.472  70.744  0.00  0.00    +0.000 C 
ATOM     15  C   UNL     1      65.710  66.954  70.589  0.00  0.00    +0.000 C 
ATOM     16  N   UNL     1      65.643  67.631  71.055  0.00  0.00    +0.000 NA
ATOM     17  C   UNL     1      64.950  67.567  71.499  0.00  0.00    +0.000 C 
ATOM     18  C   UNL     1      64.602  68.070  72.053  0.00  0.00    +0.000 C 
ATOM     19  C   UNL     1      63.892  67.855  72.415  0.00  0.00    +0.000 C 
ATOM     20  C   UNL     1      63.531  67.139  72.222  0.00  0.00    +0.000 C 
ATOM     21  C   UNL     1      63.893  66.495  71.571  0.00  0.00    +0.000 C 
ATOM     22  C   UNL     1      64.589  66.852  71.306  0.00  0.00    +0.000 C 
ATOM     23  C   UNL     1      63.668  65.760  71.272  0.00  0.00    +0.000 C 
ATOM     24  C   UNL     1      62.971  65.404  71.537  0.00  0.00    +0.000 C 
ENDROOT
TORSDOF 0
ENDMDL
MODEL 9
REMARK VINA RESULT:   -10.568      5.214      6.866
REMARK INTER + INTRA:         -10.568
REMARK INTER:                 -10.568
REMARK INTRA:                   0.000
REMARK UNBOUND:                 0.000
ROOT
REMARK  Name = lysergide
REMARK                            x       y       z     vdW  Elec       q    Type
REMARK                         _______ _______ _______ _____ _____    ______ ____
ATOM      1  C   UNL     1      65.335  66.843  69.914  0.00  0.00    +0.000 C 
ATOM      2  C   UNL     1      65.034  66.076  69.876  0.00  0.00    +0.000 C 
ATOM      3  N   UNL     1      64.353  65.877  70.296  0.00  0.00    +0.000 N 
ATOM      4  C   UNL     1      63.971  66.448  70.755  0.00  0.00    +0.000 C 
ATOM      5  C   UNL     1      63.289  66.249  71.175  0.00  0.00    +0.000 C 
ATOM      6  C   UNL     1      64.053  65.111  70.257  0.00  0.00    +0.000 C 
ATOM      7  O   UNL     1      64.434  64.541  69.799  0.00  0.00    +0.000 OA
ATOM      8  C   UNL     1      63.370  64.913  70.677  0.00  0.00    +0.000 C 
ATOM      9  C   UNL     1      63.070  64.145  70.639  0.00  0.00    +0.000 C 
ATOM     10  N   UNL     1      62.388  63.948  71.059  0.00  0.00    +0.000 NA
ATOM     11  C   UNL     1      62.088  63.180  71.020  0.00  0.00    +0.000 C 
ATOM     12  C   UNL     1      62.006  64.517  71.518  0.00  0.00    +0.000 C 
ATOM     13  C   UNL     1      61.325  64.320  71.938  0.00  0.00    +0.000 C 
ATOM     14  C   UNL     1      60.943  64.890  72.397  0.00  0.00    +0.000 C 
ATOM     15  C   UNL     1      60.266  64.856  72.867  0.00  0.00    +0.000 C 
ATOM     16  N   UNL     1      60.148  65.603  73.197  0.00  0.00    +0.000 NA
ATOM     17  C   UNL     1      60.752  66.098  72.929  0.00  0.00    +0.000 C 
ATOM     18  C   UNL     1      60.918  66.894  73.073  0.00  0.00    +0.000 C 
ATOM     19  C   UNL     1      61.576  67.248  72.722  0.00  0.00    +0.000 C 
ATOM     20  C   UNL     1      62.067  66.806  72.227  0.00  0.00    +0.000 C 
ATOM     21  C   UNL     1      61.926  65.855  72.015  0.00  0.00    +0.000 C 
ATOM     22  C   UNL     1      61.243  65.657  72.435  0.00  0.00    +0.000 C 
ATOM     23  C   UNL     1      62.307  65.285  71.556  0.00  0.00    +0.000 C 
ATOM     24  C   UNL     1      62.989  65.483  71.136  0.00  0.00    +0.000 C 
ENDROOT
TORSDOF 0
ENDMDL
