MODEL 1
REMARK VINA RESULT:   -18.285      0.000      0.000
REMARK INTER + INTRA:         -18.285
REMARK INTER:                 -18.285
REMARK INTRA:                   0.000
REMARK UNBOUND:                 0.000
ROOT
REMARK  Name = maduramicin
REMARK                            x       y       z     vdW  Elec       q    Type
REMARK                         _______ _______ _______ _____ _____    ______ ____
ATOM      1  C   UNL     1      61.982  67.245  53.985  0.00  0.00    +0.000 C 
ATOM      2  C   UNL     1      61.658  67.468  53.259  0.00  0.00    +0.000 C 
ATOM      3  C   UNL     1      61.627  66.800  52.777  0.00  0.00    +0.000 C 
ATOM      4  O   UNL     1      61.342  66.772  52.004  0.00  0.00    +0.000 OA
ATOM      5  C   UNL     1      61.052  67.458  51.647  0.00  0.00    +0.000 C 
ATOM      6  C   UNL     1      61.049  68.170  52.063  0.00  0.00    +0.000 C 
ATOM      7  C   UNL     1      60.759  68.855  51.707  0.00  0.00    +0.000 C 
ATOM      8  O   UNL     1      60.756  69.567  52.123  0.00  0.00    +0.000 OA
ATOM      9  C   UNL     1      60.466  70.253  51.766  0.00  0.00    +0.000 C 
ATOM     10  C   UNL     1      60.474  68.828  50.933  0.00  0.00    +0.000 C 
ATOM     11  O   UNL     1      60.184  69.513  50.576  0.00  0.00    +0.000 OA
ATOM     12  C   UNL     1      59.898  69.486  49.802  0.00  0.00    +0.000 C 
ATOM     13  C   UNL     1      60.477  68.116  50.516  0.00  0.00    +0.000 C 
ATOM     14  C   UNL     1      60.192  68.088  49.743  0.00  0.00    +0.000 C 
ATOM     15  O   UNL     1      60.767  67.430  50.874  0.00  0.00    +0.000 OA
ATOM     16  C   UNL     1      61.932  66.162  53.204  0.00  0.00    +0.000 C 
ATOM     17  O   UNL     1      62.152  66.437  53.951  0.00  0.00    +0.000 OA
ATOM     18  C   UNL     1      62.005  65.387  52.932  0.00  0.00    +0.000 C 
ATOM     19  C   UNL     1      62.320  65.246  53.682  0.00  0.00    +0.000 C 
ATOM     20  C   UNL     1      61.675  65.690  52.240  0.00  0.00    +0.000 C 
ATOM     21  C   UNL     1      61.610  65.073  51.697  0.00  0.00    +0.000 C 
ATOM     22  C   UNL     1      61.899  64.388  52.054  0.00  0.00    +0.000 C 
ATOM     23  O   UNL     1      62.144  64.582  52.818  0.00  0.00    +0.000 OA
ATOM     24  C   UNL     1      61.938  63.640  51.708  0.00  0.00    +0.000 C 
ATOM     25  C   UNL     1      62.262  63.417  52.433  0.00  0.00    +0.000 C 
ATOM     26  C   UNL     1      61.606  64.020  51.055  0.00  0.00    +0.000 C 
ATOM     27  C   UNL     1      61.507  63.460  50.457  0.00  0.00    +0.000 C 
ATOM     28  C   UNL     1      61.778  62.733  50.741  0.00  0.00    +0.000 C 
ATOM     29  C   UNL     1      61.492  62.707  49.967  0.00  0.00    +0.000 C 
ATOM     30  C   UNL     1      61.495  61.995  49.551  0.00  0.00    +0.000 C 
ATOM     31  O   UNL     1      61.210  61.967  48.777  0.00  0.00    +0.000 OA
ATOM     32  C   UNL     1      61.785  61.309  49.908  0.00  0.00    +0.000 C 
ATOM     33  C   UNL     1      61.789  60.598  49.492  0.00  0.00    +0.000 C 
ATOM     34  C   UNL     1      62.070  61.337  50.681  0.00  0.00    +0.000 C 
ATOM     35  O   UNL     1      62.067  62.049  51.098  0.00  0.00    +0.000 OA
ATOM     36  C   UNL     1      62.360  60.651  51.038  0.00  0.00    +0.000 C 
ATOM     37  C   UNL     1      62.363  59.940  50.622  0.00  0.00    +0.000 C 
ATOM     38  C   UNL     1      62.646  60.679  51.812  0.00  0.00    +0.000 C 
ATOM     39  O   UNL     1      62.935  59.993  52.168  0.00  0.00    +0.000 OA
ATOM     40  C   UNL     1      63.221  60.020  52.942  0.00  0.00    +0.000 C 
ATOM     41  O   UNL     1      63.338  59.221  52.774  0.00  0.00    +0.000 OA
ATOM     42  C   UNL     1      63.547  59.770  53.657  0.00  0.00    +0.000 C 
ATOM     43  C   UNL     1      63.763  58.980  53.758  0.00  0.00    +0.000 C 
ATOM     44  O   UNL     1      63.653  58.441  53.144  0.00  0.00    +0.000 OA
ATOM     45  O   UNL     1      64.090  58.729  54.473  0.00  0.00    +0.000 OA
ATOM     46  C   UNL     1      63.217  60.733  53.359  0.00  0.00    +0.000 C 
ATOM     47  C   UNL     1      63.502  60.759  54.132  0.00  0.00    +0.000 C 
ATOM     48  C   UNL     1      62.927  61.417  53.001  0.00  0.00    +0.000 C 
ATOM     49  O   UNL     1      62.924  62.130  53.418  0.00  0.00    +0.000 OA
ATOM     50  C   UNL     1      62.634  62.815  53.061  0.00  0.00    +0.000 C 
ATOM     51  C   UNL     1      62.642  61.391  52.228  0.00  0.00    +0.000 C 
ATOM     52  O   UNL     1      62.352  62.076  51.871  0.00  0.00    +0.000 OA
ATOM     53  C   UNL     1      62.349  62.788  52.287  0.00  0.00    +0.000 C 
ATOM     54  O   UNL     1      62.044  62.845  51.513  0.00  0.00    +0.000 OA
ATOM     55  C   UNL     1      62.114  67.740  54.631  0.00  0.00    +0.000 C 
ATOM     56  O   UNL     1      62.444  67.437  55.323  0.00  0.00    +0.000 OA
ATOM     57  C   UNL     1      62.576  67.933  55.969  0.00  0.00    +0.000 C 
ATOM     58  C   UNL     1      62.853  67.220  56.278  0.00  0.00    +0.000 C 
ATOM     59  O   UNL     1      62.804  68.181  56.723  0.00  0.00    +0.000 OA
ATOM     60  C   UNL     1      62.377  68.733  55.923  0.00  0.00    +0.000 C 
ATOM     61  C   UNL     1      62.509  69.228  56.569  0.00  0.00    +0.000 C 
ATOM     62  C   UNL     1      62.047  69.037  55.230  0.00  0.00    +0.000 C 
ATOM     63  C   UNL     1      61.916  68.540  54.584  0.00  0.00    +0.000 C 
ATOM     64  C   UNL     1      61.586  68.843  53.892  0.00  0.00    +0.000 C 
ENDROOT
TORSDOF 0
ENDMDL
MODEL 2
REMARK VINA RESULT:   -18.019      1.217      8.070
REMARK INTER + INTRA:         -18.019
REMARK INTER:                 -18.019
REMARK INTRA:                   0.000
REMARK UNBOUND:                 0.000
ROOT
REMARK  Name = maduramicin
REMARK                            x       y       z     vdW  Elec       q    Type
REMARK                         _______ _______ _______ _____ _____    ______ ____
ATOM      1  C   UNL     1      61.184  63.406  50.798  0.00  0.00    +0.000 C 
ATOM      2  C   UNL     1      61.679  63.071  51.367  0.00  0.00    +0.000 C 
ATOM      3  C   UNL     1      61.830  63.642  51.942  0.00  0.00    +0.000 C 
ATOM      4  O   UNL     1      62.300  63.544  52.612  0.00  0.00    +0.000 OA
ATOM      5  C   UNL     1      62.670  62.819  52.753  0.00  0.00    +0.000 C 
ATOM      6  C   UNL     1      62.569  62.194  52.224  0.00  0.00    +0.000 C 
ATOM      7  C   UNL     1      62.939  61.471  52.365  0.00  0.00    +0.000 C 
ATOM      8  O   UNL     1      62.838  60.846  51.835  0.00  0.00    +0.000 OA
ATOM      9  C   UNL     1      63.208  60.122  51.976  0.00  0.00    +0.000 C 
ATOM     10  C   UNL     1      63.409  61.371  53.035  0.00  0.00    +0.000 C 
ATOM     11  O   UNL     1      63.779  60.648  53.176  0.00  0.00    +0.000 OA
ATOM     12  C   UNL     1      64.250  60.547  53.846  0.00  0.00    +0.000 C 
ATOM     13  C   UNL     1      63.510  61.995  53.564  0.00  0.00    +0.000 C 
ATOM     14  C   UNL     1      63.981  61.897  54.235  0.00  0.00    +0.000 C 
ATOM     15  O   UNL     1      63.140  62.720  53.424  0.00  0.00    +0.000 OA
ATOM     16  C   UNL     1      61.428  64.331  51.730  0.00  0.00    +0.000 C 
ATOM     17  O   UNL     1      61.028  64.185  51.023  0.00  0.00    +0.000 OA
ATOM     18  C   UNL     1      61.426  65.041  52.150  0.00  0.00    +0.000 C 
ATOM     19  C   UNL     1      60.933  65.300  51.541  0.00  0.00    +0.000 C 
ATOM     20  C   UNL     1      61.919  64.633  52.671  0.00  0.00    +0.000 C 
ATOM     21  C   UNL     1      62.118  65.145  53.287  0.00  0.00    +0.000 C 
ATOM     22  C   UNL     1      61.748  65.869  53.145  0.00  0.00    +0.000 C 
ATOM     23  O   UNL     1      61.320  65.804  52.443  0.00  0.00    +0.000 OA
ATOM     24  C   UNL     1      61.798  66.540  53.624  0.00  0.00    +0.000 C 
ATOM     25  C   UNL     1      61.303  66.875  53.055  0.00  0.00    +0.000 C 
ATOM     26  C   UNL     1      62.283  66.065  54.092  0.00  0.00    +0.000 C 
ATOM     27  C   UNL     1      62.529  66.512  54.740  0.00  0.00    +0.000 C 
ATOM     28  C   UNL     1      62.195  67.264  54.673  0.00  0.00    +0.000 C 
ATOM     29  C   UNL     1      62.666  67.164  55.343  0.00  0.00    +0.000 C 
ATOM     30  C   UNL     1      62.767  67.788  55.872  0.00  0.00    +0.000 C 
ATOM     31  O   UNL     1      63.237  67.690  56.543  0.00  0.00    +0.000 OA
ATOM     32  C   UNL     1      62.397  68.513  55.732  0.00  0.00    +0.000 C 
ATOM     33  C   UNL     1      62.498  69.137  56.261  0.00  0.00    +0.000 C 
ATOM     34  C   UNL     1      61.927  68.612  55.061  0.00  0.00    +0.000 C 
ATOM     35  O   UNL     1      61.826  67.987  54.532  0.00  0.00    +0.000 OA
ATOM     36  C   UNL     1      61.558  69.336  54.921  0.00  0.00    +0.000 C 
ATOM     37  C   UNL     1      61.658  69.960  55.450  0.00  0.00    +0.000 C 
ATOM     38  C   UNL     1      61.087  69.435  54.250  0.00  0.00    +0.000 C 
ATOM     39  O   UNL     1      60.717  70.159  54.110  0.00  0.00    +0.000 OA
ATOM     40  C   UNL     1      60.247  70.259  53.439  0.00  0.00    +0.000 C 
ATOM     41  O   UNL     1      60.176  71.008  53.776  0.00  0.00    +0.000 OA
ATOM     42  C   UNL     1      59.752  70.619  52.886  0.00  0.00    +0.000 C 
ATOM     43  C   UNL     1      59.517  71.403  52.990  0.00  0.00    +0.000 C 
ATOM     44  O   UNL     1      59.777  71.827  53.648  0.00  0.00    +0.000 OA
ATOM     45  O   UNL     1      59.022  71.763  52.437  0.00  0.00    +0.000 OA
ATOM     46  C   UNL     1      60.146  69.634  52.909  0.00  0.00    +0.000 C 
ATOM     47  C   UNL     1      59.676  69.734  52.239  0.00  0.00    +0.000 C 
ATOM     48  C   UNL     1      60.516  68.910  53.051  0.00  0.00    +0.000 C 
ATOM     49  O   UNL     1      60.415  68.286  52.521  0.00  0.00    +0.000 OA
ATOM     50  C   UNL     1      60.784  67.562  52.661  0.00  0.00    +0.000 C 
ATOM     51  C   UNL     1      60.986  68.811  53.720  0.00  0.00    +0.000 C 
ATOM     52  O   UNL     1      61.356  68.087  53.862  0.00  0.00    +0.000 OA
ATOM     53  C   UNL     1      61.255  67.462  53.332  0.00  0.00    +0.000 C 
ATOM     54  O   UNL     1      61.744  67.281  53.983  0.00  0.00    +0.000 OA
ATOM     55  C   UNL     1      60.894  63.030  50.124  0.00  0.00    +0.000 C 
ATOM     56  O   UNL     1      60.402  63.436  49.603  0.00  0.00    +0.000 OA
ATOM     57  C   UNL     1      60.112  63.060  48.929  0.00  0.00    +0.000 C 
ATOM     58  C   UNL     1      59.766  63.803  48.836  0.00  0.00    +0.000 C 
ATOM     59  O   UNL     1      59.703  62.940  48.222  0.00  0.00    +0.000 OA
ATOM     60  C   UNL     1      60.315  62.275  48.775  0.00  0.00    +0.000 C 
ATOM     61  C   UNL     1      60.026  61.898  48.101  0.00  0.00    +0.000 C 
ATOM     62  C   UNL     1      60.809  61.867  49.297  0.00  0.00    +0.000 C 
ATOM     63  C   UNL     1      61.098  62.244  49.971  0.00  0.00    +0.000 C 
ATOM     64  C   UNL     1      61.590  61.837  50.491  0.00  0.00    +0.000 C 
ENDROOT
TORSDOF 0
ENDMDL
MODEL 3
REMARK VINA RESULT:   -18.014      0.993      7.022
REMARK INTER + INTRA:         -18.014
REMARK INTER:                 -18.014
REMARK INTRA:                   0.000
REMARK UNBOUND:                 0.000
ROOT
REMARK  Name = maduramicin
REMARK                            x       y       z     vdW  Elec       q    Type
REMARK                         _______ _______ _______ _____ _____    ______ ____
ATOM      1  C   UNL     1      62.426  61.413  52.699  0.00  0.00    +0.000 C 
ATOM      2  C   UNL     1      62.023  61.516  51.986  0.00  0.00    +0.000 C 
ATOM      3  C   UNL     1      61.797  62.307  51.932  0.00  0.00    +0.000 C 
ATOM      4  O   UNL     1      61.381  62.651  51.309  0.00  0.00    +0.000 OA
ATOM      5  C   UNL     1      61.153  62.192  50.662  0.00  0.00    +0.000 C 
ATOM      6  C   UNL     1      61.342  61.389  50.639  0.00  0.00    +0.000 C 
ATOM      7  C   UNL     1      61.114  60.931  49.992  0.00  0.00    +0.000 C 
ATOM      8  O   UNL     1      61.303  60.128  49.969  0.00  0.00    +0.000 OA
ATOM      9  C   UNL     1      61.075  59.669  49.322  0.00  0.00    +0.000 C 
ATOM     10  C   UNL     1      60.698  61.275  49.368  0.00  0.00    +0.000 C 
ATOM     11  O   UNL     1      60.470  60.816  48.722  0.00  0.00    +0.000 OA
ATOM     12  C   UNL     1      60.054  61.160  48.098  0.00  0.00    +0.000 C 
ATOM     13  C   UNL     1      60.509  62.077  49.391  0.00  0.00    +0.000 C 
ATOM     14  C   UNL     1      60.093  62.422  48.768  0.00  0.00    +0.000 C 
ATOM     15  O   UNL     1      60.737  62.537  50.038  0.00  0.00    +0.000 OA
ATOM     16  C   UNL     1      62.060  62.694  52.612  0.00  0.00    +0.000 C 
ATOM     17  O   UNL     1      62.449  62.142  53.086  0.00  0.00    +0.000 OA
ATOM     18  C   UNL     1      61.953  63.493  52.787  0.00  0.00    +0.000 C 
ATOM     19  C   UNL     1      62.365  63.308  53.477  0.00  0.00    +0.000 C 
ATOM     20  C   UNL     1      61.564  63.511  52.060  0.00  0.00    +0.000 C 
ATOM     21  C   UNL     1      61.302  64.283  51.930  0.00  0.00    +0.000 C 
ATOM     22  C   UNL     1      61.530  64.741  52.577  0.00  0.00    +0.000 C 
ATOM     23  O   UNL     1      61.932  64.253  53.106  0.00  0.00    +0.000 OA
ATOM     24  C   UNL     1      61.381  65.547  52.676  0.00  0.00    +0.000 C 
ATOM     25  C   UNL     1      61.784  65.444  53.389  0.00  0.00    +0.000 C 
ATOM     26  C   UNL     1      61.009  65.481  51.943  0.00  0.00    +0.000 C 
ATOM     27  C   UNL     1      60.715  66.224  51.738  0.00  0.00    +0.000 C 
ATOM     28  C   UNL     1      60.905  66.750  52.345  0.00  0.00    +0.000 C 
ATOM     29  C   UNL     1      60.489  67.093  51.721  0.00  0.00    +0.000 C 
ATOM     30  C   UNL     1      60.300  67.896  51.744  0.00  0.00    +0.000 C 
ATOM     31  O   UNL     1      59.884  68.241  51.121  0.00  0.00    +0.000 OA
ATOM     32  C   UNL     1      60.528  68.355  52.391  0.00  0.00    +0.000 C 
ATOM     33  C   UNL     1      60.340  69.157  52.414  0.00  0.00    +0.000 C 
ATOM     34  C   UNL     1      60.944  68.011  53.015  0.00  0.00    +0.000 C 
ATOM     35  O   UNL     1      61.133  67.208  52.992  0.00  0.00    +0.000 OA
ATOM     36  C   UNL     1      61.171  68.470  53.661  0.00  0.00    +0.000 C 
ATOM     37  C   UNL     1      60.983  69.272  53.684  0.00  0.00    +0.000 C 
ATOM     38  C   UNL     1      61.588  68.126  54.285  0.00  0.00    +0.000 C 
ATOM     39  O   UNL     1      61.815  68.585  54.932  0.00  0.00    +0.000 OA
ATOM     40  C   UNL     1      62.232  68.240  55.556  0.00  0.00    +0.000 C 
ATOM     41  O   UNL     1      62.182  69.017  55.828  0.00  0.00    +0.000 OA
ATOM     42  C   UNL     1      62.630  68.166  56.274  0.00  0.00    +0.000 C 
ATOM     43  C   UNL     1      62.725  68.824  56.764  0.00  0.00    +0.000 C 
ATOM     44  O   UNL     1      62.421  69.556  56.534  0.00  0.00    +0.000 OA
ATOM     45  O   UNL     1      63.124  68.750  57.482  0.00  0.00    +0.000 OA
ATOM     46  C   UNL     1      62.420  67.438  55.533  0.00  0.00    +0.000 C 
ATOM     47  C   UNL     1      62.836  67.094  56.156  0.00  0.00    +0.000 C 
ATOM     48  C   UNL     1      62.192  66.979  54.886  0.00  0.00    +0.000 C 
ATOM     49  O   UNL     1      62.381  66.176  54.862  0.00  0.00    +0.000 OA
ATOM     50  C   UNL     1      62.154  65.717  54.216  0.00  0.00    +0.000 C 
ATOM     51  C   UNL     1      61.777  67.323  54.262  0.00  0.00    +0.000 C 
ATOM     52  O   UNL     1      61.549  66.864  53.615  0.00  0.00    +0.000 OA
ATOM     53  C   UNL     1      61.737  66.062  53.592  0.00  0.00    +0.000 C 
ATOM     54  O   UNL     1      61.316  66.331  52.925  0.00  0.00    +0.000 OA
ATOM     55  C   UNL     1      62.750  60.707  52.976  0.00  0.00    +0.000 C 
ATOM     56  O   UNL     1      63.139  60.689  53.703  0.00  0.00    +0.000 OA
ATOM     57  C   UNL     1      63.462  59.983  53.981  0.00  0.00    +0.000 C 
ATOM     58  C   UNL     1      63.665  60.486  54.602  0.00  0.00    +0.000 C 
ATOM     59  O   UNL     1      63.856  59.451  54.474  0.00  0.00    +0.000 OA
ATOM     60  C   UNL     1      63.397  59.294  53.531  0.00  0.00    +0.000 C 
ATOM     61  C   UNL     1      63.720  58.588  53.808  0.00  0.00    +0.000 C 
ATOM     62  C   UNL     1      63.007  59.312  52.803  0.00  0.00    +0.000 C 
ATOM     63  C   UNL     1      62.684  60.018  52.526  0.00  0.00    +0.000 C 
ATOM     64  C   UNL     1      62.295  60.036  51.800  0.00  0.00    +0.000 C 
ENDROOT
TORSDOF 0
ENDMDL
