MODEL 1
REMARK VINA RESULT:    -8.508      0.000      0.000
REMARK INTER + INTRA:          -8.508
REMARK INTER:                  -8.508
REMARK INTRA:                   0.000
REMARK UNBOUND:                 0.000
ROOT
REMARK  Name = mannomustine
REMARK                            x       y       z     vdW  Elec       q    Type
REMARK                         _______ _______ _______ _____ _____    ______ ____
ATOM      1  O   UNL     1      61.971  63.355  66.816  0.00  0.00    +0.000 OA
ATOM      2  C   UNL     1      61.584  62.628  66.863  0.00  0.00    +0.000 C 
ATOM      3  C   UNL     1      61.582  62.119  66.213  0.00  0.00    +0.000 C 
ATOM      4  N   UNL     1      61.967  62.337  65.517  0.00  0.00    +0.000 NA
ATOM      5  C   UNL     1      61.965  61.828  64.869  0.00  0.00    +0.000 C 
ATOM      6  C   UNL     1      62.350  62.046  64.172  0.00  0.00    +0.000 C 
ATOM      7 CL   UNL     1      62.348  61.536  63.523  0.00  0.00    +0.000 Cl
ATOM      8  C   UNL     1      61.199  62.410  67.559  0.00  0.00    +0.000 C 
ATOM      9  O   UNL     1      60.811  61.683  67.606  0.00  0.00    +0.000 OA
ATOM     10  C   UNL     1      61.201  62.920  68.208  0.00  0.00    +0.000 C 
ATOM     11  O   UNL     1      61.588  63.647  68.161  0.00  0.00    +0.000 OA
ATOM     12  C   UNL     1      60.815  62.702  68.904  0.00  0.00    +0.000 C 
ATOM     13  O   UNL     1      60.428  61.975  68.951  0.00  0.00    +0.000 OA
ATOM     14  C   UNL     1      60.818  63.211  69.554  0.00  0.00    +0.000 C 
ATOM     15  N   UNL     1      60.432  62.993  70.249  0.00  0.00    +0.000 NA
ATOM     16  C   UNL     1      60.434  63.503  70.899  0.00  0.00    +0.000 C 
ATOM     17  C   UNL     1      60.049  63.285  71.595  0.00  0.00    +0.000 C 
ATOM     18 CL   UNL     1      60.051  63.794  72.245  0.00  0.00    +0.000 Cl
ENDROOT
TORSDOF 0
ENDMDL
MODEL 2
REMARK VINA RESULT:    -8.488      0.057      5.240
REMARK INTER + INTRA:          -8.488
REMARK INTER:                  -8.488
REMARK INTRA:                   0.000
REMARK UNBOUND:                 0.000
ROOT
REMARK  Name = mannomustine
REMARK                            x       y       z     vdW  Elec       q    Type
REMARK                         _______ _______ _______ _____ _____    ______ ____
ATOM      1  O   UNL     1      60.451  61.985  68.996  0.00  0.00    +0.000 OA
ATOM      2  C   UNL     1      60.821  62.721  68.947  0.00  0.00    +0.000 C 
ATOM      3  C   UNL     1      60.810  63.232  69.595  0.00  0.00    +0.000 C 
ATOM      4  N   UNL     1      60.428  63.006  70.291  0.00  0.00    +0.000 NA
ATOM      5  C   UNL     1      60.417  63.517  70.938  0.00  0.00    +0.000 C 
ATOM      6  C   UNL     1      60.035  63.292  71.635  0.00  0.00    +0.000 C 
ATOM      7 CL   UNL     1      60.024  63.803  72.282  0.00  0.00    +0.000 Cl
ATOM      8  C   UNL     1      61.203  62.946  68.252  0.00  0.00    +0.000 C 
ATOM      9  O   UNL     1      61.573  63.682  68.203  0.00  0.00    +0.000 OA
ATOM     10  C   UNL     1      61.214  62.435  67.603  0.00  0.00    +0.000 C 
ATOM     11  O   UNL     1      60.844  61.699  67.652  0.00  0.00    +0.000 OA
ATOM     12  C   UNL     1      61.595  62.661  66.908  0.00  0.00    +0.000 C 
ATOM     13  O   UNL     1      61.965  63.396  66.859  0.00  0.00    +0.000 OA
ATOM     14  C   UNL     1      61.607  62.149  66.259  0.00  0.00    +0.000 C 
ATOM     15  N   UNL     1      61.988  62.375  65.564  0.00  0.00    +0.000 NA
ATOM     16  C   UNL     1      61.999  61.864  64.915  0.00  0.00    +0.000 C 
ATOM     17  C   UNL     1      62.381  62.089  64.220  0.00  0.00    +0.000 C 
ATOM     18 CL   UNL     1      62.392  61.578  63.572  0.00  0.00    +0.000 Cl
ENDROOT
TORSDOF 0
ENDMDL
MODEL 3
REMARK VINA RESULT:    -7.977      4.176      5.566
REMARK INTER + INTRA:          -7.977
REMARK INTER:                  -7.977
REMARK INTRA:                   0.000
REMARK UNBOUND:                 0.000
ROOT
REMARK  Name = mannomustine
REMARK                            x       y       z     vdW  Elec       q    Type
REMARK                         _______ _______ _______ _____ _____    ______ ____
ATOM      1  O   UNL     1      62.784  63.791  69.488  0.00  0.00    +0.000 OA
ATOM      2  C   UNL     1      62.662  64.000  70.277  0.00  0.00    +0.000 C 
ATOM      3  C   UNL     1      62.101  63.596  70.729  0.00  0.00    +0.000 C 
ATOM      4  N   UNL     1      61.664  62.983  70.392  0.00  0.00    +0.000 NA
ATOM      5  C   UNL     1      61.104  62.580  70.844  0.00  0.00    +0.000 C 
ATOM      6  C   UNL     1      60.666  61.967  70.506  0.00  0.00    +0.000 C 
ATOM      7 CL   UNL     1      60.107  61.564  70.958  0.00  0.00    +0.000 Cl
ATOM      8  C   UNL     1      63.099  64.613  70.614  0.00  0.00    +0.000 C 
ATOM      9  O   UNL     1      62.976  64.822  71.403  0.00  0.00    +0.000 OA
ATOM     10  C   UNL     1      63.659  65.017  70.162  0.00  0.00    +0.000 C 
ATOM     11  O   UNL     1      63.782  64.807  69.374  0.00  0.00    +0.000 OA
ATOM     12  C   UNL     1      64.096  65.630  70.500  0.00  0.00    +0.000 C 
ATOM     13  O   UNL     1      63.973  65.839  71.288  0.00  0.00    +0.000 OA
ATOM     14  C   UNL     1      64.657  66.034  70.047  0.00  0.00    +0.000 C 
ATOM     15  N   UNL     1      65.094  66.647  70.385  0.00  0.00    +0.000 NA
ATOM     16  C   UNL     1      65.654  67.050  69.933  0.00  0.00    +0.000 C 
ATOM     17  C   UNL     1      66.091  67.663  70.270  0.00  0.00    +0.000 C 
ATOM     18 CL   UNL     1      66.652  68.067  69.818  0.00  0.00    +0.000 Cl
ENDROOT
TORSDOF 0
ENDMDL
MODEL 4
REMARK VINA RESULT:    -7.857      4.260      5.331
REMARK INTER + INTRA:          -7.857
REMARK INTER:                  -7.857
REMARK INTRA:                   0.000
REMARK UNBOUND:                 0.000
ROOT
REMARK  Name = mannomustine
REMARK                            x       y       z     vdW  Elec       q    Type
REMARK                         _______ _______ _______ _____ _____    ______ ____
ATOM      1  O   UNL     1      64.503  65.228  69.432  0.00  0.00    +0.000 OA
ATOM      2  C   UNL     1      64.265  65.575  70.141  0.00  0.00    +0.000 C 
ATOM      3  C   UNL     1      64.645  66.254  70.417  0.00  0.00    +0.000 C 
ATOM      4  N   UNL     1      65.262  66.586  69.981  0.00  0.00    +0.000 NA
ATOM      5  C   UNL     1      65.641  67.265  70.257  0.00  0.00    +0.000 C 
ATOM      6  C   UNL     1      66.259  67.597  69.821  0.00  0.00    +0.000 C 
ATOM      7 CL   UNL     1      66.638  68.276  70.097  0.00  0.00    +0.000 Cl
ATOM      8  C   UNL     1      63.647  65.243  70.576  0.00  0.00    +0.000 C 
ATOM      9  O   UNL     1      63.409  65.591  71.286  0.00  0.00    +0.000 OA
ATOM     10  C   UNL     1      63.268  64.564  70.301  0.00  0.00    +0.000 C 
ATOM     11  O   UNL     1      63.506  64.217  69.592  0.00  0.00    +0.000 OA
ATOM     12  C   UNL     1      62.650  64.232  70.736  0.00  0.00    +0.000 C 
ATOM     13  O   UNL     1      62.412  64.580  71.446  0.00  0.00    +0.000 OA
ATOM     14  C   UNL     1      62.270  63.553  70.461  0.00  0.00    +0.000 C 
ATOM     15  N   UNL     1      61.653  63.222  70.896  0.00  0.00    +0.000 NA
ATOM     16  C   UNL     1      61.273  62.542  70.621  0.00  0.00    +0.000 C 
ATOM     17  C   UNL     1      60.656  62.211  71.056  0.00  0.00    +0.000 C 
ATOM     18 CL   UNL     1      60.276  61.531  70.781  0.00  0.00    +0.000 Cl
ENDROOT
TORSDOF 0
ENDMDL
MODEL 5
REMARK VINA RESULT:    -7.715      2.790      3.320
REMARK INTER + INTRA:          -7.715
REMARK INTER:                  -7.715
REMARK INTRA:                   0.000
REMARK UNBOUND:                 0.000
ROOT
REMARK  Name = mannomustine
REMARK                            x       y       z     vdW  Elec       q    Type
REMARK                         _______ _______ _______ _____ _____    ______ ____
ATOM      1  O   UNL     1      60.240  64.246  68.772  0.00  0.00    +0.000 OA
ATOM      2  C   UNL     1      60.912  63.878  68.468  0.00  0.00    +0.000 C 
ATOM      3  C   UNL     1      60.840  63.322  67.862  0.00  0.00    +0.000 C 
ATOM      4  N   UNL     1      60.095  63.134  67.561  0.00  0.00    +0.000 NA
ATOM      5  C   UNL     1      60.024  62.579  66.956  0.00  0.00    +0.000 C 
ATOM      6  C   UNL     1      59.278  62.390  66.655  0.00  0.00    +0.000 C 
ATOM      7 CL   UNL     1      59.207  61.835  66.050  0.00  0.00    +0.000 Cl
ATOM      8  C   UNL     1      61.657  64.066  68.768  0.00  0.00    +0.000 C 
ATOM      9  O   UNL     1      62.330  63.699  68.463  0.00  0.00    +0.000 OA
ATOM     10  C   UNL     1      61.729  64.622  69.374  0.00  0.00    +0.000 C 
ATOM     11  O   UNL     1      61.057  64.990  69.678  0.00  0.00    +0.000 OA
ATOM     12  C   UNL     1      62.474  64.810  69.674  0.00  0.00    +0.000 C 
ATOM     13  O   UNL     1      63.147  64.443  69.369  0.00  0.00    +0.000 OA
ATOM     14  C   UNL     1      62.546  65.366  70.280  0.00  0.00    +0.000 C 
ATOM     15  N   UNL     1      63.291  65.554  70.580  0.00  0.00    +0.000 NA
ATOM     16  C   UNL     1      63.363  66.111  71.186  0.00  0.00    +0.000 C 
ATOM     17  C   UNL     1      64.108  66.298  71.486  0.00  0.00    +0.000 C 
ATOM     18 CL   UNL     1      64.180  66.855  72.092  0.00  0.00    +0.000 Cl
ENDROOT
TORSDOF 0
ENDMDL
MODEL 6
REMARK VINA RESULT:    -7.530      3.243      5.152
REMARK INTER + INTRA:          -7.530
REMARK INTER:                  -7.530
REMARK INTRA:                   0.000
REMARK UNBOUND:                 0.000
ROOT
REMARK  Name = mannomustine
REMARK                            x       y       z     vdW  Elec       q    Type
REMARK                         _______ _______ _______ _____ _____    ______ ____
ATOM      1  O   UNL     1      62.489  66.046  69.639  0.00  0.00    +0.000 OA
ATOM      2  C   UNL     1      62.848  65.344  69.883  0.00  0.00    +0.000 C 
ATOM      3  C   UNL     1      63.484  65.366  70.409  0.00  0.00    +0.000 C 
ATOM      4  N   UNL     1      63.761  66.091  70.689  0.00  0.00    +0.000 NA
ATOM      5  C   UNL     1      64.397  66.113  71.214  0.00  0.00    +0.000 C 
ATOM      6  C   UNL     1      64.675  66.838  71.495  0.00  0.00    +0.000 C 
ATOM      7 CL   UNL     1      65.311  66.860  72.020  0.00  0.00    +0.000 Cl
ATOM      8  C   UNL     1      62.571  64.620  69.603  0.00  0.00    +0.000 C 
ATOM      9  O   UNL     1      62.930  63.918  69.847  0.00  0.00    +0.000 OA
ATOM     10  C   UNL     1      61.934  64.597  69.077  0.00  0.00    +0.000 C 
ATOM     11  O   UNL     1      61.576  65.299  68.833  0.00  0.00    +0.000 OA
ATOM     12  C   UNL     1      61.657  63.873  68.797  0.00  0.00    +0.000 C 
ATOM     13  O   UNL     1      62.016  63.171  69.040  0.00  0.00    +0.000 OA
ATOM     14  C   UNL     1      61.021  63.850  68.271  0.00  0.00    +0.000 C 
ATOM     15  N   UNL     1      60.744  63.126  67.991  0.00  0.00    +0.000 NA
ATOM     16  C   UNL     1      60.107  63.103  67.465  0.00  0.00    +0.000 C 
ATOM     17  C   UNL     1      59.830  62.379  67.185  0.00  0.00    +0.000 C 
ATOM     18 CL   UNL     1      59.194  62.357  66.659  0.00  0.00    +0.000 Cl
ENDROOT
TORSDOF 0
ENDMDL
MODEL 7
REMARK VINA RESULT:    -7.162      6.108      7.295
REMARK INTER + INTRA:          -7.162
REMARK INTER:                  -7.162
REMARK INTRA:                   0.000
REMARK UNBOUND:                 0.000
ROOT
REMARK  Name = mannomustine
REMARK                            x       y       z     vdW  Elec       q    Type
REMARK                         _______ _______ _______ _____ _____    ______ ____
ATOM      1  O   UNL     1      60.824  65.360  71.956  0.00  0.00    +0.000 OA
ATOM      2  C   UNL     1      60.781  66.067  72.378  0.00  0.00    +0.000 C 
ATOM      3  C   UNL     1      60.065  66.303  72.716  0.00  0.00    +0.000 C 
ATOM      4  N   UNL     1      59.394  65.831  72.631  0.00  0.00    +0.000 NA
ATOM      5  C   UNL     1      58.680  66.067  72.968  0.00  0.00    +0.000 C 
ATOM      6  C   UNL     1      58.008  65.594  72.884  0.00  0.00    +0.000 C 
ATOM      7 CL   UNL     1      57.293  65.830  73.221  0.00  0.00    +0.000 Cl
ATOM      8  C   UNL     1      61.451  66.540  72.463  0.00  0.00    +0.000 C 
ATOM      9  O   UNL     1      61.408  67.247  72.885  0.00  0.00    +0.000 OA
ATOM     10  C   UNL     1      62.167  66.304  72.125  0.00  0.00    +0.000 C 
ATOM     11  O   UNL     1      62.211  65.596  71.703  0.00  0.00    +0.000 OA
ATOM     12  C   UNL     1      62.838  66.776  72.210  0.00  0.00    +0.000 C 
ATOM     13  O   UNL     1      62.794  67.484  72.632  0.00  0.00    +0.000 OA
ATOM     14  C   UNL     1      63.553  66.540  71.872  0.00  0.00    +0.000 C 
ATOM     15  N   UNL     1      64.224  67.012  71.957  0.00  0.00    +0.000 NA
ATOM     16  C   UNL     1      64.940  66.777  71.619  0.00  0.00    +0.000 C 
ATOM     17  C   UNL     1      65.611  67.249  71.704  0.00  0.00    +0.000 C 
ATOM     18 CL   UNL     1      66.326  67.013  71.366  0.00  0.00    +0.000 Cl
ENDROOT
TORSDOF 0
ENDMDL
MODEL 8
REMARK VINA RESULT:    -6.774     24.222     25.182
REMARK INTER + INTRA:          -6.774
REMARK INTER:                  -6.774
REMARK INTRA:                   0.000
REMARK UNBOUND:                 0.000
ROOT
REMARK  Name = mannomustine
REMARK                            x       y       z     vdW  Elec       q    Type
REMARK                         _______ _______ _______ _____ _____    ______ ____
ATOM      1  O   UNL     1      70.547  80.141  51.500  0.00  0.00    +0.000 OA
ATOM      2  C   UNL     1      69.854  79.969  51.088  0.00  0.00    +0.000 C 
ATOM      3  C   UNL     1      69.893  79.619  50.341  0.00  0.00    +0.000 C 
ATOM      4  N   UNL     1      70.626  79.441  50.007  0.00  0.00    +0.000 NA
ATOM      5  C   UNL     1      70.665  79.092  49.261  0.00  0.00    +0.000 C 
ATOM      6  C   UNL     1      71.399  78.914  48.927  0.00  0.00    +0.000 C 
ATOM      7 CL   UNL     1      71.438  78.564  48.181  0.00  0.00    +0.000 Cl
ATOM      8  C   UNL     1      69.120  80.146  51.421  0.00  0.00    +0.000 C 
ATOM      9  O   UNL     1      68.427  79.974  51.009  0.00  0.00    +0.000 OA
ATOM     10  C   UNL     1      69.081  80.496  52.168  0.00  0.00    +0.000 C 
ATOM     11  O   UNL     1      69.775  80.668  52.580  0.00  0.00    +0.000 OA
ATOM     12  C   UNL     1      68.348  80.673  52.501  0.00  0.00    +0.000 C 
ATOM     13  O   UNL     1      67.654  80.501  52.089  0.00  0.00    +0.000 OA
ATOM     14  C   UNL     1      68.308  81.023  53.248  0.00  0.00    +0.000 C 
ATOM     15  N   UNL     1      67.575  81.201  53.582  0.00  0.00    +0.000 NA
ATOM     16  C   UNL     1      67.536  81.551  54.329  0.00  0.00    +0.000 C 
ATOM     17  C   UNL     1      66.802  81.728  54.662  0.00  0.00    +0.000 C 
ATOM     18 CL   UNL     1      66.763  82.078  55.409  0.00  0.00    +0.000 Cl
ENDROOT
TORSDOF 0
ENDMDL
MODEL 9
REMARK VINA RESULT:    -6.444     14.342     14.745
REMARK INTER + INTRA:          -6.444
REMARK INTER:                  -6.444
REMARK INTRA:                   0.000
REMARK UNBOUND:                 0.000
ROOT
REMARK  Name = mannomustine
REMARK                            x       y       z     vdW  Elec       q    Type
REMARK                         _______ _______ _______ _____ _____    ______ ____
ATOM      1  O   UNL     1      61.706  64.046  53.835  0.00  0.00    +0.000 OA
ATOM      2  C   UNL     1      62.504  64.217  53.951  0.00  0.00    +0.000 C 
ATOM      3  C   UNL     1      62.747  64.998  54.065  0.00  0.00    +0.000 C 
ATOM      4  N   UNL     1      62.191  65.607  54.064  0.00  0.00    +0.000 NA
ATOM      5  C   UNL     1      62.434  66.387  54.178  0.00  0.00    +0.000 C 
ATOM      6  C   UNL     1      61.877  66.996  54.177  0.00  0.00    +0.000 C 
ATOM      7 CL   UNL     1      62.120  67.776  54.291  0.00  0.00    +0.000 Cl
ATOM      8  C   UNL     1      63.061  63.609  53.952  0.00  0.00    +0.000 C 
ATOM      9  O   UNL     1      63.860  63.780  54.068  0.00  0.00    +0.000 OA
ATOM     10  C   UNL     1      62.818  62.828  53.838  0.00  0.00    +0.000 C 
ATOM     11  O   UNL     1      62.019  62.657  53.722  0.00  0.00    +0.000 OA
ATOM     12  C   UNL     1      63.375  62.219  53.839  0.00  0.00    +0.000 C 
ATOM     13  O   UNL     1      64.174  62.390  53.955  0.00  0.00    +0.000 OA
ATOM     14  C   UNL     1      63.132  61.438  53.725  0.00  0.00    +0.000 C 
ATOM     15  N   UNL     1      63.689  60.829  53.726  0.00  0.00    +0.000 NA
ATOM     16  C   UNL     1      63.446  60.049  53.612  0.00  0.00    +0.000 C 
ATOM     17  C   UNL     1      64.002  59.440  53.613  0.00  0.00    +0.000 C 
ATOM     18 CL   UNL     1      63.760  58.659  53.499  0.00  0.00    +0.000 Cl
ENDROOT
TORSDOF 0
ENDMDL
