MODEL 1
REMARK VINA RESULT:   -16.237      0.000      0.000
REMARK INTER + INTRA:         -16.237
REMARK INTER:                 -16.237
REMARK INTRA:                   0.000
REMARK UNBOUND:                 0.000
ROOT
REMARK  Name = maralixibat hydrochloride
REMARK                            x       y       z     vdW  Elec       q    Type
REMARK                         _______ _______ _______ _____ _____    ______ ____
ATOM      1  C   UNL     1      63.880  58.608  54.034  0.00  0.00    +0.000 C 
ATOM      2  C   UNL     1      63.521  59.276  53.708  0.00  0.00    +0.000 C 
ATOM      3  C   UNL     1      63.560  59.999  54.104  0.00  0.00    +0.000 C 
ATOM      4  C   UNL     1      63.202  60.667  53.777  0.00  0.00    +0.000 C 
ATOM      5  C   UNL     1      62.805  60.612  53.057  0.00  0.00    +0.000 C 
ATOM      6  C   UNL     1      62.527  60.214  52.390  0.00  0.00    +0.000 C 
ATOM      7  S   UNL     1      62.089  60.512  51.757  0.00  0.00    +0.000 S 
ATOM      8  O   UNL     1      62.181  59.717  51.559  0.00  0.00    +0.000 OA
ATOM      9  O   UNL     1      61.692  60.457  51.037  0.00  0.00    +0.000 OA
ATOM     10  C   UNL     1      61.821  61.284  51.636  0.00  0.00    +0.000 A 
ATOM     11  C   UNL     1      61.925  61.946  52.117  0.00  0.00    +0.000 A 
ATOM     12  C   UNL     1      61.608  62.673  51.891  0.00  0.00    +0.000 A 
ATOM     13  C   UNL     1      61.188  62.738  51.184  0.00  0.00    +0.000 A 
ATOM     14  C   UNL     1      61.084  62.076  50.704  0.00  0.00    +0.000 A 
ATOM     15  C   UNL     1      61.401  61.349  50.929  0.00  0.00    +0.000 A 
ATOM     16  N   UNL     1      60.871  63.466  50.957  0.00  0.00    +0.000 N 
ATOM     17  C   UNL     1      60.451  63.531  50.251  0.00  0.00    +0.000 C 
ATOM     18  C   UNL     1      60.975  64.128  51.439  0.00  0.00    +0.000 C 
ATOM     19  C   UNL     1      62.322  62.001  52.838  0.00  0.00    +0.000 C 
ATOM     20  C   UNL     1      62.714  61.407  53.256  0.00  0.00    +0.000 C 
ATOM     21  O   UNL     1      63.060  61.639  53.968  0.00  0.00    +0.000 OA
ATOM     22  C   UNL     1      62.328  62.748  53.187  0.00  0.00    +0.000 A 
ATOM     23  C   UNL     1      61.952  63.381  52.814  0.00  0.00    +0.000 A 
ATOM     24  C   UNL     1      61.959  64.128  53.163  0.00  0.00    +0.000 A 
ATOM     25  C   UNL     1      62.341  64.244  53.884  0.00  0.00    +0.000 A 
ATOM     26  C   UNL     1      62.717  63.611  54.257  0.00  0.00    +0.000 A 
ATOM     27  C   UNL     1      62.711  62.863  53.909  0.00  0.00    +0.000 A 
ATOM     28  O   UNL     1      62.348  64.991  54.234  0.00  0.00    +0.000 OA
ATOM     29  C   UNL     1      61.972  65.624  53.861  0.00  0.00    +0.000 C 
ATOM     30  C   UNL     1      61.978  66.371  54.209  0.00  0.00    +0.000 A 
ATOM     31  C   UNL     1      61.602  67.004  53.836  0.00  0.00    +0.000 A 
ATOM     32  C   UNL     1      61.609  67.751  54.186  0.00  0.00    +0.000 A 
ATOM     33  C   UNL     1      61.991  67.866  54.907  0.00  0.00    +0.000 A 
ATOM     34  C   UNL     1      62.367  67.234  55.280  0.00  0.00    +0.000 A 
ATOM     35  C   UNL     1      62.361  66.486  54.932  0.00  0.00    +0.000 A 
ATOM     36  C   UNL     1      61.998  68.614  55.257  0.00  0.00    +0.000 C 
ATOM     37  N   UNL     1      61.622  69.246  54.884  0.00  0.00    +0.000 N 
ATOM     38  C   UNL     1      61.239  69.132  54.161  0.00  0.00    +0.000 C 
ATOM     39  C   UNL     1      60.863  69.764  53.788  0.00  0.00    +0.000 C 
ATOM     40  N   UNL     1      60.870  70.512  54.138  0.00  0.00    +0.000 NA
ATOM     41  C   UNL     1      61.252  70.627  54.859  0.00  0.00    +0.000 C 
ATOM     42  C   UNL     1      61.628  69.994  55.232  0.00  0.00    +0.000 C 
ATOM     43  C   UNL     1      61.158  70.173  54.489  0.00  0.00    +0.000 C 
ATOM     44  C   UNL     1      61.408  69.751  54.738  0.00  0.00    +0.000 C 
ATOM     45  C   UNL     1      63.073  59.841  53.178  0.00  0.00    +0.000 C 
ATOM     46  C   UNL     1      62.907  59.254  52.623  0.00  0.00    +0.000 C 
ATOM     47  C   UNL     1      63.175  58.483  52.744  0.00  0.00    +0.000 C 
ATOM     48  C   UNL     1      63.009  57.896  52.188  0.00  0.00    +0.000 C 
ENDROOT
TORSDOF 0
ENDMDL
MODEL 2
REMARK VINA RESULT:   -16.031      2.042      7.722
REMARK INTER + INTRA:         -16.031
REMARK INTER:                 -16.031
REMARK INTRA:                   0.000
REMARK UNBOUND:                 0.000
ROOT
REMARK  Name = maralixibat hydrochloride
REMARK                            x       y       z     vdW  Elec       q    Type
REMARK                         _______ _______ _______ _____ _____    ______ ____
ATOM      1  C   UNL     1      62.535  69.277  56.349  0.00  0.00    +0.000 C 
ATOM      2  C   UNL     1      62.354  68.732  55.757  0.00  0.00    +0.000 C 
ATOM      3  C   UNL     1      62.602  67.947  55.829  0.00  0.00    +0.000 C 
ATOM      4  C   UNL     1      62.421  67.402  55.236  0.00  0.00    +0.000 C 
ATOM      5  C   UNL     1      61.993  67.641  54.573  0.00  0.00    +0.000 C 
ATOM      6  C   UNL     1      61.591  68.189  54.105  0.00  0.00    +0.000 C 
ATOM      7  S   UNL     1      61.222  68.071  53.376  0.00  0.00    +0.000 S 
ATOM      8  O   UNL     1      61.090  68.872  53.522  0.00  0.00    +0.000 OA
ATOM      9  O   UNL     1      60.795  68.309  52.713  0.00  0.00    +0.000 OA
ATOM     10  C   UNL     1      61.165  67.375  52.935  0.00  0.00    +0.000 A 
ATOM     11  C   UNL     1      61.462  66.627  53.114  0.00  0.00    +0.000 A 
ATOM     12  C   UNL     1      61.342  66.000  52.592  0.00  0.00    +0.000 A 
ATOM     13  C   UNL     1      60.924  66.122  51.891  0.00  0.00    +0.000 A 
ATOM     14  C   UNL     1      60.627  66.870  51.712  0.00  0.00    +0.000 A 
ATOM     15  C   UNL     1      60.747  67.497  52.234  0.00  0.00    +0.000 A 
ATOM     16  N   UNL     1      60.803  65.495  51.368  0.00  0.00    +0.000 N 
ATOM     17  C   UNL     1      60.386  65.616  50.667  0.00  0.00    +0.000 C 
ATOM     18  C   UNL     1      61.101  64.746  51.547  0.00  0.00    +0.000 C 
ATOM     19  C   UNL     1      61.890  66.389  53.778  0.00  0.00    +0.000 C 
ATOM     20  C   UNL     1      62.126  66.840  54.427  0.00  0.00    +0.000 C 
ATOM     21  O   UNL     1      62.552  66.437  55.007  0.00  0.00    +0.000 OA
ATOM     22  C   UNL     1      62.110  65.594  53.795  0.00  0.00    +0.000 A 
ATOM     23  C   UNL     1      61.901  65.094  53.173  0.00  0.00    +0.000 A 
ATOM     24  C   UNL     1      62.122  64.299  53.190  0.00  0.00    +0.000 A 
ATOM     25  C   UNL     1      62.551  64.004  53.829  0.00  0.00    +0.000 A 
ATOM     26  C   UNL     1      62.760  64.504  54.452  0.00  0.00    +0.000 A 
ATOM     27  C   UNL     1      62.540  65.299  54.435  0.00  0.00    +0.000 A 
ATOM     28  O   UNL     1      62.772  63.209  53.847  0.00  0.00    +0.000 OA
ATOM     29  C   UNL     1      62.562  62.710  53.225  0.00  0.00    +0.000 C 
ATOM     30  C   UNL     1      62.783  61.915  53.241  0.00  0.00    +0.000 A 
ATOM     31  C   UNL     1      62.573  61.415  52.619  0.00  0.00    +0.000 A 
ATOM     32  C   UNL     1      62.794  60.620  52.637  0.00  0.00    +0.000 A 
ATOM     33  C   UNL     1      63.224  60.325  53.276  0.00  0.00    +0.000 A 
ATOM     34  C   UNL     1      63.433  60.825  53.898  0.00  0.00    +0.000 A 
ATOM     35  C   UNL     1      63.213  61.620  53.881  0.00  0.00    +0.000 A 
ATOM     36  C   UNL     1      63.444  59.530  53.293  0.00  0.00    +0.000 C 
ATOM     37  N   UNL     1      63.235  59.031  52.671  0.00  0.00    +0.000 N 
ATOM     38  C   UNL     1      62.805  59.326  52.031  0.00  0.00    +0.000 C 
ATOM     39  C   UNL     1      62.596  58.826  51.409  0.00  0.00    +0.000 C 
ATOM     40  N   UNL     1      62.817  58.031  51.426  0.00  0.00    +0.000 NA
ATOM     41  C   UNL     1      63.246  57.736  52.065  0.00  0.00    +0.000 C 
ATOM     42  C   UNL     1      63.455  58.236  52.688  0.00  0.00    +0.000 C 
ATOM     43  C   UNL     1      63.019  58.260  51.904  0.00  0.00    +0.000 C 
ATOM     44  C   UNL     1      63.158  58.593  52.319  0.00  0.00    +0.000 C 
ATOM     45  C   UNL     1      62.051  68.336  55.013  0.00  0.00    +0.000 C 
ATOM     46  C   UNL     1      61.711  69.033  54.732  0.00  0.00    +0.000 C 
ATOM     47  C   UNL     1      61.768  69.728  55.172  0.00  0.00    +0.000 C 
ATOM     48  C   UNL     1      61.428  70.425  54.890  0.00  0.00    +0.000 C 
ENDROOT
TORSDOF 0
ENDMDL
MODEL 3
REMARK VINA RESULT:   -15.522      2.562      8.528
REMARK INTER + INTRA:         -15.522
REMARK INTER:                 -15.522
REMARK INTRA:                   0.000
REMARK UNBOUND:                 0.000
ROOT
REMARK  Name = maralixibat hydrochloride
REMARK                            x       y       z     vdW  Elec       q    Type
REMARK                         _______ _______ _______ _____ _____    ______ ____
ATOM      1  C   UNL     1      58.677  71.231  51.899  0.00  0.00    +0.000 C 
ATOM      2  C   UNL     1      59.173  70.736  52.335  0.00  0.00    +0.000 C 
ATOM      3  C   UNL     1      59.311  69.963  52.079  0.00  0.00    +0.000 C 
ATOM      4  C   UNL     1      59.808  69.468  52.514  0.00  0.00    +0.000 C 
ATOM      5  C   UNL     1      60.165  69.744  53.203  0.00  0.00    +0.000 C 
ATOM      6  C   UNL     1      60.329  70.311  53.780  0.00  0.00    +0.000 C 
ATOM      7  S   UNL     1      60.811  70.243  54.447  0.00  0.00    +0.000 S 
ATOM      8  O   UNL     1      60.533  71.018  54.498  0.00  0.00    +0.000 OA
ATOM      9  O   UNL     1      61.168  70.520  55.136  0.00  0.00    +0.000 OA
ATOM     10  C   UNL     1      61.247  69.591  54.701  0.00  0.00    +0.000 A 
ATOM     11  C   UNL     1      61.310  68.846  54.352  0.00  0.00    +0.000 A 
ATOM     12  C   UNL     1      61.782  68.266  54.700  0.00  0.00    +0.000 A 
ATOM     13  C   UNL     1      62.190  68.431  55.398  0.00  0.00    +0.000 A 
ATOM     14  C   UNL     1      62.127  69.175  55.747  0.00  0.00    +0.000 A 
ATOM     15  C   UNL     1      61.656  69.756  55.399  0.00  0.00    +0.000 A 
ATOM     16  N   UNL     1      62.663  67.851  55.747  0.00  0.00    +0.000 N 
ATOM     17  C   UNL     1      63.071  68.015  56.444  0.00  0.00    +0.000 C 
ATOM     18  C   UNL     1      62.726  67.105  55.397  0.00  0.00    +0.000 C 
ATOM     19  C   UNL     1      60.952  68.569  53.662  0.00  0.00    +0.000 C 
ATOM     20  C   UNL     1      60.443  68.970  53.151  0.00  0.00    +0.000 C 
ATOM     21  O   UNL     1      60.175  68.537  52.502  0.00  0.00    +0.000 OA
ATOM     22  C   UNL     1      61.127  67.790  53.457  0.00  0.00    +0.000 A 
ATOM     23  C   UNL     1      61.632  67.341  53.931  0.00  0.00    +0.000 A 
ATOM     24  C   UNL     1      61.806  66.561  53.724  0.00  0.00    +0.000 A 
ATOM     25  C   UNL     1      61.477  66.231  53.045  0.00  0.00    +0.000 A 
ATOM     26  C   UNL     1      60.972  66.680  52.570  0.00  0.00    +0.000 A 
ATOM     27  C   UNL     1      60.797  67.459  52.776  0.00  0.00    +0.000 A 
ATOM     28  O   UNL     1      61.651  65.451  52.838  0.00  0.00    +0.000 OA
ATOM     29  C   UNL     1      62.155  65.002  53.312  0.00  0.00    +0.000 C 
ATOM     30  C   UNL     1      62.330  64.223  53.107  0.00  0.00    +0.000 A 
ATOM     31  C   UNL     1      62.834  63.774  53.581  0.00  0.00    +0.000 A 
ATOM     32  C   UNL     1      63.009  62.994  53.374  0.00  0.00    +0.000 A 
ATOM     33  C   UNL     1      62.680  62.664  52.695  0.00  0.00    +0.000 A 
ATOM     34  C   UNL     1      62.175  63.113  52.221  0.00  0.00    +0.000 A 
ATOM     35  C   UNL     1      62.000  63.892  52.426  0.00  0.00    +0.000 A 
ATOM     36  C   UNL     1      62.854  61.884  52.488  0.00  0.00    +0.000 C 
ATOM     37  N   UNL     1      63.358  61.435  52.963  0.00  0.00    +0.000 N 
ATOM     38  C   UNL     1      63.688  61.766  53.643  0.00  0.00    +0.000 C 
ATOM     39  C   UNL     1      64.192  61.317  54.117  0.00  0.00    +0.000 C 
ATOM     40  N   UNL     1      64.367  60.537  53.911  0.00  0.00    +0.000 NA
ATOM     41  C   UNL     1      64.037  60.207  53.231  0.00  0.00    +0.000 C 
ATOM     42  C   UNL     1      63.533  60.656  52.757  0.00  0.00    +0.000 C 
ATOM     43  C   UNL     1      64.016  60.730  53.510  0.00  0.00    +0.000 C 
ATOM     44  C   UNL     1      63.679  61.029  53.194  0.00  0.00    +0.000 C 
ATOM     45  C   UNL     1      59.728  70.397  52.949  0.00  0.00    +0.000 C 
ATOM     46  C   UNL     1      59.742  71.097  53.384  0.00  0.00    +0.000 C 
ATOM     47  C   UNL     1      59.305  71.749  53.130  0.00  0.00    +0.000 C 
ATOM     48  C   UNL     1      59.318  72.450  53.565  0.00  0.00    +0.000 C 
ENDROOT
TORSDOF 0
ENDMDL
MODEL 4
REMARK VINA RESULT:   -15.072      1.433      2.409
REMARK INTER + INTRA:         -15.072
REMARK INTER:                 -15.072
REMARK INTRA:                   0.000
REMARK UNBOUND:                 0.000
ROOT
REMARK  Name = maralixibat hydrochloride
REMARK                            x       y       z     vdW  Elec       q    Type
REMARK                         _______ _______ _______ _____ _____    ______ ____
ATOM      1  C   UNL     1      60.333  58.628  51.362  0.00  0.00    +0.000 C 
ATOM      2  C   UNL     1      60.823  59.222  51.659  0.00  0.00    +0.000 C 
ATOM      3  C   UNL     1      60.547  59.999  51.704  0.00  0.00    +0.000 C 
ATOM      4  C   UNL     1      61.037  60.593  52.002  0.00  0.00    +0.000 C 
ATOM      5  C   UNL     1      61.801  60.411  52.253  0.00  0.00    +0.000 C 
ATOM      6  C   UNL     1      62.436  59.903  52.395  0.00  0.00    +0.000 C 
ATOM      7  S   UNL     1      63.178  60.082  52.708  0.00  0.00    +0.000 S 
ATOM      8  O   UNL     1      63.227  59.270  52.571  0.00  0.00    +0.000 OA
ATOM      9  O   UNL     1      63.942  59.900  52.959  0.00  0.00    +0.000 OA
ATOM     10  C   UNL     1      63.469  60.814  52.956  0.00  0.00    +0.000 A 
ATOM     11  C   UNL     1      63.089  61.546  52.953  0.00  0.00    +0.000 A 
ATOM     12  C   UNL     1      63.483  62.216  53.229  0.00  0.00    +0.000 A 
ATOM     13  C   UNL     1      64.257  62.153  53.508  0.00  0.00    +0.000 A 
ATOM     14  C   UNL     1      64.637  61.421  53.510  0.00  0.00    +0.000 A 
ATOM     15  C   UNL     1      64.243  60.751  53.235  0.00  0.00    +0.000 A 
ATOM     16  N   UNL     1      64.652  62.824  53.784  0.00  0.00    +0.000 N 
ATOM     17  C   UNL     1      65.426  62.762  54.062  0.00  0.00    +0.000 C 
ATOM     18  C   UNL     1      64.272  63.556  53.781  0.00  0.00    +0.000 C 
ATOM     19  C   UNL     1      62.324  61.728  52.701  0.00  0.00    +0.000 C 
ATOM     20  C   UNL     1      61.752  61.222  52.390  0.00  0.00    +0.000 C 
ATOM     21  O   UNL     1      61.034  61.577  52.188  0.00  0.00    +0.000 OA
ATOM     22  C   UNL     1      62.105  62.520  52.770  0.00  0.00    +0.000 A 
ATOM     23  C   UNL     1      62.638  63.072  53.075  0.00  0.00    +0.000 A 
ATOM     24  C   UNL     1      62.417  63.864  53.143  0.00  0.00    +0.000 A 
ATOM     25  C   UNL     1      61.665  64.105  52.907  0.00  0.00    +0.000 A 
ATOM     26  C   UNL     1      61.132  63.554  52.602  0.00  0.00    +0.000 A 
ATOM     27  C   UNL     1      61.352  62.761  52.533  0.00  0.00    +0.000 A 
ATOM     28  O   UNL     1      61.444  64.897  52.975  0.00  0.00    +0.000 OA
ATOM     29  C   UNL     1      61.977  65.448  53.281  0.00  0.00    +0.000 C 
ATOM     30  C   UNL     1      61.757  66.240  53.349  0.00  0.00    +0.000 A 
ATOM     31  C   UNL     1      62.290  66.791  53.654  0.00  0.00    +0.000 A 
ATOM     32  C   UNL     1      62.069  67.584  53.723  0.00  0.00    +0.000 A 
ATOM     33  C   UNL     1      61.317  67.825  53.487  0.00  0.00    +0.000 A 
ATOM     34  C   UNL     1      60.784  67.273  53.181  0.00  0.00    +0.000 A 
ATOM     35  C   UNL     1      61.004  66.481  53.113  0.00  0.00    +0.000 A 
ATOM     36  C   UNL     1      61.096  68.617  53.555  0.00  0.00    +0.000 C 
ATOM     37  N   UNL     1      61.629  69.168  53.860  0.00  0.00    +0.000 N 
ATOM     38  C   UNL     1      62.382  68.927  54.097  0.00  0.00    +0.000 C 
ATOM     39  C   UNL     1      62.915  69.478  54.402  0.00  0.00    +0.000 C 
ATOM     40  N   UNL     1      62.694  70.270  54.470  0.00  0.00    +0.000 NA
ATOM     41  C   UNL     1      61.942  70.511  54.234  0.00  0.00    +0.000 C 
ATOM     42  C   UNL     1      61.410  69.960  53.929  0.00  0.00    +0.000 C 
ATOM     43  C   UNL     1      62.246  70.002  54.251  0.00  0.00    +0.000 C 
ATOM     44  C   UNL     1      61.891  69.634  54.047  0.00  0.00    +0.000 C 
ATOM     45  C   UNL     1      61.510  59.680  52.005  0.00  0.00    +0.000 C 
ATOM     46  C   UNL     1      61.986  59.008  52.055  0.00  0.00    +0.000 C 
ATOM     47  C   UNL     1      61.695  58.277  51.806  0.00  0.00    +0.000 C 
ATOM     48  C   UNL     1      62.172  57.605  51.857  0.00  0.00    +0.000 C 
ENDROOT
TORSDOF 0
ENDMDL
MODEL 5
REMARK VINA RESULT:   -14.703      2.889      8.195
REMARK INTER + INTRA:         -14.703
REMARK INTER:                 -14.703
REMARK INTRA:                   0.000
REMARK UNBOUND:                 0.000
ROOT
REMARK  Name = maralixibat hydrochloride
REMARK                            x       y       z     vdW  Elec       q    Type
REMARK                         _______ _______ _______ _____ _____    ______ ____
ATOM      1  C   UNL     1      59.225  71.545  54.817  0.00  0.00    +0.000 C 
ATOM      2  C   UNL     1      59.554  70.988  54.305  0.00  0.00    +0.000 C 
ATOM      3  C   UNL     1      59.818  70.263  54.599  0.00  0.00    +0.000 C 
ATOM      4  C   UNL     1      60.147  69.706  54.087  0.00  0.00    +0.000 C 
ATOM      5  C   UNL     1      60.213  69.873  53.283  0.00  0.00    +0.000 C 
ATOM      6  C   UNL     1      60.123  70.345  52.611  0.00  0.00    +0.000 C 
ATOM      7  S   UNL     1      60.331  70.174  51.831  0.00  0.00    +0.000 S 
ATOM      8  O   UNL     1      60.012  70.933  51.775  0.00  0.00    +0.000 OA
ATOM      9  O   UNL     1      60.397  70.341  51.026  0.00  0.00    +0.000 OA
ATOM     10  C   UNL     1      60.680  69.489  51.530  0.00  0.00    +0.000 A 
ATOM     11  C   UNL     1      60.906  68.807  51.933  0.00  0.00    +0.000 A 
ATOM     12  C   UNL     1      61.249  68.179  51.523  0.00  0.00    +0.000 A 
ATOM     13  C   UNL     1      61.365  68.234  50.708  0.00  0.00    +0.000 A 
ATOM     14  C   UNL     1      61.138  68.917  50.304  0.00  0.00    +0.000 A 
ATOM     15  C   UNL     1      60.796  69.545  50.715  0.00  0.00    +0.000 A 
ATOM     16  N   UNL     1      61.708  67.606  50.296  0.00  0.00    +0.000 N 
ATOM     17  C   UNL     1      61.824  67.661  49.482  0.00  0.00    +0.000 C 
ATOM     18  C   UNL     1      61.934  66.923  50.700  0.00  0.00    +0.000 C 
ATOM     19  C   UNL     1      60.840  68.640  52.739  0.00  0.00    +0.000 C 
ATOM     20  C   UNL     1      60.531  69.115  53.339  0.00  0.00    +0.000 C 
ATOM     21  O   UNL     1      60.544  68.787  54.096  0.00  0.00    +0.000 OA
ATOM     22  C   UNL     1      61.120  67.901  52.975  0.00  0.00    +0.000 A 
ATOM     23  C   UNL     1      61.440  67.383  52.417  0.00  0.00    +0.000 A 
ATOM     24  C   UNL     1      61.720  66.644  52.654  0.00  0.00    +0.000 A 
ATOM     25  C   UNL     1      61.680  66.422  53.447  0.00  0.00    +0.000 A 
ATOM     26  C   UNL     1      61.360  66.940  54.004  0.00  0.00    +0.000 A 
ATOM     27  C   UNL     1      61.080  67.679  53.769  0.00  0.00    +0.000 A 
ATOM     28  O   UNL     1      61.959  65.683  53.684  0.00  0.00    +0.000 OA
ATOM     29  C   UNL     1      62.279  65.165  53.127  0.00  0.00    +0.000 C 
ATOM     30  C   UNL     1      62.559  64.426  53.362  0.00  0.00    +0.000 A 
ATOM     31  C   UNL     1      62.879  63.909  52.805  0.00  0.00    +0.000 A 
ATOM     32  C   UNL     1      63.159  63.169  53.042  0.00  0.00    +0.000 A 
ATOM     33  C   UNL     1      63.119  62.948  53.835  0.00  0.00    +0.000 A 
ATOM     34  C   UNL     1      62.799  63.465  54.392  0.00  0.00    +0.000 A 
ATOM     35  C   UNL     1      62.519  64.204  54.157  0.00  0.00    +0.000 A 
ATOM     36  C   UNL     1      63.398  62.208  54.072  0.00  0.00    +0.000 C 
ATOM     37  N   UNL     1      63.718  61.691  53.515  0.00  0.00    +0.000 N 
ATOM     38  C   UNL     1      63.758  61.913  52.720  0.00  0.00    +0.000 C 
ATOM     39  C   UNL     1      64.078  61.395  52.163  0.00  0.00    +0.000 C 
ATOM     40  N   UNL     1      64.358  60.656  52.400  0.00  0.00    +0.000 NA
ATOM     41  C   UNL     1      64.318  60.434  53.193  0.00  0.00    +0.000 C 
ATOM     42  C   UNL     1      63.998  60.952  53.750  0.00  0.00    +0.000 C 
ATOM     43  C   UNL     1      64.168  60.909  52.870  0.00  0.00    +0.000 C 
ATOM     44  C   UNL     1      63.954  61.254  53.242  0.00  0.00    +0.000 C 
ATOM     45  C   UNL     1      59.864  70.558  53.584  0.00  0.00    +0.000 C 
ATOM     46  C   UNL     1      59.680  71.183  53.079  0.00  0.00    +0.000 C 
ATOM     47  C   UNL     1      59.331  71.868  53.381  0.00  0.00    +0.000 C 
ATOM     48  C   UNL     1      59.147  72.494  52.876  0.00  0.00    +0.000 C 
ENDROOT
TORSDOF 0
ENDMDL
MODEL 6
REMARK VINA RESULT:   -14.495      1.680      2.839
REMARK INTER + INTRA:         -14.495
REMARK INTER:                 -14.495
REMARK INTRA:                   0.000
REMARK UNBOUND:                 0.000
ROOT
REMARK  Name = maralixibat hydrochloride
REMARK                            x       y       z     vdW  Elec       q    Type
REMARK                         _______ _______ _______ _____ _____    ______ ____
ATOM      1  C   UNL     1      64.568  61.850  54.172  0.00  0.00    +0.000 C 
ATOM      2  C   UNL     1      64.074  62.391  53.791  0.00  0.00    +0.000 C 
ATOM      3  C   UNL     1      63.899  63.113  54.151  0.00  0.00    +0.000 C 
ATOM      4  C   UNL     1      63.405  63.654  53.770  0.00  0.00    +0.000 C 
ATOM      5  C   UNL     1      63.088  63.473  53.031  0.00  0.00    +0.000 C 
ATOM      6  C   UNL     1      62.968  62.993  52.370  0.00  0.00    +0.000 C 
ATOM      7  S   UNL     1      62.514  63.147  51.698  0.00  0.00    +0.000 S 
ATOM      8  O   UNL     1      62.820  62.395  51.547  0.00  0.00    +0.000 OA
ATOM      9  O   UNL     1      62.196  62.965  50.960  0.00  0.00    +0.000 OA
ATOM     10  C   UNL     1      62.067  63.817  51.522  0.00  0.00    +0.000 A 
ATOM     11  C   UNL     1      61.964  64.500  51.973  0.00  0.00    +0.000 A 
ATOM     12  C   UNL     1      61.488  65.113  51.692  0.00  0.00    +0.000 A 
ATOM     13  C   UNL     1      61.116  65.042  50.959  0.00  0.00    +0.000 A 
ATOM     14  C   UNL     1      61.220  64.359  50.508  0.00  0.00    +0.000 A 
ATOM     15  C   UNL     1      61.695  63.747  50.789  0.00  0.00    +0.000 A 
ATOM     16  N   UNL     1      60.640  65.655  50.676  0.00  0.00    +0.000 N 
ATOM     17  C   UNL     1      60.268  65.585  49.944  0.00  0.00    +0.000 C 
ATOM     18  C   UNL     1      60.537  66.338  51.128  0.00  0.00    +0.000 C 
ATOM     19  C   UNL     1      62.282  64.681  52.713  0.00  0.00    +0.000 C 
ATOM     20  C   UNL     1      62.782  64.223  53.183  0.00  0.00    +0.000 C 
ATOM     21  O   UNL     1      63.006  64.562  53.901  0.00  0.00    +0.000 OA
ATOM     22  C   UNL     1      62.072  65.417  53.022  0.00  0.00    +0.000 A 
ATOM     23  C   UNL     1      61.574  65.917  52.595  0.00  0.00    +0.000 A 
ATOM     24  C   UNL     1      61.365  66.652  52.905  0.00  0.00    +0.000 A 
ATOM     25  C   UNL     1      61.653  66.887  53.641  0.00  0.00    +0.000 A 
ATOM     26  C   UNL     1      62.151  66.387  54.068  0.00  0.00    +0.000 A 
ATOM     27  C   UNL     1      62.361  65.652  53.759  0.00  0.00    +0.000 A 
ATOM     28  O   UNL     1      61.443  67.623  53.951  0.00  0.00    +0.000 OA
ATOM     29  C   UNL     1      60.945  68.123  53.524  0.00  0.00    +0.000 C 
ATOM     30  C   UNL     1      60.735  68.859  53.833  0.00  0.00    +0.000 A 
ATOM     31  C   UNL     1      60.237  69.359  53.406  0.00  0.00    +0.000 A 
ATOM     32  C   UNL     1      60.028  70.095  53.717  0.00  0.00    +0.000 A 
ATOM     33  C   UNL     1      60.316  70.330  54.452  0.00  0.00    +0.000 A 
ATOM     34  C   UNL     1      60.814  69.829  54.879  0.00  0.00    +0.000 A 
ATOM     35  C   UNL     1      61.024  69.094  54.570  0.00  0.00    +0.000 A 
ATOM     36  C   UNL     1      60.107  71.065  54.763  0.00  0.00    +0.000 C 
ATOM     37  N   UNL     1      59.609  71.565  54.336  0.00  0.00    +0.000 N 
ATOM     38  C   UNL     1      59.320  71.330  53.599  0.00  0.00    +0.000 C 
ATOM     39  C   UNL     1      58.822  71.831  53.172  0.00  0.00    +0.000 C 
ATOM     40  N   UNL     1      58.612  72.566  53.482  0.00  0.00    +0.000 NA
ATOM     41  C   UNL     1      58.900  72.801  54.218  0.00  0.00    +0.000 C 
ATOM     42  C   UNL     1      59.399  72.301  54.645  0.00  0.00    +0.000 C 
ATOM     43  C   UNL     1      58.952  72.326  53.867  0.00  0.00    +0.000 C 
ATOM     44  C   UNL     1      59.284  71.992  54.152  0.00  0.00    +0.000 C 
ATOM     45  C   UNL     1      63.535  62.802  53.207  0.00  0.00    +0.000 C 
ATOM     46  C   UNL     1      63.564  62.174  52.674  0.00  0.00    +0.000 C 
ATOM     47  C   UNL     1      64.011  61.503  52.851  0.00  0.00    +0.000 C 
ATOM     48  C   UNL     1      64.040  60.874  52.317  0.00  0.00    +0.000 C 
ENDROOT
TORSDOF 0
ENDMDL
MODEL 7
REMARK VINA RESULT:   -14.466      3.061      8.046
REMARK INTER + INTRA:         -14.466
REMARK INTER:                 -14.466
REMARK INTRA:                   0.000
REMARK UNBOUND:                 0.000
ROOT
REMARK  Name = maralixibat hydrochloride
REMARK                            x       y       z     vdW  Elec       q    Type
REMARK                         _______ _______ _______ _____ _____    ______ ____
ATOM      1  C   UNL     1      61.286  69.535  48.392  0.00  0.00    +0.000 C 
ATOM      2  C   UNL     1      61.392  69.100  49.085  0.00  0.00    +0.000 C 
ATOM      3  C   UNL     1      61.518  68.285  49.044  0.00  0.00    +0.000 C 
ATOM      4  C   UNL     1      61.623  67.849  49.737  0.00  0.00    +0.000 C 
ATOM      5  C   UNL     1      61.603  68.226  50.469  0.00  0.00    +0.000 C 
ATOM      6  C   UNL     1      61.526  68.880  50.966  0.00  0.00    +0.000 C 
ATOM      7  S   UNL     1      61.566  68.908  51.790  0.00  0.00    +0.000 S 
ATOM      8  O   UNL     1      61.431  69.696  51.586  0.00  0.00    +0.000 OA
ATOM      9  O   UNL     1      61.545  69.286  52.522  0.00  0.00    +0.000 OA
ATOM     10  C   UNL     1      61.692  68.288  52.320  0.00  0.00    +0.000 A 
ATOM     11  C   UNL     1      61.808  67.488  52.157  0.00  0.00    +0.000 A 
ATOM     12  C   UNL     1      61.925  66.953  52.774  0.00  0.00    +0.000 A 
ATOM     13  C   UNL     1      61.925  67.220  53.555  0.00  0.00    +0.000 A 
ATOM     14  C   UNL     1      61.808  68.020  53.718  0.00  0.00    +0.000 A 
ATOM     15  C   UNL     1      61.691  68.554  53.101  0.00  0.00    +0.000 A 
ATOM     16  N   UNL     1      62.042  66.686  54.174  0.00  0.00    +0.000 N 
ATOM     17  C   UNL     1      62.042  66.952  54.954  0.00  0.00    +0.000 C 
ATOM     18  C   UNL     1      62.159  65.885  54.010  0.00  0.00    +0.000 C 
ATOM     19  C   UNL     1      61.829  67.110  51.423  0.00  0.00    +0.000 C 
ATOM     20  C   UNL     1      61.737  67.439  50.672  0.00  0.00    +0.000 C 
ATOM     21  O   UNL     1      61.787  66.910  50.042  0.00  0.00    +0.000 OA
ATOM     22  C   UNL     1      61.958  66.295  51.445  0.00  0.00    +0.000 A 
ATOM     23  C   UNL     1      62.057  65.911  52.169  0.00  0.00    +0.000 A 
ATOM     24  C   UNL     1      62.186  65.097  52.189  0.00  0.00    +0.000 A 
ATOM     25  C   UNL     1      62.216  64.666  51.486  0.00  0.00    +0.000 A 
ATOM     26  C   UNL     1      62.117  65.050  50.763  0.00  0.00    +0.000 A 
ATOM     27  C   UNL     1      61.988  65.864  50.741  0.00  0.00    +0.000 A 
ATOM     28  O   UNL     1      62.345  63.851  51.507  0.00  0.00    +0.000 OA
ATOM     29  C   UNL     1      62.444  63.467  52.230  0.00  0.00    +0.000 C 
ATOM     30  C   UNL     1      62.573  62.653  52.252  0.00  0.00    +0.000 A 
ATOM     31  C   UNL     1      62.672  62.269  52.975  0.00  0.00    +0.000 A 
ATOM     32  C   UNL     1      62.801  61.455  52.995  0.00  0.00    +0.000 A 
ATOM     33  C   UNL     1      62.831  61.024  52.293  0.00  0.00    +0.000 A 
ATOM     34  C   UNL     1      62.732  61.408  51.569  0.00  0.00    +0.000 A 
ATOM     35  C   UNL     1      62.603  62.222  51.548  0.00  0.00    +0.000 A 
ATOM     36  C   UNL     1      62.960  60.209  52.313  0.00  0.00    +0.000 C 
ATOM     37  N   UNL     1      63.059  59.825  53.037  0.00  0.00    +0.000 N 
ATOM     38  C   UNL     1      63.029  60.257  53.740  0.00  0.00    +0.000 C 
ATOM     39  C   UNL     1      63.127  59.873  54.464  0.00  0.00    +0.000 C 
ATOM     40  N   UNL     1      63.257  59.058  54.484  0.00  0.00    +0.000 NA
ATOM     41  C   UNL     1      63.287  58.627  53.782  0.00  0.00    +0.000 C 
ATOM     42  C   UNL     1      63.188  59.011  53.058  0.00  0.00    +0.000 C 
ATOM     43  C   UNL     1      63.206  59.194  53.936  0.00  0.00    +0.000 C 
ATOM     44  C   UNL     1      63.140  59.450  53.454  0.00  0.00    +0.000 C 
ATOM     45  C   UNL     1      61.477  68.847  49.939  0.00  0.00    +0.000 C 
ATOM     46  C   UNL     1      61.371  69.614  50.220  0.00  0.00    +0.000 C 
ATOM     47  C   UNL     1      61.246  70.235  49.691  0.00  0.00    +0.000 C 
ATOM     48  C   UNL     1      61.140  71.003  49.972  0.00  0.00    +0.000 C 
ENDROOT
TORSDOF 0
ENDMDL
MODEL 8
REMARK VINA RESULT:   -13.971      3.179      6.391
REMARK INTER + INTRA:         -13.971
REMARK INTER:                 -13.971
REMARK INTRA:                   0.000
REMARK UNBOUND:                 0.000
ROOT
REMARK  Name = maralixibat hydrochloride
REMARK                            x       y       z     vdW  Elec       q    Type
REMARK                         _______ _______ _______ _____ _____    ______ ____
ATOM      1  C   UNL     1      61.342  64.768  50.969  0.00  0.00    +0.000 C 
ATOM      2  C   UNL     1      61.406  65.335  51.564  0.00  0.00    +0.000 C 
ATOM      3  C   UNL     1      60.965  66.032  51.519  0.00  0.00    +0.000 C 
ATOM      4  C   UNL     1      61.029  66.599  52.115  0.00  0.00    +0.000 C 
ATOM      5  C   UNL     1      61.532  66.471  52.754  0.00  0.00    +0.000 C 
ATOM      6  C   UNL     1      62.080  66.038  53.194  0.00  0.00    +0.000 C 
ATOM      7  S   UNL     1      62.440  66.239  53.910  0.00  0.00    +0.000 S 
ATOM      8  O   UNL     1      62.764  65.499  53.742  0.00  0.00    +0.000 OA
ATOM      9  O   UNL     1      62.943  66.111  54.549  0.00  0.00    +0.000 OA
ATOM     10  C   UNL     1      62.340  66.922  54.361  0.00  0.00    +0.000 A 
ATOM     11  C   UNL     1      61.856  67.573  54.210  0.00  0.00    +0.000 A 
ATOM     12  C   UNL     1      61.837  68.205  54.739  0.00  0.00    +0.000 A 
ATOM     13  C   UNL     1      62.303  68.187  55.420  0.00  0.00    +0.000 A 
ATOM     14  C   UNL     1      62.786  67.536  55.571  0.00  0.00    +0.000 A 
ATOM     15  C   UNL     1      62.805  66.904  55.042  0.00  0.00    +0.000 A 
ATOM     16  N   UNL     1      62.284  68.819  55.950  0.00  0.00    +0.000 N 
ATOM     17  C   UNL     1      62.750  68.801  56.631  0.00  0.00    +0.000 C 
ATOM     18  C   UNL     1      61.800  69.470  55.799  0.00  0.00    +0.000 C 
ATOM     19  C   UNL     1      61.352  67.701  53.569  0.00  0.00    +0.000 C 
ATOM     20  C   UNL     1      61.208  67.210  52.921  0.00  0.00    +0.000 C 
ATOM     21  O   UNL     1      60.669  67.498  52.368  0.00  0.00    +0.000 OA
ATOM     22  C   UNL     1      60.938  68.415  53.578  0.00  0.00    +0.000 A 
ATOM     23  C   UNL     1      61.042  68.945  54.201  0.00  0.00    +0.000 A 
ATOM     24  C   UNL     1      60.627  69.658  54.208  0.00  0.00    +0.000 A 
ATOM     25  C   UNL     1      60.109  69.841  53.594  0.00  0.00    +0.000 A 
ATOM     26  C   UNL     1      60.005  69.311  52.970  0.00  0.00    +0.000 A 
ATOM     27  C   UNL     1      60.419  68.597  52.962  0.00  0.00    +0.000 A 
ATOM     28  O   UNL     1      59.694  70.554  53.601  0.00  0.00    +0.000 OA
ATOM     29  C   UNL     1      59.798  71.085  54.224  0.00  0.00    +0.000 C 
ATOM     30  C   UNL     1      59.383  71.798  54.233  0.00  0.00    +0.000 A 
ATOM     31  C   UNL     1      59.487  72.329  54.856  0.00  0.00    +0.000 A 
ATOM     32  C   UNL     1      59.072  73.042  54.863  0.00  0.00    +0.000 A 
ATOM     33  C   UNL     1      58.554  73.225  54.249  0.00  0.00    +0.000 A 
ATOM     34  C   UNL     1      58.450  72.694  53.626  0.00  0.00    +0.000 A 
ATOM     35  C   UNL     1      58.864  71.981  53.617  0.00  0.00    +0.000 A 
ATOM     36  C   UNL     1      58.139  73.938  54.256  0.00  0.00    +0.000 C 
ATOM     37  N   UNL     1      58.243  74.469  54.879  0.00  0.00    +0.000 N 
ATOM     38  C   UNL     1      58.762  74.286  55.495  0.00  0.00    +0.000 C 
ATOM     39  C   UNL     1      58.866  74.816  56.118  0.00  0.00    +0.000 C 
ATOM     40  N   UNL     1      58.451  75.530  56.126  0.00  0.00    +0.000 NA
ATOM     41  C   UNL     1      57.933  75.712  55.511  0.00  0.00    +0.000 C 
ATOM     42  C   UNL     1      57.829  75.182  54.888  0.00  0.00    +0.000 C 
ATOM     43  C   UNL     1      58.292  75.262  55.652  0.00  0.00    +0.000 C 
ATOM     44  C   UNL     1      58.223  74.908  55.237  0.00  0.00    +0.000 C 
ATOM     45  C   UNL     1      61.632  65.788  52.303  0.00  0.00    +0.000 C 
ATOM     46  C   UNL     1      62.149  65.197  52.556  0.00  0.00    +0.000 C 
ATOM     47  C   UNL     1      62.250  64.514  52.104  0.00  0.00    +0.000 C 
ATOM     48  C   UNL     1      62.767  63.924  52.358  0.00  0.00    +0.000 C 
ENDROOT
TORSDOF 0
ENDMDL
MODEL 9
REMARK VINA RESULT:   -13.827      2.679      3.658
REMARK INTER + INTRA:         -13.827
REMARK INTER:                 -13.827
REMARK INTRA:                   0.000
REMARK UNBOUND:                 0.000
ROOT
REMARK  Name = maralixibat hydrochloride
REMARK                            x       y       z     vdW  Elec       q    Type
REMARK                         _______ _______ _______ _____ _____    ______ ____
ATOM      1  C   UNL     1      63.366  58.521  50.097  0.00  0.00    +0.000 C 
ATOM      2  C   UNL     1      63.239  59.240  50.481  0.00  0.00    +0.000 C 
ATOM      3  C   UNL     1      63.142  59.932  50.041  0.00  0.00    +0.000 C 
ATOM      4  C   UNL     1      63.014  60.651  50.425  0.00  0.00    +0.000 C 
ATOM      5  C   UNL     1      62.985  60.679  51.248  0.00  0.00    +0.000 C 
ATOM      6  C   UNL     1      63.014  60.351  52.005  0.00  0.00    +0.000 C 
ATOM      7  S   UNL     1      62.931  60.729  52.734  0.00  0.00    +0.000 S 
ATOM      8  O   UNL     1      63.051  59.942  52.948  0.00  0.00    +0.000 OA
ATOM      9  O   UNL     1      62.902  60.757  53.557  0.00  0.00    +0.000 OA
ATOM     10  C   UNL     1      62.798  61.530  52.885  0.00  0.00    +0.000 A 
ATOM     11  C   UNL     1      62.716  62.148  52.346  0.00  0.00    +0.000 A 
ATOM     12  C   UNL     1      62.584  62.916  52.617  0.00  0.00    +0.000 A 
ATOM     13  C   UNL     1      62.535  63.065  53.427  0.00  0.00    +0.000 A 
ATOM     14  C   UNL     1      62.618  62.447  53.966  0.00  0.00    +0.000 A 
ATOM     15  C   UNL     1      62.750  61.679  53.695  0.00  0.00    +0.000 A 
ATOM     16  N   UNL     1      62.404  63.834  53.698  0.00  0.00    +0.000 N 
ATOM     17  C   UNL     1      62.355  63.983  54.508  0.00  0.00    +0.000 C 
ATOM     18  C   UNL     1      62.321  64.453  53.159  0.00  0.00    +0.000 C 
ATOM     19  C   UNL     1      62.745  62.120  51.522  0.00  0.00    +0.000 C 
ATOM     20  C   UNL     1      62.865  61.466  51.034  0.00  0.00    +0.000 C 
ATOM     21  O   UNL     1      62.865  61.620  50.224  0.00  0.00    +0.000 OA
ATOM     22  C   UNL     1      62.641  62.842  51.136  0.00  0.00    +0.000 A 
ATOM     23  C   UNL     1      62.518  63.530  51.573  0.00  0.00    +0.000 A 
ATOM     24  C   UNL     1      62.414  64.251  51.186  0.00  0.00    +0.000 A 
ATOM     25  C   UNL     1      62.434  64.284  50.362  0.00  0.00    +0.000 A 
ATOM     26  C   UNL     1      62.557  63.596  49.925  0.00  0.00    +0.000 A 
ATOM     27  C   UNL     1      62.661  62.874  50.311  0.00  0.00    +0.000 A 
ATOM     28  O   UNL     1      62.330  65.005  49.975  0.00  0.00    +0.000 OA
ATOM     29  C   UNL     1      62.206  65.694  50.412  0.00  0.00    +0.000 C 
ATOM     30  C   UNL     1      62.102  66.415  50.026  0.00  0.00    +0.000 A 
ATOM     31  C   UNL     1      61.978  67.104  50.463  0.00  0.00    +0.000 A 
ATOM     32  C   UNL     1      61.874  67.825  50.076  0.00  0.00    +0.000 A 
ATOM     33  C   UNL     1      61.894  67.858  49.252  0.00  0.00    +0.000 A 
ATOM     34  C   UNL     1      62.018  67.169  48.815  0.00  0.00    +0.000 A 
ATOM     35  C   UNL     1      62.122  66.448  49.201  0.00  0.00    +0.000 A 
ATOM     36  C   UNL     1      61.790  68.579  48.865  0.00  0.00    +0.000 C 
ATOM     37  N   UNL     1      61.667  69.268  49.302  0.00  0.00    +0.000 N 
ATOM     38  C   UNL     1      61.647  69.235  50.127  0.00  0.00    +0.000 C 
ATOM     39  C   UNL     1      61.523  69.923  50.564  0.00  0.00    +0.000 C 
ATOM     40  N   UNL     1      61.419  70.645  50.177  0.00  0.00    +0.000 NA
ATOM     41  C   UNL     1      61.439  70.677  49.353  0.00  0.00    +0.000 C 
ATOM     42  C   UNL     1      61.563  69.989  48.916  0.00  0.00    +0.000 C 
ATOM     43  C   UNL     1      61.493  70.258  49.769  0.00  0.00    +0.000 C 
ATOM     44  C   UNL     1      61.576  69.799  49.478  0.00  0.00    +0.000 C 
ATOM     45  C   UNL     1      63.118  59.878  51.097  0.00  0.00    +0.000 C 
ATOM     46  C   UNL     1      63.184  59.346  51.723  0.00  0.00    +0.000 C 
ATOM     47  C   UNL     1      63.317  58.545  51.571  0.00  0.00    +0.000 C 
ATOM     48  C   UNL     1      63.384  58.012  52.198  0.00  0.00    +0.000 C 
ENDROOT
TORSDOF 0
ENDMDL
