MODEL 1
REMARK VINA RESULT:   -11.317      0.000      0.000
REMARK INTER + INTRA:         -11.317
REMARK INTER:                 -11.317
REMARK INTRA:                   0.000
REMARK UNBOUND:                 0.000
ROOT
REMARK  Name = mebutizide
REMARK                            x       y       z     vdW  Elec       q    Type
REMARK                         _______ _______ _______ _____ _____    ______ ____
ATOM      1  C   UNL     1      60.204  64.304  70.132  0.00  0.00    +0.000 C 
ATOM      2  C   UNL     1      60.806  64.166  69.586  0.00  0.00    +0.000 C 
ATOM      3  C   UNL     1      60.651  63.736  68.899  0.00  0.00    +0.000 C 
ATOM      4  C   UNL     1      59.891  63.443  68.759  0.00  0.00    +0.000 C 
ATOM      5  C   UNL     1      61.253  63.598  68.354  0.00  0.00    +0.000 C 
ATOM      6  C   UNL     1      62.012  63.890  68.494  0.00  0.00    +0.000 C 
ATOM      7  C   UNL     1      61.098  63.168  67.668  0.00  0.00    +0.000 C 
ATOM      8  N   UNL     1      61.700  63.030  67.121  0.00  0.00    +0.000 NA
ATOM      9  C   UNL     1      61.545  62.599  66.434  0.00  0.00    +0.000 A 
ATOM     10  C   UNL     1      60.786  62.307  66.294  0.00  0.00    +0.000 A 
ATOM     11  C   UNL     1      60.630  61.877  65.608  0.00  0.00    +0.000 A 
ATOM     12  C   UNL     1      61.233  61.739  65.062  0.00  0.00    +0.000 A 
ATOM     13  C   UNL     1      61.992  62.031  65.203  0.00  0.00    +0.000 A 
ATOM     14 CL   UNL     1      62.595  61.893  64.656  0.00  0.00    +0.000 Cl
ATOM     15  C   UNL     1      62.148  62.461  65.889  0.00  0.00    +0.000 A 
ATOM     16  S   UNL     1      61.078  61.309  64.375  0.00  0.00    +0.000 S 
ATOM     17  N   UNL     1      60.922  60.879  63.689  0.00  0.00    +0.000 NA
ATOM     18  O   UNL     1      61.864  61.398  64.142  0.00  0.00    +0.000 OA
ATOM     19  O   UNL     1      60.291  61.220  64.610  0.00  0.00    +0.000 OA
ATOM     20  S   UNL     1      60.183  62.445  66.840  0.00  0.00    +0.000 S 
ATOM     21  O   UNL     1      59.768  62.011  66.275  0.00  0.00    +0.000 OA
ATOM     22  O   UNL     1      59.436  62.432  67.190  0.00  0.00    +0.000 OA
ATOM     23  N   UNL     1      60.338  62.876  67.527  0.00  0.00    +0.000 NA
ENDROOT
TORSDOF 0
ENDMDL
MODEL 2
REMARK VINA RESULT:   -11.287      1.785      4.128
REMARK INTER + INTRA:         -11.287
REMARK INTER:                 -11.287
REMARK INTRA:                   0.000
REMARK UNBOUND:                 0.000
ROOT
REMARK  Name = mebutizide
REMARK                            x       y       z     vdW  Elec       q    Type
REMARK                         _______ _______ _______ _____ _____    ______ ____
ATOM      1  C   UNL     1      60.877  60.882  63.777  0.00  0.00    +0.000 C 
ATOM      2  C   UNL     1      61.374  61.280  64.300  0.00  0.00    +0.000 C 
ATOM      3  C   UNL     1      61.066  61.621  64.985  0.00  0.00    +0.000 C 
ATOM      4  C   UNL     1      60.258  61.564  65.146  0.00  0.00    +0.000 C 
ATOM      5  C   UNL     1      61.563  62.019  65.508  0.00  0.00    +0.000 C 
ATOM      6  C   UNL     1      62.370  62.076  65.347  0.00  0.00    +0.000 C 
ATOM      7  C   UNL     1      61.254  62.360  66.193  0.00  0.00    +0.000 C 
ATOM      8  N   UNL     1      61.752  62.758  66.717  0.00  0.00    +0.000 NA
ATOM      9  C   UNL     1      61.444  63.099  67.402  0.00  0.00    +0.000 A 
ATOM     10  C   UNL     1      60.636  63.042  67.563  0.00  0.00    +0.000 A 
ATOM     11  C   UNL     1      60.327  63.382  68.247  0.00  0.00    +0.000 A 
ATOM     12  C   UNL     1      60.824  63.780  68.771  0.00  0.00    +0.000 A 
ATOM     13  C   UNL     1      61.633  63.838  68.609  0.00  0.00    +0.000 A 
ATOM     14 CL   UNL     1      62.130  64.236  69.133  0.00  0.00    +0.000 Cl
ATOM     15  C   UNL     1      61.941  63.497  67.925  0.00  0.00    +0.000 A 
ATOM     16  S   UNL     1      60.516  64.121  69.456  0.00  0.00    +0.000 S 
ATOM     17  N   UNL     1      60.207  64.462  70.140  0.00  0.00    +0.000 NA
ATOM     18  O   UNL     1      61.270  64.384  69.664  0.00  0.00    +0.000 OA
ATOM     19  O   UNL     1      59.762  63.858  69.246  0.00  0.00    +0.000 OA
ATOM     20  S   UNL     1      60.138  62.643  67.039  0.00  0.00    +0.000 S 
ATOM     21  O   UNL     1      59.590  62.874  67.611  0.00  0.00    +0.000 OA
ATOM     22  O   UNL     1      59.450  62.325  66.715  0.00  0.00    +0.000 OA
ATOM     23  N   UNL     1      60.446  62.302  66.354  0.00  0.00    +0.000 NA
ENDROOT
TORSDOF 0
ENDMDL
MODEL 3
REMARK VINA RESULT:   -10.872      2.152      2.969
REMARK INTER + INTRA:         -10.872
REMARK INTER:                 -10.872
REMARK INTRA:                   0.000
REMARK UNBOUND:                 0.000
ROOT
REMARK  Name = mebutizide
REMARK                            x       y       z     vdW  Elec       q    Type
REMARK                         _______ _______ _______ _____ _____    ______ ____
ATOM      1  C   UNL     1      61.626  63.925  72.839  0.00  0.00    +0.000 C 
ATOM      2  C   UNL     1      61.124  63.540  72.310  0.00  0.00    +0.000 C 
ATOM      3  C   UNL     1      61.297  63.537  71.503  0.00  0.00    +0.000 C 
ATOM      4  C   UNL     1      61.974  63.920  71.225  0.00  0.00    +0.000 C 
ATOM      5  C   UNL     1      60.795  63.151  70.975  0.00  0.00    +0.000 C 
ATOM      6  C   UNL     1      60.119  62.769  71.253  0.00  0.00    +0.000 C 
ATOM      7  C   UNL     1      60.969  63.148  70.169  0.00  0.00    +0.000 C 
ATOM      8  N   UNL     1      60.467  62.763  69.639  0.00  0.00    +0.000 NA
ATOM      9  C   UNL     1      60.640  62.760  68.833  0.00  0.00    +0.000 A 
ATOM     10  C   UNL     1      61.317  63.143  68.555  0.00  0.00    +0.000 A 
ATOM     11  C   UNL     1      61.490  63.140  67.749  0.00  0.00    +0.000 A 
ATOM     12  C   UNL     1      60.989  62.755  67.220  0.00  0.00    +0.000 A 
ATOM     13  C   UNL     1      60.312  62.372  67.498  0.00  0.00    +0.000 A 
ATOM     14 CL   UNL     1      59.810  61.986  66.969  0.00  0.00    +0.000 Cl
ATOM     15  C   UNL     1      60.138  62.374  68.304  0.00  0.00    +0.000 A 
ATOM     16  S   UNL     1      61.162  62.751  66.413  0.00  0.00    +0.000 S 
ATOM     17  N   UNL     1      61.335  62.749  65.608  0.00  0.00    +0.000 NA
ATOM     18  O   UNL     1      60.481  62.308  66.269  0.00  0.00    +0.000 OA
ATOM     19  O   UNL     1      61.843  63.195  66.559  0.00  0.00    +0.000 OA
ATOM     20  S   UNL     1      61.819  63.528  69.084  0.00  0.00    +0.000 S 
ATOM     21  O   UNL     1      62.215  63.678  68.376  0.00  0.00    +0.000 OA
ATOM     22  O   UNL     1      62.459  63.966  69.367  0.00  0.00    +0.000 OA
ATOM     23  N   UNL     1      61.646  63.532  69.891  0.00  0.00    +0.000 NA
ENDROOT
TORSDOF 0
ENDMDL
MODEL 4
REMARK VINA RESULT:   -10.787      4.984      6.155
REMARK INTER + INTRA:         -10.787
REMARK INTER:                 -10.787
REMARK INTRA:                   0.000
REMARK UNBOUND:                 0.000
ROOT
REMARK  Name = mebutizide
REMARK                            x       y       z     vdW  Elec       q    Type
REMARK                         _______ _______ _______ _____ _____    ______ ____
ATOM      1  C   UNL     1      66.044  67.434  69.928  0.00  0.00    +0.000 C 
ATOM      2  C   UNL     1      65.515  67.243  70.531  0.00  0.00    +0.000 C 
ATOM      3  C   UNL     1      65.009  66.597  70.446  0.00  0.00    +0.000 C 
ATOM      4  C   UNL     1      65.032  66.142  69.757  0.00  0.00    +0.000 C 
ATOM      5  C   UNL     1      64.480  66.405  71.049  0.00  0.00    +0.000 C 
ATOM      6  C   UNL     1      64.457  66.860  71.737  0.00  0.00    +0.000 C 
ATOM      7  C   UNL     1      63.974  65.760  70.964  0.00  0.00    +0.000 C 
ATOM      8  N   UNL     1      63.444  65.568  71.567  0.00  0.00    +0.000 NA
ATOM      9  C   UNL     1      62.937  64.922  71.482  0.00  0.00    +0.000 A 
ATOM     10  C   UNL     1      62.960  64.467  70.793  0.00  0.00    +0.000 A 
ATOM     11  C   UNL     1      62.455  63.822  70.708  0.00  0.00    +0.000 A 
ATOM     12  C   UNL     1      61.926  63.631  71.311  0.00  0.00    +0.000 A 
ATOM     13  C   UNL     1      61.902  64.085  72.000  0.00  0.00    +0.000 A 
ATOM     14 CL   UNL     1      61.373  63.893  72.603  0.00  0.00    +0.000 Cl
ATOM     15  C   UNL     1      62.408  64.731  72.085  0.00  0.00    +0.000 A 
ATOM     16  S   UNL     1      61.419  62.985  71.226  0.00  0.00    +0.000 S 
ATOM     17  N   UNL     1      60.913  62.339  71.141  0.00  0.00    +0.000 NA
ATOM     18  O   UNL     1      61.100  63.137  71.972  0.00  0.00    +0.000 OA
ATOM     19  O   UNL     1      61.738  62.833  70.480  0.00  0.00    +0.000 OA
ATOM     20  S   UNL     1      63.490  64.659  70.190  0.00  0.00    +0.000 S 
ATOM     21  O   UNL     1      63.124  64.001  69.855  0.00  0.00    +0.000 OA
ATOM     22  O   UNL     1      63.892  64.622  69.471  0.00  0.00    +0.000 OA
ATOM     23  N   UNL     1      63.997  65.305  70.275  0.00  0.00    +0.000 NA
ENDROOT
TORSDOF 0
ENDMDL
MODEL 5
REMARK VINA RESULT:   -10.674      5.116      6.535
REMARK INTER + INTRA:         -10.674
REMARK INTER:                 -10.674
REMARK INTRA:                   0.000
REMARK UNBOUND:                 0.000
ROOT
REMARK  Name = mebutizide
REMARK                            x       y       z     vdW  Elec       q    Type
REMARK                         _______ _______ _______ _____ _____    ______ ____
ATOM      1  C   UNL     1      60.658  62.570  71.358  0.00  0.00    +0.000 C 
ATOM      2  C   UNL     1      61.009  63.211  71.739  0.00  0.00    +0.000 C 
ATOM      3  C   UNL     1      61.620  63.626  71.371  0.00  0.00    +0.000 C 
ATOM      4  C   UNL     1      61.880  63.399  70.621  0.00  0.00    +0.000 C 
ATOM      5  C   UNL     1      61.972  64.267  71.752  0.00  0.00    +0.000 C 
ATOM      6  C   UNL     1      61.713  64.494  72.502  0.00  0.00    +0.000 C 
ATOM      7  C   UNL     1      62.582  64.682  71.385  0.00  0.00    +0.000 C 
ATOM      8  N   UNL     1      62.935  65.323  71.766  0.00  0.00    +0.000 NA
ATOM      9  C   UNL     1      63.546  65.738  71.398  0.00  0.00    +0.000 A 
ATOM     10  C   UNL     1      63.805  65.511  70.648  0.00  0.00    +0.000 A 
ATOM     11  C   UNL     1      64.416  65.926  70.280  0.00  0.00    +0.000 A 
ATOM     12  C   UNL     1      64.767  66.567  70.661  0.00  0.00    +0.000 A 
ATOM     13  C   UNL     1      64.508  66.794  71.412  0.00  0.00    +0.000 A 
ATOM     14 CL   UNL     1      64.860  67.435  71.793  0.00  0.00    +0.000 Cl
ATOM     15  C   UNL     1      63.897  66.379  71.779  0.00  0.00    +0.000 A 
ATOM     16  S   UNL     1      65.378  66.982  70.293  0.00  0.00    +0.000 S 
ATOM     17  N   UNL     1      65.989  67.396  69.926  0.00  0.00    +0.000 NA
ATOM     18  O   UNL     1      65.431  67.483  70.947  0.00  0.00    +0.000 OA
ATOM     19  O   UNL     1      65.325  66.480  69.640  0.00  0.00    +0.000 OA
ATOM     20  S   UNL     1      63.453  64.870  70.266  0.00  0.00    +0.000 S 
ATOM     21  O   UNL     1      64.008  65.088  69.697  0.00  0.00    +0.000 OA
ATOM     22  O   UNL     1      63.294  64.305  69.687  0.00  0.00    +0.000 OA
ATOM     23  N   UNL     1      62.842  64.455  70.634  0.00  0.00    +0.000 NA
ENDROOT
TORSDOF 0
ENDMDL
MODEL 6
REMARK VINA RESULT:   -10.418      5.232      6.744
REMARK INTER + INTRA:         -10.418
REMARK INTER:                 -10.418
REMARK INTRA:                   0.000
REMARK UNBOUND:                 0.000
ROOT
REMARK  Name = mebutizide
REMARK                            x       y       z     vdW  Elec       q    Type
REMARK                         _______ _______ _______ _____ _____    ______ ____
ATOM      1  C   UNL     1      61.632  60.988  71.354  0.00  0.00    +0.000 C 
ATOM      2  C   UNL     1      61.634  61.621  71.883  0.00  0.00    +0.000 C 
ATOM      3  C   UNL     1      61.247  62.323  71.689  0.00  0.00    +0.000 C 
ATOM      4  C   UNL     1      60.858  62.393  70.964  0.00  0.00    +0.000 C 
ATOM      5  C   UNL     1      61.249  62.955  72.218  0.00  0.00    +0.000 C 
ATOM      6  C   UNL     1      61.638  62.886  72.942  0.00  0.00    +0.000 C 
ATOM      7  C   UNL     1      60.862  63.657  72.023  0.00  0.00    +0.000 C 
ATOM      8  N   UNL     1      60.864  64.290  72.553  0.00  0.00    +0.000 NA
ATOM      9  C   UNL     1      60.477  64.993  72.359  0.00  0.00    +0.000 A 
ATOM     10  C   UNL     1      60.088  65.062  71.633  0.00  0.00    +0.000 A 
ATOM     11  C   UNL     1      59.701  65.764  71.439  0.00  0.00    +0.000 A 
ATOM     12  C   UNL     1      59.703  66.396  71.968  0.00  0.00    +0.000 A 
ATOM     13  C   UNL     1      60.092  66.326  72.693  0.00  0.00    +0.000 A 
ATOM     14 CL   UNL     1      60.093  66.960  73.222  0.00  0.00    +0.000 Cl
ATOM     15  C   UNL     1      60.479  65.625  72.888  0.00  0.00    +0.000 A 
ATOM     16  S   UNL     1      59.316  67.099  71.774  0.00  0.00    +0.000 S 
ATOM     17  N   UNL     1      58.929  67.800  71.579  0.00  0.00    +0.000 NA
ATOM     18  O   UNL     1      59.542  67.423  72.498  0.00  0.00    +0.000 OA
ATOM     19  O   UNL     1      59.090  66.773  71.049  0.00  0.00    +0.000 OA
ATOM     20  S   UNL     1      60.086  64.429  71.104  0.00  0.00    +0.000 S 
ATOM     21  O   UNL     1      59.646  64.977  70.673  0.00  0.00    +0.000 OA
ATOM     22  O   UNL     1      59.931  63.987  70.425  0.00  0.00    +0.000 OA
ATOM     23  N   UNL     1      60.473  63.727  71.298  0.00  0.00    +0.000 NA
ENDROOT
TORSDOF 0
ENDMDL
MODEL 7
REMARK VINA RESULT:   -10.326      3.304      5.139
REMARK INTER + INTRA:         -10.326
REMARK INTER:                 -10.326
REMARK INTRA:                   0.000
REMARK UNBOUND:                 0.000
ROOT
REMARK  Name = mebutizide
REMARK                            x       y       z     vdW  Elec       q    Type
REMARK                         _______ _______ _______ _____ _____    ______ ____
ATOM      1  C   UNL     1      59.949  62.003  66.130  0.00  0.00    +0.000 C 
ATOM      2  C   UNL     1      60.384  62.532  66.589  0.00  0.00    +0.000 C 
ATOM      3  C   UNL     1      60.436  62.425  67.406  0.00  0.00    +0.000 C 
ATOM      4  C   UNL     1      60.052  61.787  67.764  0.00  0.00    +0.000 C 
ATOM      5  C   UNL     1      60.870  62.955  67.865  0.00  0.00    +0.000 C 
ATOM      6  C   UNL     1      61.254  63.592  67.508  0.00  0.00    +0.000 C 
ATOM      7  C   UNL     1      60.922  62.847  68.680  0.00  0.00    +0.000 C 
ATOM      8  N   UNL     1      61.357  63.377  69.140  0.00  0.00    +0.000 NA
ATOM      9  C   UNL     1      61.409  63.270  69.957  0.00  0.00    +0.000 A 
ATOM     10  C   UNL     1      61.026  62.632  70.314  0.00  0.00    +0.000 A 
ATOM     11  C   UNL     1      61.078  62.525  71.130  0.00  0.00    +0.000 A 
ATOM     12  C   UNL     1      61.512  63.054  71.589  0.00  0.00    +0.000 A 
ATOM     13  C   UNL     1      61.896  63.692  71.231  0.00  0.00    +0.000 A 
ATOM     14 CL   UNL     1      62.331  64.222  71.691  0.00  0.00    +0.000 Cl
ATOM     15  C   UNL     1      61.844  63.799  70.416  0.00  0.00    +0.000 A 
ATOM     16  S   UNL     1      61.565  62.947  72.406  0.00  0.00    +0.000 S 
ATOM     17  N   UNL     1      61.616  62.840  73.221  0.00  0.00    +0.000 NA
ATOM     18  O   UNL     1      62.037  63.621  72.464  0.00  0.00    +0.000 OA
ATOM     19  O   UNL     1      61.092  62.272  72.347  0.00  0.00    +0.000 OA
ATOM     20  S   UNL     1      60.591  62.102  69.855  0.00  0.00    +0.000 S 
ATOM     21  O   UNL     1      60.478  61.771  70.601  0.00  0.00    +0.000 OA
ATOM     22  O   UNL     1      60.117  61.457  69.655  0.00  0.00    +0.000 OA
ATOM     23  N   UNL     1      60.539  62.209  69.038  0.00  0.00    +0.000 NA
ENDROOT
TORSDOF 0
ENDMDL
MODEL 8
REMARK VINA RESULT:   -10.303      2.656      3.760
REMARK INTER + INTRA:         -10.303
REMARK INTER:                 -10.303
REMARK INTRA:                   0.000
REMARK UNBOUND:                 0.000
ROOT
REMARK  Name = mebutizide
REMARK                            x       y       z     vdW  Elec       q    Type
REMARK                         _______ _______ _______ _____ _____    ______ ____
ATOM      1  C   UNL     1      62.455  65.971  72.908  0.00  0.00    +0.000 C 
ATOM      2  C   UNL     1      61.995  65.327  72.677  0.00  0.00    +0.000 C 
ATOM      3  C   UNL     1      62.005  65.072  71.893  0.00  0.00    +0.000 C 
ATOM      4  C   UNL     1      62.477  65.462  71.338  0.00  0.00    +0.000 C 
ATOM      5  C   UNL     1      61.545  64.428  71.662  0.00  0.00    +0.000 C 
ATOM      6  C   UNL     1      61.074  64.038  72.216  0.00  0.00    +0.000 C 
ATOM      7  C   UNL     1      61.555  64.173  70.878  0.00  0.00    +0.000 C 
ATOM      8  N   UNL     1      61.095  63.529  70.646  0.00  0.00    +0.000 NA
ATOM      9  C   UNL     1      61.105  63.274  69.862  0.00  0.00    +0.000 A 
ATOM     10  C   UNL     1      61.577  63.664  69.307  0.00  0.00    +0.000 A 
ATOM     11  C   UNL     1      61.588  63.409  68.523  0.00  0.00    +0.000 A 
ATOM     12  C   UNL     1      61.127  62.765  68.292  0.00  0.00    +0.000 A 
ATOM     13  C   UNL     1      60.655  62.375  68.847  0.00  0.00    +0.000 A 
ATOM     14 CL   UNL     1      60.195  61.731  68.615  0.00  0.00    +0.000 Cl
ATOM     15  C   UNL     1      60.645  62.630  69.631  0.00  0.00    +0.000 A 
ATOM     16  S   UNL     1      61.138  62.510  67.508  0.00  0.00    +0.000 S 
ATOM     17  N   UNL     1      61.148  62.255  66.724  0.00  0.00    +0.000 NA
ATOM     18  O   UNL     1      60.599  61.913  67.695  0.00  0.00    +0.000 OA
ATOM     19  O   UNL     1      61.676  63.107  67.321  0.00  0.00    +0.000 OA
ATOM     20  S   UNL     1      62.038  64.308  69.539  0.00  0.00    +0.000 S 
ATOM     21  O   UNL     1      62.232  64.273  68.738  0.00  0.00    +0.000 OA
ATOM     22  O   UNL     1      62.566  64.940  69.491  0.00  0.00    +0.000 OA
ATOM     23  N   UNL     1      62.027  64.563  70.323  0.00  0.00    +0.000 NA
ENDROOT
TORSDOF 0
ENDMDL
MODEL 9
REMARK VINA RESULT:    -9.625      5.649      6.347
REMARK INTER + INTRA:          -9.625
REMARK INTER:                  -9.625
REMARK INTRA:                   0.000
REMARK UNBOUND:                 0.000
ROOT
REMARK  Name = mebutizide
REMARK                            x       y       z     vdW  Elec       q    Type
REMARK                         _______ _______ _______ _____ _____    ______ ____
ATOM      1  C   UNL     1      58.183  65.397  72.939  0.00  0.00    +0.000 C 
ATOM      2  C   UNL     1      58.703  64.961  72.470  0.00  0.00    +0.000 C 
ATOM      3  C   UNL     1      59.485  65.207  72.383  0.00  0.00    +0.000 C 
ATOM      4  C   UNL     1      59.748  65.890  72.765  0.00  0.00    +0.000 C 
ATOM      5  C   UNL     1      60.005  64.771  71.914  0.00  0.00    +0.000 C 
ATOM      6  C   UNL     1      59.743  64.088  71.532  0.00  0.00    +0.000 C 
ATOM      7  C   UNL     1      60.787  65.017  71.827  0.00  0.00    +0.000 C 
ATOM      8  N   UNL     1      61.308  64.581  71.358  0.00  0.00    +0.000 NA
ATOM      9  C   UNL     1      62.090  64.827  71.270  0.00  0.00    +0.000 A 
ATOM     10  C   UNL     1      62.353  65.510  71.652  0.00  0.00    +0.000 A 
ATOM     11  C   UNL     1      63.135  65.756  71.564  0.00  0.00    +0.000 A 
ATOM     12  C   UNL     1      63.655  65.321  71.096  0.00  0.00    +0.000 A 
ATOM     13  C   UNL     1      63.392  64.637  70.714  0.00  0.00    +0.000 A 
ATOM     14 CL   UNL     1      63.912  64.201  70.245  0.00  0.00    +0.000 Cl
ATOM     15  C   UNL     1      62.610  64.391  70.801  0.00  0.00    +0.000 A 
ATOM     16  S   UNL     1      64.438  65.567  71.008  0.00  0.00    +0.000 S 
ATOM     17  N   UNL     1      65.219  65.813  70.921  0.00  0.00    +0.000 NA
ATOM     18  O   UNL     1      64.586  64.920  70.517  0.00  0.00    +0.000 OA
ATOM     19  O   UNL     1      64.289  66.213  71.500  0.00  0.00    +0.000 OA
ATOM     20  S   UNL     1      61.833  65.946  72.121  0.00  0.00    +0.000 S 
ATOM     21  O   UNL     1      62.517  66.399  72.207  0.00  0.00    +0.000 OA
ATOM     22  O   UNL     1      61.551  66.540  72.619  0.00  0.00    +0.000 OA
ATOM     23  N   UNL     1      61.050  65.700  72.209  0.00  0.00    +0.000 NA
ENDROOT
TORSDOF 0
ENDMDL
