MODEL 1
REMARK VINA RESULT:   -10.560      0.000      0.000
REMARK INTER + INTRA:         -10.560
REMARK INTER:                 -10.560
REMARK INTRA:                   0.000
REMARK UNBOUND:                 0.000
ROOT
REMARK  Name = meclofenamic acid
REMARK                            x       y       z     vdW  Elec       q    Type
REMARK                         _______ _______ _______ _____ _____    ______ ____
ATOM      1  C   UNL     1      61.632  63.495  67.900  0.00  0.00    +0.000 C 
ATOM      2  C   UNL     1      60.993  63.103  67.551  0.00  0.00    +0.000 A 
ATOM      3  C   UNL     1      60.263  63.087  67.933  0.00  0.00    +0.000 A 
ATOM      4  C   UNL     1      59.625  62.696  67.585  0.00  0.00    +0.000 A 
ATOM      5  C   UNL     1      59.717  62.322  66.855  0.00  0.00    +0.000 A 
ATOM      6 CL   UNL     1      59.080  61.932  66.508  0.00  0.00    +0.000 Cl
ATOM      7  C   UNL     1      60.449  62.339  66.474  0.00  0.00    +0.000 A 
ATOM      8  N   UNL     1      60.543  61.965  65.744  0.00  0.00    +0.000 NA
ATOM      9  C   UNL     1      61.274  61.982  65.363  0.00  0.00    +0.000 A 
ATOM     10  C   UNL     1      61.912  62.373  65.710  0.00  0.00    +0.000 A 
ATOM     11  C   UNL     1      62.643  62.389  65.329  0.00  0.00    +0.000 A 
ATOM     12  C   UNL     1      62.737  62.016  64.599  0.00  0.00    +0.000 A 
ATOM     13  C   UNL     1      62.099  61.625  64.252  0.00  0.00    +0.000 A 
ATOM     14  C   UNL     1      61.367  61.608  64.633  0.00  0.00    +0.000 A 
ATOM     15  C   UNL     1      60.730  61.218  64.286  0.00  0.00    +0.000 C 
ATOM     16  O   UNL     1      59.998  61.200  64.667  0.00  0.00    +0.000 OA
ATOM     17  O   UNL     1      60.823  60.843  63.556  0.00  0.00    +0.000 OA
ATOM     18  C   UNL     1      61.087  62.730  66.822  0.00  0.00    +0.000 A 
ATOM     19 CL   UNL     1      61.819  62.746  66.439  0.00  0.00    +0.000 Cl
ENDROOT
TORSDOF 0
ENDMDL
MODEL 2
REMARK VINA RESULT:    -9.570      3.645      5.007
REMARK INTER + INTRA:          -9.570
REMARK INTER:                  -9.570
REMARK INTRA:                   0.000
REMARK UNBOUND:                 0.000
ROOT
REMARK  Name = meclofenamic acid
REMARK                            x       y       z     vdW  Elec       q    Type
REMARK                         _______ _______ _______ _____ _____    ______ ____
ATOM      1  C   UNL     1      61.244  62.964  72.778  0.00  0.00    +0.000 C 
ATOM      2  C   UNL     1      61.557  63.493  72.226  0.00  0.00    +0.000 A 
ATOM      3  C   UNL     1      61.973  64.157  72.482  0.00  0.00    +0.000 A 
ATOM      4  C   UNL     1      62.285  64.686  71.931  0.00  0.00    +0.000 A 
ATOM      5  C   UNL     1      62.181  64.550  71.124  0.00  0.00    +0.000 A 
ATOM      6 CL   UNL     1      62.493  65.078  70.573  0.00  0.00    +0.000 Cl
ATOM      7  C   UNL     1      61.764  63.885  70.868  0.00  0.00    +0.000 A 
ATOM      8  N   UNL     1      61.660  63.749  70.060  0.00  0.00    +0.000 NA
ATOM      9  C   UNL     1      61.243  63.084  69.805  0.00  0.00    +0.000 A 
ATOM     10  C   UNL     1      60.931  62.556  70.357  0.00  0.00    +0.000 A 
ATOM     11  C   UNL     1      60.515  61.892  70.101  0.00  0.00    +0.000 A 
ATOM     12  C   UNL     1      60.410  61.755  69.294  0.00  0.00    +0.000 A 
ATOM     13  C   UNL     1      60.722  62.283  68.743  0.00  0.00    +0.000 A 
ATOM     14  C   UNL     1      61.139  62.948  68.998  0.00  0.00    +0.000 A 
ATOM     15  C   UNL     1      61.451  63.476  68.448  0.00  0.00    +0.000 C 
ATOM     16  O   UNL     1      61.868  64.141  68.703  0.00  0.00    +0.000 OA
ATOM     17  O   UNL     1      61.347  63.340  67.640  0.00  0.00    +0.000 OA
ATOM     18  C   UNL     1      61.452  63.357  71.419  0.00  0.00    +0.000 A 
ATOM     19 CL   UNL     1      61.035  62.692  71.163  0.00  0.00    +0.000 Cl
ENDROOT
TORSDOF 0
ENDMDL
MODEL 3
REMARK VINA RESULT:    -9.283      4.195      5.899
REMARK INTER + INTRA:          -9.283
REMARK INTER:                  -9.283
REMARK INTRA:                   0.000
REMARK UNBOUND:                 0.000
ROOT
REMARK  Name = meclofenamic acid
REMARK                            x       y       z     vdW  Elec       q    Type
REMARK                         _______ _______ _______ _____ _____    ______ ____
ATOM      1  C   UNL     1      60.134  61.327  70.249  0.00  0.00    +0.000 C 
ATOM      2  C   UNL     1      60.512  61.955  69.868  0.00  0.00    +0.000 A 
ATOM      3  C   UNL     1      60.514  61.998  69.045  0.00  0.00    +0.000 A 
ATOM      4  C   UNL     1      60.892  62.625  68.665  0.00  0.00    +0.000 A 
ATOM      5  C   UNL     1      61.267  63.211  69.109  0.00  0.00    +0.000 A 
ATOM      6 CL   UNL     1      61.644  63.837  68.729  0.00  0.00    +0.000 Cl
ATOM      7  C   UNL     1      61.265  63.168  69.933  0.00  0.00    +0.000 A 
ATOM      8  N   UNL     1      61.641  63.754  70.378  0.00  0.00    +0.000 NA
ATOM      9  C   UNL     1      61.638  63.711  71.201  0.00  0.00    +0.000 A 
ATOM     10  C   UNL     1      61.261  63.083  71.581  0.00  0.00    +0.000 A 
ATOM     11  C   UNL     1      61.259  63.041  72.404  0.00  0.00    +0.000 A 
ATOM     12  C   UNL     1      61.634  63.626  72.849  0.00  0.00    +0.000 A 
ATOM     13  C   UNL     1      62.012  64.254  72.469  0.00  0.00    +0.000 A 
ATOM     14  C   UNL     1      62.014  64.296  71.645  0.00  0.00    +0.000 A 
ATOM     15  C   UNL     1      62.391  64.923  71.265  0.00  0.00    +0.000 C 
ATOM     16  O   UNL     1      62.394  64.966  70.442  0.00  0.00    +0.000 OA
ATOM     17  O   UNL     1      62.767  65.509  71.710  0.00  0.00    +0.000 OA
ATOM     18  C   UNL     1      60.887  62.540  70.313  0.00  0.00    +0.000 A 
ATOM     19 CL   UNL     1      60.886  62.499  71.137  0.00  0.00    +0.000 Cl
ENDROOT
TORSDOF 0
ENDMDL
MODEL 4
REMARK VINA RESULT:    -9.153      5.869      6.649
REMARK INTER + INTRA:          -9.153
REMARK INTER:                  -9.153
REMARK INTRA:                   0.000
REMARK UNBOUND:                 0.000
ROOT
REMARK  Name = meclofenamic acid
REMARK                            x       y       z     vdW  Elec       q    Type
REMARK                         _______ _______ _______ _____ _____    ______ ____
ATOM      1  C   UNL     1      61.493  62.427  70.969  0.00  0.00    +0.000 C 
ATOM      2  C   UNL     1      61.512  63.071  71.485  0.00  0.00    +0.000 A 
ATOM      3  C   UNL     1      60.985  63.107  72.118  0.00  0.00    +0.000 A 
ATOM      4  C   UNL     1      61.004  63.751  72.634  0.00  0.00    +0.000 A 
ATOM      5  C   UNL     1      61.550  64.358  72.518  0.00  0.00    +0.000 A 
ATOM      6 CL   UNL     1      61.569  65.001  73.033  0.00  0.00    +0.000 Cl
ATOM      7  C   UNL     1      62.078  64.322  71.884  0.00  0.00    +0.000 A 
ATOM      8  N   UNL     1      62.624  64.929  71.767  0.00  0.00    +0.000 NA
ATOM      9  C   UNL     1      63.151  64.892  71.133  0.00  0.00    +0.000 A 
ATOM     10  C   UNL     1      63.132  64.249  70.617  0.00  0.00    +0.000 A 
ATOM     11  C   UNL     1      63.660  64.213  69.984  0.00  0.00    +0.000 A 
ATOM     12  C   UNL     1      64.206  64.820  69.866  0.00  0.00    +0.000 A 
ATOM     13  C   UNL     1      64.225  65.463  70.382  0.00  0.00    +0.000 A 
ATOM     14  C   UNL     1      63.697  65.500  71.016  0.00  0.00    +0.000 A 
ATOM     15  C   UNL     1      63.716  66.142  71.532  0.00  0.00    +0.000 C 
ATOM     16  O   UNL     1      63.189  66.179  72.165  0.00  0.00    +0.000 OA
ATOM     17  O   UNL     1      64.262  66.750  71.415  0.00  0.00    +0.000 OA
ATOM     18  C   UNL     1      62.059  63.678  71.368  0.00  0.00    +0.000 A 
ATOM     19 CL   UNL     1      62.587  63.643  70.734  0.00  0.00    +0.000 Cl
ENDROOT
TORSDOF 0
ENDMDL
MODEL 5
REMARK VINA RESULT:    -8.928      4.426      5.624
REMARK INTER + INTRA:          -8.928
REMARK INTER:                  -8.928
REMARK INTRA:                   0.000
REMARK UNBOUND:                 0.000
ROOT
REMARK  Name = meclofenamic acid
REMARK                            x       y       z     vdW  Elec       q    Type
REMARK                         _______ _______ _______ _____ _____    ______ ____
ATOM      1  C   UNL     1      60.483  62.172  68.876  0.00  0.00    +0.000 C 
ATOM      2  C   UNL     1      60.696  62.218  69.673  0.00  0.00    +0.000 A 
ATOM      3  C   UNL     1      60.483  61.614  70.192  0.00  0.00    +0.000 A 
ATOM      4  C   UNL     1      60.697  61.660  70.988  0.00  0.00    +0.000 A 
ATOM      5  C   UNL     1      61.123  62.309  71.264  0.00  0.00    +0.000 A 
ATOM      6 CL   UNL     1      61.336  62.355  72.059  0.00  0.00    +0.000 Cl
ATOM      7  C   UNL     1      61.336  62.914  70.744  0.00  0.00    +0.000 A 
ATOM      8  N   UNL     1      61.763  63.565  71.021  0.00  0.00    +0.000 NA
ATOM      9  C   UNL     1      61.975  64.169  70.501  0.00  0.00    +0.000 A 
ATOM     10  C   UNL     1      61.762  64.123  69.705  0.00  0.00    +0.000 A 
ATOM     11  C   UNL     1      61.975  64.727  69.186  0.00  0.00    +0.000 A 
ATOM     12  C   UNL     1      62.401  65.378  69.462  0.00  0.00    +0.000 A 
ATOM     13  C   UNL     1      62.614  65.424  70.257  0.00  0.00    +0.000 A 
ATOM     14  C   UNL     1      62.401  64.819  70.777  0.00  0.00    +0.000 A 
ATOM     15  C   UNL     1      62.614  64.864  71.572  0.00  0.00    +0.000 C 
ATOM     16  O   UNL     1      62.402  64.260  72.092  0.00  0.00    +0.000 OA
ATOM     17  O   UNL     1      63.041  65.515  71.849  0.00  0.00    +0.000 OA
ATOM     18  C   UNL     1      61.123  62.869  69.949  0.00  0.00    +0.000 A 
ATOM     19 CL   UNL     1      61.336  63.474  69.429  0.00  0.00    +0.000 Cl
ENDROOT
TORSDOF 0
ENDMDL
MODEL 6
REMARK VINA RESULT:    -8.825      5.947      7.277
REMARK INTER + INTRA:          -8.825
REMARK INTER:                  -8.825
REMARK INTRA:                   0.000
REMARK UNBOUND:                 0.000
ROOT
REMARK  Name = meclofenamic acid
REMARK                            x       y       z     vdW  Elec       q    Type
REMARK                         _______ _______ _______ _____ _____    ______ ____
ATOM      1  C   UNL     1      61.945  65.197  72.728  0.00  0.00    +0.000 C 
ATOM      2  C   UNL     1      62.299  64.948  72.025  0.00  0.00    +0.000 A 
ATOM      3  C   UNL     1      62.024  64.272  71.641  0.00  0.00    +0.000 A 
ATOM      4  C   UNL     1      62.377  64.023  70.939  0.00  0.00    +0.000 A 
ATOM      5  C   UNL     1      63.007  64.450  70.620  0.00  0.00    +0.000 A 
ATOM      6 CL   UNL     1      63.360  64.202  69.918  0.00  0.00    +0.000 Cl
ATOM      7  C   UNL     1      63.283  65.127  71.004  0.00  0.00    +0.000 A 
ATOM      8  N   UNL     1      63.913  65.554  70.685  0.00  0.00    +0.000 NA
ATOM      9  C   UNL     1      64.189  66.230  71.069  0.00  0.00    +0.000 A 
ATOM     10  C   UNL     1      63.835  66.479  71.772  0.00  0.00    +0.000 A 
ATOM     11  C   UNL     1      64.111  67.155  72.155  0.00  0.00    +0.000 A 
ATOM     12  C   UNL     1      64.740  67.582  71.837  0.00  0.00    +0.000 A 
ATOM     13  C   UNL     1      65.094  67.334  71.134  0.00  0.00    +0.000 A 
ATOM     14  C   UNL     1      64.818  66.657  70.750  0.00  0.00    +0.000 A 
ATOM     15  C   UNL     1      65.171  66.409  70.048  0.00  0.00    +0.000 C 
ATOM     16  O   UNL     1      64.896  65.733  69.664  0.00  0.00    +0.000 OA
ATOM     17  O   UNL     1      65.802  66.836  69.729  0.00  0.00    +0.000 OA
ATOM     18  C   UNL     1      62.929  65.376  71.706  0.00  0.00    +0.000 A 
ATOM     19 CL   UNL     1      63.206  66.052  72.090  0.00  0.00    +0.000 Cl
ENDROOT
TORSDOF 0
ENDMDL
MODEL 7
REMARK VINA RESULT:    -8.823      5.674      7.250
REMARK INTER + INTRA:          -8.823
REMARK INTER:                  -8.823
REMARK INTRA:                   0.000
REMARK UNBOUND:                 0.000
ROOT
REMARK  Name = meclofenamic acid
REMARK                            x       y       z     vdW  Elec       q    Type
REMARK                         _______ _______ _______ _____ _____    ______ ____
ATOM      1  C   UNL     1      65.873  67.058  69.855  0.00  0.00    +0.000 C 
ATOM      2  C   UNL     1      65.380  67.064  70.519  0.00  0.00    +0.000 A 
ATOM      3  C   UNL     1      65.488  67.631  71.106  0.00  0.00    +0.000 A 
ATOM      4  C   UNL     1      64.997  67.637  71.769  0.00  0.00    +0.000 A 
ATOM      5  C   UNL     1      64.398  67.076  71.844  0.00  0.00    +0.000 A 
ATOM      6 CL   UNL     1      63.907  67.082  72.506  0.00  0.00    +0.000 Cl
ATOM      7  C   UNL     1      64.290  66.507  71.255  0.00  0.00    +0.000 A 
ATOM      8  N   UNL     1      63.690  65.945  71.329  0.00  0.00    +0.000 NA
ATOM      9  C   UNL     1      63.583  65.377  70.741  0.00  0.00    +0.000 A 
ATOM     10  C   UNL     1      64.074  65.371  70.078  0.00  0.00    +0.000 A 
ATOM     11  C   UNL     1      63.966  64.803  69.490  0.00  0.00    +0.000 A 
ATOM     12  C   UNL     1      63.367  64.240  69.564  0.00  0.00    +0.000 A 
ATOM     13  C   UNL     1      62.875  64.247  70.227  0.00  0.00    +0.000 A 
ATOM     14  C   UNL     1      62.983  64.815  70.816  0.00  0.00    +0.000 A 
ATOM     15  C   UNL     1      62.492  64.821  71.477  0.00  0.00    +0.000 C 
ATOM     16  O   UNL     1      62.600  65.389  72.066  0.00  0.00    +0.000 OA
ATOM     17  O   UNL     1      61.893  64.259  71.552  0.00  0.00    +0.000 OA
ATOM     18  C   UNL     1      64.781  66.501  70.592  0.00  0.00    +0.000 A 
ATOM     19 CL   UNL     1      64.673  65.932  70.004  0.00  0.00    +0.000 Cl
ENDROOT
TORSDOF 0
ENDMDL
MODEL 8
REMARK VINA RESULT:    -8.769     24.905     26.001
REMARK INTER + INTRA:          -8.769
REMARK INTER:                  -8.769
REMARK INTRA:                   0.000
REMARK UNBOUND:                 0.000
ROOT
REMARK  Name = meclofenamic acid
REMARK                            x       y       z     vdW  Elec       q    Type
REMARK                         _______ _______ _______ _____ _____    ______ ____
ATOM      1  C   UNL     1      70.958  78.516  48.098  0.00  0.00    +0.000 C 
ATOM      2  C   UNL     1      71.515  78.923  48.553  0.00  0.00    +0.000 A 
ATOM      3  C   UNL     1      72.302  78.953  48.310  0.00  0.00    +0.000 A 
ATOM      4  C   UNL     1      72.858  79.359  48.764  0.00  0.00    +0.000 A 
ATOM      5  C   UNL     1      72.627  79.734  49.462  0.00  0.00    +0.000 A 
ATOM      6 CL   UNL     1      73.183  80.139  49.916  0.00  0.00    +0.000 Cl
ATOM      7  C   UNL     1      71.839  79.703  49.705  0.00  0.00    +0.000 A 
ATOM      8  N   UNL     1      71.607  80.079  50.403  0.00  0.00    +0.000 NA
ATOM      9  C   UNL     1      70.819  80.047  50.645  0.00  0.00    +0.000 A 
ATOM     10  C   UNL     1      70.263  79.642  50.190  0.00  0.00    +0.000 A 
ATOM     11  C   UNL     1      69.476  79.611  50.433  0.00  0.00    +0.000 A 
ATOM     12  C   UNL     1      69.244  79.986  51.131  0.00  0.00    +0.000 A 
ATOM     13  C   UNL     1      69.800  80.392  51.585  0.00  0.00    +0.000 A 
ATOM     14  C   UNL     1      70.588  80.423  51.342  0.00  0.00    +0.000 A 
ATOM     15  C   UNL     1      71.144  80.828  51.796  0.00  0.00    +0.000 C 
ATOM     16  O   UNL     1      71.932  80.859  51.554  0.00  0.00    +0.000 OA
ATOM     17  O   UNL     1      70.912  81.203  52.494  0.00  0.00    +0.000 OA
ATOM     18  C   UNL     1      71.282  79.298  49.250  0.00  0.00    +0.000 A 
ATOM     19 CL   UNL     1      70.495  79.267  49.494  0.00  0.00    +0.000 Cl
ENDROOT
TORSDOF 0
ENDMDL
MODEL 9
REMARK VINA RESULT:    -8.710      5.579      5.793
REMARK INTER + INTRA:          -8.710
REMARK INTER:                  -8.710
REMARK INTRA:                   0.000
REMARK UNBOUND:                 0.000
ROOT
REMARK  Name = meclofenamic acid
REMARK                            x       y       z     vdW  Elec       q    Type
REMARK                         _______ _______ _______ _____ _____    ______ ____
ATOM      1  C   UNL     1      61.619  62.812  72.463  0.00  0.00    +0.000 C 
ATOM      2  C   UNL     1      61.117  63.323  72.052  0.00  0.00    +0.000 A 
ATOM      3  C   UNL     1      60.302  63.285  72.172  0.00  0.00    +0.000 A 
ATOM      4  C   UNL     1      59.800  63.795  71.761  0.00  0.00    +0.000 A 
ATOM      5  C   UNL     1      60.114  64.344  71.231  0.00  0.00    +0.000 A 
ATOM      6 CL   UNL     1      59.613  64.854  70.821  0.00  0.00    +0.000 Cl
ATOM      7  C   UNL     1      60.930  64.382  71.112  0.00  0.00    +0.000 A 
ATOM      8  N   UNL     1      61.244  64.932  70.582  0.00  0.00    +0.000 NA
ATOM      9  C   UNL     1      62.059  64.970  70.463  0.00  0.00    +0.000 A 
ATOM     10  C   UNL     1      62.561  64.459  70.873  0.00  0.00    +0.000 A 
ATOM     11  C   UNL     1      63.376  64.497  70.754  0.00  0.00    +0.000 A 
ATOM     12  C   UNL     1      63.690  65.046  70.224  0.00  0.00    +0.000 A 
ATOM     13  C   UNL     1      63.189  65.557  69.813  0.00  0.00    +0.000 A 
ATOM     14  C   UNL     1      62.373  65.519  69.933  0.00  0.00    +0.000 A 
ATOM     15  C   UNL     1      61.872  66.029  69.523  0.00  0.00    +0.000 C 
ATOM     16  O   UNL     1      61.056  65.991  69.642  0.00  0.00    +0.000 OA
ATOM     17  O   UNL     1      62.186  66.578  68.992  0.00  0.00    +0.000 OA
ATOM     18  C   UNL     1      61.431  63.872  71.522  0.00  0.00    +0.000 A 
ATOM     19 CL   UNL     1      62.247  63.911  71.403  0.00  0.00    +0.000 Cl
ENDROOT
TORSDOF 0
ENDMDL
