MODEL 1
REMARK VINA RESULT:   -13.614      0.000      0.000
REMARK INTER + INTRA:         -13.614
REMARK INTER:                 -13.614
REMARK INTRA:                   0.000
REMARK UNBOUND:                 0.000
ROOT
REMARK  Name = meclozine
REMARK                            x       y       z     vdW  Elec       q    Type
REMARK                         _______ _______ _______ _____ _____    ______ ____
ATOM      1  C   UNL     1      61.905  63.018  66.130  0.00  0.00    +0.000 C 
ATOM      2  C   UNL     1      61.193  62.655  66.339  0.00  0.00    +0.000 A 
ATOM      3  C   UNL     1      60.730  62.293  65.760  0.00  0.00    +0.000 A 
ATOM      4  C   UNL     1      60.018  61.931  65.969  0.00  0.00    +0.000 A 
ATOM      5  C   UNL     1      59.771  61.931  66.757  0.00  0.00    +0.000 A 
ATOM      6  C   UNL     1      60.235  62.293  67.334  0.00  0.00    +0.000 A 
ATOM      7  C   UNL     1      59.987  62.293  68.122  0.00  0.00    +0.000 C 
ATOM      8  N   UNL     1      60.451  62.655  68.700  0.00  0.00    +0.000 NA
ATOM      9  C   UNL     1      60.203  62.655  69.487  0.00  0.00    +0.000 C 
ATOM     10  C   UNL     1      60.667  63.018  70.065  0.00  0.00    +0.000 C 
ATOM     11  N   UNL     1      61.378  63.380  69.856  0.00  0.00    +0.000 NA
ATOM     12  C   UNL     1      61.625  63.380  69.070  0.00  0.00    +0.000 C 
ATOM     13  C   UNL     1      61.162  63.018  68.491  0.00  0.00    +0.000 C 
ATOM     14  C   UNL     1      61.841  63.742  70.434  0.00  0.00    +0.000 C 
ATOM     15  C   UNL     1      61.594  63.742  71.222  0.00  0.00    +0.000 A 
ATOM     16  C   UNL     1      60.883  63.380  71.430  0.00  0.00    +0.000 A 
ATOM     17  C   UNL     1      60.635  63.380  72.218  0.00  0.00    +0.000 A 
ATOM     18  C   UNL     1      61.099  63.743  72.796  0.00  0.00    +0.000 A 
ATOM     19  C   UNL     1      61.811  64.105  72.587  0.00  0.00    +0.000 A 
ATOM     20  C   UNL     1      62.058  64.105  71.800  0.00  0.00    +0.000 A 
ATOM     21  C   UNL     1      62.553  64.105  70.225  0.00  0.00    +0.000 A 
ATOM     22  C   UNL     1      63.017  64.467  70.804  0.00  0.00    +0.000 A 
ATOM     23  C   UNL     1      63.728  64.829  70.595  0.00  0.00    +0.000 A 
ATOM     24  C   UNL     1      63.976  64.829  69.808  0.00  0.00    +0.000 A 
ATOM     25 CL   UNL     1      64.686  65.191  69.599  0.00  0.00    +0.000 Cl
ATOM     26  C   UNL     1      63.512  64.467  69.230  0.00  0.00    +0.000 A 
ATOM     27  C   UNL     1      62.801  64.104  69.439  0.00  0.00    +0.000 A 
ATOM     28  C   UNL     1      60.946  62.655  67.126  0.00  0.00    +0.000 A 
ENDROOT
TORSDOF 0
ENDMDL
MODEL 2
REMARK VINA RESULT:   -13.529      2.713      4.998
REMARK INTER + INTRA:         -13.529
REMARK INTER:                 -13.529
REMARK INTRA:                   0.000
REMARK UNBOUND:                 0.000
ROOT
REMARK  Name = meclozine
REMARK                            x       y       z     vdW  Elec       q    Type
REMARK                         _______ _______ _______ _____ _____    ______ ____
ATOM      1  C   UNL     1      63.862  67.567  72.099  0.00  0.00    +0.000 C 
ATOM      2  C   UNL     1      64.369  67.096  71.647  0.00  0.00    +0.000 A 
ATOM      3  C   UNL     1      65.126  67.367  71.460  0.00  0.00    +0.000 A 
ATOM      4  C   UNL     1      65.632  66.897  71.009  0.00  0.00    +0.000 A 
ATOM      5  C   UNL     1      65.381  66.155  70.745  0.00  0.00    +0.000 A 
ATOM      6  C   UNL     1      64.625  65.886  70.933  0.00  0.00    +0.000 A 
ATOM      7  C   UNL     1      64.374  65.145  70.669  0.00  0.00    +0.000 C 
ATOM      8  N   UNL     1      63.618  64.875  70.856  0.00  0.00    +0.000 NA
ATOM      9  C   UNL     1      63.367  64.134  70.592  0.00  0.00    +0.000 C 
ATOM     10  C   UNL     1      62.610  63.864  70.780  0.00  0.00    +0.000 C 
ATOM     11  N   UNL     1      62.104  64.334  71.231  0.00  0.00    +0.000 NA
ATOM     12  C   UNL     1      62.355  65.074  71.494  0.00  0.00    +0.000 C 
ATOM     13  C   UNL     1      63.111  65.345  71.307  0.00  0.00    +0.000 C 
ATOM     14  C   UNL     1      61.348  64.064  71.418  0.00  0.00    +0.000 C 
ATOM     15  C   UNL     1      61.097  63.323  71.154  0.00  0.00    +0.000 A 
ATOM     16  C   UNL     1      61.603  62.853  70.703  0.00  0.00    +0.000 A 
ATOM     17  C   UNL     1      61.353  62.112  70.439  0.00  0.00    +0.000 A 
ATOM     18  C   UNL     1      60.596  61.842  70.627  0.00  0.00    +0.000 A 
ATOM     19  C   UNL     1      60.090  62.313  71.078  0.00  0.00    +0.000 A 
ATOM     20  C   UNL     1      60.340  63.053  71.341  0.00  0.00    +0.000 A 
ATOM     21  C   UNL     1      60.841  64.535  71.869  0.00  0.00    +0.000 A 
ATOM     22  C   UNL     1      60.085  64.264  72.056  0.00  0.00    +0.000 A 
ATOM     23  C   UNL     1      59.579  64.734  72.507  0.00  0.00    +0.000 A 
ATOM     24  C   UNL     1      59.829  65.475  72.771  0.00  0.00    +0.000 A 
ATOM     25 CL   UNL     1      59.324  65.945  73.221  0.00  0.00    +0.000 Cl
ATOM     26  C   UNL     1      60.586  65.745  72.583  0.00  0.00    +0.000 A 
ATOM     27  C   UNL     1      61.092  65.275  72.133  0.00  0.00    +0.000 A 
ATOM     28  C   UNL     1      64.119  66.356  71.384  0.00  0.00    +0.000 A 
ENDROOT
TORSDOF 0
ENDMDL
MODEL 3
REMARK VINA RESULT:   -13.057      2.979      5.037
REMARK INTER + INTRA:         -13.057
REMARK INTER:                 -13.057
REMARK INTRA:                   0.000
REMARK UNBOUND:                 0.000
ROOT
REMARK  Name = meclozine
REMARK                            x       y       z     vdW  Elec       q    Type
REMARK                         _______ _______ _______ _____ _____    ______ ____
ATOM      1  C   UNL     1      64.754  65.036  70.599  0.00  0.00    +0.000 C 
ATOM      2  C   UNL     1      64.721  65.772  70.972  0.00  0.00    +0.000 A 
ATOM      3  C   UNL     1      65.383  66.265  70.970  0.00  0.00    +0.000 A 
ATOM      4  C   UNL     1      65.350  67.000  71.343  0.00  0.00    +0.000 A 
ATOM      5  C   UNL     1      64.655  67.243  71.718  0.00  0.00    +0.000 A 
ATOM      6  C   UNL     1      63.994  66.749  71.719  0.00  0.00    +0.000 A 
ATOM      7  C   UNL     1      63.299  66.991  72.093  0.00  0.00    +0.000 C 
ATOM      8  N   UNL     1      62.639  66.497  72.095  0.00  0.00    +0.000 NA
ATOM      9  C   UNL     1      61.944  66.739  72.469  0.00  0.00    +0.000 C 
ATOM     10  C   UNL     1      61.283  66.246  72.471  0.00  0.00    +0.000 C 
ATOM     11  N   UNL     1      61.316  65.510  72.098  0.00  0.00    +0.000 NA
ATOM     12  C   UNL     1      62.010  65.269  71.724  0.00  0.00    +0.000 C 
ATOM     13  C   UNL     1      62.672  65.762  71.722  0.00  0.00    +0.000 C 
ATOM     14  C   UNL     1      60.656  65.017  72.100  0.00  0.00    +0.000 C 
ATOM     15  C   UNL     1      59.961  65.259  72.474  0.00  0.00    +0.000 A 
ATOM     16  C   UNL     1      59.928  65.994  72.847  0.00  0.00    +0.000 A 
ATOM     17  C   UNL     1      59.233  66.236  73.221  0.00  0.00    +0.000 A 
ATOM     18  C   UNL     1      58.572  65.742  73.222  0.00  0.00    +0.000 A 
ATOM     19  C   UNL     1      58.605  65.007  72.850  0.00  0.00    +0.000 A 
ATOM     20  C   UNL     1      59.299  64.766  72.476  0.00  0.00    +0.000 A 
ATOM     21  C   UNL     1      60.689  64.281  71.727  0.00  0.00    +0.000 A 
ATOM     22  C   UNL     1      60.027  63.788  71.729  0.00  0.00    +0.000 A 
ATOM     23  C   UNL     1      60.060  63.053  71.356  0.00  0.00    +0.000 A 
ATOM     24  C   UNL     1      60.755  62.811  70.981  0.00  0.00    +0.000 A 
ATOM     25 CL   UNL     1      60.788  62.076  70.609  0.00  0.00    +0.000 Cl
ATOM     26  C   UNL     1      61.416  63.304  70.980  0.00  0.00    +0.000 A 
ATOM     27  C   UNL     1      61.383  64.040  71.353  0.00  0.00    +0.000 A 
ATOM     28  C   UNL     1      64.027  66.013  71.346  0.00  0.00    +0.000 A 
ENDROOT
TORSDOF 0
ENDMDL
MODEL 4
REMARK VINA RESULT:   -12.790      1.561      4.330
REMARK INTER + INTRA:         -12.790
REMARK INTER:                 -12.790
REMARK INTRA:                   0.000
REMARK UNBOUND:                 0.000
ROOT
REMARK  Name = meclozine
REMARK                            x       y       z     vdW  Elec       q    Type
REMARK                         _______ _______ _______ _____ _____    ______ ____
ATOM      1  C   UNL     1      64.437  66.324  69.063  0.00  0.00    +0.000 C 
ATOM      2  C   UNL     1      64.459  66.331  69.888  0.00  0.00    +0.000 A 
ATOM      3  C   UNL     1      64.956  66.858  70.283  0.00  0.00    +0.000 A 
ATOM      4  C   UNL     1      64.978  66.866  71.107  0.00  0.00    +0.000 A 
ATOM      5  C   UNL     1      64.502  66.346  71.538  0.00  0.00    +0.000 A 
ATOM      6  C   UNL     1      64.005  65.819  71.142  0.00  0.00    +0.000 A 
ATOM      7  C   UNL     1      63.530  65.299  71.572  0.00  0.00    +0.000 C 
ATOM      8  N   UNL     1      63.033  64.773  71.177  0.00  0.00    +0.000 NA
ATOM      9  C   UNL     1      62.557  64.253  71.607  0.00  0.00    +0.000 C 
ATOM     10  C   UNL     1      62.060  63.727  71.212  0.00  0.00    +0.000 C 
ATOM     11  N   UNL     1      62.038  63.720  70.387  0.00  0.00    +0.000 NA
ATOM     12  C   UNL     1      62.513  64.239  69.958  0.00  0.00    +0.000 C 
ATOM     13  C   UNL     1      63.011  64.766  70.352  0.00  0.00    +0.000 C 
ATOM     14  C   UNL     1      61.541  63.193  69.992  0.00  0.00    +0.000 C 
ATOM     15  C   UNL     1      61.066  62.673  70.422  0.00  0.00    +0.000 A 
ATOM     16  C   UNL     1      61.087  62.680  71.246  0.00  0.00    +0.000 A 
ATOM     17  C   UNL     1      60.611  62.161  71.676  0.00  0.00    +0.000 A 
ATOM     18  C   UNL     1      60.115  61.634  71.281  0.00  0.00    +0.000 A 
ATOM     19  C   UNL     1      60.093  61.627  70.456  0.00  0.00    +0.000 A 
ATOM     20  C   UNL     1      60.568  62.146  70.027  0.00  0.00    +0.000 A 
ATOM     21  C   UNL     1      61.520  63.186  69.167  0.00  0.00    +0.000 A 
ATOM     22  C   UNL     1      61.022  62.659  68.772  0.00  0.00    +0.000 A 
ATOM     23  C   UNL     1      61.000  62.652  67.948  0.00  0.00    +0.000 A 
ATOM     24  C   UNL     1      61.476  63.172  67.517  0.00  0.00    +0.000 A 
ATOM     25 CL   UNL     1      61.454  63.165  66.694  0.00  0.00    +0.000 Cl
ATOM     26  C   UNL     1      61.973  63.698  67.913  0.00  0.00    +0.000 A 
ATOM     27  C   UNL     1      61.995  63.705  68.738  0.00  0.00    +0.000 A 
ATOM     28  C   UNL     1      63.984  65.812  70.317  0.00  0.00    +0.000 A 
ENDROOT
TORSDOF 0
ENDMDL
MODEL 5
REMARK VINA RESULT:   -12.558      2.983      5.205
REMARK INTER + INTRA:         -12.558
REMARK INTER:                 -12.558
REMARK INTRA:                   0.000
REMARK UNBOUND:                 0.000
ROOT
REMARK  Name = meclozine
REMARK                            x       y       z     vdW  Elec       q    Type
REMARK                         _______ _______ _______ _____ _____    ______ ____
ATOM      1  C   UNL     1      57.729  65.076  72.902  0.00  0.00    +0.000 C 
ATOM      2  C   UNL     1      57.961  65.868  72.923  0.00  0.00    +0.000 A 
ATOM      3  C   UNL     1      57.439  66.443  73.202  0.00  0.00    +0.000 A 
ATOM      4  C   UNL     1      57.672  67.235  73.222  0.00  0.00    +0.000 A 
ATOM      5  C   UNL     1      58.426  67.451  72.964  0.00  0.00    +0.000 A 
ATOM      6  C   UNL     1      58.946  66.875  72.686  0.00  0.00    +0.000 A 
ATOM      7  C   UNL     1      59.700  67.091  72.428  0.00  0.00    +0.000 C 
ATOM      8  N   UNL     1      60.221  66.515  72.149  0.00  0.00    +0.000 NA
ATOM      9  C   UNL     1      60.975  66.731  71.891  0.00  0.00    +0.000 C 
ATOM     10  C   UNL     1      61.496  66.156  71.613  0.00  0.00    +0.000 C 
ATOM     11  N   UNL     1      61.263  65.364  71.592  0.00  0.00    +0.000 NA
ATOM     12  C   UNL     1      60.511  65.149  71.850  0.00  0.00    +0.000 C 
ATOM     13  C   UNL     1      59.989  65.724  72.129  0.00  0.00    +0.000 C 
ATOM     14  C   UNL     1      61.784  64.789  71.314  0.00  0.00    +0.000 C 
ATOM     15  C   UNL     1      62.538  65.004  71.056  0.00  0.00    +0.000 A 
ATOM     16  C   UNL     1      62.770  65.796  71.076  0.00  0.00    +0.000 A 
ATOM     17  C   UNL     1      63.524  66.012  70.818  0.00  0.00    +0.000 A 
ATOM     18  C   UNL     1      64.045  65.436  70.540  0.00  0.00    +0.000 A 
ATOM     19  C   UNL     1      63.813  64.645  70.519  0.00  0.00    +0.000 A 
ATOM     20  C   UNL     1      63.060  64.429  70.777  0.00  0.00    +0.000 A 
ATOM     21  C   UNL     1      61.552  63.997  71.293  0.00  0.00    +0.000 A 
ATOM     22  C   UNL     1      62.074  63.422  71.014  0.00  0.00    +0.000 A 
ATOM     23  C   UNL     1      61.842  62.630  70.993  0.00  0.00    +0.000 A 
ATOM     24  C   UNL     1      61.088  62.414  71.251  0.00  0.00    +0.000 A 
ATOM     25 CL   UNL     1      60.856  61.624  71.231  0.00  0.00    +0.000 Cl
ATOM     26  C   UNL     1      60.567  62.990  71.530  0.00  0.00    +0.000 A 
ATOM     27  C   UNL     1      60.799  63.781  71.551  0.00  0.00    +0.000 A 
ATOM     28  C   UNL     1      58.714  66.084  72.665  0.00  0.00    +0.000 A 
ENDROOT
TORSDOF 0
ENDMDL
MODEL 6
REMARK VINA RESULT:   -12.450      2.299      3.869
REMARK INTER + INTRA:         -12.450
REMARK INTER:                 -12.450
REMARK INTRA:                   0.000
REMARK UNBOUND:                 0.000
ROOT
REMARK  Name = meclozine
REMARK                            x       y       z     vdW  Elec       q    Type
REMARK                         _______ _______ _______ _____ _____    ______ ____
ATOM      1  C   UNL     1      59.840  64.406  69.826  0.00  0.00    +0.000 C 
ATOM      2  C   UNL     1      60.386  64.070  69.305  0.00  0.00    +0.000 A 
ATOM      3  C   UNL     1      60.133  63.525  68.739  0.00  0.00    +0.000 A 
ATOM      4  C   UNL     1      60.678  63.189  68.219  0.00  0.00    +0.000 A 
ATOM      5  C   UNL     1      61.475  63.397  68.264  0.00  0.00    +0.000 A 
ATOM      6  C   UNL     1      61.727  63.942  68.831  0.00  0.00    +0.000 A 
ATOM      7  C   UNL     1      62.524  64.150  68.877  0.00  0.00    +0.000 C 
ATOM      8  N   UNL     1      62.776  64.694  69.443  0.00  0.00    +0.000 NA
ATOM      9  C   UNL     1      63.574  64.902  69.489  0.00  0.00    +0.000 C 
ATOM     10  C   UNL     1      63.825  65.447  70.055  0.00  0.00    +0.000 C 
ATOM     11  N   UNL     1      63.280  65.783  70.575  0.00  0.00    +0.000 NA
ATOM     12  C   UNL     1      62.484  65.575  70.529  0.00  0.00    +0.000 C 
ATOM     13  C   UNL     1      62.231  65.030  69.963  0.00  0.00    +0.000 C 
ATOM     14  C   UNL     1      63.532  66.327  71.141  0.00  0.00    +0.000 C 
ATOM     15  C   UNL     1      64.330  66.536  71.188  0.00  0.00    +0.000 A 
ATOM     16  C   UNL     1      64.874  66.200  70.667  0.00  0.00    +0.000 A 
ATOM     17  C   UNL     1      65.672  66.408  70.713  0.00  0.00    +0.000 A 
ATOM     18  C   UNL     1      65.924  66.952  71.279  0.00  0.00    +0.000 A 
ATOM     19  C   UNL     1      65.379  67.288  71.800  0.00  0.00    +0.000 A 
ATOM     20  C   UNL     1      64.582  67.080  71.754  0.00  0.00    +0.000 A 
ATOM     21  C   UNL     1      62.987  66.664  71.662  0.00  0.00    +0.000 A 
ATOM     22  C   UNL     1      63.240  67.208  72.228  0.00  0.00    +0.000 A 
ATOM     23  C   UNL     1      62.695  67.544  72.749  0.00  0.00    +0.000 A 
ATOM     24  C   UNL     1      61.897  67.336  72.703  0.00  0.00    +0.000 A 
ATOM     25 CL   UNL     1      61.353  67.672  73.222  0.00  0.00    +0.000 Cl
ATOM     26  C   UNL     1      61.646  66.792  72.136  0.00  0.00    +0.000 A 
ATOM     27  C   UNL     1      62.191  66.456  71.616  0.00  0.00    +0.000 A 
ATOM     28  C   UNL     1      61.182  64.278  69.351  0.00  0.00    +0.000 A 
ENDROOT
TORSDOF 0
ENDMDL
MODEL 7
REMARK VINA RESULT:   -12.163      1.493      2.626
REMARK INTER + INTRA:         -12.163
REMARK INTER:                 -12.163
REMARK INTRA:                   0.000
REMARK UNBOUND:                 0.000
ROOT
REMARK  Name = meclozine
REMARK                            x       y       z     vdW  Elec       q    Type
REMARK                         _______ _______ _______ _____ _____    ______ ____
ATOM      1  C   UNL     1      59.201  62.301  67.492  0.00  0.00    +0.000 C 
ATOM      2  C   UNL     1      59.891  62.377  67.044  0.00  0.00    +0.000 A 
ATOM      3  C   UNL     1      59.920  62.077  66.276  0.00  0.00    +0.000 A 
ATOM      4  C   UNL     1      60.609  62.153  65.829  0.00  0.00    +0.000 A 
ATOM      5  C   UNL     1      61.269  62.531  66.150  0.00  0.00    +0.000 A 
ATOM      6  C   UNL     1      61.240  62.831  66.917  0.00  0.00    +0.000 A 
ATOM      7  C   UNL     1      61.900  63.209  67.238  0.00  0.00    +0.000 C 
ATOM      8  N   UNL     1      61.871  63.509  68.006  0.00  0.00    +0.000 NA
ATOM      9  C   UNL     1      62.531  63.886  68.327  0.00  0.00    +0.000 C 
ATOM     10  C   UNL     1      62.501  64.186  69.094  0.00  0.00    +0.000 C 
ATOM     11  N   UNL     1      61.812  64.110  69.542  0.00  0.00    +0.000 NA
ATOM     12  C   UNL     1      61.153  63.733  69.221  0.00  0.00    +0.000 C 
ATOM     13  C   UNL     1      61.182  63.432  68.453  0.00  0.00    +0.000 C 
ATOM     14  C   UNL     1      61.784  64.410  70.309  0.00  0.00    +0.000 C 
ATOM     15  C   UNL     1      62.443  64.787  70.630  0.00  0.00    +0.000 A 
ATOM     16  C   UNL     1      63.132  64.864  70.183  0.00  0.00    +0.000 A 
ATOM     17  C   UNL     1      63.793  65.242  70.504  0.00  0.00    +0.000 A 
ATOM     18  C   UNL     1      63.763  65.542  71.271  0.00  0.00    +0.000 A 
ATOM     19  C   UNL     1      63.074  65.465  71.718  0.00  0.00    +0.000 A 
ATOM     20  C   UNL     1      62.415  65.088  71.398  0.00  0.00    +0.000 A 
ATOM     21  C   UNL     1      61.094  64.333  70.756  0.00  0.00    +0.000 A 
ATOM     22  C   UNL     1      61.065  64.634  71.524  0.00  0.00    +0.000 A 
ATOM     23  C   UNL     1      60.376  64.557  71.972  0.00  0.00    +0.000 A 
ATOM     24  C   UNL     1      59.716  64.179  71.651  0.00  0.00    +0.000 A 
ATOM     25 CL   UNL     1      59.028  64.103  72.098  0.00  0.00    +0.000 Cl
ATOM     26  C   UNL     1      59.745  63.879  70.883  0.00  0.00    +0.000 A 
ATOM     27  C   UNL     1      60.434  63.956  70.436  0.00  0.00    +0.000 A 
ATOM     28  C   UNL     1      60.551  62.754  67.365  0.00  0.00    +0.000 A 
ENDROOT
TORSDOF 0
ENDMDL
MODEL 8
REMARK VINA RESULT:   -11.839      2.003      2.266
REMARK INTER + INTRA:         -11.839
REMARK INTER:                 -11.839
REMARK INTRA:                   0.000
REMARK UNBOUND:                 0.000
ROOT
REMARK  Name = meclozine
REMARK                            x       y       z     vdW  Elec       q    Type
REMARK                         _______ _______ _______ _____ _____    ______ ____
ATOM      1  C   UNL     1      61.082  63.589  65.876  0.00  0.00    +0.000 C 
ATOM      2  C   UNL     1      61.231  62.836  66.182  0.00  0.00    +0.000 A 
ATOM      3  C   UNL     1      61.475  62.229  65.680  0.00  0.00    +0.000 A 
ATOM      4  C   UNL     1      61.624  61.477  65.985  0.00  0.00    +0.000 A 
ATOM      5  C   UNL     1      61.529  61.333  66.793  0.00  0.00    +0.000 A 
ATOM      6  C   UNL     1      61.284  61.941  67.293  0.00  0.00    +0.000 A 
ATOM      7  C   UNL     1      61.189  61.797  68.101  0.00  0.00    +0.000 C 
ATOM      8  N   UNL     1      60.944  62.406  68.601  0.00  0.00    +0.000 NA
ATOM      9  C   UNL     1      60.849  62.262  69.409  0.00  0.00    +0.000 C 
ATOM     10  C   UNL     1      60.604  62.870  69.909  0.00  0.00    +0.000 C 
ATOM     11  N   UNL     1      60.455  63.622  69.604  0.00  0.00    +0.000 NA
ATOM     12  C   UNL     1      60.551  63.765  68.798  0.00  0.00    +0.000 C 
ATOM     13  C   UNL     1      60.795  63.157  68.296  0.00  0.00    +0.000 C 
ATOM     14  C   UNL     1      60.211  64.229  70.105  0.00  0.00    +0.000 C 
ATOM     15  C   UNL     1      60.115  64.086  70.912  0.00  0.00    +0.000 A 
ATOM     16  C   UNL     1      60.264  63.334  71.217  0.00  0.00    +0.000 A 
ATOM     17  C   UNL     1      60.169  63.190  72.025  0.00  0.00    +0.000 A 
ATOM     18  C   UNL     1      59.924  63.799  72.525  0.00  0.00    +0.000 A 
ATOM     19  C   UNL     1      59.775  64.550  72.220  0.00  0.00    +0.000 A 
ATOM     20  C   UNL     1      59.871  64.694  71.414  0.00  0.00    +0.000 A 
ATOM     21  C   UNL     1      60.062  64.982  69.799  0.00  0.00    +0.000 A 
ATOM     22  C   UNL     1      59.818  65.589  70.301  0.00  0.00    +0.000 A 
ATOM     23  C   UNL     1      59.669  66.341  69.995  0.00  0.00    +0.000 A 
ATOM     24  C   UNL     1      59.764  66.485  69.188  0.00  0.00    +0.000 A 
ATOM     25 CL   UNL     1      59.616  67.236  68.882  0.00  0.00    +0.000 Cl
ATOM     26  C   UNL     1      60.009  65.877  68.687  0.00  0.00    +0.000 A 
ATOM     27  C   UNL     1      60.158  65.125  68.993  0.00  0.00    +0.000 A 
ATOM     28  C   UNL     1      61.135  62.693  66.988  0.00  0.00    +0.000 A 
ENDROOT
TORSDOF 0
ENDMDL
