MODEL 1
REMARK VINA RESULT:    -9.348      0.000      0.000
REMARK INTER + INTRA:          -9.348
REMARK INTER:                  -9.348
REMARK INTRA:                   0.000
REMARK UNBOUND:                 0.000
ROOT
REMARK  Name = medetomidine
REMARK                            x       y       z     vdW  Elec       q    Type
REMARK                         _______ _______ _______ _____ _____    ______ ____
ATOM      1  C   UNL     1      59.719  61.984  66.236  0.00  0.00    +0.000 C 
ATOM      2  C   UNL     1      60.480  62.294  66.317  0.00  0.00    +0.000 C 
ATOM      3  C   UNL     1      60.669  62.751  66.977  0.00  0.00    +0.000 A 
ATOM      4  C   UNL     1      61.402  63.097  67.134  0.00  0.00    +0.000 A 
ATOM      5  N   UNL     1      61.345  63.502  67.851  0.00  0.00    +0.000 NA
ATOM      6  C   UNL     1      60.577  63.407  68.137  0.00  0.00    +0.000 A 
ATOM      7  N   UNL     1      60.159  62.943  67.597  0.00  0.00    +0.000 NA
ATOM      8  C   UNL     1      61.049  62.148  65.740  0.00  0.00    +0.000 A 
ATOM      9  C   UNL     1      60.859  61.692  65.079  0.00  0.00    +0.000 A 
ATOM     10  C   UNL     1      60.100  61.381  64.997  0.00  0.00    +0.000 C 
ATOM     11  C   UNL     1      61.430  61.545  64.501  0.00  0.00    +0.000 A 
ATOM     12  C   UNL     1      61.240  61.088  63.840  0.00  0.00    +0.000 C 
ATOM     13  C   UNL     1      62.189  61.856  64.583  0.00  0.00    +0.000 A 
ATOM     14  C   UNL     1      62.379  62.313  65.243  0.00  0.00    +0.000 A 
ATOM     15  C   UNL     1      61.809  62.459  65.821  0.00  0.00    +0.000 A 
ENDROOT
TORSDOF 0
ENDMDL
MODEL 2
REMARK VINA RESULT:    -9.003      1.669      3.272
REMARK INTER + INTRA:          -9.003
REMARK INTER:                  -9.003
REMARK INTRA:                   0.000
REMARK UNBOUND:                 0.000
ROOT
REMARK  Name = medetomidine
REMARK                            x       y       z     vdW  Elec       q    Type
REMARK                         _______ _______ _______ _____ _____    ______ ____
ATOM      1  C   UNL     1      62.157  62.459  65.773  0.00  0.00    +0.000 C 
ATOM      2  C   UNL     1      61.482  62.113  65.447  0.00  0.00    +0.000 C 
ATOM      3  C   UNL     1      61.523  61.748  64.708  0.00  0.00    +0.000 A 
ATOM      4  C   UNL     1      60.898  61.381  64.313  0.00  0.00    +0.000 A 
ATOM      5  N   UNL     1      61.185  61.092  63.595  0.00  0.00    +0.000 NA
ATOM      6  C   UNL     1      61.986  61.281  63.546  0.00  0.00    +0.000 A 
ATOM      7  N   UNL     1      62.196  61.686  64.234  0.00  0.00    +0.000 NA
ATOM      8  C   UNL     1      60.768  62.132  65.858  0.00  0.00    +0.000 A 
ATOM      9  C   UNL     1      60.728  62.497  66.597  0.00  0.00    +0.000 A 
ATOM     10  C   UNL     1      61.402  62.843  66.924  0.00  0.00    +0.000 C 
ATOM     11  C   UNL     1      60.013  62.516  67.010  0.00  0.00    +0.000 A 
ATOM     12  C   UNL     1      59.973  62.881  67.748  0.00  0.00    +0.000 C 
ATOM     13  C   UNL     1      59.339  62.171  66.682  0.00  0.00    +0.000 A 
ATOM     14  C   UNL     1      59.380  61.806  65.944  0.00  0.00    +0.000 A 
ATOM     15  C   UNL     1      60.094  61.787  65.532  0.00  0.00    +0.000 A 
ENDROOT
TORSDOF 0
ENDMDL
MODEL 3
REMARK VINA RESULT:    -8.342      5.027      6.141
REMARK INTER + INTRA:          -8.342
REMARK INTER:                  -8.342
REMARK INTRA:                   0.000
REMARK UNBOUND:                 0.000
ROOT
REMARK  Name = medetomidine
REMARK                            x       y       z     vdW  Elec       q    Type
REMARK                         _______ _______ _______ _____ _____    ______ ____
ATOM      1  C   UNL     1      61.054  63.958  72.851  0.00  0.00    +0.000 C 
ATOM      2  C   UNL     1      60.677  63.818  72.130  0.00  0.00    +0.000 C 
ATOM      3  C   UNL     1      60.200  64.401  71.795  0.00  0.00    +0.000 A 
ATOM      4  C   UNL     1      59.790  64.341  71.081  0.00  0.00    +0.000 A 
ATOM      5  N   UNL     1      59.385  65.050  70.959  0.00  0.00    +0.000 NA
ATOM      6  C   UNL     1      59.545  65.548  71.597  0.00  0.00    +0.000 A 
ATOM      7  N   UNL     1      60.049  65.147  72.114  0.00  0.00    +0.000 NA
ATOM      8  C   UNL     1      60.778  63.095  71.745  0.00  0.00    +0.000 A 
ATOM      9  C   UNL     1      61.255  62.512  72.081  0.00  0.00    +0.000 A 
ATOM     10  C   UNL     1      61.632  62.651  72.801  0.00  0.00    +0.000 C 
ATOM     11  C   UNL     1      61.356  61.789  71.696  0.00  0.00    +0.000 A 
ATOM     12  C   UNL     1      61.833  61.206  72.031  0.00  0.00    +0.000 C 
ATOM     13  C   UNL     1      60.978  61.650  70.975  0.00  0.00    +0.000 A 
ATOM     14  C   UNL     1      60.501  62.233  70.640  0.00  0.00    +0.000 A 
ATOM     15  C   UNL     1      60.401  62.955  71.025  0.00  0.00    +0.000 A 
ENDROOT
TORSDOF 0
ENDMDL
MODEL 4
REMARK VINA RESULT:    -8.196      2.948      5.397
REMARK INTER + INTRA:          -8.196
REMARK INTER:                  -8.196
REMARK INTRA:                   0.000
REMARK UNBOUND:                 0.000
ROOT
REMARK  Name = medetomidine
REMARK                            x       y       z     vdW  Elec       q    Type
REMARK                         _______ _______ _______ _____ _____    ______ ____
ATOM      1  C   UNL     1      60.463  64.046  70.263  0.00  0.00    +0.000 C 
ATOM      2  C   UNL     1      60.618  63.244  70.152  0.00  0.00    +0.000 C 
ATOM      3  C   UNL     1      60.467  62.892  69.421  0.00  0.00    +0.000 A 
ATOM      4  C   UNL     1      60.594  62.100  69.229  0.00  0.00    +0.000 A 
ATOM      5  N   UNL     1      60.367  61.988  68.443  0.00  0.00    +0.000 NA
ATOM      6  C   UNL     1      60.101  62.712  68.150  0.00  0.00    +0.000 A 
ATOM      7  N   UNL     1      60.162  63.271  68.754  0.00  0.00    +0.000 NA
ATOM      8  C   UNL     1      60.925  62.793  70.771  0.00  0.00    +0.000 A 
ATOM      9  C   UNL     1      61.076  63.145  71.501  0.00  0.00    +0.000 A 
ATOM     10  C   UNL     1      60.921  63.948  71.613  0.00  0.00    +0.000 C 
ATOM     11  C   UNL     1      61.383  62.695  72.121  0.00  0.00    +0.000 A 
ATOM     12  C   UNL     1      61.534  63.047  72.852  0.00  0.00    +0.000 C 
ATOM     13  C   UNL     1      61.538  61.892  72.009  0.00  0.00    +0.000 A 
ATOM     14  C   UNL     1      61.387  61.540  71.279  0.00  0.00    +0.000 A 
ATOM     15  C   UNL     1      61.080  61.990  70.660  0.00  0.00    +0.000 A 
ENDROOT
TORSDOF 0
ENDMDL
MODEL 5
REMARK VINA RESULT:    -8.001      5.628      7.218
REMARK INTER + INTRA:          -8.001
REMARK INTER:                  -8.001
REMARK INTRA:                   0.000
REMARK UNBOUND:                 0.000
ROOT
REMARK  Name = medetomidine
REMARK                            x       y       z     vdW  Elec       q    Type
REMARK                         _______ _______ _______ _____ _____    ______ ____
ATOM      1  C   UNL     1      64.383  65.308  69.498  0.00  0.00    +0.000 C 
ATOM      2  C   UNL     1      64.159  65.491  70.271  0.00  0.00    +0.000 C 
ATOM      3  C   UNL     1      63.578  65.044  70.648  0.00  0.00    +0.000 A 
ATOM      4  C   UNL     1      63.298  65.160  71.415  0.00  0.00    +0.000 A 
ATOM      5  N   UNL     1      62.720  64.589  71.565  0.00  0.00    +0.000 NA
ATOM      6  C   UNL     1      62.644  64.121  70.891  0.00  0.00    +0.000 A 
ATOM      7  N   UNL     1      63.173  64.401  70.323  0.00  0.00    +0.000 NA
ATOM      8  C   UNL     1      64.516  66.120  70.667  0.00  0.00    +0.000 A 
ATOM      9  C   UNL     1      65.098  66.567  70.290  0.00  0.00    +0.000 A 
ATOM     10  C   UNL     1      65.323  66.386  69.517  0.00  0.00    +0.000 C 
ATOM     11  C   UNL     1      65.456  67.197  70.686  0.00  0.00    +0.000 A 
ATOM     12  C   UNL     1      66.038  67.644  70.309  0.00  0.00    +0.000 C 
ATOM     13  C   UNL     1      65.231  67.379  71.458  0.00  0.00    +0.000 A 
ATOM     14  C   UNL     1      64.650  66.932  71.835  0.00  0.00    +0.000 A 
ATOM     15  C   UNL     1      64.293  66.303  71.440  0.00  0.00    +0.000 A 
ENDROOT
TORSDOF 0
ENDMDL
MODEL 6
REMARK VINA RESULT:    -7.841      6.242      7.395
REMARK INTER + INTRA:          -7.841
REMARK INTER:                  -7.841
REMARK INTRA:                   0.000
REMARK UNBOUND:                 0.000
ROOT
REMARK  Name = medetomidine
REMARK                            x       y       z     vdW  Elec       q    Type
REMARK                         _______ _______ _______ _____ _____    ______ ____
ATOM      1  C   UNL     1      63.989  66.892  72.173  0.00  0.00    +0.000 C 
ATOM      2  C   UNL     1      63.869  66.414  71.511  0.00  0.00    +0.000 C 
ATOM      3  C   UNL     1      63.246  65.874  71.501  0.00  0.00    +0.000 A 
ATOM      4  C   UNL     1      63.057  65.362  70.882  0.00  0.00    +0.000 A 
ATOM      5  N   UNL     1      62.396  64.922  71.106  0.00  0.00    +0.000 NA
ATOM      6  C   UNL     1      62.176  65.161  71.865  0.00  0.00    +0.000 A 
ATOM      7  N   UNL     1      62.701  65.750  72.109  0.00  0.00    +0.000 NA
ATOM      8  C   UNL     1      64.371  66.477  70.860  0.00  0.00    +0.000 A 
ATOM      9  C   UNL     1      64.994  67.017  70.870  0.00  0.00    +0.000 A 
ATOM     10  C   UNL     1      65.115  67.495  71.531  0.00  0.00    +0.000 C 
ATOM     11  C   UNL     1      65.497  67.080  70.218  0.00  0.00    +0.000 A 
ATOM     12  C   UNL     1      66.120  67.621  70.228  0.00  0.00    +0.000 C 
ATOM     13  C   UNL     1      65.375  66.602  69.557  0.00  0.00    +0.000 A 
ATOM     14  C   UNL     1      64.752  66.062  69.547  0.00  0.00    +0.000 A 
ATOM     15  C   UNL     1      64.250  65.999  70.198  0.00  0.00    +0.000 A 
ENDROOT
TORSDOF 0
ENDMDL
MODEL 7
REMARK VINA RESULT:    -7.736      3.424      4.912
REMARK INTER + INTRA:          -7.736
REMARK INTER:                  -7.736
REMARK INTRA:                   0.000
REMARK UNBOUND:                 0.000
ROOT
REMARK  Name = medetomidine
REMARK                            x       y       z     vdW  Elec       q    Type
REMARK                         _______ _______ _______ _____ _____    ______ ____
ATOM      1  C   UNL     1      60.454  64.546  69.942  0.00  0.00    +0.000 C 
ATOM      2  C   UNL     1      60.429  63.978  70.540  0.00  0.00    +0.000 C 
ATOM      3  C   UNL     1      60.398  64.214  71.330  0.00  0.00    +0.000 A 
ATOM      4  C   UNL     1      60.371  63.713  71.985  0.00  0.00    +0.000 A 
ATOM      5  N   UNL     1      60.344  64.182  72.664  0.00  0.00    +0.000 NA
ATOM      6  C   UNL     1      60.355  64.972  72.429  0.00  0.00    +0.000 A 
ATOM      7  N   UNL     1      60.388  64.993  71.604  0.00  0.00    +0.000 NA
ATOM      8  C   UNL     1      60.435  63.176  70.350  0.00  0.00    +0.000 A 
ATOM      9  C   UNL     1      60.466  62.941  69.560  0.00  0.00    +0.000 A 
ATOM     10  C   UNL     1      60.491  63.507  68.960  0.00  0.00    +0.000 C 
ATOM     11  C   UNL     1      60.472  62.138  69.368  0.00  0.00    +0.000 A 
ATOM     12  C   UNL     1      60.503  61.902  68.578  0.00  0.00    +0.000 C 
ATOM     13  C   UNL     1      60.447  61.571  69.967  0.00  0.00    +0.000 A 
ATOM     14  C   UNL     1      60.416  61.807  70.757  0.00  0.00    +0.000 A 
ATOM     15  C   UNL     1      60.410  62.609  70.948  0.00  0.00    +0.000 A 
ENDROOT
TORSDOF 0
ENDMDL
MODEL 8
REMARK VINA RESULT:    -7.641      5.503      6.750
REMARK INTER + INTRA:          -7.641
REMARK INTER:                  -7.641
REMARK INTRA:                   0.000
REMARK UNBOUND:                 0.000
ROOT
REMARK  Name = medetomidine
REMARK                            x       y       z     vdW  Elec       q    Type
REMARK                         _______ _______ _______ _____ _____    ______ ____
ATOM      1  C   UNL     1      62.826  64.642  70.827  0.00  0.00    +0.000 C 
ATOM      2  C   UNL     1      62.512  64.750  71.583  0.00  0.00    +0.000 C 
ATOM      3  C   UNL     1      62.656  65.450  71.993  0.00  0.00    +0.000 A 
ATOM      4  C   UNL     1      62.380  65.636  72.748  0.00  0.00    +0.000 A 
ATOM      5  N   UNL     1      62.655  66.389  72.942  0.00  0.00    +0.000 NA
ATOM      6  C   UNL     1      63.101  66.670  72.308  0.00  0.00    +0.000 A 
ATOM      7  N   UNL     1      63.102  66.089  71.721  0.00  0.00    +0.000 NA
ATOM      8  C   UNL     1      62.053  64.157  71.927  0.00  0.00    +0.000 A 
ATOM      9  C   UNL     1      61.909  63.456  71.516  0.00  0.00    +0.000 A 
ATOM     10  C   UNL     1      62.223  63.348  70.761  0.00  0.00    +0.000 C 
ATOM     11  C   UNL     1      61.450  62.863  71.861  0.00  0.00    +0.000 A 
ATOM     12  C   UNL     1      61.306  62.162  71.450  0.00  0.00    +0.000 C 
ATOM     13  C   UNL     1      61.136  62.971  72.616  0.00  0.00    +0.000 A 
ATOM     14  C   UNL     1      61.280  63.672  73.027  0.00  0.00    +0.000 A 
ATOM     15  C   UNL     1      61.739  64.264  72.682  0.00  0.00    +0.000 A 
ENDROOT
TORSDOF 0
ENDMDL
MODEL 9
REMARK VINA RESULT:    -7.385      5.167      6.785
REMARK INTER + INTRA:          -7.385
REMARK INTER:                  -7.385
REMARK INTRA:                   0.000
REMARK UNBOUND:                 0.000
ROOT
REMARK  Name = medetomidine
REMARK                            x       y       z     vdW  Elec       q    Type
REMARK                         _______ _______ _______ _____ _____    ______ ____
ATOM      1  C   UNL     1      59.386  63.608  71.687  0.00  0.00    +0.000 C 
ATOM      2  C   UNL     1      60.195  63.460  71.760  0.00  0.00    +0.000 C 
ATOM      3  C   UNL     1      60.517  62.768  71.448  0.00  0.00    +0.000 A 
ATOM      4  C   UNL     1      61.310  62.545  71.478  0.00  0.00    +0.000 A 
ATOM      5  N   UNL     1      61.385  61.816  71.099  0.00  0.00    +0.000 NA
ATOM      6  C   UNL     1      60.638  61.587  70.835  0.00  0.00    +0.000 A 
ATOM      7  N   UNL     1      60.101  62.176  71.051  0.00  0.00    +0.000 NA
ATOM      8  C   UNL     1      60.681  64.004  72.144  0.00  0.00    +0.000 A 
ATOM      9  C   UNL     1      60.360  64.697  72.457  0.00  0.00    +0.000 A 
ATOM     10  C   UNL     1      59.551  64.846  72.384  0.00  0.00    +0.000 C 
ATOM     11  C   UNL     1      60.846  65.241  72.842  0.00  0.00    +0.000 A 
ATOM     12  C   UNL     1      60.525  65.934  73.154  0.00  0.00    +0.000 C 
ATOM     13  C   UNL     1      61.654  65.092  72.914  0.00  0.00    +0.000 A 
ATOM     14  C   UNL     1      61.976  64.400  72.602  0.00  0.00    +0.000 A 
ATOM     15  C   UNL     1      61.490  63.856  72.217  0.00  0.00    +0.000 A 
ENDROOT
TORSDOF 0
ENDMDL
