MODEL 1
REMARK VINA RESULT:    -9.632      0.000      0.000
REMARK INTER + INTRA:          -9.632
REMARK INTER:                  -9.632
REMARK INTRA:                   0.000
REMARK UNBOUND:                 0.000
ROOT
REMARK  Name = medifoxamine
REMARK                            x       y       z     vdW  Elec       q    Type
REMARK                         _______ _______ _______ _____ _____    ______ ____
ATOM      1  C   UNL     1      59.750  65.282  69.729  0.00  0.00    +0.000 C 
ATOM      2  N   UNL     1      59.989  65.194  70.514  0.00  0.00    +0.000 NA
ATOM      3  C   UNL     1      59.893  65.817  71.045  0.00  0.00    +0.000 C 
ATOM      4  C   UNL     1      60.324  64.485  70.766  0.00  0.00    +0.000 C 
ATOM      5  C   UNL     1      60.421  63.861  70.234  0.00  0.00    +0.000 C 
ATOM      6  O   UNL     1      60.182  63.948  69.449  0.00  0.00    +0.000 OA
ATOM      7  C   UNL     1      60.278  63.325  68.916  0.00  0.00    +0.000 A 
ATOM      8  C   UNL     1      60.613  62.615  69.170  0.00  0.00    +0.000 A 
ATOM      9  C   UNL     1      60.709  61.993  68.637  0.00  0.00    +0.000 A 
ATOM     10  C   UNL     1      60.470  62.080  67.853  0.00  0.00    +0.000 A 
ATOM     11  C   UNL     1      60.135  62.790  67.600  0.00  0.00    +0.000 A 
ATOM     12  C   UNL     1      60.039  63.412  68.133  0.00  0.00    +0.000 A 
ATOM     13  O   UNL     1      60.756  63.150  70.486  0.00  0.00    +0.000 OA
ATOM     14  C   UNL     1      60.996  63.063  71.272  0.00  0.00    +0.000 A 
ATOM     15  C   UNL     1      60.899  63.687  71.803  0.00  0.00    +0.000 A 
ATOM     16  C   UNL     1      61.138  63.599  72.588  0.00  0.00    +0.000 A 
ATOM     17  C   UNL     1      61.474  62.889  72.841  0.00  0.00    +0.000 A 
ATOM     18  C   UNL     1      61.570  62.266  72.309  0.00  0.00    +0.000 A 
ATOM     19  C   UNL     1      61.331  62.353  71.524  0.00  0.00    +0.000 A 
ENDROOT
TORSDOF 0
ENDMDL
MODEL 2
REMARK VINA RESULT:    -9.570      0.503      3.213
REMARK INTER + INTRA:          -9.570
REMARK INTER:                  -9.570
REMARK INTRA:                   0.000
REMARK UNBOUND:                 0.000
ROOT
REMARK  Name = medifoxamine
REMARK                            x       y       z     vdW  Elec       q    Type
REMARK                         _______ _______ _______ _____ _____    ______ ____
ATOM      1  C   UNL     1      60.210  65.344  70.733  0.00  0.00    +0.000 C 
ATOM      2  N   UNL     1      60.032  65.121  69.959  0.00  0.00    +0.000 NA
ATOM      3  C   UNL     1      59.713  65.672  69.435  0.00  0.00    +0.000 C 
ATOM      4  C   UNL     1      60.172  64.348  69.709  0.00  0.00    +0.000 C 
ATOM      5  C   UNL     1      60.491  63.796  70.233  0.00  0.00    +0.000 C 
ATOM      6  O   UNL     1      60.670  64.018  71.007  0.00  0.00    +0.000 OA
ATOM      7  C   UNL     1      60.989  63.467  71.532  0.00  0.00    +0.000 A 
ATOM      8  C   UNL     1      61.129  62.693  71.282  0.00  0.00    +0.000 A 
ATOM      9  C   UNL     1      61.448  62.143  71.806  0.00  0.00    +0.000 A 
ATOM     10  C   UNL     1      61.626  62.365  72.580  0.00  0.00    +0.000 A 
ATOM     11  C   UNL     1      61.486  63.138  72.830  0.00  0.00    +0.000 A 
ATOM     12  C   UNL     1      61.168  63.689  72.305  0.00  0.00    +0.000 A 
ATOM     13  O   UNL     1      60.631  63.022  69.984  0.00  0.00    +0.000 OA
ATOM     14  C   UNL     1      60.452  62.800  69.209  0.00  0.00    +0.000 A 
ATOM     15  C   UNL     1      60.133  63.352  68.685  0.00  0.00    +0.000 A 
ATOM     16  C   UNL     1      59.955  63.129  67.911  0.00  0.00    +0.000 A 
ATOM     17  C   UNL     1      60.095  62.355  67.661  0.00  0.00    +0.000 A 
ATOM     18  C   UNL     1      60.414  61.804  68.185  0.00  0.00    +0.000 A 
ATOM     19  C   UNL     1      60.593  62.027  68.959  0.00  0.00    +0.000 A 
ENDROOT
TORSDOF 0
ENDMDL
MODEL 3
REMARK VINA RESULT:    -9.244      3.021      3.991
REMARK INTER + INTRA:          -9.244
REMARK INTER:                  -9.244
REMARK INTRA:                   0.000
REMARK UNBOUND:                 0.000
ROOT
REMARK  Name = medifoxamine
REMARK                            x       y       z     vdW  Elec       q    Type
REMARK                         _______ _______ _______ _____ _____    ______ ____
ATOM      1  C   UNL     1      62.145  66.318  72.873  0.00  0.00    +0.000 C 
ATOM      2  N   UNL     1      62.728  66.597  72.360  0.00  0.00    +0.000 NA
ATOM      3  C   UNL     1      63.013  67.366  72.439  0.00  0.00    +0.000 C 
ATOM      4  C   UNL     1      63.025  66.106  71.768  0.00  0.00    +0.000 C 
ATOM      5  C   UNL     1      62.740  65.335  71.689  0.00  0.00    +0.000 C 
ATOM      6  O   UNL     1      62.157  65.057  72.202  0.00  0.00    +0.000 OA
ATOM      7  C   UNL     1      61.871  64.286  72.123  0.00  0.00    +0.000 A 
ATOM      8  C   UNL     1      62.169  63.795  71.531  0.00  0.00    +0.000 A 
ATOM      9  C   UNL     1      61.883  63.026  71.452  0.00  0.00    +0.000 A 
ATOM     10  C   UNL     1      61.301  62.747  71.964  0.00  0.00    +0.000 A 
ATOM     11  C   UNL     1      61.003  63.238  72.557  0.00  0.00    +0.000 A 
ATOM     12  C   UNL     1      61.289  64.008  72.635  0.00  0.00    +0.000 A 
ATOM     13  O   UNL     1      63.037  64.843  71.097  0.00  0.00    +0.000 OA
ATOM     14  C   UNL     1      63.621  65.122  70.583  0.00  0.00    +0.000 A 
ATOM     15  C   UNL     1      63.906  65.892  70.663  0.00  0.00    +0.000 A 
ATOM     16  C   UNL     1      64.489  66.171  70.150  0.00  0.00    +0.000 A 
ATOM     17  C   UNL     1      64.787  65.679  69.557  0.00  0.00    +0.000 A 
ATOM     18  C   UNL     1      64.501  64.909  69.478  0.00  0.00    +0.000 A 
ATOM     19  C   UNL     1      63.918  64.631  69.991  0.00  0.00    +0.000 A 
ENDROOT
TORSDOF 0
ENDMDL
MODEL 4
REMARK VINA RESULT:    -9.158      0.919      2.685
REMARK INTER + INTRA:          -9.158
REMARK INTER:                  -9.158
REMARK INTRA:                   0.000
REMARK UNBOUND:                 0.000
ROOT
REMARK  Name = medifoxamine
REMARK                            x       y       z     vdW  Elec       q    Type
REMARK                         _______ _______ _______ _____ _____    ______ ____
ATOM      1  C   UNL     1      60.125  63.502  68.517  0.00  0.00    +0.000 C 
ATOM      2  N   UNL     1      60.428  62.979  69.078  0.00  0.00    +0.000 NA
ATOM      3  C   UNL     1      60.598  62.200  68.866  0.00  0.00    +0.000 C 
ATOM      4  C   UNL     1      60.561  63.234  69.850  0.00  0.00    +0.000 C 
ATOM      5  C   UNL     1      60.392  64.013  70.063  0.00  0.00    +0.000 C 
ATOM      6  O   UNL     1      60.089  64.537  69.503  0.00  0.00    +0.000 OA
ATOM      7  C   UNL     1      59.919  65.316  69.715  0.00  0.00    +0.000 A 
ATOM      8  C   UNL     1      60.052  65.571  70.488  0.00  0.00    +0.000 A 
ATOM      9  C   UNL     1      59.882  66.350  70.700  0.00  0.00    +0.000 A 
ATOM     10  C   UNL     1      59.580  66.873  70.139  0.00  0.00    +0.000 A 
ATOM     11  C   UNL     1      59.446  66.618  69.366  0.00  0.00    +0.000 A 
ATOM     12  C   UNL     1      59.616  65.839  69.155  0.00  0.00    +0.000 A 
ATOM     13  O   UNL     1      60.525  64.269  70.837  0.00  0.00    +0.000 OA
ATOM     14  C   UNL     1      60.828  63.745  71.398  0.00  0.00    +0.000 A 
ATOM     15  C   UNL     1      60.998  62.965  71.185  0.00  0.00    +0.000 A 
ATOM     16  C   UNL     1      61.301  62.442  71.746  0.00  0.00    +0.000 A 
ATOM     17  C   UNL     1      61.434  62.697  72.520  0.00  0.00    +0.000 A 
ATOM     18  C   UNL     1      61.264  63.476  72.731  0.00  0.00    +0.000 A 
ATOM     19  C   UNL     1      60.961  64.000  72.171  0.00  0.00    +0.000 A 
ENDROOT
TORSDOF 0
ENDMDL
MODEL 5
REMARK VINA RESULT:    -9.137      2.983      3.540
REMARK INTER + INTRA:          -9.137
REMARK INTER:                  -9.137
REMARK INTRA:                   0.000
REMARK UNBOUND:                 0.000
ROOT
REMARK  Name = medifoxamine
REMARK                            x       y       z     vdW  Elec       q    Type
REMARK                         _______ _______ _______ _____ _____    ______ ____
ATOM      1  C   UNL     1      62.773  67.026  72.138  0.00  0.00    +0.000 C 
ATOM      2  N   UNL     1      62.242  66.512  72.506  0.00  0.00    +0.000 NA
ATOM      3  C   UNL     1      61.749  66.789  73.106  0.00  0.00    +0.000 C 
ATOM      4  C   UNL     1      62.206  65.722  72.274  0.00  0.00    +0.000 C 
ATOM      5  C   UNL     1      62.699  65.444  71.674  0.00  0.00    +0.000 C 
ATOM      6  O   UNL     1      63.230  65.958  71.306  0.00  0.00    +0.000 OA
ATOM      7  C   UNL     1      63.724  65.680  70.705  0.00  0.00    +0.000 A 
ATOM      8  C   UNL     1      63.687  64.890  70.474  0.00  0.00    +0.000 A 
ATOM      9  C   UNL     1      64.180  64.613  69.874  0.00  0.00    +0.000 A 
ATOM     10  C   UNL     1      64.710  65.126  69.506  0.00  0.00    +0.000 A 
ATOM     11  C   UNL     1      64.747  65.917  69.737  0.00  0.00    +0.000 A 
ATOM     12  C   UNL     1      64.253  66.194  70.337  0.00  0.00    +0.000 A 
ATOM     13  O   UNL     1      62.663  64.653  71.442  0.00  0.00    +0.000 OA
ATOM     14  C   UNL     1      62.133  64.139  71.810  0.00  0.00    +0.000 A 
ATOM     15  C   UNL     1      61.639  64.416  72.411  0.00  0.00    +0.000 A 
ATOM     16  C   UNL     1      61.109  63.903  72.779  0.00  0.00    +0.000 A 
ATOM     17  C   UNL     1      61.072  63.111  72.547  0.00  0.00    +0.000 A 
ATOM     18  C   UNL     1      61.566  62.835  71.947  0.00  0.00    +0.000 A 
ATOM     19  C   UNL     1      62.096  63.348  71.579  0.00  0.00    +0.000 A 
ENDROOT
TORSDOF 0
ENDMDL
MODEL 6
REMARK VINA RESULT:    -9.082      2.537      3.284
REMARK INTER + INTRA:          -9.082
REMARK INTER:                  -9.082
REMARK INTRA:                   0.000
REMARK UNBOUND:                 0.000
ROOT
REMARK  Name = medifoxamine
REMARK                            x       y       z     vdW  Elec       q    Type
REMARK                         _______ _______ _______ _____ _____    ______ ____
ATOM      1  C   UNL     1      62.023  63.843  68.530  0.00  0.00    +0.000 C 
ATOM      2  N   UNL     1      61.515  63.498  69.081  0.00  0.00    +0.000 NA
ATOM      3  C   UNL     1      60.873  63.049  68.824  0.00  0.00    +0.000 C 
ATOM      4  C   UNL     1      61.649  63.602  69.887  0.00  0.00    +0.000 C 
ATOM      5  C   UNL     1      62.292  64.052  70.144  0.00  0.00    +0.000 C 
ATOM      6  O   UNL     1      62.800  64.396  69.594  0.00  0.00    +0.000 OA
ATOM      7  C   UNL     1      63.444  64.846  69.850  0.00  0.00    +0.000 A 
ATOM      8  C   UNL     1      63.578  64.950  70.657  0.00  0.00    +0.000 A 
ATOM      9  C   UNL     1      64.220  65.399  70.913  0.00  0.00    +0.000 A 
ATOM     10  C   UNL     1      64.728  65.744  70.363  0.00  0.00    +0.000 A 
ATOM     11  C   UNL     1      64.594  65.640  69.556  0.00  0.00    +0.000 A 
ATOM     12  C   UNL     1      63.951  65.191  69.300  0.00  0.00    +0.000 A 
ATOM     13  O   UNL     1      62.427  64.156  70.952  0.00  0.00    +0.000 OA
ATOM     14  C   UNL     1      61.918  63.811  71.503  0.00  0.00    +0.000 A 
ATOM     15  C   UNL     1      61.276  63.362  71.246  0.00  0.00    +0.000 A 
ATOM     16  C   UNL     1      60.767  63.017  71.797  0.00  0.00    +0.000 A 
ATOM     17  C   UNL     1      60.902  63.121  72.605  0.00  0.00    +0.000 A 
ATOM     18  C   UNL     1      61.545  63.570  72.861  0.00  0.00    +0.000 A 
ATOM     19  C   UNL     1      62.053  63.915  72.310  0.00  0.00    +0.000 A 
ENDROOT
TORSDOF 0
ENDMDL
MODEL 7
REMARK VINA RESULT:    -8.891      1.654      1.977
REMARK INTER + INTRA:          -8.891
REMARK INTER:                  -8.891
REMARK INTRA:                   0.000
REMARK UNBOUND:                 0.000
ROOT
REMARK  Name = medifoxamine
REMARK                            x       y       z     vdW  Elec       q    Type
REMARK                         _______ _______ _______ _____ _____    ______ ____
ATOM      1  C   UNL     1      62.507  64.274  68.498  0.00  0.00    +0.000 C 
ATOM      2  N   UNL     1      62.463  64.072  69.297  0.00  0.00    +0.000 NA
ATOM      3  C   UNL     1      62.957  64.441  69.843  0.00  0.00    +0.000 C 
ATOM      4  C   UNL     1      61.925  63.500  69.548  0.00  0.00    +0.000 C 
ATOM      5  C   UNL     1      61.429  63.130  69.002  0.00  0.00    +0.000 C 
ATOM      6  O   UNL     1      61.473  63.333  68.203  0.00  0.00    +0.000 OA
ATOM      7  C   UNL     1      60.978  62.963  67.655  0.00  0.00    +0.000 A 
ATOM      8  C   UNL     1      60.440  62.391  67.908  0.00  0.00    +0.000 A 
ATOM      9  C   UNL     1      59.945  62.022  67.360  0.00  0.00    +0.000 A 
ATOM     10  C   UNL     1      59.989  62.224  66.563  0.00  0.00    +0.000 A 
ATOM     11  C   UNL     1      60.527  62.796  66.311  0.00  0.00    +0.000 A 
ATOM     12  C   UNL     1      61.022  63.165  66.858  0.00  0.00    +0.000 A 
ATOM     13  O   UNL     1      60.890  62.558  69.253  0.00  0.00    +0.000 OA
ATOM     14  C   UNL     1      60.847  62.355  70.052  0.00  0.00    +0.000 A 
ATOM     15  C   UNL     1      61.342  62.726  70.599  0.00  0.00    +0.000 A 
ATOM     16  C   UNL     1      61.298  62.523  71.397  0.00  0.00    +0.000 A 
ATOM     17  C   UNL     1      60.759  61.951  71.649  0.00  0.00    +0.000 A 
ATOM     18  C   UNL     1      60.264  61.582  71.102  0.00  0.00    +0.000 A 
ATOM     19  C   UNL     1      60.308  61.784  70.303  0.00  0.00    +0.000 A 
ENDROOT
TORSDOF 0
ENDMDL
MODEL 8
REMARK VINA RESULT:    -8.878      2.460      3.675
REMARK INTER + INTRA:          -8.878
REMARK INTER:                  -8.878
REMARK INTRA:                   0.000
REMARK UNBOUND:                 0.000
ROOT
REMARK  Name = medifoxamine
REMARK                            x       y       z     vdW  Elec       q    Type
REMARK                         _______ _______ _______ _____ _____    ______ ____
ATOM      1  C   UNL     1      61.037  63.283  69.115  0.00  0.00    +0.000 C 
ATOM      2  N   UNL     1      61.732  63.613  68.819  0.00  0.00    +0.000 NA
ATOM      3  C   UNL     1      61.897  63.574  68.013  0.00  0.00    +0.000 C 
ATOM      4  C   UNL     1      62.263  63.983  69.331  0.00  0.00    +0.000 C 
ATOM      5  C   UNL     1      62.099  64.023  70.138  0.00  0.00    +0.000 C 
ATOM      6  O   UNL     1      61.404  63.693  70.434  0.00  0.00    +0.000 OA
ATOM      7  C   UNL     1      61.239  63.732  71.242  0.00  0.00    +0.000 A 
ATOM      8  C   UNL     1      61.770  64.102  71.753  0.00  0.00    +0.000 A 
ATOM      9  C   UNL     1      61.605  64.142  72.561  0.00  0.00    +0.000 A 
ATOM     10  C   UNL     1      60.910  63.812  72.856  0.00  0.00    +0.000 A 
ATOM     11  C   UNL     1      60.379  63.442  72.345  0.00  0.00    +0.000 A 
ATOM     12  C   UNL     1      60.544  63.403  71.538  0.00  0.00    +0.000 A 
ATOM     13  O   UNL     1      62.630  64.392  70.651  0.00  0.00    +0.000 OA
ATOM     14  C   UNL     1      63.327  64.723  70.354  0.00  0.00    +0.000 A 
ATOM     15  C   UNL     1      63.491  64.683  69.546  0.00  0.00    +0.000 A 
ATOM     16  C   UNL     1      64.187  65.013  69.251  0.00  0.00    +0.000 A 
ATOM     17  C   UNL     1      64.719  65.383  69.762  0.00  0.00    +0.000 A 
ATOM     18  C   UNL     1      64.554  65.422  70.570  0.00  0.00    +0.000 A 
ATOM     19  C   UNL     1      63.858  65.092  70.866  0.00  0.00    +0.000 A 
ENDROOT
TORSDOF 0
ENDMDL
MODEL 9
REMARK VINA RESULT:    -8.837      1.869      2.528
REMARK INTER + INTRA:          -8.837
REMARK INTER:                  -8.837
REMARK INTRA:                   0.000
REMARK UNBOUND:                 0.000
ROOT
REMARK  Name = medifoxamine
REMARK                            x       y       z     vdW  Elec       q    Type
REMARK                         _______ _______ _______ _____ _____    ______ ____
ATOM      1  C   UNL     1      60.891  62.335  71.432  0.00  0.00    +0.000 C 
ATOM      2  N   UNL     1      61.423  62.904  71.703  0.00  0.00    +0.000 NA
ATOM      3  C   UNL     1      61.575  62.975  72.510  0.00  0.00    +0.000 C 
ATOM      4  C   UNL     1      61.802  63.401  71.166  0.00  0.00    +0.000 C 
ATOM      5  C   UNL     1      61.651  63.330  70.358  0.00  0.00    +0.000 C 
ATOM      6  O   UNL     1      61.118  62.761  70.087  0.00  0.00    +0.000 OA
ATOM      7  C   UNL     1      60.966  62.690  69.279  0.00  0.00    +0.000 A 
ATOM      8  C   UNL     1      61.346  63.188  68.743  0.00  0.00    +0.000 A 
ATOM      9  C   UNL     1      61.193  63.116  67.935  0.00  0.00    +0.000 A 
ATOM     10  C   UNL     1      60.661  62.547  67.665  0.00  0.00    +0.000 A 
ATOM     11  C   UNL     1      60.281  62.049  68.201  0.00  0.00    +0.000 A 
ATOM     12  C   UNL     1      60.434  62.121  69.009  0.00  0.00    +0.000 A 
ATOM     13  O   UNL     1      62.030  63.828  69.820  0.00  0.00    +0.000 OA
ATOM     14  C   UNL     1      62.563  64.398  70.091  0.00  0.00    +0.000 A 
ATOM     15  C   UNL     1      62.715  64.469  70.899  0.00  0.00    +0.000 A 
ATOM     16  C   UNL     1      63.248  65.038  71.170  0.00  0.00    +0.000 A 
ATOM     17  C   UNL     1      63.628  65.536  70.633  0.00  0.00    +0.000 A 
ATOM     18  C   UNL     1      63.475  65.464  69.825  0.00  0.00    +0.000 A 
ATOM     19  C   UNL     1      62.943  64.895  69.555  0.00  0.00    +0.000 A 
ENDROOT
TORSDOF 0
ENDMDL
