MODEL 1
REMARK VINA RESULT:   -13.457      0.000      0.000
REMARK INTER + INTRA:         -13.457
REMARK INTER:                 -13.457
REMARK INTRA:                   0.000
REMARK UNBOUND:                 0.000
ROOT
REMARK  Name = medroxalol
REMARK                            x       y       z     vdW  Elec       q    Type
REMARK                         _______ _______ _______ _____ _____    ______ ____
ATOM      1  C   UNL     1      60.392  62.341  67.904  0.00  0.00    +0.000 C 
ATOM      2  C   UNL     1      61.125  62.668  67.710  0.00  0.00    +0.000 C 
ATOM      3  C   UNL     1      61.449  62.540  66.963  0.00  0.00    +0.000 C 
ATOM      4  C   UNL     1      61.042  62.086  66.409  0.00  0.00    +0.000 C 
ATOM      5  C   UNL     1      61.366  61.957  65.661  0.00  0.00    +0.000 A 
ATOM      6  C   UNL     1      60.959  61.503  65.106  0.00  0.00    +0.000 A 
ATOM      7  C   UNL     1      61.283  61.375  64.359  0.00  0.00    +0.000 A 
ATOM      8  C   UNL     1      62.015  61.702  64.166  0.00  0.00    +0.000 A 
ATOM      9  O   UNL     1      62.195  61.483  63.391  0.00  0.00    +0.000 OA
ATOM     10  C   UNL     1      61.574  61.020  63.105  0.00  0.00    +0.000 C 
ATOM     11  O   UNL     1      61.010  60.953  63.704  0.00  0.00    +0.000 OA
ATOM     12  C   UNL     1      62.423  62.157  64.719  0.00  0.00    +0.000 A 
ATOM     13  C   UNL     1      62.098  62.285  65.468  0.00  0.00    +0.000 A 
ATOM     14  N   UNL     1      61.533  63.123  68.265  0.00  0.00    +0.000 NA
ATOM     15  C   UNL     1      61.209  63.251  69.012  0.00  0.00    +0.000 C 
ATOM     16  C   UNL     1      61.616  63.706  69.567  0.00  0.00    +0.000 C 
ATOM     17  O   UNL     1      62.349  64.033  69.374  0.00  0.00    +0.000 OA
ATOM     18  C   UNL     1      61.292  63.834  70.314  0.00  0.00    +0.000 A 
ATOM     19  C   UNL     1      61.700  64.289  70.869  0.00  0.00    +0.000 A 
ATOM     20  C   UNL     1      61.376  64.417  71.617  0.00  0.00    +0.000 A 
ATOM     21  C   UNL     1      61.783  64.872  72.172  0.00  0.00    +0.000 C 
ATOM     22  N   UNL     1      62.516  65.199  71.978  0.00  0.00    +0.000 NA
ATOM     23  O   UNL     1      61.459  64.999  72.919  0.00  0.00    +0.000 OA
ATOM     24  C   UNL     1      60.643  64.089  71.810  0.00  0.00    +0.000 A 
ATOM     25  O   UNL     1      60.319  64.217  72.558  0.00  0.00    +0.000 OA
ATOM     26  C   UNL     1      60.235  63.635  71.256  0.00  0.00    +0.000 A 
ATOM     27  C   UNL     1      60.559  63.506  70.508  0.00  0.00    +0.000 A 
ENDROOT
TORSDOF 0
ENDMDL
MODEL 2
REMARK VINA RESULT:   -13.126      1.258      6.765
REMARK INTER + INTRA:         -13.126
REMARK INTER:                 -13.126
REMARK INTRA:                   0.000
REMARK UNBOUND:                 0.000
ROOT
REMARK  Name = medroxalol
REMARK                            x       y       z     vdW  Elec       q    Type
REMARK                         _______ _______ _______ _____ _____    ______ ____
ATOM      1  C   UNL     1      60.136  62.404  68.316  0.00  0.00    +0.000 C 
ATOM      2  C   UNL     1      60.850  62.819  68.341  0.00  0.00    +0.000 C 
ATOM      3  C   UNL     1      61.066  63.225  69.024  0.00  0.00    +0.000 C 
ATOM      4  C   UNL     1      60.571  63.218  69.683  0.00  0.00    +0.000 C 
ATOM      5  C   UNL     1      60.787  63.625  70.368  0.00  0.00    +0.000 A 
ATOM      6  C   UNL     1      60.292  63.618  71.028  0.00  0.00    +0.000 A 
ATOM      7  C   UNL     1      60.508  64.024  71.711  0.00  0.00    +0.000 A 
ATOM      8  C   UNL     1      61.221  64.439  71.736  0.00  0.00    +0.000 A 
ATOM      9  O   UNL     1      61.288  64.787  72.481  0.00  0.00    +0.000 OA
ATOM     10  C   UNL     1      60.616  64.587  72.917  0.00  0.00    +0.000 C 
ATOM     11  O   UNL     1      60.135  64.116  72.441  0.00  0.00    +0.000 OA
ATOM     12  C   UNL     1      61.717  64.447  71.077  0.00  0.00    +0.000 A 
ATOM     13  C   UNL     1      61.500  64.039  70.392  0.00  0.00    +0.000 A 
ATOM     14  N   UNL     1      61.345  62.826  67.681  0.00  0.00    +0.000 NA
ATOM     15  C   UNL     1      61.128  62.419  66.998  0.00  0.00    +0.000 C 
ATOM     16  C   UNL     1      61.624  62.426  66.338  0.00  0.00    +0.000 C 
ATOM     17  O   UNL     1      62.337  62.840  66.363  0.00  0.00    +0.000 OA
ATOM     18  C   UNL     1      61.407  62.019  65.654  0.00  0.00    +0.000 A 
ATOM     19  C   UNL     1      61.903  62.026  64.994  0.00  0.00    +0.000 A 
ATOM     20  C   UNL     1      61.686  61.620  64.311  0.00  0.00    +0.000 A 
ATOM     21  C   UNL     1      62.182  61.627  63.651  0.00  0.00    +0.000 C 
ATOM     22  N   UNL     1      62.895  62.041  63.676  0.00  0.00    +0.000 NA
ATOM     23  O   UNL     1      61.965  61.220  62.968  0.00  0.00    +0.000 OA
ATOM     24  C   UNL     1      60.973  61.205  64.286  0.00  0.00    +0.000 A 
ATOM     25  O   UNL     1      60.756  60.798  63.602  0.00  0.00    +0.000 OA
ATOM     26  C   UNL     1      60.477  61.197  64.945  0.00  0.00    +0.000 A 
ATOM     27  C   UNL     1      60.694  61.604  65.629  0.00  0.00    +0.000 A 
ENDROOT
TORSDOF 0
ENDMDL
MODEL 3
REMARK VINA RESULT:   -11.982      1.603      6.732
REMARK INTER + INTRA:         -11.982
REMARK INTER:                 -11.982
REMARK INTRA:                   0.000
REMARK UNBOUND:                 0.000
ROOT
REMARK  Name = medroxalol
REMARK                            x       y       z     vdW  Elec       q    Type
REMARK                         _______ _______ _______ _____ _____    ______ ____
ATOM      1  C   UNL     1      60.437  64.259  69.334  0.00  0.00    +0.000 C 
ATOM      2  C   UNL     1      61.250  64.290  69.190  0.00  0.00    +0.000 C 
ATOM      3  C   UNL     1      61.743  64.708  69.702  0.00  0.00    +0.000 C 
ATOM      4  C   UNL     1      61.425  65.095  70.357  0.00  0.00    +0.000 C 
ATOM      5  C   UNL     1      61.918  65.513  70.869  0.00  0.00    +0.000 A 
ATOM      6  C   UNL     1      61.600  65.900  71.525  0.00  0.00    +0.000 A 
ATOM      7  C   UNL     1      62.093  66.318  72.037  0.00  0.00    +0.000 A 
ATOM      8  C   UNL     1      62.905  66.350  71.894  0.00  0.00    +0.000 A 
ATOM      9  O   UNL     1      63.252  66.802  72.491  0.00  0.00    +0.000 OA
ATOM     10  C   UNL     1      62.654  67.049  73.003  0.00  0.00    +0.000 C 
ATOM     11  O   UNL     1      61.938  66.751  72.723  0.00  0.00    +0.000 OA
ATOM     12  C   UNL     1      63.224  65.963  71.238  0.00  0.00    +0.000 A 
ATOM     13  C   UNL     1      62.730  65.545  70.726  0.00  0.00    +0.000 A 
ATOM     14  N   UNL     1      61.568  63.903  68.534  0.00  0.00    +0.000 NA
ATOM     15  C   UNL     1      61.075  63.486  68.022  0.00  0.00    +0.000 C 
ATOM     16  C   UNL     1      61.393  63.099  67.366  0.00  0.00    +0.000 C 
ATOM     17  O   UNL     1      62.204  63.130  67.223  0.00  0.00    +0.000 OA
ATOM     18  C   UNL     1      60.900  62.681  66.855  0.00  0.00    +0.000 A 
ATOM     19  C   UNL     1      61.218  62.294  66.199  0.00  0.00    +0.000 A 
ATOM     20  C   UNL     1      60.725  61.876  65.687  0.00  0.00    +0.000 A 
ATOM     21  C   UNL     1      61.043  61.489  65.031  0.00  0.00    +0.000 C 
ATOM     22  N   UNL     1      61.854  61.520  64.887  0.00  0.00    +0.000 NA
ATOM     23  O   UNL     1      60.550  61.071  64.519  0.00  0.00    +0.000 OA
ATOM     24  C   UNL     1      59.912  61.844  65.830  0.00  0.00    +0.000 A 
ATOM     25  O   UNL     1      59.419  61.426  65.318  0.00  0.00    +0.000 OA
ATOM     26  C   UNL     1      59.594  62.231  66.486  0.00  0.00    +0.000 A 
ATOM     27  C   UNL     1      60.087  62.649  66.998  0.00  0.00    +0.000 A 
ENDROOT
TORSDOF 0
ENDMDL
MODEL 4
REMARK VINA RESULT:   -11.793      2.425      3.197
REMARK INTER + INTRA:         -11.793
REMARK INTER:                 -11.793
REMARK INTRA:                   0.000
REMARK UNBOUND:                 0.000
ROOT
REMARK  Name = medroxalol
REMARK                            x       y       z     vdW  Elec       q    Type
REMARK                         _______ _______ _______ _____ _____    ______ ____
ATOM      1  C   UNL     1      61.328  64.503  69.487  0.00  0.00    +0.000 C 
ATOM      2  C   UNL     1      61.944  64.306  68.973  0.00  0.00    +0.000 C 
ATOM      3  C   UNL     1      61.794  63.837  68.311  0.00  0.00    +0.000 C 
ATOM      4  C   UNL     1      61.030  63.565  68.164  0.00  0.00    +0.000 C 
ATOM      5  C   UNL     1      60.879  63.095  67.502  0.00  0.00    +0.000 A 
ATOM      6  C   UNL     1      60.115  62.822  67.353  0.00  0.00    +0.000 A 
ATOM      7  C   UNL     1      59.965  62.353  66.692  0.00  0.00    +0.000 A 
ATOM      8  C   UNL     1      60.580  62.157  66.178  0.00  0.00    +0.000 A 
ATOM      9  O   UNL     1      60.267  61.688  65.575  0.00  0.00    +0.000 OA
ATOM     10  C   UNL     1      59.459  61.596  65.716  0.00  0.00    +0.000 C 
ATOM     11  O   UNL     1      59.273  62.007  66.406  0.00  0.00    +0.000 OA
ATOM     12  C   UNL     1      61.344  62.429  66.326  0.00  0.00    +0.000 A 
ATOM     13  C   UNL     1      61.494  62.899  66.988  0.00  0.00    +0.000 A 
ATOM     14  N   UNL     1      62.708  64.579  69.121  0.00  0.00    +0.000 NA
ATOM     15  C   UNL     1      62.858  65.048  69.782  0.00  0.00    +0.000 C 
ATOM     16  C   UNL     1      63.622  65.321  69.930  0.00  0.00    +0.000 C 
ATOM     17  O   UNL     1      64.237  65.125  69.416  0.00  0.00    +0.000 OA
ATOM     18  C   UNL     1      63.772  65.790  70.592  0.00  0.00    +0.000 A 
ATOM     19  C   UNL     1      64.537  66.063  70.740  0.00  0.00    +0.000 A 
ATOM     20  C   UNL     1      64.687  66.532  71.401  0.00  0.00    +0.000 A 
ATOM     21  C   UNL     1      65.451  66.806  71.549  0.00  0.00    +0.000 C 
ATOM     22  N   UNL     1      66.066  66.609  71.035  0.00  0.00    +0.000 NA
ATOM     23  O   UNL     1      65.601  67.275  72.211  0.00  0.00    +0.000 OA
ATOM     24  C   UNL     1      64.071  66.729  71.916  0.00  0.00    +0.000 A 
ATOM     25  O   UNL     1      64.222  67.199  72.577  0.00  0.00    +0.000 OA
ATOM     26  C   UNL     1      63.308  66.457  71.768  0.00  0.00    +0.000 A 
ATOM     27  C   UNL     1      63.157  65.987  71.106  0.00  0.00    +0.000 A 
ENDROOT
TORSDOF 0
ENDMDL
MODEL 5
REMARK VINA RESULT:   -10.583      5.819      7.359
REMARK INTER + INTRA:         -10.583
REMARK INTER:                 -10.583
REMARK INTRA:                   0.000
REMARK UNBOUND:                 0.000
ROOT
REMARK  Name = medroxalol
REMARK                            x       y       z     vdW  Elec       q    Type
REMARK                         _______ _______ _______ _____ _____    ______ ____
ATOM      1  C   UNL     1      62.361  66.826  70.697  0.00  0.00    +0.000 C 
ATOM      2  C   UNL     1      62.485  66.506  71.449  0.00  0.00    +0.000 C 
ATOM      3  C   UNL     1      61.845  66.235  71.892  0.00  0.00    +0.000 C 
ATOM      4  C   UNL     1      61.081  66.283  71.585  0.00  0.00    +0.000 C 
ATOM      5  C   UNL     1      60.440  66.012  72.028  0.00  0.00    +0.000 A 
ATOM      6  C   UNL     1      59.675  66.060  71.722  0.00  0.00    +0.000 A 
ATOM      7  C   UNL     1      59.035  65.789  72.165  0.00  0.00    +0.000 A 
ATOM      8  C   UNL     1      59.159  65.469  72.915  0.00  0.00    +0.000 A 
ATOM      9  O   UNL     1      58.425  65.248  73.222  0.00  0.00    +0.000 OA
ATOM     10  C   UNL     1      57.848  65.431  72.661  0.00  0.00    +0.000 C 
ATOM     11  O   UNL     1      58.225  65.765  72.008  0.00  0.00    +0.000 OA
ATOM     12  C   UNL     1      59.923  65.420  73.222  0.00  0.00    +0.000 A 
ATOM     13  C   UNL     1      60.564  65.692  72.778  0.00  0.00    +0.000 A 
ATOM     14  N   UNL     1      63.250  66.458  71.755  0.00  0.00    +0.000 NA
ATOM     15  C   UNL     1      63.890  66.729  71.312  0.00  0.00    +0.000 C 
ATOM     16  C   UNL     1      64.654  66.681  71.618  0.00  0.00    +0.000 C 
ATOM     17  O   UNL     1      64.778  66.361  72.369  0.00  0.00    +0.000 OA
ATOM     18  C   UNL     1      65.295  66.952  71.175  0.00  0.00    +0.000 A 
ATOM     19  C   UNL     1      66.059  66.904  71.482  0.00  0.00    +0.000 A 
ATOM     20  C   UNL     1      66.700  67.175  71.039  0.00  0.00    +0.000 A 
ATOM     21  C   UNL     1      67.464  67.127  71.345  0.00  0.00    +0.000 C 
ATOM     22  N   UNL     1      67.588  66.807  72.095  0.00  0.00    +0.000 NA
ATOM     23  O   UNL     1      68.104  67.398  70.902  0.00  0.00    +0.000 OA
ATOM     24  C   UNL     1      66.576  67.495  70.288  0.00  0.00    +0.000 A 
ATOM     25  O   UNL     1      67.217  67.766  69.844  0.00  0.00    +0.000 OA
ATOM     26  C   UNL     1      65.812  67.543  69.981  0.00  0.00    +0.000 A 
ATOM     27  C   UNL     1      65.171  67.272  70.424  0.00  0.00    +0.000 A 
ENDROOT
TORSDOF 0
ENDMDL
