MODEL 1
REMARK VINA RESULT:   -14.508      0.000      0.000
REMARK INTER + INTRA:         -14.508
REMARK INTER:                 -14.508
REMARK INTRA:                   0.000
REMARK UNBOUND:                 0.000
ROOT
REMARK  Name = medroxyprogesterone
REMARK                            x       y       z     vdW  Elec       q    Type
REMARK                         _______ _______ _______ _____ _____    ______ ____
ATOM      1  C   UNL     1      60.063  60.752  64.549  0.00  0.00    +0.000 C 
ATOM      2  C   UNL     1      60.576  61.248  64.963  0.00  0.00    +0.000 C 
ATOM      3  C   UNL     1      60.381  61.500  65.724  0.00  0.00    +0.000 C 
ATOM      4  C   UNL     1      60.894  61.996  66.138  0.00  0.00    +0.000 C 
ATOM      5  C   UNL     1      60.699  62.248  66.900  0.00  0.00    +0.000 C 
ATOM      6  C   UNL     1      60.045  62.099  67.380  0.00  0.00    +0.000 C 
ATOM      7  C   UNL     1      60.154  62.503  68.091  0.00  0.00    +0.000 C 
ATOM      8  C   UNL     1      60.876  62.902  68.049  0.00  0.00    +0.000 C 
ATOM      9  O   UNL     1      61.555  63.353  68.168  0.00  0.00    +0.000 OA
ATOM     10  C   UNL     1      61.664  63.757  68.879  0.00  0.00    +0.000 C 
ATOM     11  C   UNL     1      62.344  64.208  68.997  0.00  0.00    +0.000 C 
ATOM     12  O   UNL     1      61.092  63.709  69.472  0.00  0.00    +0.000 OA
ATOM     13  C   UNL     1      60.681  63.154  68.811  0.00  0.00    +0.000 C 
ATOM     14  C   UNL     1      59.973  62.909  69.158  0.00  0.00    +0.000 C 
ATOM     15  O   UNL     1      60.790  63.557  69.522  0.00  0.00    +0.000 OA
ATOM     16  C   UNL     1      61.212  62.744  67.313  0.00  0.00    +0.000 C 
ATOM     17  C   UNL     1      61.668  63.238  67.792  0.00  0.00    +0.000 C 
ATOM     18  C   UNL     1      61.920  62.988  66.966  0.00  0.00    +0.000 C 
ATOM     19  C   UNL     1      62.114  62.737  66.205  0.00  0.00    +0.000 C 
ATOM     20  C   UNL     1      61.601  62.241  65.791  0.00  0.00    +0.000 C 
ATOM     21  C   UNL     1      61.796  61.989  65.030  0.00  0.00    +0.000 C 
ATOM     22  C   UNL     1      62.309  62.485  65.444  0.00  0.00    +0.000 C 
ATOM     23  C   UNL     1      62.503  62.233  64.683  0.00  0.00    +0.000 C 
ATOM     24  C   UNL     1      62.698  61.981  63.922  0.00  0.00    +0.000 C 
ATOM     25  C   UNL     1      62.185  61.485  63.507  0.00  0.00    +0.000 C 
ATOM     26  O   UNL     1      62.380  61.233  62.746  0.00  0.00    +0.000 OA
ATOM     27  C   UNL     1      61.478  61.241  63.855  0.00  0.00    +0.000 C 
ATOM     28  C   UNL     1      61.284  61.493  64.616  0.00  0.00    +0.000 C 
ENDROOT
TORSDOF 0
ENDMDL
MODEL 2
REMARK VINA RESULT:   -13.893      4.568      6.088
REMARK INTER + INTRA:         -13.893
REMARK INTER:                 -13.893
REMARK INTRA:                   0.000
REMARK UNBOUND:                 0.000
ROOT
REMARK  Name = medroxyprogesterone
REMARK                            x       y       z     vdW  Elec       q    Type
REMARK                         _______ _______ _______ _____ _____    ______ ____
ATOM      1  C   UNL     1      60.529  61.915  70.035  0.00  0.00    +0.000 C 
ATOM      2  C   UNL     1      60.649  62.456  70.646  0.00  0.00    +0.000 C 
ATOM      3  C   UNL     1      60.358  63.225  70.579  0.00  0.00    +0.000 C 
ATOM      4  C   UNL     1      60.479  63.766  71.190  0.00  0.00    +0.000 C 
ATOM      5  C   UNL     1      60.187  64.535  71.123  0.00  0.00    +0.000 C 
ATOM      6  C   UNL     1      59.764  64.915  70.527  0.00  0.00    +0.000 C 
ATOM      7  C   UNL     1      59.622  65.691  70.769  0.00  0.00    +0.000 C 
ATOM      8  C   UNL     1      59.959  65.791  71.516  0.00  0.00    +0.000 C 
ATOM      9  O   UNL     1      60.234  66.051  72.248  0.00  0.00    +0.000 OA
ATOM     10  C   UNL     1      60.093  66.827  72.489  0.00  0.00    +0.000 C 
ATOM     11  C   UNL     1      60.369  67.087  73.222  0.00  0.00    +0.000 C 
ATOM     12  O   UNL     1      59.677  67.343  71.999  0.00  0.00    +0.000 OA
ATOM     13  C   UNL     1      59.667  66.560  71.449  0.00  0.00    +0.000 C 
ATOM     14  C   UNL     1      59.255  66.787  70.772  0.00  0.00    +0.000 C 
ATOM     15  O   UNL     1      59.527  67.335  71.691  0.00  0.00    +0.000 OA
ATOM     16  C   UNL     1      60.308  65.076  71.734  0.00  0.00    +0.000 C 
ATOM     17  C   UNL     1      60.386  65.675  72.298  0.00  0.00    +0.000 C 
ATOM     18  C   UNL     1      60.720  64.848  72.412  0.00  0.00    +0.000 C 
ATOM     19  C   UNL     1      61.012  64.080  72.479  0.00  0.00    +0.000 C 
ATOM     20  C   UNL     1      60.891  63.539  71.868  0.00  0.00    +0.000 C 
ATOM     21  C   UNL     1      61.182  62.770  71.934  0.00  0.00    +0.000 C 
ATOM     22  C   UNL     1      61.303  63.311  72.545  0.00  0.00    +0.000 C 
ATOM     23  C   UNL     1      61.595  62.542  72.611  0.00  0.00    +0.000 C 
ATOM     24  C   UNL     1      61.886  61.773  72.677  0.00  0.00    +0.000 C 
ATOM     25  C   UNL     1      61.766  61.231  72.067  0.00  0.00    +0.000 C 
ATOM     26  O   UNL     1      62.057  60.462  72.133  0.00  0.00    +0.000 OA
ATOM     27  C   UNL     1      61.353  61.459  71.390  0.00  0.00    +0.000 C 
ATOM     28  C   UNL     1      61.062  62.228  71.323  0.00  0.00    +0.000 C 
ENDROOT
TORSDOF 0
ENDMDL
MODEL 3
REMARK VINA RESULT:   -13.614      4.944      6.534
REMARK INTER + INTRA:         -13.614
REMARK INTER:                 -13.614
REMARK INTRA:                   0.000
REMARK UNBOUND:                 0.000
ROOT
REMARK  Name = medroxyprogesterone
REMARK                            x       y       z     vdW  Elec       q    Type
REMARK                         _______ _______ _______ _____ _____    ______ ____
ATOM      1  C   UNL     1      64.204  67.555  72.142  0.00  0.00    +0.000 C 
ATOM      2  C   UNL     1      64.014  66.849  71.760  0.00  0.00    +0.000 C 
ATOM      3  C   UNL     1      63.402  66.377  72.048  0.00  0.00    +0.000 C 
ATOM      4  C   UNL     1      63.212  65.670  71.667  0.00  0.00    +0.000 C 
ATOM      5  C   UNL     1      62.599  65.198  71.955  0.00  0.00    +0.000 C 
ATOM      6  C   UNL     1      62.091  65.285  72.599  0.00  0.00    +0.000 C 
ATOM      7  C   UNL     1      61.586  64.633  72.615  0.00  0.00    +0.000 C 
ATOM      8  C   UNL     1      61.783  64.142  71.981  0.00  0.00    +0.000 C 
ATOM      9  O   UNL     1      61.851  63.553  71.408  0.00  0.00    +0.000 OA
ATOM     10  C   UNL     1      61.346  62.901  71.425  0.00  0.00    +0.000 C 
ATOM     11  C   UNL     1      61.415  62.312  70.851  0.00  0.00    +0.000 C 
ATOM     12  O   UNL     1      60.773  62.838  72.015  0.00  0.00    +0.000 OA
ATOM     13  C   UNL     1      61.170  63.670  72.270  0.00  0.00    +0.000 C 
ATOM     14  C   UNL     1      60.750  63.904  72.939  0.00  0.00    +0.000 C 
ATOM     15  O   UNL     1      60.666  63.018  72.286  0.00  0.00    +0.000 OA
ATOM     16  C   UNL     1      62.409  64.492  71.574  0.00  0.00    +0.000 C 
ATOM     17  C   UNL     1      62.157  63.774  71.252  0.00  0.00    +0.000 C 
ATOM     18  C   UNL     1      62.830  64.258  70.904  0.00  0.00    +0.000 C 
ATOM     19  C   UNL     1      63.442  64.730  70.616  0.00  0.00    +0.000 C 
ATOM     20  C   UNL     1      63.633  65.436  70.997  0.00  0.00    +0.000 C 
ATOM     21  C   UNL     1      64.244  65.908  70.709  0.00  0.00    +0.000 C 
ATOM     22  C   UNL     1      64.054  65.202  70.327  0.00  0.00    +0.000 C 
ATOM     23  C   UNL     1      64.666  65.675  70.040  0.00  0.00    +0.000 C 
ATOM     24  C   UNL     1      65.278  66.147  69.752  0.00  0.00    +0.000 C 
ATOM     25  C   UNL     1      65.469  66.853  70.133  0.00  0.00    +0.000 C 
ATOM     26  O   UNL     1      66.081  67.326  69.845  0.00  0.00    +0.000 OA
ATOM     27  C   UNL     1      65.047  67.087  70.802  0.00  0.00    +0.000 C 
ATOM     28  C   UNL     1      64.436  66.615  71.090  0.00  0.00    +0.000 C 
ENDROOT
TORSDOF 0
ENDMDL
MODEL 4
REMARK VINA RESULT:   -13.551      2.967      4.935
REMARK INTER + INTRA:         -13.551
REMARK INTER:                 -13.551
REMARK INTRA:                   0.000
REMARK UNBOUND:                 0.000
ROOT
REMARK  Name = medroxyprogesterone
REMARK                            x       y       z     vdW  Elec       q    Type
REMARK                         _______ _______ _______ _____ _____    ______ ____
ATOM      1  C   UNL     1      60.486  61.589  70.585  0.00  0.00    +0.000 C 
ATOM      2  C   UNL     1      60.367  62.376  70.368  0.00  0.00    +0.000 C 
ATOM      3  C   UNL     1      60.156  62.933  70.939  0.00  0.00    +0.000 C 
ATOM      4  C   UNL     1      60.037  63.720  70.722  0.00  0.00    +0.000 C 
ATOM      5  C   UNL     1      59.825  64.277  71.294  0.00  0.00    +0.000 C 
ATOM      6  C   UNL     1      59.696  64.214  72.106  0.00  0.00    +0.000 C 
ATOM      7  C   UNL     1      59.496  64.962  72.391  0.00  0.00    +0.000 C 
ATOM      8  C   UNL     1      59.503  65.487  71.755  0.00  0.00    +0.000 C 
ATOM      9  O   UNL     1      59.465  66.129  71.239  0.00  0.00    +0.000 OA
ATOM     10  C   UNL     1      59.266  66.877  71.525  0.00  0.00    +0.000 C 
ATOM     11  C   UNL     1      59.228  67.519  71.008  0.00  0.00    +0.000 C 
ATOM     12  O   UNL     1      59.104  66.983  72.327  0.00  0.00    +0.000 OA
ATOM     13  C   UNL     1      59.291  66.045  72.326  0.00  0.00    +0.000 C 
ATOM     14  C   UNL     1      59.200  65.814  73.113  0.00  0.00    +0.000 C 
ATOM     15  O   UNL     1      59.092  66.792  72.611  0.00  0.00    +0.000 OA
ATOM     16  C   UNL     1      59.706  65.064  71.077  0.00  0.00    +0.000 C 
ATOM     17  C   UNL     1      59.569  65.867  70.944  0.00  0.00    +0.000 C 
ATOM     18  C   UNL     1      59.798  65.294  70.290  0.00  0.00    +0.000 C 
ATOM     19  C   UNL     1      60.009  64.737  69.719  0.00  0.00    +0.000 C 
ATOM     20  C   UNL     1      60.128  63.950  69.936  0.00  0.00    +0.000 C 
ATOM     21  C   UNL     1      60.339  63.393  69.365  0.00  0.00    +0.000 C 
ATOM     22  C   UNL     1      60.220  64.180  69.149  0.00  0.00    +0.000 C 
ATOM     23  C   UNL     1      60.432  63.623  68.579  0.00  0.00    +0.000 C 
ATOM     24  C   UNL     1      60.643  63.066  68.008  0.00  0.00    +0.000 C 
ATOM     25  C   UNL     1      60.762  62.278  68.224  0.00  0.00    +0.000 C 
ATOM     26  O   UNL     1      60.973  61.721  67.653  0.00  0.00    +0.000 OA
ATOM     27  C   UNL     1      60.670  62.049  69.010  0.00  0.00    +0.000 C 
ATOM     28  C   UNL     1      60.459  62.606  69.581  0.00  0.00    +0.000 C 
ENDROOT
TORSDOF 0
ENDMDL
MODEL 5
REMARK VINA RESULT:   -13.327      4.909      7.059
REMARK INTER + INTRA:         -13.327
REMARK INTER:                 -13.327
REMARK INTRA:                   0.000
REMARK UNBOUND:                 0.000
ROOT
REMARK  Name = medroxyprogesterone
REMARK                            x       y       z     vdW  Elec       q    Type
REMARK                         _______ _______ _______ _____ _____    ______ ____
ATOM      1  C   UNL     1      61.796  65.798  69.089  0.00  0.00    +0.000 C 
ATOM      2  C   UNL     1      62.314  65.769  69.730  0.00  0.00    +0.000 C 
ATOM      3  C   UNL     1      63.057  66.123  69.676  0.00  0.00    +0.000 C 
ATOM      4  C   UNL     1      63.576  66.093  70.317  0.00  0.00    +0.000 C 
ATOM      5  C   UNL     1      64.320  66.447  70.262  0.00  0.00    +0.000 C 
ATOM      6  C   UNL     1      64.691  66.861  69.653  0.00  0.00    +0.000 C 
ATOM      7  C   UNL     1      65.439  67.087  69.917  0.00  0.00    +0.000 C 
ATOM      8  C   UNL     1      65.530  66.813  70.691  0.00  0.00    +0.000 C 
ATOM      9  O   UNL     1      65.776  66.614  71.451  0.00  0.00    +0.000 OA
ATOM     10  C   UNL     1      66.524  66.840  71.716  0.00  0.00    +0.000 C 
ATOM     11  C   UNL     1      66.770  66.640  72.477  0.00  0.00    +0.000 C 
ATOM     12  O   UNL     1      67.026  67.266  71.218  0.00  0.00    +0.000 OA
ATOM     13  C   UNL     1      66.274  67.167  70.636  0.00  0.00    +0.000 C 
ATOM     14  C   UNL     1      66.497  67.550  69.941  0.00  0.00    +0.000 C 
ATOM     15  O   UNL     1      67.021  67.393  70.901  0.00  0.00    +0.000 OA
ATOM     16  C   UNL     1      64.838  66.418  70.903  0.00  0.00    +0.000 C 
ATOM     17  C   UNL     1      65.412  66.433  71.496  0.00  0.00    +0.000 C 
ATOM     18  C   UNL     1      64.613  66.035  71.599  0.00  0.00    +0.000 C 
ATOM     19  C   UNL     1      63.870  65.681  71.653  0.00  0.00    +0.000 C 
ATOM     20  C   UNL     1      63.352  65.710  71.012  0.00  0.00    +0.000 C 
ATOM     21  C   UNL     1      62.609  65.356  71.066  0.00  0.00    +0.000 C 
ATOM     22  C   UNL     1      63.127  65.327  71.708  0.00  0.00    +0.000 C 
ATOM     23  C   UNL     1      62.384  64.973  71.761  0.00  0.00    +0.000 C 
ATOM     24  C   UNL     1      61.640  64.619  71.815  0.00  0.00    +0.000 C 
ATOM     25  C   UNL     1      61.121  64.648  71.174  0.00  0.00    +0.000 C 
ATOM     26  O   UNL     1      60.378  64.295  71.229  0.00  0.00    +0.000 OA
ATOM     27  C   UNL     1      61.346  65.032  70.480  0.00  0.00    +0.000 C 
ATOM     28  C   UNL     1      62.089  65.385  70.426  0.00  0.00    +0.000 C 
ENDROOT
TORSDOF 0
ENDMDL
MODEL 6
REMARK VINA RESULT:   -13.237      4.596      6.311
REMARK INTER + INTRA:         -13.237
REMARK INTER:                 -13.237
REMARK INTRA:                   0.000
REMARK UNBOUND:                 0.000
ROOT
REMARK  Name = medroxyprogesterone
REMARK                            x       y       z     vdW  Elec       q    Type
REMARK                         _______ _______ _______ _____ _____    ______ ____
ATOM      1  C   UNL     1      60.475  64.028  72.845  0.00  0.00    +0.000 C 
ATOM      2  C   UNL     1      61.064  64.118  72.275  0.00  0.00    +0.000 C 
ATOM      3  C   UNL     1      61.592  64.749  72.324  0.00  0.00    +0.000 C 
ATOM      4  C   UNL     1      62.182  64.839  71.754  0.00  0.00    +0.000 C 
ATOM      5  C   UNL     1      62.711  65.471  71.804  0.00  0.00    +0.000 C 
ATOM      6  C   UNL     1      62.785  66.088  72.346  0.00  0.00    +0.000 C 
ATOM      7  C   UNL     1      63.420  66.559  72.112  0.00  0.00    +0.000 C 
ATOM      8  C   UNL     1      63.739  66.232  71.424  0.00  0.00    +0.000 C 
ATOM      9  O   UNL     1      64.168  66.039  70.747  0.00  0.00    +0.000 OA
ATOM     10  C   UNL     1      64.803  66.510  70.512  0.00  0.00    +0.000 C 
ATOM     11  C   UNL     1      65.232  66.316  69.835  0.00  0.00    +0.000 C 
ATOM     12  O   UNL     1      65.010  67.175  70.956  0.00  0.00    +0.000 OA
ATOM     13  C   UNL     1      64.268  66.865  71.473  0.00  0.00    +0.000 C 
ATOM     14  C   UNL     1      64.206  67.406  72.092  0.00  0.00    +0.000 C 
ATOM     15  O   UNL     1      64.903  67.335  71.238  0.00  0.00    +0.000 OA
ATOM     16  C   UNL     1      63.300  65.561  71.234  0.00  0.00    +0.000 C 
ATOM     17  C   UNL     1      63.915  65.721  70.707  0.00  0.00    +0.000 C 
ATOM     18  C   UNL     1      63.362  65.019  70.614  0.00  0.00    +0.000 C 
ATOM     19  C   UNL     1      62.834  64.387  70.565  0.00  0.00    +0.000 C 
ATOM     20  C   UNL     1      62.244  64.297  71.135  0.00  0.00    +0.000 C 
ATOM     21  C   UNL     1      61.716  63.666  71.086  0.00  0.00    +0.000 C 
ATOM     22  C   UNL     1      62.305  63.755  70.516  0.00  0.00    +0.000 C 
ATOM     23  C   UNL     1      61.777  63.124  70.468  0.00  0.00    +0.000 C 
ATOM     24  C   UNL     1      61.249  62.492  70.418  0.00  0.00    +0.000 C 
ATOM     25  C   UNL     1      60.658  62.402  70.988  0.00  0.00    +0.000 C 
ATOM     26  O   UNL     1      60.130  61.770  70.939  0.00  0.00    +0.000 OA
ATOM     27  C   UNL     1      60.598  62.944  71.607  0.00  0.00    +0.000 C 
ATOM     28  C   UNL     1      61.126  63.575  71.656  0.00  0.00    +0.000 C 
ENDROOT
TORSDOF 0
ENDMDL
MODEL 7
REMARK VINA RESULT:   -13.207      1.453      4.650
REMARK INTER + INTRA:         -13.207
REMARK INTER:                 -13.207
REMARK INTRA:                   0.000
REMARK UNBOUND:                 0.000
ROOT
REMARK  Name = medroxyprogesterone
REMARK                            x       y       z     vdW  Elec       q    Type
REMARK                         _______ _______ _______ _____ _____    ______ ____
ATOM      1  C   UNL     1      60.015  63.552  70.998  0.00  0.00    +0.000 C 
ATOM      2  C   UNL     1      60.514  63.532  70.341  0.00  0.00    +0.000 C 
ATOM      3  C   UNL     1      60.246  63.211  69.630  0.00  0.00    +0.000 C 
ATOM      4  C   UNL     1      60.745  63.192  68.973  0.00  0.00    +0.000 C 
ATOM      5  C   UNL     1      60.476  62.870  68.262  0.00  0.00    +0.000 C 
ATOM      6  C   UNL     1      59.755  62.535  68.044  0.00  0.00    +0.000 C 
ATOM      7  C   UNL     1      59.808  62.307  67.253  0.00  0.00    +0.000 C 
ATOM      8  C   UNL     1      60.562  62.503  66.981  0.00  0.00    +0.000 C 
ATOM      9  O   UNL     1      61.259  62.631  66.561  0.00  0.00    +0.000 OA
ATOM     10  C   UNL     1      61.312  62.404  65.769  0.00  0.00    +0.000 C 
ATOM     11  C   UNL     1      62.010  62.532  65.349  0.00  0.00    +0.000 C 
ATOM     12  O   UNL     1      60.666  62.048  65.399  0.00  0.00    +0.000 OA
ATOM     13  C   UNL     1      60.294  62.182  66.269  0.00  0.00    +0.000 C 
ATOM     14  C   UNL     1      59.528  61.880  66.216  0.00  0.00    +0.000 C 
ATOM     15  O   UNL     1      60.347  61.955  65.479  0.00  0.00    +0.000 OA
ATOM     16  C   UNL     1      60.975  62.851  67.605  0.00  0.00    +0.000 C 
ATOM     17  C   UNL     1      61.409  62.794  66.904  0.00  0.00    +0.000 C 
ATOM     18  C   UNL     1      61.741  63.152  67.659  0.00  0.00    +0.000 C 
ATOM     19  C   UNL     1      62.009  63.473  68.370  0.00  0.00    +0.000 C 
ATOM     20  C   UNL     1      61.511  63.493  69.027  0.00  0.00    +0.000 C 
ATOM     21  C   UNL     1      61.778  63.814  69.738  0.00  0.00    +0.000 C 
ATOM     22  C   UNL     1      62.277  63.794  69.081  0.00  0.00    +0.000 C 
ATOM     23  C   UNL     1      62.544  64.115  69.792  0.00  0.00    +0.000 C 
ATOM     24  C   UNL     1      62.812  64.436  70.503  0.00  0.00    +0.000 C 
ATOM     25  C   UNL     1      62.314  64.456  71.161  0.00  0.00    +0.000 C 
ATOM     26  O   UNL     1      62.581  64.778  71.872  0.00  0.00    +0.000 OA
ATOM     27  C   UNL     1      61.548  64.155  71.106  0.00  0.00    +0.000 C 
ATOM     28  C   UNL     1      61.280  63.834  70.395  0.00  0.00    +0.000 C 
ENDROOT
TORSDOF 0
ENDMDL
MODEL 8
REMARK VINA RESULT:   -13.200      4.777      7.207
REMARK INTER + INTRA:         -13.200
REMARK INTER:                 -13.200
REMARK INTRA:                   0.000
REMARK UNBOUND:                 0.000
ROOT
REMARK  Name = medroxyprogesterone
REMARK                            x       y       z     vdW  Elec       q    Type
REMARK                         _______ _______ _______ _____ _____    ______ ____
ATOM      1  C   UNL     1      66.239  67.745  69.642  0.00  0.00    +0.000 C 
ATOM      2  C   UNL     1      65.772  67.260  70.119  0.00  0.00    +0.000 C 
ATOM      3  C   UNL     1      65.027  67.021  69.860  0.00  0.00    +0.000 C 
ATOM      4  C   UNL     1      64.560  66.536  70.337  0.00  0.00    +0.000 C 
ATOM      5  C   UNL     1      63.814  66.297  70.077  0.00  0.00    +0.000 C 
ATOM      6  C   UNL     1      63.396  66.449  69.383  0.00  0.00    +0.000 C 
ATOM      7  C   UNL     1      62.670  66.059  69.431  0.00  0.00    +0.000 C 
ATOM      8  C   UNL     1      62.641  65.665  70.156  0.00  0.00    +0.000 C 
ATOM      9  O   UNL     1      62.455  65.222  70.826  0.00  0.00    +0.000 OA
ATOM     10  C   UNL     1      61.729  64.831  70.874  0.00  0.00    +0.000 C 
ATOM     11  C   UNL     1      61.544  64.387  71.544  0.00  0.00    +0.000 C 
ATOM     12  O   UNL     1      61.190  64.885  70.252  0.00  0.00    +0.000 OA
ATOM     13  C   UNL     1      61.894  65.425  69.896  0.00  0.00    +0.000 C 
ATOM     14  C   UNL     1      61.616  65.671  69.160  0.00  0.00    +0.000 C 
ATOM     15  O   UNL     1      61.170  65.035  69.945  0.00  0.00    +0.000 OA
ATOM     16  C   UNL     1      63.347  65.812  70.555  0.00  0.00    +0.000 C 
ATOM     17  C   UNL     1      62.821  65.330  70.970  0.00  0.00    +0.000 C 
ATOM     18  C   UNL     1      63.626  65.567  71.292  0.00  0.00    +0.000 C 
ATOM     19  C   UNL     1      64.371  65.807  71.552  0.00  0.00    +0.000 C 
ATOM     20  C   UNL     1      64.838  66.291  71.074  0.00  0.00    +0.000 C 
ATOM     21  C   UNL     1      65.583  66.531  71.334  0.00  0.00    +0.000 C 
ATOM     22  C   UNL     1      65.117  66.046  71.811  0.00  0.00    +0.000 C 
ATOM     23  C   UNL     1      65.863  66.286  72.070  0.00  0.00    +0.000 C 
ATOM     24  C   UNL     1      66.608  66.525  72.329  0.00  0.00    +0.000 C 
ATOM     25  C   UNL     1      67.075  67.010  71.852  0.00  0.00    +0.000 C 
ATOM     26  O   UNL     1      67.821  67.250  72.112  0.00  0.00    +0.000 OA
ATOM     27  C   UNL     1      66.796  67.255  71.116  0.00  0.00    +0.000 C 
ATOM     28  C   UNL     1      66.051  67.015  70.856  0.00  0.00    +0.000 C 
ENDROOT
TORSDOF 0
ENDMDL
MODEL 9
REMARK VINA RESULT:   -12.730      3.383      6.727
REMARK INTER + INTRA:         -12.730
REMARK INTER:                 -12.730
REMARK INTRA:                   0.000
REMARK UNBOUND:                 0.000
ROOT
REMARK  Name = medroxyprogesterone
REMARK                            x       y       z     vdW  Elec       q    Type
REMARK                         _______ _______ _______ _____ _____    ______ ____
ATOM      1  C   UNL     1      59.414  67.489  70.577  0.00  0.00    +0.000 C 
ATOM      2  C   UNL     1      59.413  66.719  70.873  0.00  0.00    +0.000 C 
ATOM      3  C   UNL     1      59.751  66.108  70.434  0.00  0.00    +0.000 C 
ATOM      4  C   UNL     1      59.751  65.338  70.730  0.00  0.00    +0.000 C 
ATOM      5  C   UNL     1      60.089  64.727  70.290  0.00  0.00    +0.000 C 
ATOM      6  C   UNL     1      60.461  64.717  69.554  0.00  0.00    +0.000 C 
ATOM      7  C   UNL     1      60.690  63.940  69.394  0.00  0.00    +0.000 C 
ATOM      8  C   UNL     1      60.459  63.471  70.033  0.00  0.00    +0.000 C 
ATOM      9  O   UNL     1      60.300  62.873  70.578  0.00  0.00    +0.000 OA
ATOM     10  C   UNL     1      60.530  62.097  70.419  0.00  0.00    +0.000 C 
ATOM     11  C   UNL     1      60.370  61.500  70.966  0.00  0.00    +0.000 C 
ATOM     12  O   UNL     1      60.918  61.918  69.714  0.00  0.00    +0.000 OA
ATOM     13  C   UNL     1      60.798  62.859  69.593  0.00  0.00    +0.000 C 
ATOM     14  C   UNL     1      61.136  63.019  68.858  0.00  0.00    +0.000 C 
ATOM     15  O   UNL     1      61.027  62.083  69.434  0.00  0.00    +0.000 OA
ATOM     16  C   UNL     1      60.088  63.957  70.586  0.00  0.00    +0.000 C 
ATOM     17  C   UNL     1      60.129  63.163  70.810  0.00  0.00    +0.000 C 
ATOM     18  C   UNL     1      59.750  63.798  71.321  0.00  0.00    +0.000 C 
ATOM     19  C   UNL     1      59.412  64.408  71.761  0.00  0.00    +0.000 C 
ATOM     20  C   UNL     1      59.412  65.178  71.465  0.00  0.00    +0.000 C 
ATOM     21  C   UNL     1      59.074  65.789  71.904  0.00  0.00    +0.000 C 
ATOM     22  C   UNL     1      59.074  65.019  72.200  0.00  0.00    +0.000 C 
ATOM     23  C   UNL     1      58.736  65.631  72.639  0.00  0.00    +0.000 C 
ATOM     24  C   UNL     1      58.398  66.241  73.079  0.00  0.00    +0.000 C 
ATOM     25  C   UNL     1      58.398  67.012  72.783  0.00  0.00    +0.000 C 
ATOM     26  O   UNL     1      58.060  67.623  73.222  0.00  0.00    +0.000 OA
ATOM     27  C   UNL     1      58.737  67.170  72.048  0.00  0.00    +0.000 C 
ATOM     28  C   UNL     1      59.075  66.560  71.609  0.00  0.00    +0.000 C 
ENDROOT
TORSDOF 0
ENDMDL
