MODEL 1
REMARK VINA RESULT:    -6.527      0.000      0.000
REMARK INTER + INTRA:          -6.527
REMARK INTER:                  -6.527
REMARK INTRA:                   0.000
REMARK UNBOUND:                 0.000
ROOT
REMARK  Name = meglumine
REMARK                            x       y       z     vdW  Elec       q    Type
REMARK                         _______ _______ _______ _____ _____    ______ ____
ATOM      1  C   UNL     1      60.130  62.716  68.189  0.00  0.00    +0.000 C 
ATOM      2  N   UNL     1      60.752  62.731  67.648  0.00  0.00    +0.000 NA
ATOM      3  C   UNL     1      60.668  62.364  66.913  0.00  0.00    +0.000 C 
ATOM      4  C   UNL     1      61.291  62.378  66.372  0.00  0.00    +0.000 C 
ATOM      5  O   UNL     1      61.996  62.760  66.565  0.00  0.00    +0.000 OA
ATOM      6  C   UNL     1      61.207  62.011  65.637  0.00  0.00    +0.000 C 
ATOM      7  O   UNL     1      60.501  61.630  65.445  0.00  0.00    +0.000 OA
ATOM      8  C   UNL     1      61.829  62.026  65.096  0.00  0.00    +0.000 C 
ATOM      9  O   UNL     1      62.535  62.407  65.289  0.00  0.00    +0.000 OA
ATOM     10  C   UNL     1      61.745  61.659  64.361  0.00  0.00    +0.000 C 
ATOM     11  O   UNL     1      61.039  61.278  64.169  0.00  0.00    +0.000 OA
ATOM     12  C   UNL     1      62.368  61.674  63.820  0.00  0.00    +0.000 C 
ATOM     13  O   UNL     1      62.284  61.307  63.086  0.00  0.00    +0.000 OA
ENDROOT
TORSDOF 0
ENDMDL
MODEL 2
REMARK VINA RESULT:    -6.138      1.416      3.512
REMARK INTER + INTRA:          -6.138
REMARK INTER:                  -6.138
REMARK INTRA:                   0.000
REMARK UNBOUND:                 0.000
ROOT
REMARK  Name = meglumine
REMARK                            x       y       z     vdW  Elec       q    Type
REMARK                         _______ _______ _______ _____ _____    ______ ____
ATOM      1  C   UNL     1      62.388  61.636  63.648  0.00  0.00    +0.000 C 
ATOM      2  N   UNL     1      61.762  61.636  64.185  0.00  0.00    +0.000 NA
ATOM      3  C   UNL     1      61.851  61.997  64.922  0.00  0.00    +0.000 C 
ATOM      4  C   UNL     1      61.225  61.997  65.459  0.00  0.00    +0.000 C 
ATOM      5  O   UNL     1      60.510  61.635  65.261  0.00  0.00    +0.000 OA
ATOM      6  C   UNL     1      61.314  62.358  66.196  0.00  0.00    +0.000 C 
ATOM      7  O   UNL     1      62.029  62.719  66.395  0.00  0.00    +0.000 OA
ATOM      8  C   UNL     1      60.688  62.357  66.734  0.00  0.00    +0.000 C 
ATOM      9  O   UNL     1      59.974  61.996  66.535  0.00  0.00    +0.000 OA
ATOM     10  C   UNL     1      60.778  62.719  67.471  0.00  0.00    +0.000 C 
ATOM     11  O   UNL     1      61.492  63.080  67.669  0.00  0.00    +0.000 OA
ATOM     12  C   UNL     1      60.152  62.718  68.008  0.00  0.00    +0.000 C 
ATOM     13  O   UNL     1      60.241  63.080  68.745  0.00  0.00    +0.000 OA
ENDROOT
TORSDOF 0
ENDMDL
MODEL 3
REMARK VINA RESULT:    -5.674      2.836      5.119
REMARK INTER + INTRA:          -5.674
REMARK INTER:                  -5.674
REMARK INTRA:                   0.000
REMARK UNBOUND:                 0.000
ROOT
REMARK  Name = meglumine
REMARK                            x       y       z     vdW  Elec       q    Type
REMARK                         _______ _______ _______ _____ _____    ______ ____
ATOM      1  C   UNL     1      61.578  62.619  66.442  0.00  0.00    +0.000 C 
ATOM      2  N   UNL     1      61.238  62.315  67.130  0.00  0.00    +0.000 NA
ATOM      3  C   UNL     1      61.243  62.761  67.824  0.00  0.00    +0.000 C 
ATOM      4  C   UNL     1      60.903  62.457  68.511  0.00  0.00    +0.000 C 
ATOM      5  O   UNL     1      60.558  61.707  68.505  0.00  0.00    +0.000 OA
ATOM      6  C   UNL     1      60.907  62.903  69.206  0.00  0.00    +0.000 C 
ATOM      7  O   UNL     1      61.252  63.653  69.212  0.00  0.00    +0.000 OA
ATOM      8  C   UNL     1      60.567  62.599  69.893  0.00  0.00    +0.000 C 
ATOM      9  O   UNL     1      60.223  61.849  69.887  0.00  0.00    +0.000 OA
ATOM     10  C   UNL     1      60.572  63.046  70.588  0.00  0.00    +0.000 C 
ATOM     11  O   UNL     1      60.916  63.795  70.594  0.00  0.00    +0.000 OA
ATOM     12  C   UNL     1      60.232  62.741  71.275  0.00  0.00    +0.000 C 
ATOM     13  O   UNL     1      60.237  63.188  71.970  0.00  0.00    +0.000 OA
ENDROOT
TORSDOF 0
ENDMDL
MODEL 4
REMARK VINA RESULT:    -5.504      5.816      6.955
REMARK INTER + INTRA:          -5.504
REMARK INTER:                  -5.504
REMARK INTRA:                   0.000
REMARK UNBOUND:                 0.000
ROOT
REMARK  Name = meglumine
REMARK                            x       y       z     vdW  Elec       q    Type
REMARK                         _______ _______ _______ _____ _____    ______ ____
ATOM      1  C   UNL     1      66.260  67.630  69.853  0.00  0.00    +0.000 C 
ATOM      2  N   UNL     1      65.686  67.245  70.302  0.00  0.00    +0.000 NA
ATOM      3  C   UNL     1      65.296  66.585  69.994  0.00  0.00    +0.000 C 
ATOM      4  C   UNL     1      64.721  66.200  70.443  0.00  0.00    +0.000 C 
ATOM      5  O   UNL     1      64.536  66.474  71.199  0.00  0.00    +0.000 OA
ATOM      6  C   UNL     1      64.331  65.541  70.135  0.00  0.00    +0.000 C 
ATOM      7  O   UNL     1      64.516  65.268  69.379  0.00  0.00    +0.000 OA
ATOM      8  C   UNL     1      63.756  65.156  70.585  0.00  0.00    +0.000 C 
ATOM      9  O   UNL     1      63.571  65.429  71.341  0.00  0.00    +0.000 OA
ATOM     10  C   UNL     1      63.366  64.496  70.277  0.00  0.00    +0.000 C 
ATOM     11  O   UNL     1      63.551  64.223  69.521  0.00  0.00    +0.000 OA
ATOM     12  C   UNL     1      62.791  64.111  70.726  0.00  0.00    +0.000 C 
ATOM     13  O   UNL     1      62.401  63.452  70.418  0.00  0.00    +0.000 OA
ENDROOT
TORSDOF 0
ENDMDL
MODEL 5
REMARK VINA RESULT:    -5.409     12.042     12.621
REMARK INTER + INTRA:          -5.409
REMARK INTER:                  -5.409
REMARK INTRA:                   0.000
REMARK UNBOUND:                 0.000
ROOT
REMARK  Name = meglumine
REMARK                            x       y       z     vdW  Elec       q    Type
REMARK                         _______ _______ _______ _____ _____    ______ ____
ATOM      1  C   UNL     1      65.921  63.463  53.370  0.00  0.00    +0.000 C 
ATOM      2  N   UNL     1      65.346  62.990  53.724  0.00  0.00    +0.000 NA
ATOM      3  C   UNL     1      65.131  62.272  53.376  0.00  0.00    +0.000 C 
ATOM      4  C   UNL     1      64.556  61.798  53.730  0.00  0.00    +0.000 C 
ATOM      5  O   UNL     1      64.196  62.041  54.431  0.00  0.00    +0.000 OA
ATOM      6  C   UNL     1      64.342  61.081  53.382  0.00  0.00    +0.000 C 
ATOM      7  O   UNL     1      64.702  60.839  52.680  0.00  0.00    +0.000 OA
ATOM      8  C   UNL     1      63.767  60.607  53.736  0.00  0.00    +0.000 C 
ATOM      9  O   UNL     1      63.406  60.850  54.437  0.00  0.00    +0.000 OA
ATOM     10  C   UNL     1      63.552  59.890  53.387  0.00  0.00    +0.000 C 
ATOM     11  O   UNL     1      63.912  59.648  52.686  0.00  0.00    +0.000 OA
ATOM     12  C   UNL     1      62.977  59.416  53.741  0.00  0.00    +0.000 C 
ATOM     13  O   UNL     1      62.762  58.699  53.393  0.00  0.00    +0.000 OA
ENDROOT
TORSDOF 0
ENDMDL
MODEL 6
REMARK VINA RESULT:    -5.383      2.462      3.748
REMARK INTER + INTRA:          -5.383
REMARK INTER:                  -5.383
REMARK INTRA:                   0.000
REMARK UNBOUND:                 0.000
ROOT
REMARK  Name = meglumine
REMARK                            x       y       z     vdW  Elec       q    Type
REMARK                         _______ _______ _______ _____ _____    ______ ____
ATOM      1  C   UNL     1      61.992  63.622  71.630  0.00  0.00    +0.000 C 
ATOM      2  N   UNL     1      61.555  63.161  71.104  0.00  0.00    +0.000 NA
ATOM      3  C   UNL     1      61.587  63.319  70.294  0.00  0.00    +0.000 C 
ATOM      4  C   UNL     1      61.150  62.857  69.767  0.00  0.00    +0.000 C 
ATOM      5  O   UNL     1      60.683  62.239  70.049  0.00  0.00    +0.000 OA
ATOM      6  C   UNL     1      61.182  63.015  68.957  0.00  0.00    +0.000 C 
ATOM      7  O   UNL     1      61.649  63.634  68.675  0.00  0.00    +0.000 OA
ATOM      8  C   UNL     1      60.745  62.554  68.431  0.00  0.00    +0.000 C 
ATOM      9  O   UNL     1      60.278  61.935  68.713  0.00  0.00    +0.000 OA
ATOM     10  C   UNL     1      60.777  62.712  67.621  0.00  0.00    +0.000 C 
ATOM     11  O   UNL     1      61.244  63.330  67.339  0.00  0.00    +0.000 OA
ATOM     12  C   UNL     1      60.340  62.250  67.095  0.00  0.00    +0.000 C 
ATOM     13  O   UNL     1      60.371  62.408  66.285  0.00  0.00    +0.000 OA
ENDROOT
TORSDOF 0
ENDMDL
MODEL 7
REMARK VINA RESULT:    -5.381     12.066     13.124
REMARK INTER + INTRA:          -5.381
REMARK INTER:                  -5.381
REMARK INTRA:                   0.000
REMARK UNBOUND:                 0.000
ROOT
REMARK  Name = meglumine
REMARK                            x       y       z     vdW  Elec       q    Type
REMARK                         _______ _______ _______ _____ _____    ______ ____
ATOM      1  C   UNL     1      63.126  57.807  51.834  0.00  0.00    +0.000 C 
ATOM      2  N   UNL     1      63.192  58.317  52.479  0.00  0.00    +0.000 NA
ATOM      3  C   UNL     1      63.580  59.041  52.395  0.00  0.00    +0.000 C 
ATOM      4  C   UNL     1      63.647  59.550  53.040  0.00  0.00    +0.000 C 
ATOM      5  O   UNL     1      63.326  59.337  53.770  0.00  0.00    +0.000 OA
ATOM      6  C   UNL     1      64.035  60.274  52.956  0.00  0.00    +0.000 C 
ATOM      7  O   UNL     1      64.356  60.487  52.226  0.00  0.00    +0.000 OA
ATOM      8  C   UNL     1      64.101  60.783  53.601  0.00  0.00    +0.000 C 
ATOM      9  O   UNL     1      63.780  60.570  54.330  0.00  0.00    +0.000 OA
ATOM     10  C   UNL     1      64.490  61.507  53.516  0.00  0.00    +0.000 C 
ATOM     11  O   UNL     1      64.811  61.720  52.787  0.00  0.00    +0.000 OA
ATOM     12  C   UNL     1      64.556  62.016  54.162  0.00  0.00    +0.000 C 
ATOM     13  O   UNL     1      64.944  62.740  54.077  0.00  0.00    +0.000 OA
ENDROOT
TORSDOF 0
ENDMDL
MODEL 8
REMARK VINA RESULT:    -5.222     12.003     13.220
REMARK INTER + INTRA:          -5.222
REMARK INTER:                  -5.222
REMARK INTRA:                   0.000
REMARK UNBOUND:                 0.000
ROOT
REMARK  Name = meglumine
REMARK                            x       y       z     vdW  Elec       q    Type
REMARK                         _______ _______ _______ _____ _____    ______ ____
ATOM      1  C   UNL     1      64.629  62.364  54.083  0.00  0.00    +0.000 C 
ATOM      2  N   UNL     1      64.354  61.588  54.125  0.00  0.00    +0.000 NA
ATOM      3  C   UNL     1      64.234  61.155  53.432  0.00  0.00    +0.000 C 
ATOM      4  C   UNL     1      63.959  60.379  53.473  0.00  0.00    +0.000 C 
ATOM      5  O   UNL     1      63.804  60.034  54.207  0.00  0.00    +0.000 OA
ATOM      6  C   UNL     1      63.839  59.946  52.780  0.00  0.00    +0.000 C 
ATOM      7  O   UNL     1      63.995  60.290  52.047  0.00  0.00    +0.000 OA
ATOM      8  C   UNL     1      63.564  59.169  52.822  0.00  0.00    +0.000 C 
ATOM      9  O   UNL     1      63.409  58.825  53.555  0.00  0.00    +0.000 OA
ATOM     10  C   UNL     1      63.444  58.737  52.129  0.00  0.00    +0.000 C 
ATOM     11  O   UNL     1      63.600  59.081  51.396  0.00  0.00    +0.000 OA
ATOM     12  C   UNL     1      63.169  57.960  52.171  0.00  0.00    +0.000 C 
ATOM     13  O   UNL     1      63.050  57.528  51.478  0.00  0.00    +0.000 OA
ENDROOT
TORSDOF 0
ENDMDL
MODEL 9
REMARK VINA RESULT:    -5.059      3.552      5.076
REMARK INTER + INTRA:          -5.059
REMARK INTER:                  -5.059
REMARK INTRA:                   0.000
REMARK UNBOUND:                 0.000
ROOT
REMARK  Name = meglumine
REMARK                            x       y       z     vdW  Elec       q    Type
REMARK                         _______ _______ _______ _____ _____    ______ ____
ATOM      1  C   UNL     1      59.750  67.605  70.729  0.00  0.00    +0.000 C 
ATOM      2  N   UNL     1      59.613  66.952  70.245  0.00  0.00    +0.000 NA
ATOM      3  C   UNL     1      60.246  66.490  69.986  0.00  0.00    +0.000 C 
ATOM      4  C   UNL     1      60.109  65.837  69.502  0.00  0.00    +0.000 C 
ATOM      5  O   UNL     1      59.339  65.644  69.276  0.00  0.00    +0.000 OA
ATOM      6  C   UNL     1      60.743  65.375  69.243  0.00  0.00    +0.000 C 
ATOM      7  O   UNL     1      61.513  65.568  69.468  0.00  0.00    +0.000 OA
ATOM      8  C   UNL     1      60.606  64.722  68.759  0.00  0.00    +0.000 C 
ATOM      9  O   UNL     1      59.836  64.529  68.533  0.00  0.00    +0.000 OA
ATOM     10  C   UNL     1      61.240  64.260  68.500  0.00  0.00    +0.000 C 
ATOM     11  O   UNL     1      62.009  64.453  68.725  0.00  0.00    +0.000 OA
ATOM     12  C   UNL     1      61.102  63.606  68.016  0.00  0.00    +0.000 C 
ATOM     13  O   UNL     1      61.736  63.145  67.757  0.00  0.00    +0.000 OA
ENDROOT
TORSDOF 0
ENDMDL
