MODEL 1
REMARK VINA RESULT:    -8.055      0.000      0.000
REMARK INTER + INTRA:          -8.055
REMARK INTER:                  -8.055
REMARK INTRA:                   0.000
REMARK UNBOUND:                 0.000
ROOT
REMARK  Name = meladrazine
REMARK                            x       y       z     vdW  Elec       q    Type
REMARK                         _______ _______ _______ _____ _____    ______ ____
ATOM      1  C   UNL     1      59.497  65.356  72.779  0.00  0.00    +0.000 C 
ATOM      2  C   UNL     1      59.567  65.384  71.958  0.00  0.00    +0.000 C 
ATOM      3  N   UNL     1      59.766  64.702  71.537  0.00  0.00    +0.000 N 
ATOM      4  C   UNL     1      59.893  63.993  71.939  0.00  0.00    +0.000 C 
ATOM      5  C   UNL     1      60.091  63.311  71.519  0.00  0.00    +0.000 C 
ATOM      6  C   UNL     1      59.836  64.729  70.717  0.00  0.00    +0.000 A 
ATOM      7  N   UNL     1      60.035  64.048  70.296  0.00  0.00    +0.000 NA
ATOM      8  C   UNL     1      60.105  64.075  69.475  0.00  0.00    +0.000 A 
ATOM      9  N   UNL     1      59.978  64.784  69.074  0.00  0.00    +0.000 NA
ATOM     10  C   UNL     1      59.779  65.467  69.493  0.00  0.00    +0.000 A 
ATOM     11  N   UNL     1      59.652  66.176  69.092  0.00  0.00    +0.000 NA
ATOM     12  N   UNL     1      59.454  66.858  69.512  0.00  0.00    +0.000 NA
ATOM     13  N   UNL     1      59.709  65.439  70.315  0.00  0.00    +0.000 NA
ATOM     14  N   UNL     1      60.303  63.394  69.055  0.00  0.00    +0.000 N 
ATOM     15  C   UNL     1      60.374  63.422  68.233  0.00  0.00    +0.000 C 
ATOM     16  C   UNL     1      60.572  62.739  67.813  0.00  0.00    +0.000 C 
ATOM     17  C   UNL     1      60.431  62.684  69.456  0.00  0.00    +0.000 C 
ATOM     18  C   UNL     1      60.629  62.003  69.037  0.00  0.00    +0.000 C 
ENDROOT
TORSDOF 0
ENDMDL
MODEL 2
REMARK VINA RESULT:    -8.028      2.323      2.448
REMARK INTER + INTRA:          -8.028
REMARK INTER:                  -8.028
REMARK INTRA:                   0.000
REMARK UNBOUND:                 0.000
ROOT
REMARK  Name = meladrazine
REMARK                            x       y       z     vdW  Elec       q    Type
REMARK                         _______ _______ _______ _____ _____    ______ ____
ATOM      1  C   UNL     1      61.583  62.956  72.563  0.00  0.00    +0.000 C 
ATOM      2  C   UNL     1      61.800  63.241  71.820  0.00  0.00    +0.000 C 
ATOM      3  N   UNL     1      61.419  62.960  71.143  0.00  0.00    +0.000 N 
ATOM      4  C   UNL     1      60.822  62.395  71.211  0.00  0.00    +0.000 C 
ATOM      5  C   UNL     1      60.442  62.115  70.535  0.00  0.00    +0.000 C 
ATOM      6  C   UNL     1      61.635  63.245  70.401  0.00  0.00    +0.000 A 
ATOM      7  N   UNL     1      61.255  62.965  69.724  0.00  0.00    +0.000 NA
ATOM      8  C   UNL     1      61.472  63.249  68.981  0.00  0.00    +0.000 A 
ATOM      9  N   UNL     1      62.068  63.814  68.914  0.00  0.00    +0.000 NA
ATOM     10  C   UNL     1      62.449  64.095  69.590  0.00  0.00    +0.000 A 
ATOM     11  N   UNL     1      63.047  64.660  69.523  0.00  0.00    +0.000 NA
ATOM     12  N   UNL     1      63.427  64.941  70.198  0.00  0.00    +0.000 NA
ATOM     13  N   UNL     1      62.233  63.810  70.333  0.00  0.00    +0.000 NA
ATOM     14  N   UNL     1      61.091  62.969  68.306  0.00  0.00    +0.000 N 
ATOM     15  C   UNL     1      61.308  63.254  67.561  0.00  0.00    +0.000 C 
ATOM     16  C   UNL     1      60.927  62.973  66.886  0.00  0.00    +0.000 C 
ATOM     17  C   UNL     1      60.494  62.404  68.372  0.00  0.00    +0.000 C 
ATOM     18  C   UNL     1      60.113  62.123  67.697  0.00  0.00    +0.000 C 
ENDROOT
TORSDOF 0
ENDMDL
MODEL 3
REMARK VINA RESULT:    -7.994      1.122      3.101
REMARK INTER + INTRA:          -7.994
REMARK INTER:                  -7.994
REMARK INTRA:                   0.000
REMARK UNBOUND:                 0.000
ROOT
REMARK  Name = meladrazine
REMARK                            x       y       z     vdW  Elec       q    Type
REMARK                         _______ _______ _______ _____ _____    ______ ____
ATOM      1  C   UNL     1      59.841  62.631  67.245  0.00  0.00    +0.000 C 
ATOM      2  C   UNL     1      59.916  63.112  67.911  0.00  0.00    +0.000 C 
ATOM      3  N   UNL     1      60.216  62.800  68.614  0.00  0.00    +0.000 N 
ATOM      4  C   UNL     1      60.442  62.008  68.649  0.00  0.00    +0.000 C 
ATOM      5  C   UNL     1      60.742  61.696  69.352  0.00  0.00    +0.000 C 
ATOM      6  C   UNL     1      60.290  63.280  69.280  0.00  0.00    +0.000 A 
ATOM      7  N   UNL     1      60.590  62.969  69.982  0.00  0.00    +0.000 NA
ATOM      8  C   UNL     1      60.665  63.450  70.648  0.00  0.00    +0.000 A 
ATOM      9  N   UNL     1      60.439  64.242  70.612  0.00  0.00    +0.000 NA
ATOM     10  C   UNL     1      60.138  64.554  69.910  0.00  0.00    +0.000 A 
ATOM     11  N   UNL     1      59.912  65.347  69.874  0.00  0.00    +0.000 NA
ATOM     12  N   UNL     1      59.611  65.659  69.172  0.00  0.00    +0.000 NA
ATOM     13  N   UNL     1      60.064  64.073  69.244  0.00  0.00    +0.000 NA
ATOM     14  N   UNL     1      60.965  63.138  71.350  0.00  0.00    +0.000 N 
ATOM     15  C   UNL     1      61.039  63.619  72.017  0.00  0.00    +0.000 C 
ATOM     16  C   UNL     1      61.339  63.307  72.719  0.00  0.00    +0.000 C 
ATOM     17  C   UNL     1      61.191  62.345  71.387  0.00  0.00    +0.000 C 
ATOM     18  C   UNL     1      61.491  62.034  72.088  0.00  0.00    +0.000 C 
ENDROOT
TORSDOF 0
ENDMDL
MODEL 4
REMARK VINA RESULT:    -7.902      1.457      3.082
REMARK INTER + INTRA:          -7.902
REMARK INTER:                  -7.902
REMARK INTRA:                   0.000
REMARK UNBOUND:                 0.000
ROOT
REMARK  Name = meladrazine
REMARK                            x       y       z     vdW  Elec       q    Type
REMARK                         _______ _______ _______ _____ _____    ______ ____
ATOM      1  C   UNL     1      59.734  65.657  69.111  0.00  0.00    +0.000 C 
ATOM      2  C   UNL     1      59.938  64.859  69.155  0.00  0.00    +0.000 C 
ATOM      3  N   UNL     1      60.251  64.551  69.855  0.00  0.00    +0.000 N 
ATOM      4  C   UNL     1      60.359  65.042  70.509  0.00  0.00    +0.000 C 
ATOM      5  C   UNL     1      60.672  64.735  71.207  0.00  0.00    +0.000 C 
ATOM      6  C   UNL     1      60.456  63.754  69.899  0.00  0.00    +0.000 A 
ATOM      7  N   UNL     1      60.769  63.446  70.598  0.00  0.00    +0.000 NA
ATOM      8  C   UNL     1      60.973  62.648  70.642  0.00  0.00    +0.000 A 
ATOM      9  N   UNL     1      60.865  62.158  69.988  0.00  0.00    +0.000 NA
ATOM     10  C   UNL     1      60.552  62.465  69.289  0.00  0.00    +0.000 A 
ATOM     11  N   UNL     1      60.443  61.975  68.634  0.00  0.00    +0.000 NA
ATOM     12  N   UNL     1      60.130  62.282  67.936  0.00  0.00    +0.000 NA
ATOM     13  N   UNL     1      60.347  63.263  69.244  0.00  0.00    +0.000 NA
ATOM     14  N   UNL     1      61.286  62.342  71.340  0.00  0.00    +0.000 N 
ATOM     15  C   UNL     1      61.491  61.543  71.385  0.00  0.00    +0.000 C 
ATOM     16  C   UNL     1      61.804  61.236  72.084  0.00  0.00    +0.000 C 
ATOM     17  C   UNL     1      61.394  62.832  71.995  0.00  0.00    +0.000 C 
ATOM     18  C   UNL     1      61.707  62.525  72.693  0.00  0.00    +0.000 C 
ENDROOT
TORSDOF 0
ENDMDL
MODEL 5
REMARK VINA RESULT:    -7.873      0.996      2.455
REMARK INTER + INTRA:          -7.873
REMARK INTER:                  -7.873
REMARK INTRA:                   0.000
REMARK UNBOUND:                 0.000
ROOT
REMARK  Name = meladrazine
REMARK                            x       y       z     vdW  Elec       q    Type
REMARK                         _______ _______ _______ _____ _____    ______ ____
ATOM      1  C   UNL     1      59.595  67.033  69.533  0.00  0.00    +0.000 C 
ATOM      2  C   UNL     1      59.657  66.447  70.111  0.00  0.00    +0.000 C 
ATOM      3  N   UNL     1      59.824  65.668  69.893  0.00  0.00    +0.000 N 
ATOM      4  C   UNL     1      59.927  65.476  69.097  0.00  0.00    +0.000 C 
ATOM      5  C   UNL     1      60.093  64.698  68.880  0.00  0.00    +0.000 C 
ATOM      6  C   UNL     1      59.886  65.083  70.469  0.00  0.00    +0.000 A 
ATOM      7  N   UNL     1      60.052  64.305  70.252  0.00  0.00    +0.000 NA
ATOM      8  C   UNL     1      60.114  63.719  70.829  0.00  0.00    +0.000 A 
ATOM      9  N   UNL     1      60.010  63.911  71.624  0.00  0.00    +0.000 NA
ATOM     10  C   UNL     1      59.844  64.689  71.843  0.00  0.00    +0.000 A 
ATOM     11  N   UNL     1      59.740  64.882  72.639  0.00  0.00    +0.000 NA
ATOM     12  N   UNL     1      59.574  65.659  72.857  0.00  0.00    +0.000 NA
ATOM     13  N   UNL     1      59.782  65.275  71.266  0.00  0.00    +0.000 NA
ATOM     14  N   UNL     1      60.280  62.941  70.611  0.00  0.00    +0.000 N 
ATOM     15  C   UNL     1      60.342  62.355  71.190  0.00  0.00    +0.000 C 
ATOM     16  C   UNL     1      60.508  61.576  70.971  0.00  0.00    +0.000 C 
ATOM     17  C   UNL     1      60.384  62.748  69.816  0.00  0.00    +0.000 C 
ATOM     18  C   UNL     1      60.550  61.971  69.598  0.00  0.00    +0.000 C 
ENDROOT
TORSDOF 0
ENDMDL
MODEL 6
REMARK VINA RESULT:    -7.856      2.665      4.034
REMARK INTER + INTRA:          -7.856
REMARK INTER:                  -7.856
REMARK INTRA:                   0.000
REMARK UNBOUND:                 0.000
ROOT
REMARK  Name = meladrazine
REMARK                            x       y       z     vdW  Elec       q    Type
REMARK                         _______ _______ _______ _____ _____    ______ ____
ATOM      1  C   UNL     1      60.516  62.100  69.245  0.00  0.00    +0.000 C 
ATOM      2  C   UNL     1      60.889  62.500  69.862  0.00  0.00    +0.000 C 
ATOM      3  N   UNL     1      61.400  63.128  69.698  0.00  0.00    +0.000 N 
ATOM      4  C   UNL     1      61.538  63.353  68.916  0.00  0.00    +0.000 C 
ATOM      5  C   UNL     1      62.048  63.980  68.752  0.00  0.00    +0.000 C 
ATOM      6  C   UNL     1      61.773  63.528  70.314  0.00  0.00    +0.000 A 
ATOM      7  N   UNL     1      62.283  64.155  70.150  0.00  0.00    +0.000 NA
ATOM      8  C   UNL     1      62.656  64.556  70.767  0.00  0.00    +0.000 A 
ATOM      9  N   UNL     1      62.518  64.330  71.548  0.00  0.00    +0.000 NA
ATOM     10  C   UNL     1      62.008  63.703  71.713  0.00  0.00    +0.000 A 
ATOM     11  N   UNL     1      61.869  63.477  72.495  0.00  0.00    +0.000 NA
ATOM     12  N   UNL     1      61.359  62.851  72.659  0.00  0.00    +0.000 NA
ATOM     13  N   UNL     1      61.635  63.302  71.096  0.00  0.00    +0.000 NA
ATOM     14  N   UNL     1      63.166  65.182  70.603  0.00  0.00    +0.000 N 
ATOM     15  C   UNL     1      63.540  65.584  71.221  0.00  0.00    +0.000 C 
ATOM     16  C   UNL     1      64.050  66.211  71.056  0.00  0.00    +0.000 C 
ATOM     17  C   UNL     1      63.305  65.409  69.822  0.00  0.00    +0.000 C 
ATOM     18  C   UNL     1      63.815  66.035  69.657  0.00  0.00    +0.000 C 
ENDROOT
TORSDOF 0
ENDMDL
MODEL 7
REMARK VINA RESULT:    -7.840      1.066      2.937
REMARK INTER + INTRA:          -7.840
REMARK INTER:                  -7.840
REMARK INTRA:                   0.000
REMARK UNBOUND:                 0.000
ROOT
REMARK  Name = meladrazine
REMARK                            x       y       z     vdW  Elec       q    Type
REMARK                         _______ _______ _______ _____ _____    ______ ____
ATOM      1  C   UNL     1      60.849  61.618  70.980  0.00  0.00    +0.000 C 
ATOM      2  C   UNL     1      60.784  62.179  70.378  0.00  0.00    +0.000 C 
ATOM      3  N   UNL     1      60.513  62.940  70.551  0.00  0.00    +0.000 N 
ATOM      4  C   UNL     1      60.306  63.137  71.324  0.00  0.00    +0.000 C 
ATOM      5  C   UNL     1      60.034  63.897  71.496  0.00  0.00    +0.000 C 
ATOM      6  C   UNL     1      60.449  63.500  69.950  0.00  0.00    +0.000 A 
ATOM      7  N   UNL     1      60.177  64.260  70.122  0.00  0.00    +0.000 NA
ATOM      8  C   UNL     1      60.113  64.821  69.521  0.00  0.00    +0.000 A 
ATOM      9  N   UNL     1      60.320  64.623  68.748  0.00  0.00    +0.000 NA
ATOM     10  C   UNL     1      60.592  63.863  68.575  0.00  0.00    +0.000 A 
ATOM     11  N   UNL     1      60.799  63.664  67.801  0.00  0.00    +0.000 NA
ATOM     12  N   UNL     1      61.070  62.905  67.629  0.00  0.00    +0.000 NA
ATOM     13  N   UNL     1      60.656  63.302  69.176  0.00  0.00    +0.000 NA
ATOM     14  N   UNL     1      59.842  65.581  69.693  0.00  0.00    +0.000 N 
ATOM     15  C   UNL     1      59.777  66.143  69.091  0.00  0.00    +0.000 C 
ATOM     16  C   UNL     1      59.506  66.902  69.264  0.00  0.00    +0.000 C 
ATOM     17  C   UNL     1      59.634  65.780  70.467  0.00  0.00    +0.000 C 
ATOM     18  C   UNL     1      59.363  66.539  70.639  0.00  0.00    +0.000 C 
ENDROOT
TORSDOF 0
ENDMDL
MODEL 8
REMARK VINA RESULT:    -7.837      3.370      3.994
REMARK INTER + INTRA:          -7.837
REMARK INTER:                  -7.837
REMARK INTRA:                   0.000
REMARK UNBOUND:                 0.000
ROOT
REMARK  Name = meladrazine
REMARK                            x       y       z     vdW  Elec       q    Type
REMARK                         _______ _______ _______ _____ _____    ______ ____
ATOM      1  C   UNL     1      64.048  67.583  72.054  0.00  0.00    +0.000 C 
ATOM      2  C   UNL     1      63.936  66.865  71.664  0.00  0.00    +0.000 C 
ATOM      3  N   UNL     1      63.362  66.335  71.930  0.00  0.00    +0.000 N 
ATOM      4  C   UNL     1      62.900  66.524  72.587  0.00  0.00    +0.000 C 
ATOM      5  C   UNL     1      62.326  65.994  72.853  0.00  0.00    +0.000 C 
ATOM      6  C   UNL     1      63.250  65.618  71.540  0.00  0.00    +0.000 A 
ATOM      7  N   UNL     1      62.676  65.088  71.806  0.00  0.00    +0.000 NA
ATOM      8  C   UNL     1      62.565  64.370  71.416  0.00  0.00    +0.000 A 
ATOM      9  N   UNL     1      63.027  64.182  70.759  0.00  0.00    +0.000 NA
ATOM     10  C   UNL     1      63.601  64.711  70.493  0.00  0.00    +0.000 A 
ATOM     11  N   UNL     1      64.064  64.522  69.836  0.00  0.00    +0.000 NA
ATOM     12  N   UNL     1      64.637  65.051  69.570  0.00  0.00    +0.000 NA
ATOM     13  N   UNL     1      63.713  65.429  70.883  0.00  0.00    +0.000 NA
ATOM     14  N   UNL     1      61.991  63.841  71.682  0.00  0.00    +0.000 N 
ATOM     15  C   UNL     1      61.879  63.122  71.291  0.00  0.00    +0.000 C 
ATOM     16  C   UNL     1      61.305  62.593  71.558  0.00  0.00    +0.000 C 
ATOM     17  C   UNL     1      61.528  64.029  72.339  0.00  0.00    +0.000 C 
ATOM     18  C   UNL     1      60.955  63.500  72.605  0.00  0.00    +0.000 C 
ENDROOT
TORSDOF 0
ENDMDL
MODEL 9
REMARK VINA RESULT:    -7.797      3.438      4.222
REMARK INTER + INTRA:          -7.797
REMARK INTER:                  -7.797
REMARK INTRA:                   0.000
REMARK UNBOUND:                 0.000
ROOT
REMARK  Name = meladrazine
REMARK                            x       y       z     vdW  Elec       q    Type
REMARK                         _______ _______ _______ _____ _____    ______ ____
ATOM      1  C   UNL     1      64.995  66.338  69.823  0.00  0.00    +0.000 C 
ATOM      2  C   UNL     1      64.431  66.277  70.422  0.00  0.00    +0.000 C 
ATOM      3  N   UNL     1      63.990  65.584  70.504  0.00  0.00    +0.000 N 
ATOM      4  C   UNL     1      64.114  64.953  69.987  0.00  0.00    +0.000 C 
ATOM      5  C   UNL     1      63.673  64.260  70.070  0.00  0.00    +0.000 C 
ATOM      6  C   UNL     1      63.426  65.523  71.102  0.00  0.00    +0.000 A 
ATOM      7  N   UNL     1      62.985  64.831  71.185  0.00  0.00    +0.000 NA
ATOM      8  C   UNL     1      62.420  64.770  71.783  0.00  0.00    +0.000 A 
ATOM      9  N   UNL     1      62.297  65.401  72.299  0.00  0.00    +0.000 NA
ATOM     10  C   UNL     1      62.737  66.094  72.217  0.00  0.00    +0.000 A 
ATOM     11  N   UNL     1      62.614  66.726  72.733  0.00  0.00    +0.000 NA
ATOM     12  N   UNL     1      63.055  67.418  72.651  0.00  0.00    +0.000 NA
ATOM     13  N   UNL     1      63.302  66.155  71.619  0.00  0.00    +0.000 NA
ATOM     14  N   UNL     1      61.980  64.078  71.865  0.00  0.00    +0.000 N 
ATOM     15  C   UNL     1      61.415  64.016  72.464  0.00  0.00    +0.000 C 
ATOM     16  C   UNL     1      60.974  63.323  72.546  0.00  0.00    +0.000 C 
ATOM     17  C   UNL     1      62.103  63.445  71.349  0.00  0.00    +0.000 C 
ATOM     18  C   UNL     1      61.663  62.753  71.431  0.00  0.00    +0.000 C 
ENDROOT
TORSDOF 0
ENDMDL
