MODEL 1
REMARK VINA RESULT:    -8.928      0.000      0.000
REMARK INTER + INTRA:          -8.928
REMARK INTER:                  -8.928
REMARK INTRA:                   0.000
REMARK UNBOUND:                 0.000
ROOT
REMARK  Name = melatonin
REMARK                            x       y       z     vdW  Elec       q    Type
REMARK                         _______ _______ _______ _____ _____    ______ ____
ATOM      1  C   UNL     1      62.509  61.632  63.512  0.00  0.00    +0.000 C 
ATOM      2  O   UNL     1      62.537  61.984  64.258  0.00  0.00    +0.000 OA
ATOM      3  C   UNL     1      61.880  61.945  64.756  0.00  0.00    +0.000 A 
ATOM      4  C   UNL     1      61.908  62.297  65.502  0.00  0.00    +0.000 A 
ATOM      5  C   UNL     1      61.251  62.259  66.001  0.00  0.00    +0.000 A 
ATOM      6  C   UNL     1      60.568  61.868  65.753  0.00  0.00    +0.000 A 
ATOM      7  N   UNL     1      60.012  61.920  66.360  0.00  0.00    +0.000 NA
ATOM      8  C   UNL     1      60.351  62.342  66.983  0.00  0.00    +0.000 C 
ATOM      9  C   UNL     1      61.117  62.551  66.760  0.00  0.00    +0.000 C 
ATOM     10  C   UNL     1      61.655  62.978  67.218  0.00  0.00    +0.000 C 
ATOM     11  C   UNL     1      61.442  63.236  67.972  0.00  0.00    +0.000 C 
ATOM     12  N   UNL     1      61.979  63.663  68.429  0.00  0.00    +0.000 NA
ATOM     13  C   UNL     1      61.767  63.921  69.183  0.00  0.00    +0.000 C 
ATOM     14  C   UNL     1      62.304  64.347  69.640  0.00  0.00    +0.000 C 
ATOM     15  O   UNL     1      61.016  63.752  69.480  0.00  0.00    +0.000 OA
ATOM     16  C   UNL     1      60.541  61.517  65.007  0.00  0.00    +0.000 A 
ATOM     17  C   UNL     1      61.197  61.555  64.509  0.00  0.00    +0.000 A 
ENDROOT
TORSDOF 0
ENDMDL
MODEL 2
REMARK VINA RESULT:    -8.747      1.032      4.037
REMARK INTER + INTRA:          -8.747
REMARK INTER:                  -8.747
REMARK INTRA:                   0.000
REMARK UNBOUND:                 0.000
ROOT
REMARK  Name = melatonin
REMARK                            x       y       z     vdW  Elec       q    Type
REMARK                         _______ _______ _______ _____ _____    ______ ____
ATOM      1  C   UNL     1      61.859  64.048  69.623  0.00  0.00    +0.000 C 
ATOM      2  O   UNL     1      62.009  63.768  68.862  0.00  0.00    +0.000 OA
ATOM      3  C   UNL     1      61.411  63.393  68.435  0.00  0.00    +0.000 A 
ATOM      4  C   UNL     1      61.561  63.113  67.674  0.00  0.00    +0.000 A 
ATOM      5  C   UNL     1      60.962  62.738  67.247  0.00  0.00    +0.000 A 
ATOM      6  C   UNL     1      60.214  62.644  67.581  0.00  0.00    +0.000 A 
ATOM      7  N   UNL     1      59.736  62.255  67.032  0.00  0.00    +0.000 NA
ATOM      8  C   UNL     1      60.189  62.109  66.358  0.00  0.00    +0.000 C 
ATOM      9  C   UNL     1      60.947  62.408  66.491  0.00  0.00    +0.000 C 
ATOM     10  C   UNL     1      61.578  62.380  65.961  0.00  0.00    +0.000 C 
ATOM     11  C   UNL     1      61.481  62.030  65.220  0.00  0.00    +0.000 C 
ATOM     12  N   UNL     1      62.111  62.003  64.690  0.00  0.00    +0.000 NA
ATOM     13  C   UNL     1      62.014  61.652  63.949  0.00  0.00    +0.000 C 
ATOM     14  C   UNL     1      62.645  61.625  63.420  0.00  0.00    +0.000 C 
ATOM     15  O   UNL     1      61.285  61.330  63.739  0.00  0.00    +0.000 OA
ATOM     16  C   UNL     1      60.064  62.925  68.343  0.00  0.00    +0.000 A 
ATOM     17  C   UNL     1      60.662  63.299  68.769  0.00  0.00    +0.000 A 
ENDROOT
TORSDOF 0
ENDMDL
MODEL 3
REMARK VINA RESULT:    -8.121      3.439      5.611
REMARK INTER + INTRA:          -8.121
REMARK INTER:                  -8.121
REMARK INTRA:                   0.000
REMARK UNBOUND:                 0.000
ROOT
REMARK  Name = melatonin
REMARK                            x       y       z     vdW  Elec       q    Type
REMARK                         _______ _______ _______ _____ _____    ______ ____
ATOM      1  C   UNL     1      61.603  63.398  68.429  0.00  0.00    +0.000 C 
ATOM      2  O   UNL     1      62.206  63.950  68.539  0.00  0.00    +0.000 OA
ATOM      3  C   UNL     1      62.413  64.187  69.302  0.00  0.00    +0.000 A 
ATOM      4  C   UNL     1      63.017  64.739  69.413  0.00  0.00    +0.000 A 
ATOM      5  C   UNL     1      63.224  64.976  70.176  0.00  0.00    +0.000 A 
ATOM      6  C   UNL     1      62.828  64.661  70.827  0.00  0.00    +0.000 A 
ATOM      7  N   UNL     1      63.151  64.997  71.508  0.00  0.00    +0.000 NA
ATOM      8  C   UNL     1      63.746  65.519  71.278  0.00  0.00    +0.000 C 
ATOM      9  C   UNL     1      63.791  65.506  70.454  0.00  0.00    +0.000 C 
ATOM     10  C   UNL     1      64.312  65.946  69.990  0.00  0.00    +0.000 C 
ATOM     11  C   UNL     1      64.853  66.457  70.348  0.00  0.00    +0.000 C 
ATOM     12  N   UNL     1      65.374  66.897  69.884  0.00  0.00    +0.000 NA
ATOM     13  C   UNL     1      65.914  67.409  70.242  0.00  0.00    +0.000 C 
ATOM     14  C   UNL     1      66.435  67.848  69.778  0.00  0.00    +0.000 C 
ATOM     15  O   UNL     1      65.933  67.479  71.064  0.00  0.00    +0.000 OA
ATOM     16  C   UNL     1      62.225  64.109  70.716  0.00  0.00    +0.000 A 
ATOM     17  C   UNL     1      62.017  63.872  69.954  0.00  0.00    +0.000 A 
ENDROOT
TORSDOF 0
ENDMDL
MODEL 4
REMARK VINA RESULT:    -8.114      2.567      5.215
REMARK INTER + INTRA:          -8.114
REMARK INTER:                  -8.114
REMARK INTRA:                   0.000
REMARK UNBOUND:                 0.000
ROOT
REMARK  Name = melatonin
REMARK                            x       y       z     vdW  Elec       q    Type
REMARK                         _______ _______ _______ _____ _____    ______ ____
ATOM      1  C   UNL     1      62.261  60.817  72.431  0.00  0.00    +0.000 C 
ATOM      2  O   UNL     1      61.961  60.911  71.668  0.00  0.00    +0.000 OA
ATOM      3  C   UNL     1      61.579  61.612  71.459  0.00  0.00    +0.000 A 
ATOM      4  C   UNL     1      61.280  61.707  70.696  0.00  0.00    +0.000 A 
ATOM      5  C   UNL     1      60.898  62.408  70.487  0.00  0.00    +0.000 A 
ATOM      6  C   UNL     1      60.816  63.014  71.041  0.00  0.00    +0.000 A 
ATOM      7  N   UNL     1      60.416  63.637  70.678  0.00  0.00    +0.000 NA
ATOM      8  C   UNL     1      60.251  63.418  69.900  0.00  0.00    +0.000 C 
ATOM      9  C   UNL     1      60.549  62.657  69.782  0.00  0.00    +0.000 C 
ATOM     10  C   UNL     1      60.506  62.223  69.083  0.00  0.00    +0.000 C 
ATOM     11  C   UNL     1      60.138  62.546  68.418  0.00  0.00    +0.000 C 
ATOM     12  N   UNL     1      60.095  62.112  67.719  0.00  0.00    +0.000 NA
ATOM     13  C   UNL     1      59.727  62.435  67.054  0.00  0.00    +0.000 C 
ATOM     14  C   UNL     1      59.684  62.001  66.354  0.00  0.00    +0.000 C 
ATOM     15  O   UNL     1      59.403  63.193  67.090  0.00  0.00    +0.000 OA
ATOM     16  C   UNL     1      61.116  62.918  71.804  0.00  0.00    +0.000 A 
ATOM     17  C   UNL     1      61.497  62.218  72.013  0.00  0.00    +0.000 A 
ENDROOT
TORSDOF 0
ENDMDL
MODEL 5
REMARK VINA RESULT:    -8.112      5.534      6.799
REMARK INTER + INTRA:          -8.112
REMARK INTER:                  -8.112
REMARK INTRA:                   0.000
REMARK UNBOUND:                 0.000
ROOT
REMARK  Name = melatonin
REMARK                            x       y       z     vdW  Elec       q    Type
REMARK                         _______ _______ _______ _____ _____    ______ ____
ATOM      1  C   UNL     1      66.861  67.172  71.684  0.00  0.00    +0.000 C 
ATOM      2  O   UNL     1      66.184  66.724  71.830  0.00  0.00    +0.000 OA
ATOM      3  C   UNL     1      65.620  66.624  71.235  0.00  0.00    +0.000 A 
ATOM      4  C   UNL     1      64.943  66.177  71.380  0.00  0.00    +0.000 A 
ATOM      5  C   UNL     1      64.379  66.077  70.785  0.00  0.00    +0.000 A 
ATOM      6  C   UNL     1      64.494  66.425  70.046  0.00  0.00    +0.000 A 
ATOM      7  N   UNL     1      63.848  66.232  69.571  0.00  0.00    +0.000 NA
ATOM      8  C   UNL     1      63.333  65.764  70.016  0.00  0.00    +0.000 C 
ATOM      9  C   UNL     1      63.662  65.669  70.767  0.00  0.00    +0.000 C 
ATOM     10  C   UNL     1      63.332  65.240  71.389  0.00  0.00    +0.000 C 
ATOM     11  C   UNL     1      62.607  64.859  71.289  0.00  0.00    +0.000 C 
ATOM     12  N   UNL     1      62.277  64.430  71.911  0.00  0.00    +0.000 NA
ATOM     13  C   UNL     1      61.552  64.048  71.812  0.00  0.00    +0.000 C 
ATOM     14  C   UNL     1      61.222  63.620  72.434  0.00  0.00    +0.000 C 
ATOM     15  O   UNL     1      61.158  64.096  71.089  0.00  0.00    +0.000 OA
ATOM     16  C   UNL     1      65.172  66.872  69.902  0.00  0.00    +0.000 A 
ATOM     17  C   UNL     1      65.735  66.972  70.496  0.00  0.00    +0.000 A 
ENDROOT
TORSDOF 0
ENDMDL
MODEL 6
REMARK VINA RESULT:    -8.090      2.165      3.339
REMARK INTER + INTRA:          -8.090
REMARK INTER:                  -8.090
REMARK INTRA:                   0.000
REMARK UNBOUND:                 0.000
ROOT
REMARK  Name = melatonin
REMARK                            x       y       z     vdW  Elec       q    Type
REMARK                         _______ _______ _______ _____ _____    ______ ____
ATOM      1  C   UNL     1      61.147  63.079  66.395  0.00  0.00    +0.000 C 
ATOM      2  O   UNL     1      61.256  63.361  67.163  0.00  0.00    +0.000 OA
ATOM      3  C   UNL     1      61.001  62.912  67.807  0.00  0.00    +0.000 A 
ATOM      4  C   UNL     1      61.109  63.195  68.574  0.00  0.00    +0.000 A 
ATOM      5  C   UNL     1      60.855  62.746  69.218  0.00  0.00    +0.000 A 
ATOM      6  C   UNL     1      60.493  62.015  69.094  0.00  0.00    +0.000 A 
ATOM      7  N   UNL     1      60.301  61.698  69.831  0.00  0.00    +0.000 NA
ATOM      8  C   UNL     1      60.544  62.232  70.411  0.00  0.00    +0.000 C 
ATOM      9  C   UNL     1      60.887  62.880  70.032  0.00  0.00    +0.000 C 
ATOM     10  C   UNL     1      61.205  63.545  70.401  0.00  0.00    +0.000 C 
ATOM     11  C   UNL     1      61.198  63.603  71.225  0.00  0.00    +0.000 C 
ATOM     12  N   UNL     1      61.516  64.268  71.594  0.00  0.00    +0.000 NA
ATOM     13  C   UNL     1      61.509  64.326  72.417  0.00  0.00    +0.000 C 
ATOM     14  C   UNL     1      61.827  64.991  72.787  0.00  0.00    +0.000 C 
ATOM     15  O   UNL     1      61.183  63.718  72.871  0.00  0.00    +0.000 OA
ATOM     16  C   UNL     1      60.385  61.733  68.326  0.00  0.00    +0.000 A 
ATOM     17  C   UNL     1      60.639  62.182  67.683  0.00  0.00    +0.000 A 
ENDROOT
TORSDOF 0
ENDMDL
MODEL 7
REMARK VINA RESULT:    -7.957      2.400      5.333
REMARK INTER + INTRA:          -7.957
REMARK INTER:                  -7.957
REMARK INTRA:                   0.000
REMARK UNBOUND:                 0.000
ROOT
REMARK  Name = melatonin
REMARK                            x       y       z     vdW  Elec       q    Type
REMARK                         _______ _______ _______ _____ _____    ______ ____
ATOM      1  C   UNL     1      59.571  65.619  72.001  0.00  0.00    +0.000 C 
ATOM      2  O   UNL     1      59.802  65.316  71.270  0.00  0.00    +0.000 OA
ATOM      3  C   UNL     1      59.941  64.507  71.185  0.00  0.00    +0.000 A 
ATOM      4  C   UNL     1      60.172  64.203  70.453  0.00  0.00    +0.000 A 
ATOM      5  C   UNL     1      60.312  63.394  70.368  0.00  0.00    +0.000 A 
ATOM      6  C   UNL     1      60.220  62.889  71.014  0.00  0.00    +0.000 A 
ATOM      7  N   UNL     1      60.396  62.123  70.765  0.00  0.00    +0.000 NA
ATOM      8  C   UNL     1      60.595  62.153  69.965  0.00  0.00    +0.000 C 
ATOM      9  C   UNL     1      60.543  62.940  69.719  0.00  0.00    +0.000 C 
ATOM     10  C   UNL     1      60.696  63.221  68.960  0.00  0.00    +0.000 C 
ATOM     11  C   UNL     1      60.925  62.698  68.364  0.00  0.00    +0.000 C 
ATOM     12  N   UNL     1      61.078  62.979  67.604  0.00  0.00    +0.000 NA
ATOM     13  C   UNL     1      61.306  62.456  67.008  0.00  0.00    +0.000 C 
ATOM     14  C   UNL     1      61.459  62.737  66.248  0.00  0.00    +0.000 C 
ATOM     15  O   UNL     1      61.381  61.651  67.173  0.00  0.00    +0.000 OA
ATOM     16  C   UNL     1      59.989  63.194  71.745  0.00  0.00    +0.000 A 
ATOM     17  C   UNL     1      59.850  64.002  71.831  0.00  0.00    +0.000 A 
ENDROOT
TORSDOF 0
ENDMDL
MODEL 8
REMARK VINA RESULT:    -7.872      3.539      5.137
REMARK INTER + INTRA:          -7.872
REMARK INTER:                  -7.872
REMARK INTRA:                   0.000
REMARK UNBOUND:                 0.000
ROOT
REMARK  Name = melatonin
REMARK                            x       y       z     vdW  Elec       q    Type
REMARK                         _______ _______ _______ _____ _____    ______ ____
ATOM      1  C   UNL     1      60.438  61.942  68.688  0.00  0.00    +0.000 C 
ATOM      2  O   UNL     1      60.731  62.606  69.080  0.00  0.00    +0.000 OA
ATOM      3  C   UNL     1      60.871  62.577  69.893  0.00  0.00    +0.000 A 
ATOM      4  C   UNL     1      61.165  63.241  70.285  0.00  0.00    +0.000 A 
ATOM      5  C   UNL     1      61.305  63.212  71.097  0.00  0.00    +0.000 A 
ATOM      6  C   UNL     1      61.152  62.519  71.518  0.00  0.00    +0.000 A 
ATOM      7  N   UNL     1      61.343  62.653  72.309  0.00  0.00    +0.000 NA
ATOM      8  C   UNL     1      61.614  63.429  72.378  0.00  0.00    +0.000 C 
ATOM      9  C   UNL     1      61.591  63.775  71.629  0.00  0.00    +0.000 C 
ATOM     10  C   UNL     1      61.814  64.547  71.444  0.00  0.00    +0.000 C 
ATOM     11  C   UNL     1      62.091  65.050  72.037  0.00  0.00    +0.000 C 
ATOM     12  N   UNL     1      62.314  65.821  71.852  0.00  0.00    +0.000 NA
ATOM     13  C   UNL     1      62.591  66.325  72.445  0.00  0.00    +0.000 C 
ATOM     14  C   UNL     1      62.814  67.096  72.260  0.00  0.00    +0.000 C 
ATOM     15  O   UNL     1      62.644  66.055  73.222  0.00  0.00    +0.000 OA
ATOM     16  C   UNL     1      60.858  61.855  71.125  0.00  0.00    +0.000 A 
ATOM     17  C   UNL     1      60.718  61.884  70.313  0.00  0.00    +0.000 A 
ENDROOT
TORSDOF 0
ENDMDL
MODEL 9
REMARK VINA RESULT:    -7.846      5.114      6.156
REMARK INTER + INTRA:          -7.846
REMARK INTER:                  -7.846
REMARK INTRA:                   0.000
REMARK UNBOUND:                 0.000
ROOT
REMARK  Name = melatonin
REMARK                            x       y       z     vdW  Elec       q    Type
REMARK                         _______ _______ _______ _____ _____    ______ ____
ATOM      1  C   UNL     1      60.753  61.824  70.936  0.00  0.00    +0.000 C 
ATOM      2  O   UNL     1      61.330  62.404  70.834  0.00  0.00    +0.000 OA
ATOM      3  C   UNL     1      61.368  63.044  71.354  0.00  0.00    +0.000 A 
ATOM      4  C   UNL     1      61.945  63.624  71.252  0.00  0.00    +0.000 A 
ATOM      5  C   UNL     1      61.983  64.264  71.772  0.00  0.00    +0.000 A 
ATOM      6  C   UNL     1      61.445  64.322  72.394  0.00  0.00    +0.000 A 
ATOM      7  N   UNL     1      61.616  65.010  72.816  0.00  0.00    +0.000 NA
ATOM      8  C   UNL     1      62.261  65.377  72.455  0.00  0.00    +0.000 C 
ATOM      9  C   UNL     1      62.488  64.915  71.809  0.00  0.00    +0.000 C 
ATOM     10  C   UNL     1      63.109  65.078  71.293  0.00  0.00    +0.000 C 
ATOM     11  C   UNL     1      63.569  65.755  71.399  0.00  0.00    +0.000 C 
ATOM     12  N   UNL     1      64.191  65.917  70.883  0.00  0.00    +0.000 NA
ATOM     13  C   UNL     1      64.650  66.594  70.989  0.00  0.00    +0.000 C 
ATOM     14  C   UNL     1      65.272  66.757  70.473  0.00  0.00    +0.000 C 
ATOM     15  O   UNL     1      64.488  67.109  71.613  0.00  0.00    +0.000 OA
ATOM     16  C   UNL     1      60.868  63.740  72.496  0.00  0.00    +0.000 A 
ATOM     17  C   UNL     1      60.829  63.102  71.976  0.00  0.00    +0.000 A 
ENDROOT
TORSDOF 0
ENDMDL
