MODEL 1
REMARK VINA RESULT:    -9.409      0.000      0.000
REMARK INTER + INTRA:          -9.409
REMARK INTER:                  -9.409
REMARK INTRA:                   0.000
REMARK UNBOUND:                 0.000
ROOT
REMARK  Name = melphalan
REMARK                            x       y       z     vdW  Elec       q    Type
REMARK                         _______ _______ _______ _____ _____    ______ ____
ATOM      1  N   UNL     1      63.213  64.445  70.845  0.00  0.00    +0.000 NA
ATOM      2  CA  UNL     1      62.929  64.706  70.116  0.00  0.00    +0.000 C 
ATOM      3  C   UNL     1      63.309  65.325  69.724  0.00  0.00    +0.000 C 
ATOM      4  C   UNL     1      63.971  65.682  70.060  0.00  0.00    +0.000 A 
ATOM      5  C   UNL     1      64.351  66.301  69.668  0.00  0.00    +0.000 A 
ATOM      6  C   UNL     1      65.013  66.659  70.004  0.00  0.00    +0.000 A 
ATOM      7  C   UNL     1      65.297  66.398  70.734  0.00  0.00    +0.000 A 
ATOM      8  C   UNL     1      64.918  65.779  71.127  0.00  0.00    +0.000 A 
ATOM      9  C   UNL     1      64.255  65.421  70.789  0.00  0.00    +0.000 A 
ATOM     10  N   UNL     1      65.960  66.756  71.071  0.00  0.00    +0.000 N 
ATOM     11  C   UNL     1      66.244  66.495  71.801  0.00  0.00    +0.000 C 
ATOM     12  C   UNL     1      66.906  66.852  72.137  0.00  0.00    +0.000 C 
ATOM     13 CL   UNL     1      67.190  66.591  72.866  0.00  0.00    +0.000 Cl
ATOM     14  C   UNL     1      66.339  67.374  70.678  0.00  0.00    +0.000 C 
ATOM     15  C   UNL     1      66.055  67.635  69.949  0.00  0.00    +0.000 C 
ATOM     16 CL   UNL     1      66.434  68.254  69.557  0.00  0.00    +0.000 Cl
ATOM     17  C   UNL     1      62.267  64.348  69.779  0.00  0.00    +0.000 C 
ATOM     18  O   UNL     1      61.888  63.729  70.171  0.00  0.00    +0.000 OA
ATOM     19  OXT UNL     1      61.984  64.610  69.050  0.00  0.00    +0.000 OA
ENDROOT
TORSDOF 0
ENDMDL
MODEL 2
REMARK VINA RESULT:    -9.355      4.612      6.360
REMARK INTER + INTRA:          -9.355
REMARK INTER:                  -9.355
REMARK INTRA:                   0.000
REMARK UNBOUND:                 0.000
ROOT
REMARK  Name = melphalan
REMARK                            x       y       z     vdW  Elec       q    Type
REMARK                         _______ _______ _______ _____ _____    ______ ____
ATOM      1  N   UNL     1      62.004  62.747  65.306  0.00  0.00    +0.000 NA
ATOM      2  CA  UNL     1      61.620  62.021  65.232  0.00  0.00    +0.000 C 
ATOM      3  C   UNL     1      61.253  61.680  65.888  0.00  0.00    +0.000 C 
ATOM      4  C   UNL     1      61.269  62.065  66.616  0.00  0.00    +0.000 A 
ATOM      5  C   UNL     1      60.902  61.724  67.272  0.00  0.00    +0.000 A 
ATOM      6  C   UNL     1      60.918  62.109  68.001  0.00  0.00    +0.000 A 
ATOM      7  C   UNL     1      61.303  62.835  68.075  0.00  0.00    +0.000 A 
ATOM      8  C   UNL     1      61.670  63.177  67.421  0.00  0.00    +0.000 A 
ATOM      9  C   UNL     1      61.653  62.791  66.691  0.00  0.00    +0.000 A 
ATOM     10  N   UNL     1      61.319  63.221  68.805  0.00  0.00    +0.000 N 
ATOM     11  C   UNL     1      61.704  63.947  68.879  0.00  0.00    +0.000 C 
ATOM     12  C   UNL     1      61.720  64.332  69.608  0.00  0.00    +0.000 C 
ATOM     13 CL   UNL     1      62.104  65.058  69.682  0.00  0.00    +0.000 Cl
ATOM     14  C   UNL     1      60.952  62.879  69.460  0.00  0.00    +0.000 C 
ATOM     15  C   UNL     1      60.568  62.153  69.386  0.00  0.00    +0.000 C 
ATOM     16 CL   UNL     1      60.200  61.813  70.040  0.00  0.00    +0.000 Cl
ATOM     17  C   UNL     1      61.604  61.636  64.503  0.00  0.00    +0.000 C 
ATOM     18  O   UNL     1      61.971  61.977  63.847  0.00  0.00    +0.000 OA
ATOM     19  OXT UNL     1      61.219  60.910  64.429  0.00  0.00    +0.000 OA
ENDROOT
TORSDOF 0
ENDMDL
MODEL 3
REMARK VINA RESULT:    -9.340      4.836      6.525
REMARK INTER + INTRA:          -9.340
REMARK INTER:                  -9.340
REMARK INTRA:                   0.000
REMARK UNBOUND:                 0.000
ROOT
REMARK  Name = melphalan
REMARK                            x       y       z     vdW  Elec       q    Type
REMARK                         _______ _______ _______ _____ _____    ______ ____
ATOM      1  N   UNL     1      62.203  63.902  69.593  0.00  0.00    +0.000 NA
ATOM      2  CA  UNL     1      61.488  63.857  70.001  0.00  0.00    +0.000 C 
ATOM      3  C   UNL     1      60.816  63.560  69.624  0.00  0.00    +0.000 C 
ATOM      4  C   UNL     1      60.860  63.308  68.841  0.00  0.00    +0.000 A 
ATOM      5  C   UNL     1      60.189  63.011  68.464  0.00  0.00    +0.000 A 
ATOM      6  C   UNL     1      60.232  62.760  67.680  0.00  0.00    +0.000 A 
ATOM      7  C   UNL     1      60.948  62.805  67.272  0.00  0.00    +0.000 A 
ATOM      8  C   UNL     1      61.620  63.101  67.647  0.00  0.00    +0.000 A 
ATOM      9  C   UNL     1      61.576  63.353  68.433  0.00  0.00    +0.000 A 
ATOM     10  N   UNL     1      60.992  62.553  66.487  0.00  0.00    +0.000 N 
ATOM     11  C   UNL     1      61.708  62.597  66.079  0.00  0.00    +0.000 C 
ATOM     12  C   UNL     1      61.751  62.346  65.295  0.00  0.00    +0.000 C 
ATOM     13 CL   UNL     1      62.467  62.391  64.887  0.00  0.00    +0.000 Cl
ATOM     14  C   UNL     1      60.320  62.256  66.111  0.00  0.00    +0.000 C 
ATOM     15  C   UNL     1      59.605  62.211  66.519  0.00  0.00    +0.000 C 
ATOM     16 CL   UNL     1      58.934  61.914  66.143  0.00  0.00    +0.000 Cl
ATOM     17  C   UNL     1      61.444  64.109  70.785  0.00  0.00    +0.000 C 
ATOM     18  O   UNL     1      62.115  64.406  71.162  0.00  0.00    +0.000 OA
ATOM     19  OXT UNL     1      60.728  64.064  71.193  0.00  0.00    +0.000 OA
ENDROOT
TORSDOF 0
ENDMDL
MODEL 4
REMARK VINA RESULT:    -9.005      2.839      4.250
REMARK INTER + INTRA:          -9.005
REMARK INTER:                  -9.005
REMARK INTRA:                   0.000
REMARK UNBOUND:                 0.000
ROOT
REMARK  Name = melphalan
REMARK                            x       y       z     vdW  Elec       q    Type
REMARK                         _______ _______ _______ _____ _____    ______ ____
ATOM      1  N   UNL     1      65.231  66.534  71.333  0.00  0.00    +0.000 NA
ATOM      2  CA  UNL     1      65.391  66.764  70.557  0.00  0.00    +0.000 C 
ATOM      3  C   UNL     1      64.948  66.451  69.935  0.00  0.00    +0.000 C 
ATOM      4  C   UNL     1      64.346  65.909  70.089  0.00  0.00    +0.000 A 
ATOM      5  C   UNL     1      63.903  65.596  69.467  0.00  0.00    +0.000 A 
ATOM      6  C   UNL     1      63.301  65.054  69.620  0.00  0.00    +0.000 A 
ATOM      7  C   UNL     1      63.141  64.824  70.397  0.00  0.00    +0.000 A 
ATOM      8  C   UNL     1      63.583  65.137  71.019  0.00  0.00    +0.000 A 
ATOM      9  C   UNL     1      64.186  65.679  70.865  0.00  0.00    +0.000 A 
ATOM     10  N   UNL     1      62.538  64.282  70.551  0.00  0.00    +0.000 N 
ATOM     11  C   UNL     1      62.378  64.052  71.327  0.00  0.00    +0.000 C 
ATOM     12  C   UNL     1      61.776  63.510  71.481  0.00  0.00    +0.000 C 
ATOM     13 CL   UNL     1      61.616  63.281  72.257  0.00  0.00    +0.000 Cl
ATOM     14  C   UNL     1      62.096  63.970  69.928  0.00  0.00    +0.000 C 
ATOM     15  C   UNL     1      62.256  64.199  69.152  0.00  0.00    +0.000 C 
ATOM     16 CL   UNL     1      61.813  63.887  68.531  0.00  0.00    +0.000 Cl
ATOM     17  C   UNL     1      65.993  67.306  70.403  0.00  0.00    +0.000 C 
ATOM     18  O   UNL     1      66.436  67.619  71.025  0.00  0.00    +0.000 OA
ATOM     19  OXT UNL     1      66.153  67.535  69.627  0.00  0.00    +0.000 OA
ENDROOT
TORSDOF 0
ENDMDL
MODEL 5
REMARK VINA RESULT:    -8.784      5.413      5.838
REMARK INTER + INTRA:          -8.784
REMARK INTER:                  -8.784
REMARK INTRA:                   0.000
REMARK UNBOUND:                 0.000
ROOT
REMARK  Name = melphalan
REMARK                            x       y       z     vdW  Elec       q    Type
REMARK                         _______ _______ _______ _____ _____    ______ ____
ATOM      1  N   UNL     1      60.101  63.229  67.777  0.00  0.00    +0.000 NA
ATOM      2  CA  UNL     1      60.648  62.613  67.747  0.00  0.00    +0.000 C 
ATOM      3  C   UNL     1      61.003  62.342  68.441  0.00  0.00    +0.000 C 
ATOM      4  C   UNL     1      60.811  62.686  69.164  0.00  0.00    +0.000 A 
ATOM      5  C   UNL     1      61.165  62.415  69.858  0.00  0.00    +0.000 A 
ATOM      6  C   UNL     1      60.973  62.760  70.582  0.00  0.00    +0.000 A 
ATOM      7  C   UNL     1      60.426  63.377  70.613  0.00  0.00    +0.000 A 
ATOM      8  C   UNL     1      60.071  63.648  69.920  0.00  0.00    +0.000 A 
ATOM      9  C   UNL     1      60.264  63.303  69.195  0.00  0.00    +0.000 A 
ATOM     10  N   UNL     1      60.233  63.722  71.338  0.00  0.00    +0.000 N 
ATOM     11  C   UNL     1      59.686  64.339  71.368  0.00  0.00    +0.000 C 
ATOM     12  C   UNL     1      59.494  64.683  72.092  0.00  0.00    +0.000 C 
ATOM     13 CL   UNL     1      58.947  65.300  72.123  0.00  0.00    +0.000 Cl
ATOM     14  C   UNL     1      60.588  63.450  72.031  0.00  0.00    +0.000 C 
ATOM     15  C   UNL     1      61.136  62.833  72.000  0.00  0.00    +0.000 C 
ATOM     16 CL   UNL     1      61.490  62.562  72.693  0.00  0.00    +0.000 Cl
ATOM     17  C   UNL     1      60.840  62.268  67.023  0.00  0.00    +0.000 C 
ATOM     18  O   UNL     1      60.486  62.539  66.329  0.00  0.00    +0.000 OA
ATOM     19  OXT UNL     1      61.388  61.651  66.992  0.00  0.00    +0.000 OA
ENDROOT
TORSDOF 0
ENDMDL
MODEL 6
REMARK VINA RESULT:    -8.713      3.554      5.236
REMARK INTER + INTRA:          -8.713
REMARK INTER:                  -8.713
REMARK INTRA:                   0.000
REMARK UNBOUND:                 0.000
ROOT
REMARK  Name = melphalan
REMARK                            x       y       z     vdW  Elec       q    Type
REMARK                         _______ _______ _______ _____ _____    ______ ____
ATOM      1  N   UNL     1      61.230  62.458  66.516  0.00  0.00    +0.000 NA
ATOM      2  CA  UNL     1      60.413  62.393  66.611  0.00  0.00    +0.000 C 
ATOM      3  C   UNL     1      60.052  62.693  67.289  0.00  0.00    +0.000 C 
ATOM      4  C   UNL     1      60.506  63.058  67.872  0.00  0.00    +0.000 A 
ATOM      5  C   UNL     1      60.145  63.358  68.551  0.00  0.00    +0.000 A 
ATOM      6  C   UNL     1      60.599  63.723  69.134  0.00  0.00    +0.000 A 
ATOM      7  C   UNL     1      61.416  63.789  69.039  0.00  0.00    +0.000 A 
ATOM      8  C   UNL     1      61.779  63.489  68.361  0.00  0.00    +0.000 A 
ATOM      9  C   UNL     1      61.323  63.123  67.777  0.00  0.00    +0.000 A 
ATOM     10  N   UNL     1      61.872  64.154  69.622  0.00  0.00    +0.000 N 
ATOM     11  C   UNL     1      62.689  64.220  69.527  0.00  0.00    +0.000 C 
ATOM     12  C   UNL     1      63.143  64.585  70.110  0.00  0.00    +0.000 C 
ATOM     13 CL   UNL     1      63.960  64.650  70.015  0.00  0.00    +0.000 Cl
ATOM     14  C   UNL     1      61.509  64.454  70.300  0.00  0.00    +0.000 C 
ATOM     15  C   UNL     1      60.692  64.388  70.395  0.00  0.00    +0.000 C 
ATOM     16 CL   UNL     1      60.331  64.688  71.073  0.00  0.00    +0.000 Cl
ATOM     17  C   UNL     1      59.959  62.028  66.028  0.00  0.00    +0.000 C 
ATOM     18  O   UNL     1      60.320  61.728  65.349  0.00  0.00    +0.000 OA
ATOM     19  OXT UNL     1      59.142  61.962  66.123  0.00  0.00    +0.000 OA
ENDROOT
TORSDOF 0
ENDMDL
MODEL 7
REMARK VINA RESULT:    -8.363      3.552      5.196
REMARK INTER + INTRA:          -8.363
REMARK INTER:                  -8.363
REMARK INTRA:                   0.000
REMARK UNBOUND:                 0.000
ROOT
REMARK  Name = melphalan
REMARK                            x       y       z     vdW  Elec       q    Type
REMARK                         _______ _______ _______ _____ _____    ______ ____
ATOM      1  N   UNL     1      64.215  64.944  70.936  0.00  0.00    +0.000 NA
ATOM      2  CA  UNL     1      64.087  65.677  71.291  0.00  0.00    +0.000 C 
ATOM      3  C   UNL     1      63.349  65.854  71.617  0.00  0.00    +0.000 C 
ATOM      4  C   UNL     1      62.741  65.298  71.586  0.00  0.00    +0.000 A 
ATOM      5  C   UNL     1      62.004  65.475  71.912  0.00  0.00    +0.000 A 
ATOM      6  C   UNL     1      61.395  64.919  71.882  0.00  0.00    +0.000 A 
ATOM      7  C   UNL     1      61.523  64.186  71.526  0.00  0.00    +0.000 A 
ATOM      8  C   UNL     1      62.260  64.008  71.200  0.00  0.00    +0.000 A 
ATOM      9  C   UNL     1      62.869  64.565  71.231  0.00  0.00    +0.000 A 
ATOM     10  N   UNL     1      60.914  63.630  71.495  0.00  0.00    +0.000 N 
ATOM     11  C   UNL     1      61.043  62.896  71.140  0.00  0.00    +0.000 C 
ATOM     12  C   UNL     1      60.434  62.341  71.109  0.00  0.00    +0.000 C 
ATOM     13 CL   UNL     1      60.562  61.608  70.754  0.00  0.00    +0.000 Cl
ATOM     14  C   UNL     1      60.177  63.807  71.821  0.00  0.00    +0.000 C 
ATOM     15  C   UNL     1      60.049  64.541  72.177  0.00  0.00    +0.000 C 
ATOM     16 CL   UNL     1      59.313  64.718  72.502  0.00  0.00    +0.000 Cl
ATOM     17  C   UNL     1      64.695  66.232  71.322  0.00  0.00    +0.000 C 
ATOM     18  O   UNL     1      65.433  66.056  70.996  0.00  0.00    +0.000 OA
ATOM     19  OXT UNL     1      64.567  66.965  71.677  0.00  0.00    +0.000 OA
ENDROOT
TORSDOF 0
ENDMDL
MODEL 8
REMARK VINA RESULT:    -8.324      3.701      5.372
REMARK INTER + INTRA:          -8.324
REMARK INTER:                  -8.324
REMARK INTRA:                   0.000
REMARK UNBOUND:                 0.000
ROOT
REMARK  Name = melphalan
REMARK                            x       y       z     vdW  Elec       q    Type
REMARK                         _______ _______ _______ _____ _____    ______ ____
ATOM      1  N   UNL     1      63.226  66.267  71.653  0.00  0.00    +0.000 NA
ATOM      2  CA  UNL     1      63.724  65.697  71.324  0.00  0.00    +0.000 C 
ATOM      3  C   UNL     1      63.430  64.948  71.143  0.00  0.00    +0.000 C 
ATOM      4  C   UNL     1      62.639  64.768  71.290  0.00  0.00    +0.000 A 
ATOM      5  C   UNL     1      62.345  64.019  71.109  0.00  0.00    +0.000 A 
ATOM      6  C   UNL     1      61.554  63.839  71.256  0.00  0.00    +0.000 A 
ATOM      7  C   UNL     1      61.056  64.408  71.585  0.00  0.00    +0.000 A 
ATOM      8  C   UNL     1      61.349  65.158  71.767  0.00  0.00    +0.000 A 
ATOM      9  C   UNL     1      62.141  65.338  71.619  0.00  0.00    +0.000 A 
ATOM     10  N   UNL     1      60.264  64.229  71.733  0.00  0.00    +0.000 N 
ATOM     11  C   UNL     1      59.766  64.798  72.062  0.00  0.00    +0.000 C 
ATOM     12  C   UNL     1      58.975  64.618  72.209  0.00  0.00    +0.000 C 
ATOM     13 CL   UNL     1      58.477  65.188  72.538  0.00  0.00    +0.000 Cl
ATOM     14  C   UNL     1      59.971  63.479  71.551  0.00  0.00    +0.000 C 
ATOM     15  C   UNL     1      60.469  62.910  71.222  0.00  0.00    +0.000 C 
ATOM     16 CL   UNL     1      60.175  62.161  71.041  0.00  0.00    +0.000 Cl
ATOM     17  C   UNL     1      64.515  65.877  71.177  0.00  0.00    +0.000 C 
ATOM     18  O   UNL     1      64.809  66.626  71.358  0.00  0.00    +0.000 OA
ATOM     19  OXT UNL     1      65.013  65.307  70.848  0.00  0.00    +0.000 OA
ENDROOT
TORSDOF 0
ENDMDL
MODEL 9
REMARK VINA RESULT:    -8.093      4.711      6.062
REMARK INTER + INTRA:          -8.093
REMARK INTER:                  -8.093
REMARK INTRA:                   0.000
REMARK UNBOUND:                 0.000
ROOT
REMARK  Name = melphalan
REMARK                            x       y       z     vdW  Elec       q    Type
REMARK                         _______ _______ _______ _____ _____    ______ ____
ATOM      1  N   UNL     1      61.935  67.925  72.906  0.00  0.00    +0.000 NA
ATOM      2  CA  UNL     1      62.574  67.496  72.610  0.00  0.00    +0.000 C 
ATOM      3  C   UNL     1      62.466  66.718  72.356  0.00  0.00    +0.000 C 
ATOM      4  C   UNL     1      61.720  66.370  72.398  0.00  0.00    +0.000 A 
ATOM      5  C   UNL     1      61.612  65.592  72.144  0.00  0.00    +0.000 A 
ATOM      6  C   UNL     1      60.866  65.244  72.186  0.00  0.00    +0.000 A 
ATOM      7  C   UNL     1      60.227  65.673  72.482  0.00  0.00    +0.000 A 
ATOM      8  C   UNL     1      60.333  66.451  72.736  0.00  0.00    +0.000 A 
ATOM      9  C   UNL     1      61.081  66.799  72.694  0.00  0.00    +0.000 A 
ATOM     10  N   UNL     1      59.479  65.325  72.524  0.00  0.00    +0.000 N 
ATOM     11  C   UNL     1      58.840  65.754  72.820  0.00  0.00    +0.000 C 
ATOM     12  C   UNL     1      58.094  65.406  72.862  0.00  0.00    +0.000 C 
ATOM     13 CL   UNL     1      57.455  65.835  73.158  0.00  0.00    +0.000 Cl
ATOM     14  C   UNL     1      59.372  64.547  72.270  0.00  0.00    +0.000 C 
ATOM     15  C   UNL     1      60.012  64.118  71.974  0.00  0.00    +0.000 C 
ATOM     16 CL   UNL     1      59.904  63.341  71.721  0.00  0.00    +0.000 Cl
ATOM     17  C   UNL     1      63.320  67.844  72.568  0.00  0.00    +0.000 C 
ATOM     18  O   UNL     1      63.429  68.621  72.822  0.00  0.00    +0.000 OA
ATOM     19  OXT UNL     1      63.960  67.414  72.272  0.00  0.00    +0.000 OA
ENDROOT
TORSDOF 0
ENDMDL
