MODEL 1
REMARK VINA RESULT:    -9.466      0.000      0.000
REMARK INTER + INTRA:          -9.466
REMARK INTER:                  -9.466
REMARK INTRA:                   0.000
REMARK UNBOUND:                 0.000
ROOT
REMARK  Name = menadione sodium bisulfite
REMARK                            x       y       z     vdW  Elec       q    Type
REMARK                         _______ _______ _______ _____ _____    ______ ____
ATOM      1  C   UNL     1      61.462  62.933  66.961  0.00  0.00    +0.000 C 
ATOM      2  C   UNL     1      60.973  62.475  66.480  0.00  0.00    +0.000 C 
ATOM      3  C   UNL     1      60.306  62.062  66.220  0.00  0.00    +0.000 C 
ATOM      4  C   UNL     1      60.318  61.677  65.491  0.00  0.00    +0.000 C 
ATOM      5  O   UNL     1      59.652  61.265  65.231  0.00  0.00    +0.000 OA
ATOM      6  C   UNL     1      60.995  61.703  65.022  0.00  0.00    +0.000 A 
ATOM      7  C   UNL     1      61.008  61.318  64.292  0.00  0.00    +0.000 A 
ATOM      8  C   UNL     1      61.685  61.344  63.823  0.00  0.00    +0.000 A 
ATOM      9  C   UNL     1      62.352  61.756  64.083  0.00  0.00    +0.000 A 
ATOM     10  C   UNL     1      62.340  62.142  64.812  0.00  0.00    +0.000 A 
ATOM     11  C   UNL     1      61.662  62.116  65.282  0.00  0.00    +0.000 A 
ATOM     12  C   UNL     1      61.650  62.501  66.010  0.00  0.00    +0.000 C 
ATOM     13  O   UNL     1      62.316  62.913  66.270  0.00  0.00    +0.000 OA
ATOM     14  S   UNL     1      60.464  62.607  67.116  0.00  0.00    +0.000 S 
ATOM     15  O   UNL     1      59.957  62.740  67.753  0.00  0.00    +0.000 OA
ATOM     16  O   UNL     1      59.878  62.166  66.741  0.00  0.00    +0.000 OA
ATOM     17  O   UNL     1      61.052  63.049  67.492  0.00  0.00    +0.000 OA
ENDROOT
TORSDOF 0
ENDMDL
MODEL 2
REMARK VINA RESULT:    -9.409      1.304      3.043
REMARK INTER + INTRA:          -9.409
REMARK INTER:                  -9.409
REMARK INTRA:                   0.000
REMARK UNBOUND:                 0.000
ROOT
REMARK  Name = menadione sodium bisulfite
REMARK                            x       y       z     vdW  Elec       q    Type
REMARK                         _______ _______ _______ _____ _____    ______ ____
ATOM      1  C   UNL     1      61.113  61.377  64.428  0.00  0.00    +0.000 C 
ATOM      2  C   UNL     1      61.356  61.805  65.091  0.00  0.00    +0.000 C 
ATOM      3  C   UNL     1      61.848  62.217  65.611  0.00  0.00    +0.000 C 
ATOM      4  C   UNL     1      61.542  62.524  66.312  0.00  0.00    +0.000 C 
ATOM      5  O   UNL     1      62.033  62.936  66.831  0.00  0.00    +0.000 OA
ATOM      6  C   UNL     1      60.744  62.421  66.494  0.00  0.00    +0.000 A 
ATOM      7  C   UNL     1      60.437  62.728  67.195  0.00  0.00    +0.000 A 
ATOM      8  C   UNL     1      59.640  62.624  67.378  0.00  0.00    +0.000 A 
ATOM      9  C   UNL     1      59.148  62.212  66.858  0.00  0.00    +0.000 A 
ATOM     10  C   UNL     1      59.454  61.904  66.157  0.00  0.00    +0.000 A 
ATOM     11  C   UNL     1      60.252  62.008  65.974  0.00  0.00    +0.000 A 
ATOM     12  C   UNL     1      60.559  61.701  65.273  0.00  0.00    +0.000 C 
ATOM     13  O   UNL     1      60.067  61.289  64.754  0.00  0.00    +0.000 OA
ATOM     14  S   UNL     1      62.070  61.760  64.679  0.00  0.00    +0.000 S 
ATOM     15  O   UNL     1      62.783  61.716  64.267  0.00  0.00    +0.000 OA
ATOM     16  O   UNL     1      62.443  62.186  65.278  0.00  0.00    +0.000 OA
ATOM     17  O   UNL     1      61.696  61.334  64.079  0.00  0.00    +0.000 OA
ENDROOT
TORSDOF 0
ENDMDL
MODEL 3
REMARK VINA RESULT:    -8.413      3.408      5.039
REMARK INTER + INTRA:          -8.413
REMARK INTER:                  -8.413
REMARK INTRA:                   0.000
REMARK UNBOUND:                 0.000
ROOT
REMARK  Name = menadione sodium bisulfite
REMARK                            x       y       z     vdW  Elec       q    Type
REMARK                         _______ _______ _______ _____ _____    ______ ____
ATOM      1  C   UNL     1      61.169  63.213  68.848  0.00  0.00    +0.000 C 
ATOM      2  C   UNL     1      60.889  62.687  69.418  0.00  0.00    +0.000 C 
ATOM      3  C   UNL     1      60.496  62.041  69.751  0.00  0.00    +0.000 C 
ATOM      4  C   UNL     1      60.522  61.919  70.566  0.00  0.00    +0.000 C 
ATOM      5  O   UNL     1      60.129  61.274  70.899  0.00  0.00    +0.000 OA
ATOM      6  C   UNL     1      60.940  62.440  71.048  0.00  0.00    +0.000 A 
ATOM      7  C   UNL     1      60.966  62.318  71.864  0.00  0.00    +0.000 A 
ATOM      8  C   UNL     1      61.384  62.840  72.346  0.00  0.00    +0.000 A 
ATOM      9  C   UNL     1      61.777  63.485  72.013  0.00  0.00    +0.000 A 
ATOM     10  C   UNL     1      61.751  63.608  71.198  0.00  0.00    +0.000 A 
ATOM     11  C   UNL     1      61.333  63.086  70.715  0.00  0.00    +0.000 A 
ATOM     12  C   UNL     1      61.307  63.208  69.900  0.00  0.00    +0.000 C 
ATOM     13  O   UNL     1      61.699  63.853  69.568  0.00  0.00    +0.000 OA
ATOM     14  S   UNL     1      60.567  62.347  68.738  0.00  0.00    +0.000 S 
ATOM     15  O   UNL     1      60.247  62.008  68.058  0.00  0.00    +0.000 OA
ATOM     16  O   UNL     1      60.225  61.752  69.195  0.00  0.00    +0.000 OA
ATOM     17  O   UNL     1      60.910  62.942  68.280  0.00  0.00    +0.000 OA
ENDROOT
TORSDOF 0
ENDMDL
MODEL 4
REMARK VINA RESULT:    -8.296      5.557      7.131
REMARK INTER + INTRA:          -8.296
REMARK INTER:                  -8.296
REMARK INTRA:                   0.000
REMARK UNBOUND:                 0.000
ROOT
REMARK  Name = menadione sodium bisulfite
REMARK                            x       y       z     vdW  Elec       q    Type
REMARK                         _______ _______ _______ _____ _____    ______ ____
ATOM      1  C   UNL     1      63.842  64.698  69.749  0.00  0.00    +0.000 C 
ATOM      2  C   UNL     1      63.831  65.179  70.420  0.00  0.00    +0.000 C 
ATOM      3  C   UNL     1      63.613  65.470  71.161  0.00  0.00    +0.000 C 
ATOM      4  C   UNL     1      63.989  66.137  71.468  0.00  0.00    +0.000 C 
ATOM      5  O   UNL     1      63.772  66.428  72.209  0.00  0.00    +0.000 OA
ATOM      6  C   UNL     1      64.582  66.512  71.035  0.00  0.00    +0.000 A 
ATOM      7  C   UNL     1      64.958  67.180  71.341  0.00  0.00    +0.000 A 
ATOM      8  C   UNL     1      65.551  67.555  70.908  0.00  0.00    +0.000 A 
ATOM      9  C   UNL     1      65.768  67.263  70.166  0.00  0.00    +0.000 A 
ATOM     10  C   UNL     1      65.392  66.597  69.860  0.00  0.00    +0.000 A 
ATOM     11  C   UNL     1      64.799  66.221  70.293  0.00  0.00    +0.000 A 
ATOM     12  C   UNL     1      64.423  65.554  69.986  0.00  0.00    +0.000 C 
ATOM     13  O   UNL     1      64.640  65.263  69.246  0.00  0.00    +0.000 OA
ATOM     14  S   UNL     1      63.241  64.636  70.621  0.00  0.00    +0.000 S 
ATOM     15  O   UNL     1      62.653  64.094  70.821  0.00  0.00    +0.000 OA
ATOM     16  O   UNL     1      63.125  65.028  71.337  0.00  0.00    +0.000 OA
ATOM     17  O   UNL     1      63.358  64.245  69.904  0.00  0.00    +0.000 OA
ENDROOT
TORSDOF 0
ENDMDL
MODEL 5
REMARK VINA RESULT:    -8.148      5.025      6.315
REMARK INTER + INTRA:          -8.148
REMARK INTER:                  -8.148
REMARK INTRA:                   0.000
REMARK UNBOUND:                 0.000
ROOT
REMARK  Name = menadione sodium bisulfite
REMARK                            x       y       z     vdW  Elec       q    Type
REMARK                         _______ _______ _______ _____ _____    ______ ____
ATOM      1  C   UNL     1      60.077  64.203  70.091  0.00  0.00    +0.000 C 
ATOM      2  C   UNL     1      60.218  64.315  70.897  0.00  0.00    +0.000 C 
ATOM      3  C   UNL     1      60.222  64.672  71.641  0.00  0.00    +0.000 C 
ATOM      4  C   UNL     1      60.571  64.287  72.281  0.00  0.00    +0.000 C 
ATOM      5  O   UNL     1      60.574  64.643  73.025  0.00  0.00    +0.000 OA
ATOM      6  C   UNL     1      60.916  63.545  72.178  0.00  0.00    +0.000 A 
ATOM      7  C   UNL     1      61.265  63.159  72.818  0.00  0.00    +0.000 A 
ATOM      8  C   UNL     1      61.610  62.417  72.715  0.00  0.00    +0.000 A 
ATOM      9  C   UNL     1      61.606  62.060  71.970  0.00  0.00    +0.000 A 
ATOM     10  C   UNL     1      61.258  62.446  71.331  0.00  0.00    +0.000 A 
ATOM     11  C   UNL     1      60.912  63.188  71.433  0.00  0.00    +0.000 A 
ATOM     12  C   UNL     1      60.563  63.573  70.793  0.00  0.00    +0.000 C 
ATOM     13  O   UNL     1      60.560  63.217  70.050  0.00  0.00    +0.000 OA
ATOM     14  S   UNL     1      59.824  65.019  70.721  0.00  0.00    +0.000 S 
ATOM     15  O   UNL     1      59.430  65.721  70.545  0.00  0.00    +0.000 OA
ATOM     16  O   UNL     1      59.897  65.257  71.507  0.00  0.00    +0.000 OA
ATOM     17  O   UNL     1      59.751  64.780  69.934  0.00  0.00    +0.000 OA
ENDROOT
TORSDOF 0
ENDMDL
MODEL 6
REMARK VINA RESULT:    -8.128      5.229      6.310
REMARK INTER + INTRA:          -8.128
REMARK INTER:                  -8.128
REMARK INTRA:                   0.000
REMARK UNBOUND:                 0.000
ROOT
REMARK  Name = menadione sodium bisulfite
REMARK                            x       y       z     vdW  Elec       q    Type
REMARK                         _______ _______ _______ _____ _____    ______ ____
ATOM      1  C   UNL     1      60.048  65.135  72.064  0.00  0.00    +0.000 C 
ATOM      2  C   UNL     1      60.178  64.524  71.524  0.00  0.00    +0.000 C 
ATOM      3  C   UNL     1      60.164  64.097  70.817  0.00  0.00    +0.000 C 
ATOM      4  C   UNL     1      60.518  63.354  70.777  0.00  0.00    +0.000 C 
ATOM      5  O   UNL     1      60.504  62.928  70.071  0.00  0.00    +0.000 OA
ATOM      6  C   UNL     1      60.887  63.037  71.443  0.00  0.00    +0.000 A 
ATOM      7  C   UNL     1      61.242  62.293  71.403  0.00  0.00    +0.000 A 
ATOM      8  C   UNL     1      61.611  61.976  72.069  0.00  0.00    +0.000 A 
ATOM      9  C   UNL     1      61.625  62.403  72.776  0.00  0.00    +0.000 A 
ATOM     10  C   UNL     1      61.271  63.146  72.816  0.00  0.00    +0.000 A 
ATOM     11  C   UNL     1      60.901  63.464  72.150  0.00  0.00    +0.000 A 
ATOM     12  C   UNL     1      60.547  64.207  72.190  0.00  0.00    +0.000 C 
ATOM     13  O   UNL     1      60.561  64.633  72.896  0.00  0.00    +0.000 OA
ATOM     14  S   UNL     1      59.764  65.054  71.045  0.00  0.00    +0.000 S 
ATOM     15  O   UNL     1      59.350  65.583  70.567  0.00  0.00    +0.000 OA
ATOM     16  O   UNL     1      59.822  64.528  70.412  0.00  0.00    +0.000 OA
ATOM     17  O   UNL     1      59.705  65.580  71.678  0.00  0.00    +0.000 OA
ENDROOT
TORSDOF 0
ENDMDL
MODEL 7
REMARK VINA RESULT:    -8.080      4.193      5.389
REMARK INTER + INTRA:          -8.080
REMARK INTER:                  -8.080
REMARK INTRA:                   0.000
REMARK UNBOUND:                 0.000
ROOT
REMARK  Name = menadione sodium bisulfite
REMARK                            x       y       z     vdW  Elec       q    Type
REMARK                         _______ _______ _______ _____ _____    ______ ____
ATOM      1  C   UNL     1      62.433  64.297  69.588  0.00  0.00    +0.000 C 
ATOM      2  C   UNL     1      62.238  63.955  70.313  0.00  0.00    +0.000 C 
ATOM      3  C   UNL     1      62.227  63.817  71.127  0.00  0.00    +0.000 C 
ATOM      4  C   UNL     1      61.758  63.213  71.436  0.00  0.00    +0.000 C 
ATOM      5  O   UNL     1      61.746  63.075  72.249  0.00  0.00    +0.000 OA
ATOM      6  C   UNL     1      61.301  62.748  70.932  0.00  0.00    +0.000 A 
ATOM      7  C   UNL     1      60.831  62.143  71.241  0.00  0.00    +0.000 A 
ATOM      8  C   UNL     1      60.373  61.678  70.737  0.00  0.00    +0.000 A 
ATOM      9  C   UNL     1      60.385  61.816  69.923  0.00  0.00    +0.000 A 
ATOM     10  C   UNL     1      60.854  62.420  69.614  0.00  0.00    +0.000 A 
ATOM     11  C   UNL     1      61.312  62.886  70.118  0.00  0.00    +0.000 A 
ATOM     12  C   UNL     1      61.781  63.490  69.809  0.00  0.00    +0.000 C 
ATOM     13  O   UNL     1      61.793  63.628  68.996  0.00  0.00    +0.000 OA
ATOM     14  S   UNL     1      62.764  64.540  70.566  0.00  0.00    +0.000 S 
ATOM     15  O   UNL     1      63.289  65.124  70.818  0.00  0.00    +0.000 OA
ATOM     16  O   UNL     1      62.660  64.297  71.347  0.00  0.00    +0.000 OA
ATOM     17  O   UNL     1      62.868  64.783  69.784  0.00  0.00    +0.000 OA
ENDROOT
TORSDOF 0
ENDMDL
MODEL 8
REMARK VINA RESULT:    -7.921      5.704      6.813
REMARK INTER + INTRA:          -7.921
REMARK INTER:                  -7.921
REMARK INTRA:                   0.000
REMARK UNBOUND:                 0.000
ROOT
REMARK  Name = menadione sodium bisulfite
REMARK                            x       y       z     vdW  Elec       q    Type
REMARK                         _______ _______ _______ _____ _____    ______ ____
ATOM      1  C   UNL     1      62.492  65.928  72.237  0.00  0.00    +0.000 C 
ATOM      2  C   UNL     1      62.519  65.330  71.669  0.00  0.00    +0.000 C 
ATOM      3  C   UNL     1      62.674  64.944  70.955  0.00  0.00    +0.000 C 
ATOM      4  C   UNL     1      62.453  64.156  70.857  0.00  0.00    +0.000 C 
ATOM      5  O   UNL     1      62.608  63.770  70.144  0.00  0.00    +0.000 OA
ATOM      6  C   UNL     1      62.077  63.753  71.470  0.00  0.00    +0.000 A 
ATOM      7  C   UNL     1      61.856  62.964  71.371  0.00  0.00    +0.000 A 
ATOM      8  C   UNL     1      61.480  62.561  71.985  0.00  0.00    +0.000 A 
ATOM      9  C   UNL     1      61.325  62.947  72.698  0.00  0.00    +0.000 A 
ATOM     10  C   UNL     1      61.546  63.735  72.797  0.00  0.00    +0.000 A 
ATOM     11  C   UNL     1      61.922  64.139  72.183  0.00  0.00    +0.000 A 
ATOM     12  C   UNL     1      62.143  64.927  72.282  0.00  0.00    +0.000 C 
ATOM     13  O   UNL     1      61.988  65.312  72.995  0.00  0.00    +0.000 OA
ATOM     14  S   UNL     1      62.886  65.940  71.252  0.00  0.00    +0.000 S 
ATOM     15  O   UNL     1      63.252  66.551  70.836  0.00  0.00    +0.000 OA
ATOM     16  O   UNL     1      62.979  65.442  70.602  0.00  0.00    +0.000 OA
ATOM     17  O   UNL     1      62.793  66.440  71.903  0.00  0.00    +0.000 OA
ENDROOT
TORSDOF 0
ENDMDL
MODEL 9
REMARK VINA RESULT:    -7.802      7.370      8.273
REMARK INTER + INTRA:          -7.802
REMARK INTER:                  -7.802
REMARK INTRA:                   0.000
REMARK UNBOUND:                 0.000
ROOT
REMARK  Name = menadione sodium bisulfite
REMARK                            x       y       z     vdW  Elec       q    Type
REMARK                         _______ _______ _______ _____ _____    ______ ____
ATOM      1  C   UNL     1      62.632  68.011  72.872  0.00  0.00    +0.000 C 
ATOM      2  C   UNL     1      62.678  67.257  72.541  0.00  0.00    +0.000 C 
ATOM      3  C   UNL     1      62.455  66.495  72.312  0.00  0.00    +0.000 C 
ATOM      4  C   UNL     1      62.987  66.015  71.905  0.00  0.00    +0.000 C 
ATOM      5  O   UNL     1      62.765  65.254  71.677  0.00  0.00    +0.000 OA
ATOM      6  C   UNL     1      63.742  66.295  71.726  0.00  0.00    +0.000 A 
ATOM      7  C   UNL     1      64.275  65.815  71.318  0.00  0.00    +0.000 A 
ATOM      8  C   UNL     1      65.029  66.095  71.138  0.00  0.00    +0.000 A 
ATOM      9  C   UNL     1      65.252  66.857  71.367  0.00  0.00    +0.000 A 
ATOM     10  C   UNL     1      64.720  67.337  71.774  0.00  0.00    +0.000 A 
ATOM     11  C   UNL     1      63.964  67.057  71.954  0.00  0.00    +0.000 A 
ATOM     12  C   UNL     1      63.432  67.537  72.362  0.00  0.00    +0.000 C 
ATOM     13  O   UNL     1      63.655  68.298  72.590  0.00  0.00    +0.000 OA
ATOM     14  S   UNL     1      61.907  67.238  72.835  0.00  0.00    +0.000 S 
ATOM     15  O   UNL     1      61.137  67.220  73.130  0.00  0.00    +0.000 OA
ATOM     16  O   UNL     1      61.817  66.469  72.552  0.00  0.00    +0.000 OA
ATOM     17  O   UNL     1      61.997  68.008  73.119  0.00  0.00    +0.000 OA
ENDROOT
TORSDOF 0
ENDMDL
