MODEL 1
REMARK VINA RESULT:   -10.726      0.000      0.000
REMARK INTER + INTRA:         -10.726
REMARK INTER:                 -10.726
REMARK INTRA:                   0.000
REMARK UNBOUND:                 0.000
ROOT
REMARK  Name = menadiol sulfate
REMARK                            x       y       z     vdW  Elec       q    Type
REMARK                         _______ _______ _______ _____ _____    ______ ____
ATOM      1  C   UNL     1      59.012  62.008  66.498  0.00  0.00    +0.000 C 
ATOM      2  C   UNL     1      59.721  61.975  66.078  0.00  0.00    +0.000 A 
ATOM      3  C   UNL     1      59.751  61.586  65.350  0.00  0.00    +0.000 A 
ATOM      4  C   UNL     1      60.460  61.553  64.929  0.00  0.00    +0.000 A 
ATOM      5  O   UNL     1      60.490  61.165  64.202  0.00  0.00    +0.000 OA
ATOM      6  S   UNL     1      61.198  61.131  63.781  0.00  0.00    +0.000 S 
ATOM      7  O   UNL     1      61.908  61.098  63.361  0.00  0.00    +0.000 OA
ATOM      8  O   UNL     1      60.824  60.703  63.184  0.00  0.00    +0.000 OA
ATOM      9  O   UNL     1      61.573  61.560  64.378  0.00  0.00    +0.000 OA
ATOM     10  C   UNL     1      61.138  61.907  65.236  0.00  0.00    +0.000 A 
ATOM     11  C   UNL     1      61.848  61.874  64.816  0.00  0.00    +0.000 A 
ATOM     12  C   UNL     1      62.526  62.228  65.122  0.00  0.00    +0.000 A 
ATOM     13  C   UNL     1      62.496  62.617  65.850  0.00  0.00    +0.000 A 
ATOM     14  C   UNL     1      61.787  62.650  66.271  0.00  0.00    +0.000 A 
ATOM     15  C   UNL     1      61.108  62.296  65.964  0.00  0.00    +0.000 A 
ATOM     16  C   UNL     1      60.400  62.329  66.384  0.00  0.00    +0.000 A 
ATOM     17  O   UNL     1      60.370  62.717  67.112  0.00  0.00    +0.000 OA
ATOM     18  S   UNL     1      61.048  63.071  67.419  0.00  0.00    +0.000 S 
ATOM     19  O   UNL     1      61.727  63.426  67.726  0.00  0.00    +0.000 OA
ATOM     20  O   UNL     1      60.622  63.315  68.082  0.00  0.00    +0.000 OA
ATOM     21  O   UNL     1      61.475  62.828  66.756  0.00  0.00    +0.000 OA
ENDROOT
TORSDOF 0
ENDMDL
MODEL 2
REMARK VINA RESULT:   -10.223      0.620      3.623
REMARK INTER + INTRA:         -10.223
REMARK INTER:                 -10.223
REMARK INTRA:                   0.000
REMARK UNBOUND:                 0.000
ROOT
REMARK  Name = menadiol sulfate
REMARK                            x       y       z     vdW  Elec       q    Type
REMARK                         _______ _______ _______ _____ _____    ______ ____
ATOM      1  C   UNL     1      62.718  62.346  65.263  0.00  0.00    +0.000 C 
ATOM      2  C   UNL     1      62.014  62.403  65.690  0.00  0.00    +0.000 A 
ATOM      3  C   UNL     1      61.987  62.854  66.382  0.00  0.00    +0.000 A 
ATOM      4  C   UNL     1      61.284  62.910  66.809  0.00  0.00    +0.000 A 
ATOM      5  O   UNL     1      61.257  63.361  67.500  0.00  0.00    +0.000 OA
ATOM      6  S   UNL     1      60.554  63.418  67.928  0.00  0.00    +0.000 S 
ATOM      7  O   UNL     1      59.851  63.475  68.355  0.00  0.00    +0.000 OA
ATOM      8  O   UNL     1      60.928  63.905  68.478  0.00  0.00    +0.000 OA
ATOM      9  O   UNL     1      60.179  62.931  67.377  0.00  0.00    +0.000 OA
ATOM     10  C   UNL     1      60.609  62.517  66.547  0.00  0.00    +0.000 A 
ATOM     11  C   UNL     1      59.905  62.574  66.974  0.00  0.00    +0.000 A 
ATOM     12  C   UNL     1      59.230  62.181  66.712  0.00  0.00    +0.000 A 
ATOM     13  C   UNL     1      59.257  61.730  66.020  0.00  0.00    +0.000 A 
ATOM     14  C   UNL     1      59.960  61.673  65.593  0.00  0.00    +0.000 A 
ATOM     15  C   UNL     1      60.636  62.066  65.855  0.00  0.00    +0.000 A 
ATOM     16  C   UNL     1      61.339  62.009  65.428  0.00  0.00    +0.000 A 
ATOM     17  O   UNL     1      61.366  61.559  64.737  0.00  0.00    +0.000 OA
ATOM     18  S   UNL     1      60.691  61.165  64.474  0.00  0.00    +0.000 S 
ATOM     19  O   UNL     1      60.014  60.772  64.212  0.00  0.00    +0.000 OA
ATOM     20  O   UNL     1      61.112  60.872  63.829  0.00  0.00    +0.000 OA
ATOM     21  O   UNL     1      60.269  61.458  65.120  0.00  0.00    +0.000 OA
ENDROOT
TORSDOF 0
ENDMDL
MODEL 3
REMARK VINA RESULT:    -9.581      3.205      4.316
REMARK INTER + INTRA:          -9.581
REMARK INTER:                  -9.581
REMARK INTRA:                   0.000
REMARK UNBOUND:                 0.000
ROOT
REMARK  Name = menadiol sulfate
REMARK                            x       y       z     vdW  Elec       q    Type
REMARK                         _______ _______ _______ _____ _____    ______ ____
ATOM      1  C   UNL     1      60.501  61.443  70.968  0.00  0.00    +0.000 C 
ATOM      2  C   UNL     1      60.480  62.002  70.362  0.00  0.00    +0.000 A 
ATOM      3  C   UNL     1      60.481  61.757  69.574  0.00  0.00    +0.000 A 
ATOM      4  C   UNL     1      60.460  62.315  68.968  0.00  0.00    +0.000 A 
ATOM      5  O   UNL     1      60.460  62.070  68.180  0.00  0.00    +0.000 OA
ATOM      6  S   UNL     1      60.439  62.628  67.574  0.00  0.00    +0.000 S 
ATOM      7  O   UNL     1      60.418  63.188  66.968  0.00  0.00    +0.000 OA
ATOM      8  O   UNL     1      60.451  62.023  67.015  0.00  0.00    +0.000 OA
ATOM      9  O   UNL     1      60.426  63.235  68.134  0.00  0.00    +0.000 OA
ATOM     10  C   UNL     1      60.438  63.119  69.149  0.00  0.00    +0.000 A 
ATOM     11  C   UNL     1      60.417  63.679  68.543  0.00  0.00    +0.000 A 
ATOM     12  C   UNL     1      60.396  64.483  68.724  0.00  0.00    +0.000 A 
ATOM     13  C   UNL     1      60.396  64.729  69.513  0.00  0.00    +0.000 A 
ATOM     14  C   UNL     1      60.417  64.170  70.118  0.00  0.00    +0.000 A 
ATOM     15  C   UNL     1      60.438  63.365  69.938  0.00  0.00    +0.000 A 
ATOM     16  C   UNL     1      60.459  62.806  70.543  0.00  0.00    +0.000 A 
ATOM     17  O   UNL     1      60.459  63.052  71.331  0.00  0.00    +0.000 OA
ATOM     18  S   UNL     1      60.438  63.856  71.513  0.00  0.00    +0.000 S 
ATOM     19  O   UNL     1      60.417  64.661  71.694  0.00  0.00    +0.000 OA
ATOM     20  O   UNL     1      60.450  63.675  72.317  0.00  0.00    +0.000 OA
ATOM     21  O   UNL     1      60.426  64.037  70.708  0.00  0.00    +0.000 OA
ENDROOT
TORSDOF 0
ENDMDL
MODEL 4
REMARK VINA RESULT:    -9.554      3.804      5.904
REMARK INTER + INTRA:          -9.554
REMARK INTER:                  -9.554
REMARK INTRA:                   0.000
REMARK UNBOUND:                 0.000
ROOT
REMARK  Name = menadiol sulfate
REMARK                            x       y       z     vdW  Elec       q    Type
REMARK                         _______ _______ _______ _____ _____    ______ ____
ATOM      1  C   UNL     1      60.689  61.536  70.715  0.00  0.00    +0.000 C 
ATOM      2  C   UNL     1      60.487  62.334  70.657  0.00  0.00    +0.000 A 
ATOM      3  C   UNL     1      60.287  62.759  71.337  0.00  0.00    +0.000 A 
ATOM      4  C   UNL     1      60.085  63.556  71.280  0.00  0.00    +0.000 A 
ATOM      5  O   UNL     1      59.884  63.980  71.958  0.00  0.00    +0.000 OA
ATOM      6  S   UNL     1      59.682  64.778  71.902  0.00  0.00    +0.000 S 
ATOM      7  O   UNL     1      59.480  65.576  71.844  0.00  0.00    +0.000 OA
ATOM      8  O   UNL     1      59.568  64.807  72.718  0.00  0.00    +0.000 OA
ATOM      9  O   UNL     1      59.797  64.749  71.085  0.00  0.00    +0.000 OA
ATOM     10  C   UNL     1      60.083  63.929  70.545  0.00  0.00    +0.000 A 
ATOM     11  C   UNL     1      59.880  64.727  70.487  0.00  0.00    +0.000 A 
ATOM     12  C   UNL     1      59.878  65.101  69.752  0.00  0.00    +0.000 A 
ATOM     13  C   UNL     1      60.079  64.676  69.073  0.00  0.00    +0.000 A 
ATOM     14  C   UNL     1      60.281  63.879  69.130  0.00  0.00    +0.000 A 
ATOM     15  C   UNL     1      60.283  63.504  69.865  0.00  0.00    +0.000 A 
ATOM     16  C   UNL     1      60.485  62.707  69.922  0.00  0.00    +0.000 A 
ATOM     17  O   UNL     1      60.685  62.283  69.244  0.00  0.00    +0.000 OA
ATOM     18  S   UNL     1      60.683  62.656  68.508  0.00  0.00    +0.000 S 
ATOM     19  O   UNL     1      60.681  63.030  67.773  0.00  0.00    +0.000 OA
ATOM     20  O   UNL     1      60.915  61.951  68.149  0.00  0.00    +0.000 OA
ATOM     21  O   UNL     1      60.451  63.362  68.867  0.00  0.00    +0.000 OA
ENDROOT
TORSDOF 0
ENDMDL
MODEL 5
REMARK VINA RESULT:    -9.466      3.800      5.788
REMARK INTER + INTRA:          -9.466
REMARK INTER:                  -9.466
REMARK INTRA:                   0.000
REMARK UNBOUND:                 0.000
ROOT
REMARK  Name = menadiol sulfate
REMARK                            x       y       z     vdW  Elec       q    Type
REMARK                         _______ _______ _______ _____ _____    ______ ____
ATOM      1  C   UNL     1      59.957  65.040  69.053  0.00  0.00    +0.000 C 
ATOM      2  C   UNL     1      60.149  64.446  69.592  0.00  0.00    +0.000 A 
ATOM      3  C   UNL     1      60.280  64.636  70.385  0.00  0.00    +0.000 A 
ATOM      4  C   UNL     1      60.472  64.042  70.924  0.00  0.00    +0.000 A 
ATOM      5  O   UNL     1      60.602  64.232  71.717  0.00  0.00    +0.000 OA
ATOM      6  S   UNL     1      60.794  63.639  72.257  0.00  0.00    +0.000 S 
ATOM      7  O   UNL     1      60.987  63.044  72.796  0.00  0.00    +0.000 OA
ATOM      8  O   UNL     1      60.834  64.199  72.860  0.00  0.00    +0.000 OA
ATOM      9  O   UNL     1      60.755  63.077  71.653  0.00  0.00    +0.000 OA
ATOM     10  C   UNL     1      60.533  63.260  70.672  0.00  0.00    +0.000 A 
ATOM     11  C   UNL     1      60.726  62.666  71.212  0.00  0.00    +0.000 A 
ATOM     12  C   UNL     1      60.787  61.883  70.959  0.00  0.00    +0.000 A 
ATOM     13  C   UNL     1      60.656  61.694  70.166  0.00  0.00    +0.000 A 
ATOM     14  C   UNL     1      60.464  62.287  69.627  0.00  0.00    +0.000 A 
ATOM     15  C   UNL     1      60.403  63.070  69.879  0.00  0.00    +0.000 A 
ATOM     16  C   UNL     1      60.211  63.664  69.340  0.00  0.00    +0.000 A 
ATOM     17  O   UNL     1      60.080  63.474  68.547  0.00  0.00    +0.000 OA
ATOM     18  S   UNL     1      60.142  62.692  68.294  0.00  0.00    +0.000 S 
ATOM     19  O   UNL     1      60.203  61.908  68.042  0.00  0.00    +0.000 OA
ATOM     20  O   UNL     1      59.955  62.925  67.526  0.00  0.00    +0.000 OA
ATOM     21  O   UNL     1      60.328  62.458  69.064  0.00  0.00    +0.000 OA
ENDROOT
TORSDOF 0
ENDMDL
MODEL 6
REMARK VINA RESULT:    -9.435      3.720      5.050
REMARK INTER + INTRA:          -9.435
REMARK INTER:                  -9.435
REMARK INTRA:                   0.000
REMARK UNBOUND:                 0.000
ROOT
REMARK  Name = menadiol sulfate
REMARK                            x       y       z     vdW  Elec       q    Type
REMARK                         _______ _______ _______ _____ _____    ______ ____
ATOM      1  C   UNL     1      62.738  64.820  70.669  0.00  0.00    +0.000 C 
ATOM      2  C   UNL     1      62.252  64.220  70.377  0.00  0.00    +0.000 A 
ATOM      3  C   UNL     1      62.154  64.129  69.562  0.00  0.00    +0.000 A 
ATOM      4  C   UNL     1      61.668  63.530  69.269  0.00  0.00    +0.000 A 
ATOM      5  O   UNL     1      61.570  63.439  68.455  0.00  0.00    +0.000 OA
ATOM      6  S   UNL     1      61.085  62.840  68.162  0.00  0.00    +0.000 S 
ATOM      7  O   UNL     1      60.599  62.240  67.870  0.00  0.00    +0.000 OA
ATOM      8  O   UNL     1      61.252  63.080  67.392  0.00  0.00    +0.000 OA
ATOM      9  O   UNL     1      60.917  62.599  68.934  0.00  0.00    +0.000 OA
ATOM     10  C   UNL     1      61.281  63.022  69.790  0.00  0.00    +0.000 A 
ATOM     11  C   UNL     1      60.795  62.422  69.499  0.00  0.00    +0.000 A 
ATOM     12  C   UNL     1      60.407  61.915  70.019  0.00  0.00    +0.000 A 
ATOM     13  C   UNL     1      60.505  62.006  70.835  0.00  0.00    +0.000 A 
ATOM     14  C   UNL     1      60.990  62.605  71.127  0.00  0.00    +0.000 A 
ATOM     15  C   UNL     1      61.379  63.113  70.606  0.00  0.00    +0.000 A 
ATOM     16  C   UNL     1      61.864  63.712  70.898  0.00  0.00    +0.000 A 
ATOM     17  O   UNL     1      61.962  63.803  71.712  0.00  0.00    +0.000 OA
ATOM     18  S   UNL     1      61.574  63.296  72.234  0.00  0.00    +0.000 S 
ATOM     19  O   UNL     1      61.186  62.787  72.755  0.00  0.00    +0.000 OA
ATOM     20  O   UNL     1      61.911  63.694  72.872  0.00  0.00    +0.000 OA
ATOM     21  O   UNL     1      61.237  62.897  71.594  0.00  0.00    +0.000 OA
ENDROOT
TORSDOF 0
ENDMDL
MODEL 7
REMARK VINA RESULT:    -9.336      5.990      7.442
REMARK INTER + INTRA:          -9.336
REMARK INTER:                  -9.336
REMARK INTRA:                   0.000
REMARK UNBOUND:                 0.000
ROOT
REMARK  Name = menadiol sulfate
REMARK                            x       y       z     vdW  Elec       q    Type
REMARK                         _______ _______ _______ _____ _____    ______ ____
ATOM      1  C   UNL     1      62.666  66.303  72.652  0.00  0.00    +0.000 C 
ATOM      2  C   UNL     1      63.184  66.195  72.019  0.00  0.00    +0.000 A 
ATOM      3  C   UNL     1      63.768  66.757  71.863  0.00  0.00    +0.000 A 
ATOM      4  C   UNL     1      64.286  66.650  71.231  0.00  0.00    +0.000 A 
ATOM      5  O   UNL     1      64.869  67.211  71.076  0.00  0.00    +0.000 OA
ATOM      6  S   UNL     1      65.388  67.105  70.443  0.00  0.00    +0.000 S 
ATOM      7  O   UNL     1      65.906  66.997  69.810  0.00  0.00    +0.000 OA
ATOM      8  O   UNL     1      65.763  67.815  70.629  0.00  0.00    +0.000 OA
ATOM      9  O   UNL     1      65.012  66.393  70.256  0.00  0.00    +0.000 OA
ATOM     10  C   UNL     1      64.220  65.981  70.753  0.00  0.00    +0.000 A 
ATOM     11  C   UNL     1      64.738  65.873  70.120  0.00  0.00    +0.000 A 
ATOM     12  C   UNL     1      64.672  65.204  69.642  0.00  0.00    +0.000 A 
ATOM     13  C   UNL     1      64.088  64.642  69.798  0.00  0.00    +0.000 A 
ATOM     14  C   UNL     1      63.570  64.749  70.430  0.00  0.00    +0.000 A 
ATOM     15  C   UNL     1      63.636  65.418  70.909  0.00  0.00    +0.000 A 
ATOM     16  C   UNL     1      63.118  65.526  71.541  0.00  0.00    +0.000 A 
ATOM     17  O   UNL     1      62.534  64.964  71.696  0.00  0.00    +0.000 OA
ATOM     18  S   UNL     1      62.468  64.295  71.219  0.00  0.00    +0.000 S 
ATOM     19  O   UNL     1      62.403  63.625  70.740  0.00  0.00    +0.000 OA
ATOM     20  O   UNL     1      61.832  64.032  71.673  0.00  0.00    +0.000 OA
ATOM     21  O   UNL     1      63.105  64.557  70.763  0.00  0.00    +0.000 OA
ENDROOT
TORSDOF 0
ENDMDL
MODEL 8
REMARK VINA RESULT:    -9.328      4.336      6.014
REMARK INTER + INTRA:          -9.328
REMARK INTER:                  -9.328
REMARK INTRA:                   0.000
REMARK UNBOUND:                 0.000
ROOT
REMARK  Name = menadiol sulfate
REMARK                            x       y       z     vdW  Elec       q    Type
REMARK                         _______ _______ _______ _____ _____    ______ ____
ATOM      1  C   UNL     1      61.262  62.746  72.574  0.00  0.00    +0.000 C 
ATOM      2  C   UNL     1      61.550  63.159  71.920  0.00  0.00    +0.000 A 
ATOM      3  C   UNL     1      62.061  63.799  72.029  0.00  0.00    +0.000 A 
ATOM      4  C   UNL     1      62.350  64.211  71.376  0.00  0.00    +0.000 A 
ATOM      5  O   UNL     1      62.860  64.850  71.485  0.00  0.00    +0.000 OA
ATOM      6  S   UNL     1      63.150  65.263  70.832  0.00  0.00    +0.000 S 
ATOM      7  O   UNL     1      63.439  65.675  70.179  0.00  0.00    +0.000 OA
ATOM      8  O   UNL     1      63.571  65.763  71.334  0.00  0.00    +0.000 OA
ATOM      9  O   UNL     1      62.727  64.763  70.329  0.00  0.00    +0.000 OA
ATOM     10  C   UNL     1      62.130  63.985  70.615  0.00  0.00    +0.000 A 
ATOM     11  C   UNL     1      62.419  64.397  69.961  0.00  0.00    +0.000 A 
ATOM     12  C   UNL     1      62.198  64.170  69.200  0.00  0.00    +0.000 A 
ATOM     13  C   UNL     1      61.687  63.530  69.091  0.00  0.00    +0.000 A 
ATOM     14  C   UNL     1      61.398  63.118  69.744  0.00  0.00    +0.000 A 
ATOM     15  C   UNL     1      61.619  63.344  70.506  0.00  0.00    +0.000 A 
ATOM     16  C   UNL     1      61.330  62.932  71.159  0.00  0.00    +0.000 A 
ATOM     17  O   UNL     1      60.820  62.293  71.050  0.00  0.00    +0.000 OA
ATOM     18  S   UNL     1      60.599  62.066  70.289  0.00  0.00    +0.000 S 
ATOM     19  O   UNL     1      60.378  61.840  69.527  0.00  0.00    +0.000 OA
ATOM     20  O   UNL     1      60.138  61.459  70.603  0.00  0.00    +0.000 OA
ATOM     21  O   UNL     1      61.061  62.674  69.974  0.00  0.00    +0.000 OA
ENDROOT
TORSDOF 0
ENDMDL
MODEL 9
REMARK VINA RESULT:    -9.167      4.419      6.418
REMARK INTER + INTRA:          -9.167
REMARK INTER:                  -9.167
REMARK INTRA:                   0.000
REMARK UNBOUND:                 0.000
ROOT
REMARK  Name = menadiol sulfate
REMARK                            x       y       z     vdW  Elec       q    Type
REMARK                         _______ _______ _______ _____ _____    ______ ____
ATOM      1  C   UNL     1      61.722  63.658  68.763  0.00  0.00    +0.000 C 
ATOM      2  C   UNL     1      61.750  63.767  69.580  0.00  0.00    +0.000 A 
ATOM      3  C   UNL     1      62.154  64.413  69.897  0.00  0.00    +0.000 A 
ATOM      4  C   UNL     1      62.182  64.522  70.714  0.00  0.00    +0.000 A 
ATOM      5  O   UNL     1      62.587  65.168  71.030  0.00  0.00    +0.000 OA
ATOM      6  S   UNL     1      62.615  65.278  71.847  0.00  0.00    +0.000 S 
ATOM      7  O   UNL     1      62.643  65.386  72.665  0.00  0.00    +0.000 OA
ATOM      8  O   UNL     1      63.065  65.960  71.741  0.00  0.00    +0.000 OA
ATOM      9  O   UNL     1      62.164  64.594  71.954  0.00  0.00    +0.000 OA
ATOM     10  C   UNL     1      61.807  63.986  71.214  0.00  0.00    +0.000 A 
ATOM     11  C   UNL     1      61.835  64.094  72.032  0.00  0.00    +0.000 A 
ATOM     12  C   UNL     1      61.459  63.558  72.533  0.00  0.00    +0.000 A 
ATOM     13  C   UNL     1      61.054  62.911  72.216  0.00  0.00    +0.000 A 
ATOM     14  C   UNL     1      61.026  62.802  71.399  0.00  0.00    +0.000 A 
ATOM     15  C   UNL     1      61.402  63.339  70.898  0.00  0.00    +0.000 A 
ATOM     16  C   UNL     1      61.374  63.230  70.081  0.00  0.00    +0.000 A 
ATOM     17  O   UNL     1      60.970  62.584  69.765  0.00  0.00    +0.000 OA
ATOM     18  S   UNL     1      60.594  62.047  70.265  0.00  0.00    +0.000 S 
ATOM     19  O   UNL     1      60.218  61.510  70.767  0.00  0.00    +0.000 OA
ATOM     20  O   UNL     1      60.344  61.611  69.611  0.00  0.00    +0.000 OA
ATOM     21  O   UNL     1      60.843  62.483  70.920  0.00  0.00    +0.000 OA
ENDROOT
TORSDOF 0
ENDMDL
