MODEL 1
REMARK VINA RESULT:    -8.325      0.000      0.000
REMARK INTER + INTRA:          -8.325
REMARK INTER:                  -8.325
REMARK INTRA:                   0.000
REMARK UNBOUND:                 0.000
ROOT
REMARK  Name = mephenoxalone
REMARK                            x       y       z     vdW  Elec       q    Type
REMARK                         _______ _______ _______ _____ _____    ______ ____
ATOM      1  C   UNL     1      62.168  64.208  68.895  0.00  0.00    +0.000 C 
ATOM      2  O   UNL     1      61.938  63.660  68.323  0.00  0.00    +0.000 OA
ATOM      3  C   UNL     1      61.394  63.070  68.510  0.00  0.00    +0.000 A 
ATOM      4  C   UNL     1      61.164  62.522  67.938  0.00  0.00    +0.000 A 
ATOM      5  O   UNL     1      61.479  62.566  67.176  0.00  0.00    +0.000 OA
ATOM      6  C   UNL     1      61.250  62.019  66.603  0.00  0.00    +0.000 C 
ATOM      7  C   UNL     1      61.565  62.062  65.842  0.00  0.00    +0.000 C 
ATOM      8  C   UNL     1      62.110  62.619  65.574  0.00  0.00    +0.000 C 
ATOM      9  N   UNL     1      62.272  62.458  64.781  0.00  0.00    +0.000 NA
ATOM     10  C   UNL     1      61.825  61.800  64.559  0.00  0.00    +0.000 C 
ATOM     11  O   UNL     1      61.817  61.449  63.812  0.00  0.00    +0.000 OA
ATOM     12  O   UNL     1      61.387  61.556  65.215  0.00  0.00    +0.000 OA
ATOM     13  C   UNL     1      60.621  61.932  68.126  0.00  0.00    +0.000 A 
ATOM     14  C   UNL     1      60.306  61.888  68.887  0.00  0.00    +0.000 A 
ATOM     15  C   UNL     1      60.535  62.435  69.460  0.00  0.00    +0.000 A 
ATOM     16  C   UNL     1      61.080  63.027  69.272  0.00  0.00    +0.000 A 
ENDROOT
TORSDOF 0
ENDMDL
MODEL 2
REMARK VINA RESULT:    -8.233      1.410      4.116
REMARK INTER + INTRA:          -8.233
REMARK INTER:                  -8.233
REMARK INTRA:                   0.000
REMARK UNBOUND:                 0.000
ROOT
REMARK  Name = mephenoxalone
REMARK                            x       y       z     vdW  Elec       q    Type
REMARK                         _______ _______ _______ _____ _____    ______ ____
ATOM      1  C   UNL     1      60.196  60.739  64.490  0.00  0.00    +0.000 C 
ATOM      2  O   UNL     1      60.528  61.193  65.094  0.00  0.00    +0.000 OA
ATOM      3  C   UNL     1      61.237  61.595  64.967  0.00  0.00    +0.000 A 
ATOM      4  C   UNL     1      61.569  62.048  65.571  0.00  0.00    +0.000 A 
ATOM      5  O   UNL     1      61.191  62.100  66.303  0.00  0.00    +0.000 OA
ATOM      6  C   UNL     1      61.522  62.554  66.907  0.00  0.00    +0.000 C 
ATOM      7  C   UNL     1      61.144  62.605  67.639  0.00  0.00    +0.000 C 
ATOM      8  C   UNL     1      60.436  62.236  67.845  0.00  0.00    +0.000 C 
ATOM      9  N   UNL     1      60.262  62.438  68.626  0.00  0.00    +0.000 NA
ATOM     10  C   UNL     1      60.863  62.932  68.902  0.00  0.00    +0.000 C 
ATOM     11  O   UNL     1      60.910  63.265  69.656  0.00  0.00    +0.000 OA
ATOM     12  O   UNL     1      61.408  63.036  68.291  0.00  0.00    +0.000 OA
ATOM     13  C   UNL     1      62.277  62.450  65.444  0.00  0.00    +0.000 A 
ATOM     14  C   UNL     1      62.655  62.398  64.713  0.00  0.00    +0.000 A 
ATOM     15  C   UNL     1      62.325  61.945  64.108  0.00  0.00    +0.000 A 
ATOM     16  C   UNL     1      61.615  61.543  64.236  0.00  0.00    +0.000 A 
ENDROOT
TORSDOF 0
ENDMDL
MODEL 3
REMARK VINA RESULT:    -7.868      1.350      1.956
REMARK INTER + INTRA:          -7.868
REMARK INTER:                  -7.868
REMARK INTRA:                   0.000
REMARK UNBOUND:                 0.000
ROOT
REMARK  Name = mephenoxalone
REMARK                            x       y       z     vdW  Elec       q    Type
REMARK                         _______ _______ _______ _____ _____    ______ ____
ATOM      1  C   UNL     1      60.400  64.702  70.503  0.00  0.00    +0.000 C 
ATOM      2  O   UNL     1      60.517  64.079  69.975  0.00  0.00    +0.000 OA
ATOM      3  C   UNL     1      60.455  63.299  70.236  0.00  0.00    +0.000 A 
ATOM      4  C   UNL     1      60.572  62.676  69.708  0.00  0.00    +0.000 A 
ATOM      5  O   UNL     1      60.750  62.833  68.918  0.00  0.00    +0.000 OA
ATOM      6  C   UNL     1      60.867  62.211  68.389  0.00  0.00    +0.000 C 
ATOM      7  C   UNL     1      61.045  62.368  67.599  0.00  0.00    +0.000 C 
ATOM      8  C   UNL     1      61.124  63.115  67.261  0.00  0.00    +0.000 C 
ATOM      9  N   UNL     1      61.304  63.015  66.461  0.00  0.00    +0.000 NA
ATOM     10  C   UNL     1      61.335  62.205  66.307  0.00  0.00    +0.000 C 
ATOM     11  O   UNL     1      61.498  61.856  65.577  0.00  0.00    +0.000 OA
ATOM     12  O   UNL     1      61.175  61.805  67.011  0.00  0.00    +0.000 OA
ATOM     13  C   UNL     1      60.510  61.897  69.969  0.00  0.00    +0.000 A 
ATOM     14  C   UNL     1      60.331  61.739  70.759  0.00  0.00    +0.000 A 
ATOM     15  C   UNL     1      60.215  62.362  71.288  0.00  0.00    +0.000 A 
ATOM     16  C   UNL     1      60.277  63.142  71.026  0.00  0.00    +0.000 A 
ENDROOT
TORSDOF 0
ENDMDL
MODEL 4
REMARK VINA RESULT:    -7.539      3.991      4.691
REMARK INTER + INTRA:          -7.539
REMARK INTER:                  -7.539
REMARK INTRA:                   0.000
REMARK UNBOUND:                 0.000
ROOT
REMARK  Name = mephenoxalone
REMARK                            x       y       z     vdW  Elec       q    Type
REMARK                         _______ _______ _______ _____ _____    ______ ____
ATOM      1  C   UNL     1      61.112  63.129  72.513  0.00  0.00    +0.000 C 
ATOM      2  O   UNL     1      60.835  63.471  71.815  0.00  0.00    +0.000 OA
ATOM      3  C   UNL     1      60.708  63.004  71.148  0.00  0.00    +0.000 A 
ATOM      4  C   UNL     1      60.430  63.346  70.450  0.00  0.00    +0.000 A 
ATOM      5  O   UNL     1      60.279  64.157  70.421  0.00  0.00    +0.000 OA
ATOM      6  C   UNL     1      60.002  64.500  69.724  0.00  0.00    +0.000 C 
ATOM      7  C   UNL     1      59.851  65.310  69.694  0.00  0.00    +0.000 C 
ATOM      8  C   UNL     1      59.951  65.844  70.314  0.00  0.00    +0.000 C 
ATOM      9  N   UNL     1      59.736  66.593  70.042  0.00  0.00    +0.000 NA
ATOM     10  C   UNL     1      59.502  66.521  69.254  0.00  0.00    +0.000 C 
ATOM     11  O   UNL     1      59.243  67.135  68.767  0.00  0.00    +0.000 OA
ATOM     12  O   UNL     1      59.573  65.728  69.039  0.00  0.00    +0.000 OA
ATOM     13  C   UNL     1      60.303  62.879  69.783  0.00  0.00    +0.000 A 
ATOM     14  C   UNL     1      60.454  62.068  69.813  0.00  0.00    +0.000 A 
ATOM     15  C   UNL     1      60.731  61.725  70.510  0.00  0.00    +0.000 A 
ATOM     16  C   UNL     1      60.858  62.193  71.178  0.00  0.00    +0.000 A 
ENDROOT
TORSDOF 0
ENDMDL
MODEL 5
REMARK VINA RESULT:    -7.271      3.598      5.029
REMARK INTER + INTRA:          -7.271
REMARK INTER:                  -7.271
REMARK INTRA:                   0.000
REMARK UNBOUND:                 0.000
ROOT
REMARK  Name = mephenoxalone
REMARK                            x       y       z     vdW  Elec       q    Type
REMARK                         _______ _______ _______ _____ _____    ______ ____
ATOM      1  C   UNL     1      60.856  62.586  69.804  0.00  0.00    +0.000 C 
ATOM      2  O   UNL     1      61.432  63.087  70.118  0.00  0.00    +0.000 OA
ATOM      3  C   UNL     1      61.457  63.230  70.929  0.00  0.00    +0.000 A 
ATOM      4  C   UNL     1      62.033  63.731  71.243  0.00  0.00    +0.000 A 
ATOM      5  O   UNL     1      62.584  64.089  70.743  0.00  0.00    +0.000 OA
ATOM      6  C   UNL     1      63.160  64.590  71.055  0.00  0.00    +0.000 C 
ATOM      7  C   UNL     1      63.711  64.948  70.556  0.00  0.00    +0.000 C 
ATOM      8  C   UNL     1      63.753  64.857  69.738  0.00  0.00    +0.000 C 
ATOM      9  N   UNL     1      64.385  65.312  69.464  0.00  0.00    +0.000 NA
ATOM     10  C   UNL     1      64.732  65.684  70.113  0.00  0.00    +0.000 C 
ATOM     11  O   UNL     1      65.382  66.192  70.090  0.00  0.00    +0.000 OA
ATOM     12  O   UNL     1      64.315  65.459  70.789  0.00  0.00    +0.000 OA
ATOM     13  C   UNL     1      62.059  63.875  72.054  0.00  0.00    +0.000 A 
ATOM     14  C   UNL     1      61.508  63.517  72.553  0.00  0.00    +0.000 A 
ATOM     15  C   UNL     1      60.932  63.016  72.241  0.00  0.00    +0.000 A 
ATOM     16  C   UNL     1      60.906  62.873  71.429  0.00  0.00    +0.000 A 
ENDROOT
TORSDOF 0
ENDMDL
MODEL 6
REMARK VINA RESULT:    -7.165      4.004      5.876
REMARK INTER + INTRA:          -7.165
REMARK INTER:                  -7.165
REMARK INTRA:                   0.000
REMARK UNBOUND:                 0.000
ROOT
REMARK  Name = mephenoxalone
REMARK                            x       y       z     vdW  Elec       q    Type
REMARK                         _______ _______ _______ _____ _____    ______ ____
ATOM      1  C   UNL     1      62.003  63.875  69.495  0.00  0.00    +0.000 C 
ATOM      2  O   UNL     1      61.395  64.059  70.021  0.00  0.00    +0.000 OA
ATOM      3  C   UNL     1      61.013  63.458  70.438  0.00  0.00    +0.000 A 
ATOM      4  C   UNL     1      60.405  63.641  70.964  0.00  0.00    +0.000 A 
ATOM      5  O   UNL     1      60.179  64.427  71.074  0.00  0.00    +0.000 OA
ATOM      6  C   UNL     1      59.571  64.612  71.601  0.00  0.00    +0.000 C 
ATOM      7  C   UNL     1      59.344  65.398  71.711  0.00  0.00    +0.000 C 
ATOM      8  C   UNL     1      59.673  66.053  71.335  0.00  0.00    +0.000 C 
ATOM      9  N   UNL     1      59.281  66.726  71.608  0.00  0.00    +0.000 NA
ATOM     10  C   UNL     1      58.710  66.485  72.152  0.00  0.00    +0.000 C 
ATOM     11  O   UNL     1      58.191  66.980  72.561  0.00  0.00    +0.000 OA
ATOM     12  O   UNL     1      58.749  65.663  72.216  0.00  0.00    +0.000 OA
ATOM     13  C   UNL     1      60.024  63.041  71.381  0.00  0.00    +0.000 A 
ATOM     14  C   UNL     1      60.251  62.255  71.271  0.00  0.00    +0.000 A 
ATOM     15  C   UNL     1      60.858  62.070  70.745  0.00  0.00    +0.000 A 
ATOM     16  C   UNL     1      61.240  62.672  70.328  0.00  0.00    +0.000 A 
ENDROOT
TORSDOF 0
ENDMDL
MODEL 7
REMARK VINA RESULT:    -7.151      5.196      6.322
REMARK INTER + INTRA:          -7.151
REMARK INTER:                  -7.151
REMARK INTRA:                   0.000
REMARK UNBOUND:                 0.000
ROOT
REMARK  Name = mephenoxalone
REMARK                            x       y       z     vdW  Elec       q    Type
REMARK                         _______ _______ _______ _____ _____    ______ ____
ATOM      1  C   UNL     1      62.173  65.653  72.651  0.00  0.00    +0.000 C 
ATOM      2  O   UNL     1      62.775  65.733  72.093  0.00  0.00    +0.000 OA
ATOM      3  C   UNL     1      62.859  65.174  71.493  0.00  0.00    +0.000 A 
ATOM      4  C   UNL     1      63.461  65.254  70.935  0.00  0.00    +0.000 A 
ATOM      5  O   UNL     1      63.979  65.895  70.976  0.00  0.00    +0.000 OA
ATOM      6  C   UNL     1      64.581  65.976  70.418  0.00  0.00    +0.000 C 
ATOM      7  C   UNL     1      65.099  66.617  70.459  0.00  0.00    +0.000 C 
ATOM      8  C   UNL     1      65.082  67.217  71.024  0.00  0.00    +0.000 C 
ATOM      9  N   UNL     1      65.697  67.741  70.857  0.00  0.00    +0.000 NA
ATOM     10  C   UNL     1      66.094  67.465  70.188  0.00  0.00    +0.000 C 
ATOM     11  O   UNL     1      66.746  67.821  69.829  0.00  0.00    +0.000 OA
ATOM     12  O   UNL     1      65.723  66.769  69.942  0.00  0.00    +0.000 OA
ATOM     13  C   UNL     1      63.546  64.694  70.335  0.00  0.00    +0.000 A 
ATOM     14  C   UNL     1      63.028  64.053  70.294  0.00  0.00    +0.000 A 
ATOM     15  C   UNL     1      62.426  63.972  70.852  0.00  0.00    +0.000 A 
ATOM     16  C   UNL     1      62.342  64.533  71.452  0.00  0.00    +0.000 A 
ENDROOT
TORSDOF 0
ENDMDL
MODEL 8
REMARK VINA RESULT:    -6.989      5.122      6.139
REMARK INTER + INTRA:          -6.989
REMARK INTER:                  -6.989
REMARK INTRA:                   0.000
REMARK UNBOUND:                 0.000
ROOT
REMARK  Name = mephenoxalone
REMARK                            x       y       z     vdW  Elec       q    Type
REMARK                         _______ _______ _______ _____ _____    ______ ____
ATOM      1  C   UNL     1      64.343  67.370  72.076  0.00  0.00    +0.000 C 
ATOM      2  O   UNL     1      63.983  66.670  71.828  0.00  0.00    +0.000 OA
ATOM      3  C   UNL     1      64.205  66.322  71.114  0.00  0.00    +0.000 A 
ATOM      4  C   UNL     1      63.844  65.622  70.866  0.00  0.00    +0.000 A 
ATOM      5  O   UNL     1      63.262  65.271  71.333  0.00  0.00    +0.000 OA
ATOM      6  C   UNL     1      62.902  64.571  71.086  0.00  0.00    +0.000 C 
ATOM      7  C   UNL     1      62.320  64.219  71.553  0.00  0.00    +0.000 C 
ATOM      8  C   UNL     1      62.043  64.502  72.276  0.00  0.00    +0.000 C 
ATOM      9  N   UNL     1      61.464  63.980  72.548  0.00  0.00    +0.000 NA
ATOM     10  C   UNL     1      61.384  63.375  71.993  0.00  0.00    +0.000 C 
ATOM     11  O   UNL     1      60.866  62.735  72.045  0.00  0.00    +0.000 OA
ATOM     12  O   UNL     1      61.913  63.523  71.377  0.00  0.00    +0.000 OA
ATOM     13  C   UNL     1      64.066  65.275  70.152  0.00  0.00    +0.000 A 
ATOM     14  C   UNL     1      64.648  65.626  69.685  0.00  0.00    +0.000 A 
ATOM     15  C   UNL     1      65.009  66.326  69.931  0.00  0.00    +0.000 A 
ATOM     16  C   UNL     1      64.787  66.674  70.647  0.00  0.00    +0.000 A 
ENDROOT
TORSDOF 0
ENDMDL
MODEL 9
REMARK VINA RESULT:    -6.784      6.004      7.127
REMARK INTER + INTRA:          -6.784
REMARK INTER:                  -6.784
REMARK INTRA:                   0.000
REMARK UNBOUND:                 0.000
ROOT
REMARK  Name = mephenoxalone
REMARK                            x       y       z     vdW  Elec       q    Type
REMARK                         _______ _______ _______ _____ _____    ______ ____
ATOM      1  C   UNL     1      65.218  67.248  71.630  0.00  0.00    +0.000 C 
ATOM      2  O   UNL     1      64.456  66.939  71.698  0.00  0.00    +0.000 OA
ATOM      3  C   UNL     1      64.258  66.238  71.312  0.00  0.00    +0.000 A 
ATOM      4  C   UNL     1      63.496  65.930  71.380  0.00  0.00    +0.000 A 
ATOM      5  O   UNL     1      62.931  66.324  71.834  0.00  0.00    +0.000 OA
ATOM      6  C   UNL     1      62.168  66.017  71.902  0.00  0.00    +0.000 C 
ATOM      7  C   UNL     1      61.603  66.411  72.356  0.00  0.00    +0.000 C 
ATOM      8  C   UNL     1      61.720  67.114  72.771  0.00  0.00    +0.000 C 
ATOM      9  N   UNL     1      61.011  67.309  73.147  0.00  0.00    +0.000 NA
ATOM     10  C   UNL     1      60.457  66.726  72.963  0.00  0.00    +0.000 C 
ATOM     11  O   UNL     1      59.674  66.703  73.222  0.00  0.00    +0.000 OA
ATOM     12  O   UNL     1      60.823  66.171  72.474  0.00  0.00    +0.000 OA
ATOM     13  C   UNL     1      63.298  65.229  70.994  0.00  0.00    +0.000 A 
ATOM     14  C   UNL     1      63.863  64.835  70.540  0.00  0.00    +0.000 A 
ATOM     15  C   UNL     1      64.625  65.142  70.472  0.00  0.00    +0.000 A 
ATOM     16  C   UNL     1      64.823  65.844  70.858  0.00  0.00    +0.000 A 
ENDROOT
TORSDOF 0
ENDMDL
