MODEL 1
REMARK VINA RESULT:    -9.787      0.000      0.000
REMARK INTER + INTRA:          -9.787
REMARK INTER:                  -9.787
REMARK INTRA:                   0.000
REMARK UNBOUND:                 0.000
ROOT
REMARK  Name = mepivacaine
REMARK                            x       y       z     vdW  Elec       q    Type
REMARK                         _______ _______ _______ _____ _____    ______ ____
ATOM      1  C   UNL     1      61.996  63.359  67.600  0.00  0.00    +0.000 C 
ATOM      2  N   UNL     1      61.303  62.945  67.768  0.00  0.00    +0.000 NA
ATOM      3  C   UNL     1      60.942  63.025  68.506  0.00  0.00    +0.000 C 
ATOM      4  C   UNL     1      60.250  62.611  68.674  0.00  0.00    +0.000 C 
ATOM      5  C   UNL     1      59.916  62.116  68.105  0.00  0.00    +0.000 C 
ATOM      6  C   UNL     1      60.277  62.035  67.367  0.00  0.00    +0.000 C 
ATOM      7  C   UNL     1      60.969  62.449  67.199  0.00  0.00    +0.000 C 
ATOM      8  C   UNL     1      61.330  62.369  66.461  0.00  0.00    +0.000 C 
ATOM      9  O   UNL     1      62.023  62.783  66.292  0.00  0.00    +0.000 OA
ATOM     10  N   UNL     1      60.996  61.873  65.891  0.00  0.00    +0.000 NA
ATOM     11  C   UNL     1      61.357  61.793  65.153  0.00  0.00    +0.000 A 
ATOM     12  C   UNL     1      61.023  61.298  64.584  0.00  0.00    +0.000 A 
ATOM     13  C   UNL     1      60.331  60.884  64.752  0.00  0.00    +0.000 C 
ATOM     14  C   UNL     1      61.384  61.217  63.845  0.00  0.00    +0.000 A 
ATOM     15  C   UNL     1      62.077  61.631  63.677  0.00  0.00    +0.000 A 
ATOM     16  C   UNL     1      62.410  62.127  64.247  0.00  0.00    +0.000 A 
ATOM     17  C   UNL     1      62.050  62.207  64.985  0.00  0.00    +0.000 A 
ATOM     18  C   UNL     1      62.383  62.702  65.554  0.00  0.00    +0.000 C 
ENDROOT
TORSDOF 0
ENDMDL
MODEL 2
REMARK VINA RESULT:    -9.424      2.845      5.400
REMARK INTER + INTRA:          -9.424
REMARK INTER:                  -9.424
REMARK INTRA:                   0.000
REMARK UNBOUND:                 0.000
ROOT
REMARK  Name = mepivacaine
REMARK                            x       y       z     vdW  Elec       q    Type
REMARK                         _______ _______ _______ _____ _____    ______ ____
ATOM      1  C   UNL     1      60.121  64.252  68.958  0.00  0.00    +0.000 C 
ATOM      2  N   UNL     1      60.247  63.482  68.691  0.00  0.00    +0.000 NA
ATOM      3  C   UNL     1      60.073  63.282  67.910  0.00  0.00    +0.000 C 
ATOM      4  C   UNL     1      60.199  62.513  67.642  0.00  0.00    +0.000 C 
ATOM      5  C   UNL     1      60.501  61.941  68.155  0.00  0.00    +0.000 C 
ATOM      6  C   UNL     1      60.676  62.141  68.936  0.00  0.00    +0.000 C 
ATOM      7  C   UNL     1      60.549  62.910  69.204  0.00  0.00    +0.000 C 
ATOM      8  C   UNL     1      60.724  63.110  69.985  0.00  0.00    +0.000 C 
ATOM      9  O   UNL     1      60.598  63.880  70.253  0.00  0.00    +0.000 OA
ATOM     10  N   UNL     1      61.026  62.539  70.499  0.00  0.00    +0.000 NA
ATOM     11  C   UNL     1      61.201  62.738  71.280  0.00  0.00    +0.000 A 
ATOM     12  C   UNL     1      61.503  62.167  71.793  0.00  0.00    +0.000 A 
ATOM     13  C   UNL     1      61.629  61.398  71.526  0.00  0.00    +0.000 C 
ATOM     14  C   UNL     1      61.678  62.367  72.575  0.00  0.00    +0.000 A 
ATOM     15  C   UNL     1      61.551  63.137  72.843  0.00  0.00    +0.000 A 
ATOM     16  C   UNL     1      61.250  63.707  72.329  0.00  0.00    +0.000 A 
ATOM     17  C   UNL     1      61.075  63.508  71.548  0.00  0.00    +0.000 A 
ATOM     18  C   UNL     1      60.773  64.079  71.035  0.00  0.00    +0.000 C 
ENDROOT
TORSDOF 0
ENDMDL
MODEL 3
REMARK VINA RESULT:    -9.286      0.891      3.432
REMARK INTER + INTRA:          -9.286
REMARK INTER:                  -9.286
REMARK INTRA:                   0.000
REMARK UNBOUND:                 0.000
ROOT
REMARK  Name = mepivacaine
REMARK                            x       y       z     vdW  Elec       q    Type
REMARK                         _______ _______ _______ _____ _____    ______ ____
ATOM      1  C   UNL     1      62.751  62.071  64.596  0.00  0.00    +0.000 C 
ATOM      2  N   UNL     1      62.117  61.669  64.254  0.00  0.00    +0.000 NA
ATOM      3  C   UNL     1      62.212  61.290  63.528  0.00  0.00    +0.000 C 
ATOM      4  C   UNL     1      61.579  60.888  63.186  0.00  0.00    +0.000 C 
ATOM      5  C   UNL     1      60.849  60.865  63.570  0.00  0.00    +0.000 C 
ATOM      6  C   UNL     1      60.754  61.244  64.296  0.00  0.00    +0.000 C 
ATOM      7  C   UNL     1      61.387  61.646  64.638  0.00  0.00    +0.000 C 
ATOM      8  C   UNL     1      61.292  62.025  65.365  0.00  0.00    +0.000 C 
ATOM      9  O   UNL     1      61.926  62.427  65.707  0.00  0.00    +0.000 OA
ATOM     10  N   UNL     1      60.561  62.002  65.749  0.00  0.00    +0.000 NA
ATOM     11  C   UNL     1      60.466  62.381  66.476  0.00  0.00    +0.000 A 
ATOM     12  C   UNL     1      59.737  62.358  66.859  0.00  0.00    +0.000 A 
ATOM     13  C   UNL     1      59.103  61.956  66.518  0.00  0.00    +0.000 C 
ATOM     14  C   UNL     1      59.641  62.737  67.587  0.00  0.00    +0.000 A 
ATOM     15  C   UNL     1      60.275  63.140  67.929  0.00  0.00    +0.000 A 
ATOM     16  C   UNL     1      61.004  63.162  67.544  0.00  0.00    +0.000 A 
ATOM     17  C   UNL     1      61.100  62.783  66.818  0.00  0.00    +0.000 A 
ATOM     18  C   UNL     1      61.829  62.806  66.434  0.00  0.00    +0.000 C 
ENDROOT
TORSDOF 0
ENDMDL
MODEL 4
REMARK VINA RESULT:    -9.036      4.893      6.834
REMARK INTER + INTRA:          -9.036
REMARK INTER:                  -9.036
REMARK INTRA:                   0.000
REMARK UNBOUND:                 0.000
ROOT
REMARK  Name = mepivacaine
REMARK                            x       y       z     vdW  Elec       q    Type
REMARK                         _______ _______ _______ _____ _____    ______ ____
ATOM      1  C   UNL     1      62.977  64.229  69.702  0.00  0.00    +0.000 C 
ATOM      2  N   UNL     1      62.703  64.348  70.471  0.00  0.00    +0.000 NA
ATOM      3  C   UNL     1      62.088  63.885  70.767  0.00  0.00    +0.000 C 
ATOM      4  C   UNL     1      61.815  64.004  71.535  0.00  0.00    +0.000 C 
ATOM      5  C   UNL     1      62.157  64.585  72.010  0.00  0.00    +0.000 C 
ATOM      6  C   UNL     1      62.773  65.048  71.714  0.00  0.00    +0.000 C 
ATOM      7  C   UNL     1      63.045  64.929  70.945  0.00  0.00    +0.000 C 
ATOM      8  C   UNL     1      63.662  65.393  70.650  0.00  0.00    +0.000 C 
ATOM      9  O   UNL     1      63.935  65.274  69.880  0.00  0.00    +0.000 OA
ATOM     10  N   UNL     1      64.004  65.975  71.124  0.00  0.00    +0.000 NA
ATOM     11  C   UNL     1      64.620  66.438  70.829  0.00  0.00    +0.000 A 
ATOM     12  C   UNL     1      64.962  67.019  71.303  0.00  0.00    +0.000 A 
ATOM     13  C   UNL     1      64.689  67.138  72.072  0.00  0.00    +0.000 C 
ATOM     14  C   UNL     1      65.578  67.483  71.008  0.00  0.00    +0.000 A 
ATOM     15  C   UNL     1      65.851  67.364  70.238  0.00  0.00    +0.000 A 
ATOM     16  C   UNL     1      65.508  66.782  69.765  0.00  0.00    +0.000 A 
ATOM     17  C   UNL     1      64.893  66.319  70.059  0.00  0.00    +0.000 A 
ATOM     18  C   UNL     1      64.551  65.738  69.586  0.00  0.00    +0.000 C 
ENDROOT
TORSDOF 0
ENDMDL
MODEL 5
REMARK VINA RESULT:    -8.929      0.810      3.851
REMARK INTER + INTRA:          -8.929
REMARK INTER:                  -8.929
REMARK INTRA:                   0.000
REMARK UNBOUND:                 0.000
ROOT
REMARK  Name = mepivacaine
REMARK                            x       y       z     vdW  Elec       q    Type
REMARK                         _______ _______ _______ _____ _____    ______ ____
ATOM      1  C   UNL     1      60.152  61.542  65.587  0.00  0.00    +0.000 C 
ATOM      2  N   UNL     1      60.898  61.825  65.380  0.00  0.00    +0.000 NA
ATOM      3  C   UNL     1      61.219  61.642  64.643  0.00  0.00    +0.000 C 
ATOM      4  C   UNL     1      61.965  61.925  64.435  0.00  0.00    +0.000 C 
ATOM      5  C   UNL     1      62.392  62.392  64.965  0.00  0.00    +0.000 C 
ATOM      6  C   UNL     1      62.071  62.575  65.702  0.00  0.00    +0.000 C 
ATOM      7  C   UNL     1      61.325  62.292  65.910  0.00  0.00    +0.000 C 
ATOM      8  C   UNL     1      61.004  62.476  66.648  0.00  0.00    +0.000 C 
ATOM      9  O   UNL     1      60.257  62.193  66.855  0.00  0.00    +0.000 OA
ATOM     10  N   UNL     1      61.430  62.943  67.178  0.00  0.00    +0.000 NA
ATOM     11  C   UNL     1      61.109  63.127  67.916  0.00  0.00    +0.000 A 
ATOM     12  C   UNL     1      61.536  63.594  68.445  0.00  0.00    +0.000 A 
ATOM     13  C   UNL     1      62.281  63.877  68.238  0.00  0.00    +0.000 C 
ATOM     14  C   UNL     1      61.215  63.778  69.183  0.00  0.00    +0.000 A 
ATOM     15  C   UNL     1      60.468  63.495  69.391  0.00  0.00    +0.000 A 
ATOM     16  C   UNL     1      60.042  63.028  68.860  0.00  0.00    +0.000 A 
ATOM     17  C   UNL     1      60.363  62.844  68.123  0.00  0.00    +0.000 A 
ATOM     18  C   UNL     1      59.937  62.377  67.593  0.00  0.00    +0.000 C 
ENDROOT
TORSDOF 0
ENDMDL
MODEL 6
REMARK VINA RESULT:    -8.716      5.256      6.618
REMARK INTER + INTRA:          -8.716
REMARK INTER:                  -8.716
REMARK INTRA:                   0.000
REMARK UNBOUND:                 0.000
ROOT
REMARK  Name = mepivacaine
REMARK                            x       y       z     vdW  Elec       q    Type
REMARK                         _______ _______ _______ _____ _____    ______ ____
ATOM      1  C   UNL     1      64.201  64.630  69.726  0.00  0.00    +0.000 C 
ATOM      2  N   UNL     1      64.229  65.264  70.254  0.00  0.00    +0.000 NA
ATOM      3  C   UNL     1      64.769  65.876  70.135  0.00  0.00    +0.000 C 
ATOM      4  C   UNL     1      64.797  66.509  70.663  0.00  0.00    +0.000 C 
ATOM      5  C   UNL     1      64.286  66.531  71.310  0.00  0.00    +0.000 C 
ATOM      6  C   UNL     1      63.747  65.918  71.428  0.00  0.00    +0.000 C 
ATOM      7  C   UNL     1      63.718  65.285  70.901  0.00  0.00    +0.000 C 
ATOM      8  C   UNL     1      63.178  64.673  71.020  0.00  0.00    +0.000 C 
ATOM      9  O   UNL     1      63.149  64.039  70.492  0.00  0.00    +0.000 OA
ATOM     10  N   UNL     1      62.666  64.694  71.668  0.00  0.00    +0.000 NA
ATOM     11  C   UNL     1      62.126  64.081  71.786  0.00  0.00    +0.000 A 
ATOM     12  C   UNL     1      61.615  64.103  72.434  0.00  0.00    +0.000 A 
ATOM     13  C   UNL     1      61.644  64.736  72.961  0.00  0.00    +0.000 C 
ATOM     14  C   UNL     1      61.075  63.490  72.553  0.00  0.00    +0.000 A 
ATOM     15  C   UNL     1      61.046  62.857  72.025  0.00  0.00    +0.000 A 
ATOM     16  C   UNL     1      61.558  62.836  71.378  0.00  0.00    +0.000 A 
ATOM     17  C   UNL     1      62.098  63.448  71.259  0.00  0.00    +0.000 A 
ATOM     18  C   UNL     1      62.609  63.427  70.612  0.00  0.00    +0.000 C 
ENDROOT
TORSDOF 0
ENDMDL
MODEL 7
REMARK VINA RESULT:    -8.711      3.389      4.890
REMARK INTER + INTRA:          -8.711
REMARK INTER:                  -8.711
REMARK INTRA:                   0.000
REMARK UNBOUND:                 0.000
ROOT
REMARK  Name = mepivacaine
REMARK                            x       y       z     vdW  Elec       q    Type
REMARK                         _______ _______ _______ _____ _____    ______ ____
ATOM      1  C   UNL     1      60.595  65.738  70.712  0.00  0.00    +0.000 C 
ATOM      2  N   UNL     1      60.600  65.306  71.415  0.00  0.00    +0.000 NA
ATOM      3  C   UNL     1      60.634  65.698  72.140  0.00  0.00    +0.000 C 
ATOM      4  C   UNL     1      60.639  65.267  72.842  0.00  0.00    +0.000 C 
ATOM      5  C   UNL     1      60.610  64.443  72.821  0.00  0.00    +0.000 C 
ATOM      6  C   UNL     1      60.577  64.051  72.096  0.00  0.00    +0.000 C 
ATOM      7  C   UNL     1      60.571  64.482  71.393  0.00  0.00    +0.000 C 
ATOM      8  C   UNL     1      60.538  64.090  70.668  0.00  0.00    +0.000 C 
ATOM      9  O   UNL     1      60.533  64.522  69.965  0.00  0.00    +0.000 OA
ATOM     10  N   UNL     1      60.509  63.265  70.646  0.00  0.00    +0.000 NA
ATOM     11  C   UNL     1      60.476  62.873  69.921  0.00  0.00    +0.000 A 
ATOM     12  C   UNL     1      60.447  62.049  69.899  0.00  0.00    +0.000 A 
ATOM     13  C   UNL     1      60.452  61.618  70.602  0.00  0.00    +0.000 C 
ATOM     14  C   UNL     1      60.413  61.657  69.174  0.00  0.00    +0.000 A 
ATOM     15  C   UNL     1      60.408  62.088  68.471  0.00  0.00    +0.000 A 
ATOM     16  C   UNL     1      60.437  62.913  68.494  0.00  0.00    +0.000 A 
ATOM     17  C   UNL     1      60.470  63.305  69.218  0.00  0.00    +0.000 A 
ATOM     18  C   UNL     1      60.499  64.129  69.240  0.00  0.00    +0.000 C 
ENDROOT
TORSDOF 0
ENDMDL
MODEL 8
REMARK VINA RESULT:    -8.619      4.189      5.420
REMARK INTER + INTRA:          -8.619
REMARK INTER:                  -8.619
REMARK INTRA:                   0.000
REMARK UNBOUND:                 0.000
ROOT
REMARK  Name = mepivacaine
REMARK                            x       y       z     vdW  Elec       q    Type
REMARK                         _______ _______ _______ _____ _____    ______ ____
ATOM      1  C   UNL     1      62.038  65.271  69.345  0.00  0.00    +0.000 C 
ATOM      2  N   UNL     1      62.412  65.335  70.078  0.00  0.00    +0.000 NA
ATOM      3  C   UNL     1      62.863  66.003  70.254  0.00  0.00    +0.000 C 
ATOM      4  C   UNL     1      63.236  66.067  70.986  0.00  0.00    +0.000 C 
ATOM      5  C   UNL     1      63.161  65.463  71.543  0.00  0.00    +0.000 C 
ATOM      6  C   UNL     1      62.710  64.795  71.366  0.00  0.00    +0.000 C 
ATOM      7  C   UNL     1      62.337  64.731  70.634  0.00  0.00    +0.000 C 
ATOM      8  C   UNL     1      61.886  64.062  70.458  0.00  0.00    +0.000 C 
ATOM      9  O   UNL     1      61.512  63.998  69.725  0.00  0.00    +0.000 OA
ATOM     10  N   UNL     1      61.810  63.457  71.015  0.00  0.00    +0.000 NA
ATOM     11  C   UNL     1      61.360  62.789  70.838  0.00  0.00    +0.000 A 
ATOM     12  C   UNL     1      61.284  62.185  71.394  0.00  0.00    +0.000 A 
ATOM     13  C   UNL     1      61.658  62.249  72.126  0.00  0.00    +0.000 C 
ATOM     14  C   UNL     1      60.834  61.516  71.218  0.00  0.00    +0.000 A 
ATOM     15  C   UNL     1      60.459  61.452  70.485  0.00  0.00    +0.000 A 
ATOM     16  C   UNL     1      60.536  62.057  69.929  0.00  0.00    +0.000 A 
ATOM     17  C   UNL     1      60.986  62.725  70.105  0.00  0.00    +0.000 A 
ATOM     18  C   UNL     1      61.062  63.329  69.550  0.00  0.00    +0.000 C 
ENDROOT
TORSDOF 0
ENDMDL
MODEL 9
REMARK VINA RESULT:    -8.555      5.728      7.446
REMARK INTER + INTRA:          -8.555
REMARK INTER:                  -8.555
REMARK INTRA:                   0.000
REMARK UNBOUND:                 0.000
ROOT
REMARK  Name = mepivacaine
REMARK                            x       y       z     vdW  Elec       q    Type
REMARK                         _______ _______ _______ _____ _____    ______ ____
ATOM      1  C   UNL     1      64.403  67.590  72.089  0.00  0.00    +0.000 C 
ATOM      2  N   UNL     1      64.734  67.233  71.423  0.00  0.00    +0.000 NA
ATOM      3  C   UNL     1      65.379  67.582  71.045  0.00  0.00    +0.000 C 
ATOM      4  C   UNL     1      65.710  67.225  70.380  0.00  0.00    +0.000 C 
ATOM      5  C   UNL     1      65.395  66.519  70.090  0.00  0.00    +0.000 C 
ATOM      6  C   UNL     1      64.750  66.171  70.468  0.00  0.00    +0.000 C 
ATOM      7  C   UNL     1      64.420  66.528  71.133  0.00  0.00    +0.000 C 
ATOM      8  C   UNL     1      63.774  66.179  71.511  0.00  0.00    +0.000 C 
ATOM      9  O   UNL     1      63.443  66.536  72.177  0.00  0.00    +0.000 OA
ATOM     10  N   UNL     1      63.459  65.473  71.222  0.00  0.00    +0.000 NA
ATOM     11  C   UNL     1      62.813  65.124  71.600  0.00  0.00    +0.000 A 
ATOM     12  C   UNL     1      62.499  64.419  71.310  0.00  0.00    +0.000 A 
ATOM     13  C   UNL     1      62.829  64.062  70.645  0.00  0.00    +0.000 C 
ATOM     14  C   UNL     1      61.853  64.070  71.688  0.00  0.00    +0.000 A 
ATOM     15  C   UNL     1      61.522  64.427  72.354  0.00  0.00    +0.000 A 
ATOM     16  C   UNL     1      61.838  65.133  72.643  0.00  0.00    +0.000 A 
ATOM     17  C   UNL     1      62.483  65.482  72.266  0.00  0.00    +0.000 A 
ATOM     18  C   UNL     1      62.797  66.187  72.554  0.00  0.00    +0.000 C 
ENDROOT
TORSDOF 0
ENDMDL
