MODEL 1
REMARK VINA RESULT:   -10.054      0.000      0.000
REMARK INTER + INTRA:         -10.054
REMARK INTER:                 -10.054
REMARK INTRA:                   0.000
REMARK UNBOUND:                 0.000
ROOT
REMARK  Name = meptazinol
REMARK                            x       y       z     vdW  Elec       q    Type
REMARK                         _______ _______ _______ _____ _____    ______ ____
ATOM      1  C   UNL     1      62.142  62.800  66.079  0.00  0.00    +0.000 C 
ATOM      2  C   UNL     1      61.730  62.329  65.542  0.00  0.00    +0.000 C 
ATOM      3  C   UNL     1      60.947  62.118  65.694  0.00  0.00    +0.000 C 
ATOM      4  C   UNL     1      60.232  61.745  65.523  0.00  0.00    +0.000 C 
ATOM      5  C   UNL     1      59.536  61.739  65.967  0.00  0.00    +0.000 C 
ATOM      6  C   UNL     1      59.385  62.104  66.692  0.00  0.00    +0.000 C 
ATOM      7  C   UNL     1      59.892  62.566  67.150  0.00  0.00    +0.000 C 
ATOM      8  N   UNL     1      60.675  62.776  66.998  0.00  0.00    +0.000 NA
ATOM      9  C   UNL     1      61.035  63.249  67.571  0.00  0.00    +0.000 C 
ATOM     10  C   UNL     1      61.144  62.577  66.350  0.00  0.00    +0.000 C 
ATOM     11  C   UNL     1      61.098  61.753  64.970  0.00  0.00    +0.000 A 
ATOM     12  C   UNL     1      61.840  61.830  64.615  0.00  0.00    +0.000 A 
ATOM     13  C   UNL     1      61.991  61.465  63.891  0.00  0.00    +0.000 A 
ATOM     14  O   UNL     1      62.732  61.542  63.538  0.00  0.00    +0.000 OA
ATOM     15  C   UNL     1      61.401  61.023  63.521  0.00  0.00    +0.000 A 
ATOM     16  C   UNL     1      60.660  60.946  63.875  0.00  0.00    +0.000 A 
ATOM     17  C   UNL     1      60.509  61.311  64.599  0.00  0.00    +0.000 A 
ENDROOT
TORSDOF 0
ENDMDL
MODEL 2
REMARK VINA RESULT:    -9.661      1.515      2.924
REMARK INTER + INTRA:          -9.661
REMARK INTER:                  -9.661
REMARK INTRA:                   0.000
REMARK UNBOUND:                 0.000
ROOT
REMARK  Name = meptazinol
REMARK                            x       y       z     vdW  Elec       q    Type
REMARK                         _______ _______ _______ _____ _____    ______ ____
ATOM      1  C   UNL     1      62.371  62.687  65.402  0.00  0.00    +0.000 C 
ATOM      2  C   UNL     1      61.649  62.573  65.786  0.00  0.00    +0.000 C 
ATOM      3  C   UNL     1      61.084  62.070  65.458  0.00  0.00    +0.000 C 
ATOM      4  C   UNL     1      60.355  61.685  65.437  0.00  0.00    +0.000 C 
ATOM      5  C   UNL     1      60.066  61.162  64.868  0.00  0.00    +0.000 C 
ATOM      6  C   UNL     1      60.434  60.896  64.179  0.00  0.00    +0.000 C 
ATOM      7  C   UNL     1      61.183  61.086  63.890  0.00  0.00    +0.000 C 
ATOM      8  N   UNL     1      61.748  61.589  64.218  0.00  0.00    +0.000 NA
ATOM      9  C   UNL     1      62.450  61.664  63.790  0.00  0.00    +0.000 C 
ATOM     10  C   UNL     1      61.704  62.027  64.916  0.00  0.00    +0.000 C 
ATOM     11  C   UNL     1      60.716  62.337  66.146  0.00  0.00    +0.000 A 
ATOM     12  C   UNL     1      61.107  62.865  66.646  0.00  0.00    +0.000 A 
ATOM     13  C   UNL     1      60.739  63.132  67.334  0.00  0.00    +0.000 A 
ATOM     14  O   UNL     1      61.129  63.659  67.832  0.00  0.00    +0.000 OA
ATOM     15  C   UNL     1      59.979  62.870  67.523  0.00  0.00    +0.000 A 
ATOM     16  C   UNL     1      59.588  62.342  67.024  0.00  0.00    +0.000 A 
ATOM     17  C   UNL     1      59.957  62.076  66.336  0.00  0.00    +0.000 A 
ENDROOT
TORSDOF 0
ENDMDL
MODEL 3
REMARK VINA RESULT:    -8.860      4.337      6.177
REMARK INTER + INTRA:          -8.860
REMARK INTER:                  -8.860
REMARK INTRA:                   0.000
REMARK UNBOUND:                 0.000
ROOT
REMARK  Name = meptazinol
REMARK                            x       y       z     vdW  Elec       q    Type
REMARK                         _______ _______ _______ _____ _____    ______ ____
ATOM      1  C   UNL     1      60.808  64.511  70.090  0.00  0.00    +0.000 C 
ATOM      2  C   UNL     1      60.963  63.954  70.678  0.00  0.00    +0.000 C 
ATOM      3  C   UNL     1      60.871  63.150  70.517  0.00  0.00    +0.000 C 
ATOM      4  C   UNL     1      60.890  62.348  70.708  0.00  0.00    +0.000 C 
ATOM      5  C   UNL     1      60.707  61.701  70.228  0.00  0.00    +0.000 C 
ATOM      6  C   UNL     1      60.461  61.698  69.440  0.00  0.00    +0.000 C 
ATOM      7  C   UNL     1      60.337  62.340  68.938  0.00  0.00    +0.000 C 
ATOM      8  N   UNL     1      60.428  63.144  69.099  0.00  0.00    +0.000 NA
ATOM      9  C   UNL     1      60.258  63.655  68.473  0.00  0.00    +0.000 C 
ATOM     10  C   UNL     1      60.666  63.504  69.801  0.00  0.00    +0.000 C 
ATOM     11  C   UNL     1      61.117  63.153  71.305  0.00  0.00    +0.000 A 
ATOM     12  C   UNL     1      61.273  63.869  71.686  0.00  0.00    +0.000 A 
ATOM     13  C   UNL     1      61.519  63.872  72.473  0.00  0.00    +0.000 A 
ATOM     14  O   UNL     1      61.675  64.587  72.853  0.00  0.00    +0.000 OA
ATOM     15  C   UNL     1      61.610  63.160  72.879  0.00  0.00    +0.000 A 
ATOM     16  C   UNL     1      61.454  62.445  72.499  0.00  0.00    +0.000 A 
ATOM     17  C   UNL     1      61.208  62.442  71.712  0.00  0.00    +0.000 A 
ENDROOT
TORSDOF 0
ENDMDL
MODEL 4
REMARK VINA RESULT:    -8.859      5.776      7.727
REMARK INTER + INTRA:          -8.859
REMARK INTER:                  -8.859
REMARK INTRA:                   0.000
REMARK UNBOUND:                 0.000
ROOT
REMARK  Name = meptazinol
REMARK                            x       y       z     vdW  Elec       q    Type
REMARK                         _______ _______ _______ _____ _____    ______ ____
ATOM      1  C   UNL     1      64.543  65.368  69.167  0.00  0.00    +0.000 C 
ATOM      2  C   UNL     1      64.690  65.894  69.785  0.00  0.00    +0.000 C 
ATOM      3  C   UNL     1      64.231  65.864  70.469  0.00  0.00    +0.000 C 
ATOM      4  C   UNL     1      64.006  66.108  71.224  0.00  0.00    +0.000 C 
ATOM      5  C   UNL     1      63.403  65.810  71.703  0.00  0.00    +0.000 C 
ATOM      6  C   UNL     1      62.877  65.194  71.544  0.00  0.00    +0.000 C 
ATOM      7  C   UNL     1      62.824  64.725  70.868  0.00  0.00    +0.000 C 
ATOM      8  N   UNL     1      63.283  64.755  70.184  0.00  0.00    +0.000 NA
ATOM      9  C   UNL     1      63.090  64.205  69.600  0.00  0.00    +0.000 C 
ATOM     10  C   UNL     1      63.909  65.262  70.006  0.00  0.00    +0.000 C 
ATOM     11  C   UNL     1      64.756  66.480  70.628  0.00  0.00    +0.000 A 
ATOM     12  C   UNL     1      65.324  66.693  70.067  0.00  0.00    +0.000 A 
ATOM     13  C   UNL     1      65.850  67.308  70.226  0.00  0.00    +0.000 A 
ATOM     14  O   UNL     1      66.416  67.521  69.666  0.00  0.00    +0.000 OA
ATOM     15  C   UNL     1      65.808  67.711  70.945  0.00  0.00    +0.000 A 
ATOM     16  C   UNL     1      65.242  67.499  71.505  0.00  0.00    +0.000 A 
ATOM     17  C   UNL     1      64.716  66.883  71.346  0.00  0.00    +0.000 A 
ENDROOT
TORSDOF 0
ENDMDL
MODEL 5
REMARK VINA RESULT:    -8.802      4.262      5.703
REMARK INTER + INTRA:          -8.802
REMARK INTER:                  -8.802
REMARK INTRA:                   0.000
REMARK UNBOUND:                 0.000
ROOT
REMARK  Name = meptazinol
REMARK                            x       y       z     vdW  Elec       q    Type
REMARK                         _______ _______ _______ _____ _____    ______ ____
ATOM      1  C   UNL     1      62.017  64.358  70.066  0.00  0.00    +0.000 C 
ATOM      2  C   UNL     1      61.582  63.669  70.201  0.00  0.00    +0.000 C 
ATOM      3  C   UNL     1      61.419  63.430  70.973  0.00  0.00    +0.000 C 
ATOM      4  C   UNL     1      61.095  62.929  71.543  0.00  0.00    +0.000 C 
ATOM      5  C   UNL     1      61.125  62.998  72.365  0.00  0.00    +0.000 C 
ATOM      6  C   UNL     1      61.487  63.584  72.819  0.00  0.00    +0.000 C 
ATOM      7  C   UNL     1      61.907  64.246  72.564  0.00  0.00    +0.000 C 
ATOM      8  N   UNL     1      62.070  64.485  71.792  0.00  0.00    +0.000 NA
ATOM      9  C   UNL     1      62.509  65.181  71.719  0.00  0.00    +0.000 C 
ATOM     10  C   UNL     1      61.853  64.123  71.084  0.00  0.00    +0.000 C 
ATOM     11  C   UNL     1      61.057  62.844  70.519  0.00  0.00    +0.000 A 
ATOM     12  C   UNL     1      61.093  62.880  69.695  0.00  0.00    +0.000 A 
ATOM     13  C   UNL     1      60.731  62.294  69.240  0.00  0.00    +0.000 A 
ATOM     14  O   UNL     1      60.767  62.330  68.417  0.00  0.00    +0.000 OA
ATOM     15  C   UNL     1      60.334  61.672  69.610  0.00  0.00    +0.000 A 
ATOM     16  C   UNL     1      60.299  61.636  70.433  0.00  0.00    +0.000 A 
ATOM     17  C   UNL     1      60.660  62.222  70.887  0.00  0.00    +0.000 A 
ENDROOT
TORSDOF 0
ENDMDL
MODEL 6
REMARK VINA RESULT:    -8.476      6.140      7.169
REMARK INTER + INTRA:          -8.476
REMARK INTER:                  -8.476
REMARK INTRA:                   0.000
REMARK UNBOUND:                 0.000
ROOT
REMARK  Name = meptazinol
REMARK                            x       y       z     vdW  Elec       q    Type
REMARK                         _______ _______ _______ _____ _____    ______ ____
ATOM      1  C   UNL     1      63.022  64.411  70.414  0.00  0.00    +0.000 C 
ATOM      2  C   UNL     1      62.550  64.113  71.022  0.00  0.00    +0.000 C 
ATOM      3  C   UNL     1      62.374  64.584  71.676  0.00  0.00    +0.000 C 
ATOM      4  C   UNL     1      62.023  64.741  72.405  0.00  0.00    +0.000 C 
ATOM      5  C   UNL     1      62.058  65.433  72.854  0.00  0.00    +0.000 C 
ATOM      6  C   UNL     1      62.452  66.137  72.684  0.00  0.00    +0.000 C 
ATOM      7  C   UNL     1      62.909  66.325  72.023  0.00  0.00    +0.000 C 
ATOM      8  N   UNL     1      63.084  65.853  71.370  0.00  0.00    +0.000 NA
ATOM      9  C   UNL     1      63.561  66.205  70.794  0.00  0.00    +0.000 C 
ATOM     10  C   UNL     1      62.846  65.079  71.215  0.00  0.00    +0.000 C 
ATOM     11  C   UNL     1      61.981  63.879  71.846  0.00  0.00    +0.000 A 
ATOM     12  C   UNL     1      62.017  63.248  71.316  0.00  0.00    +0.000 A 
ATOM     13  C   UNL     1      61.623  62.543  71.486  0.00  0.00    +0.000 A 
ATOM     14  O   UNL     1      61.660  61.912  70.956  0.00  0.00    +0.000 OA
ATOM     15  C   UNL     1      61.193  62.470  72.186  0.00  0.00    +0.000 A 
ATOM     16  C   UNL     1      61.156  63.101  72.715  0.00  0.00    +0.000 A 
ATOM     17  C   UNL     1      61.550  63.806  72.545  0.00  0.00    +0.000 A 
ENDROOT
TORSDOF 0
ENDMDL
MODEL 7
REMARK VINA RESULT:    -8.389      5.315      7.324
REMARK INTER + INTRA:          -8.389
REMARK INTER:                  -8.389
REMARK INTRA:                   0.000
REMARK UNBOUND:                 0.000
ROOT
REMARK  Name = meptazinol
REMARK                            x       y       z     vdW  Elec       q    Type
REMARK                         _______ _______ _______ _____ _____    ______ ____
ATOM      1  C   UNL     1      60.100  64.040  70.218  0.00  0.00    +0.000 C 
ATOM      2  C   UNL     1      60.073  64.314  70.996  0.00  0.00    +0.000 C 
ATOM      3  C   UNL     1      60.467  63.901  71.592  0.00  0.00    +0.000 C 
ATOM      4  C   UNL     1      60.710  63.770  72.369  0.00  0.00    +0.000 C 
ATOM      5  C   UNL     1      61.177  63.157  72.665  0.00  0.00    +0.000 C 
ATOM      6  C   UNL     1      61.516  62.525  72.257  0.00  0.00    +0.000 C 
ATOM      7  C   UNL     1      61.472  62.349  71.452  0.00  0.00    +0.000 C 
ATOM      8  N   UNL     1      61.078  62.762  70.857  0.00  0.00    +0.000 NA
ATOM      9  C   UNL     1      61.140  62.441  70.099  0.00  0.00    +0.000 C 
ATOM     10  C   UNL     1      60.631  63.453  70.919  0.00  0.00    +0.000 C 
ATOM     11  C   UNL     1      60.128  64.533  71.999  0.00  0.00    +0.000 A 
ATOM     12  C   UNL     1      59.676  65.091  71.593  0.00  0.00    +0.000 A 
ATOM     13  C   UNL     1      59.337  65.723  72.001  0.00  0.00    +0.000 A 
ATOM     14  O   UNL     1      58.884  66.280  71.595  0.00  0.00    +0.000 OA
ATOM     15  C   UNL     1      59.450  65.797  72.815  0.00  0.00    +0.000 A 
ATOM     16  C   UNL     1      59.903  65.239  73.221  0.00  0.00    +0.000 A 
ATOM     17  C   UNL     1      60.242  64.607  72.813  0.00  0.00    +0.000 A 
ENDROOT
TORSDOF 0
ENDMDL
MODEL 8
REMARK VINA RESULT:    -8.365      6.190      7.645
REMARK INTER + INTRA:          -8.365
REMARK INTER:                  -8.365
REMARK INTRA:                   0.000
REMARK UNBOUND:                 0.000
ROOT
REMARK  Name = meptazinol
REMARK                            x       y       z     vdW  Elec       q    Type
REMARK                         _______ _______ _______ _____ _____    ______ ____
ATOM      1  C   UNL     1      64.888  65.805  69.432  0.00  0.00    +0.000 C 
ATOM      2  C   UNL     1      64.328  65.648  70.017  0.00  0.00    +0.000 C 
ATOM      3  C   UNL     1      64.290  66.124  70.689  0.00  0.00    +0.000 C 
ATOM      4  C   UNL     1      63.984  66.355  71.420  0.00  0.00    +0.000 C 
ATOM      5  C   UNL     1      64.221  66.981  71.902  0.00  0.00    +0.000 C 
ATOM      6  C   UNL     1      64.823  67.531  71.772  0.00  0.00    +0.000 C 
ATOM      7  C   UNL     1      65.335  67.590  71.129  0.00  0.00    +0.000 C 
ATOM      8  N   UNL     1      65.373  67.114  70.456  0.00  0.00    +0.000 NA
ATOM      9  C   UNL     1      65.953  67.319  69.906  0.00  0.00    +0.000 C 
ATOM     10  C   UNL     1      64.908  66.462  70.260  0.00  0.00    +0.000 C 
ATOM     11  C   UNL     1      63.688  65.574  70.819  0.00  0.00    +0.000 A 
ATOM     12  C   UNL     1      63.540  64.985  70.260  0.00  0.00    +0.000 A 
ATOM     13  C   UNL     1      62.939  64.435  70.389  0.00  0.00    +0.000 A 
ATOM     14  O   UNL     1      62.791  63.847  69.831  0.00  0.00    +0.000 OA
ATOM     15  C   UNL     1      62.486  64.474  71.078  0.00  0.00    +0.000 A 
ATOM     16  C   UNL     1      62.634  65.063  71.636  0.00  0.00    +0.000 A 
ATOM     17  C   UNL     1      63.235  65.613  71.507  0.00  0.00    +0.000 A 
ENDROOT
TORSDOF 0
ENDMDL
MODEL 9
REMARK VINA RESULT:    -8.265      7.544      8.475
REMARK INTER + INTRA:          -8.265
REMARK INTER:                  -8.265
REMARK INTRA:                   0.000
REMARK UNBOUND:                 0.000
ROOT
REMARK  Name = meptazinol
REMARK                            x       y       z     vdW  Elec       q    Type
REMARK                         _______ _______ _______ _____ _____    ______ ____
ATOM      1  C   UNL     1      62.384  65.355  71.850  0.00  0.00    +0.000 C 
ATOM      2  C   UNL     1      63.062  65.817  71.763  0.00  0.00    +0.000 C 
ATOM      3  C   UNL     1      63.078  66.585  72.063  0.00  0.00    +0.000 C 
ATOM      4  C   UNL     1      63.428  67.316  72.215  0.00  0.00    +0.000 C 
ATOM      5  C   UNL     1      63.107  67.969  72.604  0.00  0.00    +0.000 C 
ATOM      6  C   UNL     1      62.356  68.052  72.937  0.00  0.00    +0.000 C 
ATOM      7  C   UNL     1      61.742  67.503  72.964  0.00  0.00    +0.000 C 
ATOM      8  N   UNL     1      61.726  66.734  72.664  0.00  0.00    +0.000 NA
ATOM      9  C   UNL     1      61.022  66.320  72.780  0.00  0.00    +0.000 C 
ATOM     10  C   UNL     1      62.320  66.326  72.263  0.00  0.00    +0.000 C 
ATOM     11  C   UNL     1      63.828  66.502  71.730  0.00  0.00    +0.000 A 
ATOM     12  C   UNL     1      64.040  65.794  71.363  0.00  0.00    +0.000 A 
ATOM     13  C   UNL     1      64.790  65.711  71.029  0.00  0.00    +0.000 A 
ATOM     14  O   UNL     1      65.002  65.004  70.663  0.00  0.00    +0.000 OA
ATOM     15  C   UNL     1      65.328  66.336  71.064  0.00  0.00    +0.000 A 
ATOM     16  C   UNL     1      65.116  67.043  71.430  0.00  0.00    +0.000 A 
ATOM     17  C   UNL     1      64.366  67.126  71.764  0.00  0.00    +0.000 A 
ENDROOT
TORSDOF 0
ENDMDL
