MODEL 1
REMARK VINA RESULT:    -2.521      0.000      0.000
REMARK INTER + INTRA:          -2.521
REMARK INTER:                  -2.521
REMARK INTRA:                   0.000
REMARK UNBOUND:                 0.000
ROOT
REMARK  Name = mercaptamine
REMARK                            x       y       z     vdW  Elec       q    Type
REMARK                         _______ _______ _______ _____ _____    ______ ____
ATOM      1  N   UNL     1      65.777  76.270  60.453  0.00  0.00    +0.000 NA
ATOM      2  C   UNL     1      66.163  76.994  60.375  0.00  0.00    +0.000 C 
ATOM      3  C   UNL     1      66.108  77.417  59.668  0.00  0.00    +0.000 C 
ATOM      4  S   UNL     1      66.494  78.142  59.590  0.00  0.00    +0.000 S 
ENDROOT
TORSDOF 0
ENDMDL
MODEL 2
REMARK VINA RESULT:    -2.494     16.225     16.347
REMARK INTER + INTRA:          -2.494
REMARK INTER:                  -2.494
REMARK INTRA:                   0.000
REMARK UNBOUND:                 0.000
ROOT
REMARK  Name = mercaptamine
REMARK                            x       y       z     vdW  Elec       q    Type
REMARK                         _______ _______ _______ _____ _____    ______ ____
ATOM      1  N   UNL     1      62.453  61.632  63.477  0.00  0.00    +0.000 NA
ATOM      2  C   UNL     1      62.096  61.717  64.214  0.00  0.00    +0.000 C 
ATOM      3  C   UNL     1      62.332  62.325  64.720  0.00  0.00    +0.000 C 
ATOM      4  S   UNL     1      61.974  62.411  65.459  0.00  0.00    +0.000 S 
ENDROOT
TORSDOF 0
ENDMDL
MODEL 3
REMARK VINA RESULT:    -2.307     16.405     16.542
REMARK INTER + INTRA:          -2.307
REMARK INTER:                  -2.307
REMARK INTRA:                   0.000
REMARK UNBOUND:                 0.000
ROOT
REMARK  Name = mercaptamine
REMARK                            x       y       z     vdW  Elec       q    Type
REMARK                         _______ _______ _______ _____ _____    ______ ____
ATOM      1  N   UNL     1      61.670  62.333  66.470  0.00  0.00    +0.000 NA
ATOM      2  C   UNL     1      61.976  61.982  65.791  0.00  0.00    +0.000 C 
ATOM      3  C   UNL     1      61.903  62.361  65.061  0.00  0.00    +0.000 C 
ATOM      4  S   UNL     1      62.210  62.010  64.381  0.00  0.00    +0.000 S 
ENDROOT
TORSDOF 0
ENDMDL
MODEL 4
REMARK VINA RESULT:    -2.178      1.667      1.753
REMARK INTER + INTRA:          -2.178
REMARK INTER:                  -2.178
REMARK INTRA:                   0.000
REMARK UNBOUND:                 0.000
ROOT
REMARK  Name = mercaptamine
REMARK                            x       y       z     vdW  Elec       q    Type
REMARK                         _______ _______ _______ _____ _____    ______ ____
ATOM      1  N   UNL     1      65.796  78.740  59.135  0.00  0.00    +0.000 NA
ATOM      2  C   UNL     1      66.149  78.081  59.481  0.00  0.00    +0.000 C 
ATOM      3  C   UNL     1      65.680  77.476  59.792  0.00  0.00    +0.000 C 
ATOM      4  S   UNL     1      66.034  76.816  60.138  0.00  0.00    +0.000 S 
ENDROOT
TORSDOF 0
ENDMDL
MODEL 5
REMARK VINA RESULT:    -2.116     14.513     14.574
REMARK INTER + INTRA:          -2.116
REMARK INTER:                  -2.116
REMARK INTRA:                   0.000
REMARK UNBOUND:                 0.000
ROOT
REMARK  Name = mercaptamine
REMARK                            x       y       z     vdW  Elec       q    Type
REMARK                         _______ _______ _______ _____ _____    ______ ____
ATOM      1  N   UNL     1      59.798  77.219  73.199  0.00  0.00    +0.000 NA
ATOM      2  C   UNL     1      59.112  76.924  72.853  0.00  0.00    +0.000 C 
ATOM      3  C   UNL     1      59.105  76.163  72.532  0.00  0.00    +0.000 C 
ATOM      4  S   UNL     1      58.417  75.867  72.185  0.00  0.00    +0.000 S 
ENDROOT
TORSDOF 0
ENDMDL
MODEL 6
REMARK VINA RESULT:    -2.112     14.526     14.632
REMARK INTER + INTRA:          -2.112
REMARK INTER:                  -2.112
REMARK INTRA:                   0.000
REMARK UNBOUND:                 0.000
ROOT
REMARK  Name = mercaptamine
REMARK                            x       y       z     vdW  Elec       q    Type
REMARK                         _______ _______ _______ _____ _____    ______ ____
ATOM      1  N   UNL     1      66.200  67.836  69.786  0.00  0.00    +0.000 NA
ATOM      2  C   UNL     1      66.236  67.361  70.458  0.00  0.00    +0.000 C 
ATOM      3  C   UNL     1      65.592  67.326  70.974  0.00  0.00    +0.000 C 
ATOM      4  S   UNL     1      65.628  66.850  71.647  0.00  0.00    +0.000 S 
ENDROOT
TORSDOF 0
ENDMDL
MODEL 7
REMARK VINA RESULT:    -2.067     16.699     16.732
REMARK INTER + INTRA:          -2.067
REMARK INTER:                  -2.067
REMARK INTRA:                   0.000
REMARK UNBOUND:                 0.000
ROOT
REMARK  Name = mercaptamine
REMARK                            x       y       z     vdW  Elec       q    Type
REMARK                         _______ _______ _______ _____ _____    ______ ____
ATOM      1  N   UNL     1      63.847  60.804  54.106  0.00  0.00    +0.000 NA
ATOM      2  C   UNL     1      64.235  61.416  53.715  0.00  0.00    +0.000 C 
ATOM      3  C   UNL     1      64.569  62.036  54.146  0.00  0.00    +0.000 C 
ATOM      4  S   UNL     1      64.958  62.649  53.754  0.00  0.00    +0.000 S 
ENDROOT
TORSDOF 0
ENDMDL
MODEL 8
REMARK VINA RESULT:    -2.046     18.751     18.927
REMARK INTER + INTRA:          -2.046
REMARK INTER:                  -2.046
REMARK INTRA:                   0.000
REMARK UNBOUND:                 0.000
ROOT
REMARK  Name = mercaptamine
REMARK                            x       y       z     vdW  Elec       q    Type
REMARK                         _______ _______ _______ _____ _____    ______ ____
ATOM      1  N   UNL     1      60.394  61.880  68.673  0.00  0.00    +0.000 NA
ATOM      2  C   UNL     1      60.498  62.259  69.397  0.00  0.00    +0.000 C 
ATOM      3  C   UNL     1      60.483  61.822  70.097  0.00  0.00    +0.000 C 
ATOM      4  S   UNL     1      60.588  62.201  70.823  0.00  0.00    +0.000 S 
ENDROOT
TORSDOF 0
ENDMDL
MODEL 9
REMARK VINA RESULT:    -1.969     12.532     12.595
REMARK INTER + INTRA:          -1.969
REMARK INTER:                  -1.969
REMARK INTRA:                   0.000
REMARK UNBOUND:                 0.000
ROOT
REMARK  Name = mercaptamine
REMARK                            x       y       z     vdW  Elec       q    Type
REMARK                         _______ _______ _______ _____ _____    ______ ____
ATOM      1  N   UNL     1      70.630  78.443  49.222  0.00  0.00    +0.000 NA
ATOM      2  C   UNL     1      71.120  78.882  48.726  0.00  0.00    +0.000 C 
ATOM      3  C   UNL     1      71.938  78.877  48.845  0.00  0.00    +0.000 C 
ATOM      4  S   UNL     1      72.429  79.316  48.348  0.00  0.00    +0.000 S 
ENDROOT
TORSDOF 0
ENDMDL
