MODEL 1
REMARK VINA RESULT:   -12.076      0.000      0.000
REMARK INTER + INTRA:         -12.076
REMARK INTER:                 -12.076
REMARK INTRA:                   0.000
REMARK UNBOUND:                 0.000
ROOT
REMARK  Name = mesoridazine
REMARK                            x       y       z     vdW  Elec       q    Type
REMARK                         _______ _______ _______ _____ _____    ______ ____
ATOM      1  C   UNL     1      63.378  65.596  71.712  0.00  0.00    +0.000 C 
ATOM      2  N   UNL     1      63.490  65.691  70.900  0.00  0.00    +0.000 NA
ATOM      3  C   UNL     1      63.998  66.277  70.619  0.00  0.00    +0.000 C 
ATOM      4  C   UNL     1      64.110  66.372  69.808  0.00  0.00    +0.000 C 
ATOM      5  C   UNL     1      63.714  65.880  69.276  0.00  0.00    +0.000 C 
ATOM      6  C   UNL     1      63.207  65.294  69.556  0.00  0.00    +0.000 C 
ATOM      7  C   UNL     1      63.095  65.199  70.369  0.00  0.00    +0.000 C 
ATOM      8  C   UNL     1      62.587  64.613  70.650  0.00  0.00    +0.000 C 
ATOM      9  C   UNL     1      62.191  64.121  70.118  0.00  0.00    +0.000 C 
ATOM     10  N   UNL     1      61.683  63.534  70.399  0.00  0.00    +0.000 N 
ATOM     11  C   UNL     1      61.571  63.440  71.211  0.00  0.00    +0.000 A 
ATOM     12  C   UNL     1      61.966  63.931  71.742  0.00  0.00    +0.000 A 
ATOM     13  C   UNL     1      61.855  63.837  72.554  0.00  0.00    +0.000 A 
ATOM     14  C   UNL     1      61.347  63.250  72.835  0.00  0.00    +0.000 A 
ATOM     15  C   UNL     1      60.951  62.758  72.303  0.00  0.00    +0.000 A 
ATOM     16  C   UNL     1      61.063  62.853  71.491  0.00  0.00    +0.000 A 
ATOM     17  S   UNL     1      60.667  62.361  70.960  0.00  0.00    +0.000 S 
ATOM     18  C   UNL     1      60.780  62.456  70.148  0.00  0.00    +0.000 A 
ATOM     19  C   UNL     1      61.287  63.042  69.868  0.00  0.00    +0.000 A 
ATOM     20  C   UNL     1      61.399  63.137  69.056  0.00  0.00    +0.000 A 
ATOM     21  C   UNL     1      61.004  62.645  68.525  0.00  0.00    +0.000 A 
ATOM     22  C   UNL     1      60.496  62.059  68.805  0.00  0.00    +0.000 A 
ATOM     23  C   UNL     1      60.384  61.964  69.618  0.00  0.00    +0.000 A 
ATOM     24  S   UNL     1      61.116  62.740  67.712  0.00  0.00    +0.000 S 
ATOM     25  C   UNL     1      61.624  63.327  67.431  0.00  0.00    +0.000 C 
ATOM     26  O   UNL     1      60.720  62.248  67.181  0.00  0.00    +0.000 OA
ENDROOT
TORSDOF 0
ENDMDL
MODEL 2
REMARK VINA RESULT:   -11.759      2.045      2.198
REMARK INTER + INTRA:         -11.759
REMARK INTER:                 -11.759
REMARK INTRA:                   0.000
REMARK UNBOUND:                 0.000
ROOT
REMARK  Name = mesoridazine
REMARK                            x       y       z     vdW  Elec       q    Type
REMARK                         _______ _______ _______ _____ _____    ______ ____
ATOM      1  C   UNL     1      60.224  66.277  71.854  0.00  0.00    +0.000 C 
ATOM      2  N   UNL     1      59.996  66.409  71.071  0.00  0.00    +0.000 NA
ATOM      3  C   UNL     1      59.754  67.160  70.834  0.00  0.00    +0.000 C 
ATOM      4  C   UNL     1      59.526  67.292  70.052  0.00  0.00    +0.000 C 
ATOM      5  C   UNL     1      59.542  66.672  69.507  0.00  0.00    +0.000 C 
ATOM      6  C   UNL     1      59.784  65.921  69.745  0.00  0.00    +0.000 C 
ATOM      7  C   UNL     1      60.012  65.789  70.528  0.00  0.00    +0.000 C 
ATOM      8  C   UNL     1      60.254  65.037  70.765  0.00  0.00    +0.000 C 
ATOM      9  C   UNL     1      60.269  64.417  70.221  0.00  0.00    +0.000 C 
ATOM     10  N   UNL     1      60.512  63.665  70.459  0.00  0.00    +0.000 N 
ATOM     11  C   UNL     1      60.739  63.533  71.241  0.00  0.00    +0.000 A 
ATOM     12  C   UNL     1      60.724  64.153  71.785  0.00  0.00    +0.000 A 
ATOM     13  C   UNL     1      60.952  64.022  72.567  0.00  0.00    +0.000 A 
ATOM     14  C   UNL     1      61.194  63.270  72.805  0.00  0.00    +0.000 A 
ATOM     15  C   UNL     1      61.209  62.649  72.261  0.00  0.00    +0.000 A 
ATOM     16  C   UNL     1      60.982  62.782  71.479  0.00  0.00    +0.000 A 
ATOM     17  S   UNL     1      60.997  62.161  70.934  0.00  0.00    +0.000 S 
ATOM     18  C   UNL     1      60.770  62.294  70.153  0.00  0.00    +0.000 A 
ATOM     19  C   UNL     1      60.527  63.045  69.915  0.00  0.00    +0.000 A 
ATOM     20  C   UNL     1      60.300  63.177  69.133  0.00  0.00    +0.000 A 
ATOM     21  C   UNL     1      60.315  62.557  68.589  0.00  0.00    +0.000 A 
ATOM     22  C   UNL     1      60.558  61.806  68.827  0.00  0.00    +0.000 A 
ATOM     23  C   UNL     1      60.785  61.673  69.609  0.00  0.00    +0.000 A 
ATOM     24  S   UNL     1      60.088  62.689  67.806  0.00  0.00    +0.000 S 
ATOM     25  C   UNL     1      59.845  63.441  67.568  0.00  0.00    +0.000 C 
ATOM     26  O   UNL     1      60.103  62.069  67.262  0.00  0.00    +0.000 OA
ENDROOT
TORSDOF 0
ENDMDL
MODEL 3
REMARK VINA RESULT:   -11.713      2.638      3.902
REMARK INTER + INTRA:         -11.713
REMARK INTER:                 -11.713
REMARK INTRA:                   0.000
REMARK UNBOUND:                 0.000
ROOT
REMARK  Name = mesoridazine
REMARK                            x       y       z     vdW  Elec       q    Type
REMARK                         _______ _______ _______ _____ _____    ______ ____
ATOM      1  C   UNL     1      60.816  61.732  69.530  0.00  0.00    +0.000 C 
ATOM      2  N   UNL     1      60.511  62.280  68.993  0.00  0.00    +0.000 NA
ATOM      3  C   UNL     1      60.342  62.051  68.220  0.00  0.00    +0.000 C 
ATOM      4  C   UNL     1      60.037  62.598  67.684  0.00  0.00    +0.000 C 
ATOM      5  C   UNL     1      59.902  63.377  67.923  0.00  0.00    +0.000 C 
ATOM      6  C   UNL     1      60.071  63.607  68.696  0.00  0.00    +0.000 C 
ATOM      7  C   UNL     1      60.376  63.058  69.232  0.00  0.00    +0.000 C 
ATOM      8  C   UNL     1      60.545  63.288  70.006  0.00  0.00    +0.000 C 
ATOM      9  C   UNL     1      60.409  64.067  70.244  0.00  0.00    +0.000 C 
ATOM     10  N   UNL     1      60.579  64.297  71.019  0.00  0.00    +0.000 N 
ATOM     11  C   UNL     1      60.883  63.748  71.554  0.00  0.00    +0.000 A 
ATOM     12  C   UNL     1      61.019  62.970  71.316  0.00  0.00    +0.000 A 
ATOM     13  C   UNL     1      61.324  62.422  71.852  0.00  0.00    +0.000 A 
ATOM     14  C   UNL     1      61.493  62.651  72.626  0.00  0.00    +0.000 A 
ATOM     15  C   UNL     1      61.357  63.430  72.865  0.00  0.00    +0.000 A 
ATOM     16  C   UNL     1      61.053  63.978  72.328  0.00  0.00    +0.000 A 
ATOM     17  S   UNL     1      60.917  64.757  72.567  0.00  0.00    +0.000 S 
ATOM     18  C   UNL     1      60.612  65.304  72.030  0.00  0.00    +0.000 A 
ATOM     19  C   UNL     1      60.443  65.075  71.256  0.00  0.00    +0.000 A 
ATOM     20  C   UNL     1      60.139  65.622  70.721  0.00  0.00    +0.000 A 
ATOM     21  C   UNL     1      60.003  66.401  70.959  0.00  0.00    +0.000 A 
ATOM     22  C   UNL     1      60.172  66.631  71.733  0.00  0.00    +0.000 A 
ATOM     23  C   UNL     1      60.477  66.082  72.269  0.00  0.00    +0.000 A 
ATOM     24  S   UNL     1      59.698  66.950  70.423  0.00  0.00    +0.000 S 
ATOM     25  C   UNL     1      59.529  66.720  69.648  0.00  0.00    +0.000 C 
ATOM     26  O   UNL     1      59.563  67.727  70.661  0.00  0.00    +0.000 OA
ENDROOT
TORSDOF 0
ENDMDL
MODEL 4
REMARK VINA RESULT:   -11.609      2.488      4.012
REMARK INTER + INTRA:         -11.609
REMARK INTER:                 -11.609
REMARK INTRA:                   0.000
REMARK UNBOUND:                 0.000
ROOT
REMARK  Name = mesoridazine
REMARK                            x       y       z     vdW  Elec       q    Type
REMARK                         _______ _______ _______ _____ _____    ______ ____
ATOM      1  C   UNL     1      61.608  61.321  71.215  0.00  0.00    +0.000 C 
ATOM      2  N   UNL     1      61.614  61.874  71.828  0.00  0.00    +0.000 NA
ATOM      3  C   UNL     1      61.901  61.663  72.571  0.00  0.00    +0.000 C 
ATOM      4  C   UNL     1      61.907  62.216  73.184  0.00  0.00    +0.000 C 
ATOM      5  C   UNL     1      61.626  62.981  73.051  0.00  0.00    +0.000 C 
ATOM      6  C   UNL     1      61.339  63.192  72.308  0.00  0.00    +0.000 C 
ATOM      7  C   UNL     1      61.333  62.638  71.695  0.00  0.00    +0.000 C 
ATOM      8  C   UNL     1      61.046  62.849  70.951  0.00  0.00    +0.000 C 
ATOM      9  C   UNL     1      60.765  63.614  70.820  0.00  0.00    +0.000 C 
ATOM     10  N   UNL     1      60.477  63.825  70.075  0.00  0.00    +0.000 N 
ATOM     11  C   UNL     1      60.472  63.272  69.463  0.00  0.00    +0.000 A 
ATOM     12  C   UNL     1      60.753  62.508  69.595  0.00  0.00    +0.000 A 
ATOM     13  C   UNL     1      60.747  61.954  68.983  0.00  0.00    +0.000 A 
ATOM     14  C   UNL     1      60.460  62.165  68.239  0.00  0.00    +0.000 A 
ATOM     15  C   UNL     1      60.178  62.930  68.107  0.00  0.00    +0.000 A 
ATOM     16  C   UNL     1      60.185  63.483  68.719  0.00  0.00    +0.000 A 
ATOM     17  S   UNL     1      59.903  64.248  68.587  0.00  0.00    +0.000 S 
ATOM     18  C   UNL     1      59.910  64.800  69.199  0.00  0.00    +0.000 A 
ATOM     19  C   UNL     1      60.197  64.589  69.943  0.00  0.00    +0.000 A 
ATOM     20  C   UNL     1      60.203  65.142  70.555  0.00  0.00    +0.000 A 
ATOM     21  C   UNL     1      59.922  65.907  70.423  0.00  0.00    +0.000 A 
ATOM     22  C   UNL     1      59.634  66.118  69.679  0.00  0.00    +0.000 A 
ATOM     23  C   UNL     1      59.628  65.564  69.066  0.00  0.00    +0.000 A 
ATOM     24  S   UNL     1      59.927  66.460  71.035  0.00  0.00    +0.000 S 
ATOM     25  C   UNL     1      60.215  66.249  71.780  0.00  0.00    +0.000 C 
ATOM     26  O   UNL     1      59.646  67.224  70.903  0.00  0.00    +0.000 OA
ENDROOT
TORSDOF 0
ENDMDL
MODEL 5
REMARK VINA RESULT:   -11.342      2.074      3.450
REMARK INTER + INTRA:         -11.342
REMARK INTER:                 -11.342
REMARK INTRA:                   0.000
REMARK UNBOUND:                 0.000
ROOT
REMARK  Name = mesoridazine
REMARK                            x       y       z     vdW  Elec       q    Type
REMARK                         _______ _______ _______ _____ _____    ______ ____
ATOM      1  C   UNL     1      64.257  67.583  71.967  0.00  0.00    +0.000 C 
ATOM      2  N   UNL     1      63.550  67.723  72.371  0.00  0.00    +0.000 NA
ATOM      3  C   UNL     1      63.461  68.410  72.818  0.00  0.00    +0.000 C 
ATOM      4  C   UNL     1      62.756  68.551  73.222  0.00  0.00    +0.000 C 
ATOM      5  C   UNL     1      62.139  68.004  73.178  0.00  0.00    +0.000 C 
ATOM      6  C   UNL     1      62.228  67.317  72.730  0.00  0.00    +0.000 C 
ATOM      7  C   UNL     1      62.934  67.177  72.327  0.00  0.00    +0.000 C 
ATOM      8  C   UNL     1      63.024  66.489  71.879  0.00  0.00    +0.000 C 
ATOM      9  C   UNL     1      62.407  65.943  71.835  0.00  0.00    +0.000 C 
ATOM     10  N   UNL     1      62.497  65.255  71.387  0.00  0.00    +0.000 N 
ATOM     11  C   UNL     1      63.203  65.115  70.983  0.00  0.00    +0.000 A 
ATOM     12  C   UNL     1      63.819  65.661  71.027  0.00  0.00    +0.000 A 
ATOM     13  C   UNL     1      64.525  65.521  70.624  0.00  0.00    +0.000 A 
ATOM     14  C   UNL     1      64.614  64.834  70.176  0.00  0.00    +0.000 A 
ATOM     15  C   UNL     1      63.997  64.287  70.132  0.00  0.00    +0.000 A 
ATOM     16  C   UNL     1      63.292  64.428  70.535  0.00  0.00    +0.000 A 
ATOM     17  S   UNL     1      62.675  63.881  70.491  0.00  0.00    +0.000 S 
ATOM     18  C   UNL     1      61.970  64.022  70.895  0.00  0.00    +0.000 A 
ATOM     19  C   UNL     1      61.881  64.709  71.342  0.00  0.00    +0.000 A 
ATOM     20  C   UNL     1      61.175  64.849  71.746  0.00  0.00    +0.000 A 
ATOM     21  C   UNL     1      60.558  64.303  71.702  0.00  0.00    +0.000 A 
ATOM     22  C   UNL     1      60.648  63.616  71.254  0.00  0.00    +0.000 A 
ATOM     23  C   UNL     1      61.354  63.475  70.850  0.00  0.00    +0.000 A 
ATOM     24  S   UNL     1      59.852  64.443  72.105  0.00  0.00    +0.000 S 
ATOM     25  C   UNL     1      59.763  65.131  72.553  0.00  0.00    +0.000 C 
ATOM     26  O   UNL     1      59.236  63.897  72.061  0.00  0.00    +0.000 OA
ENDROOT
TORSDOF 0
ENDMDL
MODEL 6
REMARK VINA RESULT:   -11.246      2.480      3.133
REMARK INTER + INTRA:         -11.246
REMARK INTER:                 -11.246
REMARK INTRA:                   0.000
REMARK UNBOUND:                 0.000
ROOT
REMARK  Name = mesoridazine
REMARK                            x       y       z     vdW  Elec       q    Type
REMARK                         _______ _______ _______ _____ _____    ______ ____
ATOM      1  C   UNL     1      63.767  64.044  70.225  0.00  0.00    +0.000 C 
ATOM      2  N   UNL     1      63.715  64.863  70.138  0.00  0.00    +0.000 NA
ATOM      3  C   UNL     1      64.348  65.285  69.821  0.00  0.00    +0.000 C 
ATOM      4  C   UNL     1      64.297  66.104  69.734  0.00  0.00    +0.000 C 
ATOM      5  C   UNL     1      63.610  66.500  69.964  0.00  0.00    +0.000 C 
ATOM      6  C   UNL     1      62.977  66.079  70.281  0.00  0.00    +0.000 C 
ATOM      7  C   UNL     1      63.029  65.259  70.368  0.00  0.00    +0.000 C 
ATOM      8  C   UNL     1      62.395  64.837  70.685  0.00  0.00    +0.000 C 
ATOM      9  C   UNL     1      61.709  65.234  70.915  0.00  0.00    +0.000 C 
ATOM     10  N   UNL     1      61.075  64.811  71.233  0.00  0.00    +0.000 N 
ATOM     11  C   UNL     1      61.127  63.992  71.320  0.00  0.00    +0.000 A 
ATOM     12  C   UNL     1      61.813  63.596  71.090  0.00  0.00    +0.000 A 
ATOM     13  C   UNL     1      61.865  62.777  71.177  0.00  0.00    +0.000 A 
ATOM     14  C   UNL     1      61.232  62.355  71.494  0.00  0.00    +0.000 A 
ATOM     15  C   UNL     1      60.545  62.752  71.724  0.00  0.00    +0.000 A 
ATOM     16  C   UNL     1      60.494  63.570  71.637  0.00  0.00    +0.000 A 
ATOM     17  S   UNL     1      59.807  63.967  71.867  0.00  0.00    +0.000 S 
ATOM     18  C   UNL     1      59.756  64.785  71.780  0.00  0.00    +0.000 A 
ATOM     19  C   UNL     1      60.389  65.208  71.463  0.00  0.00    +0.000 A 
ATOM     20  C   UNL     1      60.337  66.026  71.376  0.00  0.00    +0.000 A 
ATOM     21  C   UNL     1      59.651  66.423  71.606  0.00  0.00    +0.000 A 
ATOM     22  C   UNL     1      59.018  66.001  71.923  0.00  0.00    +0.000 A 
ATOM     23  C   UNL     1      59.069  65.181  72.010  0.00  0.00    +0.000 A 
ATOM     24  S   UNL     1      59.599  67.242  71.519  0.00  0.00    +0.000 S 
ATOM     25  C   UNL     1      60.233  67.665  71.202  0.00  0.00    +0.000 C 
ATOM     26  O   UNL     1      58.913  67.638  71.749  0.00  0.00    +0.000 OA
ENDROOT
TORSDOF 0
ENDMDL
MODEL 7
REMARK VINA RESULT:   -11.155      2.624      4.488
REMARK INTER + INTRA:         -11.155
REMARK INTER:                 -11.155
REMARK INTRA:                   0.000
REMARK UNBOUND:                 0.000
ROOT
REMARK  Name = mesoridazine
REMARK                            x       y       z     vdW  Elec       q    Type
REMARK                         _______ _______ _______ _____ _____    ______ ____
ATOM      1  C   UNL     1      59.703  63.805  72.050  0.00  0.00    +0.000 C 
ATOM      2  N   UNL     1      60.315  63.425  71.647  0.00  0.00    +0.000 NA
ATOM      3  C   UNL     1      60.206  62.662  71.356  0.00  0.00    +0.000 C 
ATOM      4  C   UNL     1      60.818  62.282  70.954  0.00  0.00    +0.000 C 
ATOM      5  C   UNL     1      61.540  62.667  70.843  0.00  0.00    +0.000 C 
ATOM      6  C   UNL     1      61.649  63.430  71.134  0.00  0.00    +0.000 C 
ATOM      7  C   UNL     1      61.036  63.810  71.537  0.00  0.00    +0.000 C 
ATOM      8  C   UNL     1      61.146  64.574  71.828  0.00  0.00    +0.000 C 
ATOM      9  C   UNL     1      61.868  64.958  71.717  0.00  0.00    +0.000 C 
ATOM     10  N   UNL     1      61.977  65.723  72.009  0.00  0.00    +0.000 N 
ATOM     11  C   UNL     1      61.364  66.102  72.411  0.00  0.00    +0.000 A 
ATOM     12  C   UNL     1      60.643  65.718  72.522  0.00  0.00    +0.000 A 
ATOM     13  C   UNL     1      60.030  66.097  72.924  0.00  0.00    +0.000 A 
ATOM     14  C   UNL     1      60.140  66.861  73.215  0.00  0.00    +0.000 A 
ATOM     15  C   UNL     1      60.862  67.246  73.105  0.00  0.00    +0.000 A 
ATOM     16  C   UNL     1      61.473  66.866  72.702  0.00  0.00    +0.000 A 
ATOM     17  S   UNL     1      62.195  67.251  72.591  0.00  0.00    +0.000 S 
ATOM     18  C   UNL     1      62.807  66.871  72.189  0.00  0.00    +0.000 A 
ATOM     19  C   UNL     1      62.698  66.107  71.898  0.00  0.00    +0.000 A 
ATOM     20  C   UNL     1      63.310  65.728  71.496  0.00  0.00    +0.000 A 
ATOM     21  C   UNL     1      64.032  66.112  71.385  0.00  0.00    +0.000 A 
ATOM     22  C   UNL     1      64.141  66.876  71.676  0.00  0.00    +0.000 A 
ATOM     23  C   UNL     1      63.528  67.256  72.079  0.00  0.00    +0.000 A 
ATOM     24  S   UNL     1      64.644  65.733  70.983  0.00  0.00    +0.000 S 
ATOM     25  C   UNL     1      64.535  64.968  70.691  0.00  0.00    +0.000 C 
ATOM     26  O   UNL     1      65.365  66.117  70.872  0.00  0.00    +0.000 OA
ENDROOT
TORSDOF 0
ENDMDL
MODEL 8
REMARK VINA RESULT:   -11.088      2.605      4.064
REMARK INTER + INTRA:         -11.088
REMARK INTER:                 -11.088
REMARK INTRA:                   0.000
REMARK UNBOUND:                 0.000
ROOT
REMARK  Name = mesoridazine
REMARK                            x       y       z     vdW  Elec       q    Type
REMARK                         _______ _______ _______ _____ _____    ______ ____
ATOM      1  C   UNL     1      64.661  66.257  70.894  0.00  0.00    +0.000 C 
ATOM      2  N   UNL     1      64.257  65.588  70.628  0.00  0.00    +0.000 NA
ATOM      3  C   UNL     1      64.630  65.055  70.123  0.00  0.00    +0.000 C 
ATOM      4  C   UNL     1      64.227  64.386  69.857  0.00  0.00    +0.000 C 
ATOM      5  C   UNL     1      63.449  64.251  70.098  0.00  0.00    +0.000 C 
ATOM      6  C   UNL     1      63.075  64.785  70.603  0.00  0.00    +0.000 C 
ATOM      7  C   UNL     1      63.480  65.454  70.869  0.00  0.00    +0.000 C 
ATOM      8  C   UNL     1      63.106  65.988  71.375  0.00  0.00    +0.000 C 
ATOM      9  C   UNL     1      62.328  65.852  71.615  0.00  0.00    +0.000 C 
ATOM     10  N   UNL     1      61.954  66.387  72.122  0.00  0.00    +0.000 N 
ATOM     11  C   UNL     1      62.359  67.055  72.387  0.00  0.00    +0.000 A 
ATOM     12  C   UNL     1      63.136  67.190  72.147  0.00  0.00    +0.000 A 
ATOM     13  C   UNL     1      63.540  67.858  72.412  0.00  0.00    +0.000 A 
ATOM     14  C   UNL     1      63.167  68.392  72.918  0.00  0.00    +0.000 A 
ATOM     15  C   UNL     1      62.388  68.258  73.159  0.00  0.00    +0.000 A 
ATOM     16  C   UNL     1      61.985  67.589  72.893  0.00  0.00    +0.000 A 
ATOM     17  S   UNL     1      61.207  67.455  73.133  0.00  0.00    +0.000 S 
ATOM     18  C   UNL     1      60.803  66.786  72.868  0.00  0.00    +0.000 A 
ATOM     19  C   UNL     1      61.177  66.252  72.362  0.00  0.00    +0.000 A 
ATOM     20  C   UNL     1      60.773  65.584  72.096  0.00  0.00    +0.000 A 
ATOM     21  C   UNL     1      59.995  65.449  72.336  0.00  0.00    +0.000 A 
ATOM     22  C   UNL     1      59.622  65.983  72.842  0.00  0.00    +0.000 A 
ATOM     23  C   UNL     1      60.026  66.652  73.108  0.00  0.00    +0.000 A 
ATOM     24  S   UNL     1      59.591  64.780  72.071  0.00  0.00    +0.000 S 
ATOM     25  C   UNL     1      59.965  64.246  71.564  0.00  0.00    +0.000 C 
ATOM     26  O   UNL     1      58.814  64.646  72.311  0.00  0.00    +0.000 OA
ENDROOT
TORSDOF 0
ENDMDL
