MODEL 1
REMARK VINA RESULT:   -13.097      0.000      0.000
REMARK INTER + INTRA:         -13.097
REMARK INTER:                 -13.097
REMARK INTRA:                   0.000
REMARK UNBOUND:                 0.000
ROOT
REMARK  Name = mesterolone
REMARK                            x       y       z     vdW  Elec       q    Type
REMARK                         _______ _______ _______ _____ _____    ______ ____
ATOM      1  C   UNL     1      62.033  63.161  66.938  0.00  0.00    +0.000 C 
ATOM      2  C   UNL     1      61.254  62.973  67.132  0.00  0.00    +0.000 C 
ATOM      3  C   UNL     1      60.932  63.237  67.844  0.00  0.00    +0.000 C 
ATOM      4  C   UNL     1      60.152  63.048  68.039  0.00  0.00    +0.000 C 
ATOM      5  O   UNL     1      59.830  63.312  68.751  0.00  0.00    +0.000 OA
ATOM      6  C   UNL     1      59.695  62.596  67.521  0.00  0.00    +0.000 C 
ATOM      7  C   UNL     1      60.018  62.332  66.809  0.00  0.00    +0.000 C 
ATOM      8  C   UNL     1      59.561  61.880  66.293  0.00  0.00    +0.000 C 
ATOM      9  C   UNL     1      59.884  61.616  65.580  0.00  0.00    +0.000 C 
ATOM     10  C   UNL     1      60.663  61.805  65.386  0.00  0.00    +0.000 C 
ATOM     11  C   UNL     1      60.985  61.541  64.674  0.00  0.00    +0.000 C 
ATOM     12  C   UNL     1      60.671  61.090  64.059  0.00  0.00    +0.000 C 
ATOM     13  C   UNL     1      61.256  60.999  63.484  0.00  0.00    +0.000 C 
ATOM     14  C   UNL     1      61.931  61.394  63.743  0.00  0.00    +0.000 C 
ATOM     15  O   UNL     1      62.648  61.445  63.339  0.00  0.00    +0.000 OA
ATOM     16  C   UNL     1      61.765  61.729  64.479  0.00  0.00    +0.000 C 
ATOM     17  C   UNL     1      62.531  61.873  64.211  0.00  0.00    +0.000 C 
ATOM     18  C   UNL     1      62.221  62.182  64.996  0.00  0.00    +0.000 C 
ATOM     19  C   UNL     1      61.898  62.445  65.708  0.00  0.00    +0.000 C 
ATOM     20  C   UNL     1      61.119  62.257  65.903  0.00  0.00    +0.000 C 
ATOM     21  C   UNL     1      60.797  62.520  66.615  0.00  0.00    +0.000 C 
ATOM     22  C   UNL     1      61.576  62.709  66.420  0.00  0.00    +0.000 C 
ENDROOT
TORSDOF 0
ENDMDL
MODEL 2
REMARK VINA RESULT:   -12.974      0.558      3.478
REMARK INTER + INTRA:         -12.974
REMARK INTER:                 -12.974
REMARK INTRA:                   0.000
REMARK UNBOUND:                 0.000
ROOT
REMARK  Name = mesterolone
REMARK                            x       y       z     vdW  Elec       q    Type
REMARK                         _______ _______ _______ _____ _____    ______ ____
ATOM      1  C   UNL     1      62.711  62.361  65.004  0.00  0.00    +0.000 C 
ATOM      2  C   UNL     1      62.129  61.922  64.617  0.00  0.00    +0.000 C 
ATOM      3  C   UNL     1      62.286  61.593  63.877  0.00  0.00    +0.000 C 
ATOM      4  C   UNL     1      61.705  61.155  63.489  0.00  0.00    +0.000 C 
ATOM      5  O   UNL     1      61.862  60.825  62.750  0.00  0.00    +0.000 OA
ATOM      6  C   UNL     1      60.966  61.046  63.841  0.00  0.00    +0.000 C 
ATOM      7  C   UNL     1      60.809  61.375  64.581  0.00  0.00    +0.000 C 
ATOM      8  C   UNL     1      60.072  61.267  64.932  0.00  0.00    +0.000 C 
ATOM      9  C   UNL     1      59.915  61.596  65.673  0.00  0.00    +0.000 C 
ATOM     10  C   UNL     1      60.496  62.035  66.060  0.00  0.00    +0.000 C 
ATOM     11  C   UNL     1      60.339  62.364  66.800  0.00  0.00    +0.000 C 
ATOM     12  C   UNL     1      59.668  62.350  67.279  0.00  0.00    +0.000 C 
ATOM     13  C   UNL     1      59.835  62.780  67.964  0.00  0.00    +0.000 C 
ATOM     14  C   UNL     1      60.608  63.060  67.907  0.00  0.00    +0.000 C 
ATOM     15  O   UNL     1      61.001  63.516  68.471  0.00  0.00    +0.000 OA
ATOM     16  C   UNL     1      60.921  62.803  67.188  0.00  0.00    +0.000 C 
ATOM     17  C   UNL     1      61.444  63.252  67.639  0.00  0.00    +0.000 C 
ATOM     18  C   UNL     1      61.659  62.911  66.836  0.00  0.00    +0.000 C 
ATOM     19  C   UNL     1      61.815  62.581  66.096  0.00  0.00    +0.000 C 
ATOM     20  C   UNL     1      61.234  62.143  65.708  0.00  0.00    +0.000 C 
ATOM     21  C   UNL     1      61.391  61.814  64.969  0.00  0.00    +0.000 C 
ATOM     22  C   UNL     1      61.972  62.252  65.356  0.00  0.00    +0.000 C 
ENDROOT
TORSDOF 0
ENDMDL
MODEL 3
REMARK VINA RESULT:   -11.952      3.073      5.793
REMARK INTER + INTRA:         -11.952
REMARK INTER:                 -11.952
REMARK INTRA:                   0.000
REMARK UNBOUND:                 0.000
ROOT
REMARK  Name = mesterolone
REMARK                            x       y       z     vdW  Elec       q    Type
REMARK                         _______ _______ _______ _____ _____    ______ ____
ATOM      1  C   UNL     1      60.663  61.310  69.477  0.00  0.00    +0.000 C 
ATOM      2  C   UNL     1      60.489  62.023  69.100  0.00  0.00    +0.000 C 
ATOM      3  C   UNL     1      60.244  62.024  68.313  0.00  0.00    +0.000 C 
ATOM      4  C   UNL     1      60.070  62.737  67.936  0.00  0.00    +0.000 C 
ATOM      5  O   UNL     1      59.826  62.738  67.148  0.00  0.00    +0.000 OA
ATOM      6  C   UNL     1      60.140  63.449  68.348  0.00  0.00    +0.000 C 
ATOM      7  C   UNL     1      60.384  63.448  69.135  0.00  0.00    +0.000 C 
ATOM      8  C   UNL     1      60.454  64.159  69.546  0.00  0.00    +0.000 C 
ATOM      9  C   UNL     1      60.699  64.158  70.335  0.00  0.00    +0.000 C 
ATOM     10  C   UNL     1      60.873  63.445  70.711  0.00  0.00    +0.000 C 
ATOM     11  C   UNL     1      61.118  63.444  71.499  0.00  0.00    +0.000 C 
ATOM     12  C   UNL     1      61.236  64.054  72.041  0.00  0.00    +0.000 C 
ATOM     13  C   UNL     1      61.484  63.719  72.753  0.00  0.00    +0.000 C 
ATOM     14  C   UNL     1      61.519  62.901  72.651  0.00  0.00    +0.000 C 
ATOM     15  O   UNL     1      61.741  62.350  73.222  0.00  0.00    +0.000 OA
ATOM     16  C   UNL     1      61.292  62.731  71.875  0.00  0.00    +0.000 C 
ATOM     17  C   UNL     1      61.485  62.066  72.322  0.00  0.00    +0.000 C 
ATOM     18  C   UNL     1      61.222  62.019  71.464  0.00  0.00    +0.000 C 
ATOM     19  C   UNL     1      60.978  62.021  70.676  0.00  0.00    +0.000 C 
ATOM     20  C   UNL     1      60.803  62.734  70.300  0.00  0.00    +0.000 C 
ATOM     21  C   UNL     1      60.559  62.735  69.512  0.00  0.00    +0.000 C 
ATOM     22  C   UNL     1      60.733  62.022  69.888  0.00  0.00    +0.000 C 
ENDROOT
TORSDOF 0
ENDMDL
MODEL 4
REMARK VINA RESULT:   -11.923      5.358      7.128
REMARK INTER + INTRA:         -11.923
REMARK INTER:                 -11.923
REMARK INTRA:                   0.000
REMARK UNBOUND:                 0.000
ROOT
REMARK  Name = mesterolone
REMARK                            x       y       z     vdW  Elec       q    Type
REMARK                         _______ _______ _______ _____ _____    ______ ____
ATOM      1  C   UNL     1      60.492  62.180  70.670  0.00  0.00    +0.000 C 
ATOM      2  C   UNL     1      60.999  61.995  71.294  0.00  0.00    +0.000 C 
ATOM      3  C   UNL     1      61.403  61.276  71.297  0.00  0.00    +0.000 C 
ATOM      4  C   UNL     1      61.910  61.091  71.920  0.00  0.00    +0.000 C 
ATOM      5  O   UNL     1      62.315  60.372  71.923  0.00  0.00    +0.000 OA
ATOM      6  C   UNL     1      62.013  61.625  72.541  0.00  0.00    +0.000 C 
ATOM      7  C   UNL     1      61.609  62.344  72.538  0.00  0.00    +0.000 C 
ATOM      8  C   UNL     1      61.712  62.877  73.158  0.00  0.00    +0.000 C 
ATOM      9  C   UNL     1      61.308  63.597  73.156  0.00  0.00    +0.000 C 
ATOM     10  C   UNL     1      60.801  63.782  72.532  0.00  0.00    +0.000 C 
ATOM     11  C   UNL     1      60.397  64.501  72.529  0.00  0.00    +0.000 C 
ATOM     12  C   UNL     1      60.388  65.131  73.060  0.00  0.00    +0.000 C 
ATOM     13  C   UNL     1      59.875  65.707  72.765  0.00  0.00    +0.000 C 
ATOM     14  C   UNL     1      59.567  65.432  72.052  0.00  0.00    +0.000 C 
ATOM     15  O   UNL     1      59.032  65.831  71.569  0.00  0.00    +0.000 OA
ATOM     16  C   UNL     1      59.890  64.686  71.905  0.00  0.00    +0.000 C 
ATOM     17  C   UNL     1      59.367  64.946  71.322  0.00  0.00    +0.000 C 
ATOM     18  C   UNL     1      59.787  64.152  71.284  0.00  0.00    +0.000 C 
ATOM     19  C   UNL     1      60.191  63.433  71.288  0.00  0.00    +0.000 C 
ATOM     20  C   UNL     1      60.698  63.248  71.912  0.00  0.00    +0.000 C 
ATOM     21  C   UNL     1      61.102  62.529  71.915  0.00  0.00    +0.000 C 
ATOM     22  C   UNL     1      60.595  62.714  71.291  0.00  0.00    +0.000 C 
ENDROOT
TORSDOF 0
ENDMDL
MODEL 5
REMARK VINA RESULT:   -11.728      2.501      4.226
REMARK INTER + INTRA:         -11.728
REMARK INTER:                 -11.728
REMARK INTRA:                   0.000
REMARK UNBOUND:                 0.000
ROOT
REMARK  Name = mesterolone
REMARK                            x       y       z     vdW  Elec       q    Type
REMARK                         _______ _______ _______ _____ _____    ______ ____
ATOM      1  C   UNL     1      60.347  61.568  70.752  0.00  0.00    +0.000 C 
ATOM      2  C   UNL     1      60.830  62.185  71.011  0.00  0.00    +0.000 C 
ATOM      3  C   UNL     1      61.011  62.258  71.812  0.00  0.00    +0.000 C 
ATOM      4  C   UNL     1      61.494  62.875  72.071  0.00  0.00    +0.000 C 
ATOM      5  O   UNL     1      61.676  62.948  72.872  0.00  0.00    +0.000 OA
ATOM      6  C   UNL     1      61.796  63.419  71.528  0.00  0.00    +0.000 C 
ATOM      7  C   UNL     1      61.615  63.346  70.726  0.00  0.00    +0.000 C 
ATOM      8  C   UNL     1      61.916  63.888  70.185  0.00  0.00    +0.000 C 
ATOM      9  C   UNL     1      61.734  63.815  69.382  0.00  0.00    +0.000 C 
ATOM     10  C   UNL     1      61.251  63.198  69.124  0.00  0.00    +0.000 C 
ATOM     11  C   UNL     1      61.070  63.125  68.322  0.00  0.00    +0.000 C 
ATOM     12  C   UNL     1      61.285  63.574  67.665  0.00  0.00    +0.000 C 
ATOM     13  C   UNL     1      60.935  63.234  66.999  0.00  0.00    +0.000 C 
ATOM     14  C   UNL     1      60.504  62.576  67.245  0.00  0.00    +0.000 C 
ATOM     15  O   UNL     1      60.066  62.074  66.760  0.00  0.00    +0.000 OA
ATOM     16  C   UNL     1      60.587  62.509  68.064  0.00  0.00    +0.000 C 
ATOM     17  C   UNL     1      60.114  61.924  67.725  0.00  0.00    +0.000 C 
ATOM     18  C   UNL     1      60.285  61.965  68.607  0.00  0.00    +0.000 C 
ATOM     19  C   UNL     1      60.467  62.039  69.408  0.00  0.00    +0.000 C 
ATOM     20  C   UNL     1      60.950  62.656  69.667  0.00  0.00    +0.000 C 
ATOM     21  C   UNL     1      61.132  62.729  70.468  0.00  0.00    +0.000 C 
ATOM     22  C   UNL     1      60.649  62.112  70.209  0.00  0.00    +0.000 C 
ENDROOT
TORSDOF 0
ENDMDL
MODEL 6
REMARK VINA RESULT:   -11.532      6.311      7.913
REMARK INTER + INTRA:         -11.532
REMARK INTER:                 -11.532
REMARK INTRA:                   0.000
REMARK UNBOUND:                 0.000
ROOT
REMARK  Name = mesterolone
REMARK                            x       y       z     vdW  Elec       q    Type
REMARK                         _______ _______ _______ _____ _____    ______ ____
ATOM      1  C   UNL     1      64.703  67.548  71.998  0.00  0.00    +0.000 C 
ATOM      2  C   UNL     1      65.006  67.271  71.282  0.00  0.00    +0.000 C 
ATOM      3  C   UNL     1      65.652  67.648  70.934  0.00  0.00    +0.000 C 
ATOM      4  C   UNL     1      65.955  67.370  70.219  0.00  0.00    +0.000 C 
ATOM      5  O   UNL     1      66.601  67.747  69.871  0.00  0.00    +0.000 OA
ATOM      6  C   UNL     1      65.612  66.716  69.851  0.00  0.00    +0.000 C 
ATOM      7  C   UNL     1      64.966  66.339  70.199  0.00  0.00    +0.000 C 
ATOM      8  C   UNL     1      64.623  65.686  69.831  0.00  0.00    +0.000 C 
ATOM      9  C   UNL     1      63.976  65.309  70.179  0.00  0.00    +0.000 C 
ATOM     10  C   UNL     1      63.674  65.586  70.895  0.00  0.00    +0.000 C 
ATOM     11  C   UNL     1      63.028  65.209  71.243  0.00  0.00    +0.000 C 
ATOM     12  C   UNL     1      62.578  64.557  71.011  0.00  0.00    +0.000 C 
ATOM     13  C   UNL     1      61.997  64.432  71.583  0.00  0.00    +0.000 C 
ATOM     14  C   UNL     1      62.088  65.005  72.169  0.00  0.00    +0.000 C 
ATOM     15  O   UNL     1      61.623  65.085  72.845  0.00  0.00    +0.000 OA
ATOM     16  C   UNL     1      62.725  65.486  71.958  0.00  0.00    +0.000 C 
ATOM     17  C   UNL     1      62.364  65.699  72.669  0.00  0.00    +0.000 C 
ATOM     18  C   UNL     1      63.068  66.140  72.326  0.00  0.00    +0.000 C 
ATOM     19  C   UNL     1      63.714  66.517  71.978  0.00  0.00    +0.000 C 
ATOM     20  C   UNL     1      64.017  66.239  71.262  0.00  0.00    +0.000 C 
ATOM     21  C   UNL     1      64.663  66.616  70.914  0.00  0.00    +0.000 C 
ATOM     22  C   UNL     1      64.360  66.894  71.630  0.00  0.00    +0.000 C 
ENDROOT
TORSDOF 0
ENDMDL
MODEL 7
REMARK VINA RESULT:   -11.410      5.367      7.266
REMARK INTER + INTRA:         -11.410
REMARK INTER:                 -11.410
REMARK INTRA:                   0.000
REMARK UNBOUND:                 0.000
ROOT
REMARK  Name = mesterolone
REMARK                            x       y       z     vdW  Elec       q    Type
REMARK                         _______ _______ _______ _____ _____    ______ ____
ATOM      1  C   UNL     1      63.637  64.609  69.473  0.00  0.00    +0.000 C 
ATOM      2  C   UNL     1      63.205  64.619  70.176  0.00  0.00    +0.000 C 
ATOM      3  C   UNL     1      62.599  64.072  70.294  0.00  0.00    +0.000 C 
ATOM      4  C   UNL     1      62.166  64.082  70.996  0.00  0.00    +0.000 C 
ATOM      5  O   UNL     1      61.560  63.535  71.115  0.00  0.00    +0.000 OA
ATOM      6  C   UNL     1      62.340  64.638  71.581  0.00  0.00    +0.000 C 
ATOM      7  C   UNL     1      62.946  65.185  71.462  0.00  0.00    +0.000 C 
ATOM      8  C   UNL     1      63.119  65.741  72.045  0.00  0.00    +0.000 C 
ATOM      9  C   UNL     1      63.725  66.289  71.927  0.00  0.00    +0.000 C 
ATOM     10  C   UNL     1      64.158  66.279  71.225  0.00  0.00    +0.000 C 
ATOM     11  C   UNL     1      64.764  66.826  71.106  0.00  0.00    +0.000 C 
ATOM     12  C   UNL     1      65.058  67.434  71.579  0.00  0.00    +0.000 C 
ATOM     13  C   UNL     1      65.673  67.801  71.168  0.00  0.00    +0.000 C 
ATOM     14  C   UNL     1      65.758  67.419  70.443  0.00  0.00    +0.000 C 
ATOM     15  O   UNL     1      66.309  67.607  69.858  0.00  0.00    +0.000 OA
ATOM     16  C   UNL     1      65.196  66.816  70.404  0.00  0.00    +0.000 C 
ATOM     17  C   UNL     1      65.674  66.873  69.734  0.00  0.00    +0.000 C 
ATOM     18  C   UNL     1      65.023  66.259  69.820  0.00  0.00    +0.000 C 
ATOM     19  C   UNL     1      64.417  65.713  69.939  0.00  0.00    +0.000 C 
ATOM     20  C   UNL     1      63.984  65.722  70.641  0.00  0.00    +0.000 C 
ATOM     21  C   UNL     1      63.378  65.175  70.760  0.00  0.00    +0.000 C 
ATOM     22  C   UNL     1      63.811  65.166  70.057  0.00  0.00    +0.000 C 
ENDROOT
TORSDOF 0
ENDMDL
MODEL 8
REMARK VINA RESULT:   -11.089      4.225      5.783
REMARK INTER + INTRA:         -11.089
REMARK INTER:                 -11.089
REMARK INTRA:                   0.000
REMARK UNBOUND:                 0.000
ROOT
REMARK  Name = mesterolone
REMARK                            x       y       z     vdW  Elec       q    Type
REMARK                         _______ _______ _______ _____ _____    ______ ____
ATOM      1  C   UNL     1      59.596  64.719  72.415  0.00  0.00    +0.000 C 
ATOM      2  C   UNL     1      59.567  65.238  71.774  0.00  0.00    +0.000 C 
ATOM      3  C   UNL     1      59.349  66.025  71.890  0.00  0.00    +0.000 C 
ATOM      4  C   UNL     1      59.320  66.543  71.249  0.00  0.00    +0.000 C 
ATOM      5  O   UNL     1      59.101  67.330  71.365  0.00  0.00    +0.000 OA
ATOM      6  C   UNL     1      59.510  66.275  70.492  0.00  0.00    +0.000 C 
ATOM      7  C   UNL     1      59.729  65.488  70.376  0.00  0.00    +0.000 C 
ATOM      8  C   UNL     1      59.918  65.221  69.620  0.00  0.00    +0.000 C 
ATOM      9  C   UNL     1      60.138  64.433  69.504  0.00  0.00    +0.000 C 
ATOM     10  C   UNL     1      60.166  63.914  70.145  0.00  0.00    +0.000 C 
ATOM     11  C   UNL     1      60.385  63.128  70.029  0.00  0.00    +0.000 C 
ATOM     12  C   UNL     1      60.601  62.709  69.352  0.00  0.00    +0.000 C 
ATOM     13  C   UNL     1      60.763  61.931  69.574  0.00  0.00    +0.000 C 
ATOM     14  C   UNL     1      60.647  61.869  70.388  0.00  0.00    +0.000 C 
ATOM     15  O   UNL     1      60.748  61.188  70.842  0.00  0.00    +0.000 OA
ATOM     16  C   UNL     1      60.414  62.609  70.670  0.00  0.00    +0.000 C 
ATOM     17  C   UNL     1      60.467  62.029  71.254  0.00  0.00    +0.000 C 
ATOM     18  C   UNL     1      60.224  62.877  71.427  0.00  0.00    +0.000 C 
ATOM     19  C   UNL     1      60.005  63.664  71.542  0.00  0.00    +0.000 C 
ATOM     20  C   UNL     1      59.976  64.183  70.901  0.00  0.00    +0.000 C 
ATOM     21  C   UNL     1      59.757  64.970  71.017  0.00  0.00    +0.000 C 
ATOM     22  C   UNL     1      59.786  64.451  71.658  0.00  0.00    +0.000 C 
ENDROOT
TORSDOF 0
ENDMDL
MODEL 9
REMARK VINA RESULT:   -11.063      5.460      7.311
REMARK INTER + INTRA:         -11.063
REMARK INTER:                 -11.063
REMARK INTRA:                   0.000
REMARK UNBOUND:                 0.000
ROOT
REMARK  Name = mesterolone
REMARK                            x       y       z     vdW  Elec       q    Type
REMARK                         _______ _______ _______ _____ _____    ______ ____
ATOM      1  C   UNL     1      60.883  63.782  72.860  0.00  0.00    +0.000 C 
ATOM      2  C   UNL     1      61.173  63.394  72.192  0.00  0.00    +0.000 C 
ATOM      3  C   UNL     1      60.877  62.653  71.984  0.00  0.00    +0.000 C 
ATOM      4  C   UNL     1      61.167  62.265  71.316  0.00  0.00    +0.000 C 
ATOM      5  O   UNL     1      60.871  61.524  71.109  0.00  0.00    +0.000 OA
ATOM      6  C   UNL     1      61.753  62.619  70.855  0.00  0.00    +0.000 C 
ATOM      7  C   UNL     1      62.050  63.360  71.063  0.00  0.00    +0.000 C 
ATOM      8  C   UNL     1      62.635  63.713  70.603  0.00  0.00    +0.000 C 
ATOM      9  C   UNL     1      62.932  64.456  70.810  0.00  0.00    +0.000 C 
ATOM     10  C   UNL     1      62.642  64.843  71.478  0.00  0.00    +0.000 C 
ATOM     11  C   UNL     1      62.938  65.584  71.686  0.00  0.00    +0.000 C 
ATOM     12  C   UNL     1      63.512  66.066  71.340  0.00  0.00    +0.000 C 
ATOM     13  C   UNL     1      63.577  66.751  71.795  0.00  0.00    +0.000 C 
ATOM     14  C   UNL     1      63.044  66.693  72.421  0.00  0.00    +0.000 C 
ATOM     15  O   UNL     1      62.925  67.257  73.011  0.00  0.00    +0.000 OA
ATOM     16  C   UNL     1      62.648  65.972  72.354  0.00  0.00    +0.000 C 
ATOM     17  C   UNL     1      62.414  66.424  73.002  0.00  0.00    +0.000 C 
ATOM     18  C   UNL     1      62.062  65.618  72.814  0.00  0.00    +0.000 C 
ATOM     19  C   UNL     1      61.766  64.877  72.606  0.00  0.00    +0.000 C 
ATOM     20  C   UNL     1      62.056  64.489  71.938  0.00  0.00    +0.000 C 
ATOM     21  C   UNL     1      61.760  63.748  71.731  0.00  0.00    +0.000 C 
ATOM     22  C   UNL     1      61.470  64.135  72.399  0.00  0.00    +0.000 C 
ENDROOT
TORSDOF 0
ENDMDL
