MODEL 1
REMARK VINA RESULT:    -9.296      0.000      0.000
REMARK INTER + INTRA:          -9.296
REMARK INTER:                  -9.296
REMARK INTRA:                   0.000
REMARK UNBOUND:                 0.000
ROOT
REMARK  Name = mesulfen
REMARK                            x       y       z     vdW  Elec       q    Type
REMARK                         _______ _______ _______ _____ _____    ______ ____
ATOM      1  C   UNL     1      61.661  61.216  63.481  0.00  0.00    +0.000 C 
ATOM      2  C   UNL     1      61.690  61.591  64.215  0.00  0.00    +0.000 A 
ATOM      3  C   UNL     1      61.027  61.588  64.707  0.00  0.00    +0.000 A 
ATOM      4  C   UNL     1      61.056  61.963  65.441  0.00  0.00    +0.000 A 
ATOM      5  C   UNL     1      61.748  62.341  65.684  0.00  0.00    +0.000 A 
ATOM      6  S   UNL     1      61.777  62.716  66.419  0.00  0.00    +0.000 S 
ATOM      7  C   UNL     1      61.114  62.713  66.909  0.00  0.00    +0.000 A 
ATOM      8  C   UNL     1      61.143  63.088  67.643  0.00  0.00    +0.000 A 
ATOM      9  C   UNL     1      60.480  63.085  68.135  0.00  0.00    +0.000 A 
ATOM     10  C   UNL     1      60.509  63.460  68.869  0.00  0.00    +0.000 C 
ATOM     11  C   UNL     1      59.789  62.707  67.892  0.00  0.00    +0.000 A 
ATOM     12  C   UNL     1      59.759  62.332  67.157  0.00  0.00    +0.000 A 
ATOM     13  C   UNL     1      60.422  62.335  66.666  0.00  0.00    +0.000 A 
ATOM     14  S   UNL     1      60.393  61.960  65.932  0.00  0.00    +0.000 S 
ATOM     15  C   UNL     1      62.411  62.344  65.193  0.00  0.00    +0.000 A 
ATOM     16  C   UNL     1      62.382  61.969  64.459  0.00  0.00    +0.000 A 
ENDROOT
TORSDOF 0
ENDMDL
MODEL 2
REMARK VINA RESULT:    -9.291      0.031      3.596
REMARK INTER + INTRA:          -9.291
REMARK INTER:                  -9.291
REMARK INTRA:                   0.000
REMARK UNBOUND:                 0.000
ROOT
REMARK  Name = mesulfen
REMARK                            x       y       z     vdW  Elec       q    Type
REMARK                         _______ _______ _______ _____ _____    ______ ____
ATOM      1  C   UNL     1      60.493  63.502  68.871  0.00  0.00    +0.000 C 
ATOM      2  C   UNL     1      60.467  63.117  68.142  0.00  0.00    +0.000 A 
ATOM      3  C   UNL     1      61.132  63.115  67.652  0.00  0.00    +0.000 A 
ATOM      4  C   UNL     1      61.106  62.730  66.924  0.00  0.00    +0.000 A 
ATOM      5  C   UNL     1      60.416  62.346  66.684  0.00  0.00    +0.000 A 
ATOM      6  S   UNL     1      60.391  61.960  65.955  0.00  0.00    +0.000 S 
ATOM      7  C   UNL     1      61.055  61.959  65.466  0.00  0.00    +0.000 A 
ATOM      8  C   UNL     1      61.029  61.574  64.737  0.00  0.00    +0.000 A 
ATOM      9  C   UNL     1      61.693  61.572  64.247  0.00  0.00    +0.000 A 
ATOM     10  C   UNL     1      61.668  61.186  63.518  0.00  0.00    +0.000 C 
ATOM     11  C   UNL     1      62.383  61.956  64.487  0.00  0.00    +0.000 A 
ATOM     12  C   UNL     1      62.409  62.342  65.216  0.00  0.00    +0.000 A 
ATOM     13  C   UNL     1      61.744  62.343  65.705  0.00  0.00    +0.000 A 
ATOM     14  S   UNL     1      61.771  62.728  66.434  0.00  0.00    +0.000 S 
ATOM     15  C   UNL     1      59.752  62.347  67.173  0.00  0.00    +0.000 A 
ATOM     16  C   UNL     1      59.777  62.733  67.902  0.00  0.00    +0.000 A 
ENDROOT
TORSDOF 0
ENDMDL
MODEL 3
REMARK VINA RESULT:    -8.633      5.293      6.960
REMARK INTER + INTRA:          -8.633
REMARK INTER:                  -8.633
REMARK INTRA:                   0.000
REMARK UNBOUND:                 0.000
ROOT
REMARK  Name = mesulfen
REMARK                            x       y       z     vdW  Elec       q    Type
REMARK                         _______ _______ _______ _____ _____    ______ ____
ATOM      1  C   UNL     1      66.426  67.876  69.848  0.00  0.00    +0.000 C 
ATOM      2  C   UNL     1      65.846  67.427  70.225  0.00  0.00    +0.000 A 
ATOM      3  C   UNL     1      65.490  66.796  69.828  0.00  0.00    +0.000 A 
ATOM      4  C   UNL     1      64.910  66.347  70.205  0.00  0.00    +0.000 A 
ATOM      5  C   UNL     1      64.684  66.529  70.977  0.00  0.00    +0.000 A 
ATOM      6  S   UNL     1      64.104  66.079  71.353  0.00  0.00    +0.000 S 
ATOM      7  C   UNL     1      63.749  65.449  70.957  0.00  0.00    +0.000 A 
ATOM      8  C   UNL     1      63.169  65.000  71.333  0.00  0.00    +0.000 A 
ATOM      9  C   UNL     1      62.813  64.369  70.937  0.00  0.00    +0.000 A 
ATOM     10  C   UNL     1      62.232  63.919  71.313  0.00  0.00    +0.000 C 
ATOM     11  C   UNL     1      63.039  64.188  70.165  0.00  0.00    +0.000 A 
ATOM     12  C   UNL     1      63.620  64.637  69.788  0.00  0.00    +0.000 A 
ATOM     13  C   UNL     1      63.974  65.268  70.185  0.00  0.00    +0.000 A 
ATOM     14  S   UNL     1      64.555  65.716  69.808  0.00  0.00    +0.000 S 
ATOM     15  C   UNL     1      65.039  67.159  71.373  0.00  0.00    +0.000 A 
ATOM     16  C   UNL     1      65.620  67.609  70.997  0.00  0.00    +0.000 A 
ENDROOT
TORSDOF 0
ENDMDL
MODEL 4
REMARK VINA RESULT:    -8.623      5.277      7.043
REMARK INTER + INTRA:          -8.623
REMARK INTER:                  -8.623
REMARK INTRA:                   0.000
REMARK UNBOUND:                 0.000
ROOT
REMARK  Name = mesulfen
REMARK                            x       y       z     vdW  Elec       q    Type
REMARK                         _______ _______ _______ _____ _____    ______ ____
ATOM      1  C   UNL     1      62.171  63.952  71.332  0.00  0.00    +0.000 C 
ATOM      2  C   UNL     1      62.756  64.392  70.952  0.00  0.00    +0.000 A 
ATOM      3  C   UNL     1      63.124  65.016  71.347  0.00  0.00    +0.000 A 
ATOM      4  C   UNL     1      63.709  65.456  70.967  0.00  0.00    +0.000 A 
ATOM      5  C   UNL     1      63.926  65.274  70.192  0.00  0.00    +0.000 A 
ATOM      6  S   UNL     1      64.511  65.715  69.813  0.00  0.00    +0.000 S 
ATOM      7  C   UNL     1      64.879  66.338  70.207  0.00  0.00    +0.000 A 
ATOM      8  C   UNL     1      65.464  66.778  69.828  0.00  0.00    +0.000 A 
ATOM      9  C   UNL     1      65.833  67.402  70.223  0.00  0.00    +0.000 A 
ATOM     10  C   UNL     1      66.418  67.843  69.843  0.00  0.00    +0.000 C 
ATOM     11  C   UNL     1      65.617  67.585  70.997  0.00  0.00    +0.000 A 
ATOM     12  C   UNL     1      65.031  67.144  71.378  0.00  0.00    +0.000 A 
ATOM     13  C   UNL     1      64.663  66.520  70.982  0.00  0.00    +0.000 A 
ATOM     14  S   UNL     1      64.078  66.080  71.363  0.00  0.00    +0.000 S 
ATOM     15  C   UNL     1      63.557  64.651  69.798  0.00  0.00    +0.000 A 
ATOM     16  C   UNL     1      62.972  64.209  70.177  0.00  0.00    +0.000 A 
ENDROOT
TORSDOF 0
ENDMDL
MODEL 5
REMARK VINA RESULT:    -8.528      2.410      4.886
REMARK INTER + INTRA:          -8.528
REMARK INTER:                  -8.528
REMARK INTRA:                   0.000
REMARK UNBOUND:                 0.000
ROOT
REMARK  Name = mesulfen
REMARK                            x       y       z     vdW  Elec       q    Type
REMARK                         _______ _______ _______ _____ _____    ______ ____
ATOM      1  C   UNL     1      61.562  63.019  72.523  0.00  0.00    +0.000 C 
ATOM      2  C   UNL     1      61.298  62.740  71.794  0.00  0.00    +0.000 A 
ATOM      3  C   UNL     1      61.240  63.255  71.151  0.00  0.00    +0.000 A 
ATOM      4  C   UNL     1      60.976  62.976  70.422  0.00  0.00    +0.000 A 
ATOM      5  C   UNL     1      60.769  62.182  70.333  0.00  0.00    +0.000 A 
ATOM      6  S   UNL     1      60.505  61.904  69.603  0.00  0.00    +0.000 S 
ATOM      7  C   UNL     1      60.447  62.418  68.961  0.00  0.00    +0.000 A 
ATOM      8  C   UNL     1      60.184  62.140  68.232  0.00  0.00    +0.000 A 
ATOM      9  C   UNL     1      60.126  62.654  67.589  0.00  0.00    +0.000 A 
ATOM     10  C   UNL     1      59.861  62.376  66.859  0.00  0.00    +0.000 C 
ATOM     11  C   UNL     1      60.332  63.448  67.677  0.00  0.00    +0.000 A 
ATOM     12  C   UNL     1      60.596  63.727  68.408  0.00  0.00    +0.000 A 
ATOM     13  C   UNL     1      60.654  63.212  69.050  0.00  0.00    +0.000 A 
ATOM     14  S   UNL     1      60.918  63.492  69.779  0.00  0.00    +0.000 S 
ATOM     15  C   UNL     1      60.827  61.668  70.975  0.00  0.00    +0.000 A 
ATOM     16  C   UNL     1      61.091  61.946  71.706  0.00  0.00    +0.000 A 
ENDROOT
TORSDOF 0
ENDMDL
MODEL 6
REMARK VINA RESULT:    -8.394      2.746      4.316
REMARK INTER + INTRA:          -8.394
REMARK INTER:                  -8.394
REMARK INTRA:                   0.000
REMARK UNBOUND:                 0.000
ROOT
REMARK  Name = mesulfen
REMARK                            x       y       z     vdW  Elec       q    Type
REMARK                         _______ _______ _______ _____ _____    ______ ____
ATOM      1  C   UNL     1      60.011  61.989  67.500  0.00  0.00    +0.000 C 
ATOM      2  C   UNL     1      60.158  62.436  68.178  0.00  0.00    +0.000 A 
ATOM      3  C   UNL     1      60.367  62.060  68.882  0.00  0.00    +0.000 A 
ATOM      4  C   UNL     1      60.514  62.507  69.560  0.00  0.00    +0.000 A 
ATOM      5  C   UNL     1      60.452  63.329  69.533  0.00  0.00    +0.000 A 
ATOM      6  S   UNL     1      60.599  63.775  70.212  0.00  0.00    +0.000 S 
ATOM      7  C   UNL     1      60.808  63.400  70.916  0.00  0.00    +0.000 A 
ATOM      8  C   UNL     1      60.955  63.846  71.593  0.00  0.00    +0.000 A 
ATOM      9  C   UNL     1      61.164  63.471  72.298  0.00  0.00    +0.000 A 
ATOM     10  C   UNL     1      61.311  63.917  72.976  0.00  0.00    +0.000 C 
ATOM     11  C   UNL     1      61.225  62.649  72.324  0.00  0.00    +0.000 A 
ATOM     12  C   UNL     1      61.078  62.202  71.646  0.00  0.00    +0.000 A 
ATOM     13  C   UNL     1      60.870  62.578  70.942  0.00  0.00    +0.000 A 
ATOM     14  S   UNL     1      60.723  62.131  70.264  0.00  0.00    +0.000 S 
ATOM     15  C   UNL     1      60.243  63.704  68.830  0.00  0.00    +0.000 A 
ATOM     16  C   UNL     1      60.096  63.258  68.151  0.00  0.00    +0.000 A 
ENDROOT
TORSDOF 0
ENDMDL
MODEL 7
REMARK VINA RESULT:    -8.322      5.419      6.175
REMARK INTER + INTRA:          -8.322
REMARK INTER:                  -8.322
REMARK INTRA:                   0.000
REMARK UNBOUND:                 0.000
ROOT
REMARK  Name = mesulfen
REMARK                            x       y       z     vdW  Elec       q    Type
REMARK                         _______ _______ _______ _____ _____    ______ ____
ATOM      1  C   UNL     1      65.134  66.700  69.845  0.00  0.00    +0.000 C 
ATOM      2  C   UNL     1      64.626  66.078  70.032  0.00  0.00    +0.000 A 
ATOM      3  C   UNL     1      64.119  66.141  70.681  0.00  0.00    +0.000 A 
ATOM      4  C   UNL     1      63.611  65.519  70.869  0.00  0.00    +0.000 A 
ATOM      5  C   UNL     1      63.610  64.834  70.409  0.00  0.00    +0.000 A 
ATOM      6  S   UNL     1      63.102  64.212  70.598  0.00  0.00    +0.000 S 
ATOM      7  C   UNL     1      62.595  64.275  71.246  0.00  0.00    +0.000 A 
ATOM      8  C   UNL     1      62.087  63.653  71.434  0.00  0.00    +0.000 A 
ATOM      9  C   UNL     1      61.580  63.715  72.082  0.00  0.00    +0.000 A 
ATOM     10  C   UNL     1      61.072  63.093  72.271  0.00  0.00    +0.000 C 
ATOM     11  C   UNL     1      61.581  64.401  72.541  0.00  0.00    +0.000 A 
ATOM     12  C   UNL     1      62.089  65.024  72.353  0.00  0.00    +0.000 A 
ATOM     13  C   UNL     1      62.596  64.960  71.705  0.00  0.00    +0.000 A 
ATOM     14  S   UNL     1      63.104  65.582  71.517  0.00  0.00    +0.000 S 
ATOM     15  C   UNL     1      64.117  64.771  69.762  0.00  0.00    +0.000 A 
ATOM     16  C   UNL     1      64.625  65.393  69.573  0.00  0.00    +0.000 A 
ENDROOT
TORSDOF 0
ENDMDL
MODEL 8
REMARK VINA RESULT:    -7.958      5.986      7.143
REMARK INTER + INTRA:          -7.958
REMARK INTER:                  -7.958
REMARK INTRA:                   0.000
REMARK UNBOUND:                 0.000
ROOT
REMARK  Name = mesulfen
REMARK                            x       y       z     vdW  Elec       q    Type
REMARK                         _______ _______ _______ _____ _____    ______ ____
ATOM      1  C   UNL     1      61.672  62.563  72.031  0.00  0.00    +0.000 C 
ATOM      2  C   UNL     1      61.059  63.114  72.038  0.00  0.00    +0.000 A 
ATOM      3  C   UNL     1      61.158  63.836  72.426  0.00  0.00    +0.000 A 
ATOM      4  C   UNL     1      60.545  64.388  72.433  0.00  0.00    +0.000 A 
ATOM      5  C   UNL     1      59.833  64.219  72.052  0.00  0.00    +0.000 A 
ATOM      6  S   UNL     1      59.221  64.772  72.059  0.00  0.00    +0.000 S 
ATOM      7  C   UNL     1      59.319  65.493  72.447  0.00  0.00    +0.000 A 
ATOM      8  C   UNL     1      58.707  66.044  72.454  0.00  0.00    +0.000 A 
ATOM      9  C   UNL     1      58.806  66.766  72.842  0.00  0.00    +0.000 A 
ATOM     10  C   UNL     1      58.193  67.319  72.849  0.00  0.00    +0.000 C 
ATOM     11  C   UNL     1      59.518  66.935  73.222  0.00  0.00    +0.000 A 
ATOM     12  C   UNL     1      60.131  66.383  73.216  0.00  0.00    +0.000 A 
ATOM     13  C   UNL     1      60.031  65.662  72.828  0.00  0.00    +0.000 A 
ATOM     14  S   UNL     1      60.645  65.110  72.821  0.00  0.00    +0.000 S 
ATOM     15  C   UNL     1      59.734  63.498  71.664  0.00  0.00    +0.000 A 
ATOM     16  C   UNL     1      60.347  62.945  71.657  0.00  0.00    +0.000 A 
ENDROOT
TORSDOF 0
ENDMDL
MODEL 9
REMARK VINA RESULT:    -7.783      4.740      5.836
REMARK INTER + INTRA:          -7.783
REMARK INTER:                  -7.783
REMARK INTRA:                   0.000
REMARK UNBOUND:                 0.000
ROOT
REMARK  Name = mesulfen
REMARK                            x       y       z     vdW  Elec       q    Type
REMARK                         _______ _______ _______ _____ _____    ______ ____
ATOM      1  C   UNL     1      59.383  66.870  70.252  0.00  0.00    +0.000 C 
ATOM      2  C   UNL     1      59.678  66.099  70.262  0.00  0.00    +0.000 A 
ATOM      3  C   UNL     1      59.922  65.761  70.975  0.00  0.00    +0.000 A 
ATOM      4  C   UNL     1      60.216  64.991  70.985  0.00  0.00    +0.000 A 
ATOM      5  C   UNL     1      60.267  64.558  70.285  0.00  0.00    +0.000 A 
ATOM      6  S   UNL     1      60.562  63.788  70.296  0.00  0.00    +0.000 S 
ATOM      7  C   UNL     1      60.806  63.450  71.008  0.00  0.00    +0.000 A 
ATOM      8  C   UNL     1      61.101  62.680  71.019  0.00  0.00    +0.000 A 
ATOM      9  C   UNL     1      61.345  62.341  71.731  0.00  0.00    +0.000 A 
ATOM     10  C   UNL     1      61.640  61.571  71.743  0.00  0.00    +0.000 C 
ATOM     11  C   UNL     1      61.294  62.774  72.432  0.00  0.00    +0.000 A 
ATOM     12  C   UNL     1      60.999  63.545  72.421  0.00  0.00    +0.000 A 
ATOM     13  C   UNL     1      60.755  63.882  71.708  0.00  0.00    +0.000 A 
ATOM     14  S   UNL     1      60.461  64.653  71.698  0.00  0.00    +0.000 S 
ATOM     15  C   UNL     1      60.024  64.896  69.573  0.00  0.00    +0.000 A 
ATOM     16  C   UNL     1      59.729  65.667  69.561  0.00  0.00    +0.000 A 
ENDROOT
TORSDOF 0
ENDMDL
