MODEL 1
REMARK VINA RESULT:   -11.036      0.000      0.000
REMARK INTER + INTRA:         -11.036
REMARK INTER:                 -11.036
REMARK INTRA:                   0.000
REMARK UNBOUND:                 0.000
ROOT
REMARK  Name = metaclazepam
REMARK                            x       y       z     vdW  Elec       q    Type
REMARK                         _______ _______ _______ _____ _____    ______ ____
ATOM      1  C   UNL     1      59.938  62.367  66.834  0.00  0.00    +0.000 C 
ATOM      2  O   UNL     1      60.073  62.656  67.595  0.00  0.00    +0.000 OA
ATOM      3  C   UNL     1      60.379  62.159  68.177  0.00  0.00    +0.000 C 
ATOM      4  C   UNL     1      60.514  62.448  68.938  0.00  0.00    +0.000 C 
ATOM      5  C   UNL     1      60.820  61.905  69.478  0.00  0.00    +0.000 C 
ATOM      6  N   UNL     1      61.013  62.022  70.271  0.00  0.00    +0.000 NA
ATOM      7  C   UNL     1      60.947  62.711  70.721  0.00  0.00    +0.000 C 
ATOM      8  C   UNL     1      60.672  63.453  70.487  0.00  0.00    +0.000 A 
ATOM      9  C   UNL     1      60.697  63.993  71.110  0.00  0.00    +0.000 A 
ATOM     10  C   UNL     1      60.445  64.770  70.992  0.00  0.00    +0.000 A 
ATOM     11 BR   UNL     1      60.471  65.310  71.616  0.00  0.00    +0.000 Br
ATOM     12  C   UNL     1      60.168  65.006  70.252  0.00  0.00    +0.000 A 
ATOM     13  C   UNL     1      60.143  64.466  69.630  0.00  0.00    +0.000 A 
ATOM     14  C   UNL     1      60.395  63.690  69.747  0.00  0.00    +0.000 A 
ATOM     15  N   UNL     1      60.324  63.242  69.058  0.00  0.00    +0.000 N 
ATOM     16  C   UNL     1      60.025  63.642  68.401  0.00  0.00    +0.000 C 
ATOM     17  C   UNL     1      61.188  62.649  71.507  0.00  0.00    +0.000 A 
ATOM     18  C   UNL     1      61.472  61.931  71.797  0.00  0.00    +0.000 A 
ATOM     19 CL   UNL     1      61.515  61.274  71.300  0.00  0.00    +0.000 Cl
ATOM     20  C   UNL     1      61.713  61.870  72.583  0.00  0.00    +0.000 A 
ATOM     21  C   UNL     1      61.670  62.527  73.081  0.00  0.00    +0.000 A 
ATOM     22  C   UNL     1      61.385  63.245  72.792  0.00  0.00    +0.000 A 
ATOM     23  C   UNL     1      61.144  63.306  72.004  0.00  0.00    +0.000 A 
ENDROOT
TORSDOF 0
ENDMDL
MODEL 2
REMARK VINA RESULT:   -11.001      2.119      3.844
REMARK INTER + INTRA:         -11.001
REMARK INTER:                 -11.001
REMARK INTRA:                   0.000
REMARK UNBOUND:                 0.000
ROOT
REMARK  Name = metaclazepam
REMARK                            x       y       z     vdW  Elec       q    Type
REMARK                         _______ _______ _______ _____ _____    ______ ____
ATOM      1  C   UNL     1      60.102  66.836  73.077  0.00  0.00    +0.000 C 
ATOM      2  O   UNL     1      60.267  66.106  72.729  0.00  0.00    +0.000 OA
ATOM      3  C   UNL     1      60.085  65.977  71.935  0.00  0.00    +0.000 C 
ATOM      4  C   UNL     1      60.250  65.247  71.588  0.00  0.00    +0.000 C 
ATOM      5  C   UNL     1      60.047  65.176  70.792  0.00  0.00    +0.000 C 
ATOM      6  N   UNL     1      60.139  64.525  70.294  0.00  0.00    +0.000 NA
ATOM      7  C   UNL     1      60.459  63.784  70.469  0.00  0.00    +0.000 C 
ATOM      8  C   UNL     1      60.764  63.512  71.186  0.00  0.00    +0.000 A 
ATOM      9  C   UNL     1      61.028  62.733  71.124  0.00  0.00    +0.000 A 
ATOM     10  C   UNL     1      61.354  62.356  71.781  0.00  0.00    +0.000 A 
ATOM     11 BR   UNL     1      61.619  61.576  71.719  0.00  0.00    +0.000 Br
ATOM     12  C   UNL     1      61.416  62.757  72.500  0.00  0.00    +0.000 A 
ATOM     13  C   UNL     1      61.151  63.535  72.561  0.00  0.00    +0.000 A 
ATOM     14  C   UNL     1      60.825  63.913  71.905  0.00  0.00    +0.000 A 
ATOM     15  N   UNL     1      60.597  64.685  72.083  0.00  0.00    +0.000 N 
ATOM     16  C   UNL     1      60.732  64.928  72.860  0.00  0.00    +0.000 C 
ATOM     17  C   UNL     1      60.475  63.245  69.845  0.00  0.00    +0.000 A 
ATOM     18  C   UNL     1      60.183  63.462  69.105  0.00  0.00    +0.000 A 
ATOM     19 CL   UNL     1      59.875  64.218  68.988  0.00  0.00    +0.000 Cl
ATOM     20  C   UNL     1      60.199  62.922  68.481  0.00  0.00    +0.000 A 
ATOM     21  C   UNL     1      60.507  62.165  68.597  0.00  0.00    +0.000 A 
ATOM     22  C   UNL     1      60.799  61.948  69.338  0.00  0.00    +0.000 A 
ATOM     23  C   UNL     1      60.782  62.489  69.962  0.00  0.00    +0.000 A 
ENDROOT
TORSDOF 0
ENDMDL
MODEL 3
REMARK VINA RESULT:   -10.820      1.772      2.365
REMARK INTER + INTRA:         -10.820
REMARK INTER:                 -10.820
REMARK INTRA:                   0.000
REMARK UNBOUND:                 0.000
ROOT
REMARK  Name = metaclazepam
REMARK                            x       y       z     vdW  Elec       q    Type
REMARK                         _______ _______ _______ _____ _____    ______ ____
ATOM      1  C   UNL     1      60.337  62.205  66.291  0.00  0.00    +0.000 C 
ATOM      2  O   UNL     1      60.520  62.353  67.081  0.00  0.00    +0.000 OA
ATOM      3  C   UNL     1      61.015  62.982  67.280  0.00  0.00    +0.000 C 
ATOM      4  C   UNL     1      61.198  63.130  68.070  0.00  0.00    +0.000 C 
ATOM      5  C   UNL     1      61.698  63.771  68.208  0.00  0.00    +0.000 C 
ATOM      6  N   UNL     1      61.980  64.058  68.929  0.00  0.00    +0.000 NA
ATOM      7  C   UNL     1      61.832  63.773  69.690  0.00  0.00    +0.000 C 
ATOM      8  C   UNL     1      61.366  63.131  69.917  0.00  0.00    +0.000 A 
ATOM      9  C   UNL     1      61.366  63.034  70.736  0.00  0.00    +0.000 A 
ATOM     10  C   UNL     1      60.932  62.422  71.078  0.00  0.00    +0.000 A 
ATOM     11 BR   UNL     1      60.932  62.325  71.898  0.00  0.00    +0.000 Br
ATOM     12  C   UNL     1      60.499  61.907  70.601  0.00  0.00    +0.000 A 
ATOM     13  C   UNL     1      60.499  62.004  69.783  0.00  0.00    +0.000 A 
ATOM     14  C   UNL     1      60.932  62.616  69.440  0.00  0.00    +0.000 A 
ATOM     15  N   UNL     1      60.857  62.615  68.619  0.00  0.00    +0.000 N 
ATOM     16  C   UNL     1      60.379  62.022  68.303  0.00  0.00    +0.000 C 
ATOM     17  C   UNL     1      62.199  64.184  70.303  0.00  0.00    +0.000 A 
ATOM     18  C   UNL     1      62.678  64.835  70.135  0.00  0.00    +0.000 A 
ATOM     19 CL   UNL     1      62.789  65.075  69.354  0.00  0.00    +0.000 Cl
ATOM     20  C   UNL     1      63.045  65.246  70.749  0.00  0.00    +0.000 A 
ATOM     21  C   UNL     1      62.934  65.007  71.530  0.00  0.00    +0.000 A 
ATOM     22  C   UNL     1      62.455  64.356  71.698  0.00  0.00    +0.000 A 
ATOM     23  C   UNL     1      62.088  63.945  71.084  0.00  0.00    +0.000 A 
ENDROOT
TORSDOF 0
ENDMDL
MODEL 4
REMARK VINA RESULT:   -10.712      2.421      3.374
REMARK INTER + INTRA:         -10.712
REMARK INTER:                 -10.712
REMARK INTRA:                   0.000
REMARK UNBOUND:                 0.000
ROOT
REMARK  Name = metaclazepam
REMARK                            x       y       z     vdW  Elec       q    Type
REMARK                         _______ _______ _______ _____ _____    ______ ____
ATOM      1  C   UNL     1      64.482  66.502  69.792  0.00  0.00    +0.000 C 
ATOM      2  O   UNL     1      63.949  65.936  70.066  0.00  0.00    +0.000 OA
ATOM      3  C   UNL     1      63.572  65.431  69.533  0.00  0.00    +0.000 C 
ATOM      4  C   UNL     1      63.039  64.864  69.807  0.00  0.00    +0.000 C 
ATOM      5  C   UNL     1      62.694  64.389  69.229  0.00  0.00    +0.000 C 
ATOM      6  N   UNL     1      62.146  63.780  69.324  0.00  0.00    +0.000 NA
ATOM      7  C   UNL     1      61.807  63.496  70.022  0.00  0.00    +0.000 C 
ATOM      8  C   UNL     1      61.934  63.752  70.796  0.00  0.00    +0.000 A 
ATOM      9  C   UNL     1      61.484  63.317  71.334  0.00  0.00    +0.000 A 
ATOM     10  C   UNL     1      61.530  63.486  72.140  0.00  0.00    +0.000 A 
ATOM     11 BR   UNL     1      61.080  63.052  72.678  0.00  0.00    +0.000 Br
ATOM     12  C   UNL     1      62.026  64.088  72.408  0.00  0.00    +0.000 A 
ATOM     13  C   UNL     1      62.476  64.522  71.870  0.00  0.00    +0.000 A 
ATOM     14  C   UNL     1      62.430  64.354  71.064  0.00  0.00    +0.000 A 
ATOM     15  N   UNL     1      62.922  64.849  70.624  0.00  0.00    +0.000 N 
ATOM     16  C   UNL     1      63.353  65.402  71.058  0.00  0.00    +0.000 C 
ATOM     17  C   UNL     1      61.272  62.875  69.932  0.00  0.00    +0.000 A 
ATOM     18  C   UNL     1      61.106  62.578  69.181  0.00  0.00    +0.000 A 
ATOM     19 CL   UNL     1      61.475  62.901  68.518  0.00  0.00    +0.000 Cl
ATOM     20  C   UNL     1      60.571  61.956  69.093  0.00  0.00    +0.000 A 
ATOM     21  C   UNL     1      60.201  61.632  69.755  0.00  0.00    +0.000 A 
ATOM     22  C   UNL     1      60.367  61.929  70.506  0.00  0.00    +0.000 A 
ATOM     23  C   UNL     1      60.903  62.551  70.595  0.00  0.00    +0.000 A 
ENDROOT
TORSDOF 0
ENDMDL
MODEL 5
REMARK VINA RESULT:   -10.711      1.862      2.920
REMARK INTER + INTRA:         -10.711
REMARK INTER:                 -10.711
REMARK INTRA:                   0.000
REMARK UNBOUND:                 0.000
ROOT
REMARK  Name = metaclazepam
REMARK                            x       y       z     vdW  Elec       q    Type
REMARK                         _______ _______ _______ _____ _____    ______ ____
ATOM      1  C   UNL     1      59.822  67.611  70.798  0.00  0.00    +0.000 C 
ATOM      2  O   UNL     1      59.981  66.810  70.680  0.00  0.00    +0.000 OA
ATOM      3  C   UNL     1      60.272  66.351  71.300  0.00  0.00    +0.000 C 
ATOM      4  C   UNL     1      60.431  65.551  71.182  0.00  0.00    +0.000 C 
ATOM      5  C   UNL     1      60.720  65.143  71.838  0.00  0.00    +0.000 C 
ATOM      6  N   UNL     1      60.929  64.347  71.897  0.00  0.00    +0.000 NA
ATOM      7  C   UNL     1      60.900  63.762  71.315  0.00  0.00    +0.000 C 
ATOM      8  C   UNL     1      60.654  63.830  70.530  0.00  0.00    +0.000 A 
ATOM      9  C   UNL     1      60.713  63.109  70.134  0.00  0.00    +0.000 A 
ATOM     10  C   UNL     1      60.494  63.056  69.340  0.00  0.00    +0.000 A 
ATOM     11 BR   UNL     1      60.551  62.335  68.944  0.00  0.00    +0.000 Br
ATOM     12  C   UNL     1      60.217  63.725  68.943  0.00  0.00    +0.000 A 
ATOM     13  C   UNL     1      60.159  64.445  69.340  0.00  0.00    +0.000 A 
ATOM     14  C   UNL     1      60.378  64.498  70.133  0.00  0.00    +0.000 A 
ATOM     15  N   UNL     1      60.278  65.264  70.423  0.00  0.00    +0.000 N 
ATOM     16  C   UNL     1      59.988  65.816  69.884  0.00  0.00    +0.000 C 
ATOM     17  C   UNL     1      61.149  63.012  71.550  0.00  0.00    +0.000 A 
ATOM     18  C   UNL     1      61.405  62.885  72.324  0.00  0.00    +0.000 A 
ATOM     19 CL   UNL     1      61.413  63.509  72.863  0.00  0.00    +0.000 Cl
ATOM     20  C   UNL     1      61.654  62.134  72.557  0.00  0.00    +0.000 A 
ATOM     21  C   UNL     1      61.647  61.510  72.018  0.00  0.00    +0.000 A 
ATOM     22  C   UNL     1      61.391  61.637  71.244  0.00  0.00    +0.000 A 
ATOM     23  C   UNL     1      61.142  62.388  71.010  0.00  0.00    +0.000 A 
ENDROOT
TORSDOF 0
ENDMDL
MODEL 6
REMARK VINA RESULT:   -10.575      4.197      5.172
REMARK INTER + INTRA:         -10.575
REMARK INTER:                 -10.575
REMARK INTRA:                   0.000
REMARK UNBOUND:                 0.000
ROOT
REMARK  Name = metaclazepam
REMARK                            x       y       z     vdW  Elec       q    Type
REMARK                         _______ _______ _______ _____ _____    ______ ____
ATOM      1  C   UNL     1      60.130  65.189  73.175  0.00  0.00    +0.000 C 
ATOM      2  O   UNL     1      60.818  65.235  72.722  0.00  0.00    +0.000 OA
ATOM      3  C   UNL     1      61.351  65.853  72.843  0.00  0.00    +0.000 C 
ATOM      4  C   UNL     1      62.039  65.900  72.390  0.00  0.00    +0.000 C 
ATOM      5  C   UNL     1      62.534  66.538  72.556  0.00  0.00    +0.000 C 
ATOM      6  N   UNL     1      63.252  66.736  72.203  0.00  0.00    +0.000 NA
ATOM      7  C   UNL     1      63.655  66.344  71.598  0.00  0.00    +0.000 C 
ATOM      8  C   UNL     1      63.435  65.657  71.196  0.00  0.00    +0.000 A 
ATOM      9  C   UNL     1      63.996  65.450  70.628  0.00  0.00    +0.000 A 
ATOM     10  C   UNL     1      63.882  64.778  70.163  0.00  0.00    +0.000 A 
ATOM     11 BR   UNL     1      64.443  64.570  69.594  0.00  0.00    +0.000 Br
ATOM     12  C   UNL     1      63.208  64.313  70.267  0.00  0.00    +0.000 A 
ATOM     13  C   UNL     1      62.648  64.521  70.836  0.00  0.00    +0.000 A 
ATOM     14  C   UNL     1      62.761  65.192  71.300  0.00  0.00    +0.000 A 
ATOM     15  N   UNL     1      62.140  65.300  71.831  0.00  0.00    +0.000 N 
ATOM     16  C   UNL     1      61.540  64.735  71.800  0.00  0.00    +0.000 C 
ATOM     17  C   UNL     1      64.369  66.684  71.364  0.00  0.00    +0.000 A 
ATOM     18  C   UNL     1      64.638  67.372  71.731  0.00  0.00    +0.000 A 
ATOM     19 CL   UNL     1      64.193  67.720  72.332  0.00  0.00    +0.000 Cl
ATOM     20  C   UNL     1      65.352  67.711  71.497  0.00  0.00    +0.000 A 
ATOM     21  C   UNL     1      65.798  67.363  70.896  0.00  0.00    +0.000 A 
ATOM     22  C   UNL     1      65.529  66.675  70.529  0.00  0.00    +0.000 A 
ATOM     23  C   UNL     1      64.813  66.335  70.764  0.00  0.00    +0.000 A 
ENDROOT
TORSDOF 0
ENDMDL
MODEL 7
REMARK VINA RESULT:   -10.530      3.559      4.101
REMARK INTER + INTRA:         -10.530
REMARK INTER:                 -10.530
REMARK INTRA:                   0.000
REMARK UNBOUND:                 0.000
ROOT
REMARK  Name = metaclazepam
REMARK                            x       y       z     vdW  Elec       q    Type
REMARK                         _______ _______ _______ _____ _____    ______ ____
ATOM      1  C   UNL     1      61.151  62.977  69.009  0.00  0.00    +0.000 C 
ATOM      2  O   UNL     1      61.510  63.544  69.489  0.00  0.00    +0.000 OA
ATOM      3  C   UNL     1      62.224  63.887  69.259  0.00  0.00    +0.000 C 
ATOM      4  C   UNL     1      62.583  64.454  69.738  0.00  0.00    +0.000 C 
ATOM      5  C   UNL     1      63.295  64.761  69.457  0.00  0.00    +0.000 C 
ATOM      6  N   UNL     1      63.782  65.329  69.804  0.00  0.00    +0.000 NA
ATOM      7  C   UNL     1      63.678  65.731  70.518  0.00  0.00    +0.000 C 
ATOM      8  C   UNL     1      63.059  65.663  71.060  0.00  0.00    +0.000 A 
ATOM      9  C   UNL     1      63.168  66.166  71.705  0.00  0.00    +0.000 A 
ATOM     10  C   UNL     1      62.610  66.183  72.312  0.00  0.00    +0.000 A 
ATOM     11 BR   UNL     1      62.719  66.687  72.957  0.00  0.00    +0.000 Br
ATOM     12  C   UNL     1      61.945  65.698  72.275  0.00  0.00    +0.000 A 
ATOM     13  C   UNL     1      61.837  65.195  71.631  0.00  0.00    +0.000 A 
ATOM     14  C   UNL     1      62.393  65.177  71.024  0.00  0.00    +0.000 A 
ATOM     15  N   UNL     1      62.181  64.639  70.436  0.00  0.00    +0.000 N 
ATOM     16  C   UNL     1      61.475  64.233  70.560  0.00  0.00    +0.000 C 
ATOM     17  C   UNL     1      64.269  66.271  70.714  0.00  0.00    +0.000 A 
ATOM     18  C   UNL     1      64.912  66.381  70.209  0.00  0.00    +0.000 A 
ATOM     19 CL   UNL     1      64.964  65.950  69.507  0.00  0.00    +0.000 Cl
ATOM     20  C   UNL     1      65.503  66.921  70.406  0.00  0.00    +0.000 A 
ATOM     21  C   UNL     1      65.452  67.352  71.108  0.00  0.00    +0.000 A 
ATOM     22  C   UNL     1      64.809  67.242  71.613  0.00  0.00    +0.000 A 
ATOM     23  C   UNL     1      64.217  66.701  71.416  0.00  0.00    +0.000 A 
ENDROOT
TORSDOF 0
ENDMDL
MODEL 8
REMARK VINA RESULT:   -10.288      2.925      3.968
REMARK INTER + INTRA:         -10.288
REMARK INTER:                 -10.288
REMARK INTRA:                   0.000
REMARK UNBOUND:                 0.000
ROOT
REMARK  Name = metaclazepam
REMARK                            x       y       z     vdW  Elec       q    Type
REMARK                         _______ _______ _______ _____ _____    ______ ____
ATOM      1  C   UNL     1      64.664  67.388  71.876  0.00  0.00    +0.000 C 
ATOM      2  O   UNL     1      63.969  66.956  71.978  0.00  0.00    +0.000 OA
ATOM      3  C   UNL     1      63.880  66.223  71.610  0.00  0.00    +0.000 C 
ATOM      4  C   UNL     1      63.185  65.791  71.712  0.00  0.00    +0.000 C 
ATOM      5  C   UNL     1      63.153  65.066  71.321  0.00  0.00    +0.000 C 
ATOM      6  N   UNL     1      62.542  64.512  71.313  0.00  0.00    +0.000 NA
ATOM      7  C   UNL     1      61.811  64.547  71.695  0.00  0.00    +0.000 C 
ATOM      8  C   UNL     1      61.511  65.144  72.179  0.00  0.00    +0.000 A 
ATOM      9  C   UNL     1      60.755  64.960  72.450  0.00  0.00    +0.000 A 
ATOM     10  C   UNL     1      60.355  65.487  72.944  0.00  0.00    +0.000 A 
ATOM     11 BR   UNL     1      59.598  65.303  73.216  0.00  0.00    +0.000 Br
ATOM     12  C   UNL     1      60.712  66.197  73.166  0.00  0.00    +0.000 A 
ATOM     13  C   UNL     1      61.468  66.380  72.894  0.00  0.00    +0.000 A 
ATOM     14  C   UNL     1      61.868  65.855  72.401  0.00  0.00    +0.000 A 
ATOM     15  N   UNL     1      62.613  66.142  72.193  0.00  0.00    +0.000 N 
ATOM     16  C   UNL     1      62.812  66.878  72.507  0.00  0.00    +0.000 C 
ATOM     17  C   UNL     1      61.315  63.899  71.577  0.00  0.00    +0.000 A 
ATOM     18  C   UNL     1      61.562  63.271  71.102  0.00  0.00    +0.000 A 
ATOM     19 CL   UNL     1      62.305  63.291  70.745  0.00  0.00    +0.000 Cl
ATOM     20  C   UNL     1      61.065  62.623  70.985  0.00  0.00    +0.000 A 
ATOM     21  C   UNL     1      60.322  62.602  71.341  0.00  0.00    +0.000 A 
ATOM     22  C   UNL     1      60.074  63.230  71.816  0.00  0.00    +0.000 A 
ATOM     23  C   UNL     1      60.572  63.878  71.934  0.00  0.00    +0.000 A 
ENDROOT
TORSDOF 0
ENDMDL
MODEL 9
REMARK VINA RESULT:   -10.230      4.057      4.813
REMARK INTER + INTRA:         -10.230
REMARK INTER:                 -10.230
REMARK INTRA:                   0.000
REMARK UNBOUND:                 0.000
ROOT
REMARK  Name = metaclazepam
REMARK                            x       y       z     vdW  Elec       q    Type
REMARK                         _______ _______ _______ _____ _____    ______ ____
ATOM      1  C   UNL     1      66.344  67.639  70.197  0.00  0.00    +0.000 C 
ATOM      2  O   UNL     1      65.714  67.116  70.297  0.00  0.00    +0.000 OA
ATOM      3  C   UNL     1      65.222  67.183  70.956  0.00  0.00    +0.000 C 
ATOM      4  C   UNL     1      64.592  66.661  71.056  0.00  0.00    +0.000 C 
ATOM      5  C   UNL     1      64.135  66.776  71.733  0.00  0.00    +0.000 C 
ATOM      6  N   UNL     1      63.476  66.350  71.987  0.00  0.00    +0.000 NA
ATOM      7  C   UNL     1      63.110  65.704  71.626  0.00  0.00    +0.000 C 
ATOM      8  C   UNL     1      63.315  65.324  70.923  0.00  0.00    +0.000 A 
ATOM      9  C   UNL     1      62.803  64.698  70.759  0.00  0.00    +0.000 A 
ATOM     10  C   UNL     1      62.911  64.245  70.079  0.00  0.00    +0.000 A 
ATOM     11 BR   UNL     1      62.398  63.619  69.915  0.00  0.00    +0.000 Br
ATOM     12  C   UNL     1      63.531  64.417  69.562  0.00  0.00    +0.000 A 
ATOM     13  C   UNL     1      64.042  65.043  69.726  0.00  0.00    +0.000 A 
ATOM     14  C   UNL     1      63.934  65.496  70.406  0.00  0.00    +0.000 A 
ATOM     15  N   UNL     1      64.503  66.091  70.465  0.00  0.00    +0.000 N 
ATOM     16  C   UNL     1      65.055  66.120  69.854  0.00  0.00    +0.000 C 
ATOM     17  C   UNL     1      62.454  65.398  72.022  0.00  0.00    +0.000 A 
ATOM     18  C   UNL     1      62.204  65.738  72.730  0.00  0.00    +0.000 A 
ATOM     19 CL   UNL     1      62.609  66.384  73.044  0.00  0.00    +0.000 Cl
ATOM     20  C   UNL     1      61.548  65.431  73.125  0.00  0.00    +0.000 A 
ATOM     21  C   UNL     1      61.142  64.785  72.812  0.00  0.00    +0.000 A 
ATOM     22  C   UNL     1      61.392  64.445  72.104  0.00  0.00    +0.000 A 
ATOM     23  C   UNL     1      62.049  64.752  71.708  0.00  0.00    +0.000 A 
ENDROOT
TORSDOF 0
ENDMDL
