MODEL 1
REMARK VINA RESULT:    -4.589      0.000      0.000
REMARK INTER + INTRA:          -4.589
REMARK INTER:                  -4.589
REMARK INTRA:                   0.000
REMARK UNBOUND:                 0.000
ROOT
REMARK  Name = metformin
REMARK                            x       y       z     vdW  Elec       q    Type
REMARK                         _______ _______ _______ _____ _____    ______ ____
ATOM      1  C   UNL     1      62.306  61.912  64.287  0.00  0.00    +0.000 C 
ATOM      2  N   UNL     1      61.575  61.802  64.650  0.00  0.00    +0.000 N 
ATOM      3  C   UNL     1      61.021  61.290  64.315  0.00  0.00    +0.000 C 
ATOM      4  C   UNL     1      61.396  62.202  65.350  0.00  0.00    +0.000 C 
ATOM      5  N   UNL     1      61.950  62.714  65.685  0.00  0.00    +0.000 NA
ATOM      6  N   UNL     1      60.664  62.091  65.713  0.00  0.00    +0.000 NA
ATOM      7  C   UNL     1      60.486  62.491  66.411  0.00  0.00    +0.000 C 
ATOM      8  N   UNL     1      59.754  62.381  66.776  0.00  0.00    +0.000 NA
ATOM      9  N   UNL     1      61.040  63.003  66.747  0.00  0.00    +0.000 NA
ENDROOT
TORSDOF 0
ENDMDL
MODEL 2
REMARK VINA RESULT:    -4.534      0.723      2.276
REMARK INTER + INTRA:          -4.534
REMARK INTER:                  -4.534
REMARK INTRA:                   0.000
REMARK UNBOUND:                 0.000
ROOT
REMARK  Name = metformin
REMARK                            x       y       z     vdW  Elec       q    Type
REMARK                         _______ _______ _______ _____ _____    ______ ____
ATOM      1  C   UNL     1      60.147  62.711  67.211  0.00  0.00    +0.000 C 
ATOM      2  N   UNL     1      60.220  62.351  66.473  0.00  0.00    +0.000 N 
ATOM      3  C   UNL     1      59.565  61.993  66.123  0.00  0.00    +0.000 C 
ATOM      4  C   UNL     1      60.948  62.349  66.085  0.00  0.00    +0.000 C 
ATOM      5  N   UNL     1      61.604  62.707  66.436  0.00  0.00    +0.000 NA
ATOM      6  N   UNL     1      61.021  61.989  65.347  0.00  0.00    +0.000 NA
ATOM      7  C   UNL     1      61.749  61.987  64.959  0.00  0.00    +0.000 C 
ATOM      8  N   UNL     1      61.823  61.627  64.221  0.00  0.00    +0.000 NA
ATOM      9  N   UNL     1      62.405  62.345  65.311  0.00  0.00    +0.000 NA
ENDROOT
TORSDOF 0
ENDMDL
MODEL 3
REMARK VINA RESULT:    -4.131      1.663      2.241
REMARK INTER + INTRA:          -4.131
REMARK INTER:                  -4.131
REMARK INTRA:                   0.000
REMARK UNBOUND:                 0.000
ROOT
REMARK  Name = metformin
REMARK                            x       y       z     vdW  Elec       q    Type
REMARK                         _______ _______ _______ _____ _____    ______ ____
ATOM      1  C   UNL     1      61.657  62.930  66.075  0.00  0.00    +0.000 C 
ATOM      2  N   UNL     1      61.430  62.384  66.650  0.00  0.00    +0.000 N 
ATOM      3  C   UNL     1      61.469  61.576  66.489  0.00  0.00    +0.000 C 
ATOM      4  C   UNL     1      61.165  62.645  67.386  0.00  0.00    +0.000 C 
ATOM      5  N   UNL     1      61.126  63.454  67.548  0.00  0.00    +0.000 NA
ATOM      6  N   UNL     1      60.938  62.099  67.961  0.00  0.00    +0.000 NA
ATOM      7  C   UNL     1      60.672  62.360  68.696  0.00  0.00    +0.000 C 
ATOM      8  N   UNL     1      60.445  61.814  69.271  0.00  0.00    +0.000 NA
ATOM      9  N   UNL     1      60.633  63.170  68.857  0.00  0.00    +0.000 NA
ENDROOT
TORSDOF 0
ENDMDL
MODEL 4
REMARK VINA RESULT:    -3.987      2.043      3.589
REMARK INTER + INTRA:          -3.987
REMARK INTER:                  -3.987
REMARK INTRA:                   0.000
REMARK UNBOUND:                 0.000
ROOT
REMARK  Name = metformin
REMARK                            x       y       z     vdW  Elec       q    Type
REMARK                         _______ _______ _______ _____ _____    ______ ____
ATOM      1  C   UNL     1      60.527  62.579  69.771  0.00  0.00    +0.000 C 
ATOM      2  N   UNL     1      60.982  62.874  69.149  0.00  0.00    +0.000 N 
ATOM      3  C   UNL     1      61.550  63.454  69.294  0.00  0.00    +0.000 C 
ATOM      4  C   UNL     1      60.870  62.588  68.383  0.00  0.00    +0.000 C 
ATOM      5  N   UNL     1      60.301  62.007  68.239  0.00  0.00    +0.000 NA
ATOM      6  N   UNL     1      61.325  62.883  67.762  0.00  0.00    +0.000 NA
ATOM      7  C   UNL     1      61.212  62.598  66.997  0.00  0.00    +0.000 C 
ATOM      8  N   UNL     1      61.668  62.892  66.375  0.00  0.00    +0.000 NA
ATOM      9  N   UNL     1      60.644  62.016  66.853  0.00  0.00    +0.000 NA
ENDROOT
TORSDOF 0
ENDMDL
MODEL 5
REMARK VINA RESULT:    -3.980     11.719     12.505
REMARK INTER + INTRA:          -3.980
REMARK INTER:                  -3.980
REMARK INTRA:                   0.000
REMARK UNBOUND:                 0.000
ROOT
REMARK  Name = metformin
REMARK                            x       y       z     vdW  Elec       q    Type
REMARK                         _______ _______ _______ _____ _____    ______ ____
ATOM      1  C   UNL     1      64.628  61.582  52.799  0.00  0.00    +0.000 C 
ATOM      2  N   UNL     1      64.248  61.237  53.445  0.00  0.00    +0.000 N 
ATOM      3  C   UNL     1      64.061  61.694  54.106  0.00  0.00    +0.000 C 
ATOM      4  C   UNL     1      64.053  60.436  53.430  0.00  0.00    +0.000 C 
ATOM      5  N   UNL     1      64.240  59.978  52.768  0.00  0.00    +0.000 NA
ATOM      6  N   UNL     1      63.673  60.091  54.075  0.00  0.00    +0.000 NA
ATOM      7  C   UNL     1      63.479  59.290  54.060  0.00  0.00    +0.000 C 
ATOM      8  N   UNL     1      63.099  58.944  54.706  0.00  0.00    +0.000 NA
ATOM      9  N   UNL     1      63.666  58.832  53.398  0.00  0.00    +0.000 NA
ENDROOT
TORSDOF 0
ENDMDL
MODEL 6
REMARK VINA RESULT:    -3.965     11.762     12.538
REMARK INTER + INTRA:          -3.965
REMARK INTER:                  -3.965
REMARK INTRA:                   0.000
REMARK UNBOUND:                 0.000
ROOT
REMARK  Name = metformin
REMARK                            x       y       z     vdW  Elec       q    Type
REMARK                         _______ _______ _______ _____ _____    ______ ____
ATOM      1  C   UNL     1      63.527  58.655  53.157  0.00  0.00    +0.000 C 
ATOM      2  N   UNL     1      63.553  59.290  53.682  0.00  0.00    +0.000 N 
ATOM      3  C   UNL     1      63.229  59.215  54.437  0.00  0.00    +0.000 C 
ATOM      4  C   UNL     1      63.904  60.002  53.453  0.00  0.00    +0.000 C 
ATOM      5  N   UNL     1      64.228  60.077  52.697  0.00  0.00    +0.000 NA
ATOM      6  N   UNL     1      63.930  60.637  53.978  0.00  0.00    +0.000 NA
ATOM      7  C   UNL     1      64.280  61.347  53.748  0.00  0.00    +0.000 C 
ATOM      8  N   UNL     1      64.307  61.983  54.273  0.00  0.00    +0.000 NA
ATOM      9  N   UNL     1      64.605  61.422  52.993  0.00  0.00    +0.000 NA
ENDROOT
TORSDOF 0
ENDMDL
MODEL 7
REMARK VINA RESULT:    -3.952      3.049      4.088
REMARK INTER + INTRA:          -3.952
REMARK INTER:                  -3.952
REMARK INTRA:                   0.000
REMARK UNBOUND:                 0.000
ROOT
REMARK  Name = metformin
REMARK                            x       y       z     vdW  Elec       q    Type
REMARK                         _______ _______ _______ _____ _____    ______ ____
ATOM      1  C   UNL     1      61.277  62.974  67.676  0.00  0.00    +0.000 C 
ATOM      2  N   UNL     1      61.304  63.161  68.478  0.00  0.00    +0.000 N 
ATOM      3  C   UNL     1      61.685  63.847  68.729  0.00  0.00    +0.000 C 
ATOM      4  C   UNL     1      60.949  62.661  69.031  0.00  0.00    +0.000 C 
ATOM      5  N   UNL     1      60.567  61.973  68.780  0.00  0.00    +0.000 NA
ATOM      6  N   UNL     1      60.976  62.848  69.833  0.00  0.00    +0.000 NA
ATOM      7  C   UNL     1      60.621  62.348  70.385  0.00  0.00    +0.000 C 
ATOM      8  N   UNL     1      60.647  62.535  71.189  0.00  0.00    +0.000 NA
ATOM      9  N   UNL     1      60.239  61.660  70.134  0.00  0.00    +0.000 NA
ENDROOT
TORSDOF 0
ENDMDL
MODEL 8
REMARK VINA RESULT:    -3.934     24.823     25.599
REMARK INTER + INTRA:          -3.934
REMARK INTER:                  -3.934
REMARK INTRA:                   0.000
REMARK UNBOUND:                 0.000
ROOT
REMARK  Name = metformin
REMARK                            x       y       z     vdW  Elec       q    Type
REMARK                         _______ _______ _______ _____ _____    ______ ____
ATOM      1  C   UNL     1      72.854  79.147  48.587  0.00  0.00    +0.000 C 
ATOM      2  N   UNL     1      72.338  79.507  49.119  0.00  0.00    +0.000 N 
ATOM      3  C   UNL     1      72.559  80.205  49.500  0.00  0.00    +0.000 C 
ATOM      4  C   UNL     1      71.600  79.171  49.272  0.00  0.00    +0.000 C 
ATOM      5  N   UNL     1      71.379  78.472  48.890  0.00  0.00    +0.000 NA
ATOM      6  N   UNL     1      71.084  79.531  49.804  0.00  0.00    +0.000 NA
ATOM      7  C   UNL     1      70.347  79.194  49.956  0.00  0.00    +0.000 C 
ATOM      8  N   UNL     1      69.830  79.554  50.489  0.00  0.00    +0.000 NA
ATOM      9  N   UNL     1      70.126  78.496  49.575  0.00  0.00    +0.000 NA
ENDROOT
TORSDOF 0
ENDMDL
MODEL 9
REMARK VINA RESULT:    -3.916      6.669      7.490
REMARK INTER + INTRA:          -3.916
REMARK INTER:                  -3.916
REMARK INTRA:                   0.000
REMARK UNBOUND:                 0.000
ROOT
REMARK  Name = metformin
REMARK                            x       y       z     vdW  Elec       q    Type
REMARK                         _______ _______ _______ _____ _____    ______ ____
ATOM      1  C   UNL     1      58.963  64.855  72.074  0.00  0.00    +0.000 C 
ATOM      2  N   UNL     1      59.343  65.281  71.480  0.00  0.00    +0.000 N 
ATOM      3  C   UNL     1      59.758  64.884  70.889  0.00  0.00    +0.000 C 
ATOM      4  C   UNL     1      59.309  66.106  71.476  0.00  0.00    +0.000 C 
ATOM      5  N   UNL     1      58.893  66.504  72.068  0.00  0.00    +0.000 NA
ATOM      6  N   UNL     1      59.689  66.532  70.882  0.00  0.00    +0.000 NA
ATOM      7  C   UNL     1      59.654  67.356  70.879  0.00  0.00    +0.000 C 
ATOM      8  N   UNL     1      60.035  67.783  70.284  0.00  0.00    +0.000 NA
ATOM      9  N   UNL     1      59.238  67.754  71.471  0.00  0.00    +0.000 NA
ENDROOT
TORSDOF 0
ENDMDL
