MODEL 1
REMARK VINA RESULT:    -7.894      0.000      0.000
REMARK INTER + INTRA:          -7.894
REMARK INTER:                  -7.894
REMARK INTRA:                   0.000
REMARK UNBOUND:                 0.000
ROOT
REMARK  Name = methaniazide
REMARK                            x       y       z     vdW  Elec       q    Type
REMARK                         _______ _______ _______ _____ _____    ______ ____
ATOM      1  O   UNL     1      61.101  63.842  69.418  0.00  0.00    +0.000 OA
ATOM      2  S   UNL     1      61.390  63.643  68.671  0.00  0.00    +0.000 S 
ATOM      3  O   UNL     1      62.066  64.095  68.813  0.00  0.00    +0.000 OA
ATOM      4  O   UNL     1      60.714  63.190  68.530  0.00  0.00    +0.000 OA
ATOM      5  C   UNL     1      61.680  63.443  67.925  0.00  0.00    +0.000 C 
ATOM      6  N   UNL     1      61.239  62.952  67.430  0.00  0.00    +0.000 NA
ATOM      7  N   UNL     1      61.528  62.753  66.683  0.00  0.00    +0.000 NA
ATOM      8  C   UNL     1      61.088  62.262  66.187  0.00  0.00    +0.000 C 
ATOM      9  O   UNL     1      60.358  61.970  66.438  0.00  0.00    +0.000 OA
ATOM     10  C   UNL     1      61.377  62.063  65.442  0.00  0.00    +0.000 A 
ATOM     11  C   UNL     1      60.937  61.572  64.946  0.00  0.00    +0.000 A 
ATOM     12  C   UNL     1      61.226  61.372  64.199  0.00  0.00    +0.000 A 
ATOM     13  N   UNL     1      61.956  61.664  63.949  0.00  0.00    +0.000 NA
ATOM     14  C   UNL     1      62.397  62.155  64.444  0.00  0.00    +0.000 A 
ATOM     15  C   UNL     1      62.107  62.354  65.190  0.00  0.00    +0.000 A 
ENDROOT
TORSDOF 0
ENDMDL
MODEL 2
REMARK VINA RESULT:    -7.539      2.057      4.040
REMARK INTER + INTRA:          -7.539
REMARK INTER:                  -7.539
REMARK INTRA:                   0.000
REMARK UNBOUND:                 0.000
ROOT
REMARK  Name = methaniazide
REMARK                            x       y       z     vdW  Elec       q    Type
REMARK                         _______ _______ _______ _____ _____    ______ ____
ATOM      1  O   UNL     1      62.248  62.279  64.414  0.00  0.00    +0.000 OA
ATOM      2  S   UNL     1      61.975  62.087  65.169  0.00  0.00    +0.000 S 
ATOM      3  O   UNL     1      61.969  61.288  64.963  0.00  0.00    +0.000 OA
ATOM      4  O   UNL     1      61.981  62.887  65.374  0.00  0.00    +0.000 OA
ATOM      5  C   UNL     1      61.702  61.895  65.923  0.00  0.00    +0.000 C 
ATOM      6  N   UNL     1      61.571  62.491  66.478  0.00  0.00    +0.000 NA
ATOM      7  N   UNL     1      61.297  62.299  67.232  0.00  0.00    +0.000 NA
ATOM      8  C   UNL     1      61.166  62.895  67.788  0.00  0.00    +0.000 C 
ATOM      9  O   UNL     1      61.307  63.683  67.588  0.00  0.00    +0.000 OA
ATOM     10  C   UNL     1      60.893  62.703  68.542  0.00  0.00    +0.000 A 
ATOM     11  C   UNL     1      60.761  63.299  69.097  0.00  0.00    +0.000 A 
ATOM     12  C   UNL     1      60.488  63.107  69.852  0.00  0.00    +0.000 A 
ATOM     13  N   UNL     1      60.347  62.319  70.050  0.00  0.00    +0.000 NA
ATOM     14  C   UNL     1      60.478  61.723  69.496  0.00  0.00    +0.000 A 
ATOM     15  C   UNL     1      60.751  61.915  68.741  0.00  0.00    +0.000 A 
ENDROOT
TORSDOF 0
ENDMDL
MODEL 3
REMARK VINA RESULT:    -6.863      5.726      6.645
REMARK INTER + INTRA:          -6.863
REMARK INTER:                  -6.863
REMARK INTRA:                   0.000
REMARK UNBOUND:                 0.000
ROOT
REMARK  Name = methaniazide
REMARK                            x       y       z     vdW  Elec       q    Type
REMARK                         _______ _______ _______ _____ _____    ______ ____
ATOM      1  O   UNL     1      61.567  63.978  71.241  0.00  0.00    +0.000 OA
ATOM      2  S   UNL     1      62.240  64.436  71.372  0.00  0.00    +0.000 S 
ATOM      3  O   UNL     1      62.199  64.265  72.178  0.00  0.00    +0.000 OA
ATOM      4  O   UNL     1      62.281  64.608  70.565  0.00  0.00    +0.000 OA
ATOM      5  C   UNL     1      62.913  64.895  71.504  0.00  0.00    +0.000 C 
ATOM      6  N   UNL     1      63.285  65.273  70.871  0.00  0.00    +0.000 NA
ATOM      7  N   UNL     1      63.958  65.731  71.003  0.00  0.00    +0.000 NA
ATOM      8  C   UNL     1      64.330  66.109  70.370  0.00  0.00    +0.000 C 
ATOM      9  O   UNL     1      64.028  66.028  69.607  0.00  0.00    +0.000 OA
ATOM     10  C   UNL     1      65.002  66.567  70.502  0.00  0.00    +0.000 A 
ATOM     11  C   UNL     1      65.375  66.945  69.870  0.00  0.00    +0.000 A 
ATOM     12  C   UNL     1      66.048  67.404  70.002  0.00  0.00    +0.000 A 
ATOM     13  N   UNL     1      66.349  67.484  70.765  0.00  0.00    +0.000 NA
ATOM     14  C   UNL     1      65.977  67.107  71.398  0.00  0.00    +0.000 A 
ATOM     15  C   UNL     1      65.304  66.648  71.266  0.00  0.00    +0.000 A 
ENDROOT
TORSDOF 0
ENDMDL
MODEL 4
REMARK VINA RESULT:    -6.834      2.005      4.203
REMARK INTER + INTRA:          -6.834
REMARK INTER:                  -6.834
REMARK INTRA:                   0.000
REMARK UNBOUND:                 0.000
ROOT
REMARK  Name = methaniazide
REMARK                            x       y       z     vdW  Elec       q    Type
REMARK                         _______ _______ _______ _____ _____    ______ ____
ATOM      1  O   UNL     1      62.029  61.587  65.494  0.00  0.00    +0.000 OA
ATOM      2  S   UNL     1      61.755  62.191  65.984  0.00  0.00    +0.000 S 
ATOM      3  O   UNL     1      61.823  62.728  65.362  0.00  0.00    +0.000 OA
ATOM      4  O   UNL     1      61.686  61.653  66.607  0.00  0.00    +0.000 OA
ATOM      5  C   UNL     1      61.480  62.795  66.475  0.00  0.00    +0.000 C 
ATOM      6  N   UNL     1      61.283  62.630  67.260  0.00  0.00    +0.000 NA
ATOM      7  N   UNL     1      61.009  63.234  67.750  0.00  0.00    +0.000 NA
ATOM      8  C   UNL     1      60.812  63.071  68.535  0.00  0.00    +0.000 C 
ATOM      9  O   UNL     1      60.889  62.304  68.828  0.00  0.00    +0.000 OA
ATOM     10  C   UNL     1      60.537  63.674  69.025  0.00  0.00    +0.000 A 
ATOM     11  C   UNL     1      60.340  63.511  69.810  0.00  0.00    +0.000 A 
ATOM     12  C   UNL     1      60.066  64.115  70.300  0.00  0.00    +0.000 A 
ATOM     13  N   UNL     1      59.988  64.881  70.007  0.00  0.00    +0.000 NA
ATOM     14  C   UNL     1      60.185  65.045  69.222  0.00  0.00    +0.000 A 
ATOM     15  C   UNL     1      60.460  64.442  68.732  0.00  0.00    +0.000 A 
ENDROOT
TORSDOF 0
ENDMDL
MODEL 5
REMARK VINA RESULT:    -6.791      1.971      2.727
REMARK INTER + INTRA:          -6.791
REMARK INTER:                  -6.791
REMARK INTRA:                   0.000
REMARK UNBOUND:                 0.000
ROOT
REMARK  Name = methaniazide
REMARK                            x       y       z     vdW  Elec       q    Type
REMARK                         _______ _______ _______ _____ _____    ______ ____
ATOM      1  O   UNL     1      63.513  64.708  70.917  0.00  0.00    +0.000 OA
ATOM      2  S   UNL     1      63.222  64.442  70.192  0.00  0.00    +0.000 S 
ATOM      3  O   UNL     1      63.922  64.680  69.825  0.00  0.00    +0.000 OA
ATOM      4  O   UNL     1      62.522  64.204  70.560  0.00  0.00    +0.000 OA
ATOM      5  C   UNL     1      62.932  64.176  69.467  0.00  0.00    +0.000 C 
ATOM      6  N   UNL     1      62.181  63.837  69.423  0.00  0.00    +0.000 NA
ATOM      7  N   UNL     1      61.891  63.571  68.698  0.00  0.00    +0.000 NA
ATOM      8  C   UNL     1      61.140  63.232  68.653  0.00  0.00    +0.000 C 
ATOM      9  O   UNL     1      60.680  63.159  69.334  0.00  0.00    +0.000 OA
ATOM     10  C   UNL     1      60.850  62.966  67.929  0.00  0.00    +0.000 A 
ATOM     11  C   UNL     1      60.099  62.627  67.884  0.00  0.00    +0.000 A 
ATOM     12  C   UNL     1      59.809  62.361  67.159  0.00  0.00    +0.000 A 
ATOM     13  N   UNL     1      60.269  62.434  66.479  0.00  0.00    +0.000 NA
ATOM     14  C   UNL     1      61.020  62.774  66.523  0.00  0.00    +0.000 A 
ATOM     15  C   UNL     1      61.310  63.039  67.248  0.00  0.00    +0.000 A 
ENDROOT
TORSDOF 0
ENDMDL
MODEL 6
REMARK VINA RESULT:    -6.677      5.564      6.404
REMARK INTER + INTRA:          -6.677
REMARK INTER:                  -6.677
REMARK INTRA:                   0.000
REMARK UNBOUND:                 0.000
ROOT
REMARK  Name = methaniazide
REMARK                            x       y       z     vdW  Elec       q    Type
REMARK                         _______ _______ _______ _____ _____    ______ ____
ATOM      1  O   UNL     1      59.116  67.169  73.167  0.00  0.00    +0.000 OA
ATOM      2  S   UNL     1      59.209  66.441  72.790  0.00  0.00    +0.000 S 
ATOM      3  O   UNL     1      58.504  66.564  72.379  0.00  0.00    +0.000 OA
ATOM      4  O   UNL     1      59.914  66.318  73.202  0.00  0.00    +0.000 OA
ATOM      5  C   UNL     1      59.301  65.713  72.413  0.00  0.00    +0.000 C 
ATOM      6  N   UNL     1      59.958  65.243  72.582  0.00  0.00    +0.000 NA
ATOM      7  N   UNL     1      60.051  64.515  72.205  0.00  0.00    +0.000 NA
ATOM      8  C   UNL     1      60.708  64.043  72.373  0.00  0.00    +0.000 C 
ATOM      9  O   UNL     1      61.271  64.301  72.918  0.00  0.00    +0.000 OA
ATOM     10  C   UNL     1      60.801  63.316  71.997  0.00  0.00    +0.000 A 
ATOM     11  C   UNL     1      61.457  62.845  72.164  0.00  0.00    +0.000 A 
ATOM     12  C   UNL     1      61.549  62.117  71.787  0.00  0.00    +0.000 A 
ATOM     13  N   UNL     1      60.986  61.860  71.243  0.00  0.00    +0.000 NA
ATOM     14  C   UNL     1      60.330  62.331  71.074  0.00  0.00    +0.000 A 
ATOM     15  C   UNL     1      60.237  63.059  71.451  0.00  0.00    +0.000 A 
ENDROOT
TORSDOF 0
ENDMDL
MODEL 7
REMARK VINA RESULT:    -6.578      4.835      5.596
REMARK INTER + INTRA:          -6.578
REMARK INTER:                  -6.578
REMARK INTRA:                   0.000
REMARK UNBOUND:                 0.000
ROOT
REMARK  Name = methaniazide
REMARK                            x       y       z     vdW  Elec       q    Type
REMARK                         _______ _______ _______ _____ _____    ______ ____
ATOM      1  O   UNL     1      59.375  66.570  69.110  0.00  0.00    +0.000 OA
ATOM      2  S   UNL     1      59.670  66.133  69.745  0.00  0.00    +0.000 S 
ATOM      3  O   UNL     1      59.571  66.785  70.240  0.00  0.00    +0.000 OA
ATOM      4  O   UNL     1      59.770  65.480  69.249  0.00  0.00    +0.000 OA
ATOM      5  C   UNL     1      59.966  65.696  70.379  0.00  0.00    +0.000 C 
ATOM      6  N   UNL     1      60.200  64.913  70.267  0.00  0.00    +0.000 NA
ATOM      7  N   UNL     1      60.495  64.476  70.901  0.00  0.00    +0.000 NA
ATOM      8  C   UNL     1      60.729  63.692  70.789  0.00  0.00    +0.000 C 
ATOM      9  O   UNL     1      60.667  63.346  70.043  0.00  0.00    +0.000 OA
ATOM     10  C   UNL     1      61.025  63.256  71.423  0.00  0.00    +0.000 A 
ATOM     11  C   UNL     1      61.259  62.473  71.312  0.00  0.00    +0.000 A 
ATOM     12  C   UNL     1      61.554  62.036  71.946  0.00  0.00    +0.000 A 
ATOM     13  N   UNL     1      61.616  62.382  72.692  0.00  0.00    +0.000 NA
ATOM     14  C   UNL     1      61.382  63.165  72.804  0.00  0.00    +0.000 A 
ATOM     15  C   UNL     1      61.087  63.602  72.170  0.00  0.00    +0.000 A 
ENDROOT
TORSDOF 0
ENDMDL
MODEL 8
REMARK VINA RESULT:    -6.575      2.328      4.576
REMARK INTER + INTRA:          -6.575
REMARK INTER:                  -6.575
REMARK INTRA:                   0.000
REMARK UNBOUND:                 0.000
ROOT
REMARK  Name = methaniazide
REMARK                            x       y       z     vdW  Elec       q    Type
REMARK                         _______ _______ _______ _____ _____    ______ ____
ATOM      1  O   UNL     1      60.252  62.497  66.620  0.00  0.00    +0.000 OA
ATOM      2  S   UNL     1      60.873  62.840  67.041  0.00  0.00    +0.000 S 
ATOM      3  O   UNL     1      61.326  62.865  66.352  0.00  0.00    +0.000 OA
ATOM      4  O   UNL     1      60.419  62.814  67.731  0.00  0.00    +0.000 OA
ATOM      5  C   UNL     1      61.494  63.183  67.462  0.00  0.00    +0.000 C 
ATOM      6  N   UNL     1      61.412  63.332  68.269  0.00  0.00    +0.000 NA
ATOM      7  N   UNL     1      62.033  63.675  68.690  0.00  0.00    +0.000 NA
ATOM      8  C   UNL     1      61.951  63.824  69.498  0.00  0.00    +0.000 C 
ATOM      9  O   UNL     1      61.249  63.631  69.884  0.00  0.00    +0.000 OA
ATOM     10  C   UNL     1      62.572  64.167  69.919  0.00  0.00    +0.000 A 
ATOM     11  C   UNL     1      62.491  64.317  70.726  0.00  0.00    +0.000 A 
ATOM     12  C   UNL     1      63.112  64.659  71.147  0.00  0.00    +0.000 A 
ATOM     13  N   UNL     1      63.814  64.853  70.760  0.00  0.00    +0.000 NA
ATOM     14  C   UNL     1      63.897  64.704  69.953  0.00  0.00    +0.000 A 
ATOM     15  C   UNL     1      63.275  64.361  69.532  0.00  0.00    +0.000 A 
ENDROOT
TORSDOF 0
ENDMDL
MODEL 9
REMARK VINA RESULT:    -6.515      5.484      6.102
REMARK INTER + INTRA:          -6.515
REMARK INTER:                  -6.515
REMARK INTRA:                   0.000
REMARK UNBOUND:                 0.000
ROOT
REMARK  Name = methaniazide
REMARK                            x       y       z     vdW  Elec       q    Type
REMARK                         _______ _______ _______ _____ _____    ______ ____
ATOM      1  O   UNL     1      65.025  66.399  69.646  0.00  0.00    +0.000 OA
ATOM      2  S   UNL     1      64.531  65.770  69.849  0.00  0.00    +0.000 S 
ATOM      3  O   UNL     1      64.799  65.348  69.193  0.00  0.00    +0.000 OA
ATOM      4  O   UNL     1      64.262  66.193  70.506  0.00  0.00    +0.000 OA
ATOM      5  C   UNL     1      64.037  65.141  70.052  0.00  0.00    +0.000 C 
ATOM      6  N   UNL     1      63.558  65.193  70.722  0.00  0.00    +0.000 NA
ATOM      7  N   UNL     1      63.064  64.564  70.925  0.00  0.00    +0.000 NA
ATOM      8  C   UNL     1      62.584  64.616  71.595  0.00  0.00    +0.000 C 
ATOM      9  O   UNL     1      62.599  65.296  72.061  0.00  0.00    +0.000 OA
ATOM     10  C   UNL     1      62.091  63.987  71.798  0.00  0.00    +0.000 A 
ATOM     11  C   UNL     1      61.612  64.038  72.467  0.00  0.00    +0.000 A 
ATOM     12  C   UNL     1      61.118  63.409  72.670  0.00  0.00    +0.000 A 
ATOM     13  N   UNL     1      61.104  62.730  72.204  0.00  0.00    +0.000 NA
ATOM     14  C   UNL     1      61.583  62.678  71.534  0.00  0.00    +0.000 A 
ATOM     15  C   UNL     1      62.077  63.307  71.331  0.00  0.00    +0.000 A 
ENDROOT
TORSDOF 0
ENDMDL
