MODEL 1
REMARK VINA RESULT:   -13.085      0.000      0.000
REMARK INTER + INTRA:         -13.085
REMARK INTER:                 -13.085
REMARK INTRA:                   0.000
REMARK UNBOUND:                 0.000
ROOT
REMARK  Name = methylnaltrexone
REMARK                            x       y       z     vdW  Elec       q    Type
REMARK                         _______ _______ _______ _____ _____    ______ ____
ATOM      1  C   UNL     1      60.720  63.402  68.263  0.00  0.00    +0.000 C 
ATOM      2  N   UNL     1      60.987  63.094  67.546  0.00  0.00    +0.000 N 
ATOM      3  C   UNL     1      61.683  63.433  67.832  0.00  0.00    +0.000 C 
ATOM      4  C   UNL     1      61.683  63.819  68.561  0.00  0.00    +0.000 C 
ATOM      5  C   UNL     1      61.284  64.070  69.238  0.00  0.00    +0.000 C 
ATOM      6  C   UNL     1      62.086  64.238  69.146  0.00  0.00    +0.000 C 
ATOM      7  C   UNL     1      60.156  62.856  67.519  0.00  0.00    +0.000 C 
ATOM      8  C   UNL     1      60.027  62.384  66.694  0.00  0.00    +0.000 C 
ATOM      9  C   UNL     1      60.583  62.182  66.030  0.00  0.00    +0.000 C 
ATOM     10  C   UNL     1      59.844  61.862  65.801  0.00  0.00    +0.000 C 
ATOM     11  O   UNL     1      60.019  61.512  65.051  0.00  0.00    +0.000 OA
ATOM     12  C   UNL     1      60.837  61.629  64.856  0.00  0.00    +0.000 A 
ATOM     13  C   UNL     1      61.375  61.451  64.245  0.00  0.00    +0.000 A 
ATOM     14  O   UNL     1      61.107  61.031  63.587  0.00  0.00    +0.000 OA
ATOM     15  C   UNL     1      62.177  61.683  64.274  0.00  0.00    +0.000 A 
ATOM     16  C   UNL     1      62.466  62.109  64.931  0.00  0.00    +0.000 A 
ATOM     17  C   UNL     1      61.980  62.318  65.575  0.00  0.00    +0.000 A 
ATOM     18  C   UNL     1      62.144  62.752  66.311  0.00  0.00    +0.000 C 
ATOM     19  C   UNL     1      61.537  62.899  66.897  0.00  0.00    +0.000 C 
ATOM     20  C   UNL     1      60.977  62.528  66.482  0.00  0.00    +0.000 C 
ATOM     21  O   UNL     1      61.580  62.400  65.933  0.00  0.00    +0.000 OA
ATOM     22  C   UNL     1      60.426  62.692  67.072  0.00  0.00    +0.000 C 
ATOM     23  C   UNL     1      59.537  62.477  67.121  0.00  0.00    +0.000 C 
ATOM     24  C   UNL     1      59.288  62.046  66.432  0.00  0.00    +0.000 C 
ATOM     25  O   UNL     1      58.503  61.799  66.367  0.00  0.00    +0.000 OA
ATOM     26  C   UNL     1      61.177  62.050  65.477  0.00  0.00    +0.000 A 
ENDROOT
TORSDOF 0
ENDMDL
MODEL 2
REMARK VINA RESULT:   -12.141      2.381      4.502
REMARK INTER + INTRA:         -12.141
REMARK INTER:                 -12.141
REMARK INTRA:                   0.000
REMARK UNBOUND:                 0.000
ROOT
REMARK  Name = methylnaltrexone
REMARK                            x       y       z     vdW  Elec       q    Type
REMARK                         _______ _______ _______ _____ _____    ______ ____
ATOM      1  C   UNL     1      60.625  62.180  67.650  0.00  0.00    +0.000 C 
ATOM      2  N   UNL     1      61.001  62.665  68.201  0.00  0.00    +0.000 N 
ATOM      3  C   UNL     1      61.265  63.005  67.497  0.00  0.00    +0.000 C 
ATOM      4  C   UNL     1      61.023  62.692  66.773  0.00  0.00    +0.000 C 
ATOM      5  C   UNL     1      60.593  62.136  66.342  0.00  0.00    +0.000 C 
ATOM      6  C   UNL     1      61.037  62.708  65.948  0.00  0.00    +0.000 C 
ATOM      7  C   UNL     1      60.580  62.124  68.729  0.00  0.00    +0.000 C 
ATOM      8  C   UNL     1      60.788  62.393  69.627  0.00  0.00    +0.000 C 
ATOM      9  C   UNL     1      61.295  63.047  69.951  0.00  0.00    +0.000 C 
ATOM     10  C   UNL     1      60.989  62.654  70.624  0.00  0.00    +0.000 C 
ATOM     11  O   UNL     1      61.329  63.093  71.263  0.00  0.00    +0.000 OA
ATOM     12  C   UNL     1      61.816  63.721  70.963  0.00  0.00    +0.000 A 
ATOM     13  C   UNL     1      62.296  64.340  71.245  0.00  0.00    +0.000 A 
ATOM     14  O   UNL     1      62.376  64.445  72.059  0.00  0.00    +0.000 OA
ATOM     15  C   UNL     1      62.700  64.861  70.731  0.00  0.00    +0.000 A 
ATOM     16  C   UNL     1      62.631  64.770  69.904  0.00  0.00    +0.000 A 
ATOM     17  C   UNL     1      62.167  64.172  69.559  0.00  0.00    +0.000 A 
ATOM     18  C   UNL     1      62.008  63.964  68.729  0.00  0.00    +0.000 C 
ATOM     19  C   UNL     1      61.500  63.309  68.513  0.00  0.00    +0.000 C 
ATOM     20  C   UNL     1      61.348  63.115  69.264  0.00  0.00    +0.000 C 
ATOM     21  O   UNL     1      61.842  63.752  69.444  0.00  0.00    +0.000 OA
ATOM     22  C   UNL     1      60.868  62.495  69.010  0.00  0.00    +0.000 C 
ATOM     23  C   UNL     1      60.393  61.884  69.499  0.00  0.00    +0.000 C 
ATOM     24  C   UNL     1      60.493  62.014  70.333  0.00  0.00    +0.000 C 
ATOM     25  O   UNL     1      60.110  61.521  70.871  0.00  0.00    +0.000 OA
ATOM     26  C   UNL     1      61.785  63.680  70.140  0.00  0.00    +0.000 A 
ENDROOT
TORSDOF 0
ENDMDL
MODEL 3
REMARK VINA RESULT:   -11.964      2.350      4.388
REMARK INTER + INTRA:         -11.964
REMARK INTER:                 -11.964
REMARK INTRA:                   0.000
REMARK UNBOUND:                 0.000
ROOT
REMARK  Name = methylnaltrexone
REMARK                            x       y       z     vdW  Elec       q    Type
REMARK                         _______ _______ _______ _____ _____    ______ ____
ATOM      1  C   UNL     1      61.144  63.114  66.925  0.00  0.00    +0.000 C 
ATOM      2  N   UNL     1      60.977  62.904  67.705  0.00  0.00    +0.000 N 
ATOM      3  C   UNL     1      61.117  62.161  67.376  0.00  0.00    +0.000 C 
ATOM      4  C   UNL     1      61.311  62.093  66.577  0.00  0.00    +0.000 C 
ATOM      5  C   UNL     1      61.455  62.443  65.844  0.00  0.00    +0.000 C 
ATOM      6  C   UNL     1      61.504  61.624  65.927  0.00  0.00    +0.000 C 
ATOM      7  C   UNL     1      60.895  63.764  67.752  0.00  0.00    +0.000 C 
ATOM      8  C   UNL     1      60.663  63.973  68.660  0.00  0.00    +0.000 C 
ATOM      9  C   UNL     1      60.537  63.461  69.375  0.00  0.00    +0.000 C 
ATOM     10  C   UNL     1      60.409  64.244  69.642  0.00  0.00    +0.000 C 
ATOM     11  O   UNL     1      60.225  64.132  70.460  0.00  0.00    +0.000 OA
ATOM     12  C   UNL     1      60.247  63.306  70.656  0.00  0.00    +0.000 A 
ATOM     13  C   UNL     1      60.133  62.807  71.314  0.00  0.00    +0.000 A 
ATOM     14  O   UNL     1      59.934  63.144  72.040  0.00  0.00    +0.000 OA
ATOM     15  C   UNL     1      60.214  61.977  71.264  0.00  0.00    +0.000 A 
ATOM     16  C   UNL     1      60.415  61.619  70.537  0.00  0.00    +0.000 A 
ATOM     17  C   UNL     1      60.542  62.061  69.843  0.00  0.00    +0.000 A 
ATOM     18  C   UNL     1      60.753  61.825  69.033  0.00  0.00    +0.000 C 
ATOM     19  C   UNL     1      60.855  62.397  68.403  0.00  0.00    +0.000 C 
ATOM     20  C   UNL     1      60.693  63.013  68.871  0.00  0.00    +0.000 C 
ATOM     21  O   UNL     1      60.602  62.441  69.459  0.00  0.00    +0.000 OA
ATOM     22  C   UNL     1      60.800  63.527  68.236  0.00  0.00    +0.000 C 
ATOM     23  C   UNL     1      60.732  64.440  68.202  0.00  0.00    +0.000 C 
ATOM     24  C   UNL     1      60.526  64.759  68.963  0.00  0.00    +0.000 C 
ATOM     25  O   UNL     1      60.438  65.575  69.051  0.00  0.00    +0.000 OA
ATOM     26  C   UNL     1      60.444  62.898  69.967  0.00  0.00    +0.000 A 
ENDROOT
TORSDOF 0
ENDMDL
MODEL 4
REMARK VINA RESULT:   -11.787      4.863      6.743
REMARK INTER + INTRA:         -11.787
REMARK INTER:                 -11.787
REMARK INTRA:                   0.000
REMARK UNBOUND:                 0.000
ROOT
REMARK  Name = methylnaltrexone
REMARK                            x       y       z     vdW  Elec       q    Type
REMARK                         _______ _______ _______ _____ _____    ______ ____
ATOM      1  C   UNL     1      65.079  66.395  69.937  0.00  0.00    +0.000 C 
ATOM      2  N   UNL     1      64.488  66.236  70.490  0.00  0.00    +0.000 N 
ATOM      3  C   UNL     1      64.863  66.876  70.851  0.00  0.00    +0.000 C 
ATOM      4  C   UNL     1      65.511  67.233  70.486  0.00  0.00    +0.000 C 
ATOM      5  C   UNL     1      66.043  67.277  69.857  0.00  0.00    +0.000 C 
ATOM      6  C   UNL     1      66.102  67.809  70.484  0.00  0.00    +0.000 C 
ATOM      7  C   UNL     1      64.320  65.626  69.901  0.00  0.00    +0.000 C 
ATOM      8  C   UNL     1      63.564  65.129  70.221  0.00  0.00    +0.000 C 
ATOM      9  C   UNL     1      63.071  65.203  70.957  0.00  0.00    +0.000 C 
ATOM     10  C   UNL     1      62.739  64.560  70.536  0.00  0.00    +0.000 C 
ATOM     11  O   UNL     1      62.103  64.319  71.039  0.00  0.00    +0.000 OA
ATOM     12  C   UNL     1      62.072  64.811  71.731  0.00  0.00    +0.000 A 
ATOM     13  C   UNL     1      61.623  64.899  72.427  0.00  0.00    +0.000 A 
ATOM     14  O   UNL     1      60.992  64.385  72.563  0.00  0.00    +0.000 OA
ATOM     15  C   UNL     1      61.789  65.490  72.994  0.00  0.00    +0.000 A 
ATOM     16  C   UNL     1      62.424  66.019  72.874  0.00  0.00    +0.000 A 
ATOM     17  C   UNL     1      62.910  65.985  72.199  0.00  0.00    +0.000 A 
ATOM     18  C   UNL     1      63.593  66.462  71.948  0.00  0.00    +0.000 C 
ATOM     19  C   UNL     1      64.008  66.314  71.214  0.00  0.00    +0.000 C 
ATOM     20  C   UNL     1      63.541  65.708  71.016  0.00  0.00    +0.000 C 
ATOM     21  O   UNL     1      63.159  65.873  71.729  0.00  0.00    +0.000 OA
ATOM     22  C   UNL     1      63.969  65.600  70.320  0.00  0.00    +0.000 C 
ATOM     23  C   UNL     1      63.857  64.985  69.652  0.00  0.00    +0.000 C 
ATOM     24  C   UNL     1      63.202  64.470  69.817  0.00  0.00    +0.000 C 
ATOM     25  O   UNL     1      63.007  63.874  69.280  0.00  0.00    +0.000 OA
ATOM     26  C   UNL     1      62.684  65.360  71.666  0.00  0.00    +0.000 A 
ENDROOT
TORSDOF 0
ENDMDL
MODEL 5
REMARK VINA RESULT:   -11.761      4.777      6.149
REMARK INTER + INTRA:         -11.761
REMARK INTER:                 -11.761
REMARK INTRA:                   0.000
REMARK UNBOUND:                 0.000
ROOT
REMARK  Name = methylnaltrexone
REMARK                            x       y       z     vdW  Elec       q    Type
REMARK                         _______ _______ _______ _____ _____    ______ ____
ATOM      1  C   UNL     1      60.966  63.216  71.586  0.00  0.00    +0.000 C 
ATOM      2  N   UNL     1      61.644  63.587  71.296  0.00  0.00    +0.000 N 
ATOM      3  C   UNL     1      61.577  62.959  70.765  0.00  0.00    +0.000 C 
ATOM      4  C   UNL     1      60.957  62.420  70.840  0.00  0.00    +0.000 C 
ATOM      5  C   UNL     1      60.280  62.159  71.232  0.00  0.00    +0.000 C 
ATOM      6  C   UNL     1      60.561  61.746  70.575  0.00  0.00    +0.000 C 
ATOM      7  C   UNL     1      61.455  64.103  71.964  0.00  0.00    +0.000 C 
ATOM      8  C   UNL     1      62.124  64.791  71.983  0.00  0.00    +0.000 C 
ATOM      9  C   UNL     1      62.830  64.949  71.466  0.00  0.00    +0.000 C 
ATOM     10  C   UNL     1      62.837  65.560  72.039  0.00  0.00    +0.000 C 
ATOM     11  O   UNL     1      63.520  66.009  71.820  0.00  0.00    +0.000 OA
ATOM     12  C   UNL     1      63.894  65.664  71.140  0.00  0.00    +0.000 A 
ATOM     13  C   UNL     1      64.550  65.794  70.643  0.00  0.00    +0.000 A 
ATOM     14  O   UNL     1      65.042  66.440  70.792  0.00  0.00    +0.000 OA
ATOM     15  C   UNL     1      64.729  65.292  70.000  0.00  0.00    +0.000 A 
ATOM     16  C   UNL     1      64.243  64.634  69.835  0.00  0.00    +0.000 A 
ATOM     17  C   UNL     1      63.573  64.449  70.293  0.00  0.00    +0.000 A 
ATOM     18  C   UNL     1      62.988  63.807  70.236  0.00  0.00    +0.000 C 
ATOM     19  C   UNL     1      62.335  63.736  70.786  0.00  0.00    +0.000 C 
ATOM     20  C   UNL     1      62.546  64.379  71.195  0.00  0.00    +0.000 C 
ATOM     21  O   UNL     1      63.166  64.423  70.652  0.00  0.00    +0.000 OA
ATOM     22  C   UNL     1      61.904  64.273  71.700  0.00  0.00    +0.000 C 
ATOM     23  C   UNL     1      61.637  64.768  72.422  0.00  0.00    +0.000 C 
ATOM     24  C   UNL     1      62.159  65.426  72.552  0.00  0.00    +0.000 C 
ATOM     25  O   UNL     1      62.016  65.944  73.178  0.00  0.00    +0.000 OA
ATOM     26  C   UNL     1      63.451  65.001  70.930  0.00  0.00    +0.000 A 
ENDROOT
TORSDOF 0
ENDMDL
MODEL 6
REMARK VINA RESULT:   -11.742      2.483      3.997
REMARK INTER + INTRA:         -11.742
REMARK INTER:                 -11.742
REMARK INTRA:                   0.000
REMARK UNBOUND:                 0.000
ROOT
REMARK  Name = methylnaltrexone
REMARK                            x       y       z     vdW  Elec       q    Type
REMARK                         _______ _______ _______ _____ _____    ______ ____
ATOM      1  C   UNL     1      61.009  63.716  71.914  0.00  0.00    +0.000 C 
ATOM      2  N   UNL     1      60.862  63.401  71.166  0.00  0.00    +0.000 N 
ATOM      3  C   UNL     1      61.159  62.736  71.554  0.00  0.00    +0.000 C 
ATOM      4  C   UNL     1      61.389  62.788  72.344  0.00  0.00    +0.000 C 
ATOM      5  C   UNL     1      61.484  63.231  73.034  0.00  0.00    +0.000 C 
ATOM      6  C   UNL     1      61.694  62.434  73.024  0.00  0.00    +0.000 C 
ATOM      7  C   UNL     1      60.607  64.219  71.045  0.00  0.00    +0.000 C 
ATOM      8  C   UNL     1      60.308  64.286  70.135  0.00  0.00    +0.000 C 
ATOM      9  C   UNL     1      60.263  63.690  69.478  0.00  0.00    +0.000 C 
ATOM     10  C   UNL     1      59.972  64.402  69.148  0.00  0.00    +0.000 C 
ATOM     11  O   UNL     1      59.787  64.175  68.354  0.00  0.00    +0.000 OA
ATOM     12  C   UNL     1      59.968  63.354  68.233  0.00  0.00    +0.000 A 
ATOM     13  C   UNL     1      59.935  62.779  67.631  0.00  0.00    +0.000 A 
ATOM     14  O   UNL     1      59.648  62.995  66.888  0.00  0.00    +0.000 OA
ATOM     15  C   UNL     1      60.183  61.990  67.752  0.00  0.00    +0.000 A 
ATOM     16  C   UNL     1      60.476  61.754  68.497  0.00  0.00    +0.000 A 
ATOM     17  C   UNL     1      60.535  62.279  69.140  0.00  0.00    +0.000 A 
ATOM     18  C   UNL     1      60.816  62.171  69.956  0.00  0.00    +0.000 C 
ATOM     19  C   UNL     1      60.821  62.812  70.525  0.00  0.00    +0.000 C 
ATOM     20  C   UNL     1      60.523  63.334  70.012  0.00  0.00    +0.000 C 
ATOM     21  O   UNL     1      60.529  62.699  69.484  0.00  0.00    +0.000 OA
ATOM     22  C   UNL     1      60.546  63.920  70.590  0.00  0.00    +0.000 C 
ATOM     23  C   UNL     1      60.297  64.800  70.544  0.00  0.00    +0.000 C 
ATOM     24  C   UNL     1      60.006  64.996  69.770  0.00  0.00    +0.000 C 
ATOM     25  O   UNL     1      59.753  65.765  69.611  0.00  0.00    +0.000 OA
ATOM     26  C   UNL     1      60.266  63.063  68.945  0.00  0.00    +0.000 A 
ENDROOT
TORSDOF 0
ENDMDL
MODEL 7
REMARK VINA RESULT:   -11.713      4.404      6.406
REMARK INTER + INTRA:         -11.713
REMARK INTER:                 -11.713
REMARK INTRA:                   0.000
REMARK UNBOUND:                 0.000
ROOT
REMARK  Name = methylnaltrexone
REMARK                            x       y       z     vdW  Elec       q    Type
REMARK                         _______ _______ _______ _____ _____    ______ ____
ATOM      1  C   UNL     1      60.426  63.279  70.130  0.00  0.00    +0.000 C 
ATOM      2  N   UNL     1      60.123  63.833  70.661  0.00  0.00    +0.000 N 
ATOM      3  C   UNL     1      60.184  63.173  71.151  0.00  0.00    +0.000 C 
ATOM      4  C   UNL     1      60.471  62.461  70.850  0.00  0.00    +0.000 C 
ATOM      5  C   UNL     1      60.768  62.019  70.220  0.00  0.00    +0.000 C 
ATOM      6  C   UNL     1      60.672  61.668  70.960  0.00  0.00    +0.000 C 
ATOM      7  C   UNL     1      60.175  64.314  69.944  0.00  0.00    +0.000 C 
ATOM      8  C   UNL     1      59.859  65.191  70.173  0.00  0.00    +0.000 C 
ATOM      9  C   UNL     1      59.556  65.535  70.934  0.00  0.00    +0.000 C 
ATOM     10  C   UNL     1      59.521  66.163  70.382  0.00  0.00    +0.000 C 
ATOM     11  O   UNL     1      59.212  66.800  70.846  0.00  0.00    +0.000 OA
ATOM     12  C   UNL     1      59.074  66.542  71.644  0.00  0.00    +0.000 A 
ATOM     13  C   UNL     1      58.794  66.844  72.368  0.00  0.00    +0.000 A 
ATOM     14  O   UNL     1      58.555  67.633  72.406  0.00  0.00    +0.000 OA
ATOM     15  C   UNL     1      58.746  66.375  73.058  0.00  0.00    +0.000 A 
ATOM     16  C   UNL     1      58.983  65.576  73.038  0.00  0.00    +0.000 A 
ATOM     17  C   UNL     1      59.273  65.214  72.347  0.00  0.00    +0.000 A 
ATOM     18  C   UNL     1      59.550  64.405  72.185  0.00  0.00    +0.000 C 
ATOM     19  C   UNL     1      59.827  64.165  71.411  0.00  0.00    +0.000 C 
ATOM     20  C   UNL     1      59.705  64.878  71.092  0.00  0.00    +0.000 C 
ATOM     21  O   UNL     1      59.444  65.083  71.848  0.00  0.00    +0.000 OA
ATOM     22  C   UNL     1      59.978  64.603  70.365  0.00  0.00    +0.000 C 
ATOM     23  C   UNL     1      60.064  65.043  69.567  0.00  0.00    +0.000 C 
ATOM     24  C   UNL     1      59.811  65.852  69.634  0.00  0.00    +0.000 C 
ATOM     25  O   UNL     1      59.844  66.345  68.974  0.00  0.00    +0.000 OA
ATOM     26  C   UNL     1      59.294  65.749  71.684  0.00  0.00    +0.000 A 
ENDROOT
TORSDOF 0
ENDMDL
MODEL 8
REMARK VINA RESULT:   -11.687      4.076      5.874
REMARK INTER + INTRA:         -11.687
REMARK INTER:                 -11.687
REMARK INTRA:                   0.000
REMARK UNBOUND:                 0.000
ROOT
REMARK  Name = methylnaltrexone
REMARK                            x       y       z     vdW  Elec       q    Type
REMARK                         _______ _______ _______ _____ _____    ______ ____
ATOM      1  C   UNL     1      60.272  62.773  70.943  0.00  0.00    +0.000 C 
ATOM      2  N   UNL     1      60.162  63.544  70.672  0.00  0.00    +0.000 N 
ATOM      3  C   UNL     1      60.280  63.148  69.957  0.00  0.00    +0.000 C 
ATOM      4  C   UNL     1      60.417  62.334  69.955  0.00  0.00    +0.000 C 
ATOM      5  C   UNL     1      60.506  61.623  70.363  0.00  0.00    +0.000 C 
ATOM      6  C   UNL     1      60.563  61.636  69.541  0.00  0.00    +0.000 C 
ATOM      7  C   UNL     1      60.081  63.664  71.524  0.00  0.00    +0.000 C 
ATOM      8  C   UNL     1      59.914  64.600  71.659  0.00  0.00    +0.000 C 
ATOM      9  C   UNL     1      59.841  65.280  71.091  0.00  0.00    +0.000 C 
ATOM     10  C   UNL     1      59.730  65.616  71.849  0.00  0.00    +0.000 C 
ATOM     11  O   UNL     1      59.606  66.434  71.671  0.00  0.00    +0.000 OA
ATOM     12  C   UNL     1      59.645  66.562  70.832  0.00  0.00    +0.000 A 
ATOM     13  C   UNL     1      59.580  67.184  70.282  0.00  0.00    +0.000 A 
ATOM     14  O   UNL     1      59.433  67.948  70.559  0.00  0.00    +0.000 OA
ATOM     15  C   UNL     1      59.660  67.063  69.459  0.00  0.00    +0.000 A 
ATOM     16  C   UNL     1      59.809  66.298  69.162  0.00  0.00    +0.000 A 
ATOM     17  C   UNL     1      59.885  65.634  69.658  0.00  0.00    +0.000 A 
ATOM     18  C   UNL     1      60.038  64.794  69.489  0.00  0.00    +0.000 C 
ATOM     19  C   UNL     1      60.092  64.206  70.109  0.00  0.00    +0.000 C 
ATOM     20  C   UNL     1      59.962  64.732  70.685  0.00  0.00    +0.000 C 
ATOM     21  O   UNL     1      59.915  65.278  70.068  0.00  0.00    +0.000 OA
ATOM     22  C   UNL     1      60.022  64.134  71.249  0.00  0.00    +0.000 C 
ATOM     23  C   UNL     1      59.949  64.178  72.160  0.00  0.00    +0.000 C 
ATOM     24  C   UNL     1      59.797  64.974  72.417  0.00  0.00    +0.000 C 
ATOM     25  O   UNL     1      59.713  65.133  73.222  0.00  0.00    +0.000 OA
ATOM     26  C   UNL     1      59.793  65.831  70.482  0.00  0.00    +0.000 A 
ENDROOT
TORSDOF 0
ENDMDL
MODEL 9
REMARK VINA RESULT:   -11.590      5.276      6.439
REMARK INTER + INTRA:         -11.590
REMARK INTER:                 -11.590
REMARK INTRA:                   0.000
REMARK UNBOUND:                 0.000
ROOT
REMARK  Name = methylnaltrexone
REMARK                            x       y       z     vdW  Elec       q    Type
REMARK                         _______ _______ _______ _____ _____    ______ ____
ATOM      1  C   UNL     1      63.059  66.868  71.971  0.00  0.00    +0.000 C 
ATOM      2  N   UNL     1      62.679  66.137  72.012  0.00  0.00    +0.000 N 
ATOM      3  C   UNL     1      62.285  66.545  72.611  0.00  0.00    +0.000 C 
ATOM      4  C   UNL     1      62.486  67.327  72.778  0.00  0.00    +0.000 C 
ATOM      5  C   UNL     1      62.946  67.996  72.627  0.00  0.00    +0.000 C 
ATOM      6  C   UNL     1      62.375  68.014  73.221  0.00  0.00    +0.000 C 
ATOM      7  C   UNL     1      63.237  65.989  71.368  0.00  0.00    +0.000 C 
ATOM      8  C   UNL     1      63.096  65.084  71.080  0.00  0.00    +0.000 C 
ATOM      9  C   UNL     1      62.534  64.452  71.354  0.00  0.00    +0.000 C 
ATOM     10  C   UNL     1      62.973  64.100  70.735  0.00  0.00    +0.000 C 
ATOM     11  O   UNL     1      62.647  63.321  70.697  0.00  0.00    +0.000 OA
ATOM     12  C   UNL     1      62.036  63.230  71.280  0.00  0.00    +0.000 A 
ATOM     13  C   UNL     1      61.500  62.652  71.553  0.00  0.00    +0.000 A 
ATOM     14  O   UNL     1      61.500  61.908  71.197  0.00  0.00    +0.000 OA
ATOM     15  C   UNL     1      60.963  62.800  72.175  0.00  0.00    +0.000 A 
ATOM     16  C   UNL     1      60.949  63.547  72.547  0.00  0.00    +0.000 A 
ATOM     17  C   UNL     1      61.457  64.167  72.322  0.00  0.00    +0.000 A 
ATOM     18  C   UNL     1      61.550  64.980  72.616  0.00  0.00    +0.000 C 
ATOM     19  C   UNL     1      62.125  65.522  72.285  0.00  0.00    +0.000 C 
ATOM     20  C   UNL     1      62.391  64.995  71.760  0.00  0.00    +0.000 C 
ATOM     21  O   UNL     1      61.829  64.493  72.097  0.00  0.00    +0.000 OA
ATOM     22  C   UNL     1      62.930  65.548  71.472  0.00  0.00    +0.000 C 
ATOM     23  C   UNL     1      63.548  65.471  70.801  0.00  0.00    +0.000 C 
ATOM     24  C   UNL     1      63.526  64.696  70.453  0.00  0.00    +0.000 C 
ATOM     25  O   UNL     1      64.042  64.512  69.836  0.00  0.00    +0.000 OA
ATOM     26  C   UNL     1      61.976  63.946  71.684  0.00  0.00    +0.000 A 
ENDROOT
TORSDOF 0
ENDMDL
