MODEL 1
REMARK VINA RESULT:   -12.489      0.000      0.000
REMARK INTER + INTRA:         -12.489
REMARK INTER:                 -12.489
REMARK INTRA:                   0.000
REMARK UNBOUND:                 0.000
ROOT
REMARK  Name = methylrosaniline
REMARK                            x       y       z     vdW  Elec       q    Type
REMARK                         _______ _______ _______ _____ _____    ______ ____
ATOM      1  C   UNL     1      59.027  67.030  72.328  0.00  0.00    +0.000 C 
ATOM      2  N   UNL     1      59.417  66.314  72.458  0.00  0.00    +0.000 N 
ATOM      3  C   UNL     1      59.641  66.100  73.222  0.00  0.00    +0.000 C 
ATOM      4  C   UNL     1      59.583  65.814  71.824  0.00  0.00    +0.000 A 
ATOM      5  C   UNL     1      59.973  65.098  71.954  0.00  0.00    +0.000 A 
ATOM      6  C   UNL     1      60.139  64.598  71.320  0.00  0.00    +0.000 A 
ATOM      7  C   UNL     1      59.914  64.812  70.556  0.00  0.00    +0.000 A 
ATOM      8  C   UNL     1      59.524  65.527  70.425  0.00  0.00    +0.000 A 
ATOM      9  C   UNL     1      59.358  66.028  71.059  0.00  0.00    +0.000 A 
ATOM     10  C   UNL     1      60.080  64.310  69.921  0.00  0.00    +0.000 C 
ATOM     11  O   UNL     1      59.726  64.847  69.404  0.00  0.00    +0.000 OA
ATOM     12  C   UNL     1      60.246  63.810  69.287  0.00  0.00    +0.000 A 
ATOM     13  C   UNL     1      60.636  63.095  69.417  0.00  0.00    +0.000 A 
ATOM     14  C   UNL     1      60.802  62.594  68.783  0.00  0.00    +0.000 A 
ATOM     15  C   UNL     1      60.578  62.809  68.019  0.00  0.00    +0.000 A 
ATOM     16  C   UNL     1      60.187  63.524  67.888  0.00  0.00    +0.000 A 
ATOM     17  C   UNL     1      60.021  64.025  68.522  0.00  0.00    +0.000 A 
ATOM     18  N   UNL     1      60.744  62.307  67.384  0.00  0.00    +0.000 N 
ATOM     19  C   UNL     1      61.134  61.593  67.514  0.00  0.00    +0.000 C 
ATOM     20  C   UNL     1      60.519  62.522  66.620  0.00  0.00    +0.000 C 
ATOM     21  C   UNL     1      60.435  63.775  70.437  0.00  0.00    +0.000 A 
ATOM     22  C   UNL     1      60.469  63.940  71.245  0.00  0.00    +0.000 A 
ATOM     23  C   UNL     1      60.824  63.403  71.762  0.00  0.00    +0.000 A 
ATOM     24  C   UNL     1      61.145  62.701  71.470  0.00  0.00    +0.000 A 
ATOM     25  C   UNL     1      61.111  62.536  70.663  0.00  0.00    +0.000 A 
ATOM     26  C   UNL     1      60.756  63.072  70.146  0.00  0.00    +0.000 A 
ATOM     27  N   UNL     1      61.500  62.164  71.987  0.00  0.00    +0.000 N 
ATOM     28  C   UNL     1      61.821  61.463  71.696  0.00  0.00    +0.000 C 
ATOM     29  C   UNL     1      61.533  62.330  72.795  0.00  0.00    +0.000 C 
ENDROOT
TORSDOF 0
ENDMDL
MODEL 2
REMARK VINA RESULT:   -12.435      3.587      4.615
REMARK INTER + INTRA:         -12.435
REMARK INTER:                 -12.435
REMARK INTRA:                   0.000
REMARK UNBOUND:                 0.000
ROOT
REMARK  Name = methylrosaniline
REMARK                            x       y       z     vdW  Elec       q    Type
REMARK                         _______ _______ _______ _____ _____    ______ ____
ATOM      1  C   UNL     1      66.374  67.097  70.120  0.00  0.00    +0.000 C 
ATOM      2  N   UNL     1      65.721  67.282  70.591  0.00  0.00    +0.000 N 
ATOM      3  C   UNL     1      65.686  68.010  70.978  0.00  0.00    +0.000 C 
ATOM      4  C   UNL     1      65.105  66.741  70.673  0.00  0.00    +0.000 A 
ATOM      5  C   UNL     1      64.453  66.925  71.143  0.00  0.00    +0.000 A 
ATOM      6  C   UNL     1      63.837  66.383  71.226  0.00  0.00    +0.000 A 
ATOM      7  C   UNL     1      63.873  65.657  70.838  0.00  0.00    +0.000 A 
ATOM      8  C   UNL     1      64.524  65.471  70.368  0.00  0.00    +0.000 A 
ATOM      9  C   UNL     1      65.141  66.013  70.285  0.00  0.00    +0.000 A 
ATOM     10  C   UNL     1      63.255  65.114  70.921  0.00  0.00    +0.000 C 
ATOM     11  O   UNL     1      63.652  64.587  70.426  0.00  0.00    +0.000 OA
ATOM     12  C   UNL     1      62.640  64.573  71.004  0.00  0.00    +0.000 A 
ATOM     13  C   UNL     1      61.988  64.757  71.474  0.00  0.00    +0.000 A 
ATOM     14  C   UNL     1      61.371  64.215  71.556  0.00  0.00    +0.000 A 
ATOM     15  C   UNL     1      61.407  63.489  71.169  0.00  0.00    +0.000 A 
ATOM     16  C   UNL     1      62.059  63.303  70.698  0.00  0.00    +0.000 A 
ATOM     17  C   UNL     1      62.675  63.845  70.615  0.00  0.00    +0.000 A 
ATOM     18  N   UNL     1      60.790  62.946  71.252  0.00  0.00    +0.000 N 
ATOM     19  C   UNL     1      60.138  63.131  71.722  0.00  0.00    +0.000 C 
ATOM     20  C   UNL     1      60.826  62.219  70.863  0.00  0.00    +0.000 C 
ATOM     21  C   UNL     1      62.859  65.640  71.416  0.00  0.00    +0.000 A 
ATOM     22  C   UNL     1      63.195  66.374  71.593  0.00  0.00    +0.000 A 
ATOM     23  C   UNL     1      62.798  66.901  72.088  0.00  0.00    +0.000 A 
ATOM     24  C   UNL     1      62.065  66.695  72.408  0.00  0.00    +0.000 A 
ATOM     25  C   UNL     1      61.730  65.962  72.231  0.00  0.00    +0.000 A 
ATOM     26  C   UNL     1      62.127  65.435  71.736  0.00  0.00    +0.000 A 
ATOM     27  N   UNL     1      61.668  67.221  72.903  0.00  0.00    +0.000 N 
ATOM     28  C   UNL     1      60.936  67.015  73.222  0.00  0.00    +0.000 C 
ATOM     29  C   UNL     1      62.004  67.954  73.079  0.00  0.00    +0.000 C 
ENDROOT
TORSDOF 0
ENDMDL
MODEL 3
REMARK VINA RESULT:   -12.415      0.073      4.013
REMARK INTER + INTRA:         -12.415
REMARK INTER:                 -12.415
REMARK INTRA:                   0.000
REMARK UNBOUND:                 0.000
ROOT
REMARK  Name = methylrosaniline
REMARK                            x       y       z     vdW  Elec       q    Type
REMARK                         _______ _______ _______ _____ _____    ______ ____
ATOM      1  C   UNL     1      60.621  62.523  66.639  0.00  0.00    +0.000 C 
ATOM      2  N   UNL     1      60.846  62.316  67.406  0.00  0.00    +0.000 N 
ATOM      3  C   UNL     1      61.249  61.610  67.540  0.00  0.00    +0.000 C 
ATOM      4  C   UNL     1      60.668  62.816  68.036  0.00  0.00    +0.000 A 
ATOM      5  C   UNL     1      60.893  62.610  68.803  0.00  0.00    +0.000 A 
ATOM      6  C   UNL     1      60.715  63.110  69.434  0.00  0.00    +0.000 A 
ATOM      7  C   UNL     1      60.312  63.816  69.299  0.00  0.00    +0.000 A 
ATOM      8  C   UNL     1      60.086  64.024  68.533  0.00  0.00    +0.000 A 
ATOM      9  C   UNL     1      60.264  63.524  67.901  0.00  0.00    +0.000 A 
ATOM     10  C   UNL     1      60.133  64.317  69.931  0.00  0.00    +0.000 C 
ATOM     11  O   UNL     1      59.770  64.845  69.411  0.00  0.00    +0.000 OA
ATOM     12  C   UNL     1      59.955  64.817  70.562  0.00  0.00    +0.000 A 
ATOM     13  C   UNL     1      60.180  64.611  71.328  0.00  0.00    +0.000 A 
ATOM     14  C   UNL     1      60.002  65.111  71.960  0.00  0.00    +0.000 A 
ATOM     15  C   UNL     1      59.599  65.817  71.825  0.00  0.00    +0.000 A 
ATOM     16  C   UNL     1      59.373  66.024  71.058  0.00  0.00    +0.000 A 
ATOM     17  C   UNL     1      59.551  65.524  70.427  0.00  0.00    +0.000 A 
ATOM     18  N   UNL     1      59.420  66.318  72.457  0.00  0.00    +0.000 N 
ATOM     19  C   UNL     1      59.645  66.111  73.222  0.00  0.00    +0.000 C 
ATOM     20  C   UNL     1      59.017  67.025  72.321  0.00  0.00    +0.000 C 
ATOM     21  C   UNL     1      60.496  63.790  70.451  0.00  0.00    +0.000 A 
ATOM     22  C   UNL     1      60.832  63.093  70.164  0.00  0.00    +0.000 A 
ATOM     23  C   UNL     1      61.195  62.565  70.684  0.00  0.00    +0.000 A 
ATOM     24  C   UNL     1      61.222  62.735  71.492  0.00  0.00    +0.000 A 
ATOM     25  C   UNL     1      60.886  63.432  71.778  0.00  0.00    +0.000 A 
ATOM     26  C   UNL     1      60.523  63.959  71.258  0.00  0.00    +0.000 A 
ATOM     27  N   UNL     1      61.585  62.207  72.012  0.00  0.00    +0.000 N 
ATOM     28  C   UNL     1      61.612  62.377  72.819  0.00  0.00    +0.000 C 
ATOM     29  C   UNL     1      61.920  61.510  71.725  0.00  0.00    +0.000 C 
ENDROOT
TORSDOF 0
ENDMDL
MODEL 4
REMARK VINA RESULT:   -11.964      1.746      4.413
REMARK INTER + INTRA:         -11.964
REMARK INTER:                 -11.964
REMARK INTRA:                   0.000
REMARK UNBOUND:                 0.000
ROOT
REMARK  Name = methylrosaniline
REMARK                            x       y       z     vdW  Elec       q    Type
REMARK                         _______ _______ _______ _____ _____    ______ ____
ATOM      1  C   UNL     1      60.488  62.386  66.450  0.00  0.00    +0.000 C 
ATOM      2  N   UNL     1      61.121  62.720  66.862  0.00  0.00    +0.000 N 
ATOM      3  C   UNL     1      61.876  62.717  66.529  0.00  0.00    +0.000 C 
ATOM      4  C   UNL     1      60.999  63.056  67.604  0.00  0.00    +0.000 A 
ATOM      5  C   UNL     1      61.631  63.390  68.016  0.00  0.00    +0.000 A 
ATOM      6  C   UNL     1      61.509  63.726  68.759  0.00  0.00    +0.000 A 
ATOM      7  C   UNL     1      60.754  63.728  69.091  0.00  0.00    +0.000 A 
ATOM      8  C   UNL     1      60.121  63.395  68.680  0.00  0.00    +0.000 A 
ATOM      9  C   UNL     1      60.243  63.059  67.937  0.00  0.00    +0.000 A 
ATOM     10  C   UNL     1      60.631  64.065  69.835  0.00  0.00    +0.000 C 
ATOM     11  O   UNL     1      59.830  63.874  69.790  0.00  0.00    +0.000 OA
ATOM     12  C   UNL     1      60.509  64.401  70.578  0.00  0.00    +0.000 A 
ATOM     13  C   UNL     1      61.141  64.734  70.989  0.00  0.00    +0.000 A 
ATOM     14  C   UNL     1      61.018  65.071  71.733  0.00  0.00    +0.000 A 
ATOM     15  C   UNL     1      60.264  65.073  72.065  0.00  0.00    +0.000 A 
ATOM     16  C   UNL     1      59.631  64.740  71.654  0.00  0.00    +0.000 A 
ATOM     17  C   UNL     1      59.753  64.403  70.910  0.00  0.00    +0.000 A 
ATOM     18  N   UNL     1      60.141  65.410  72.809  0.00  0.00    +0.000 N 
ATOM     19  C   UNL     1      60.773  65.743  73.220  0.00  0.00    +0.000 C 
ATOM     20  C   UNL     1      59.386  65.412  73.140  0.00  0.00    +0.000 C 
ATOM     21  C   UNL     1      61.432  64.256  69.881  0.00  0.00    +0.000 A 
ATOM     22  C   UNL     1      61.939  64.060  69.260  0.00  0.00    +0.000 A 
ATOM     23  C   UNL     1      62.740  64.251  69.305  0.00  0.00    +0.000 A 
ATOM     24  C   UNL     1      63.035  64.638  69.972  0.00  0.00    +0.000 A 
ATOM     25  C   UNL     1      62.528  64.834  70.593  0.00  0.00    +0.000 A 
ATOM     26  C   UNL     1      61.727  64.642  70.547  0.00  0.00    +0.000 A 
ATOM     27  N   UNL     1      63.836  64.829  70.018  0.00  0.00    +0.000 N 
ATOM     28  C   UNL     1      64.130  65.216  70.684  0.00  0.00    +0.000 C 
ATOM     29  C   UNL     1      64.343  64.633  69.397  0.00  0.00    +0.000 C 
ENDROOT
TORSDOF 0
ENDMDL
MODEL 5
REMARK VINA RESULT:   -11.929      2.521      3.754
REMARK INTER + INTRA:         -11.929
REMARK INTER:                 -11.929
REMARK INTRA:                   0.000
REMARK UNBOUND:                 0.000
ROOT
REMARK  Name = methylrosaniline
REMARK                            x       y       z     vdW  Elec       q    Type
REMARK                         _______ _______ _______ _____ _____    ______ ____
ATOM      1  C   UNL     1      57.622  66.770  73.222  0.00  0.00    +0.000 C 
ATOM      2  N   UNL     1      58.023  66.094  72.969  0.00  0.00    +0.000 N 
ATOM      3  C   UNL     1      57.616  65.381  72.885  0.00  0.00    +0.000 C 
ATOM      4  C   UNL     1      58.829  66.131  72.801  0.00  0.00    +0.000 A 
ATOM      5  C   UNL     1      59.229  65.456  72.548  0.00  0.00    +0.000 A 
ATOM      6  C   UNL     1      60.036  65.493  72.379  0.00  0.00    +0.000 A 
ATOM      7  C   UNL     1      60.442  66.205  72.463  0.00  0.00    +0.000 A 
ATOM      8  C   UNL     1      60.043  66.881  72.716  0.00  0.00    +0.000 A 
ATOM      9  C   UNL     1      59.236  66.844  72.885  0.00  0.00    +0.000 A 
ATOM     10  C   UNL     1      61.250  66.242  72.294  0.00  0.00    +0.000 C 
ATOM     11  O   UNL     1      61.254  67.044  72.489  0.00  0.00    +0.000 OA
ATOM     12  C   UNL     1      62.056  66.279  72.126  0.00  0.00    +0.000 A 
ATOM     13  C   UNL     1      62.456  65.604  71.873  0.00  0.00    +0.000 A 
ATOM     14  C   UNL     1      63.263  65.641  71.704  0.00  0.00    +0.000 A 
ATOM     15  C   UNL     1      63.669  66.353  71.788  0.00  0.00    +0.000 A 
ATOM     16  C   UNL     1      63.269  67.030  72.041  0.00  0.00    +0.000 A 
ATOM     17  C   UNL     1      62.463  66.993  72.210  0.00  0.00    +0.000 A 
ATOM     18  N   UNL     1      64.477  66.391  71.619  0.00  0.00    +0.000 N 
ATOM     19  C   UNL     1      64.876  65.715  71.366  0.00  0.00    +0.000 C 
ATOM     20  C   UNL     1      64.883  67.104  71.704  0.00  0.00    +0.000 C 
ATOM     21  C   UNL     1      61.246  65.442  72.100  0.00  0.00    +0.000 A 
ATOM     22  C   UNL     1      60.545  65.008  72.148  0.00  0.00    +0.000 A 
ATOM     23  C   UNL     1      60.541  64.206  71.953  0.00  0.00    +0.000 A 
ATOM     24  C   UNL     1      61.238  63.837  71.710  0.00  0.00    +0.000 A 
ATOM     25  C   UNL     1      61.938  64.271  71.661  0.00  0.00    +0.000 A 
ATOM     26  C   UNL     1      61.942  65.072  71.856  0.00  0.00    +0.000 A 
ATOM     27  N   UNL     1      61.234  63.036  71.515  0.00  0.00    +0.000 N 
ATOM     28  C   UNL     1      61.930  62.667  71.272  0.00  0.00    +0.000 C 
ATOM     29  C   UNL     1      60.533  62.603  71.564  0.00  0.00    +0.000 C 
ENDROOT
TORSDOF 0
ENDMDL
MODEL 6
REMARK VINA RESULT:   -11.903      1.084      3.229
REMARK INTER + INTRA:         -11.903
REMARK INTER:                 -11.903
REMARK INTRA:                   0.000
REMARK UNBOUND:                 0.000
ROOT
REMARK  Name = methylrosaniline
REMARK                            x       y       z     vdW  Elec       q    Type
REMARK                         _______ _______ _______ _____ _____    ______ ____
ATOM      1  C   UNL     1      59.394  67.622  70.207  0.00  0.00    +0.000 C 
ATOM      2  N   UNL     1      59.511  66.953  69.738  0.00  0.00    +0.000 N 
ATOM      3  C   UNL     1      59.326  66.976  68.934  0.00  0.00    +0.000 C 
ATOM      4  C   UNL     1      59.812  66.262  70.073  0.00  0.00    +0.000 A 
ATOM      5  C   UNL     1      59.929  65.594  69.604  0.00  0.00    +0.000 A 
ATOM      6  C   UNL     1      60.231  64.903  69.939  0.00  0.00    +0.000 A 
ATOM      7  C   UNL     1      60.415  64.880  70.742  0.00  0.00    +0.000 A 
ATOM      8  C   UNL     1      60.298  65.549  71.212  0.00  0.00    +0.000 A 
ATOM      9  C   UNL     1      59.996  66.240  70.877  0.00  0.00    +0.000 A 
ATOM     10  C   UNL     1      60.716  64.188  71.078  0.00  0.00    +0.000 C 
ATOM     11  O   UNL     1      60.755  64.561  71.812  0.00  0.00    +0.000 OA
ATOM     12  C   UNL     1      61.017  63.498  71.412  0.00  0.00    +0.000 A 
ATOM     13  C   UNL     1      61.135  62.829  70.944  0.00  0.00    +0.000 A 
ATOM     14  C   UNL     1      61.436  62.138  71.279  0.00  0.00    +0.000 A 
ATOM     15  C   UNL     1      61.620  62.116  72.082  0.00  0.00    +0.000 A 
ATOM     16  C   UNL     1      61.503  62.784  72.551  0.00  0.00    +0.000 A 
ATOM     17  C   UNL     1      61.202  63.475  72.216  0.00  0.00    +0.000 A 
ATOM     18  N   UNL     1      61.922  61.424  72.417  0.00  0.00    +0.000 N 
ATOM     19  C   UNL     1      62.039  60.756  71.948  0.00  0.00    +0.000 C 
ATOM     20  C   UNL     1      62.106  61.402  73.221  0.00  0.00    +0.000 C 
ATOM     21  C   UNL     1      60.678  63.816  70.344  0.00  0.00    +0.000 A 
ATOM     22  C   UNL     1      60.397  64.228  69.685  0.00  0.00    +0.000 A 
ATOM     23  C   UNL     1      60.358  63.855  68.951  0.00  0.00    +0.000 A 
ATOM     24  C   UNL     1      60.600  63.069  68.873  0.00  0.00    +0.000 A 
ATOM     25  C   UNL     1      60.880  62.658  69.531  0.00  0.00    +0.000 A 
ATOM     26  C   UNL     1      60.919  63.031  70.266  0.00  0.00    +0.000 A 
ATOM     27  N   UNL     1      60.561  62.696  68.138  0.00  0.00    +0.000 N 
ATOM     28  C   UNL     1      60.803  61.912  68.061  0.00  0.00    +0.000 C 
ATOM     29  C   UNL     1      60.281  63.109  67.481  0.00  0.00    +0.000 C 
ENDROOT
TORSDOF 0
ENDMDL
MODEL 7
REMARK VINA RESULT:   -11.900      2.833      3.073
REMARK INTER + INTRA:         -11.900
REMARK INTER:                 -11.900
REMARK INTRA:                   0.000
REMARK UNBOUND:                 0.000
ROOT
REMARK  Name = methylrosaniline
REMARK                            x       y       z     vdW  Elec       q    Type
REMARK                         _______ _______ _______ _____ _____    ______ ____
ATOM      1  C   UNL     1      65.369  67.017  70.639  0.00  0.00    +0.000 C 
ATOM      2  N   UNL     1      64.827  66.583  71.085  0.00  0.00    +0.000 N 
ATOM      3  C   UNL     1      64.805  66.672  71.905  0.00  0.00    +0.000 C 
ATOM      4  C   UNL     1      64.308  66.062  70.713  0.00  0.00    +0.000 A 
ATOM      5  C   UNL     1      63.767  65.629  71.159  0.00  0.00    +0.000 A 
ATOM      6  C   UNL     1      63.248  65.107  70.785  0.00  0.00    +0.000 A 
ATOM      7  C   UNL     1      63.271  65.019  69.966  0.00  0.00    +0.000 A 
ATOM      8  C   UNL     1      63.812  65.452  69.519  0.00  0.00    +0.000 A 
ATOM      9  C   UNL     1      64.331  65.974  69.892  0.00  0.00    +0.000 A 
ATOM     10  C   UNL     1      62.751  64.497  69.592  0.00  0.00    +0.000 C 
ATOM     11  O   UNL     1      63.077  64.696  68.861  0.00  0.00    +0.000 OA
ATOM     12  C   UNL     1      62.233  63.976  69.219  0.00  0.00    +0.000 A 
ATOM     13  C   UNL     1      61.691  63.542  69.665  0.00  0.00    +0.000 A 
ATOM     14  C   UNL     1      61.173  63.021  69.292  0.00  0.00    +0.000 A 
ATOM     15  C   UNL     1      61.195  62.933  68.473  0.00  0.00    +0.000 A 
ATOM     16  C   UNL     1      61.737  63.366  68.025  0.00  0.00    +0.000 A 
ATOM     17  C   UNL     1      62.256  63.888  68.399  0.00  0.00    +0.000 A 
ATOM     18  N   UNL     1      60.676  62.411  68.099  0.00  0.00    +0.000 N 
ATOM     19  C   UNL     1      60.135  61.978  68.545  0.00  0.00    +0.000 C 
ATOM     20  C   UNL     1      60.699  62.323  67.279  0.00  0.00    +0.000 C 
ATOM     21  C   UNL     1      62.426  64.298  70.323  0.00  0.00    +0.000 A 
ATOM     22  C   UNL     1      62.713  64.650  71.012  0.00  0.00    +0.000 A 
ATOM     23  C   UNL     1      62.387  64.451  71.743  0.00  0.00    +0.000 A 
ATOM     24  C   UNL     1      61.774  63.899  71.786  0.00  0.00    +0.000 A 
ATOM     25  C   UNL     1      61.488  63.547  71.097  0.00  0.00    +0.000 A 
ATOM     26  C   UNL     1      61.814  63.747  70.365  0.00  0.00    +0.000 A 
ATOM     27  N   UNL     1      61.448  63.699  72.517  0.00  0.00    +0.000 N 
ATOM     28  C   UNL     1      60.837  63.148  72.559  0.00  0.00    +0.000 C 
ATOM     29  C   UNL     1      61.735  64.052  73.206  0.00  0.00    +0.000 C 
ENDROOT
TORSDOF 0
ENDMDL
MODEL 8
REMARK VINA RESULT:   -11.707      2.925      3.772
REMARK INTER + INTRA:         -11.707
REMARK INTER:                 -11.707
REMARK INTRA:                   0.000
REMARK UNBOUND:                 0.000
ROOT
REMARK  Name = methylrosaniline
REMARK                            x       y       z     vdW  Elec       q    Type
REMARK                         _______ _______ _______ _____ _____    ______ ____
ATOM      1  C   UNL     1      65.548  66.492  71.736  0.00  0.00    +0.000 C 
ATOM      2  N   UNL     1      64.760  66.725  71.655  0.00  0.00    +0.000 N 
ATOM      3  C   UNL     1      64.490  67.403  72.040  0.00  0.00    +0.000 C 
ATOM      4  C   UNL     1      64.244  66.281  71.191  0.00  0.00    +0.000 A 
ATOM      5  C   UNL     1      63.457  66.514  71.110  0.00  0.00    +0.000 A 
ATOM      6  C   UNL     1      62.941  66.069  70.645  0.00  0.00    +0.000 A 
ATOM      7  C   UNL     1      63.211  65.392  70.261  0.00  0.00    +0.000 A 
ATOM      8  C   UNL     1      63.998  65.158  70.341  0.00  0.00    +0.000 A 
ATOM      9  C   UNL     1      64.515  65.602  70.806  0.00  0.00    +0.000 A 
ATOM     10  C   UNL     1      62.694  64.946  69.796  0.00  0.00    +0.000 C 
ATOM     11  O   UNL     1      63.305  64.420  69.620  0.00  0.00    +0.000 OA
ATOM     12  C   UNL     1      62.178  64.502  69.331  0.00  0.00    +0.000 A 
ATOM     13  C   UNL     1      61.391  64.735  69.251  0.00  0.00    +0.000 A 
ATOM     14  C   UNL     1      60.874  64.291  68.786  0.00  0.00    +0.000 A 
ATOM     15  C   UNL     1      61.145  63.613  68.402  0.00  0.00    +0.000 A 
ATOM     16  C   UNL     1      61.932  63.379  68.482  0.00  0.00    +0.000 A 
ATOM     17  C   UNL     1      62.449  63.824  68.947  0.00  0.00    +0.000 A 
ATOM     18  N   UNL     1      60.628  63.168  67.936  0.00  0.00    +0.000 N 
ATOM     19  C   UNL     1      59.841  63.401  67.856  0.00  0.00    +0.000 C 
ATOM     20  C   UNL     1      60.899  62.490  67.552  0.00  0.00    +0.000 C 
ATOM     21  C   UNL     1      62.084  65.472  69.971  0.00  0.00    +0.000 A 
ATOM     22  C   UNL     1      62.226  66.121  70.462  0.00  0.00    +0.000 A 
ATOM     23  C   UNL     1      61.615  66.647  70.637  0.00  0.00    +0.000 A 
ATOM     24  C   UNL     1      60.862  66.525  70.322  0.00  0.00    +0.000 A 
ATOM     25  C   UNL     1      60.720  65.877  69.832  0.00  0.00    +0.000 A 
ATOM     26  C   UNL     1      61.331  65.351  69.657  0.00  0.00    +0.000 A 
ATOM     27  N   UNL     1      60.251  67.051  70.498  0.00  0.00    +0.000 N 
ATOM     28  C   UNL     1      59.499  66.929  70.183  0.00  0.00    +0.000 C 
ATOM     29  C   UNL     1      60.394  67.699  70.988  0.00  0.00    +0.000 C 
ENDROOT
TORSDOF 0
ENDMDL
MODEL 9
REMARK VINA RESULT:   -11.642      2.589      4.492
REMARK INTER + INTRA:         -11.642
REMARK INTER:                 -11.642
REMARK INTRA:                   0.000
REMARK UNBOUND:                 0.000
ROOT
REMARK  Name = methylrosaniline
REMARK                            x       y       z     vdW  Elec       q    Type
REMARK                         _______ _______ _______ _____ _____    ______ ____
ATOM      1  C   UNL     1      61.123  62.364  67.294  0.00  0.00    +0.000 C 
ATOM      2  N   UNL     1      60.830  62.594  68.032  0.00  0.00    +0.000 N 
ATOM      3  C   UNL     1      60.118  62.280  68.308  0.00  0.00    +0.000 C 
ATOM      4  C   UNL     1      61.248  63.135  68.491  0.00  0.00    +0.000 A 
ATOM      5  C   UNL     1      60.956  63.365  69.227  0.00  0.00    +0.000 A 
ATOM      6  C   UNL     1      61.374  63.907  69.687  0.00  0.00    +0.000 A 
ATOM      7  C   UNL     1      62.085  64.220  69.410  0.00  0.00    +0.000 A 
ATOM      8  C   UNL     1      62.379  63.991  68.674  0.00  0.00    +0.000 A 
ATOM      9  C   UNL     1      61.960  63.449  68.214  0.00  0.00    +0.000 A 
ATOM     10  C   UNL     1      62.504  64.763  69.871  0.00  0.00    +0.000 C 
ATOM     11  O   UNL     1      63.084  64.811  69.286  0.00  0.00    +0.000 OA
ATOM     12  C   UNL     1      62.922  65.304  70.330  0.00  0.00    +0.000 A 
ATOM     13  C   UNL     1      62.630  65.534  71.066  0.00  0.00    +0.000 A 
ATOM     14  C   UNL     1      63.049  66.076  71.526  0.00  0.00    +0.000 A 
ATOM     15  C   UNL     1      63.760  66.389  71.249  0.00  0.00    +0.000 A 
ATOM     16  C   UNL     1      64.053  66.160  70.513  0.00  0.00    +0.000 A 
ATOM     17  C   UNL     1      63.634  65.617  70.053  0.00  0.00    +0.000 A 
ATOM     18  N   UNL     1      64.179  66.931  71.710  0.00  0.00    +0.000 N 
ATOM     19  C   UNL     1      63.886  67.160  72.446  0.00  0.00    +0.000 C 
ATOM     20  C   UNL     1      64.890  67.244  71.432  0.00  0.00    +0.000 C 
ATOM     21  C   UNL     1      61.925  64.714  70.455  0.00  0.00    +0.000 A 
ATOM     22  C   UNL     1      61.272  64.220  70.349  0.00  0.00    +0.000 A 
ATOM     23  C   UNL     1      60.692  64.172  70.934  0.00  0.00    +0.000 A 
ATOM     24  C   UNL     1      60.765  64.617  71.626  0.00  0.00    +0.000 A 
ATOM     25  C   UNL     1      61.418  65.111  71.731  0.00  0.00    +0.000 A 
ATOM     26  C   UNL     1      61.997  65.159  71.146  0.00  0.00    +0.000 A 
ATOM     27  N   UNL     1      60.185  64.569  72.210  0.00  0.00    +0.000 N 
ATOM     28  C   UNL     1      60.258  65.014  72.901  0.00  0.00    +0.000 C 
ATOM     29  C   UNL     1      59.533  64.075  72.104  0.00  0.00    +0.000 C 
ENDROOT
TORSDOF 0
ENDMDL
