MODEL 1
REMARK VINA RESULT:    -6.861      0.000      0.000
REMARK INTER + INTRA:          -6.861
REMARK INTER:                  -6.861
REMARK INTRA:                   0.000
REMARK UNBOUND:                 0.000
ROOT
REMARK  Name = methyl salicylate
REMARK                            x       y       z     vdW  Elec       q    Type
REMARK                         _______ _______ _______ _____ _____    ______ ____
ATOM      1  C   UNL     1      59.793  62.439  67.091  0.00  0.00    +0.000 C 
ATOM      2  O   UNL     1      60.455  62.399  66.601  0.00  0.00    +0.000 OA
ATOM      3  C   UNL     1      60.411  62.002  65.878  0.00  0.00    +0.000 C 
ATOM      4  O   UNL     1      59.703  61.646  65.647  0.00  0.00    +0.000 OA
ATOM      5  C   UNL     1      61.072  61.961  65.388  0.00  0.00    +0.000 A 
ATOM      6  C   UNL     1      61.028  61.565  64.667  0.00  0.00    +0.000 A 
ATOM      7  C   UNL     1      61.691  61.524  64.176  0.00  0.00    +0.000 A 
ATOM      8  C   UNL     1      62.397  61.880  64.408  0.00  0.00    +0.000 A 
ATOM      9  C   UNL     1      62.442  62.277  65.130  0.00  0.00    +0.000 A 
ATOM     10  C   UNL     1      61.780  62.318  65.620  0.00  0.00    +0.000 A 
ATOM     11  O   UNL     1      61.824  62.715  66.343  0.00  0.00    +0.000 OA
ENDROOT
TORSDOF 0
ENDMDL
MODEL 2
REMARK VINA RESULT:    -6.493      0.864      2.322
REMARK INTER + INTRA:          -6.493
REMARK INTER:                  -6.493
REMARK INTRA:                   0.000
REMARK UNBOUND:                 0.000
ROOT
REMARK  Name = methyl salicylate
REMARK                            x       y       z     vdW  Elec       q    Type
REMARK                         _______ _______ _______ _____ _____    ______ ____
ATOM      1  C   UNL     1      62.355  61.718  64.413  0.00  0.00    +0.000 C 
ATOM      2  O   UNL     1      61.858  61.943  65.032  0.00  0.00    +0.000 OA
ATOM      3  C   UNL     1      61.062  61.724  65.022  0.00  0.00    +0.000 C 
ATOM      4  O   UNL     1      60.764  61.280  64.394  0.00  0.00    +0.000 OA
ATOM      5  C   UNL     1      60.565  61.948  65.640  0.00  0.00    +0.000 A 
ATOM      6  C   UNL     1      59.770  61.729  65.631  0.00  0.00    +0.000 A 
ATOM      7  C   UNL     1      59.272  61.954  66.250  0.00  0.00    +0.000 A 
ATOM      8  C   UNL     1      59.570  62.397  66.878  0.00  0.00    +0.000 A 
ATOM      9  C   UNL     1      60.366  62.617  66.888  0.00  0.00    +0.000 A 
ATOM     10  C   UNL     1      60.863  62.392  66.269  0.00  0.00    +0.000 A 
ATOM     11  O   UNL     1      61.659  62.612  66.279  0.00  0.00    +0.000 OA
ENDROOT
TORSDOF 0
ENDMDL
MODEL 3
REMARK VINA RESULT:    -6.137      1.480      2.344
REMARK INTER + INTRA:          -6.137
REMARK INTER:                  -6.137
REMARK INTRA:                   0.000
REMARK UNBOUND:                 0.000
ROOT
REMARK  Name = methyl salicylate
REMARK                            x       y       z     vdW  Elec       q    Type
REMARK                         _______ _______ _______ _____ _____    ______ ____
ATOM      1  C   UNL     1      61.626  63.565  68.440  0.00  0.00    +0.000 C 
ATOM      2  O   UNL     1      61.357  63.153  67.778  0.00  0.00    +0.000 OA
ATOM      3  C   UNL     1      60.550  63.004  67.684  0.00  0.00    +0.000 C 
ATOM      4  O   UNL     1      60.014  63.267  68.253  0.00  0.00    +0.000 OA
ATOM      5  C   UNL     1      60.282  62.592  67.022  0.00  0.00    +0.000 A 
ATOM      6  C   UNL     1      59.476  62.443  66.928  0.00  0.00    +0.000 A 
ATOM      7  C   UNL     1      59.207  62.031  66.266  0.00  0.00    +0.000 A 
ATOM      8  C   UNL     1      59.743  61.769  65.698  0.00  0.00    +0.000 A 
ATOM      9  C   UNL     1      60.550  61.917  65.791  0.00  0.00    +0.000 A 
ATOM     10  C   UNL     1      60.819  62.329  66.453  0.00  0.00    +0.000 A 
ATOM     11  O   UNL     1      61.626  62.478  66.547  0.00  0.00    +0.000 OA
ENDROOT
TORSDOF 0
ENDMDL
MODEL 4
REMARK VINA RESULT:    -5.891      5.854      6.553
REMARK INTER + INTRA:          -5.891
REMARK INTER:                  -5.891
REMARK INTRA:                   0.000
REMARK UNBOUND:                 0.000
ROOT
REMARK  Name = methyl salicylate
REMARK                            x       y       z     vdW  Elec       q    Type
REMARK                         _______ _______ _______ _____ _____    ______ ____
ATOM      1  C   UNL     1      60.311  64.850  72.909  0.00  0.00    +0.000 C 
ATOM      2  O   UNL     1      60.642  64.143  72.641  0.00  0.00    +0.000 OA
ATOM      3  C   UNL     1      60.270  63.715  72.041  0.00  0.00    +0.000 C 
ATOM      4  O   UNL     1      59.568  63.994  71.710  0.00  0.00    +0.000 OA
ATOM      5  C   UNL     1      60.600  63.008  71.774  0.00  0.00    +0.000 A 
ATOM      6  C   UNL     1      60.228  62.580  71.174  0.00  0.00    +0.000 A 
ATOM      7  C   UNL     1      60.559  61.873  70.906  0.00  0.00    +0.000 A 
ATOM      8  C   UNL     1      61.260  61.595  71.238  0.00  0.00    +0.000 A 
ATOM      9  C   UNL     1      61.632  62.022  71.837  0.00  0.00    +0.000 A 
ATOM     10  C   UNL     1      61.302  62.729  72.105  0.00  0.00    +0.000 A 
ATOM     11  O   UNL     1      61.674  63.157  72.705  0.00  0.00    +0.000 OA
ENDROOT
TORSDOF 0
ENDMDL
MODEL 5
REMARK VINA RESULT:    -5.832      6.937      7.665
REMARK INTER + INTRA:          -5.832
REMARK INTER:                  -5.832
REMARK INTRA:                   0.000
REMARK UNBOUND:                 0.000
ROOT
REMARK  Name = methyl salicylate
REMARK                            x       y       z     vdW  Elec       q    Type
REMARK                         _______ _______ _______ _____ _____    ______ ____
ATOM      1  C   UNL     1      63.574  64.576  70.482  0.00  0.00    +0.000 C 
ATOM      2  O   UNL     1      64.015  65.236  70.707  0.00  0.00    +0.000 OA
ATOM      3  C   UNL     1      64.494  65.621  70.156  0.00  0.00    +0.000 C 
ATOM      4  O   UNL     1      64.532  65.345  69.380  0.00  0.00    +0.000 OA
ATOM      5  C   UNL     1      64.935  66.279  70.381  0.00  0.00    +0.000 A 
ATOM      6  C   UNL     1      65.414  66.664  69.831  0.00  0.00    +0.000 A 
ATOM      7  C   UNL     1      65.855  67.323  70.056  0.00  0.00    +0.000 A 
ATOM      8  C   UNL     1      65.817  67.599  70.832  0.00  0.00    +0.000 A 
ATOM      9  C   UNL     1      65.338  67.215  71.384  0.00  0.00    +0.000 A 
ATOM     10  C   UNL     1      64.897  66.555  71.158  0.00  0.00    +0.000 A 
ATOM     11  O   UNL     1      64.418  66.171  71.710  0.00  0.00    +0.000 OA
ENDROOT
TORSDOF 0
ENDMDL
MODEL 6
REMARK VINA RESULT:    -5.751      4.348      5.788
REMARK INTER + INTRA:          -5.751
REMARK INTER:                  -5.751
REMARK INTRA:                   0.000
REMARK UNBOUND:                 0.000
ROOT
REMARK  Name = methyl salicylate
REMARK                            x       y       z     vdW  Elec       q    Type
REMARK                         _______ _______ _______ _____ _____    ______ ____
ATOM      1  C   UNL     1      60.511  62.010  69.054  0.00  0.00    +0.000 C 
ATOM      2  O   UNL     1      60.861  62.425  69.675  0.00  0.00    +0.000 OA
ATOM      3  C   UNL     1      60.735  62.184  70.455  0.00  0.00    +0.000 C 
ATOM      4  O   UNL     1      60.258  61.530  70.612  0.00  0.00    +0.000 OA
ATOM      5  C   UNL     1      61.085  62.598  71.076  0.00  0.00    +0.000 A 
ATOM      6  C   UNL     1      60.959  62.358  71.855  0.00  0.00    +0.000 A 
ATOM      7  C   UNL     1      61.309  62.772  72.476  0.00  0.00    +0.000 A 
ATOM      8  C   UNL     1      61.785  63.426  72.319  0.00  0.00    +0.000 A 
ATOM      9  C   UNL     1      61.912  63.667  71.540  0.00  0.00    +0.000 A 
ATOM     10  C   UNL     1      61.562  63.253  70.918  0.00  0.00    +0.000 A 
ATOM     11  O   UNL     1      61.689  63.493  70.138  0.00  0.00    +0.000 OA
ENDROOT
TORSDOF 0
ENDMDL
MODEL 7
REMARK VINA RESULT:    -5.718     15.579     16.660
REMARK INTER + INTRA:          -5.718
REMARK INTER:                  -5.718
REMARK INTRA:                   0.000
REMARK UNBOUND:                 0.000
ROOT
REMARK  Name = methyl salicylate
REMARK                            x       y       z     vdW  Elec       q    Type
REMARK                         _______ _______ _______ _____ _____    ______ ____
ATOM      1  C   UNL     1      59.016  78.814  72.756  0.00  0.00    +0.000 C 
ATOM      2  O   UNL     1      58.993  77.991  72.705  0.00  0.00    +0.000 OA
ATOM      3  C   UNL     1      58.267  77.601  72.648  0.00  0.00    +0.000 C 
ATOM      4  O   UNL     1      57.566  78.036  72.643  0.00  0.00    +0.000 OA
ATOM      5  C   UNL     1      58.244  76.779  72.596  0.00  0.00    +0.000 A 
ATOM      6  C   UNL     1      57.519  76.389  72.540  0.00  0.00    +0.000 A 
ATOM      7  C   UNL     1      57.496  75.566  72.488  0.00  0.00    +0.000 A 
ATOM      8  C   UNL     1      58.198  75.133  72.493  0.00  0.00    +0.000 A 
ATOM      9  C   UNL     1      58.923  75.522  72.550  0.00  0.00    +0.000 A 
ATOM     10  C   UNL     1      58.946  76.345  72.601  0.00  0.00    +0.000 A 
ATOM     11  O   UNL     1      59.672  76.735  72.658  0.00  0.00    +0.000 OA
ENDROOT
TORSDOF 0
ENDMDL
MODEL 8
REMARK VINA RESULT:    -5.658     24.609     25.256
REMARK INTER + INTRA:          -5.658
REMARK INTER:                  -5.658
REMARK INTRA:                   0.000
REMARK UNBOUND:                 0.000
ROOT
REMARK  Name = methyl salicylate
REMARK                            x       y       z     vdW  Elec       q    Type
REMARK                         _______ _______ _______ _____ _____    ______ ____
ATOM      1  C   UNL     1      69.781  80.356  51.429  0.00  0.00    +0.000 C 
ATOM      2  O   UNL     1      69.981  79.834  50.822  0.00  0.00    +0.000 OA
ATOM      3  C   UNL     1      70.686  79.937  50.405  0.00  0.00    +0.000 C 
ATOM      4  O   UNL     1      71.190  80.561  50.595  0.00  0.00    +0.000 OA
ATOM      5  C   UNL     1      70.886  79.415  49.799  0.00  0.00    +0.000 A 
ATOM      6  C   UNL     1      71.590  79.518  49.381  0.00  0.00    +0.000 A 
ATOM      7  C   UNL     1      71.790  78.996  48.774  0.00  0.00    +0.000 A 
ATOM      8  C   UNL     1      71.286  78.372  48.585  0.00  0.00    +0.000 A 
ATOM      9  C   UNL     1      70.581  78.268  49.002  0.00  0.00    +0.000 A 
ATOM     10  C   UNL     1      70.381  78.790  49.609  0.00  0.00    +0.000 A 
ATOM     11  O   UNL     1      69.676  78.687  50.026  0.00  0.00    +0.000 OA
ENDROOT
TORSDOF 0
ENDMDL
MODEL 9
REMARK VINA RESULT:    -5.634      3.050      4.814
REMARK INTER + INTRA:          -5.634
REMARK INTER:                  -5.634
REMARK INTRA:                   0.000
REMARK UNBOUND:                 0.000
ROOT
REMARK  Name = methyl salicylate
REMARK                            x       y       z     vdW  Elec       q    Type
REMARK                         _______ _______ _______ _____ _____    ______ ____
ATOM      1  C   UNL     1      61.151  63.210  67.626  0.00  0.00    +0.000 C 
ATOM      2  O   UNL     1      60.949  62.810  68.319  0.00  0.00    +0.000 OA
ATOM      3  C   UNL     1      60.993  63.197  69.047  0.00  0.00    +0.000 C 
ATOM      4  O   UNL     1      61.239  63.984  69.080  0.00  0.00    +0.000 OA
ATOM      5  C   UNL     1      60.791  62.798  69.739  0.00  0.00    +0.000 A 
ATOM      6  C   UNL     1      60.835  63.184  70.466  0.00  0.00    +0.000 A 
ATOM      7  C   UNL     1      60.633  62.785  71.159  0.00  0.00    +0.000 A 
ATOM      8  C   UNL     1      60.387  61.999  71.124  0.00  0.00    +0.000 A 
ATOM      9  C   UNL     1      60.343  61.611  70.397  0.00  0.00    +0.000 A 
ATOM     10  C   UNL     1      60.545  62.011  69.704  0.00  0.00    +0.000 A 
ATOM     11  O   UNL     1      60.501  61.624  68.976  0.00  0.00    +0.000 OA
ENDROOT
TORSDOF 0
ENDMDL
