MODEL 1
REMARK VINA RESULT:   -14.203      0.000      0.000
REMARK INTER + INTRA:         -14.203
REMARK INTER:                 -14.203
REMARK INTRA:                   0.000
REMARK UNBOUND:                 0.000
ROOT
REMARK  Name = methestrol dipropionate
REMARK                            x       y       z     vdW  Elec       q    Type
REMARK                         _______ _______ _______ _____ _____    ______ ____
ATOM      1  C   UNL     1      62.005  64.287  68.353  0.00  0.00    +0.000 C 
ATOM      2  C   UNL     1      61.761  64.014  69.093  0.00  0.00    +0.000 C 
ATOM      3  C   UNL     1      61.379  63.286  69.160  0.00  0.00    +0.000 C 
ATOM      4  C   UNL     1      61.136  63.013  69.899  0.00  0.00    +0.000 C 
ATOM      5  C   UNL     1      60.755  62.286  69.966  0.00  0.00    +0.000 C 
ATOM      6  C   UNL     1      60.511  62.013  70.705  0.00  0.00    +0.000 C 
ATOM      7  C   UNL     1      61.275  63.470  70.573  0.00  0.00    +0.000 A 
ATOM      8  C   UNL     1      61.032  63.198  71.312  0.00  0.00    +0.000 A 
ATOM      9  C   UNL     1      61.170  63.654  71.985  0.00  0.00    +0.000 A 
ATOM     10  C   UNL     1      60.926  63.381  72.726  0.00  0.00    +0.000 C 
ATOM     11  C   UNL     1      61.551  64.382  71.919  0.00  0.00    +0.000 A 
ATOM     12  O   UNL     1      61.690  64.838  72.593  0.00  0.00    +0.000 OA
ATOM     13  C   UNL     1      62.071  65.566  72.526  0.00  0.00    +0.000 C 
ATOM     14  O   UNL     1      62.315  65.839  71.786  0.00  0.00    +0.000 OA
ATOM     15  C   UNL     1      62.210  66.023  73.200  0.00  0.00    +0.000 C 
ATOM     16  C   UNL     1      62.591  66.751  73.133  0.00  0.00    +0.000 C 
ATOM     17  C   UNL     1      61.794  64.654  71.179  0.00  0.00    +0.000 A 
ATOM     18  C   UNL     1      61.656  64.198  70.507  0.00  0.00    +0.000 A 
ATOM     19  C   UNL     1      61.241  62.829  68.486  0.00  0.00    +0.000 A 
ATOM     20  C   UNL     1      61.484  63.102  67.746  0.00  0.00    +0.000 A 
ATOM     21  C   UNL     1      61.346  62.646  67.073  0.00  0.00    +0.000 A 
ATOM     22  C   UNL     1      61.590  62.918  66.332  0.00  0.00    +0.000 C 
ATOM     23  C   UNL     1      60.964  61.917  67.139  0.00  0.00    +0.000 A 
ATOM     24  O   UNL     1      60.826  61.461  66.467  0.00  0.00    +0.000 OA
ATOM     25  C   UNL     1      61.069  61.733  65.726  0.00  0.00    +0.000 C 
ATOM     26  O   UNL     1      61.451  62.462  65.660  0.00  0.00    +0.000 OA
ATOM     27  C   UNL     1      60.931  61.277  65.053  0.00  0.00    +0.000 C 
ATOM     28  C   UNL     1      61.175  61.550  64.313  0.00  0.00    +0.000 C 
ATOM     29  C   UNL     1      60.721  61.645  67.879  0.00  0.00    +0.000 A 
ATOM     30  C   UNL     1      60.859  62.101  68.552  0.00  0.00    +0.000 A 
ENDROOT
TORSDOF 0
ENDMDL
MODEL 2
REMARK VINA RESULT:   -13.435      1.026      5.876
REMARK INTER + INTRA:         -13.435
REMARK INTER:                 -13.435
REMARK INTRA:                   0.000
REMARK UNBOUND:                 0.000
ROOT
REMARK  Name = methestrol dipropionate
REMARK                            x       y       z     vdW  Elec       q    Type
REMARK                         _______ _______ _______ _____ _____    ______ ____
ATOM      1  C   UNL     1      62.480  63.858  68.247  0.00  0.00    +0.000 C 
ATOM      2  C   UNL     1      61.944  63.398  67.821  0.00  0.00    +0.000 C 
ATOM      3  C   UNL     1      61.225  63.177  68.161  0.00  0.00    +0.000 C 
ATOM      4  C   UNL     1      60.690  62.718  67.735  0.00  0.00    +0.000 C 
ATOM      5  C   UNL     1      59.972  62.498  68.076  0.00  0.00    +0.000 C 
ATOM      6  C   UNL     1      59.436  62.039  67.649  0.00  0.00    +0.000 C 
ATOM      7  C   UNL     1      60.872  62.479  66.967  0.00  0.00    +0.000 A 
ATOM      8  C   UNL     1      60.337  62.019  66.540  0.00  0.00    +0.000 A 
ATOM      9  C   UNL     1      60.519  61.780  65.772  0.00  0.00    +0.000 A 
ATOM     10  C   UNL     1      59.982  61.320  65.345  0.00  0.00    +0.000 C 
ATOM     11  C   UNL     1      61.236  62.000  65.431  0.00  0.00    +0.000 A 
ATOM     12  O   UNL     1      61.419  61.761  64.662  0.00  0.00    +0.000 OA
ATOM     13  C   UNL     1      62.136  61.981  64.322  0.00  0.00    +0.000 C 
ATOM     14  O   UNL     1      62.673  62.440  64.748  0.00  0.00    +0.000 OA
ATOM     15  C   UNL     1      62.319  61.741  63.552  0.00  0.00    +0.000 C 
ATOM     16  C   UNL     1      63.037  61.961  63.212  0.00  0.00    +0.000 C 
ATOM     17  C   UNL     1      61.772  62.459  65.858  0.00  0.00    +0.000 A 
ATOM     18  C   UNL     1      61.590  62.699  66.625  0.00  0.00    +0.000 A 
ATOM     19  C   UNL     1      61.043  63.417  68.931  0.00  0.00    +0.000 A 
ATOM     20  C   UNL     1      61.579  63.877  69.357  0.00  0.00    +0.000 A 
ATOM     21  C   UNL     1      61.397  64.116  70.125  0.00  0.00    +0.000 A 
ATOM     22  C   UNL     1      61.933  64.576  70.553  0.00  0.00    +0.000 C 
ATOM     23  C   UNL     1      60.678  63.896  70.467  0.00  0.00    +0.000 A 
ATOM     24  O   UNL     1      60.496  64.135  71.234  0.00  0.00    +0.000 OA
ATOM     25  C   UNL     1      61.033  64.595  71.662  0.00  0.00    +0.000 C 
ATOM     26  O   UNL     1      61.751  64.815  71.320  0.00  0.00    +0.000 OA
ATOM     27  C   UNL     1      60.850  64.834  72.430  0.00  0.00    +0.000 C 
ATOM     28  C   UNL     1      61.387  65.294  72.856  0.00  0.00    +0.000 C 
ATOM     29  C   UNL     1      60.143  63.437  70.040  0.00  0.00    +0.000 A 
ATOM     30  C   UNL     1      60.325  63.197  69.271  0.00  0.00    +0.000 A 
ENDROOT
TORSDOF 0
ENDMDL
MODEL 3
REMARK VINA RESULT:   -13.420      2.101      5.747
REMARK INTER + INTRA:         -13.420
REMARK INTER:                 -13.420
REMARK INTRA:                   0.000
REMARK UNBOUND:                 0.000
ROOT
REMARK  Name = methestrol dipropionate
REMARK                            x       y       z     vdW  Elec       q    Type
REMARK                         _______ _______ _______ _____ _____    ______ ____
ATOM      1  C   UNL     1      60.039  65.632  69.099  0.00  0.00    +0.000 C 
ATOM      2  C   UNL     1      60.204  64.823  69.102  0.00  0.00    +0.000 C 
ATOM      3  C   UNL     1      60.084  64.379  69.788  0.00  0.00    +0.000 C 
ATOM      4  C   UNL     1      60.249  63.572  69.791  0.00  0.00    +0.000 C 
ATOM      5  C   UNL     1      60.129  63.129  70.476  0.00  0.00    +0.000 C 
ATOM      6  C   UNL     1      60.294  62.320  70.480  0.00  0.00    +0.000 C 
ATOM      7  C   UNL     1      60.534  63.206  69.109  0.00  0.00    +0.000 A 
ATOM      8  C   UNL     1      60.700  62.398  69.111  0.00  0.00    +0.000 A 
ATOM      9  C   UNL     1      60.985  62.034  68.429  0.00  0.00    +0.000 A 
ATOM     10  C   UNL     1      61.150  61.225  68.432  0.00  0.00    +0.000 C 
ATOM     11  C   UNL     1      61.105  62.476  67.744  0.00  0.00    +0.000 A 
ATOM     12  O   UNL     1      61.390  62.111  67.061  0.00  0.00    +0.000 OA
ATOM     13  C   UNL     1      61.510  62.553  66.376  0.00  0.00    +0.000 C 
ATOM     14  O   UNL     1      61.345  63.362  66.373  0.00  0.00    +0.000 OA
ATOM     15  C   UNL     1      61.796  62.188  65.693  0.00  0.00    +0.000 C 
ATOM     16  C   UNL     1      61.916  62.631  65.008  0.00  0.00    +0.000 C 
ATOM     17  C   UNL     1      60.940  63.284  67.741  0.00  0.00    +0.000 A 
ATOM     18  C   UNL     1      60.655  63.649  68.423  0.00  0.00    +0.000 A 
ATOM     19  C   UNL     1      59.798  64.745  70.471  0.00  0.00    +0.000 A 
ATOM     20  C   UNL     1      59.633  65.554  70.467  0.00  0.00    +0.000 A 
ATOM     21  C   UNL     1      59.348  65.919  71.150  0.00  0.00    +0.000 A 
ATOM     22  C   UNL     1      59.182  66.728  71.147  0.00  0.00    +0.000 C 
ATOM     23  C   UNL     1      59.227  65.476  71.836  0.00  0.00    +0.000 A 
ATOM     24  O   UNL     1      58.942  65.840  72.518  0.00  0.00    +0.000 OA
ATOM     25  C   UNL     1      58.777  66.649  72.515  0.00  0.00    +0.000 C 
ATOM     26  O   UNL     1      58.897  67.093  71.829  0.00  0.00    +0.000 OA
ATOM     27  C   UNL     1      58.492  67.015  73.197  0.00  0.00    +0.000 C 
ATOM     28  C   UNL     1      58.326  67.823  73.194  0.00  0.00    +0.000 C 
ATOM     29  C   UNL     1      59.393  64.668  71.838  0.00  0.00    +0.000 A 
ATOM     30  C   UNL     1      59.678  64.302  71.156  0.00  0.00    +0.000 A 
ENDROOT
TORSDOF 0
ENDMDL
MODEL 4
REMARK VINA RESULT:   -13.365      1.026      5.765
REMARK INTER + INTRA:         -13.365
REMARK INTER:                 -13.365
REMARK INTRA:                   0.000
REMARK UNBOUND:                 0.000
ROOT
REMARK  Name = methestrol dipropionate
REMARK                            x       y       z     vdW  Elec       q    Type
REMARK                         _______ _______ _______ _____ _____    ______ ____
ATOM      1  C   UNL     1      62.595  65.443  69.238  0.00  0.00    +0.000 C 
ATOM      2  C   UNL     1      62.109  64.776  69.235  0.00  0.00    +0.000 C 
ATOM      3  C   UNL     1      61.647  64.598  69.896  0.00  0.00    +0.000 C 
ATOM      4  C   UNL     1      61.161  63.932  69.892  0.00  0.00    +0.000 C 
ATOM      5  C   UNL     1      60.701  63.754  70.552  0.00  0.00    +0.000 C 
ATOM      6  C   UNL     1      60.214  63.087  70.549  0.00  0.00    +0.000 C 
ATOM      7  C   UNL     1      61.136  63.443  69.228  0.00  0.00    +0.000 A 
ATOM      8  C   UNL     1      60.651  62.776  69.224  0.00  0.00    +0.000 A 
ATOM      9  C   UNL     1      60.626  62.288  68.561  0.00  0.00    +0.000 A 
ATOM     10  C   UNL     1      60.139  61.621  68.557  0.00  0.00    +0.000 C 
ATOM     11  C   UNL     1      61.087  62.465  67.900  0.00  0.00    +0.000 A 
ATOM     12  O   UNL     1      61.062  61.977  67.236  0.00  0.00    +0.000 OA
ATOM     13  C   UNL     1      61.522  62.154  66.576  0.00  0.00    +0.000 C 
ATOM     14  O   UNL     1      62.009  62.821  66.579  0.00  0.00    +0.000 OA
ATOM     15  C   UNL     1      61.497  61.665  65.911  0.00  0.00    +0.000 C 
ATOM     16  C   UNL     1      61.959  61.843  65.250  0.00  0.00    +0.000 C 
ATOM     17  C   UNL     1      61.572  63.132  67.904  0.00  0.00    +0.000 A 
ATOM     18  C   UNL     1      61.597  63.620  68.567  0.00  0.00    +0.000 A 
ATOM     19  C   UNL     1      61.672  65.087  70.560  0.00  0.00    +0.000 A 
ATOM     20  C   UNL     1      62.158  65.754  70.563  0.00  0.00    +0.000 A 
ATOM     21  C   UNL     1      62.183  66.243  71.227  0.00  0.00    +0.000 A 
ATOM     22  C   UNL     1      62.670  66.910  71.231  0.00  0.00    +0.000 C 
ATOM     23  C   UNL     1      61.722  66.065  71.889  0.00  0.00    +0.000 A 
ATOM     24  O   UNL     1      61.747  66.553  72.552  0.00  0.00    +0.000 OA
ATOM     25  C   UNL     1      62.233  67.221  72.556  0.00  0.00    +0.000 C 
ATOM     26  O   UNL     1      62.695  67.398  71.894  0.00  0.00    +0.000 OA
ATOM     27  C   UNL     1      62.258  67.710  73.220  0.00  0.00    +0.000 C 
ATOM     28  C   UNL     1      62.744  68.376  73.222  0.00  0.00    +0.000 C 
ATOM     29  C   UNL     1      61.236  65.399  71.885  0.00  0.00    +0.000 A 
ATOM     30  C   UNL     1      61.211  64.910  71.220  0.00  0.00    +0.000 A 
ENDROOT
TORSDOF 0
ENDMDL
MODEL 5
REMARK VINA RESULT:   -13.167      1.796      2.565
REMARK INTER + INTRA:         -13.167
REMARK INTER:                 -13.167
REMARK INTRA:                   0.000
REMARK UNBOUND:                 0.000
ROOT
REMARK  Name = methestrol dipropionate
REMARK                            x       y       z     vdW  Elec       q    Type
REMARK                         _______ _______ _______ _____ _____    ______ ____
ATOM      1  C   UNL     1      63.040  64.243  68.636  0.00  0.00    +0.000 C 
ATOM      2  C   UNL     1      62.886  64.602  69.363  0.00  0.00    +0.000 C 
ATOM      3  C   UNL     1      62.125  64.582  69.681  0.00  0.00    +0.000 C 
ATOM      4  C   UNL     1      61.971  64.941  70.407  0.00  0.00    +0.000 C 
ATOM      5  C   UNL     1      61.211  64.921  70.725  0.00  0.00    +0.000 C 
ATOM      6  C   UNL     1      61.056  65.280  71.452  0.00  0.00    +0.000 C 
ATOM      7  C   UNL     1      62.579  65.321  70.816  0.00  0.00    +0.000 A 
ATOM      8  C   UNL     1      62.426  65.680  71.543  0.00  0.00    +0.000 A 
ATOM      9  C   UNL     1      63.033  66.060  71.951  0.00  0.00    +0.000 A 
ATOM     10  C   UNL     1      62.879  66.419  72.678  0.00  0.00    +0.000 C 
ATOM     11  C   UNL     1      63.794  66.080  71.634  0.00  0.00    +0.000 A 
ATOM     12  O   UNL     1      64.401  66.460  72.043  0.00  0.00    +0.000 OA
ATOM     13  C   UNL     1      65.162  66.481  71.725  0.00  0.00    +0.000 C 
ATOM     14  O   UNL     1      65.316  66.122  70.999  0.00  0.00    +0.000 OA
ATOM     15  C   UNL     1      65.770  66.861  72.135  0.00  0.00    +0.000 C 
ATOM     16  C   UNL     1      66.531  66.881  71.817  0.00  0.00    +0.000 C 
ATOM     17  C   UNL     1      63.947  65.721  70.908  0.00  0.00    +0.000 A 
ATOM     18  C   UNL     1      63.340  65.342  70.499  0.00  0.00    +0.000 A 
ATOM     19  C   UNL     1      61.516  64.202  69.272  0.00  0.00    +0.000 A 
ATOM     20  C   UNL     1      61.671  63.843  68.545  0.00  0.00    +0.000 A 
ATOM     21  C   UNL     1      61.063  63.463  68.136  0.00  0.00    +0.000 A 
ATOM     22  C   UNL     1      61.217  63.103  67.409  0.00  0.00    +0.000 C 
ATOM     23  C   UNL     1      60.301  63.442  68.454  0.00  0.00    +0.000 A 
ATOM     24  O   UNL     1      59.695  63.063  68.046  0.00  0.00    +0.000 OA
ATOM     25  C   UNL     1      59.848  62.703  67.318  0.00  0.00    +0.000 C 
ATOM     26  O   UNL     1      60.610  62.724  67.000  0.00  0.00    +0.000 OA
ATOM     27  C   UNL     1      59.240  62.323  66.909  0.00  0.00    +0.000 C 
ATOM     28  C   UNL     1      59.395  61.964  66.183  0.00  0.00    +0.000 C 
ATOM     29  C   UNL     1      60.148  63.801  69.181  0.00  0.00    +0.000 A 
ATOM     30  C   UNL     1      60.756  64.181  69.589  0.00  0.00    +0.000 A 
ENDROOT
TORSDOF 0
ENDMDL
MODEL 6
REMARK VINA RESULT:   -13.113      2.916      5.583
REMARK INTER + INTRA:         -13.113
REMARK INTER:                 -13.113
REMARK INTRA:                   0.000
REMARK UNBOUND:                 0.000
ROOT
REMARK  Name = methestrol dipropionate
REMARK                            x       y       z     vdW  Elec       q    Type
REMARK                         _______ _______ _______ _____ _____    ______ ____
ATOM      1  C   UNL     1      64.026  64.830  69.696  0.00  0.00    +0.000 C 
ATOM      2  C   UNL     1      63.485  64.810  70.319  0.00  0.00    +0.000 C 
ATOM      3  C   UNL     1      63.503  65.394  70.902  0.00  0.00    +0.000 C 
ATOM      4  C   UNL     1      62.962  65.373  71.523  0.00  0.00    +0.000 C 
ATOM      5  C   UNL     1      62.981  65.956  72.106  0.00  0.00    +0.000 C 
ATOM      6  C   UNL     1      62.439  65.936  72.728  0.00  0.00    +0.000 C 
ATOM      7  C   UNL     1      62.402  64.769  71.563  0.00  0.00    +0.000 A 
ATOM      8  C   UNL     1      61.860  64.748  72.184  0.00  0.00    +0.000 A 
ATOM      9  C   UNL     1      61.300  64.144  72.223  0.00  0.00    +0.000 A 
ATOM     10  C   UNL     1      60.758  64.123  72.846  0.00  0.00    +0.000 C 
ATOM     11  C   UNL     1      61.281  63.560  71.641  0.00  0.00    +0.000 A 
ATOM     12  O   UNL     1      60.721  62.956  71.680  0.00  0.00    +0.000 OA
ATOM     13  C   UNL     1      60.702  62.373  71.098  0.00  0.00    +0.000 C 
ATOM     14  O   UNL     1      61.244  62.393  70.475  0.00  0.00    +0.000 OA
ATOM     15  C   UNL     1      60.141  61.768  71.137  0.00  0.00    +0.000 C 
ATOM     16  C   UNL     1      60.123  61.185  70.554  0.00  0.00    +0.000 C 
ATOM     17  C   UNL     1      61.823  63.582  71.019  0.00  0.00    +0.000 A 
ATOM     18  C   UNL     1      62.383  64.185  70.980  0.00  0.00    +0.000 A 
ATOM     19  C   UNL     1      64.064  65.999  70.863  0.00  0.00    +0.000 A 
ATOM     20  C   UNL     1      64.606  66.019  70.240  0.00  0.00    +0.000 A 
ATOM     21  C   UNL     1      65.166  66.623  70.201  0.00  0.00    +0.000 A 
ATOM     22  C   UNL     1      65.708  66.644  69.579  0.00  0.00    +0.000 C 
ATOM     23  C   UNL     1      65.185  67.207  70.784  0.00  0.00    +0.000 A 
ATOM     24  O   UNL     1      65.745  67.810  70.745  0.00  0.00    +0.000 OA
ATOM     25  C   UNL     1      66.287  67.831  70.123  0.00  0.00    +0.000 C 
ATOM     26  O   UNL     1      66.268  67.247  69.539  0.00  0.00    +0.000 OA
ATOM     27  C   UNL     1      66.847  68.435  70.084  0.00  0.00    +0.000 C 
ATOM     28  C   UNL     1      67.389  68.456  69.461  0.00  0.00    +0.000 C 
ATOM     29  C   UNL     1      64.643  67.186  71.406  0.00  0.00    +0.000 A 
ATOM     30  C   UNL     1      64.083  66.582  71.445  0.00  0.00    +0.000 A 
ENDROOT
TORSDOF 0
ENDMDL
MODEL 7
REMARK VINA RESULT:   -13.072      2.114      5.485
REMARK INTER + INTRA:         -13.072
REMARK INTER:                 -13.072
REMARK INTRA:                   0.000
REMARK UNBOUND:                 0.000
ROOT
REMARK  Name = methestrol dipropionate
REMARK                            x       y       z     vdW  Elec       q    Type
REMARK                         _______ _______ _______ _____ _____    ______ ____
ATOM      1  C   UNL     1      63.187  65.067  68.515  0.00  0.00    +0.000 C 
ATOM      2  C   UNL     1      62.690  64.509  68.866  0.00  0.00    +0.000 C 
ATOM      3  C   UNL     1      62.748  64.354  69.674  0.00  0.00    +0.000 C 
ATOM      4  C   UNL     1      62.252  63.797  70.025  0.00  0.00    +0.000 C 
ATOM      5  C   UNL     1      62.310  63.642  70.832  0.00  0.00    +0.000 C 
ATOM      6  C   UNL     1      61.813  63.085  71.183  0.00  0.00    +0.000 C 
ATOM      7  C   UNL     1      61.696  63.395  69.567  0.00  0.00    +0.000 A 
ATOM      8  C   UNL     1      61.198  62.837  69.916  0.00  0.00    +0.000 A 
ATOM      9  C   UNL     1      60.643  62.436  69.459  0.00  0.00    +0.000 A 
ATOM     10  C   UNL     1      60.145  61.878  69.809  0.00  0.00    +0.000 C 
ATOM     11  C   UNL     1      60.584  62.590  68.651  0.00  0.00    +0.000 A 
ATOM     12  O   UNL     1      60.028  62.188  68.193  0.00  0.00    +0.000 OA
ATOM     13  C   UNL     1      59.969  62.343  67.385  0.00  0.00    +0.000 C 
ATOM     14  O   UNL     1      60.466  62.900  67.035  0.00  0.00    +0.000 OA
ATOM     15  C   UNL     1      59.413  61.940  66.927  0.00  0.00    +0.000 C 
ATOM     16  C   UNL     1      59.354  62.096  66.119  0.00  0.00    +0.000 C 
ATOM     17  C   UNL     1      61.081  63.147  68.301  0.00  0.00    +0.000 A 
ATOM     18  C   UNL     1      61.636  63.549  68.759  0.00  0.00    +0.000 A 
ATOM     19  C   UNL     1      63.305  64.757  70.133  0.00  0.00    +0.000 A 
ATOM     20  C   UNL     1      63.802  65.314  69.782  0.00  0.00    +0.000 A 
ATOM     21  C   UNL     1      64.358  65.716  70.240  0.00  0.00    +0.000 A 
ATOM     22  C   UNL     1      64.856  66.274  69.889  0.00  0.00    +0.000 C 
ATOM     23  C   UNL     1      64.417  65.561  71.049  0.00  0.00    +0.000 A 
ATOM     24  O   UNL     1      64.972  65.963  71.506  0.00  0.00    +0.000 OA
ATOM     25  C   UNL     1      65.470  66.521  71.155  0.00  0.00    +0.000 C 
ATOM     26  O   UNL     1      65.411  66.676  70.347  0.00  0.00    +0.000 OA
ATOM     27  C   UNL     1      66.026  66.923  71.613  0.00  0.00    +0.000 C 
ATOM     28  C   UNL     1      66.523  67.481  71.262  0.00  0.00    +0.000 C 
ATOM     29  C   UNL     1      63.920  65.004  71.398  0.00  0.00    +0.000 A 
ATOM     30  C   UNL     1      63.364  64.602  70.940  0.00  0.00    +0.000 A 
ENDROOT
TORSDOF 0
ENDMDL
MODEL 8
REMARK VINA RESULT:   -12.944      1.319      2.057
REMARK INTER + INTRA:         -12.944
REMARK INTER:                 -12.944
REMARK INTRA:                   0.000
REMARK UNBOUND:                 0.000
ROOT
REMARK  Name = methestrol dipropionate
REMARK                            x       y       z     vdW  Elec       q    Type
REMARK                         _______ _______ _______ _____ _____    ______ ____
ATOM      1  C   UNL     1      59.480  62.919  68.051  0.00  0.00    +0.000 C 
ATOM      2  C   UNL     1      60.031  63.294  68.537  0.00  0.00    +0.000 C 
ATOM      3  C   UNL     1      60.820  63.349  68.303  0.00  0.00    +0.000 C 
ATOM      4  C   UNL     1      61.370  63.724  68.789  0.00  0.00    +0.000 C 
ATOM      5  C   UNL     1      62.158  63.779  68.555  0.00  0.00    +0.000 C 
ATOM      6  C   UNL     1      62.709  64.154  69.041  0.00  0.00    +0.000 C 
ATOM      7  C   UNL     1      61.131  64.045  69.511  0.00  0.00    +0.000 A 
ATOM      8  C   UNL     1      61.681  64.420  69.998  0.00  0.00    +0.000 A 
ATOM      9  C   UNL     1      61.443  64.740  70.719  0.00  0.00    +0.000 A 
ATOM     10  C   UNL     1      61.993  65.115  71.207  0.00  0.00    +0.000 C 
ATOM     11  C   UNL     1      60.654  64.686  70.955  0.00  0.00    +0.000 A 
ATOM     12  O   UNL     1      60.415  65.006  71.677  0.00  0.00    +0.000 OA
ATOM     13  C   UNL     1      59.627  64.951  71.911  0.00  0.00    +0.000 C 
ATOM     14  O   UNL     1      59.076  64.576  71.424  0.00  0.00    +0.000 OA
ATOM     15  C   UNL     1      59.388  65.272  72.634  0.00  0.00    +0.000 C 
ATOM     16  C   UNL     1      58.599  65.217  72.868  0.00  0.00    +0.000 C 
ATOM     17  C   UNL     1      60.104  64.310  70.468  0.00  0.00    +0.000 A 
ATOM     18  C   UNL     1      60.343  63.990  69.747  0.00  0.00    +0.000 A 
ATOM     19  C   UNL     1      61.059  63.028  67.580  0.00  0.00    +0.000 A 
ATOM     20  C   UNL     1      60.508  62.653  67.094  0.00  0.00    +0.000 A 
ATOM     21  C   UNL     1      60.747  62.333  66.372  0.00  0.00    +0.000 A 
ATOM     22  C   UNL     1      60.196  61.957  65.885  0.00  0.00    +0.000 C 
ATOM     23  C   UNL     1      61.536  62.387  66.137  0.00  0.00    +0.000 A 
ATOM     24  O   UNL     1      61.775  62.067  65.416  0.00  0.00    +0.000 OA
ATOM     25  C   UNL     1      61.224  61.692  64.929  0.00  0.00    +0.000 C 
ATOM     26  O   UNL     1      60.434  61.637  65.164  0.00  0.00    +0.000 OA
ATOM     27  C   UNL     1      61.463  61.371  64.207  0.00  0.00    +0.000 C 
ATOM     28  C   UNL     1      60.912  60.996  63.720  0.00  0.00    +0.000 C 
ATOM     29  C   UNL     1      62.086  62.763  66.624  0.00  0.00    +0.000 A 
ATOM     30  C   UNL     1      61.847  63.083  67.346  0.00  0.00    +0.000 A 
ENDROOT
TORSDOF 0
ENDMDL
MODEL 9
REMARK VINA RESULT:   -12.626      2.843      4.746
REMARK INTER + INTRA:         -12.626
REMARK INTER:                 -12.626
REMARK INTRA:                   0.000
REMARK UNBOUND:                 0.000
ROOT
REMARK  Name = methestrol dipropionate
REMARK                            x       y       z     vdW  Elec       q    Type
REMARK                         _______ _______ _______ _____ _____    ______ ____
ATOM      1  C   UNL     1      63.635  64.456  69.627  0.00  0.00    +0.000 C 
ATOM      2  C   UNL     1      63.785  65.071  70.157  0.00  0.00    +0.000 C 
ATOM      3  C   UNL     1      63.333  65.145  70.843  0.00  0.00    +0.000 C 
ATOM      4  C   UNL     1      63.482  65.760  71.372  0.00  0.00    +0.000 C 
ATOM      5  C   UNL     1      63.031  65.833  72.058  0.00  0.00    +0.000 C 
ATOM      6  C   UNL     1      63.180  66.448  72.587  0.00  0.00    +0.000 C 
ATOM      7  C   UNL     1      64.085  66.301  71.215  0.00  0.00    +0.000 A 
ATOM      8  C   UNL     1      64.235  66.916  71.744  0.00  0.00    +0.000 A 
ATOM      9  C   UNL     1      64.837  67.457  71.587  0.00  0.00    +0.000 A 
ATOM     10  C   UNL     1      64.987  68.072  72.116  0.00  0.00    +0.000 C 
ATOM     11  C   UNL     1      65.290  67.384  70.901  0.00  0.00    +0.000 A 
ATOM     12  O   UNL     1      65.892  67.925  70.744  0.00  0.00    +0.000 OA
ATOM     13  C   UNL     1      66.344  67.852  70.059  0.00  0.00    +0.000 C 
ATOM     14  O   UNL     1      66.194  67.237  69.529  0.00  0.00    +0.000 OA
ATOM     15  C   UNL     1      66.947  68.394  69.902  0.00  0.00    +0.000 C 
ATOM     16  C   UNL     1      67.399  68.319  69.215  0.00  0.00    +0.000 C 
ATOM     17  C   UNL     1      65.139  66.769  70.373  0.00  0.00    +0.000 A 
ATOM     18  C   UNL     1      64.537  66.228  70.529  0.00  0.00    +0.000 A 
ATOM     19  C   UNL     1      62.730  64.603  71.000  0.00  0.00    +0.000 A 
ATOM     20  C   UNL     1      62.580  63.988  70.471  0.00  0.00    +0.000 A 
ATOM     21  C   UNL     1      61.977  63.447  70.628  0.00  0.00    +0.000 A 
ATOM     22  C   UNL     1      61.827  62.831  70.098  0.00  0.00    +0.000 C 
ATOM     23  C   UNL     1      61.525  63.520  71.314  0.00  0.00    +0.000 A 
ATOM     24  O   UNL     1      60.923  62.980  71.471  0.00  0.00    +0.000 OA
ATOM     25  C   UNL     1      60.773  62.364  70.941  0.00  0.00    +0.000 C 
ATOM     26  O   UNL     1      61.225  62.291  70.255  0.00  0.00    +0.000 OA
ATOM     27  C   UNL     1      60.170  61.823  71.098  0.00  0.00    +0.000 C 
ATOM     28  C   UNL     1      60.021  61.208  70.569  0.00  0.00    +0.000 C 
ATOM     29  C   UNL     1      61.675  64.135  71.843  0.00  0.00    +0.000 A 
ATOM     30  C   UNL     1      62.278  64.677  71.686  0.00  0.00    +0.000 A 
ENDROOT
TORSDOF 0
ENDMDL
