MODEL 1
REMARK VINA RESULT:    -3.793      0.000      0.000
REMARK INTER + INTRA:          -3.793
REMARK INTER:                  -3.793
REMARK INTRA:                   0.000
REMARK UNBOUND:                 0.000
ROOT
REMARK  Name = methiodal
REMARK                            x       y       z     vdW  Elec       q    Type
REMARK                         _______ _______ _______ _____ _____    ______ ____
ATOM      1  O   UNL     1      62.371  61.629  63.570  0.00  0.00    +0.000 OA
ATOM      2  S   UNL     1      61.899  61.669  64.245  0.00  0.00    +0.000 S 
ATOM      3  O   UNL     1      61.279  61.314  63.833  0.00  0.00    +0.000 OA
ATOM      4  O   UNL     1      62.519  62.024  64.658  0.00  0.00    +0.000 OA
ATOM      5  C   UNL     1      61.426  61.709  64.921  0.00  0.00    +0.000 C 
ATOM      6  I   UNL     1      61.727  62.037  65.616  0.00  0.00    +0.000 I 
ENDROOT
TORSDOF 0
ENDMDL
MODEL 2
REMARK VINA RESULT:    -3.668      1.908      2.308
REMARK INTER + INTRA:          -3.668
REMARK INTER:                  -3.668
REMARK INTRA:                   0.000
REMARK UNBOUND:                 0.000
ROOT
REMARK  Name = methiodal
REMARK                            x       y       z     vdW  Elec       q    Type
REMARK                         _______ _______ _______ _____ _____    ______ ____
ATOM      1  O   UNL     1      61.462  62.197  67.052  0.00  0.00    +0.000 OA
ATOM      2  S   UNL     1      61.614  62.362  66.259  0.00  0.00    +0.000 S 
ATOM      3  O   UNL     1      61.309  63.122  66.358  0.00  0.00    +0.000 OA
ATOM      4  O   UNL     1      61.918  61.602  66.158  0.00  0.00    +0.000 OA
ATOM      5  C   UNL     1      61.766  62.527  65.464  0.00  0.00    +0.000 C 
ATOM      6  I   UNL     1      62.105  61.951  64.981  0.00  0.00    +0.000 I 
ENDROOT
TORSDOF 0
ENDMDL
MODEL 3
REMARK VINA RESULT:    -3.443     16.699     16.838
REMARK INTER + INTRA:          -3.443
REMARK INTER:                  -3.443
REMARK INTRA:                   0.000
REMARK UNBOUND:                 0.000
ROOT
REMARK  Name = methiodal
REMARK                            x       y       z     vdW  Elec       q    Type
REMARK                         _______ _______ _______ _____ _____    ______ ____
ATOM      1  O   UNL     1      66.244  76.458  60.499  0.00  0.00    +0.000 OA
ATOM      2  S   UNL     1      66.036  77.159  60.118  0.00  0.00    +0.000 S 
ATOM      3  O   UNL     1      65.240  76.948  60.164  0.00  0.00    +0.000 OA
ATOM      4  O   UNL     1      66.832  77.371  60.072  0.00  0.00    +0.000 OA
ATOM      5  C   UNL     1      65.827  77.861  59.737  0.00  0.00    +0.000 C 
ATOM      6  I   UNL     1      66.413  78.395  59.507  0.00  0.00    +0.000 I 
ENDROOT
TORSDOF 0
ENDMDL
MODEL 4
REMARK VINA RESULT:    -3.230     24.562     24.746
REMARK INTER + INTRA:          -3.230
REMARK INTER:                  -3.230
REMARK INTRA:                   0.000
REMARK UNBOUND:                 0.000
ROOT
REMARK  Name = methiodal
REMARK                            x       y       z     vdW  Elec       q    Type
REMARK                         _______ _______ _______ _____ _____    ______ ____
ATOM      1  O   UNL     1      70.179  78.469  49.649  0.00  0.00    +0.000 OA
ATOM      2  S   UNL     1      70.780  78.542  49.088  0.00  0.00    +0.000 S 
ATOM      3  O   UNL     1      70.974  77.747  49.192  0.00  0.00    +0.000 OA
ATOM      4  O   UNL     1      70.587  79.337  48.984  0.00  0.00    +0.000 OA
ATOM      5  C   UNL     1      71.381  78.615  48.527  0.00  0.00    +0.000 C 
ATOM      6  I   UNL     1      71.514  79.340  48.157  0.00  0.00    +0.000 I 
ENDROOT
TORSDOF 0
ENDMDL
MODEL 5
REMARK VINA RESULT:    -3.217      8.926      9.257
REMARK INTER + INTRA:          -3.217
REMARK INTER:                  -3.217
REMARK INTRA:                   0.000
REMARK UNBOUND:                 0.000
ROOT
REMARK  Name = methiodal
REMARK                            x       y       z     vdW  Elec       q    Type
REMARK                         _______ _______ _______ _____ _____    ______ ____
ATOM      1  O   UNL     1      66.496  67.725  69.842  0.00  0.00    +0.000 OA
ATOM      2  S   UNL     1      66.179  67.318  70.485  0.00  0.00    +0.000 S 
ATOM      3  O   UNL     1      66.899  67.384  70.882  0.00  0.00    +0.000 OA
ATOM      4  O   UNL     1      65.459  67.251  70.089  0.00  0.00    +0.000 OA
ATOM      5  C   UNL     1      65.862  66.910  71.129  0.00  0.00    +0.000 C 
ATOM      6  I   UNL     1      65.080  66.649  71.107  0.00  0.00    +0.000 I 
ENDROOT
TORSDOF 0
ENDMDL
MODEL 6
REMARK VINA RESULT:    -3.136     16.437     16.659
REMARK INTER + INTRA:          -3.136
REMARK INTER:                  -3.136
REMARK INTRA:                   0.000
REMARK UNBOUND:                 0.000
ROOT
REMARK  Name = methiodal
REMARK                            x       y       z     vdW  Elec       q    Type
REMARK                         _______ _______ _______ _____ _____    ______ ____
ATOM      1  O   UNL     1      58.607  74.923  72.427  0.00  0.00    +0.000 OA
ATOM      2  S   UNL     1      58.196  75.638  72.433  0.00  0.00    +0.000 S 
ATOM      3  O   UNL     1      57.491  75.232  72.568  0.00  0.00    +0.000 OA
ATOM      4  O   UNL     1      58.901  76.045  72.297  0.00  0.00    +0.000 OA
ATOM      5  C   UNL     1      57.785  76.354  72.439  0.00  0.00    +0.000 C 
ATOM      6  I   UNL     1      58.190  77.063  72.325  0.00  0.00    +0.000 I 
ENDROOT
TORSDOF 0
ENDMDL
MODEL 7
REMARK VINA RESULT:    -3.094     17.354     17.539
REMARK INTER + INTRA:          -3.094
REMARK INTER:                  -3.094
REMARK INTRA:                   0.000
REMARK UNBOUND:                 0.000
ROOT
REMARK  Name = methiodal
REMARK                            x       y       z     vdW  Elec       q    Type
REMARK                         _______ _______ _______ _____ _____    ______ ____
ATOM      1  O   UNL     1      58.986  77.781  73.164  0.00  0.00    +0.000 OA
ATOM      2  S   UNL     1      59.018  77.021  72.847  0.00  0.00    +0.000 S 
ATOM      3  O   UNL     1      59.787  76.933  73.134  0.00  0.00    +0.000 OA
ATOM      4  O   UNL     1      58.249  77.108  72.560  0.00  0.00    +0.000 OA
ATOM      5  C   UNL     1      59.050  76.260  72.529  0.00  0.00    +0.000 C 
ATOM      6  I   UNL     1      58.401  75.955  72.122  0.00  0.00    +0.000 I 
ENDROOT
TORSDOF 0
ENDMDL
MODEL 8
REMARK VINA RESULT:    -3.041      4.259      4.530
REMARK INTER + INTRA:          -3.041
REMARK INTER:                  -3.041
REMARK INTRA:                   0.000
REMARK UNBOUND:                 0.000
ROOT
REMARK  Name = methiodal
REMARK                            x       y       z     vdW  Elec       q    Type
REMARK                         _______ _______ _______ _____ _____    ______ ____
ATOM      1  O   UNL     1      60.899  62.465  69.583  0.00  0.00    +0.000 OA
ATOM      2  S   UNL     1      60.689  62.326  68.798  0.00  0.00    +0.000 S 
ATOM      3  O   UNL     1      60.212  61.697  69.037  0.00  0.00    +0.000 OA
ATOM      4  O   UNL     1      61.167  62.955  68.558  0.00  0.00    +0.000 OA
ATOM      5  C   UNL     1      60.479  62.186  68.012  0.00  0.00    +0.000 C 
ATOM      6  I   UNL     1      60.788  62.661  67.412  0.00  0.00    +0.000 I 
ENDROOT
TORSDOF 0
ENDMDL
MODEL 9
REMARK VINA RESULT:    -2.889      6.163      6.557
REMARK INTER + INTRA:          -2.889
REMARK INTER:                  -2.889
REMARK INTRA:                   0.000
REMARK UNBOUND:                 0.000
ROOT
REMARK  Name = methiodal
REMARK                            x       y       z     vdW  Elec       q    Type
REMARK                         _______ _______ _______ _____ _____    ______ ____
ATOM      1  O   UNL     1      62.585  63.915  70.734  0.00  0.00    +0.000 OA
ATOM      2  S   UNL     1      63.107  64.264  70.201  0.00  0.00    +0.000 S 
ATOM      3  O   UNL     1      62.690  63.930  69.572  0.00  0.00    +0.000 OA
ATOM      4  O   UNL     1      63.525  64.599  70.829  0.00  0.00    +0.000 OA
ATOM      5  C   UNL     1      63.630  64.615  69.667  0.00  0.00    +0.000 C 
ATOM      6  I   UNL     1      64.253  65.080  69.945  0.00  0.00    +0.000 I 
ENDROOT
TORSDOF 0
ENDMDL
