MODEL 1
REMARK VINA RESULT:   -13.954      0.000      0.000
REMARK INTER + INTRA:         -13.954
REMARK INTER:                 -13.954
REMARK INTRA:                   0.000
REMARK UNBOUND:                 0.000
ROOT
REMARK  Name = methylprednisolone suleptanate
REMARK                            x       y       z     vdW  Elec       q    Type
REMARK                         _______ _______ _______ _____ _____    ______ ____
ATOM      1  C   UNL     1      61.163  60.076  52.318  0.00  0.00    +0.000 C 
ATOM      2  C   UNL     1      61.860  60.418  52.597  0.00  0.00    +0.000 C 
ATOM      3  C   UNL     1      61.882  61.223  52.775  0.00  0.00    +0.000 C 
ATOM      4  C   UNL     1      62.578  61.565  53.055  0.00  0.00    +0.000 C 
ATOM      5  C   UNL     1      62.600  62.371  53.232  0.00  0.00    +0.000 C 
ATOM      6  C   UNL     1      62.026  62.962  53.187  0.00  0.00    +0.000 C 
ATOM      7  C   UNL     1      62.368  63.668  53.439  0.00  0.00    +0.000 C 
ATOM      8  C   UNL     1      63.154  63.516  53.640  0.00  0.00    +0.000 C 
ATOM      9  O   UNL     1      63.944  63.530  53.878  0.00  0.00    +0.000 OA
ATOM     10  C   UNL     1      63.176  64.321  53.818  0.00  0.00    +0.000 C 
ATOM     11  O   UNL     1      63.873  64.663  54.097  0.00  0.00    +0.000 OA
ATOM     12  C   UNL     1      62.501  64.784  53.715  0.00  0.00    +0.000 C 
ATOM     13  O   UNL     1      62.523  65.590  53.893  0.00  0.00    +0.000 OA
ATOM     14  C   UNL     1      61.848  66.052  53.790  0.00  0.00    +0.000 C 
ATOM     15  O   UNL     1      61.152  65.711  53.510  0.00  0.00    +0.000 OA
ATOM     16  C   UNL     1      61.870  66.859  53.968  0.00  0.00    +0.000 C 
ATOM     17  C   UNL     1      61.195  67.321  53.865  0.00  0.00    +0.000 C 
ATOM     18  C   UNL     1      61.217  68.127  54.043  0.00  0.00    +0.000 C 
ATOM     19  C   UNL     1      60.542  68.590  53.940  0.00  0.00    +0.000 C 
ATOM     20  C   UNL     1      60.564  69.396  54.118  0.00  0.00    +0.000 C 
ATOM     21  C   UNL     1      59.890  69.859  54.015  0.00  0.00    +0.000 C 
ATOM     22  C   UNL     1      59.912  70.665  54.193  0.00  0.00    +0.000 C 
ATOM     23  O   UNL     1      60.608  71.007  54.473  0.00  0.00    +0.000 OA
ATOM     24  N   UNL     1      59.237  71.128  54.090  0.00  0.00    +0.000 N 
ATOM     25  C   UNL     1      58.540  70.786  53.810  0.00  0.00    +0.000 C 
ATOM     26  C   UNL     1      59.259  71.934  54.268  0.00  0.00    +0.000 C 
ATOM     27  C   UNL     1      58.584  72.397  54.165  0.00  0.00    +0.000 C 
ATOM     28  S   UNL     1      58.606  73.203  54.343  0.00  0.00    +0.000 S 
ATOM     29  O   UNL     1      58.627  74.008  54.520  0.00  0.00    +0.000 OA
ATOM     30  O   UNL     1      57.814  73.273  54.122  0.00  0.00    +0.000 OA
ATOM     31  O   UNL     1      59.397  73.132  54.563  0.00  0.00    +0.000 OA
ATOM     32  C   UNL     1      63.297  62.713  53.512  0.00  0.00    +0.000 C 
ATOM     33  C   UNL     1      63.950  63.129  53.795  0.00  0.00    +0.000 C 
ATOM     34  C   UNL     1      63.972  62.249  53.615  0.00  0.00    +0.000 C 
ATOM     35  C   UNL     1      63.950  61.444  53.437  0.00  0.00    +0.000 C 
ATOM     36  O   UNL     1      64.625  60.981  53.540  0.00  0.00    +0.000 OA
ATOM     37  C   UNL     1      63.253  61.102  53.157  0.00  0.00    +0.000 C 
ATOM     38  C   UNL     1      63.231  60.297  52.980  0.00  0.00    +0.000 C 
ATOM     39  C   UNL     1      63.927  60.639  53.260  0.00  0.00    +0.000 C 
ATOM     40  C   UNL     1      63.906  59.833  53.082  0.00  0.00    +0.000 C 
ATOM     41  C   UNL     1      63.883  59.028  52.905  0.00  0.00    +0.000 C 
ATOM     42  C   UNL     1      63.188  58.686  52.625  0.00  0.00    +0.000 C 
ATOM     43  O   UNL     1      63.165  57.880  52.447  0.00  0.00    +0.000 OA
ATOM     44  C   UNL     1      62.513  59.149  52.522  0.00  0.00    +0.000 C 
ATOM     45  C   UNL     1      62.535  59.955  52.700  0.00  0.00    +0.000 C 
ENDROOT
TORSDOF 0
ENDMDL
MODEL 2
REMARK VINA RESULT:   -13.714      2.950     10.410
REMARK INTER + INTRA:         -13.714
REMARK INTER:                 -13.714
REMARK INTRA:                   0.000
REMARK UNBOUND:                 0.000
ROOT
REMARK  Name = methylprednisolone suleptanate
REMARK                            x       y       z     vdW  Elec       q    Type
REMARK                         _______ _______ _______ _____ _____    ______ ____
ATOM      1  C   UNL     1      58.299  71.613  51.314  0.00  0.00    +0.000 C 
ATOM      2  C   UNL     1      58.659  71.617  52.056  0.00  0.00    +0.000 C 
ATOM      3  C   UNL     1      59.052  70.944  52.328  0.00  0.00    +0.000 C 
ATOM      4  C   UNL     1      59.411  70.948  53.070  0.00  0.00    +0.000 C 
ATOM      5  C   UNL     1      59.804  70.275  53.341  0.00  0.00    +0.000 C 
ATOM      6  C   UNL     1      59.927  69.532  53.002  0.00  0.00    +0.000 C 
ATOM      7  C   UNL     1      60.362  69.078  53.535  0.00  0.00    +0.000 C 
ATOM      8  C   UNL     1      60.509  69.539  54.204  0.00  0.00    +0.000 C 
ATOM      9  O   UNL     1      60.738  69.859  54.929  0.00  0.00    +0.000 OA
ATOM     10  C   UNL     1      60.902  68.866  54.476  0.00  0.00    +0.000 C 
ATOM     11  O   UNL     1      61.262  68.870  55.218  0.00  0.00    +0.000 OA
ATOM     12  C   UNL     1      60.935  68.189  54.004  0.00  0.00    +0.000 C 
ATOM     13  O   UNL     1      61.328  67.517  54.276  0.00  0.00    +0.000 OA
ATOM     14  C   UNL     1      61.360  66.841  53.805  0.00  0.00    +0.000 C 
ATOM     15  O   UNL     1      61.000  66.837  53.063  0.00  0.00    +0.000 OA
ATOM     16  C   UNL     1      61.753  66.167  54.077  0.00  0.00    +0.000 C 
ATOM     17  C   UNL     1      61.786  65.491  53.606  0.00  0.00    +0.000 C 
ATOM     18  C   UNL     1      62.179  64.818  53.877  0.00  0.00    +0.000 C 
ATOM     19  C   UNL     1      62.211  64.142  53.406  0.00  0.00    +0.000 C 
ATOM     20  C   UNL     1      62.604  63.468  53.678  0.00  0.00    +0.000 C 
ATOM     21  C   UNL     1      62.637  62.792  53.207  0.00  0.00    +0.000 C 
ATOM     22  C   UNL     1      63.030  62.119  53.479  0.00  0.00    +0.000 C 
ATOM     23  O   UNL     1      63.390  62.123  54.221  0.00  0.00    +0.000 OA
ATOM     24  N   UNL     1      63.062  61.443  53.007  0.00  0.00    +0.000 N 
ATOM     25  C   UNL     1      62.703  61.439  52.265  0.00  0.00    +0.000 C 
ATOM     26  C   UNL     1      63.456  60.769  53.279  0.00  0.00    +0.000 C 
ATOM     27  C   UNL     1      63.488  60.093  52.808  0.00  0.00    +0.000 C 
ATOM     28  S   UNL     1      63.881  59.420  53.080  0.00  0.00    +0.000 S 
ATOM     29  O   UNL     1      64.274  58.747  53.351  0.00  0.00    +0.000 OA
ATOM     30  O   UNL     1      63.692  59.027  52.379  0.00  0.00    +0.000 OA
ATOM     31  O   UNL     1      64.070  59.813  53.780  0.00  0.00    +0.000 OA
ATOM     32  C   UNL     1      60.164  70.279  54.084  0.00  0.00    +0.000 C 
ATOM     33  C   UNL     1      60.547  70.201  54.810  0.00  0.00    +0.000 C 
ATOM     34  C   UNL     1      60.131  70.956  54.555  0.00  0.00    +0.000 C 
ATOM     35  C   UNL     1      59.739  71.628  54.283  0.00  0.00    +0.000 C 
ATOM     36  O   UNL     1      59.706  72.304  54.754  0.00  0.00    +0.000 OA
ATOM     37  C   UNL     1      59.379  71.624  53.541  0.00  0.00    +0.000 C 
ATOM     38  C   UNL     1      58.986  72.297  53.269  0.00  0.00    +0.000 C 
ATOM     39  C   UNL     1      59.346  72.301  54.011  0.00  0.00    +0.000 C 
ATOM     40  C   UNL     1      58.953  72.974  53.740  0.00  0.00    +0.000 C 
ATOM     41  C   UNL     1      58.560  73.646  53.468  0.00  0.00    +0.000 C 
ATOM     42  C   UNL     1      58.201  73.643  52.727  0.00  0.00    +0.000 C 
ATOM     43  O   UNL     1      57.808  74.316  52.455  0.00  0.00    +0.000 OA
ATOM     44  C   UNL     1      58.233  72.966  52.255  0.00  0.00    +0.000 C 
ATOM     45  C   UNL     1      58.626  72.293  52.527  0.00  0.00    +0.000 C 
ENDROOT
TORSDOF 0
ENDMDL
MODEL 3
REMARK VINA RESULT:   -13.692      3.596     10.036
REMARK INTER + INTRA:         -13.692
REMARK INTER:                 -13.692
REMARK INTRA:                   0.000
REMARK UNBOUND:                 0.000
ROOT
REMARK  Name = methylprednisolone suleptanate
REMARK                            x       y       z     vdW  Elec       q    Type
REMARK                         _______ _______ _______ _____ _____    ______ ____
ATOM      1  C   UNL     1      59.243  70.235  52.314  0.00  0.00    +0.000 C 
ATOM      2  C   UNL     1      59.738  69.996  52.929  0.00  0.00    +0.000 C 
ATOM      3  C   UNL     1      60.104  69.257  52.902  0.00  0.00    +0.000 C 
ATOM      4  C   UNL     1      60.598  69.018  53.517  0.00  0.00    +0.000 C 
ATOM      5  C   UNL     1      60.964  68.278  53.489  0.00  0.00    +0.000 C 
ATOM      6  C   UNL     1      60.940  67.671  52.931  0.00  0.00    +0.000 C 
ATOM      7  C   UNL     1      61.420  67.058  53.201  0.00  0.00    +0.000 C 
ATOM      8  C   UNL     1      61.741  67.285  53.926  0.00  0.00    +0.000 C 
ATOM      9  O   UNL     1      62.138  67.358  54.646  0.00  0.00    +0.000 OA
ATOM     10  C   UNL     1      62.106  66.545  53.899  0.00  0.00    +0.000 C 
ATOM     11  O   UNL     1      62.601  66.307  54.514  0.00  0.00    +0.000 OA
ATOM     12  C   UNL     1      61.976  66.045  53.255  0.00  0.00    +0.000 C 
ATOM     13  O   UNL     1      62.341  65.306  53.228  0.00  0.00    +0.000 OA
ATOM     14  C   UNL     1      62.211  64.806  52.585  0.00  0.00    +0.000 C 
ATOM     15  O   UNL     1      61.716  65.045  51.970  0.00  0.00    +0.000 OA
ATOM     16  C   UNL     1      62.576  64.066  52.558  0.00  0.00    +0.000 C 
ATOM     17  C   UNL     1      62.446  63.566  51.915  0.00  0.00    +0.000 C 
ATOM     18  C   UNL     1      62.812  62.826  51.887  0.00  0.00    +0.000 C 
ATOM     19  C   UNL     1      62.681  62.326  51.244  0.00  0.00    +0.000 C 
ATOM     20  C   UNL     1      63.047  61.586  51.217  0.00  0.00    +0.000 C 
ATOM     21  C   UNL     1      62.916  61.086  50.574  0.00  0.00    +0.000 C 
ATOM     22  C   UNL     1      63.282  60.347  50.546  0.00  0.00    +0.000 C 
ATOM     23  O   UNL     1      63.777  60.108  51.161  0.00  0.00    +0.000 OA
ATOM     24  N   UNL     1      63.151  59.847  49.903  0.00  0.00    +0.000 N 
ATOM     25  C   UNL     1      62.656  60.086  49.288  0.00  0.00    +0.000 C 
ATOM     26  C   UNL     1      63.517  59.107  49.875  0.00  0.00    +0.000 C 
ATOM     27  C   UNL     1      63.387  58.607  49.232  0.00  0.00    +0.000 C 
ATOM     28  S   UNL     1      63.752  57.867  49.205  0.00  0.00    +0.000 S 
ATOM     29  O   UNL     1      64.117  57.128  49.177  0.00  0.00    +0.000 OA
ATOM     30  O   UNL     1      63.391  57.717  48.478  0.00  0.00    +0.000 OA
ATOM     31  O   UNL     1      64.113  58.019  49.931  0.00  0.00    +0.000 OA
ATOM     32  C   UNL     1      61.459  68.039  54.104  0.00  0.00    +0.000 C 
ATOM     33  C   UNL     1      61.965  67.727  54.675  0.00  0.00    +0.000 C 
ATOM     34  C   UNL     1      61.589  68.540  54.748  0.00  0.00    +0.000 C 
ATOM     35  C   UNL     1      61.224  69.279  54.775  0.00  0.00    +0.000 C 
ATOM     36  O   UNL     1      61.354  69.779  55.418  0.00  0.00    +0.000 OA
ATOM     37  C   UNL     1      60.728  69.518  54.160  0.00  0.00    +0.000 C 
ATOM     38  C   UNL     1      60.363  70.257  54.187  0.00  0.00    +0.000 C 
ATOM     39  C   UNL     1      60.858  70.018  54.802  0.00  0.00    +0.000 C 
ATOM     40  C   UNL     1      60.493  70.758  54.830  0.00  0.00    +0.000 C 
ATOM     41  C   UNL     1      60.128  71.497  54.857  0.00  0.00    +0.000 C 
ATOM     42  C   UNL     1      59.634  71.735  54.243  0.00  0.00    +0.000 C 
ATOM     43  O   UNL     1      59.268  72.475  54.270  0.00  0.00    +0.000 OA
ATOM     44  C   UNL     1      59.503  71.236  53.600  0.00  0.00    +0.000 C 
ATOM     45  C   UNL     1      59.869  70.496  53.572  0.00  0.00    +0.000 C 
ENDROOT
TORSDOF 0
ENDMDL
MODEL 4
REMARK VINA RESULT:   -13.035     17.700     18.323
REMARK INTER + INTRA:         -13.035
REMARK INTER:                 -13.035
REMARK INTRA:                   0.000
REMARK UNBOUND:                 0.000
ROOT
REMARK  Name = methylprednisolone suleptanate
REMARK                            x       y       z     vdW  Elec       q    Type
REMARK                         _______ _______ _______ _____ _____    ______ ____
ATOM      1  C   UNL     1      72.739  81.129  54.414  0.00  0.00    +0.000 C 
ATOM      2  C   UNL     1      72.166  81.110  53.820  0.00  0.00    +0.000 C 
ATOM      3  C   UNL     1      71.366  81.165  54.017  0.00  0.00    +0.000 C 
ATOM      4  C   UNL     1      70.794  81.146  53.424  0.00  0.00    +0.000 C 
ATOM      5  C   UNL     1      69.994  81.201  53.621  0.00  0.00    +0.000 C 
ATOM      6  C   UNL     1      69.608  81.277  54.346  0.00  0.00    +0.000 C 
ATOM      7  C   UNL     1      68.797  81.305  54.201  0.00  0.00    +0.000 C 
ATOM      8  C   UNL     1      68.680  81.246  53.387  0.00  0.00    +0.000 C 
ATOM      9  O   UNL     1      68.398  81.199  52.613  0.00  0.00    +0.000 OA
ATOM     10  C   UNL     1      67.881  81.301  53.583  0.00  0.00    +0.000 C 
ATOM     11  O   UNL     1      67.308  81.282  52.990  0.00  0.00    +0.000 OA
ATOM     12  C   UNL     1      67.655  81.374  54.374  0.00  0.00    +0.000 C 
ATOM     13  O   UNL     1      66.855  81.429  54.570  0.00  0.00    +0.000 OA
ATOM     14  C   UNL     1      66.630  81.502  55.360  0.00  0.00    +0.000 C 
ATOM     15  O   UNL     1      67.203  81.521  55.953  0.00  0.00    +0.000 OA
ATOM     16  C   UNL     1      65.830  81.557  55.557  0.00  0.00    +0.000 C 
ATOM     17  C   UNL     1      65.604  81.630  56.347  0.00  0.00    +0.000 C 
ATOM     18  C   UNL     1      64.804  81.685  56.544  0.00  0.00    +0.000 C 
ATOM     19  C   UNL     1      64.579  81.758  57.334  0.00  0.00    +0.000 C 
ATOM     20  C   UNL     1      63.779  81.813  57.530  0.00  0.00    +0.000 C 
ATOM     21  C   UNL     1      63.553  81.886  58.320  0.00  0.00    +0.000 C 
ATOM     22  C   UNL     1      62.753  81.941  58.517  0.00  0.00    +0.000 C 
ATOM     23  O   UNL     1      62.180  81.922  57.924  0.00  0.00    +0.000 OA
ATOM     24  N   UNL     1      62.528  82.014  59.307  0.00  0.00    +0.000 N 
ATOM     25  C   UNL     1      63.101  82.033  59.900  0.00  0.00    +0.000 C 
ATOM     26  C   UNL     1      61.728  82.069  59.504  0.00  0.00    +0.000 C 
ATOM     27  C   UNL     1      61.502  82.142  60.294  0.00  0.00    +0.000 C 
ATOM     28  S   UNL     1      60.702  82.197  60.491  0.00  0.00    +0.000 S 
ATOM     29  O   UNL     1      59.904  82.252  60.688  0.00  0.00    +0.000 OA
ATOM     30  O   UNL     1      60.903  82.250  61.290  0.00  0.00    +0.000 OA
ATOM     31  O   UNL     1      60.503  82.144  59.693  0.00  0.00    +0.000 OA
ATOM     32  C   UNL     1      69.421  81.182  53.028  0.00  0.00    +0.000 C 
ATOM     33  C   UNL     1      68.789  81.171  52.498  0.00  0.00    +0.000 C 
ATOM     34  C   UNL     1      69.647  81.108  52.237  0.00  0.00    +0.000 C 
ATOM     35  C   UNL     1      70.446  81.054  52.041  0.00  0.00    +0.000 C 
ATOM     36  O   UNL     1      70.672  80.980  51.251  0.00  0.00    +0.000 OA
ATOM     37  C   UNL     1      71.019  81.073  52.634  0.00  0.00    +0.000 C 
ATOM     38  C   UNL     1      71.819  81.018  52.438  0.00  0.00    +0.000 C 
ATOM     39  C   UNL     1      71.246  80.999  51.845  0.00  0.00    +0.000 C 
ATOM     40  C   UNL     1      72.045  80.944  51.647  0.00  0.00    +0.000 C 
ATOM     41  C   UNL     1      72.844  80.890  51.451  0.00  0.00    +0.000 C 
ATOM     42  C   UNL     1      73.417  80.909  52.044  0.00  0.00    +0.000 C 
ATOM     43  O   UNL     1      74.217  80.854  51.847  0.00  0.00    +0.000 OA
ATOM     44  C   UNL     1      73.191  80.982  52.834  0.00  0.00    +0.000 C 
ATOM     45  C   UNL     1      72.391  81.037  53.030  0.00  0.00    +0.000 C 
ENDROOT
TORSDOF 0
ENDMDL
MODEL 5
REMARK VINA RESULT:   -12.865      2.950     11.599
REMARK INTER + INTRA:         -12.865
REMARK INTER:                 -12.865
REMARK INTRA:                   0.000
REMARK UNBOUND:                 0.000
ROOT
REMARK  Name = methylprednisolone suleptanate
REMARK                            x       y       z     vdW  Elec       q    Type
REMARK                         _______ _______ _______ _____ _____    ______ ____
ATOM      1  C   UNL     1      58.375  74.378  57.108  0.00  0.00    +0.000 C 
ATOM      2  C   UNL     1      58.330  74.331  56.285  0.00  0.00    +0.000 C 
ATOM      3  C   UNL     1      58.609  73.661  55.894  0.00  0.00    +0.000 C 
ATOM      4  C   UNL     1      58.564  73.614  55.072  0.00  0.00    +0.000 C 
ATOM      5  C   UNL     1      58.843  72.943  54.681  0.00  0.00    +0.000 C 
ATOM      6  C   UNL     1      59.187  72.245  54.957  0.00  0.00    +0.000 C 
ATOM      7  C   UNL     1      59.355  71.769  54.306  0.00  0.00    +0.000 C 
ATOM      8  C   UNL     1      59.115  72.170  53.626  0.00  0.00    +0.000 C 
ATOM      9  O   UNL     1      58.933  72.433  52.865  0.00  0.00    +0.000 OA
ATOM     10  C   UNL     1      59.393  71.500  53.235  0.00  0.00    +0.000 C 
ATOM     11  O   UNL     1      59.349  71.453  52.412  0.00  0.00    +0.000 OA
ATOM     12  C   UNL     1      59.716  70.875  53.667  0.00  0.00    +0.000 C 
ATOM     13  O   UNL     1      59.994  70.204  53.275  0.00  0.00    +0.000 OA
ATOM     14  C   UNL     1      60.317  69.580  53.707  0.00  0.00    +0.000 C 
ATOM     15  O   UNL     1      60.362  69.626  54.530  0.00  0.00    +0.000 OA
ATOM     16  C   UNL     1      60.596  68.908  53.316  0.00  0.00    +0.000 C 
ATOM     17  C   UNL     1      60.919  68.284  53.748  0.00  0.00    +0.000 C 
ATOM     18  C   UNL     1      61.197  67.613  53.356  0.00  0.00    +0.000 C 
ATOM     19  C   UNL     1      61.520  66.989  53.788  0.00  0.00    +0.000 C 
ATOM     20  C   UNL     1      61.799  66.317  53.397  0.00  0.00    +0.000 C 
ATOM     21  C   UNL     1      62.121  65.693  53.829  0.00  0.00    +0.000 C 
ATOM     22  C   UNL     1      62.400  65.022  53.437  0.00  0.00    +0.000 C 
ATOM     23  O   UNL     1      62.356  64.975  52.615  0.00  0.00    +0.000 OA
ATOM     24  N   UNL     1      62.723  64.397  53.869  0.00  0.00    +0.000 N 
ATOM     25  C   UNL     1      62.767  64.444  54.692  0.00  0.00    +0.000 C 
ATOM     26  C   UNL     1      63.001  63.726  53.478  0.00  0.00    +0.000 C 
ATOM     27  C   UNL     1      63.324  63.102  53.910  0.00  0.00    +0.000 C 
ATOM     28  S   UNL     1      63.603  62.430  53.518  0.00  0.00    +0.000 S 
ATOM     29  O   UNL     1      63.881  61.760  53.128  0.00  0.00    +0.000 OA
ATOM     30  O   UNL     1      63.815  62.097  54.243  0.00  0.00    +0.000 OA
ATOM     31  O   UNL     1      63.390  62.765  52.795  0.00  0.00    +0.000 OA
ATOM     32  C   UNL     1      58.798  72.896  53.858  0.00  0.00    +0.000 C 
ATOM     33  C   UNL     1      58.790  72.772  53.043  0.00  0.00    +0.000 C 
ATOM     34  C   UNL     1      58.475  73.522  53.426  0.00  0.00    +0.000 C 
ATOM     35  C   UNL     1      58.197  74.192  53.818  0.00  0.00    +0.000 C 
ATOM     36  O   UNL     1      57.874  74.816  53.386  0.00  0.00    +0.000 OA
ATOM     37  C   UNL     1      58.241  74.238  54.640  0.00  0.00    +0.000 C 
ATOM     38  C   UNL     1      57.963  74.909  55.032  0.00  0.00    +0.000 C 
ATOM     39  C   UNL     1      57.919  74.863  54.209  0.00  0.00    +0.000 C 
ATOM     40  C   UNL     1      57.640  75.534  54.600  0.00  0.00    +0.000 C 
ATOM     41  C   UNL     1      57.362  76.205  54.991  0.00  0.00    +0.000 C 
ATOM     42  C   UNL     1      57.406  76.251  55.813  0.00  0.00    +0.000 C 
ATOM     43  O   UNL     1      57.128  76.923  56.204  0.00  0.00    +0.000 OA
ATOM     44  C   UNL     1      57.729  75.627  56.245  0.00  0.00    +0.000 C 
ATOM     45  C   UNL     1      58.008  74.955  55.853  0.00  0.00    +0.000 C 
ENDROOT
TORSDOF 0
ENDMDL
MODEL 6
REMARK VINA RESULT:   -12.555     20.636     23.232
REMARK INTER + INTRA:         -12.555
REMARK INTER:                 -12.555
REMARK INTRA:                   0.000
REMARK UNBOUND:                 0.000
ROOT
REMARK  Name = methylprednisolone suleptanate
REMARK                            x       y       z     vdW  Elec       q    Type
REMARK                         _______ _______ _______ _____ _____    ______ ____
ATOM      1  C   UNL     1      80.860  77.024  49.576  0.00  0.00    +0.000 C 
ATOM      2  C   UNL     1      80.948  77.141  50.388  0.00  0.00    +0.000 C 
ATOM      3  C   UNL     1      81.001  76.493  50.895  0.00  0.00    +0.000 C 
ATOM      4  C   UNL     1      81.089  76.610  51.706  0.00  0.00    +0.000 C 
ATOM      5  C   UNL     1      81.142  75.960  52.214  0.00  0.00    +0.000 C 
ATOM      6  C   UNL     1      81.124  75.147  52.073  0.00  0.00    +0.000 C 
ATOM      7  C   UNL     1      81.201  74.763  52.798  0.00  0.00    +0.000 C 
ATOM      8  C   UNL     1      81.266  75.336  53.387  0.00  0.00    +0.000 C 
ATOM      9  O   UNL     1      81.343  75.776  54.082  0.00  0.00    +0.000 OA
ATOM     10  C   UNL     1      81.319  74.688  53.894  0.00  0.00    +0.000 C 
ATOM     11  O   UNL     1      81.407  74.805  54.706  0.00  0.00    +0.000 OA
ATOM     12  C   UNL     1      81.283  73.922  53.589  0.00  0.00    +0.000 C 
ATOM     13  O   UNL     1      81.336  73.273  54.096  0.00  0.00    +0.000 OA
ATOM     14  C   UNL     1      81.300  72.508  53.791  0.00  0.00    +0.000 C 
ATOM     15  O   UNL     1      81.212  72.391  52.979  0.00  0.00    +0.000 OA
ATOM     16  C   UNL     1      81.353  71.859  54.298  0.00  0.00    +0.000 C 
ATOM     17  C   UNL     1      81.317  71.094  53.992  0.00  0.00    +0.000 C 
ATOM     18  C   UNL     1      81.370  70.444  54.500  0.00  0.00    +0.000 C 
ATOM     19  C   UNL     1      81.334  69.679  54.194  0.00  0.00    +0.000 C 
ATOM     20  C   UNL     1      81.386  69.030  54.701  0.00  0.00    +0.000 C 
ATOM     21  C   UNL     1      81.351  68.264  54.396  0.00  0.00    +0.000 C 
ATOM     22  C   UNL     1      81.403  67.615  54.903  0.00  0.00    +0.000 C 
ATOM     23  O   UNL     1      81.491  67.732  55.715  0.00  0.00    +0.000 OA
ATOM     24  N   UNL     1      81.368  66.850  54.598  0.00  0.00    +0.000 N 
ATOM     25  C   UNL     1      81.279  66.733  53.786  0.00  0.00    +0.000 C 
ATOM     26  C   UNL     1      81.420  66.201  55.105  0.00  0.00    +0.000 C 
ATOM     27  C   UNL     1      81.384  65.435  54.799  0.00  0.00    +0.000 C 
ATOM     28  S   UNL     1      81.437  64.786  55.307  0.00  0.00    +0.000 S 
ATOM     29  O   UNL     1      81.489  64.137  55.813  0.00  0.00    +0.000 OA
ATOM     30  O   UNL     1      81.365  64.277  54.661  0.00  0.00    +0.000 OA
ATOM     31  O   UNL     1      81.508  65.296  55.951  0.00  0.00    +0.000 OA
ATOM     32  C   UNL     1      81.230  76.077  53.025  0.00  0.00    +0.000 C 
ATOM     33  C   UNL     1      81.319  76.108  53.845  0.00  0.00    +0.000 C 
ATOM     34  C   UNL     1      81.266  76.844  53.331  0.00  0.00    +0.000 C 
ATOM     35  C   UNL     1      81.213  77.492  52.824  0.00  0.00    +0.000 C 
ATOM     36  O   UNL     1      81.249  78.257  53.129  0.00  0.00    +0.000 OA
ATOM     37  C   UNL     1      81.125  77.375  52.012  0.00  0.00    +0.000 C 
ATOM     38  C   UNL     1      81.072  78.023  51.504  0.00  0.00    +0.000 C 
ATOM     39  C   UNL     1      81.161  78.140  52.316  0.00  0.00    +0.000 C 
ATOM     40  C   UNL     1      81.108  78.790  51.810  0.00  0.00    +0.000 C 
ATOM     41  C   UNL     1      81.055  79.438  51.303  0.00  0.00    +0.000 C 
ATOM     42  C   UNL     1      80.967  79.321  50.492  0.00  0.00    +0.000 C 
ATOM     43  O   UNL     1      80.915  79.971  49.984  0.00  0.00    +0.000 OA
ATOM     44  C   UNL     1      80.932  78.556  50.186  0.00  0.00    +0.000 C 
ATOM     45  C   UNL     1      80.984  77.907  50.694  0.00  0.00    +0.000 C 
ENDROOT
TORSDOF 0
ENDMDL
MODEL 7
REMARK VINA RESULT:   -12.474     17.925     18.582
REMARK INTER + INTRA:         -12.474
REMARK INTER:                 -12.474
REMARK INTRA:                   0.000
REMARK UNBOUND:                 0.000
ROOT
REMARK  Name = methylprednisolone suleptanate
REMARK                            x       y       z     vdW  Elec       q    Type
REMARK                         _______ _______ _______ _____ _____    ______ ____
ATOM      1  C   UNL     1      72.689  80.541  51.181  0.00  0.00    +0.000 C 
ATOM      2  C   UNL     1      72.045  80.806  50.739  0.00  0.00    +0.000 C 
ATOM      3  C   UNL     1      71.322  80.950  51.107  0.00  0.00    +0.000 C 
ATOM      4  C   UNL     1      70.679  81.215  50.665  0.00  0.00    +0.000 C 
ATOM      5  C   UNL     1      69.955  81.360  51.035  0.00  0.00    +0.000 C 
ATOM      6  C   UNL     1      69.713  81.291  51.821  0.00  0.00    +0.000 C 
ATOM      7  C   UNL     1      68.920  81.513  51.863  0.00  0.00    +0.000 C 
ATOM      8  C   UNL     1      68.671  81.719  51.104  0.00  0.00    +0.000 C 
ATOM      9  O   UNL     1      68.272  81.956  50.422  0.00  0.00    +0.000 OA
ATOM     10  C   UNL     1      67.948  81.864  51.473  0.00  0.00    +0.000 C 
ATOM     11  O   UNL     1      67.304  82.129  51.030  0.00  0.00    +0.000 OA
ATOM     12  C   UNL     1      67.868  81.743  52.286  0.00  0.00    +0.000 C 
ATOM     13  O   UNL     1      67.144  81.888  52.655  0.00  0.00    +0.000 OA
ATOM     14  C   UNL     1      67.065  81.767  53.467  0.00  0.00    +0.000 C 
ATOM     15  O   UNL     1      67.709  81.502  53.910  0.00  0.00    +0.000 OA
ATOM     16  C   UNL     1      66.341  81.911  53.836  0.00  0.00    +0.000 C 
ATOM     17  C   UNL     1      66.262  81.791  54.648  0.00  0.00    +0.000 C 
ATOM     18  C   UNL     1      65.538  81.935  55.018  0.00  0.00    +0.000 C 
ATOM     19  C   UNL     1      65.459  81.814  55.830  0.00  0.00    +0.000 C 
ATOM     20  C   UNL     1      64.735  81.959  56.200  0.00  0.00    +0.000 C 
ATOM     21  C   UNL     1      64.656  81.838  57.012  0.00  0.00    +0.000 C 
ATOM     22  C   UNL     1      63.932  81.983  57.381  0.00  0.00    +0.000 C 
ATOM     23  O   UNL     1      63.288  82.248  56.939  0.00  0.00    +0.000 OA
ATOM     24  N   UNL     1      63.853  81.862  58.194  0.00  0.00    +0.000 N 
ATOM     25  C   UNL     1      64.496  81.597  58.636  0.00  0.00    +0.000 C 
ATOM     26  C   UNL     1      63.129  82.006  58.563  0.00  0.00    +0.000 C 
ATOM     27  C   UNL     1      63.050  81.886  59.375  0.00  0.00    +0.000 C 
ATOM     28  S   UNL     1      62.325  82.030  59.745  0.00  0.00    +0.000 S 
ATOM     29  O   UNL     1      61.603  82.174  60.114  0.00  0.00    +0.000 OA
ATOM     30  O   UNL     1      62.652  81.807  60.469  0.00  0.00    +0.000 OA
ATOM     31  O   UNL     1      62.001  82.252  59.020  0.00  0.00    +0.000 OA
ATOM     32  C   UNL     1      69.311  81.625  50.592  0.00  0.00    +0.000 C 
ATOM     33  C   UNL     1      68.623  81.889  50.223  0.00  0.00    +0.000 C 
ATOM     34  C   UNL     1      69.391  81.745  49.779  0.00  0.00    +0.000 C 
ATOM     35  C   UNL     1      70.114  81.601  49.410  0.00  0.00    +0.000 C 
ATOM     36  O   UNL     1      70.193  81.722  48.598  0.00  0.00    +0.000 OA
ATOM     37  C   UNL     1      70.758  81.336  49.853  0.00  0.00    +0.000 C 
ATOM     38  C   UNL     1      71.482  81.191  49.484  0.00  0.00    +0.000 C 
ATOM     39  C   UNL     1      70.838  81.456  49.041  0.00  0.00    +0.000 C 
ATOM     40  C   UNL     1      71.561  81.312  48.671  0.00  0.00    +0.000 C 
ATOM     41  C   UNL     1      72.285  81.168  48.302  0.00  0.00    +0.000 C 
ATOM     42  C   UNL     1      72.928  80.903  48.745  0.00  0.00    +0.000 C 
ATOM     43  O   UNL     1      73.652  80.759  48.375  0.00  0.00    +0.000 OA
ATOM     44  C   UNL     1      72.849  80.782  49.557  0.00  0.00    +0.000 C 
ATOM     45  C   UNL     1      72.124  80.927  49.926  0.00  0.00    +0.000 C 
ENDROOT
TORSDOF 0
ENDMDL
MODEL 8
REMARK VINA RESULT:   -12.369      2.264      2.732
REMARK INTER + INTRA:         -12.369
REMARK INTER:                 -12.369
REMARK INTRA:                   0.000
REMARK UNBOUND:                 0.000
ROOT
REMARK  Name = methylprednisolone suleptanate
REMARK                            x       y       z     vdW  Elec       q    Type
REMARK                         _______ _______ _______ _____ _____    ______ ____
ATOM      1  C   UNL     1      63.836  61.942  51.078  0.00  0.00    +0.000 C 
ATOM      2  C   UNL     1      63.582  62.158  51.833  0.00  0.00    +0.000 C 
ATOM      3  C   UNL     1      63.232  62.894  51.956  0.00  0.00    +0.000 C 
ATOM      4  C   UNL     1      62.978  63.110  52.709  0.00  0.00    +0.000 C 
ATOM      5  C   UNL     1      62.628  63.848  52.832  0.00  0.00    +0.000 C 
ATOM      6  C   UNL     1      62.462  64.472  52.318  0.00  0.00    +0.000 C 
ATOM      7  C   UNL     1      62.105  65.073  52.756  0.00  0.00    +0.000 C 
ATOM      8  C   UNL     1      62.050  64.821  53.539  0.00  0.00    +0.000 C 
ATOM      9  O   UNL     1      61.923  64.723  54.349  0.00  0.00    +0.000 OA
ATOM     10  C   UNL     1      61.700  65.558  53.662  0.00  0.00    +0.000 C 
ATOM     11  O   UNL     1      61.446  65.774  54.417  0.00  0.00    +0.000 OA
ATOM     12  C   UNL     1      61.605  66.080  53.029  0.00  0.00    +0.000 C 
ATOM     13  O   UNL     1      61.255  66.816  53.152  0.00  0.00    +0.000 OA
ATOM     14  C   UNL     1      61.159  67.337  52.519  0.00  0.00    +0.000 C 
ATOM     15  O   UNL     1      61.413  67.121  51.765  0.00  0.00    +0.000 OA
ATOM     16  C   UNL     1      60.809  68.075  52.642  0.00  0.00    +0.000 C 
ATOM     17  C   UNL     1      60.713  68.595  52.009  0.00  0.00    +0.000 C 
ATOM     18  C   UNL     1      60.363  69.333  52.132  0.00  0.00    +0.000 C 
ATOM     19  C   UNL     1      60.268  69.853  51.499  0.00  0.00    +0.000 C 
ATOM     20  C   UNL     1      59.917  70.591  51.622  0.00  0.00    +0.000 C 
ATOM     21  C   UNL     1      59.822  71.112  50.989  0.00  0.00    +0.000 C 
ATOM     22  C   UNL     1      59.472  71.849  51.111  0.00  0.00    +0.000 C 
ATOM     23  O   UNL     1      59.218  72.065  51.866  0.00  0.00    +0.000 OA
ATOM     24  N   UNL     1      59.376  72.370  50.479  0.00  0.00    +0.000 N 
ATOM     25  C   UNL     1      59.630  72.154  49.724  0.00  0.00    +0.000 C 
ATOM     26  C   UNL     1      59.026  73.108  50.601  0.00  0.00    +0.000 C 
ATOM     27  C   UNL     1      58.931  73.628  49.969  0.00  0.00    +0.000 C 
ATOM     28  S   UNL     1      58.580  74.366  50.091  0.00  0.00    +0.000 S 
ATOM     29  O   UNL     1      58.231  75.102  50.213  0.00  0.00    +0.000 OA
ATOM     30  O   UNL     1      58.672  74.541  49.290  0.00  0.00    +0.000 OA
ATOM     31  O   UNL     1      58.489  74.189  50.892  0.00  0.00    +0.000 OA
ATOM     32  C   UNL     1      62.374  64.064  53.586  0.00  0.00    +0.000 C 
ATOM     33  C   UNL     1      62.094  64.354  54.306  0.00  0.00    +0.000 C 
ATOM     34  C   UNL     1      62.470  63.542  54.219  0.00  0.00    +0.000 C 
ATOM     35  C   UNL     1      62.820  62.805  54.096  0.00  0.00    +0.000 C 
ATOM     36  O   UNL     1      62.915  62.285  54.729  0.00  0.00    +0.000 OA
ATOM     37  C   UNL     1      63.074  62.589  53.342  0.00  0.00    +0.000 C 
ATOM     38  C   UNL     1      63.424  61.853  53.219  0.00  0.00    +0.000 C 
ATOM     39  C   UNL     1      63.169  62.069  53.974  0.00  0.00    +0.000 C 
ATOM     40  C   UNL     1      63.519  61.331  53.852  0.00  0.00    +0.000 C 
ATOM     41  C   UNL     1      63.869  60.594  53.729  0.00  0.00    +0.000 C 
ATOM     42  C   UNL     1      64.123  60.379  52.975  0.00  0.00    +0.000 C 
ATOM     43  O   UNL     1      64.473  59.641  52.853  0.00  0.00    +0.000 OA
ATOM     44  C   UNL     1      64.028  60.899  52.343  0.00  0.00    +0.000 C 
ATOM     45  C   UNL     1      63.677  61.637  52.465  0.00  0.00    +0.000 C 
ENDROOT
TORSDOF 0
ENDMDL
MODEL 9
REMARK VINA RESULT:   -12.047     19.389     19.880
REMARK INTER + INTRA:         -12.047
REMARK INTER:                 -12.047
REMARK INTRA:                   0.000
REMARK UNBOUND:                 0.000
ROOT
REMARK  Name = methylprednisolone suleptanate
REMARK                            x       y       z     vdW  Elec       q    Type
REMARK                         _______ _______ _______ _____ _____    ______ ____
ATOM      1  C   UNL     1      80.713  62.512  52.765  0.00  0.00    +0.000 C 
ATOM      2  C   UNL     1      80.959  62.793  53.501  0.00  0.00    +0.000 C 
ATOM      3  C   UNL     1      81.044  63.604  53.626  0.00  0.00    +0.000 C 
ATOM      4  C   UNL     1      81.289  63.884  54.361  0.00  0.00    +0.000 C 
ATOM      5  C   UNL     1      81.375  64.696  54.486  0.00  0.00    +0.000 C 
ATOM      6  C   UNL     1      81.258  65.346  53.991  0.00  0.00    +0.000 C 
ATOM      7  C   UNL     1      81.431  66.027  54.421  0.00  0.00    +0.000 C 
ATOM      8  C   UNL     1      81.655  65.801  55.182  0.00  0.00    +0.000 C 
ATOM      9  O   UNL     1      81.897  65.742  55.969  0.00  0.00    +0.000 OA
ATOM     10  C   UNL     1      81.741  66.611  55.307  0.00  0.00    +0.000 C 
ATOM     11  O   UNL     1      81.986  66.892  56.043  0.00  0.00    +0.000 OA
ATOM     12  C   UNL     1      81.581  67.142  54.695  0.00  0.00    +0.000 C 
ATOM     13  O   UNL     1      81.666  67.953  54.820  0.00  0.00    +0.000 OA
ATOM     14  C   UNL     1      81.506  68.482  54.208  0.00  0.00    +0.000 C 
ATOM     15  O   UNL     1      81.261  68.201  53.472  0.00  0.00    +0.000 OA
ATOM     16  C   UNL     1      81.592  69.294  54.332  0.00  0.00    +0.000 C 
ATOM     17  C   UNL     1      81.432  69.824  53.721  0.00  0.00    +0.000 C 
ATOM     18  C   UNL     1      81.517  70.635  53.845  0.00  0.00    +0.000 C 
ATOM     19  C   UNL     1      81.357  71.165  53.234  0.00  0.00    +0.000 C 
ATOM     20  C   UNL     1      81.443  71.977  53.358  0.00  0.00    +0.000 C 
ATOM     21  C   UNL     1      81.283  72.506  52.747  0.00  0.00    +0.000 C 
ATOM     22  C   UNL     1      81.368  73.318  52.871  0.00  0.00    +0.000 C 
ATOM     23  O   UNL     1      81.614  73.599  53.607  0.00  0.00    +0.000 OA
ATOM     24  N   UNL     1      81.208  73.848  52.259  0.00  0.00    +0.000 N 
ATOM     25  C   UNL     1      80.963  73.567  51.524  0.00  0.00    +0.000 C 
ATOM     26  C   UNL     1      81.294  74.659  52.384  0.00  0.00    +0.000 C 
ATOM     27  C   UNL     1      81.134  75.189  51.772  0.00  0.00    +0.000 C 
ATOM     28  S   UNL     1      81.220  76.001  51.897  0.00  0.00    +0.000 S 
ATOM     29  O   UNL     1      81.305  76.811  52.021  0.00  0.00    +0.000 OA
ATOM     30  O   UNL     1      80.985  76.144  51.119  0.00  0.00    +0.000 OA
ATOM     31  O   UNL     1      81.453  75.856  52.675  0.00  0.00    +0.000 OA
ATOM     32  C   UNL     1      81.620  64.977  55.222  0.00  0.00    +0.000 C 
ATOM     33  C   UNL     1      81.859  65.337  55.924  0.00  0.00    +0.000 C 
ATOM     34  C   UNL     1      81.780  64.446  55.834  0.00  0.00    +0.000 C 
ATOM     35  C   UNL     1      81.695  63.635  55.709  0.00  0.00    +0.000 C 
ATOM     36  O   UNL     1      81.855  63.106  56.321  0.00  0.00    +0.000 OA
ATOM     37  C   UNL     1      81.449  63.355  54.973  0.00  0.00    +0.000 C 
ATOM     38  C   UNL     1      81.364  62.544  54.848  0.00  0.00    +0.000 C 
ATOM     39  C   UNL     1      81.609  62.825  55.584  0.00  0.00    +0.000 C 
ATOM     40  C   UNL     1      81.524  62.013  55.460  0.00  0.00    +0.000 C 
ATOM     41  C   UNL     1      81.438  61.202  55.335  0.00  0.00    +0.000 C 
ATOM     42  C   UNL     1      81.193  60.922  54.600  0.00  0.00    +0.000 C 
ATOM     43  O   UNL     1      81.108  60.110  54.475  0.00  0.00    +0.000 OA
ATOM     44  C   UNL     1      81.033  61.452  53.988  0.00  0.00    +0.000 C 
ATOM     45  C   UNL     1      81.119  62.263  54.113  0.00  0.00    +0.000 C 
ENDROOT
TORSDOF 0
ENDMDL
