MODEL 1
REMARK VINA RESULT:   -15.813      0.000      0.000
REMARK INTER + INTRA:         -15.813
REMARK INTER:                 -15.813
REMARK INTRA:                   0.000
REMARK UNBOUND:                 0.000
ROOT
REMARK  Name = methylprednisolone aceponate
REMARK                            x       y       z     vdW  Elec       q    Type
REMARK                         _______ _______ _______ _____ _____    ______ ____
ATOM      1  C   UNL     1      63.505  65.109  70.176  0.00  0.00    +0.000 C 
ATOM      2  C   UNL     1      63.118  64.692  69.578  0.00  0.00    +0.000 C 
ATOM      3  C   UNL     1      62.321  64.498  69.661  0.00  0.00    +0.000 C 
ATOM      4  O   UNL     1      61.911  64.720  70.341  0.00  0.00    +0.000 OA
ATOM      5  O   UNL     1      61.934  64.081  69.063  0.00  0.00    +0.000 OA
ATOM      6  C   UNL     1      61.137  63.887  69.146  0.00  0.00    +0.000 C 
ATOM      7  C   UNL     1      60.354  63.773  69.380  0.00  0.00    +0.000 C 
ATOM      8  C   UNL     1      59.967  63.356  68.782  0.00  0.00    +0.000 C 
ATOM      9  C   UNL     1      60.510  63.212  68.178  0.00  0.00    +0.000 C 
ATOM     10  C   UNL     1      60.440  62.826  67.453  0.00  0.00    +0.000 C 
ATOM     11  C   UNL     1      59.717  62.498  67.228  0.00  0.00    +0.000 C 
ATOM     12  C   UNL     1      59.648  62.111  66.503  0.00  0.00    +0.000 C 
ATOM     13  C   UNL     1      58.925  61.783  66.278  0.00  0.00    +0.000 C 
ATOM     14  C   UNL     1      60.301  62.052  66.003  0.00  0.00    +0.000 C 
ATOM     15  C   UNL     1      60.231  61.664  65.277  0.00  0.00    +0.000 C 
ATOM     16  C   UNL     1      60.884  61.606  64.777  0.00  0.00    +0.000 C 
ATOM     17  O   UNL     1      60.814  61.219  64.052  0.00  0.00    +0.000 OA
ATOM     18  C   UNL     1      61.607  61.933  65.001  0.00  0.00    +0.000 C 
ATOM     19  C   UNL     1      61.677  62.320  65.727  0.00  0.00    +0.000 C 
ATOM     20  C   UNL     1      61.024  62.380  66.227  0.00  0.00    +0.000 C 
ATOM     21  C   UNL     1      61.747  62.707  66.452  0.00  0.00    +0.000 C 
ATOM     22  C   UNL     1      61.094  62.766  66.952  0.00  0.00    +0.000 C 
ATOM     23  C   UNL     1      61.817  63.094  67.177  0.00  0.00    +0.000 C 
ATOM     24  O   UNL     1      62.469  63.035  66.676  0.00  0.00    +0.000 OA
ATOM     25  C   UNL     1      61.887  63.481  67.902  0.00  0.00    +0.000 C 
ATOM     26  C   UNL     1      61.233  63.540  68.403  0.00  0.00    +0.000 C 
ATOM     27  C   UNL     1      61.918  63.893  68.700  0.00  0.00    +0.000 C 
ATOM     28  C   UNL     1      61.207  64.274  69.871  0.00  0.00    +0.000 C 
ATOM     29  O   UNL     1      61.594  64.690  70.469  0.00  0.00    +0.000 OA
ATOM     30  C   UNL     1      60.553  64.333  70.371  0.00  0.00    +0.000 C 
ATOM     31  O   UNL     1      60.623  64.720  71.097  0.00  0.00    +0.000 OA
ATOM     32  C   UNL     1      59.969  64.779  71.597  0.00  0.00    +0.000 C 
ATOM     33  C   UNL     1      60.040  65.166  72.322  0.00  0.00    +0.000 C 
ATOM     34  O   UNL     1      59.247  64.451  71.372  0.00  0.00    +0.000 OA
ENDROOT
TORSDOF 0
ENDMDL
MODEL 2
REMARK VINA RESULT:   -15.313      3.490      4.754
REMARK INTER + INTRA:         -15.313
REMARK INTER:                 -15.313
REMARK INTRA:                   0.000
REMARK UNBOUND:                 0.000
ROOT
REMARK  Name = methylprednisolone aceponate
REMARK                            x       y       z     vdW  Elec       q    Type
REMARK                         _______ _______ _______ _____ _____    ______ ____
ATOM      1  C   UNL     1      65.648  66.677  70.999  0.00  0.00    +0.000 C 
ATOM      2  C   UNL     1      64.987  66.184  71.028  0.00  0.00    +0.000 C 
ATOM      3  C   UNL     1      64.301  66.438  71.410  0.00  0.00    +0.000 C 
ATOM      4  O   UNL     1      64.276  67.183  71.762  0.00  0.00    +0.000 OA
ATOM      5  O   UNL     1      63.640  65.945  71.439  0.00  0.00    +0.000 OA
ATOM      6  C   UNL     1      62.954  66.198  71.821  0.00  0.00    +0.000 C 
ATOM      7  C   UNL     1      62.359  66.593  72.233  0.00  0.00    +0.000 C 
ATOM      8  C   UNL     1      61.698  66.101  72.262  0.00  0.00    +0.000 C 
ATOM      9  C   UNL     1      61.884  65.401  71.868  0.00  0.00    +0.000 C 
ATOM     10  C   UNL     1      61.447  64.716  71.723  0.00  0.00    +0.000 C 
ATOM     11  C   UNL     1      60.671  64.656  71.995  0.00  0.00    +0.000 C 
ATOM     12  C   UNL     1      60.234  63.971  71.849  0.00  0.00    +0.000 C 
ATOM     13  C   UNL     1      59.458  63.912  72.122  0.00  0.00    +0.000 C 
ATOM     14  C   UNL     1      60.574  63.347  71.431  0.00  0.00    +0.000 C 
ATOM     15  C   UNL     1      60.136  62.662  71.285  0.00  0.00    +0.000 C 
ATOM     16  C   UNL     1      60.476  62.038  70.867  0.00  0.00    +0.000 C 
ATOM     17  O   UNL     1      60.039  61.354  70.721  0.00  0.00    +0.000 OA
ATOM     18  C   UNL     1      61.252  62.098  70.594  0.00  0.00    +0.000 C 
ATOM     19  C   UNL     1      61.689  62.782  70.739  0.00  0.00    +0.000 C 
ATOM     20  C   UNL     1      61.350  63.407  71.158  0.00  0.00    +0.000 C 
ATOM     21  C   UNL     1      62.126  63.467  70.885  0.00  0.00    +0.000 C 
ATOM     22  C   UNL     1      61.787  64.091  71.304  0.00  0.00    +0.000 C 
ATOM     23  C   UNL     1      62.563  64.151  71.031  0.00  0.00    +0.000 C 
ATOM     24  O   UNL     1      62.902  63.526  70.612  0.00  0.00    +0.000 OA
ATOM     25  C   UNL     1      63.000  64.835  71.177  0.00  0.00    +0.000 C 
ATOM     26  C   UNL     1      62.660  65.460  71.595  0.00  0.00    +0.000 C 
ATOM     27  C   UNL     1      63.439  65.599  71.358  0.00  0.00    +0.000 C 
ATOM     28  C   UNL     1      63.391  66.882  71.967  0.00  0.00    +0.000 C 
ATOM     29  O   UNL     1      64.052  67.375  71.938  0.00  0.00    +0.000 OA
ATOM     30  C   UNL     1      63.052  67.507  72.386  0.00  0.00    +0.000 C 
ATOM     31  O   UNL     1      63.488  68.192  72.531  0.00  0.00    +0.000 OA
ATOM     32  C   UNL     1      63.149  68.816  72.950  0.00  0.00    +0.000 C 
ATOM     33  C   UNL     1      63.586  69.501  73.096  0.00  0.00    +0.000 C 
ATOM     34  O   UNL     1      62.373  68.756  73.222  0.00  0.00    +0.000 OA
ENDROOT
TORSDOF 0
ENDMDL
MODEL 3
REMARK VINA RESULT:   -15.056      4.654      6.320
REMARK INTER + INTRA:         -15.056
REMARK INTER:                 -15.056
REMARK INTRA:                   0.000
REMARK UNBOUND:                 0.000
ROOT
REMARK  Name = methylprednisolone aceponate
REMARK                            x       y       z     vdW  Elec       q    Type
REMARK                         _______ _______ _______ _____ _____    ______ ____
ATOM      1  C   UNL     1      63.509  69.443  73.171  0.00  0.00    +0.000 C 
ATOM      2  C   UNL     1      62.923  68.868  73.083  0.00  0.00    +0.000 C 
ATOM      3  C   UNL     1      63.102  68.149  72.720  0.00  0.00    +0.000 C 
ATOM      4  O   UNL     1      63.866  68.005  72.446  0.00  0.00    +0.000 OA
ATOM      5  O   UNL     1      62.516  67.575  72.632  0.00  0.00    +0.000 OA
ATOM      6  C   UNL     1      62.695  66.856  72.270  0.00  0.00    +0.000 C 
ATOM      7  C   UNL     1      63.032  66.204  71.892  0.00  0.00    +0.000 C 
ATOM      8  C   UNL     1      62.446  65.630  71.804  0.00  0.00    +0.000 C 
ATOM      9  C   UNL     1      61.748  65.927  72.126  0.00  0.00    +0.000 C 
ATOM     10  C   UNL     1      60.991  65.605  72.196  0.00  0.00    +0.000 C 
ATOM     11  C   UNL     1      60.837  64.847  71.908  0.00  0.00    +0.000 C 
ATOM     12  C   UNL     1      60.080  64.526  71.977  0.00  0.00    +0.000 C 
ATOM     13  C   UNL     1      59.927  63.768  71.689  0.00  0.00    +0.000 C 
ATOM     14  C   UNL     1      59.478  64.962  72.334  0.00  0.00    +0.000 C 
ATOM     15  C   UNL     1      58.721  64.640  72.402  0.00  0.00    +0.000 C 
ATOM     16  C   UNL     1      58.119  65.076  72.759  0.00  0.00    +0.000 C 
ATOM     17  O   UNL     1      57.362  64.755  72.828  0.00  0.00    +0.000 OA
ATOM     18  C   UNL     1      58.272  65.834  73.046  0.00  0.00    +0.000 C 
ATOM     19  C   UNL     1      59.029  66.155  72.977  0.00  0.00    +0.000 C 
ATOM     20  C   UNL     1      59.632  65.720  72.621  0.00  0.00    +0.000 C 
ATOM     21  C   UNL     1      59.785  66.478  72.909  0.00  0.00    +0.000 C 
ATOM     22  C   UNL     1      60.388  66.041  72.552  0.00  0.00    +0.000 C 
ATOM     23  C   UNL     1      60.542  66.799  72.840  0.00  0.00    +0.000 C 
ATOM     24  O   UNL     1      59.939  67.235  73.196  0.00  0.00    +0.000 OA
ATOM     25  C   UNL     1      61.298  67.121  72.771  0.00  0.00    +0.000 C 
ATOM     26  C   UNL     1      61.901  66.684  72.414  0.00  0.00    +0.000 C 
ATOM     27  C   UNL     1      62.136  67.432  72.675  0.00  0.00    +0.000 C 
ATOM     28  C   UNL     1      63.452  67.178  72.201  0.00  0.00    +0.000 C 
ATOM     29  O   UNL     1      64.038  67.752  72.289  0.00  0.00    +0.000 OA
ATOM     30  C   UNL     1      64.055  66.742  71.844  0.00  0.00    +0.000 C 
ATOM     31  O   UNL     1      64.811  67.063  71.775  0.00  0.00    +0.000 OA
ATOM     32  C   UNL     1      65.414  66.627  71.418  0.00  0.00    +0.000 C 
ATOM     33  C   UNL     1      66.171  66.949  71.350  0.00  0.00    +0.000 C 
ATOM     34  O   UNL     1      65.260  65.870  71.131  0.00  0.00    +0.000 OA
ENDROOT
TORSDOF 0
ENDMDL
MODEL 4
REMARK VINA RESULT:   -14.846      3.795      5.780
REMARK INTER + INTRA:         -14.846
REMARK INTER:                 -14.846
REMARK INTRA:                   0.000
REMARK UNBOUND:                 0.000
ROOT
REMARK  Name = methylprednisolone aceponate
REMARK                            x       y       z     vdW  Elec       q    Type
REMARK                         _______ _______ _______ _____ _____    ______ ____
ATOM      1  C   UNL     1      60.128  62.495  71.047  0.00  0.00    +0.000 C 
ATOM      2  C   UNL     1      60.719  63.066  71.124  0.00  0.00    +0.000 C 
ATOM      3  C   UNL     1      60.551  63.785  71.493  0.00  0.00    +0.000 C 
ATOM      4  O   UNL     1      59.794  63.932  71.784  0.00  0.00    +0.000 OA
ATOM      5  O   UNL     1      61.142  64.356  71.571  0.00  0.00    +0.000 OA
ATOM      6  C   UNL     1      60.975  65.074  71.939  0.00  0.00    +0.000 C 
ATOM      7  C   UNL     1      60.650  65.727  72.325  0.00  0.00    +0.000 C 
ATOM      8  C   UNL     1      61.240  66.298  72.403  0.00  0.00    +0.000 C 
ATOM      9  C   UNL     1      61.930  65.998  72.065  0.00  0.00    +0.000 C 
ATOM     10  C   UNL     1      62.687  66.316  71.981  0.00  0.00    +0.000 C 
ATOM     11  C   UNL     1      62.852  67.072  72.268  0.00  0.00    +0.000 C 
ATOM     12  C   UNL     1      63.608  67.389  72.184  0.00  0.00    +0.000 C 
ATOM     13  C   UNL     1      63.772  68.145  72.471  0.00  0.00    +0.000 C 
ATOM     14  C   UNL     1      64.200  66.951  71.813  0.00  0.00    +0.000 C 
ATOM     15  C   UNL     1      64.958  67.269  71.730  0.00  0.00    +0.000 C 
ATOM     16  C   UNL     1      65.550  66.831  71.359  0.00  0.00    +0.000 C 
ATOM     17  O   UNL     1      66.306  67.148  71.275  0.00  0.00    +0.000 OA
ATOM     18  C   UNL     1      65.386  66.075  71.072  0.00  0.00    +0.000 C 
ATOM     19  C   UNL     1      64.629  65.757  71.156  0.00  0.00    +0.000 C 
ATOM     20  C   UNL     1      64.036  66.195  71.527  0.00  0.00    +0.000 C 
ATOM     21  C   UNL     1      63.873  65.439  71.240  0.00  0.00    +0.000 C 
ATOM     22  C   UNL     1      63.280  65.877  71.611  0.00  0.00    +0.000 C 
ATOM     23  C   UNL     1      63.116  65.121  71.324  0.00  0.00    +0.000 C 
ATOM     24  O   UNL     1      63.709  64.683  70.954  0.00  0.00    +0.000 OA
ATOM     25  C   UNL     1      62.359  64.804  71.408  0.00  0.00    +0.000 C 
ATOM     26  C   UNL     1      61.767  65.242  71.778  0.00  0.00    +0.000 C 
ATOM     27  C   UNL     1      61.522  64.497  71.521  0.00  0.00    +0.000 C 
ATOM     28  C   UNL     1      60.218  64.756  72.023  0.00  0.00    +0.000 C 
ATOM     29  O   UNL     1      59.627  64.185  71.945  0.00  0.00    +0.000 OA
ATOM     30  C   UNL     1      59.625  65.195  72.394  0.00  0.00    +0.000 C 
ATOM     31  O   UNL     1      58.868  64.877  72.478  0.00  0.00    +0.000 OA
ATOM     32  C   UNL     1      58.276  65.316  72.848  0.00  0.00    +0.000 C 
ATOM     33  C   UNL     1      57.519  64.997  72.932  0.00  0.00    +0.000 C 
ATOM     34  O   UNL     1      58.440  66.071  73.135  0.00  0.00    +0.000 OA
ENDROOT
TORSDOF 0
ENDMDL
MODEL 5
REMARK VINA RESULT:   -14.812      0.922      2.210
REMARK INTER + INTRA:         -14.812
REMARK INTER:                 -14.812
REMARK INTRA:                   0.000
REMARK UNBOUND:                 0.000
ROOT
REMARK  Name = methylprednisolone aceponate
REMARK                            x       y       z     vdW  Elec       q    Type
REMARK                         _______ _______ _______ _____ _____    ______ ____
ATOM      1  C   UNL     1      59.646  64.337  71.644  0.00  0.00    +0.000 C 
ATOM      2  C   UNL     1      59.781  64.034  70.888  0.00  0.00    +0.000 C 
ATOM      3  C   UNL     1      60.514  64.144  70.526  0.00  0.00    +0.000 C 
ATOM      4  O   UNL     1      61.111  64.556  70.918  0.00  0.00    +0.000 OA
ATOM      5  O   UNL     1      60.650  63.841  69.770  0.00  0.00    +0.000 OA
ATOM      6  C   UNL     1      61.382  63.951  69.408  0.00  0.00    +0.000 C 
ATOM      7  C   UNL     1      62.154  64.144  69.190  0.00  0.00    +0.000 C 
ATOM      8  C   UNL     1      62.289  63.841  68.434  0.00  0.00    +0.000 C 
ATOM      9  C   UNL     1      61.601  63.461  68.185  0.00  0.00    +0.000 C 
ATOM     10  C   UNL     1      61.413  63.062  67.488  0.00  0.00    +0.000 C 
ATOM     11  C   UNL     1      61.973  62.994  66.886  0.00  0.00    +0.000 C 
ATOM     12  C   UNL     1      61.785  62.595  66.190  0.00  0.00    +0.000 C 
ATOM     13  C   UNL     1      62.346  62.527  65.589  0.00  0.00    +0.000 C 
ATOM     14  C   UNL     1      61.035  62.264  66.095  0.00  0.00    +0.000 C 
ATOM     15  C   UNL     1      60.847  61.864  65.397  0.00  0.00    +0.000 C 
ATOM     16  C   UNL     1      60.098  61.533  65.302  0.00  0.00    +0.000 C 
ATOM     17  O   UNL     1      59.909  61.134  64.605  0.00  0.00    +0.000 OA
ATOM     18  C   UNL     1      59.537  61.601  65.903  0.00  0.00    +0.000 C 
ATOM     19  C   UNL     1      59.725  62.000  66.600  0.00  0.00    +0.000 C 
ATOM     20  C   UNL     1      60.474  62.331  66.696  0.00  0.00    +0.000 C 
ATOM     21  C   UNL     1      59.913  62.399  67.297  0.00  0.00    +0.000 C 
ATOM     22  C   UNL     1      60.663  62.730  67.392  0.00  0.00    +0.000 C 
ATOM     23  C   UNL     1      60.102  62.798  67.994  0.00  0.00    +0.000 C 
ATOM     24  O   UNL     1      59.353  62.466  67.897  0.00  0.00    +0.000 OA
ATOM     25  C   UNL     1      60.291  63.197  68.690  0.00  0.00    +0.000 C 
ATOM     26  C   UNL     1      61.040  63.528  68.786  0.00  0.00    +0.000 C 
ATOM     27  C   UNL     1      60.539  63.640  69.432  0.00  0.00    +0.000 C 
ATOM     28  C   UNL     1      61.570  64.350  70.104  0.00  0.00    +0.000 C 
ATOM     29  O   UNL     1      61.435  64.653  70.860  0.00  0.00    +0.000 OA
ATOM     30  C   UNL     1      62.320  64.681  70.200  0.00  0.00    +0.000 C 
ATOM     31  O   UNL     1      62.509  65.080  70.897  0.00  0.00    +0.000 OA
ATOM     32  C   UNL     1      63.259  65.412  70.993  0.00  0.00    +0.000 C 
ATOM     33  C   UNL     1      63.447  65.811  71.690  0.00  0.00    +0.000 C 
ATOM     34  O   UNL     1      63.818  65.344  70.391  0.00  0.00    +0.000 OA
ENDROOT
TORSDOF 0
ENDMDL
MODEL 6
REMARK VINA RESULT:   -14.717      1.793      5.565
REMARK INTER + INTRA:         -14.717
REMARK INTER:                 -14.717
REMARK INTRA:                   0.000
REMARK UNBOUND:                 0.000
ROOT
REMARK  Name = methylprednisolone aceponate
REMARK                            x       y       z     vdW  Elec       q    Type
REMARK                         _______ _______ _______ _____ _____    ______ ____
ATOM      1  C   UNL     1      59.775  63.119  71.683  0.00  0.00    +0.000 C 
ATOM      2  C   UNL     1      60.457  63.573  71.578  0.00  0.00    +0.000 C 
ATOM      3  C   UNL     1      60.827  63.597  70.841  0.00  0.00    +0.000 C 
ATOM      4  O   UNL     1      60.517  63.167  70.210  0.00  0.00    +0.000 OA
ATOM      5  O   UNL     1      61.508  64.051  70.737  0.00  0.00    +0.000 OA
ATOM      6  C   UNL     1      61.878  64.074  70.001  0.00  0.00    +0.000 C 
ATOM      7  C   UNL     1      62.122  63.992  69.217  0.00  0.00    +0.000 C 
ATOM      8  C   UNL     1      62.803  64.446  69.113  0.00  0.00    +0.000 C 
ATOM      9  C   UNL     1      62.980  64.809  69.832  0.00  0.00    +0.000 C 
ATOM     10  C   UNL     1      63.588  65.319  70.058  0.00  0.00    +0.000 C 
ATOM     11  C   UNL     1      64.160  65.549  69.509  0.00  0.00    +0.000 C 
ATOM     12  C   UNL     1      64.768  66.059  69.735  0.00  0.00    +0.000 C 
ATOM     13  C   UNL     1      65.339  66.288  69.186  0.00  0.00    +0.000 C 
ATOM     14  C   UNL     1      64.803  66.339  70.510  0.00  0.00    +0.000 C 
ATOM     15  C   UNL     1      65.412  66.849  70.736  0.00  0.00    +0.000 C 
ATOM     16  C   UNL     1      65.448  67.129  71.511  0.00  0.00    +0.000 C 
ATOM     17  O   UNL     1      66.056  67.639  71.737  0.00  0.00    +0.000 OA
ATOM     18  C   UNL     1      64.877  66.899  72.060  0.00  0.00    +0.000 C 
ATOM     19  C   UNL     1      64.269  66.390  71.834  0.00  0.00    +0.000 C 
ATOM     20  C   UNL     1      64.232  66.109  71.060  0.00  0.00    +0.000 C 
ATOM     21  C   UNL     1      63.661  65.880  71.609  0.00  0.00    +0.000 C 
ATOM     22  C   UNL     1      63.624  65.599  70.833  0.00  0.00    +0.000 C 
ATOM     23  C   UNL     1      63.053  65.370  71.382  0.00  0.00    +0.000 C 
ATOM     24  O   UNL     1      63.090  65.650  72.157  0.00  0.00    +0.000 OA
ATOM     25  C   UNL     1      62.445  64.860  71.156  0.00  0.00    +0.000 C 
ATOM     26  C   UNL     1      62.409  64.580  70.381  0.00  0.00    +0.000 C 
ATOM     27  C   UNL     1      61.802  64.303  70.867  0.00  0.00    +0.000 C 
ATOM     28  C   UNL     1      61.270  63.565  69.775  0.00  0.00    +0.000 C 
ATOM     29  O   UNL     1      60.589  63.111  69.879  0.00  0.00    +0.000 OA
ATOM     30  C   UNL     1      61.234  63.284  68.999  0.00  0.00    +0.000 C 
ATOM     31  O   UNL     1      60.626  62.774  68.773  0.00  0.00    +0.000 OA
ATOM     32  C   UNL     1      60.590  62.494  67.998  0.00  0.00    +0.000 C 
ATOM     33  C   UNL     1      59.982  61.984  67.772  0.00  0.00    +0.000 C 
ATOM     34  O   UNL     1      61.161  62.724  67.450  0.00  0.00    +0.000 OA
ENDROOT
TORSDOF 0
ENDMDL
MODEL 7
REMARK VINA RESULT:   -14.336      2.678      5.528
REMARK INTER + INTRA:         -14.336
REMARK INTER:                 -14.336
REMARK INTRA:                   0.000
REMARK UNBOUND:                 0.000
ROOT
REMARK  Name = methylprednisolone aceponate
REMARK                            x       y       z     vdW  Elec       q    Type
REMARK                         _______ _______ _______ _____ _____    ______ ____
ATOM      1  C   UNL     1      60.125  64.119  68.810  0.00  0.00    +0.000 C 
ATOM      2  C   UNL     1      60.801  64.512  69.072  0.00  0.00    +0.000 C 
ATOM      3  C   UNL     1      60.836  64.803  69.843  0.00  0.00    +0.000 C 
ATOM      4  O   UNL     1      60.196  64.701  70.351  0.00  0.00    +0.000 OA
ATOM      5  O   UNL     1      61.513  65.196  70.105  0.00  0.00    +0.000 OA
ATOM      6  C   UNL     1      61.548  65.486  70.875  0.00  0.00    +0.000 C 
ATOM      7  C   UNL     1      61.425  65.712  71.660  0.00  0.00    +0.000 C 
ATOM      8  C   UNL     1      62.102  66.104  71.922  0.00  0.00    +0.000 C 
ATOM      9  C   UNL     1      62.643  66.122  71.300  0.00  0.00    +0.000 C 
ATOM     10  C   UNL     1      63.404  66.436  71.239  0.00  0.00    +0.000 C 
ATOM     11  C   UNL     1      63.746  66.818  71.885  0.00  0.00    +0.000 C 
ATOM     12  C   UNL     1      64.506  67.132  71.824  0.00  0.00    +0.000 C 
ATOM     13  C   UNL     1      64.848  67.514  72.470  0.00  0.00    +0.000 C 
ATOM     14  C   UNL     1      64.924  67.064  71.116  0.00  0.00    +0.000 C 
ATOM     15  C   UNL     1      65.685  67.379  71.055  0.00  0.00    +0.000 C 
ATOM     16  C   UNL     1      66.103  67.311  70.347  0.00  0.00    +0.000 C 
ATOM     17  O   UNL     1      66.863  67.625  70.286  0.00  0.00    +0.000 OA
ATOM     18  C   UNL     1      65.761  66.929  69.700  0.00  0.00    +0.000 C 
ATOM     19  C   UNL     1      65.001  66.615  69.762  0.00  0.00    +0.000 C 
ATOM     20  C   UNL     1      64.582  66.682  70.469  0.00  0.00    +0.000 C 
ATOM     21  C   UNL     1      64.241  66.300  69.823  0.00  0.00    +0.000 C 
ATOM     22  C   UNL     1      63.822  66.368  70.531  0.00  0.00    +0.000 C 
ATOM     23  C   UNL     1      63.480  65.986  69.884  0.00  0.00    +0.000 C 
ATOM     24  O   UNL     1      63.899  65.919  69.177  0.00  0.00    +0.000 OA
ATOM     25  C   UNL     1      62.720  65.672  69.945  0.00  0.00    +0.000 C 
ATOM     26  C   UNL     1      62.302  65.740  70.654  0.00  0.00    +0.000 C 
ATOM     27  C   UNL     1      61.890  65.345  70.057  0.00  0.00    +0.000 C 
ATOM     28  C   UNL     1      60.788  65.172  70.937  0.00  0.00    +0.000 C 
ATOM     29  O   UNL     1      60.111  64.779  70.675  0.00  0.00    +0.000 OA
ATOM     30  C   UNL     1      60.369  65.240  71.645  0.00  0.00    +0.000 C 
ATOM     31  O   UNL     1      59.609  64.926  71.706  0.00  0.00    +0.000 OA
ATOM     32  C   UNL     1      59.191  64.993  72.415  0.00  0.00    +0.000 C 
ATOM     33  C   UNL     1      58.430  64.679  72.475  0.00  0.00    +0.000 C 
ATOM     34  O   UNL     1      59.533  65.375  73.060  0.00  0.00    +0.000 OA
ENDROOT
TORSDOF 0
ENDMDL
MODEL 8
REMARK VINA RESULT:   -14.314      1.768      5.555
REMARK INTER + INTRA:         -14.314
REMARK INTER:                 -14.314
REMARK INTRA:                   0.000
REMARK UNBOUND:                 0.000
ROOT
REMARK  Name = methylprednisolone aceponate
REMARK                            x       y       z     vdW  Elec       q    Type
REMARK                         _______ _______ _______ _____ _____    ______ ____
ATOM      1  C   UNL     1      60.628  60.885  70.426  0.00  0.00    +0.000 C 
ATOM      2  C   UNL     1      60.427  61.666  70.599  0.00  0.00    +0.000 C 
ATOM      3  C   UNL     1      60.498  62.249  70.019  0.00  0.00    +0.000 C 
ATOM      4  O   UNL     1      60.770  62.050  69.266  0.00  0.00    +0.000 OA
ATOM      5  O   UNL     1      60.297  63.030  70.192  0.00  0.00    +0.000 OA
ATOM      6  C   UNL     1      60.368  63.612  69.612  0.00  0.00    +0.000 C 
ATOM      7  C   UNL     1      60.494  64.064  68.934  0.00  0.00    +0.000 C 
ATOM      8  C   UNL     1      60.293  64.846  69.107  0.00  0.00    +0.000 C 
ATOM      9  C   UNL     1      60.043  64.876  69.892  0.00  0.00    +0.000 C 
ATOM     10  C   UNL     1      59.779  65.500  70.364  0.00  0.00    +0.000 C 
ATOM     11  C   UNL     1      59.733  66.262  70.052  0.00  0.00    +0.000 C 
ATOM     12  C   UNL     1      59.469  66.886  70.523  0.00  0.00    +0.000 C 
ATOM     13  C   UNL     1      59.423  67.648  70.211  0.00  0.00    +0.000 C 
ATOM     14  C   UNL     1      59.251  66.746  71.306  0.00  0.00    +0.000 C 
ATOM     15  C   UNL     1      58.987  67.371  71.778  0.00  0.00    +0.000 C 
ATOM     16  C   UNL     1      58.769  67.231  72.561  0.00  0.00    +0.000 C 
ATOM     17  O   UNL     1      58.505  67.855  73.032  0.00  0.00    +0.000 OA
ATOM     18  C   UNL     1      58.816  66.469  72.873  0.00  0.00    +0.000 C 
ATOM     19  C   UNL     1      59.080  65.846  72.402  0.00  0.00    +0.000 C 
ATOM     20  C   UNL     1      59.297  65.984  71.619  0.00  0.00    +0.000 C 
ATOM     21  C   UNL     1      59.343  65.222  71.931  0.00  0.00    +0.000 C 
ATOM     22  C   UNL     1      59.561  65.361  71.147  0.00  0.00    +0.000 C 
ATOM     23  C   UNL     1      59.607  64.599  71.460  0.00  0.00    +0.000 C 
ATOM     24  O   UNL     1      59.390  64.460  72.243  0.00  0.00    +0.000 OA
ATOM     25  C   UNL     1      59.871  63.975  70.989  0.00  0.00    +0.000 C 
ATOM     26  C   UNL     1      60.089  64.114  70.205  0.00  0.00    +0.000 C 
ATOM     27  C   UNL     1      60.164  63.326  70.440  0.00  0.00    +0.000 C 
ATOM     28  C   UNL     1      60.632  62.988  69.141  0.00  0.00    +0.000 C 
ATOM     29  O   UNL     1      60.833  62.207  68.968  0.00  0.00    +0.000 OA
ATOM     30  C   UNL     1      60.850  63.127  68.357  0.00  0.00    +0.000 C 
ATOM     31  O   UNL     1      61.114  62.504  67.886  0.00  0.00    +0.000 OA
ATOM     32  C   UNL     1      61.332  62.643  67.102  0.00  0.00    +0.000 C 
ATOM     33  C   UNL     1      61.596  62.019  66.631  0.00  0.00    +0.000 C 
ATOM     34  O   UNL     1      61.286  63.405  66.791  0.00  0.00    +0.000 OA
ENDROOT
TORSDOF 0
ENDMDL
