MODEL 1
REMARK VINA RESULT:    -8.527      0.000      0.000
REMARK INTER + INTRA:          -8.527
REMARK INTER:                  -8.527
REMARK INTRA:                   0.000
REMARK UNBOUND:                 0.000
ROOT
REMARK  Name = metirosine
REMARK                            x       y       z     vdW  Elec       q    Type
REMARK                         _______ _______ _______ _____ _____    ______ ____
ATOM      1  C   UNL     1      61.482  62.483  66.102  0.00  0.00    +0.000 C 
ATOM      2  C   UNL     1      60.751  62.299  66.437  0.00  0.00    +0.000 C 
ATOM      3  N   UNL     1      60.020  62.115  66.771  0.00  0.00    +0.000 NA
ATOM      4  C   UNL     1      60.558  61.854  65.769  0.00  0.00    +0.000 C 
ATOM      5  C   UNL     1      61.094  61.791  65.147  0.00  0.00    +0.000 A 
ATOM      6  C   UNL     1      61.825  62.173  65.190  0.00  0.00    +0.000 A 
ATOM      7  C   UNL     1      62.361  62.109  64.567  0.00  0.00    +0.000 A 
ATOM      8  C   UNL     1      62.168  61.665  63.900  0.00  0.00    +0.000 A 
ATOM      9  O   UNL     1      62.705  61.602  63.276  0.00  0.00    +0.000 OA
ATOM     10  C   UNL     1      61.438  61.283  63.856  0.00  0.00    +0.000 A 
ATOM     11  C   UNL     1      60.901  61.346  64.479  0.00  0.00    +0.000 A 
ATOM     12  C   UNL     1      60.944  62.744  67.104  0.00  0.00    +0.000 C 
ATOM     13  O   UNL     1      60.408  62.807  67.727  0.00  0.00    +0.000 OA
ATOM     14  O   UNL     1      61.675  63.126  67.148  0.00  0.00    +0.000 OA
ENDROOT
TORSDOF 0
ENDMDL
MODEL 2
REMARK VINA RESULT:    -8.467      1.170      3.035
REMARK INTER + INTRA:          -8.467
REMARK INTER:                  -8.467
REMARK INTRA:                   0.000
REMARK UNBOUND:                 0.000
ROOT
REMARK  Name = metirosine
REMARK                            x       y       z     vdW  Elec       q    Type
REMARK                         _______ _______ _______ _____ _____    ______ ____
ATOM      1  C   UNL     1      61.565  62.155  65.334  0.00  0.00    +0.000 C 
ATOM      2  C   UNL     1      61.407  61.716  64.653  0.00  0.00    +0.000 C 
ATOM      3  N   UNL     1      61.247  61.277  63.973  0.00  0.00    +0.000 NA
ATOM      4  C   UNL     1      60.633  61.595  64.913  0.00  0.00    +0.000 C 
ATOM      5  C   UNL     1      60.384  61.914  65.630  0.00  0.00    +0.000 A 
ATOM      6  C   UNL     1      60.908  62.354  66.090  0.00  0.00    +0.000 A 
ATOM      7  C   UNL     1      60.658  62.674  66.809  0.00  0.00    +0.000 A 
ATOM      8  C   UNL     1      59.885  62.552  67.068  0.00  0.00    +0.000 A 
ATOM      9  O   UNL     1      59.635  62.872  67.787  0.00  0.00    +0.000 OA
ATOM     10  C   UNL     1      59.360  62.111  66.608  0.00  0.00    +0.000 A 
ATOM     11  C   UNL     1      59.609  61.792  65.890  0.00  0.00    +0.000 A 
ATOM     12  C   UNL     1      62.180  61.837  64.394  0.00  0.00    +0.000 C 
ATOM     13  O   UNL     1      62.429  61.518  63.676  0.00  0.00    +0.000 OA
ATOM     14  O   UNL     1      62.705  62.278  64.854  0.00  0.00    +0.000 OA
ENDROOT
TORSDOF 0
ENDMDL
MODEL 3
REMARK VINA RESULT:    -7.420      5.974      6.694
REMARK INTER + INTRA:          -7.420
REMARK INTER:                  -7.420
REMARK INTRA:                   0.000
REMARK UNBOUND:                 0.000
ROOT
REMARK  Name = metirosine
REMARK                            x       y       z     vdW  Elec       q    Type
REMARK                         _______ _______ _______ _____ _____    ______ ____
ATOM      1  C   UNL     1      60.692  63.805  72.398  0.00  0.00    +0.000 C 
ATOM      2  C   UNL     1      60.030  64.189  72.087  0.00  0.00    +0.000 C 
ATOM      3  N   UNL     1      59.369  64.571  71.775  0.00  0.00    +0.000 NA
ATOM      4  C   UNL     1      59.919  63.565  71.558  0.00  0.00    +0.000 C 
ATOM      5  C   UNL     1      60.435  62.923  71.564  0.00  0.00    +0.000 A 
ATOM      6  C   UNL     1      61.064  62.902  72.097  0.00  0.00    +0.000 A 
ATOM      7  C   UNL     1      61.580  62.259  72.102  0.00  0.00    +0.000 A 
ATOM      8  C   UNL     1      61.468  61.636  71.574  0.00  0.00    +0.000 A 
ATOM      9  O   UNL     1      61.985  60.992  71.579  0.00  0.00    +0.000 OA
ATOM     10  C   UNL     1      60.840  61.656  71.039  0.00  0.00    +0.000 A 
ATOM     11  C   UNL     1      60.323  62.299  71.034  0.00  0.00    +0.000 A 
ATOM     12  C   UNL     1      60.142  64.812  72.615  0.00  0.00    +0.000 C 
ATOM     13  O   UNL     1      59.626  65.454  72.610  0.00  0.00    +0.000 OA
ATOM     14  O   UNL     1      60.771  64.792  73.150  0.00  0.00    +0.000 OA
ENDROOT
TORSDOF 0
ENDMDL
MODEL 4
REMARK VINA RESULT:    -7.270      4.429      6.342
REMARK INTER + INTRA:          -7.270
REMARK INTER:                  -7.270
REMARK INTRA:                   0.000
REMARK UNBOUND:                 0.000
ROOT
REMARK  Name = metirosine
REMARK                            x       y       z     vdW  Elec       q    Type
REMARK                         _______ _______ _______ _____ _____    ______ ____
ATOM      1  C   UNL     1      60.898  63.007  70.412  0.00  0.00    +0.000 C 
ATOM      2  C   UNL     1      60.655  62.219  70.400  0.00  0.00    +0.000 C 
ATOM      3  N   UNL     1      60.412  61.431  70.389  0.00  0.00    +0.000 NA
ATOM      4  C   UNL     1      60.810  62.160  71.208  0.00  0.00    +0.000 C 
ATOM      5  C   UNL     1      61.097  62.812  71.622  0.00  0.00    +0.000 A 
ATOM      6  C   UNL     1      61.230  63.525  71.229  0.00  0.00    +0.000 A 
ATOM      7  C   UNL     1      61.517  64.178  71.643  0.00  0.00    +0.000 A 
ATOM      8  C   UNL     1      61.671  64.118  72.451  0.00  0.00    +0.000 A 
ATOM      9  O   UNL     1      61.959  64.771  72.866  0.00  0.00    +0.000 OA
ATOM     10  C   UNL     1      61.539  63.405  72.845  0.00  0.00    +0.000 A 
ATOM     11  C   UNL     1      61.251  62.752  72.431  0.00  0.00    +0.000 A 
ATOM     12  C   UNL     1      60.501  62.278  69.592  0.00  0.00    +0.000 C 
ATOM     13  O   UNL     1      60.214  61.626  69.178  0.00  0.00    +0.000 OA
ATOM     14  O   UNL     1      60.634  62.991  69.198  0.00  0.00    +0.000 OA
ENDROOT
TORSDOF 0
ENDMDL
MODEL 5
REMARK VINA RESULT:    -7.245      2.894      4.918
REMARK INTER + INTRA:          -7.245
REMARK INTER:                  -7.245
REMARK INTRA:                   0.000
REMARK UNBOUND:                 0.000
ROOT
REMARK  Name = metirosine
REMARK                            x       y       z     vdW  Elec       q    Type
REMARK                         _______ _______ _______ _____ _____    ______ ____
ATOM      1  C   UNL     1      60.541  63.164  68.832  0.00  0.00    +0.000 C 
ATOM      2  C   UNL     1      60.512  62.580  68.249  0.00  0.00    +0.000 C 
ATOM      3  N   UNL     1      60.483  61.996  67.668  0.00  0.00    +0.000 NA
ATOM      4  C   UNL     1      60.477  62.000  68.835  0.00  0.00    +0.000 C 
ATOM      5  C   UNL     1      60.484  62.216  69.630  0.00  0.00    +0.000 A 
ATOM      6  C   UNL     1      60.527  63.012  69.842  0.00  0.00    +0.000 A 
ATOM      7  C   UNL     1      60.534  63.227  70.638  0.00  0.00    +0.000 A 
ATOM      8  C   UNL     1      60.498  62.647  71.222  0.00  0.00    +0.000 A 
ATOM      9  O   UNL     1      60.505  62.863  72.020  0.00  0.00    +0.000 OA
ATOM     10  C   UNL     1      60.455  61.850  71.012  0.00  0.00    +0.000 A 
ATOM     11  C   UNL     1      60.448  61.635  70.216  0.00  0.00    +0.000 A 
ATOM     12  C   UNL     1      60.548  63.161  67.664  0.00  0.00    +0.000 C 
ATOM     13  O   UNL     1      60.541  62.945  66.869  0.00  0.00    +0.000 OA
ATOM     14  O   UNL     1      60.591  63.957  67.876  0.00  0.00    +0.000 OA
ENDROOT
TORSDOF 0
ENDMDL
MODEL 6
REMARK VINA RESULT:    -7.160      6.150      7.492
REMARK INTER + INTRA:          -7.160
REMARK INTER:                  -7.160
REMARK INTRA:                   0.000
REMARK UNBOUND:                 0.000
ROOT
REMARK  Name = metirosine
REMARK                            x       y       z     vdW  Elec       q    Type
REMARK                         _______ _______ _______ _____ _____    ______ ____
ATOM      1  C   UNL     1      63.985  65.803  70.135  0.00  0.00    +0.000 C 
ATOM      2  C   UNL     1      63.615  65.513  70.813  0.00  0.00    +0.000 C 
ATOM      3  N   UNL     1      63.245  65.224  71.492  0.00  0.00    +0.000 NA
ATOM      4  C   UNL     1      64.151  65.929  71.282  0.00  0.00    +0.000 C 
ATOM      5  C   UNL     1      64.739  66.386  70.930  0.00  0.00    +0.000 A 
ATOM      6  C   UNL     1      64.792  66.429  70.108  0.00  0.00    +0.000 A 
ATOM      7  C   UNL     1      65.380  66.888  69.756  0.00  0.00    +0.000 A 
ATOM      8  C   UNL     1      65.916  67.303  70.225  0.00  0.00    +0.000 A 
ATOM      9  O   UNL     1      66.505  67.762  69.872  0.00  0.00    +0.000 OA
ATOM     10  C   UNL     1      65.864  67.261  71.047  0.00  0.00    +0.000 A 
ATOM     11  C   UNL     1      65.275  66.803  71.400  0.00  0.00    +0.000 A 
ATOM     12  C   UNL     1      63.078  65.097  70.344  0.00  0.00    +0.000 C 
ATOM     13  O   UNL     1      62.491  64.640  70.696  0.00  0.00    +0.000 OA
ATOM     14  O   UNL     1      63.131  65.140  69.521  0.00  0.00    +0.000 OA
ENDROOT
TORSDOF 0
ENDMDL
MODEL 7
REMARK VINA RESULT:    -7.044      6.520      7.847
REMARK INTER + INTRA:          -7.044
REMARK INTER:                  -7.044
REMARK INTRA:                   0.000
REMARK UNBOUND:                 0.000
ROOT
REMARK  Name = metirosine
REMARK                            x       y       z     vdW  Elec       q    Type
REMARK                         _______ _______ _______ _____ _____    ______ ____
ATOM      1  C   UNL     1      65.363  66.536  70.979  0.00  0.00    +0.000 C 
ATOM      2  C   UNL     1      65.780  66.995  70.434  0.00  0.00    +0.000 C 
ATOM      3  N   UNL     1      66.196  67.453  69.888  0.00  0.00    +0.000 NA
ATOM      4  C   UNL     1      65.191  66.860  69.872  0.00  0.00    +0.000 C 
ATOM      5  C   UNL     1      64.537  66.396  70.063  0.00  0.00    +0.000 A 
ATOM      6  C   UNL     1      64.470  66.067  70.817  0.00  0.00    +0.000 A 
ATOM      7  C   UNL     1      63.815  65.603  71.008  0.00  0.00    +0.000 A 
ATOM      8  C   UNL     1      63.227  65.468  70.446  0.00  0.00    +0.000 A 
ATOM      9  O   UNL     1      62.572  65.004  70.638  0.00  0.00    +0.000 OA
ATOM     10  C   UNL     1      63.293  65.798  69.692  0.00  0.00    +0.000 A 
ATOM     11  C   UNL     1      63.948  66.262  69.501  0.00  0.00    +0.000 A 
ATOM     12  C   UNL     1      66.369  67.130  70.996  0.00  0.00    +0.000 C 
ATOM     13  O   UNL     1      67.023  67.593  70.804  0.00  0.00    +0.000 OA
ATOM     14  O   UNL     1      66.302  66.800  71.750  0.00  0.00    +0.000 OA
ENDROOT
TORSDOF 0
ENDMDL
MODEL 8
REMARK VINA RESULT:    -7.019     17.895     18.403
REMARK INTER + INTRA:          -7.019
REMARK INTER:                  -7.019
REMARK INTRA:                   0.000
REMARK UNBOUND:                 0.000
ROOT
REMARK  Name = metirosine
REMARK                            x       y       z     vdW  Elec       q    Type
REMARK                         _______ _______ _______ _____ _____    ______ ____
ATOM      1  C   UNL     1      64.731  78.871  58.884  0.00  0.00    +0.000 C 
ATOM      2  C   UNL     1      65.042  79.604  58.669  0.00  0.00    +0.000 C 
ATOM      3  N   UNL     1      65.353  80.337  58.454  0.00  0.00    +0.000 NA
ATOM      4  C   UNL     1      65.769  79.391  58.995  0.00  0.00    +0.000 C 
ATOM      5  C   UNL     1      65.863  78.650  59.344  0.00  0.00    +0.000 A 
ATOM      6  C   UNL     1      65.230  78.121  59.368  0.00  0.00    +0.000 A 
ATOM      7  C   UNL     1      65.324  77.380  59.717  0.00  0.00    +0.000 A 
ATOM      8  C   UNL     1      66.051  77.168  60.043  0.00  0.00    +0.000 A 
ATOM      9  O   UNL     1      66.145  76.425  60.393  0.00  0.00    +0.000 OA
ATOM     10  C   UNL     1      66.685  77.696  60.021  0.00  0.00    +0.000 A 
ATOM     11  C   UNL     1      66.590  78.437  59.671  0.00  0.00    +0.000 A 
ATOM     12  C   UNL     1      64.315  79.818  58.342  0.00  0.00    +0.000 C 
ATOM     13  O   UNL     1      64.221  80.558  57.993  0.00  0.00    +0.000 OA
ATOM     14  O   UNL     1      63.682  79.288  58.365  0.00  0.00    +0.000 OA
ENDROOT
TORSDOF 0
ENDMDL
MODEL 9
REMARK VINA RESULT:    -6.983     24.577     25.213
REMARK INTER + INTRA:          -6.983
REMARK INTER:                  -6.983
REMARK INTRA:                   0.000
REMARK UNBOUND:                 0.000
ROOT
REMARK  Name = metirosine
REMARK                            x       y       z     vdW  Elec       q    Type
REMARK                         _______ _______ _______ _____ _____    ______ ____
ATOM      1  C   UNL     1      70.723  79.992  50.449  0.00  0.00    +0.000 C 
ATOM      2  C   UNL     1      69.952  79.763  50.629  0.00  0.00    +0.000 C 
ATOM      3  N   UNL     1      69.180  79.533  50.809  0.00  0.00    +0.000 NA
ATOM      4  C   UNL     1      69.977  79.204  50.023  0.00  0.00    +0.000 C 
ATOM      5  C   UNL     1      70.657  79.124  49.564  0.00  0.00    +0.000 A 
ATOM      6  C   UNL     1      71.313  79.602  49.711  0.00  0.00    +0.000 A 
ATOM      7  C   UNL     1      71.994  79.522  49.252  0.00  0.00    +0.000 A 
ATOM      8  C   UNL     1      72.018  78.964  48.646  0.00  0.00    +0.000 A 
ATOM      9  O   UNL     1      72.700  78.883  48.186  0.00  0.00    +0.000 OA
ATOM     10  C   UNL     1      71.362  78.485  48.498  0.00  0.00    +0.000 A 
ATOM     11  C   UNL     1      70.682  78.565  48.957  0.00  0.00    +0.000 A 
ATOM     12  C   UNL     1      69.926  80.321  51.236  0.00  0.00    +0.000 C 
ATOM     13  O   UNL     1      69.246  80.402  51.695  0.00  0.00    +0.000 OA
ATOM     14  O   UNL     1      70.583  80.800  51.383  0.00  0.00    +0.000 OA
ENDROOT
TORSDOF 0
ENDMDL
