MODEL 1
REMARK VINA RESULT:   -15.176      0.000      0.000
REMARK INTER + INTRA:         -15.176
REMARK INTER:                 -15.176
REMARK INTRA:                   0.000
REMARK UNBOUND:                 0.000
ROOT
REMARK  Name = mibefradil
REMARK                            x       y       z     vdW  Elec       q    Type
REMARK                         _______ _______ _______ _____ _____    ______ ____
ATOM      1  C   UNL     1      64.594  65.137  69.634  0.00  0.00    +0.000 C 
ATOM      2  O   UNL     1      64.068  64.727  69.148  0.00  0.00    +0.000 OA
ATOM      3  C   UNL     1      63.303  64.568  69.411  0.00  0.00    +0.000 C 
ATOM      4  C   UNL     1      62.777  64.159  68.925  0.00  0.00    +0.000 C 
ATOM      5  O   UNL     1      63.016  63.908  68.176  0.00  0.00    +0.000 OA
ATOM      6  O   UNL     1      62.011  63.999  69.188  0.00  0.00    +0.000 OA
ATOM      7  C   UNL     1      61.772  64.250  69.937  0.00  0.00    +0.000 C 
ATOM      8  C   UNL     1      61.079  63.882  69.679  0.00  0.00    +0.000 C 
ATOM      9  C   UNL     1      61.049  63.535  68.932  0.00  0.00    +0.000 C 
ATOM     10  N   UNL     1      60.356  63.168  68.675  0.00  0.00    +0.000 NA
ATOM     11  C   UNL     1      59.693  63.148  69.165  0.00  0.00    +0.000 C 
ATOM     12  C   UNL     1      60.326  62.820  67.928  0.00  0.00    +0.000 C 
ATOM     13  C   UNL     1      59.633  62.453  67.670  0.00  0.00    +0.000 C 
ATOM     14  C   UNL     1      59.603  62.106  66.923  0.00  0.00    +0.000 C 
ATOM     15  C   UNL     1      60.266  62.125  66.432  0.00  0.00    +0.000 C 
ATOM     16  N   UNL     1      60.993  62.470  66.613  0.00  0.00    +0.000 NA
ATOM     17  C   UNL     1      61.495  62.361  65.967  0.00  0.00    +0.000 C 
ATOM     18  C   UNL     1      61.078  61.949  65.387  0.00  0.00    +0.000 C 
ATOM     19  N   UNL     1      60.319  61.803  65.675  0.00  0.00    +0.000 NA
ATOM     20  C   UNL     1      61.443  61.760  64.672  0.00  0.00    +0.000 C 
ATOM     21  C   UNL     1      62.226  61.983  64.537  0.00  0.00    +0.000 C 
ATOM     22  C   UNL     1      62.643  62.395  65.117  0.00  0.00    +0.000 C 
ATOM     23  C   UNL     1      62.278  62.585  65.832  0.00  0.00    +0.000 C 
ATOM     24  C   UNL     1      62.547  64.529  69.934  0.00  0.00    +0.000 C 
ATOM     25  C   UNL     1      62.843  64.932  70.589  0.00  0.00    +0.000 C 
ATOM     26  C   UNL     1      62.364  65.055  71.249  0.00  0.00    +0.000 A 
ATOM     27  C   UNL     1      62.658  65.458  71.906  0.00  0.00    +0.000 A 
ATOM     28  C   UNL     1      62.178  65.581  72.565  0.00  0.00    +0.000 A 
ATOM     29  F   UNL     1      62.475  65.984  73.222  0.00  0.00    +0.000 F 
ATOM     30  C   UNL     1      61.403  65.301  72.568  0.00  0.00    +0.000 A 
ATOM     31  C   UNL     1      61.108  64.898  71.912  0.00  0.00    +0.000 A 
ATOM     32  C   UNL     1      61.587  64.775  71.252  0.00  0.00    +0.000 A 
ATOM     33  C   UNL     1      61.291  64.372  70.596  0.00  0.00    +0.000 C 
ATOM     34  C   UNL     1      60.516  64.092  70.599  0.00  0.00    +0.000 C 
ATOM     35  C   UNL     1      60.219  63.689  69.943  0.00  0.00    +0.000 C 
ATOM     36  C   UNL     1      60.035  64.215  71.259  0.00  0.00    +0.000 C 
ENDROOT
TORSDOF 0
ENDMDL
MODEL 2
REMARK VINA RESULT:   -14.354      2.158      2.677
REMARK INTER + INTRA:         -14.354
REMARK INTER:                 -14.354
REMARK INTRA:                   0.000
REMARK UNBOUND:                 0.000
ROOT
REMARK  Name = mibefradil
REMARK                            x       y       z     vdW  Elec       q    Type
REMARK                         _______ _______ _______ _____ _____    ______ ____
ATOM      1  C   UNL     1      59.719  67.675  69.097  0.00  0.00    +0.000 C 
ATOM      2  O   UNL     1      59.906  66.893  68.910  0.00  0.00    +0.000 OA
ATOM      3  C   UNL     1      59.866  66.310  69.492  0.00  0.00    +0.000 C 
ATOM      4  C   UNL     1      60.052  65.529  69.306  0.00  0.00    +0.000 C 
ATOM      5  O   UNL     1      60.279  65.330  68.538  0.00  0.00    +0.000 OA
ATOM      6  O   UNL     1      60.012  64.945  69.888  0.00  0.00    +0.000 OA
ATOM      7  C   UNL     1      59.786  65.143  70.656  0.00  0.00    +0.000 C 
ATOM      8  C   UNL     1      59.909  64.332  70.747  0.00  0.00    +0.000 C 
ATOM      9  C   UNL     1      60.150  63.876  70.104  0.00  0.00    +0.000 C 
ATOM     10  N   UNL     1      60.273  63.065  70.195  0.00  0.00    +0.000 NA
ATOM     11  C   UNL     1      60.154  62.710  70.930  0.00  0.00    +0.000 C 
ATOM     12  C   UNL     1      60.515  62.610  69.552  0.00  0.00    +0.000 C 
ATOM     13  C   UNL     1      60.638  61.799  69.642  0.00  0.00    +0.000 C 
ATOM     14  C   UNL     1      60.880  61.343  68.999  0.00  0.00    +0.000 C 
ATOM     15  C   UNL     1      60.999  61.698  68.264  0.00  0.00    +0.000 C 
ATOM     16  N   UNL     1      60.899  62.498  68.090  0.00  0.00    +0.000 NA
ATOM     17  C   UNL     1      61.077  62.610  67.292  0.00  0.00    +0.000 C 
ATOM     18  C   UNL     1      61.288  61.879  66.973  0.00  0.00    +0.000 C 
ATOM     19  N   UNL     1      61.239  61.316  67.574  0.00  0.00    +0.000 NA
ATOM     20  C   UNL     1      61.496  61.821  66.177  0.00  0.00    +0.000 C 
ATOM     21  C   UNL     1      61.494  62.493  65.699  0.00  0.00    +0.000 C 
ATOM     22  C   UNL     1      61.284  63.225  66.018  0.00  0.00    +0.000 C 
ATOM     23  C   UNL     1      61.075  63.283  66.815  0.00  0.00    +0.000 C 
ATOM     24  C   UNL     1      59.742  65.884  70.298  0.00  0.00    +0.000 C 
ATOM     25  C   UNL     1      59.514  66.543  70.739  0.00  0.00    +0.000 C 
ATOM     26  C   UNL     1      59.329  66.460  71.539  0.00  0.00    +0.000 A 
ATOM     27  C   UNL     1      59.101  67.118  71.981  0.00  0.00    +0.000 A 
ATOM     28  C   UNL     1      58.917  67.034  72.781  0.00  0.00    +0.000 A 
ATOM     29  F   UNL     1      58.689  67.693  73.222  0.00  0.00    +0.000 F 
ATOM     30  C   UNL     1      58.961  66.293  73.139  0.00  0.00    +0.000 A 
ATOM     31  C   UNL     1      59.189  65.635  72.697  0.00  0.00    +0.000 A 
ATOM     32  C   UNL     1      59.374  65.717  71.897  0.00  0.00    +0.000 A 
ATOM     33  C   UNL     1      59.602  65.059  71.456  0.00  0.00    +0.000 C 
ATOM     34  C   UNL     1      59.646  64.318  71.814  0.00  0.00    +0.000 C 
ATOM     35  C   UNL     1      59.874  63.659  71.372  0.00  0.00    +0.000 C 
ATOM     36  C   UNL     1      59.462  64.234  72.614  0.00  0.00    +0.000 C 
ENDROOT
TORSDOF 0
ENDMDL
MODEL 3
REMARK VINA RESULT:   -13.470      2.723      5.351
REMARK INTER + INTRA:         -13.470
REMARK INTER:                 -13.470
REMARK INTRA:                   0.000
REMARK UNBOUND:                 0.000
ROOT
REMARK  Name = mibefradil
REMARK                            x       y       z     vdW  Elec       q    Type
REMARK                         _______ _______ _______ _____ _____    ______ ____
ATOM      1  C   UNL     1      62.183  63.217  67.874  0.00  0.00    +0.000 C 
ATOM      2  O   UNL     1      62.576  63.770  68.343  0.00  0.00    +0.000 OA
ATOM      3  C   UNL     1      62.396  63.833  69.146  0.00  0.00    +0.000 C 
ATOM      4  C   UNL     1      62.789  64.385  69.615  0.00  0.00    +0.000 C 
ATOM      5  O   UNL     1      63.363  64.876  69.282  0.00  0.00    +0.000 OA
ATOM      6  O   UNL     1      62.609  64.448  70.418  0.00  0.00    +0.000 OA
ATOM      7  C   UNL     1      62.036  63.957  70.751  0.00  0.00    +0.000 C 
ATOM      8  C   UNL     1      62.257  64.393  71.416  0.00  0.00    +0.000 C 
ATOM      9  C   UNL     1      62.837  64.975  71.354  0.00  0.00    +0.000 C 
ATOM     10  N   UNL     1      63.059  65.411  72.019  0.00  0.00    +0.000 NA
ATOM     11  C   UNL     1      62.698  65.264  72.747  0.00  0.00    +0.000 C 
ATOM     12  C   UNL     1      63.639  65.993  71.957  0.00  0.00    +0.000 C 
ATOM     13  C   UNL     1      63.860  66.429  72.622  0.00  0.00    +0.000 C 
ATOM     14  C   UNL     1      64.441  67.011  72.560  0.00  0.00    +0.000 C 
ATOM     15  C   UNL     1      64.801  67.158  71.833  0.00  0.00    +0.000 C 
ATOM     16  N   UNL     1      64.638  66.770  71.124  0.00  0.00    +0.000 NA
ATOM     17  C   UNL     1      65.124  67.091  70.539  0.00  0.00    +0.000 C 
ATOM     18  C   UNL     1      65.587  67.679  70.887  0.00  0.00    +0.000 C 
ATOM     19  N   UNL     1      65.387  67.720  71.687  0.00  0.00    +0.000 NA
ATOM     20  C   UNL     1      66.130  68.100  70.431  0.00  0.00    +0.000 C 
ATOM     21  C   UNL     1      66.211  67.934  69.627  0.00  0.00    +0.000 C 
ATOM     22  C   UNL     1      65.748  67.346  69.279  0.00  0.00    +0.000 C 
ATOM     23  C   UNL     1      65.204  66.925  69.735  0.00  0.00    +0.000 C 
ATOM     24  C   UNL     1      62.014  63.693  69.971  0.00  0.00    +0.000 C 
ATOM     25  C   UNL     1      61.496  63.089  69.754  0.00  0.00    +0.000 C 
ATOM     26  C   UNL     1      60.999  62.749  70.318  0.00  0.00    +0.000 A 
ATOM     27  C   UNL     1      60.481  62.145  70.102  0.00  0.00    +0.000 A 
ATOM     28  C   UNL     1      59.984  61.806  70.667  0.00  0.00    +0.000 A 
ATOM     29  F   UNL     1      59.466  61.201  70.450  0.00  0.00    +0.000 F 
ATOM     30  C   UNL     1      60.006  62.070  71.448  0.00  0.00    +0.000 A 
ATOM     31  C   UNL     1      60.524  62.675  71.663  0.00  0.00    +0.000 A 
ATOM     32  C   UNL     1      61.021  63.014  71.099  0.00  0.00    +0.000 A 
ATOM     33  C   UNL     1      61.539  63.618  71.316  0.00  0.00    +0.000 C 
ATOM     34  C   UNL     1      61.561  63.883  72.097  0.00  0.00    +0.000 C 
ATOM     35  C   UNL     1      62.079  64.487  72.314  0.00  0.00    +0.000 C 
ATOM     36  C   UNL     1      61.064  63.544  72.661  0.00  0.00    +0.000 C 
ENDROOT
TORSDOF 0
ENDMDL
MODEL 4
REMARK VINA RESULT:   -13.050      0.897      1.318
REMARK INTER + INTRA:         -13.050
REMARK INTER:                 -13.050
REMARK INTRA:                   0.000
REMARK UNBOUND:                 0.000
ROOT
REMARK  Name = mibefradil
REMARK                            x       y       z     vdW  Elec       q    Type
REMARK                         _______ _______ _______ _____ _____    ______ ____
ATOM      1  C   UNL     1      65.362  65.571  69.541  0.00  0.00    +0.000 C 
ATOM      2  O   UNL     1      64.719  65.185  69.195  0.00  0.00    +0.000 OA
ATOM      3  C   UNL     1      63.986  65.187  69.572  0.00  0.00    +0.000 C 
ATOM      4  C   UNL     1      63.344  64.802  69.226  0.00  0.00    +0.000 C 
ATOM      5  O   UNL     1      63.434  64.415  68.504  0.00  0.00    +0.000 OA
ATOM      6  O   UNL     1      62.609  64.805  69.604  0.00  0.00    +0.000 OA
ATOM      7  C   UNL     1      62.518  65.192  70.326  0.00  0.00    +0.000 C 
ATOM      8  C   UNL     1      61.751  64.907  70.218  0.00  0.00    +0.000 C 
ATOM      9  C   UNL     1      61.565  64.468  69.546  0.00  0.00    +0.000 C 
ATOM     10  N   UNL     1      60.798  64.182  69.437  0.00  0.00    +0.000 NA
ATOM     11  C   UNL     1      60.218  64.337  70.002  0.00  0.00    +0.000 C 
ATOM     12  C   UNL     1      60.612  63.743  68.765  0.00  0.00    +0.000 C 
ATOM     13  C   UNL     1      59.846  63.457  68.657  0.00  0.00    +0.000 C 
ATOM     14  C   UNL     1      59.660  63.018  67.984  0.00  0.00    +0.000 C 
ATOM     15  C   UNL     1      60.241  62.863  67.419  0.00  0.00    +0.000 C 
ATOM     16  N   UNL     1      61.027  63.111  67.451  0.00  0.00    +0.000 NA
ATOM     17  C   UNL     1      61.409  62.834  66.775  0.00  0.00    +0.000 C 
ATOM     18  C   UNL     1      60.860  62.415  66.324  0.00  0.00    +0.000 C 
ATOM     19  N   UNL     1      60.138  62.434  66.723  0.00  0.00    +0.000 NA
ATOM     20  C   UNL     1      61.088  62.073  65.610  0.00  0.00    +0.000 C 
ATOM     21  C   UNL     1      61.866  62.147  65.345  0.00  0.00    +0.000 C 
ATOM     22  C   UNL     1      62.416  62.566  65.796  0.00  0.00    +0.000 C 
ATOM     23  C   UNL     1      62.187  62.909  66.511  0.00  0.00    +0.000 C 
ATOM     24  C   UNL     1      63.316  65.343  70.183  0.00  0.00    +0.000 C 
ATOM     25  C   UNL     1      63.756  65.781  70.724  0.00  0.00    +0.000 C 
ATOM     26  C   UNL     1      63.400  66.070  71.410  0.00  0.00    +0.000 A 
ATOM     27  C   UNL     1      63.839  66.509  71.952  0.00  0.00    +0.000 A 
ATOM     28  C   UNL     1      63.482  66.798  72.637  0.00  0.00    +0.000 A 
ATOM     29  F   UNL     1      63.923  67.237  73.179  0.00  0.00    +0.000 F 
ATOM     30  C   UNL     1      62.684  66.647  72.780  0.00  0.00    +0.000 A 
ATOM     31  C   UNL     1      62.244  66.208  72.238  0.00  0.00    +0.000 A 
ATOM     32  C   UNL     1      62.601  65.919  71.553  0.00  0.00    +0.000 A 
ATOM     33  C   UNL     1      62.160  65.481  71.011  0.00  0.00    +0.000 C 
ATOM     34  C   UNL     1      61.362  65.331  71.154  0.00  0.00    +0.000 C 
ATOM     35  C   UNL     1      60.920  64.891  70.612  0.00  0.00    +0.000 C 
ATOM     36  C   UNL     1      61.004  65.619  71.839  0.00  0.00    +0.000 C 
ENDROOT
TORSDOF 0
ENDMDL
MODEL 5
REMARK VINA RESULT:   -12.391     14.165     15.976
REMARK INTER + INTRA:         -12.391
REMARK INTER:                 -12.391
REMARK INTRA:                   0.000
REMARK UNBOUND:                 0.000
ROOT
REMARK  Name = mibefradil
REMARK                            x       y       z     vdW  Elec       q    Type
REMARK                         _______ _______ _______ _____ _____    ______ ____
ATOM      1  C   UNL     1      61.807  69.217  51.397  0.00  0.00    +0.000 C 
ATOM      2  O   UNL     1      61.802  68.402  51.526  0.00  0.00    +0.000 OA
ATOM      3  C   UNL     1      61.891  68.105  52.290  0.00  0.00    +0.000 C 
ATOM      4  C   UNL     1      61.886  67.291  52.419  0.00  0.00    +0.000 C 
ATOM      5  O   UNL     1      61.792  66.772  51.784  0.00  0.00    +0.000 OA
ATOM      6  O   UNL     1      61.975  66.994  53.184  0.00  0.00    +0.000 OA
ATOM      7  C   UNL     1      62.069  67.511  53.820  0.00  0.00    +0.000 C 
ATOM      8  C   UNL     1      62.101  66.788  54.217  0.00  0.00    +0.000 C 
ATOM      9  C   UNL     1      62.029  66.083  53.796  0.00  0.00    +0.000 C 
ATOM     10  N   UNL     1      62.061  65.360  54.193  0.00  0.00    +0.000 NA
ATOM     11  C   UNL     1      62.164  65.344  55.012  0.00  0.00    +0.000 C 
ATOM     12  C   UNL     1      61.989  64.654  53.773  0.00  0.00    +0.000 C 
ATOM     13  C   UNL     1      62.021  63.932  54.170  0.00  0.00    +0.000 C 
ATOM     14  C   UNL     1      61.949  63.226  53.750  0.00  0.00    +0.000 C 
ATOM     15  C   UNL     1      61.846  63.242  52.932  0.00  0.00    +0.000 C 
ATOM     16  N   UNL     1      61.804  63.918  52.461  0.00  0.00    +0.000 NA
ATOM     17  C   UNL     1      61.698  63.679  51.678  0.00  0.00    +0.000 C 
ATOM     18  C   UNL     1      61.675  62.854  51.665  0.00  0.00    +0.000 C 
ATOM     19  N   UNL     1      61.766  62.585  52.440  0.00  0.00    +0.000 NA
ATOM     20  C   UNL     1      61.574  62.457  50.950  0.00  0.00    +0.000 C 
ATOM     21  C   UNL     1      61.496  62.882  50.248  0.00  0.00    +0.000 C 
ATOM     22  C   UNL     1      61.519  63.707  50.261  0.00  0.00    +0.000 C 
ATOM     23  C   UNL     1      61.620  64.106  50.977  0.00  0.00    +0.000 C 
ATOM     24  C   UNL     1      62.005  68.053  53.201  0.00  0.00    +0.000 C 
ATOM     25  C   UNL     1      62.046  68.862  53.356  0.00  0.00    +0.000 C 
ATOM     26  C   UNL     1      62.151  69.129  54.130  0.00  0.00    +0.000 A 
ATOM     27  C   UNL     1      62.192  69.938  54.286  0.00  0.00    +0.000 A 
ATOM     28  C   UNL     1      62.297  70.205  55.059  0.00  0.00    +0.000 A 
ATOM     29  F   UNL     1      62.337  71.015  55.214  0.00  0.00    +0.000 F 
ATOM     30  C   UNL     1      62.361  69.663  55.677  0.00  0.00    +0.000 A 
ATOM     31  C   UNL     1      62.320  68.854  55.521  0.00  0.00    +0.000 A 
ATOM     32  C   UNL     1      62.215  68.586  54.748  0.00  0.00    +0.000 A 
ATOM     33  C   UNL     1      62.174  67.777  54.593  0.00  0.00    +0.000 C 
ATOM     34  C   UNL     1      62.239  67.235  55.211  0.00  0.00    +0.000 C 
ATOM     35  C   UNL     1      62.198  66.426  55.056  0.00  0.00    +0.000 C 
ATOM     36  C   UNL     1      62.344  67.502  55.984  0.00  0.00    +0.000 C 
ENDROOT
TORSDOF 0
ENDMDL
MODEL 6
REMARK VINA RESULT:   -12.372     14.136     16.897
REMARK INTER + INTRA:         -12.372
REMARK INTER:                 -12.372
REMARK INTRA:                   0.000
REMARK UNBOUND:                 0.000
ROOT
REMARK  Name = mibefradil
REMARK                            x       y       z     vdW  Elec       q    Type
REMARK                         _______ _______ _______ _____ _____    ______ ____
ATOM      1  C   UNL     1      62.388  65.285  54.467  0.00  0.00    +0.000 C 
ATOM      2  O   UNL     1      62.282  65.742  53.788  0.00  0.00    +0.000 OA
ATOM      3  C   UNL     1      62.280  66.565  53.841  0.00  0.00    +0.000 C 
ATOM      4  C   UNL     1      62.174  67.022  53.163  0.00  0.00    +0.000 C 
ATOM      5  O   UNL     1      62.070  66.657  52.431  0.00  0.00    +0.000 OA
ATOM      6  O   UNL     1      62.172  67.846  53.218  0.00  0.00    +0.000 OA
ATOM      7  C   UNL     1      62.275  68.212  53.949  0.00  0.00    +0.000 C 
ATOM      8  C   UNL     1      62.196  68.876  53.466  0.00  0.00    +0.000 C 
ATOM      9  C   UNL     1      62.077  68.785  52.656  0.00  0.00    +0.000 C 
ATOM     10  N   UNL     1      61.998  69.450  52.173  0.00  0.00    +0.000 NA
ATOM     11  C   UNL     1      62.037  70.205  52.502  0.00  0.00    +0.000 C 
ATOM     12  C   UNL     1      61.879  69.359  51.362  0.00  0.00    +0.000 C 
ATOM     13  C   UNL     1      61.799  70.024  50.879  0.00  0.00    +0.000 C 
ATOM     14  C   UNL     1      61.681  69.933  50.068  0.00  0.00    +0.000 C 
ATOM     15  C   UNL     1      61.641  69.177  49.739  0.00  0.00    +0.000 C 
ATOM     16  N   UNL     1      61.711  68.465  50.150  0.00  0.00    +0.000 NA
ATOM     17  C   UNL     1      61.638  67.849  49.606  0.00  0.00    +0.000 C 
ATOM     18  C   UNL     1      61.523  68.180  48.859  0.00  0.00    +0.000 C 
ATOM     19  N   UNL     1      61.526  69.001  48.942  0.00  0.00    +0.000 NA
ATOM     20  C   UNL     1      61.432  67.692  48.201  0.00  0.00    +0.000 C 
ATOM     21  C   UNL     1      61.455  66.871  48.289  0.00  0.00    +0.000 C 
ATOM     22  C   UNL     1      61.569  66.540  49.036  0.00  0.00    +0.000 C 
ATOM     23  C   UNL     1      61.661  67.029  49.695  0.00  0.00    +0.000 C 
ATOM     24  C   UNL     1      62.319  67.420  54.177  0.00  0.00    +0.000 C 
ATOM     25  C   UNL     1      62.438  67.225  54.969  0.00  0.00    +0.000 C 
ATOM     26  C   UNL     1      62.514  67.821  55.535  0.00  0.00    +0.000 A 
ATOM     27  C   UNL     1      62.634  67.627  56.327  0.00  0.00    +0.000 A 
ATOM     28  C   UNL     1      62.710  68.224  56.892  0.00  0.00    +0.000 A 
ATOM     29  F   UNL     1      62.830  68.028  57.685  0.00  0.00    +0.000 F 
ATOM     30  C   UNL     1      62.667  69.015  56.664  0.00  0.00    +0.000 A 
ATOM     31  C   UNL     1      62.547  69.209  55.871  0.00  0.00    +0.000 A 
ATOM     32  C   UNL     1      62.471  68.613  55.306  0.00  0.00    +0.000 A 
ATOM     33  C   UNL     1      62.352  68.808  54.514  0.00  0.00    +0.000 C 
ATOM     34  C   UNL     1      62.308  69.600  54.286  0.00  0.00    +0.000 C 
ATOM     35  C   UNL     1      62.189  69.795  53.493  0.00  0.00    +0.000 C 
ATOM     36  C   UNL     1      62.384  70.196  54.850  0.00  0.00    +0.000 C 
ENDROOT
TORSDOF 0
ENDMDL
