MODEL 1
REMARK VINA RESULT:   -18.539      0.000      0.000
REMARK INTER + INTRA:         -18.539
REMARK INTER:                 -18.539
REMARK INTRA:                   0.000
REMARK UNBOUND:                 0.000
ROOT
REMARK  Name = midostaurin
REMARK                            x       y       z     vdW  Elec       q    Type
REMARK                         _______ _______ _______ _____ _____    ______ ____
ATOM      1  C   UNL     1      59.751  63.234  70.006  0.00  0.00    +0.000 C 
ATOM      2  O   UNL     1      60.221  63.180  69.331  0.00  0.00    +0.000 OA
ATOM      3  C   UNL     1      60.940  63.584  69.295  0.00  0.00    +0.000 C 
ATOM      4  C   UNL     1      61.403  63.508  68.584  0.00  0.00    +0.000 C 
ATOM      5  C   UNL     1      62.144  63.948  68.593  0.00  0.00    +0.000 C 
ATOM      6  C   UNL     1      62.441  64.468  69.301  0.00  0.00    +0.000 C 
ATOM      7  O   UNL     1      61.819  64.296  69.697  0.00  0.00    +0.000 OA
ATOM      8  C   UNL     1      61.180  64.073  70.006  0.00  0.00    +0.000 C 
ATOM      9  C   UNL     1      60.466  63.807  70.319  0.00  0.00    +0.000 C 
ATOM     10  N   UNL     1      61.255  64.506  70.803  0.00  0.00    +0.000 N 
ATOM     11  C   UNL     1      60.642  64.440  71.402  0.00  0.00    +0.000 A 
ATOM     12  C   UNL     1      59.926  64.031  71.427  0.00  0.00    +0.000 A 
ATOM     13  C   UNL     1      59.446  64.078  72.097  0.00  0.00    +0.000 A 
ATOM     14  C   UNL     1      59.684  64.533  72.742  0.00  0.00    +0.000 A 
ATOM     15  C   UNL     1      60.401  64.941  72.718  0.00  0.00    +0.000 A 
ATOM     16  C   UNL     1      60.880  64.895  72.048  0.00  0.00    +0.000 A 
ATOM     17  C   UNL     1      61.641  65.262  71.886  0.00  0.00    +0.000 A 
ATOM     18  C   UNL     1      62.188  65.770  72.269  0.00  0.00    +0.000 A 
ATOM     19  C   UNL     1      62.149  66.114  73.018  0.00  0.00    +0.000 C 
ATOM     20  N   UNL     1      62.829  66.566  73.127  0.00  0.00    +0.000 NA
ATOM     21  C   UNL     1      63.290  66.503  72.446  0.00  0.00    +0.000 C 
ATOM     22  O   UNL     1      64.019  66.868  72.317  0.00  0.00    +0.000 OA
ATOM     23  C   UNL     1      62.894  66.011  71.915  0.00  0.00    +0.000 A 
ATOM     24  C   UNL     1      63.120  65.753  71.115  0.00  0.00    +0.000 A 
ATOM     25  C   UNL     1      63.775  65.873  70.574  0.00  0.00    +0.000 A 
ATOM     26  C   UNL     1      64.460  66.321  70.670  0.00  0.00    +0.000 A 
ATOM     27  C   UNL     1      65.019  66.353  70.063  0.00  0.00    +0.000 A 
ATOM     28  C   UNL     1      64.892  65.936  69.363  0.00  0.00    +0.000 A 
ATOM     29  C   UNL     1      64.206  65.487  69.268  0.00  0.00    +0.000 A 
ATOM     30  C   UNL     1      63.647  65.456  69.874  0.00  0.00    +0.000 A 
ATOM     31  N   UNL     1      62.863  65.022  69.928  0.00  0.00    +0.000 N 
ATOM     32  C   UNL     1      62.579  65.245  70.726  0.00  0.00    +0.000 A 
ATOM     33  C   UNL     1      61.866  65.021  71.122  0.00  0.00    +0.000 A 
ATOM     34  N   UNL     1      61.163  63.052  67.939  0.00  0.00    +0.000 N 
ATOM     35  C   UNL     1      60.446  62.645  67.967  0.00  0.00    +0.000 C 
ATOM     36  C   UNL     1      61.639  63.003  67.268  0.00  0.00    +0.000 C 
ATOM     37  O   UNL     1      62.356  63.410  67.240  0.00  0.00    +0.000 OA
ATOM     38  C   UNL     1      61.398  62.547  66.624  0.00  0.00    +0.000 A 
ATOM     39  C   UNL     1      61.875  62.498  65.952  0.00  0.00    +0.000 A 
ATOM     40  C   UNL     1      61.634  62.042  65.308  0.00  0.00    +0.000 A 
ATOM     41  C   UNL     1      60.917  61.635  65.336  0.00  0.00    +0.000 A 
ATOM     42  C   UNL     1      60.440  61.684  66.008  0.00  0.00    +0.000 A 
ATOM     43  C   UNL     1      60.682  62.140  66.652  0.00  0.00    +0.000 A 
ENDROOT
TORSDOF 0
ENDMDL
MODEL 2
REMARK VINA RESULT:   -17.608      1.330      3.113
REMARK INTER + INTRA:         -17.608
REMARK INTER:                 -17.608
REMARK INTRA:                   0.000
REMARK UNBOUND:                 0.000
ROOT
REMARK  Name = midostaurin
REMARK                            x       y       z     vdW  Elec       q    Type
REMARK                         _______ _______ _______ _____ _____    ______ ____
ATOM      1  C   UNL     1      63.572  64.275  69.085  0.00  0.00    +0.000 C 
ATOM      2  O   UNL     1      62.799  64.105  68.853  0.00  0.00    +0.000 OA
ATOM      3  C   UNL     1      62.164  64.469  69.235  0.00  0.00    +0.000 C 
ATOM      4  C   UNL     1      61.378  64.273  68.973  0.00  0.00    +0.000 C 
ATOM      5  C   UNL     1      60.749  64.677  69.401  0.00  0.00    +0.000 C 
ATOM      6  C   UNL     1      60.884  65.279  70.094  0.00  0.00    +0.000 C 
ATOM      7  O   UNL     1      61.633  65.192  70.033  0.00  0.00    +0.000 OA
ATOM      8  C   UNL     1      62.349  65.043  69.898  0.00  0.00    +0.000 C 
ATOM      9  C   UNL     1      63.132  64.855  69.723  0.00  0.00    +0.000 C 
ATOM     10  N   UNL     1      62.723  65.581  70.530  0.00  0.00    +0.000 N 
ATOM     11  C   UNL     1      63.576  65.626  70.624  0.00  0.00    +0.000 A 
ATOM     12  C   UNL     1      64.202  65.257  70.235  0.00  0.00    +0.000 A 
ATOM     13  C   UNL     1      64.980  65.418  70.458  0.00  0.00    +0.000 A 
ATOM     14  C   UNL     1      65.131  65.950  71.071  0.00  0.00    +0.000 A 
ATOM     15  C   UNL     1      64.505  66.320  71.461  0.00  0.00    +0.000 A 
ATOM     16  C   UNL     1      63.727  66.158  71.237  0.00  0.00    +0.000 A 
ATOM     17  C   UNL     1      62.986  66.466  71.551  0.00  0.00    +0.000 A 
ATOM     18  C   UNL     1      62.728  66.999  72.145  0.00  0.00    +0.000 A 
ATOM     19  C   UNL     1      63.173  67.446  72.676  0.00  0.00    +0.000 C 
ATOM     20  N   UNL     1      62.651  67.879  73.144  0.00  0.00    +0.000 NA
ATOM     21  C   UNL     1      61.883  67.701  72.903  0.00  0.00    +0.000 C 
ATOM     22  O   UNL     1      61.188  68.012  73.222  0.00  0.00    +0.000 OA
ATOM     23  C   UNL     1      61.931  67.156  72.284  0.00  0.00    +0.000 A 
ATOM     24  C   UNL     1      61.298  66.778  71.821  0.00  0.00    +0.000 A 
ATOM     25  C   UNL     1      60.441  66.791  71.794  0.00  0.00    +0.000 A 
ATOM     26  C   UNL     1      59.907  67.219  72.254  0.00  0.00    +0.000 A 
ATOM     27  C   UNL     1      59.096  67.140  72.124  0.00  0.00    +0.000 A 
ATOM     28  C   UNL     1      58.820  66.634  71.533  0.00  0.00    +0.000 A 
ATOM     29  C   UNL     1      59.355  66.207  71.074  0.00  0.00    +0.000 A 
ATOM     30  C   UNL     1      60.166  66.285  71.204  0.00  0.00    +0.000 A 
ATOM     31  N   UNL     1      60.866  65.898  70.798  0.00  0.00    +0.000 N 
ATOM     32  C   UNL     1      61.547  66.244  71.226  0.00  0.00    +0.000 A 
ATOM     33  C   UNL     1      62.375  66.109  71.114  0.00  0.00    +0.000 A 
ATOM     34  N   UNL     1      61.230  63.741  68.359  0.00  0.00    +0.000 N 
ATOM     35  C   UNL     1      61.859  63.373  67.972  0.00  0.00    +0.000 C 
ATOM     36  C   UNL     1      60.454  63.577  68.133  0.00  0.00    +0.000 C 
ATOM     37  O   UNL     1      59.825  63.945  68.521  0.00  0.00    +0.000 OA
ATOM     38  C   UNL     1      60.307  63.045  67.520  0.00  0.00    +0.000 A 
ATOM     39  C   UNL     1      59.530  62.881  67.295  0.00  0.00    +0.000 A 
ATOM     40  C   UNL     1      59.383  62.349  66.681  0.00  0.00    +0.000 A 
ATOM     41  C   UNL     1      60.012  61.982  66.294  0.00  0.00    +0.000 A 
ATOM     42  C   UNL     1      60.788  62.146  66.520  0.00  0.00    +0.000 A 
ATOM     43  C   UNL     1      60.935  62.678  67.134  0.00  0.00    +0.000 A 
ENDROOT
TORSDOF 0
ENDMDL
MODEL 3
REMARK VINA RESULT:   -17.545      1.896      2.135
REMARK INTER + INTRA:         -17.545
REMARK INTER:                 -17.545
REMARK INTRA:                   0.000
REMARK UNBOUND:                 0.000
ROOT
REMARK  Name = midostaurin
REMARK                            x       y       z     vdW  Elec       q    Type
REMARK                         _______ _______ _______ _____ _____    ______ ____
ATOM      1  C   UNL     1      61.438  61.874  70.160  0.00  0.00    +0.000 C 
ATOM      2  O   UNL     1      61.375  62.162  69.390  0.00  0.00    +0.000 OA
ATOM      3  C   UNL     1      61.225  62.963  69.259  0.00  0.00    +0.000 C 
ATOM      4  C   UNL     1      61.165  63.229  68.452  0.00  0.00    +0.000 C 
ATOM      5  C   UNL     1      61.007  64.072  68.366  0.00  0.00    +0.000 C 
ATOM      6  C   UNL     1      60.907  64.665  69.073  0.00  0.00    +0.000 C 
ATOM      7  O   UNL     1      61.017  64.105  69.568  0.00  0.00    +0.000 OA
ATOM      8  C   UNL     1      61.135  63.493  69.976  0.00  0.00    +0.000 C 
ATOM      9  C   UNL     1      61.270  62.797  70.397  0.00  0.00    +0.000 C 
ATOM     10  N   UNL     1      61.077  63.867  70.803  0.00  0.00    +0.000 N 
ATOM     11  C   UNL     1      61.174  63.390  71.512  0.00  0.00    +0.000 A 
ATOM     12  C   UNL     1      61.325  62.588  71.630  0.00  0.00    +0.000 A 
ATOM     13  C   UNL     1      61.390  62.288  72.396  0.00  0.00    +0.000 A 
ATOM     14  C   UNL     1      61.305  62.792  73.044  0.00  0.00    +0.000 A 
ATOM     15  C   UNL     1      61.155  63.594  72.927  0.00  0.00    +0.000 A 
ATOM     16  C   UNL     1      61.089  63.894  72.160  0.00  0.00    +0.000 A 
ATOM     17  C   UNL     1      60.937  64.698  71.892  0.00  0.00    +0.000 A 
ATOM     18  C   UNL     1      60.801  65.456  72.224  0.00  0.00    +0.000 A 
ATOM     19  C   UNL     1      60.769  65.683  73.016  0.00  0.00    +0.000 C 
ATOM     20  N   UNL     1      60.619  66.494  73.043  0.00  0.00    +0.000 NA
ATOM     21  C   UNL     1      60.558  66.768  72.268  0.00  0.00    +0.000 C 
ATOM     22  O   UNL     1      60.411  67.547  72.039  0.00  0.00    +0.000 OA
ATOM     23  C   UNL     1      60.670  66.126  71.761  0.00  0.00    +0.000 A 
ATOM     24  C   UNL     1      60.666  66.093  70.891  0.00  0.00    +0.000 A 
ATOM     25  C   UNL     1      60.556  66.638  70.239  0.00  0.00    +0.000 A 
ATOM     26  C   UNL     1      60.406  67.449  70.250  0.00  0.00    +0.000 A 
ATOM     27  C   UNL     1      60.320  67.862  69.541  0.00  0.00    +0.000 A 
ATOM     28  C   UNL     1      60.385  67.463  68.821  0.00  0.00    +0.000 A 
ATOM     29  C   UNL     1      60.535  66.653  68.810  0.00  0.00    +0.000 A 
ATOM     30  C   UNL     1      60.621  66.240  69.519  0.00  0.00    +0.000 A 
ATOM     31  N   UNL     1      60.784  65.371  69.677  0.00  0.00    +0.000 N 
ATOM     32  C   UNL     1      60.801  65.338  70.552  0.00  0.00    +0.000 A 
ATOM     33  C   UNL     1      60.930  64.675  71.060  0.00  0.00    +0.000 A 
ATOM     34  N   UNL     1      61.250  62.724  67.806  0.00  0.00    +0.000 N 
ATOM     35  C   UNL     1      61.400  61.921  67.928  0.00  0.00    +0.000 C 
ATOM     36  C   UNL     1      61.186  63.019  67.039  0.00  0.00    +0.000 C 
ATOM     37  O   UNL     1      61.035  63.821  66.917  0.00  0.00    +0.000 OA
ATOM     38  C   UNL     1      61.271  62.512  66.393  0.00  0.00    +0.000 A 
ATOM     39  C   UNL     1      61.206  62.809  65.626  0.00  0.00    +0.000 A 
ATOM     40  C   UNL     1      61.292  62.302  64.980  0.00  0.00    +0.000 A 
ATOM     41  C   UNL     1      61.442  61.500  65.102  0.00  0.00    +0.000 A 
ATOM     42  C   UNL     1      61.507  61.205  65.869  0.00  0.00    +0.000 A 
ATOM     43  C   UNL     1      61.421  61.711  66.515  0.00  0.00    +0.000 A 
ENDROOT
TORSDOF 0
ENDMDL
