MODEL 1
REMARK VINA RESULT:   -13.812      0.000      0.000
REMARK INTER + INTRA:         -13.812
REMARK INTER:                 -13.812
REMARK INTRA:                   0.000
REMARK UNBOUND:                 0.000
ROOT
REMARK  Name = minocycline
REMARK                            x       y       z     vdW  Elec       q    Type
REMARK                         _______ _______ _______ _____ _____    ______ ____
ATOM      1  C   UNL     1      59.747  67.583  69.744  0.00  0.00    +0.000 C 
ATOM      2  N   UNL     1      59.849  66.767  69.795  0.00  0.00    +0.000 NA
ATOM      3  C   UNL     1      60.117  66.342  69.141  0.00  0.00    +0.000 C 
ATOM      4  C   UNL     1      59.682  66.374  70.501  0.00  0.00    +0.000 C 
ATOM      5  C   UNL     1      59.783  65.557  70.553  0.00  0.00    +0.000 C 
ATOM      6  C   UNL     1      60.051  65.132  69.898  0.00  0.00    +0.000 C 
ATOM      7  C   UNL     1      60.153  64.315  69.950  0.00  0.00    +0.000 C 
ATOM      8  C   UNL     1      60.421  63.891  69.295  0.00  0.00    +0.000 C 
ATOM      9  C   UNL     1      60.522  63.074  69.347  0.00  0.00    +0.000 A 
ATOM     10  C   UNL     1      60.355  62.682  70.052  0.00  0.00    +0.000 A 
ATOM     11  C   UNL     1      60.457  61.864  70.104  0.00  0.00    +0.000 A 
ATOM     12  O   UNL     1      60.290  61.471  70.810  0.00  0.00    +0.000 OA
ATOM     13  C   UNL     1      60.725  61.440  69.449  0.00  0.00    +0.000 A 
ATOM     14  C   UNL     1      60.892  61.832  68.744  0.00  0.00    +0.000 A 
ATOM     15  C   UNL     1      60.791  62.649  68.692  0.00  0.00    +0.000 A 
ATOM     16  N   UNL     1      60.958  63.042  67.986  0.00  0.00    +0.000 N 
ATOM     17  C   UNL     1      61.227  62.618  67.332  0.00  0.00    +0.000 C 
ATOM     18  C   UNL     1      60.857  63.859  67.935  0.00  0.00    +0.000 C 
ATOM     19  C   UNL     1      60.087  63.105  70.707  0.00  0.00    +0.000 C 
ATOM     20  O   UNL     1      59.920  62.712  71.413  0.00  0.00    +0.000 OA
ATOM     21  C   UNL     1      59.986  63.922  70.655  0.00  0.00    +0.000 C 
ATOM     22  C   UNL     1      59.717  64.347  71.310  0.00  0.00    +0.000 C 
ATOM     23  O   UNL     1      59.550  63.954  72.016  0.00  0.00    +0.000 OA
ATOM     24  C   UNL     1      59.616  65.165  71.258  0.00  0.00    +0.000 C 
ATOM     25  O   UNL     1      59.448  64.771  71.965  0.00  0.00    +0.000 OA
ATOM     26  C   UNL     1      59.347  65.588  71.913  0.00  0.00    +0.000 C 
ATOM     27  O   UNL     1      59.180  65.196  72.619  0.00  0.00    +0.000 OA
ATOM     28  C   UNL     1      59.246  66.405  71.861  0.00  0.00    +0.000 C 
ATOM     29  C   UNL     1      58.977  66.830  72.516  0.00  0.00    +0.000 C 
ATOM     30  N   UNL     1      58.876  67.647  72.464  0.00  0.00    +0.000 NA
ATOM     31  O   UNL     1      58.810  66.437  73.222  0.00  0.00    +0.000 OA
ATOM     32  C   UNL     1      59.413  66.798  71.156  0.00  0.00    +0.000 C 
ATOM     33  O   UNL     1      59.312  67.615  71.104  0.00  0.00    +0.000 OA
ENDROOT
TORSDOF 0
ENDMDL
MODEL 2
REMARK VINA RESULT:   -13.768      3.360      5.023
REMARK INTER + INTRA:         -13.768
REMARK INTER:                 -13.768
REMARK INTRA:                   0.000
REMARK UNBOUND:                 0.000
ROOT
REMARK  Name = minocycline
REMARK                            x       y       z     vdW  Elec       q    Type
REMARK                         _______ _______ _______ _____ _____    ______ ____
ATOM      1  C   UNL     1      59.371  64.471  72.438  0.00  0.00    +0.000 C 
ATOM      2  N   UNL     1      60.122  64.783  72.307  0.00  0.00    +0.000 NA
ATOM      3  C   UNL     1      60.309  65.537  72.582  0.00  0.00    +0.000 C 
ATOM      4  C   UNL     1      60.687  64.341  71.899  0.00  0.00    +0.000 C 
ATOM      5  C   UNL     1      61.439  64.653  71.767  0.00  0.00    +0.000 C 
ATOM      6  C   UNL     1      61.626  65.408  72.043  0.00  0.00    +0.000 C 
ATOM      7  C   UNL     1      62.379  65.720  71.911  0.00  0.00    +0.000 C 
ATOM      8  C   UNL     1      62.566  66.475  72.187  0.00  0.00    +0.000 C 
ATOM      9  C   UNL     1      63.318  66.787  72.055  0.00  0.00    +0.000 A 
ATOM     10  C   UNL     1      63.882  66.345  71.648  0.00  0.00    +0.000 A 
ATOM     11  C   UNL     1      64.635  66.657  71.516  0.00  0.00    +0.000 A 
ATOM     12  O   UNL     1      65.199  66.215  71.108  0.00  0.00    +0.000 OA
ATOM     13  C   UNL     1      64.821  67.412  71.792  0.00  0.00    +0.000 A 
ATOM     14  C   UNL     1      64.257  67.854  72.199  0.00  0.00    +0.000 A 
ATOM     15  C   UNL     1      63.505  67.542  72.331  0.00  0.00    +0.000 A 
ATOM     16  N   UNL     1      62.941  67.984  72.739  0.00  0.00    +0.000 N 
ATOM     17  C   UNL     1      63.128  68.738  73.015  0.00  0.00    +0.000 C 
ATOM     18  C   UNL     1      62.189  67.671  72.870  0.00  0.00    +0.000 C 
ATOM     19  C   UNL     1      63.695  65.590  71.372  0.00  0.00    +0.000 C 
ATOM     20  O   UNL     1      64.260  65.148  70.964  0.00  0.00    +0.000 OA
ATOM     21  C   UNL     1      62.943  65.279  71.504  0.00  0.00    +0.000 C 
ATOM     22  C   UNL     1      62.756  64.523  71.227  0.00  0.00    +0.000 C 
ATOM     23  O   UNL     1      63.320  64.081  70.820  0.00  0.00    +0.000 OA
ATOM     24  C   UNL     1      62.003  64.211  71.359  0.00  0.00    +0.000 C 
ATOM     25  O   UNL     1      62.568  63.768  70.951  0.00  0.00    +0.000 OA
ATOM     26  C   UNL     1      61.816  63.456  71.083  0.00  0.00    +0.000 C 
ATOM     27  O   UNL     1      62.381  63.014  70.676  0.00  0.00    +0.000 OA
ATOM     28  C   UNL     1      61.064  63.145  71.215  0.00  0.00    +0.000 C 
ATOM     29  C   UNL     1      60.877  62.389  70.939  0.00  0.00    +0.000 C 
ATOM     30  N   UNL     1      60.124  62.078  71.071  0.00  0.00    +0.000 NA
ATOM     31  O   UNL     1      61.441  61.947  70.531  0.00  0.00    +0.000 OA
ATOM     32  C   UNL     1      60.500  63.586  71.623  0.00  0.00    +0.000 C 
ATOM     33  O   UNL     1      59.747  63.274  71.755  0.00  0.00    +0.000 OA
ENDROOT
TORSDOF 0
ENDMDL
MODEL 3
REMARK VINA RESULT:   -13.665      3.565      4.275
REMARK INTER + INTRA:         -13.665
REMARK INTER:                 -13.665
REMARK INTRA:                   0.000
REMARK UNBOUND:                 0.000
ROOT
REMARK  Name = minocycline
REMARK                            x       y       z     vdW  Elec       q    Type
REMARK                         _______ _______ _______ _____ _____    ______ ____
ATOM      1  C   UNL     1      63.015  68.340  72.704  0.00  0.00    +0.000 C 
ATOM      2  N   UNL     1      62.719  67.599  72.493  0.00  0.00    +0.000 NA
ATOM      3  C   UNL     1      61.934  67.407  72.656  0.00  0.00    +0.000 C 
ATOM      4  C   UNL     1      63.210  67.050  72.120  0.00  0.00    +0.000 C 
ATOM      5  C   UNL     1      62.915  66.309  71.910  0.00  0.00    +0.000 C 
ATOM      6  C   UNL     1      62.128  66.117  72.073  0.00  0.00    +0.000 C 
ATOM      7  C   UNL     1      61.833  65.375  71.862  0.00  0.00    +0.000 C 
ATOM      8  C   UNL     1      61.047  65.184  72.025  0.00  0.00    +0.000 C 
ATOM      9  C   UNL     1      60.753  64.443  71.815  0.00  0.00    +0.000 A 
ATOM     10  C   UNL     1      61.242  63.895  71.442  0.00  0.00    +0.000 A 
ATOM     11  C   UNL     1      60.947  63.153  71.232  0.00  0.00    +0.000 A 
ATOM     12  O   UNL     1      61.437  62.604  70.859  0.00  0.00    +0.000 OA
ATOM     13  C   UNL     1      60.161  62.961  71.395  0.00  0.00    +0.000 A 
ATOM     14  C   UNL     1      59.671  63.510  71.767  0.00  0.00    +0.000 A 
ATOM     15  C   UNL     1      59.966  64.251  71.978  0.00  0.00    +0.000 A 
ATOM     16  N   UNL     1      59.476  64.799  72.351  0.00  0.00    +0.000 N 
ATOM     17  C   UNL     1      58.691  64.607  72.513  0.00  0.00    +0.000 C 
ATOM     18  C   UNL     1      59.772  65.540  72.561  0.00  0.00    +0.000 C 
ATOM     19  C   UNL     1      62.028  64.086  71.279  0.00  0.00    +0.000 C 
ATOM     20  O   UNL     1      62.518  63.537  70.906  0.00  0.00    +0.000 OA
ATOM     21  C   UNL     1      62.322  64.827  71.490  0.00  0.00    +0.000 C 
ATOM     22  C   UNL     1      63.109  65.020  71.327  0.00  0.00    +0.000 C 
ATOM     23  O   UNL     1      63.599  64.471  70.954  0.00  0.00    +0.000 OA
ATOM     24  C   UNL     1      63.404  65.761  71.537  0.00  0.00    +0.000 C 
ATOM     25  O   UNL     1      63.895  65.212  71.164  0.00  0.00    +0.000 OA
ATOM     26  C   UNL     1      64.190  65.953  71.374  0.00  0.00    +0.000 C 
ATOM     27  O   UNL     1      64.680  65.404  71.001  0.00  0.00    +0.000 OA
ATOM     28  C   UNL     1      64.485  66.694  71.585  0.00  0.00    +0.000 C 
ATOM     29  C   UNL     1      65.271  66.886  71.422  0.00  0.00    +0.000 C 
ATOM     30  N   UNL     1      65.566  67.627  71.632  0.00  0.00    +0.000 NA
ATOM     31  O   UNL     1      65.761  66.337  71.049  0.00  0.00    +0.000 OA
ATOM     32  C   UNL     1      63.995  67.242  71.957  0.00  0.00    +0.000 C 
ATOM     33  O   UNL     1      64.291  67.984  72.168  0.00  0.00    +0.000 OA
ENDROOT
TORSDOF 0
ENDMDL
MODEL 4
REMARK VINA RESULT:   -13.523      3.590      4.208
REMARK INTER + INTRA:         -13.523
REMARK INTER:                 -13.523
REMARK INTRA:                   0.000
REMARK UNBOUND:                 0.000
ROOT
REMARK  Name = minocycline
REMARK                            x       y       z     vdW  Elec       q    Type
REMARK                         _______ _______ _______ _____ _____    ______ ____
ATOM      1  C   UNL     1      65.030  65.371  69.228  0.00  0.00    +0.000 C 
ATOM      2  N   UNL     1      64.376  65.204  69.702  0.00  0.00    +0.000 NA
ATOM      3  C   UNL     1      63.873  64.581  69.507  0.00  0.00    +0.000 C 
ATOM      4  C   UNL     1      64.225  65.662  70.372  0.00  0.00    +0.000 C 
ATOM      5  C   UNL     1      63.571  65.496  70.846  0.00  0.00    +0.000 C 
ATOM      6  C   UNL     1      63.067  64.872  70.651  0.00  0.00    +0.000 C 
ATOM      7  C   UNL     1      62.413  64.706  71.126  0.00  0.00    +0.000 C 
ATOM      8  C   UNL     1      61.910  64.082  70.930  0.00  0.00    +0.000 C 
ATOM      9  C   UNL     1      61.256  63.916  71.404  0.00  0.00    +0.000 A 
ATOM     10  C   UNL     1      61.105  64.373  72.073  0.00  0.00    +0.000 A 
ATOM     11  C   UNL     1      60.451  64.207  72.548  0.00  0.00    +0.000 A 
ATOM     12  O   UNL     1      60.300  64.665  73.218  0.00  0.00    +0.000 OA
ATOM     13  C   UNL     1      59.948  63.583  72.352  0.00  0.00    +0.000 A 
ATOM     14  C   UNL     1      60.098  63.126  71.684  0.00  0.00    +0.000 A 
ATOM     15  C   UNL     1      60.752  63.292  71.209  0.00  0.00    +0.000 A 
ATOM     16  N   UNL     1      60.903  62.834  70.539  0.00  0.00    +0.000 N 
ATOM     17  C   UNL     1      60.400  62.211  70.344  0.00  0.00    +0.000 C 
ATOM     18  C   UNL     1      61.558  63.001  70.065  0.00  0.00    +0.000 C 
ATOM     19  C   UNL     1      61.608  64.997  72.269  0.00  0.00    +0.000 C 
ATOM     20  O   UNL     1      61.457  65.455  72.939  0.00  0.00    +0.000 OA
ATOM     21  C   UNL     1      62.262  65.163  71.794  0.00  0.00    +0.000 C 
ATOM     22  C   UNL     1      62.766  65.787  71.990  0.00  0.00    +0.000 C 
ATOM     23  O   UNL     1      62.615  66.245  72.660  0.00  0.00    +0.000 OA
ATOM     24  C   UNL     1      63.420  65.953  71.515  0.00  0.00    +0.000 C 
ATOM     25  O   UNL     1      63.269  66.412  72.186  0.00  0.00    +0.000 OA
ATOM     26  C   UNL     1      63.923  66.577  71.711  0.00  0.00    +0.000 C 
ATOM     27  O   UNL     1      63.772  67.035  72.381  0.00  0.00    +0.000 OA
ATOM     28  C   UNL     1      64.577  66.743  71.236  0.00  0.00    +0.000 C 
ATOM     29  C   UNL     1      65.081  67.367  71.432  0.00  0.00    +0.000 C 
ATOM     30  N   UNL     1      65.735  67.533  70.957  0.00  0.00    +0.000 NA
ATOM     31  O   UNL     1      64.930  67.825  72.101  0.00  0.00    +0.000 OA
ATOM     32  C   UNL     1      64.728  66.286  70.567  0.00  0.00    +0.000 C 
ATOM     33  O   UNL     1      65.383  66.452  70.093  0.00  0.00    +0.000 OA
ENDROOT
TORSDOF 0
ENDMDL
MODEL 5
REMARK VINA RESULT:   -13.485      1.667      4.929
REMARK INTER + INTRA:         -13.485
REMARK INTER:                 -13.485
REMARK INTRA:                   0.000
REMARK UNBOUND:                 0.000
ROOT
REMARK  Name = minocycline
REMARK                            x       y       z     vdW  Elec       q    Type
REMARK                         _______ _______ _______ _____ _____    ______ ____
ATOM      1  C   UNL     1      60.499  61.514  70.464  0.00  0.00    +0.000 C 
ATOM      2  N   UNL     1      60.370  62.328  70.464  0.00  0.00    +0.000 NA
ATOM      3  C   UNL     1      60.121  62.707  71.152  0.00  0.00    +0.000 C 
ATOM      4  C   UNL     1      60.490  62.765  69.774  0.00  0.00    +0.000 C 
ATOM      5  C   UNL     1      60.361  63.580  69.773  0.00  0.00    +0.000 C 
ATOM      6  C   UNL     1      60.111  63.958  70.463  0.00  0.00    +0.000 C 
ATOM      7  C   UNL     1      59.982  64.774  70.463  0.00  0.00    +0.000 C 
ATOM      8  C   UNL     1      59.733  65.151  71.153  0.00  0.00    +0.000 C 
ATOM      9  C   UNL     1      59.604  65.966  71.152  0.00  0.00    +0.000 A 
ATOM     10  C   UNL     1      59.723  66.402  70.463  0.00  0.00    +0.000 A 
ATOM     11  C   UNL     1      59.594  67.217  70.462  0.00  0.00    +0.000 A 
ATOM     12  O   UNL     1      59.714  67.654  69.773  0.00  0.00    +0.000 OA
ATOM     13  C   UNL     1      59.345  67.595  71.152  0.00  0.00    +0.000 A 
ATOM     14  C   UNL     1      59.225  67.159  71.841  0.00  0.00    +0.000 A 
ATOM     15  C   UNL     1      59.354  66.344  71.842  0.00  0.00    +0.000 A 
ATOM     16  N   UNL     1      59.235  65.908  72.532  0.00  0.00    +0.000 N 
ATOM     17  C   UNL     1      58.986  66.286  73.220  0.00  0.00    +0.000 C 
ATOM     18  C   UNL     1      59.364  65.093  72.531  0.00  0.00    +0.000 C 
ATOM     19  C   UNL     1      59.972  66.024  69.773  0.00  0.00    +0.000 C 
ATOM     20  O   UNL     1      60.092  66.461  69.083  0.00  0.00    +0.000 OA
ATOM     21  C   UNL     1      60.101  65.210  69.774  0.00  0.00    +0.000 C 
ATOM     22  C   UNL     1      60.351  64.831  69.084  0.00  0.00    +0.000 C 
ATOM     23  O   UNL     1      60.471  65.268  68.394  0.00  0.00    +0.000 OA
ATOM     24  C   UNL     1      60.480  64.016  69.084  0.00  0.00    +0.000 C 
ATOM     25  O   UNL     1      60.600  64.453  68.393  0.00  0.00    +0.000 OA
ATOM     26  C   UNL     1      60.729  63.638  68.394  0.00  0.00    +0.000 C 
ATOM     27  O   UNL     1      60.849  64.074  67.705  0.00  0.00    +0.000 OA
ATOM     28  C   UNL     1      60.859  62.823  68.395  0.00  0.00    +0.000 C 
ATOM     29  C   UNL     1      61.108  62.445  67.705  0.00  0.00    +0.000 C 
ATOM     30  N   UNL     1      61.237  61.630  67.706  0.00  0.00    +0.000 NA
ATOM     31  O   UNL     1      61.228  62.881  67.015  0.00  0.00    +0.000 OA
ATOM     32  C   UNL     1      60.739  62.387  69.084  0.00  0.00    +0.000 C 
ATOM     33  O   UNL     1      60.868  61.572  69.084  0.00  0.00    +0.000 OA
ENDROOT
TORSDOF 0
ENDMDL
MODEL 6
REMARK VINA RESULT:   -13.319      2.988      4.303
REMARK INTER + INTRA:         -13.319
REMARK INTER:                 -13.319
REMARK INTRA:                   0.000
REMARK UNBOUND:                 0.000
ROOT
REMARK  Name = minocycline
REMARK                            x       y       z     vdW  Elec       q    Type
REMARK                         _______ _______ _______ _____ _____    ______ ____
ATOM      1  C   UNL     1      59.765  63.544  71.478  0.00  0.00    +0.000 C 
ATOM      2  N   UNL     1      60.315  64.147  71.597  0.00  0.00    +0.000 NA
ATOM      3  C   UNL     1      61.095  64.047  71.351  0.00  0.00    +0.000 C 
ATOM      4  C   UNL     1      60.084  64.849  71.963  0.00  0.00    +0.000 C 
ATOM      5  C   UNL     1      60.634  65.453  72.082  0.00  0.00    +0.000 C 
ATOM      6  C   UNL     1      61.415  65.353  71.836  0.00  0.00    +0.000 C 
ATOM      7  C   UNL     1      61.966  65.956  71.955  0.00  0.00    +0.000 C 
ATOM      8  C   UNL     1      62.747  65.856  71.709  0.00  0.00    +0.000 C 
ATOM      9  C   UNL     1      63.296  66.460  71.829  0.00  0.00    +0.000 A 
ATOM     10  C   UNL     1      63.066  67.161  72.194  0.00  0.00    +0.000 A 
ATOM     11  C   UNL     1      63.616  67.765  72.313  0.00  0.00    +0.000 A 
ATOM     12  O   UNL     1      63.385  68.468  72.679  0.00  0.00    +0.000 OA
ATOM     13  C   UNL     1      64.397  67.665  72.067  0.00  0.00    +0.000 A 
ATOM     14  C   UNL     1      64.627  66.963  71.702  0.00  0.00    +0.000 A 
ATOM     15  C   UNL     1      64.078  66.360  71.582  0.00  0.00    +0.000 A 
ATOM     16  N   UNL     1      64.309  65.657  71.217  0.00  0.00    +0.000 N 
ATOM     17  C   UNL     1      65.089  65.558  70.971  0.00  0.00    +0.000 C 
ATOM     18  C   UNL     1      63.758  65.054  71.097  0.00  0.00    +0.000 C 
ATOM     19  C   UNL     1      62.285  67.262  72.440  0.00  0.00    +0.000 C 
ATOM     20  O   UNL     1      62.054  67.964  72.806  0.00  0.00    +0.000 OA
ATOM     21  C   UNL     1      61.735  66.658  72.321  0.00  0.00    +0.000 C 
ATOM     22  C   UNL     1      60.953  66.758  72.567  0.00  0.00    +0.000 C 
ATOM     23  O   UNL     1      60.723  67.461  72.933  0.00  0.00    +0.000 OA
ATOM     24  C   UNL     1      60.403  66.154  72.448  0.00  0.00    +0.000 C 
ATOM     25  O   UNL     1      60.172  66.858  72.814  0.00  0.00    +0.000 OA
ATOM     26  C   UNL     1      59.622  66.255  72.694  0.00  0.00    +0.000 C 
ATOM     27  O   UNL     1      59.391  66.957  73.060  0.00  0.00    +0.000 OA
ATOM     28  C   UNL     1      59.073  65.651  72.574  0.00  0.00    +0.000 C 
ATOM     29  C   UNL     1      58.291  65.751  72.821  0.00  0.00    +0.000 C 
ATOM     30  N   UNL     1      57.741  65.148  72.701  0.00  0.00    +0.000 NA
ATOM     31  O   UNL     1      58.060  66.454  73.186  0.00  0.00    +0.000 OA
ATOM     32  C   UNL     1      59.303  64.949  72.209  0.00  0.00    +0.000 C 
ATOM     33  O   UNL     1      58.753  64.346  72.090  0.00  0.00    +0.000 OA
ENDROOT
TORSDOF 0
ENDMDL
MODEL 7
REMARK VINA RESULT:   -13.017      3.476      4.646
REMARK INTER + INTRA:         -13.017
REMARK INTER:                 -13.017
REMARK INTRA:                   0.000
REMARK UNBOUND:                 0.000
ROOT
REMARK  Name = minocycline
REMARK                            x       y       z     vdW  Elec       q    Type
REMARK                         _______ _______ _______ _____ _____    ______ ____
ATOM      1  C   UNL     1      61.614  63.134  69.162  0.00  0.00    +0.000 C 
ATOM      2  N   UNL     1      61.997  63.726  69.589  0.00  0.00    +0.000 NA
ATOM      3  C   UNL     1      62.654  64.107  69.268  0.00  0.00    +0.000 C 
ATOM      4  C   UNL     1      61.723  63.938  70.338  0.00  0.00    +0.000 C 
ATOM      5  C   UNL     1      62.106  64.531  70.765  0.00  0.00    +0.000 C 
ATOM      6  C   UNL     1      62.764  64.912  70.443  0.00  0.00    +0.000 C 
ATOM      7  C   UNL     1      63.147  65.505  70.871  0.00  0.00    +0.000 C 
ATOM      8  C   UNL     1      63.804  65.886  70.549  0.00  0.00    +0.000 C 
ATOM      9  C   UNL     1      64.187  66.478  70.976  0.00  0.00    +0.000 A 
ATOM     10  C   UNL     1      63.913  66.690  71.724  0.00  0.00    +0.000 A 
ATOM     11  C   UNL     1      64.296  67.283  72.152  0.00  0.00    +0.000 A 
ATOM     12  O   UNL     1      64.022  67.495  72.900  0.00  0.00    +0.000 OA
ATOM     13  C   UNL     1      64.954  67.663  71.830  0.00  0.00    +0.000 A 
ATOM     14  C   UNL     1      65.228  67.452  71.082  0.00  0.00    +0.000 A 
ATOM     15  C   UNL     1      64.845  66.859  70.654  0.00  0.00    +0.000 A 
ATOM     16  N   UNL     1      65.119  66.647  69.906  0.00  0.00    +0.000 N 
ATOM     17  C   UNL     1      65.776  67.028  69.585  0.00  0.00    +0.000 C 
ATOM     18  C   UNL     1      64.735  66.054  69.479  0.00  0.00    +0.000 C 
ATOM     19  C   UNL     1      63.256  66.310  72.046  0.00  0.00    +0.000 C 
ATOM     20  O   UNL     1      62.982  66.521  72.795  0.00  0.00    +0.000 OA
ATOM     21  C   UNL     1      62.873  65.717  71.619  0.00  0.00    +0.000 C 
ATOM     22  C   UNL     1      62.215  65.336  71.941  0.00  0.00    +0.000 C 
ATOM     23  O   UNL     1      61.941  65.548  72.689  0.00  0.00    +0.000 OA
ATOM     24  C   UNL     1      61.832  64.743  71.513  0.00  0.00    +0.000 C 
ATOM     25  O   UNL     1      61.557  64.955  72.263  0.00  0.00    +0.000 OA
ATOM     26  C   UNL     1      61.174  64.362  71.835  0.00  0.00    +0.000 C 
ATOM     27  O   UNL     1      60.900  64.574  72.584  0.00  0.00    +0.000 OA
ATOM     28  C   UNL     1      60.792  63.770  71.407  0.00  0.00    +0.000 C 
ATOM     29  C   UNL     1      60.134  63.389  71.729  0.00  0.00    +0.000 C 
ATOM     30  N   UNL     1      59.751  62.796  71.302  0.00  0.00    +0.000 NA
ATOM     31  O   UNL     1      59.859  63.601  72.478  0.00  0.00    +0.000 OA
ATOM     32  C   UNL     1      61.066  63.558  70.660  0.00  0.00    +0.000 C 
ATOM     33  O   UNL     1      60.682  62.965  70.232  0.00  0.00    +0.000 OA
ENDROOT
TORSDOF 0
ENDMDL
MODEL 8
REMARK VINA RESULT:   -11.613      3.102      3.611
REMARK INTER + INTRA:         -11.613
REMARK INTER:                 -11.613
REMARK INTRA:                   0.000
REMARK UNBOUND:                 0.000
ROOT
REMARK  Name = minocycline
REMARK                            x       y       z     vdW  Elec       q    Type
REMARK                         _______ _______ _______ _____ _____    ______ ____
ATOM      1  C   UNL     1      65.241  66.060  71.222  0.00  0.00    +0.000 C 
ATOM      2  N   UNL     1      64.477  65.918  70.949  0.00  0.00    +0.000 NA
ATOM      3  C   UNL     1      64.341  65.326  70.391  0.00  0.00    +0.000 C 
ATOM      4  C   UNL     1      63.847  66.369  71.233  0.00  0.00    +0.000 C 
ATOM      5  C   UNL     1      63.081  66.228  70.959  0.00  0.00    +0.000 C 
ATOM      6  C   UNL     1      62.946  65.635  70.401  0.00  0.00    +0.000 C 
ATOM      7  C   UNL     1      62.180  65.493  70.127  0.00  0.00    +0.000 C 
ATOM      8  C   UNL     1      62.046  64.900  69.569  0.00  0.00    +0.000 C 
ATOM      9  C   UNL     1      61.280  64.759  69.296  0.00  0.00    +0.000 A 
ATOM     10  C   UNL     1      60.651  65.209  69.579  0.00  0.00    +0.000 A 
ATOM     11  C   UNL     1      59.885  65.068  69.305  0.00  0.00    +0.000 A 
ATOM     12  O   UNL     1      59.256  65.518  69.589  0.00  0.00    +0.000 OA
ATOM     13  C   UNL     1      59.751  64.475  68.748  0.00  0.00    +0.000 A 
ATOM     14  C   UNL     1      60.380  64.025  68.464  0.00  0.00    +0.000 A 
ATOM     15  C   UNL     1      61.145  64.166  68.737  0.00  0.00    +0.000 A 
ATOM     16  N   UNL     1      61.775  63.715  68.454  0.00  0.00    +0.000 N 
ATOM     17  C   UNL     1      61.640  63.123  67.896  0.00  0.00    +0.000 C 
ATOM     18  C   UNL     1      62.540  63.857  68.728  0.00  0.00    +0.000 C 
ATOM     19  C   UNL     1      60.786  65.802  70.137  0.00  0.00    +0.000 C 
ATOM     20  O   UNL     1      60.156  66.253  70.421  0.00  0.00    +0.000 OA
ATOM     21  C   UNL     1      61.551  65.943  70.410  0.00  0.00    +0.000 C 
ATOM     22  C   UNL     1      61.686  66.536  70.969  0.00  0.00    +0.000 C 
ATOM     23  O   UNL     1      61.057  66.987  71.253  0.00  0.00    +0.000 OA
ATOM     24  C   UNL     1      62.452  66.678  71.243  0.00  0.00    +0.000 C 
ATOM     25  O   UNL     1      61.822  67.130  71.527  0.00  0.00    +0.000 OA
ATOM     26  C   UNL     1      62.587  67.271  71.800  0.00  0.00    +0.000 C 
ATOM     27  O   UNL     1      61.957  67.722  72.084  0.00  0.00    +0.000 OA
ATOM     28  C   UNL     1      63.352  67.412  72.074  0.00  0.00    +0.000 C 
ATOM     29  C   UNL     1      63.487  68.005  72.632  0.00  0.00    +0.000 C 
ATOM     30  N   UNL     1      64.253  68.147  72.906  0.00  0.00    +0.000 NA
ATOM     31  O   UNL     1      62.858  68.456  72.916  0.00  0.00    +0.000 OA
ATOM     32  C   UNL     1      63.981  66.962  71.790  0.00  0.00    +0.000 C 
ATOM     33  O   UNL     1      64.747  67.104  72.064  0.00  0.00    +0.000 OA
ENDROOT
TORSDOF 0
ENDMDL
MODEL 9
REMARK VINA RESULT:   -11.575      3.695      4.901
REMARK INTER + INTRA:         -11.575
REMARK INTER:                 -11.575
REMARK INTRA:                   0.000
REMARK UNBOUND:                 0.000
ROOT
REMARK  Name = minocycline
REMARK                            x       y       z     vdW  Elec       q    Type
REMARK                         _______ _______ _______ _____ _____    ______ ____
ATOM      1  C   UNL     1      64.998  64.799  69.767  0.00  0.00    +0.000 C 
ATOM      2  N   UNL     1      64.283  65.167  69.951  0.00  0.00    +0.000 NA
ATOM      3  C   UNL     1      63.599  64.969  69.536  0.00  0.00    +0.000 C 
ATOM      4  C   UNL     1      64.253  65.733  70.550  0.00  0.00    +0.000 C 
ATOM      5  C   UNL     1      63.539  66.102  70.734  0.00  0.00    +0.000 C 
ATOM      6  C   UNL     1      62.854  65.904  70.318  0.00  0.00    +0.000 C 
ATOM      7  C   UNL     1      62.138  66.272  70.503  0.00  0.00    +0.000 C 
ATOM      8  C   UNL     1      61.454  66.074  70.087  0.00  0.00    +0.000 C 
ATOM      9  C   UNL     1      60.739  66.443  70.272  0.00  0.00    +0.000 A 
ATOM     10  C   UNL     1      60.709  67.008  70.870  0.00  0.00    +0.000 A 
ATOM     11  C   UNL     1      59.994  67.377  71.054  0.00  0.00    +0.000 A 
ATOM     12  O   UNL     1      59.964  67.944  71.653  0.00  0.00    +0.000 OA
ATOM     13  C   UNL     1      59.309  67.179  70.639  0.00  0.00    +0.000 A 
ATOM     14  C   UNL     1      59.339  66.613  70.041  0.00  0.00    +0.000 A 
ATOM     15  C   UNL     1      60.054  66.244  69.856  0.00  0.00    +0.000 A 
ATOM     16  N   UNL     1      60.084  65.678  69.257  0.00  0.00    +0.000 N 
ATOM     17  C   UNL     1      59.399  65.480  68.843  0.00  0.00    +0.000 C 
ATOM     18  C   UNL     1      60.799  65.310  69.074  0.00  0.00    +0.000 C 
ATOM     19  C   UNL     1      61.394  67.207  71.285  0.00  0.00    +0.000 C 
ATOM     20  O   UNL     1      61.364  67.774  71.884  0.00  0.00    +0.000 OA
ATOM     21  C   UNL     1      62.108  66.838  71.101  0.00  0.00    +0.000 C 
ATOM     22  C   UNL     1      62.794  67.037  71.516  0.00  0.00    +0.000 C 
ATOM     23  O   UNL     1      62.764  67.603  72.115  0.00  0.00    +0.000 OA
ATOM     24  C   UNL     1      63.509  66.668  71.332  0.00  0.00    +0.000 C 
ATOM     25  O   UNL     1      63.479  67.235  71.932  0.00  0.00    +0.000 OA
ATOM     26  C   UNL     1      64.194  66.867  71.747  0.00  0.00    +0.000 C 
ATOM     27  O   UNL     1      64.164  67.433  72.346  0.00  0.00    +0.000 OA
ATOM     28  C   UNL     1      64.908  66.498  71.563  0.00  0.00    +0.000 C 
ATOM     29  C   UNL     1      65.593  66.696  71.979  0.00  0.00    +0.000 C 
ATOM     30  N   UNL     1      66.308  66.328  71.794  0.00  0.00    +0.000 NA
ATOM     31  O   UNL     1      65.563  67.263  72.578  0.00  0.00    +0.000 OA
ATOM     32  C   UNL     1      64.938  65.932  70.965  0.00  0.00    +0.000 C 
ATOM     33  O   UNL     1      65.653  65.563  70.781  0.00  0.00    +0.000 OA
ENDROOT
TORSDOF 0
ENDMDL
