MODEL 1
REMARK VINA RESULT:   -10.278      0.000      0.000
REMARK INTER + INTRA:         -10.278
REMARK INTER:                 -10.278
REMARK INTRA:                   0.000
REMARK UNBOUND:                 0.000
ROOT
REMARK  Name = mirtazapine
REMARK                            x       y       z     vdW  Elec       q    Type
REMARK                         _______ _______ _______ _____ _____    ______ ____
ATOM      1  C   UNL     1      59.744  66.229  70.824  0.00  0.00    +0.000 C 
ATOM      2  N   UNL     1      59.894  65.489  70.493  0.00  0.00    +0.000 NA
ATOM      3  C   UNL     1      59.737  65.354  69.694  0.00  0.00    +0.000 C 
ATOM      4  C   UNL     1      59.888  64.613  69.364  0.00  0.00    +0.000 C 
ATOM      5  N   UNL     1      60.196  64.008  69.831  0.00  0.00    +0.000 N 
ATOM      6  C   UNL     1      60.353  64.142  70.630  0.00  0.00    +0.000 C 
ATOM      7  C   UNL     1      60.202  64.883  70.961  0.00  0.00    +0.000 C 
ATOM      8  C   UNL     1      60.658  63.619  71.190  0.00  0.00    +0.000 A 
ATOM      9  C   UNL     1      60.881  62.831  71.089  0.00  0.00    +0.000 A 
ATOM     10  C   UNL     1      60.854  62.372  70.404  0.00  0.00    +0.000 C 
ATOM     11  C   UNL     1      60.598  62.588  69.649  0.00  0.00    +0.000 A 
ATOM     12  C   UNL     1      60.305  63.316  69.395  0.00  0.00    +0.000 A 
ATOM     13  N   UNL     1      60.077  63.416  68.608  0.00  0.00    +0.000 NA
ATOM     14  C   UNL     1      60.142  62.789  68.077  0.00  0.00    +0.000 A 
ATOM     15  C   UNL     1      60.435  62.061  68.331  0.00  0.00    +0.000 A 
ATOM     16  C   UNL     1      60.663  61.961  69.118  0.00  0.00    +0.000 A 
ATOM     17  C   UNL     1      61.176  62.401  71.728  0.00  0.00    +0.000 A 
ATOM     18  C   UNL     1      61.248  62.759  72.468  0.00  0.00    +0.000 A 
ATOM     19  C   UNL     1      61.025  63.546  72.569  0.00  0.00    +0.000 A 
ATOM     20  C   UNL     1      60.730  63.976  71.929  0.00  0.00    +0.000 A 
ENDROOT
TORSDOF 0
ENDMDL
MODEL 2
REMARK VINA RESULT:   -10.010      0.836      2.840
REMARK INTER + INTRA:         -10.010
REMARK INTER:                 -10.010
REMARK INTRA:                   0.000
REMARK UNBOUND:                 0.000
ROOT
REMARK  Name = mirtazapine
REMARK                            x       y       z     vdW  Elec       q    Type
REMARK                         _______ _______ _______ _____ _____    ______ ____
ATOM      1  C   UNL     1      60.622  62.009  68.829  0.00  0.00    +0.000 C 
ATOM      2  N   UNL     1      60.563  62.516  69.477  0.00  0.00    +0.000 NA
ATOM      3  C   UNL     1      60.183  63.244  69.398  0.00  0.00    +0.000 C 
ATOM      4  C   UNL     1      60.125  63.750  70.047  0.00  0.00    +0.000 C 
ATOM      5  N   UNL     1      60.446  63.529  70.774  0.00  0.00    +0.000 N 
ATOM      6  C   UNL     1      60.826  62.801  70.852  0.00  0.00    +0.000 C 
ATOM      7  C   UNL     1      60.885  62.294  70.204  0.00  0.00    +0.000 C 
ATOM      8  C   UNL     1      61.182  62.476  71.522  0.00  0.00    +0.000 A 
ATOM      9  C   UNL     1      61.246  62.799  72.278  0.00  0.00    +0.000 A 
ATOM     10  C   UNL     1      60.969  63.526  72.552  0.00  0.00    +0.000 C 
ATOM     11  C   UNL     1      60.560  64.111  72.137  0.00  0.00    +0.000 A 
ATOM     12  C   UNL     1      60.328  64.112  71.346  0.00  0.00    +0.000 A 
ATOM     13  N   UNL     1      59.920  64.759  71.037  0.00  0.00    +0.000 NA
ATOM     14  C   UNL     1      59.744  65.404  71.519  0.00  0.00    +0.000 A 
ATOM     15  C   UNL     1      59.977  65.403  72.311  0.00  0.00    +0.000 A 
ATOM     16  C   UNL     1      60.385  64.756  72.619  0.00  0.00    +0.000 A 
ATOM     17  C   UNL     1      61.628  62.377  72.875  0.00  0.00    +0.000 A 
ATOM     18  C   UNL     1      61.946  61.633  72.716  0.00  0.00    +0.000 A 
ATOM     19  C   UNL     1      61.883  61.310  71.960  0.00  0.00    +0.000 A 
ATOM     20  C   UNL     1      61.501  61.732  71.363  0.00  0.00    +0.000 A 
ENDROOT
TORSDOF 0
ENDMDL
MODEL 3
REMARK VINA RESULT:   -10.009      0.712      2.651
REMARK INTER + INTRA:         -10.009
REMARK INTER:                 -10.009
REMARK INTRA:                   0.000
REMARK UNBOUND:                 0.000
ROOT
REMARK  Name = mirtazapine
REMARK                            x       y       z     vdW  Elec       q    Type
REMARK                         _______ _______ _______ _____ _____    ______ ____
ATOM      1  C   UNL     1      59.750  65.912  69.342  0.00  0.00    +0.000 C 
ATOM      2  N   UNL     1      60.020  65.251  69.755  0.00  0.00    +0.000 NA
ATOM      3  C   UNL     1      60.244  65.320  70.546  0.00  0.00    +0.000 C 
ATOM      4  C   UNL     1      60.514  64.658  70.957  0.00  0.00    +0.000 C 
ATOM      5  N   UNL     1      60.560  63.927  70.579  0.00  0.00    +0.000 N 
ATOM      6  C   UNL     1      60.337  63.858  69.788  0.00  0.00    +0.000 C 
ATOM      7  C   UNL     1      60.067  64.519  69.375  0.00  0.00    +0.000 C 
ATOM      8  C   UNL     1      60.340  63.186  69.309  0.00  0.00    +0.000 A 
ATOM      9  C   UNL     1      60.568  62.417  69.503  0.00  0.00    +0.000 A 
ATOM     10  C   UNL     1      60.849  62.131  70.224  0.00  0.00    +0.000 C 
ATOM     11  C   UNL     1      60.971  62.542  70.929  0.00  0.00    +0.000 A 
ATOM     12  C   UNL     1      60.843  63.342  71.086  0.00  0.00    +0.000 A 
ATOM     13  N   UNL     1      61.003  63.645  71.837  0.00  0.00    +0.000 NA
ATOM     14  C   UNL     1      61.291  63.149  72.429  0.00  0.00    +0.000 A 
ATOM     15  C   UNL     1      61.419  62.350  72.272  0.00  0.00    +0.000 A 
ATOM     16  C   UNL     1      61.259  62.046  71.521  0.00  0.00    +0.000 A 
ATOM     17  C   UNL     1      60.528  61.819  68.936  0.00  0.00    +0.000 A 
ATOM     18  C   UNL     1      60.261  61.990  68.175  0.00  0.00    +0.000 A 
ATOM     19  C   UNL     1      60.033  62.758  67.980  0.00  0.00    +0.000 A 
ATOM     20  C   UNL     1      60.073  63.356  68.547  0.00  0.00    +0.000 A 
ENDROOT
TORSDOF 0
ENDMDL
MODEL 4
REMARK VINA RESULT:    -9.689      0.797      1.250
REMARK INTER + INTRA:          -9.689
REMARK INTER:                  -9.689
REMARK INTRA:                   0.000
REMARK UNBOUND:                 0.000
ROOT
REMARK  Name = mirtazapine
REMARK                            x       y       z     vdW  Elec       q    Type
REMARK                         _______ _______ _______ _____ _____    ______ ____
ATOM      1  C   UNL     1      59.719  66.337  69.242  0.00  0.00    +0.000 C 
ATOM      2  N   UNL     1      59.860  65.548  69.435  0.00  0.00    +0.000 NA
ATOM      3  C   UNL     1      59.937  64.984  68.838  0.00  0.00    +0.000 C 
ATOM      4  C   UNL     1      60.078  64.194  69.032  0.00  0.00    +0.000 C 
ATOM      5  N   UNL     1      60.141  63.969  69.823  0.00  0.00    +0.000 N 
ATOM      6  C   UNL     1      60.064  64.532  70.420  0.00  0.00    +0.000 C 
ATOM      7  C   UNL     1      59.923  65.322  70.227  0.00  0.00    +0.000 C 
ATOM      8  C   UNL     1      60.107  64.426  71.237  0.00  0.00    +0.000 A 
ATOM      9  C   UNL     1      60.240  63.729  71.658  0.00  0.00    +0.000 A 
ATOM     10  C   UNL     1      60.361  62.967  71.367  0.00  0.00    +0.000 C 
ATOM     11  C   UNL     1      60.380  62.713  70.582  0.00  0.00    +0.000 A 
ATOM     12  C   UNL     1      60.282  63.159  69.895  0.00  0.00    +0.000 A 
ATOM     13  N   UNL     1      60.322  62.793  69.156  0.00  0.00    +0.000 NA
ATOM     14  C   UNL     1      60.459  61.981  69.106  0.00  0.00    +0.000 A 
ATOM     15  C   UNL     1      60.556  61.535  69.792  0.00  0.00    +0.000 A 
ATOM     16  C   UNL     1      60.517  61.902  70.531  0.00  0.00    +0.000 A 
ATOM     17  C   UNL     1      60.263  63.744  72.483  0.00  0.00    +0.000 A 
ATOM     18  C   UNL     1      60.154  64.455  72.886  0.00  0.00    +0.000 A 
ATOM     19  C   UNL     1      60.021  65.152  72.465  0.00  0.00    +0.000 A 
ATOM     20  C   UNL     1      59.998  65.137  71.640  0.00  0.00    +0.000 A 
ENDROOT
TORSDOF 0
ENDMDL
MODEL 5
REMARK VINA RESULT:    -9.653      2.797      4.056
REMARK INTER + INTRA:          -9.653
REMARK INTER:                  -9.653
REMARK INTRA:                   0.000
REMARK UNBOUND:                 0.000
ROOT
REMARK  Name = mirtazapine
REMARK                            x       y       z     vdW  Elec       q    Type
REMARK                         _______ _______ _______ _____ _____    ______ ____
ATOM      1  C   UNL     1      58.116  65.528  72.917  0.00  0.00    +0.000 C 
ATOM      2  N   UNL     1      58.911  65.747  72.902  0.00  0.00    +0.000 NA
ATOM      3  C   UNL     1      59.124  66.536  73.015  0.00  0.00    +0.000 C 
ATOM      4  C   UNL     1      59.919  66.755  73.000  0.00  0.00    +0.000 C 
ATOM      5  N   UNL     1      60.502  66.185  72.874  0.00  0.00    +0.000 N 
ATOM      6  C   UNL     1      60.289  65.396  72.761  0.00  0.00    +0.000 C 
ATOM      7  C   UNL     1      59.494  65.176  72.776  0.00  0.00    +0.000 C 
ATOM      8  C   UNL     1      60.778  64.745  72.628  0.00  0.00    +0.000 A 
ATOM      9  C   UNL     1      61.600  64.723  72.573  0.00  0.00    +0.000 A 
ATOM     10  C   UNL     1      62.137  65.345  72.639  0.00  0.00    +0.000 C 
ATOM     11  C   UNL     1      61.984  66.145  72.776  0.00  0.00    +0.000 A 
ATOM     12  C   UNL     1      61.256  66.518  72.880  0.00  0.00    +0.000 A 
ATOM     13  N   UNL     1      61.225  67.332  73.011  0.00  0.00    +0.000 NA
ATOM     14  C   UNL     1      61.922  67.772  73.038  0.00  0.00    +0.000 A 
ATOM     15  C   UNL     1      62.650  67.399  72.934  0.00  0.00    +0.000 A 
ATOM     16  C   UNL     1      62.681  66.585  72.802  0.00  0.00    +0.000 A 
ATOM     17  C   UNL     1      61.985  64.006  72.435  0.00  0.00    +0.000 A 
ATOM     18  C   UNL     1      61.548  63.312  72.352  0.00  0.00    +0.000 A 
ATOM     19  C   UNL     1      60.725  63.334  72.407  0.00  0.00    +0.000 A 
ATOM     20  C   UNL     1      60.340  64.051  72.544  0.00  0.00    +0.000 A 
ENDROOT
TORSDOF 0
ENDMDL
MODEL 6
REMARK VINA RESULT:    -9.638      2.068      2.944
REMARK INTER + INTRA:          -9.638
REMARK INTER:                  -9.638
REMARK INTRA:                   0.000
REMARK UNBOUND:                 0.000
ROOT
REMARK  Name = mirtazapine
REMARK                            x       y       z     vdW  Elec       q    Type
REMARK                         _______ _______ _______ _____ _____    ______ ____
ATOM      1  C   UNL     1      60.439  62.690  68.447  0.00  0.00    +0.000 C 
ATOM      2  N   UNL     1      61.016  63.108  68.863  0.00  0.00    +0.000 NA
ATOM      3  C   UNL     1      61.625  63.488  68.456  0.00  0.00    +0.000 C 
ATOM      4  C   UNL     1      62.202  63.906  68.873  0.00  0.00    +0.000 C 
ATOM      5  N   UNL     1      62.170  63.944  69.695  0.00  0.00    +0.000 N 
ATOM      6  C   UNL     1      61.562  63.564  70.103  0.00  0.00    +0.000 C 
ATOM      7  C   UNL     1      60.984  63.146  69.687  0.00  0.00    +0.000 C 
ATOM      8  C   UNL     1      61.428  63.533  70.917  0.00  0.00    +0.000 A 
ATOM      9  C   UNL     1      61.870  63.874  71.523  0.00  0.00    +0.000 A 
ATOM     10  C   UNL     1      62.555  64.330  71.467  0.00  0.00    +0.000 C 
ATOM     11  C   UNL     1      62.967  64.558  70.789  0.00  0.00    +0.000 A 
ATOM     12  C   UNL     1      62.796  64.386  70.001  0.00  0.00    +0.000 A 
ATOM     13  N   UNL     1      63.285  64.671  69.401  0.00  0.00    +0.000 NA
ATOM     14  C   UNL     1      63.945  65.128  69.589  0.00  0.00    +0.000 A 
ATOM     15  C   UNL     1      64.117  65.301  70.377  0.00  0.00    +0.000 A 
ATOM     16  C   UNL     1      63.627  65.015  70.978  0.00  0.00    +0.000 A 
ATOM     17  C   UNL     1      61.638  63.775  72.309  0.00  0.00    +0.000 A 
ATOM     18  C   UNL     1      60.963  63.335  72.487  0.00  0.00    +0.000 A 
ATOM     19  C   UNL     1      60.521  62.994  71.880  0.00  0.00    +0.000 A 
ATOM     20  C   UNL     1      60.753  63.093  71.095  0.00  0.00    +0.000 A 
ENDROOT
TORSDOF 0
ENDMDL
MODEL 7
REMARK VINA RESULT:    -9.412      2.188      3.366
REMARK INTER + INTRA:          -9.412
REMARK INTER:                  -9.412
REMARK INTRA:                   0.000
REMARK UNBOUND:                 0.000
ROOT
REMARK  Name = mirtazapine
REMARK                            x       y       z     vdW  Elec       q    Type
REMARK                         _______ _______ _______ _____ _____    ______ ____
ATOM      1  C   UNL     1      61.625  63.298  67.860  0.00  0.00    +0.000 C 
ATOM      2  N   UNL     1      61.610  63.439  68.672  0.00  0.00    +0.000 NA
ATOM      3  C   UNL     1      60.973  63.175  69.125  0.00  0.00    +0.000 C 
ATOM      4  C   UNL     1      60.959  63.316  69.938  0.00  0.00    +0.000 C 
ATOM      5  N   UNL     1      61.581  63.720  70.298  0.00  0.00    +0.000 N 
ATOM      6  C   UNL     1      62.218  63.984  69.845  0.00  0.00    +0.000 C 
ATOM      7  C   UNL     1      62.233  63.844  69.032  0.00  0.00    +0.000 C 
ATOM      8  C   UNL     1      62.890  64.395  70.092  0.00  0.00    +0.000 A 
ATOM      9  C   UNL     1      63.090  64.643  70.852  0.00  0.00    +0.000 A 
ATOM     10  C   UNL     1      62.668  64.542  71.554  0.00  0.00    +0.000 C 
ATOM     11  C   UNL     1      61.941  64.167  71.669  0.00  0.00    +0.000 A 
ATOM     12  C   UNL     1      61.458  63.802  71.110  0.00  0.00    +0.000 A 
ATOM     13  N   UNL     1      60.745  63.457  71.343  0.00  0.00    +0.000 NA
ATOM     14  C   UNL     1      60.518  63.478  72.135  0.00  0.00    +0.000 A 
ATOM     15  C   UNL     1      61.001  63.843  72.695  0.00  0.00    +0.000 A 
ATOM     16  C   UNL     1      61.714  64.188  72.461  0.00  0.00    +0.000 A 
ATOM     17  C   UNL     1      63.796  65.050  70.981  0.00  0.00    +0.000 A 
ATOM     18  C   UNL     1      64.301  65.210  70.349  0.00  0.00    +0.000 A 
ATOM     19  C   UNL     1      64.101  64.962  69.588  0.00  0.00    +0.000 A 
ATOM     20  C   UNL     1      63.395  64.554  69.460  0.00  0.00    +0.000 A 
ENDROOT
TORSDOF 0
ENDMDL
MODEL 8
REMARK VINA RESULT:    -8.886     27.080     28.189
REMARK INTER + INTRA:          -8.886
REMARK INTER:                  -8.886
REMARK INTRA:                   0.000
REMARK UNBOUND:                 0.000
ROOT
REMARK  Name = mirtazapine
REMARK                            x       y       z     vdW  Elec       q    Type
REMARK                         _______ _______ _______ _____ _____    ______ ____
ATOM      1  C   UNL     1      72.778  81.704  51.696  0.00  0.00    +0.000 C 
ATOM      2  N   UNL     1      72.493  81.170  51.136  0.00  0.00    +0.000 NA
ATOM      3  C   UNL     1      72.990  80.894  50.538  0.00  0.00    +0.000 C 
ATOM      4  C   UNL     1      72.704  80.360  49.978  0.00  0.00    +0.000 C 
ATOM      5  N   UNL     1      71.922  80.101  50.016  0.00  0.00    +0.000 N 
ATOM      6  C   UNL     1      71.425  80.377  50.614  0.00  0.00    +0.000 C 
ATOM      7  C   UNL     1      71.710  80.911  51.174  0.00  0.00    +0.000 C 
ATOM      8  C   UNL     1      70.633  80.191  50.751  0.00  0.00    +0.000 A 
ATOM      9  C   UNL     1      70.143  79.684  50.324  0.00  0.00    +0.000 A 
ATOM     10  C   UNL     1      70.323  79.236  49.655  0.00  0.00    +0.000 C 
ATOM     11  C   UNL     1      71.039  79.186  49.247  0.00  0.00    +0.000 A 
ATOM     12  C   UNL     1      71.750  79.571  49.408  0.00  0.00    +0.000 A 
ATOM     13  N   UNL     1      72.407  79.442  48.925  0.00  0.00    +0.000 NA
ATOM     14  C   UNL     1      72.352  78.929  48.282  0.00  0.00    +0.000 A 
ATOM     15  C   UNL     1      71.641  78.544  48.121  0.00  0.00    +0.000 A 
ATOM     16  C   UNL     1      70.984  78.673  48.604  0.00  0.00    +0.000 A 
ATOM     17  C   UNL     1      69.359  79.574  50.557  0.00  0.00    +0.000 A 
ATOM     18  C   UNL     1      69.066  79.973  51.217  0.00  0.00    +0.000 A 
ATOM     19  C   UNL     1      69.556  80.481  51.644  0.00  0.00    +0.000 A 
ATOM     20  C   UNL     1      70.339  80.590  51.411  0.00  0.00    +0.000 A 
ENDROOT
TORSDOF 0
ENDMDL
MODEL 9
REMARK VINA RESULT:    -8.873      2.460      2.845
REMARK INTER + INTRA:          -8.873
REMARK INTER:                  -8.873
REMARK INTRA:                   0.000
REMARK UNBOUND:                 0.000
ROOT
REMARK  Name = mirtazapine
REMARK                            x       y       z     vdW  Elec       q    Type
REMARK                         _______ _______ _______ _____ _____    ______ ____
ATOM      1  C   UNL     1      59.857  66.962  71.751  0.00  0.00    +0.000 C 
ATOM      2  N   UNL     1      60.548  66.580  71.512  0.00  0.00    +0.000 NA
ATOM      3  C   UNL     1      61.092  66.972  71.031  0.00  0.00    +0.000 C 
ATOM      4  C   UNL     1      61.783  66.589  70.793  0.00  0.00    +0.000 C 
ATOM      5  N   UNL     1      61.930  65.815  71.034  0.00  0.00    +0.000 N 
ATOM      6  C   UNL     1      61.386  65.422  71.515  0.00  0.00    +0.000 C 
ATOM      7  C   UNL     1      60.695  65.804  71.754  0.00  0.00    +0.000 C 
ATOM      8  C   UNL     1      61.425  64.655  71.816  0.00  0.00    +0.000 A 
ATOM      9  C   UNL     1      62.018  64.091  71.711  0.00  0.00    +0.000 A 
ATOM     10  C   UNL     1      62.718  64.155  71.279  0.00  0.00    +0.000 C 
ATOM     11  C   UNL     1      62.998  64.799  70.845  0.00  0.00    +0.000 A 
ATOM     12  C   UNL     1      62.647  65.537  70.736  0.00  0.00    +0.000 A 
ATOM     13  N   UNL     1      63.025  66.109  70.276  0.00  0.00    +0.000 NA
ATOM     14  C   UNL     1      63.752  65.942  69.926  0.00  0.00    +0.000 A 
ATOM     15  C   UNL     1      64.103  65.204  70.034  0.00  0.00    +0.000 A 
ATOM     16  C   UNL     1      63.725  64.632  70.494  0.00  0.00    +0.000 A 
ATOM     17  C   UNL     1      61.948  63.349  72.064  0.00  0.00    +0.000 A 
ATOM     18  C   UNL     1      61.286  63.171  72.522  0.00  0.00    +0.000 A 
ATOM     19  C   UNL     1      60.693  63.735  72.628  0.00  0.00    +0.000 A 
ATOM     20  C   UNL     1      60.763  64.477  72.274  0.00  0.00    +0.000 A 
ENDROOT
TORSDOF 0
ENDMDL
