MODEL 1
REMARK VINA RESULT:   -13.170      0.000      0.000
REMARK INTER + INTRA:         -13.170
REMARK INTER:                 -13.170
REMARK INTRA:                   0.000
REMARK UNBOUND:                 0.000
ROOT
REMARK  Name = mitoxantrone
REMARK                            x       y       z     vdW  Elec       q    Type
REMARK                         _______ _______ _______ _____ _____    ______ ____
ATOM      1  O   UNL     1      58.471  67.547  73.222  0.00  0.00    +0.000 OA
ATOM      2  C   UNL     1      58.795  66.898  72.830  0.00  0.00    +0.000 C 
ATOM      3  C   UNL     1      58.925  66.931  72.015  0.00  0.00    +0.000 C 
ATOM      4  N   UNL     1      59.249  66.282  71.623  0.00  0.00    +0.000 NA
ATOM      5  C   UNL     1      59.378  66.316  70.809  0.00  0.00    +0.000 C 
ATOM      6  C   UNL     1      59.703  65.667  70.416  0.00  0.00    +0.000 C 
ATOM      7  N   UNL     1      59.832  65.700  69.601  0.00  0.00    +0.000 NA
ATOM      8  C   UNL     1      60.156  65.051  69.208  0.00  0.00    +0.000 A 
ATOM      9  C   UNL     1      60.286  65.085  68.394  0.00  0.00    +0.000 A 
ATOM     10  C   UNL     1      60.610  64.436  68.001  0.00  0.00    +0.000 A 
ATOM     11  C   UNL     1      60.805  63.754  68.422  0.00  0.00    +0.000 A 
ATOM     12  N   UNL     1      61.129  63.106  68.029  0.00  0.00    +0.000 NA
ATOM     13  C   UNL     1      61.259  63.138  67.215  0.00  0.00    +0.000 C 
ATOM     14  C   UNL     1      61.583  62.490  66.822  0.00  0.00    +0.000 C 
ATOM     15  N   UNL     1      61.713  62.523  66.008  0.00  0.00    +0.000 NA
ATOM     16  C   UNL     1      62.037  61.875  65.615  0.00  0.00    +0.000 C 
ATOM     17  C   UNL     1      62.166  61.908  64.800  0.00  0.00    +0.000 C 
ATOM     18  O   UNL     1      62.491  61.259  64.408  0.00  0.00    +0.000 OA
ATOM     19  C   UNL     1      60.676  63.721  69.237  0.00  0.00    +0.000 A 
ATOM     20  C   UNL     1      60.352  64.369  69.629  0.00  0.00    +0.000 A 
ATOM     21  C   UNL     1      60.222  64.336  70.443  0.00  0.00    +0.000 C 
ATOM     22  O   UNL     1      59.898  64.985  70.837  0.00  0.00    +0.000 OA
ATOM     23  C   UNL     1      60.417  63.653  70.864  0.00  0.00    +0.000 A 
ATOM     24  C   UNL     1      60.288  63.621  71.679  0.00  0.00    +0.000 A 
ATOM     25  O   UNL     1      59.963  64.269  72.073  0.00  0.00    +0.000 OA
ATOM     26  C   UNL     1      60.483  62.938  72.100  0.00  0.00    +0.000 A 
ATOM     27  C   UNL     1      60.808  62.289  71.707  0.00  0.00    +0.000 A 
ATOM     28  C   UNL     1      60.937  62.323  70.893  0.00  0.00    +0.000 A 
ATOM     29  O   UNL     1      61.261  61.674  70.500  0.00  0.00    +0.000 OA
ATOM     30  C   UNL     1      60.742  63.005  70.472  0.00  0.00    +0.000 A 
ATOM     31  C   UNL     1      60.871  63.038  69.658  0.00  0.00    +0.000 C 
ATOM     32  O   UNL     1      61.195  62.390  69.264  0.00  0.00    +0.000 OA
ENDROOT
TORSDOF 0
ENDMDL
MODEL 2
REMARK VINA RESULT:   -10.754     14.976     16.449
REMARK INTER + INTRA:         -10.754
REMARK INTER:                 -10.754
REMARK INTRA:                   0.000
REMARK UNBOUND:                 0.000
ROOT
REMARK  Name = mitoxantrone
REMARK                            x       y       z     vdW  Elec       q    Type
REMARK                         _______ _______ _______ _____ _____    ______ ____
ATOM      1  O   UNL     1      58.939  71.949  52.250  0.00  0.00    +0.000 OA
ATOM      2  C   UNL     1      59.402  71.385  52.636  0.00  0.00    +0.000 C 
ATOM      3  C   UNL     1      59.490  70.631  52.311  0.00  0.00    +0.000 C 
ATOM      4  N   UNL     1      59.952  70.068  52.697  0.00  0.00    +0.000 NA
ATOM      5  C   UNL     1      60.039  69.315  52.372  0.00  0.00    +0.000 C 
ATOM      6  C   UNL     1      60.503  68.750  52.758  0.00  0.00    +0.000 C 
ATOM      7  N   UNL     1      60.590  67.996  52.433  0.00  0.00    +0.000 NA
ATOM      8  C   UNL     1      61.053  67.433  52.819  0.00  0.00    +0.000 A 
ATOM      9  C   UNL     1      61.140  66.680  52.494  0.00  0.00    +0.000 A 
ATOM     10  C   UNL     1      61.603  66.116  52.880  0.00  0.00    +0.000 A 
ATOM     11  C   UNL     1      61.978  66.305  53.590  0.00  0.00    +0.000 A 
ATOM     12  N   UNL     1      62.440  65.741  53.975  0.00  0.00    +0.000 NA
ATOM     13  C   UNL     1      62.528  64.988  53.651  0.00  0.00    +0.000 C 
ATOM     14  C   UNL     1      62.990  64.424  54.036  0.00  0.00    +0.000 C 
ATOM     15  N   UNL     1      63.078  63.670  53.712  0.00  0.00    +0.000 NA
ATOM     16  C   UNL     1      63.541  63.107  54.097  0.00  0.00    +0.000 C 
ATOM     17  C   UNL     1      63.629  62.353  53.773  0.00  0.00    +0.000 C 
ATOM     18  O   UNL     1      64.091  61.789  54.158  0.00  0.00    +0.000 OA
ATOM     19  C   UNL     1      61.890  67.059  53.914  0.00  0.00    +0.000 A 
ATOM     20  C   UNL     1      61.428  67.622  53.529  0.00  0.00    +0.000 A 
ATOM     21  C   UNL     1      61.340  68.375  53.853  0.00  0.00    +0.000 C 
ATOM     22  O   UNL     1      60.878  68.940  53.468  0.00  0.00    +0.000 OA
ATOM     23  C   UNL     1      61.716  68.565  54.564  0.00  0.00    +0.000 A 
ATOM     24  C   UNL     1      61.628  69.319  54.888  0.00  0.00    +0.000 A 
ATOM     25  O   UNL     1      61.165  69.883  54.503  0.00  0.00    +0.000 OA
ATOM     26  C   UNL     1      62.003  69.508  55.598  0.00  0.00    +0.000 A 
ATOM     27  C   UNL     1      62.466  68.944  55.984  0.00  0.00    +0.000 A 
ATOM     28  C   UNL     1      62.553  68.191  55.659  0.00  0.00    +0.000 A 
ATOM     29  O   UNL     1      63.015  67.628  56.045  0.00  0.00    +0.000 OA
ATOM     30  C   UNL     1      62.178  68.001  54.949  0.00  0.00    +0.000 A 
ATOM     31  C   UNL     1      62.265  67.249  54.625  0.00  0.00    +0.000 C 
ATOM     32  O   UNL     1      62.728  66.684  55.010  0.00  0.00    +0.000 OA
ENDROOT
TORSDOF 0
ENDMDL
MODEL 3
REMARK VINA RESULT:   -10.714      2.379      2.500
REMARK INTER + INTRA:         -10.714
REMARK INTER:                 -10.714
REMARK INTRA:                   0.000
REMARK UNBOUND:                 0.000
ROOT
REMARK  Name = mitoxantrone
REMARK                            x       y       z     vdW  Elec       q    Type
REMARK                         _______ _______ _______ _____ _____    ______ ____
ATOM      1  O   UNL     1      63.406  69.120  73.222  0.00  0.00    +0.000 OA
ATOM      2  C   UNL     1      63.046  68.449  72.904  0.00  0.00    +0.000 C 
ATOM      3  C   UNL     1      63.265  68.181  72.154  0.00  0.00    +0.000 C 
ATOM      4  N   UNL     1      62.905  67.511  71.836  0.00  0.00    +0.000 NA
ATOM      5  C   UNL     1      63.124  67.243  71.087  0.00  0.00    +0.000 C 
ATOM      6  C   UNL     1      62.765  66.572  70.768  0.00  0.00    +0.000 C 
ATOM      7  N   UNL     1      62.983  66.304  70.018  0.00  0.00    +0.000 NA
ATOM      8  C   UNL     1      62.624  65.633  69.700  0.00  0.00    +0.000 A 
ATOM      9  C   UNL     1      62.843  65.366  68.951  0.00  0.00    +0.000 A 
ATOM     10  C   UNL     1      62.483  64.694  68.631  0.00  0.00    +0.000 A 
ATOM     11  C   UNL     1      61.905  64.292  69.061  0.00  0.00    +0.000 A 
ATOM     12  N   UNL     1      61.547  63.622  68.742  0.00  0.00    +0.000 NA
ATOM     13  C   UNL     1      61.765  63.353  67.993  0.00  0.00    +0.000 C 
ATOM     14  C   UNL     1      61.406  62.683  67.674  0.00  0.00    +0.000 C 
ATOM     15  N   UNL     1      61.624  62.414  66.925  0.00  0.00    +0.000 NA
ATOM     16  C   UNL     1      61.265  61.744  66.606  0.00  0.00    +0.000 C 
ATOM     17  C   UNL     1      61.483  61.475  65.857  0.00  0.00    +0.000 C 
ATOM     18  O   UNL     1      61.124  60.805  65.538  0.00  0.00    +0.000 OA
ATOM     19  C   UNL     1      61.688  64.560  69.811  0.00  0.00    +0.000 A 
ATOM     20  C   UNL     1      62.046  65.230  70.130  0.00  0.00    +0.000 A 
ATOM     21  C   UNL     1      61.828  65.498  70.878  0.00  0.00    +0.000 C 
ATOM     22  O   UNL     1      62.187  66.169  71.198  0.00  0.00    +0.000 OA
ATOM     23  C   UNL     1      61.250  65.095  71.309  0.00  0.00    +0.000 A 
ATOM     24  C   UNL     1      61.032  65.364  72.058  0.00  0.00    +0.000 A 
ATOM     25  O   UNL     1      61.391  66.035  72.377  0.00  0.00    +0.000 OA
ATOM     26  C   UNL     1      60.454  64.961  72.488  0.00  0.00    +0.000 A 
ATOM     27  C   UNL     1      60.095  64.290  72.169  0.00  0.00    +0.000 A 
ATOM     28  C   UNL     1      60.314  64.022  71.420  0.00  0.00    +0.000 A 
ATOM     29  O   UNL     1      59.954  63.352  71.101  0.00  0.00    +0.000 OA
ATOM     30  C   UNL     1      60.891  64.425  70.990  0.00  0.00    +0.000 A 
ATOM     31  C   UNL     1      61.109  64.157  70.241  0.00  0.00    +0.000 C 
ATOM     32  O   UNL     1      60.750  63.486  69.921  0.00  0.00    +0.000 OA
ENDROOT
TORSDOF 0
ENDMDL
MODEL 4
REMARK VINA RESULT:   -10.573     14.768     16.888
REMARK INTER + INTRA:         -10.573
REMARK INTER:                 -10.573
REMARK INTRA:                   0.000
REMARK UNBOUND:                 0.000
ROOT
REMARK  Name = mitoxantrone
REMARK                            x       y       z     vdW  Elec       q    Type
REMARK                         _______ _______ _______ _____ _____    ______ ____
ATOM      1  O   UNL     1      63.051  63.450  52.648  0.00  0.00    +0.000 OA
ATOM      2  C   UNL     1      62.911  64.173  53.020  0.00  0.00    +0.000 C 
ATOM      3  C   UNL     1      62.383  64.713  52.686  0.00  0.00    +0.000 C 
ATOM      4  N   UNL     1      62.244  65.435  53.058  0.00  0.00    +0.000 NA
ATOM      5  C   UNL     1      61.716  65.975  52.725  0.00  0.00    +0.000 C 
ATOM      6  C   UNL     1      61.576  66.698  53.097  0.00  0.00    +0.000 C 
ATOM      7  N   UNL     1      61.048  67.238  52.763  0.00  0.00    +0.000 NA
ATOM      8  C   UNL     1      60.908  67.961  53.135  0.00  0.00    +0.000 A 
ATOM      9  C   UNL     1      60.381  68.500  52.801  0.00  0.00    +0.000 A 
ATOM     10  C   UNL     1      60.240  69.224  53.173  0.00  0.00    +0.000 A 
ATOM     11  C   UNL     1      60.628  69.407  53.878  0.00  0.00    +0.000 A 
ATOM     12  N   UNL     1      60.488  70.130  54.250  0.00  0.00    +0.000 NA
ATOM     13  C   UNL     1      59.960  70.670  53.917  0.00  0.00    +0.000 C 
ATOM     14  C   UNL     1      59.820  71.393  54.288  0.00  0.00    +0.000 C 
ATOM     15  N   UNL     1      59.292  71.933  53.955  0.00  0.00    +0.000 NA
ATOM     16  C   UNL     1      59.152  72.655  54.326  0.00  0.00    +0.000 C 
ATOM     17  C   UNL     1      58.625  73.196  53.994  0.00  0.00    +0.000 C 
ATOM     18  O   UNL     1      58.484  73.918  54.365  0.00  0.00    +0.000 OA
ATOM     19  C   UNL     1      61.155  68.867  54.211  0.00  0.00    +0.000 A 
ATOM     20  C   UNL     1      61.296  68.144  53.840  0.00  0.00    +0.000 A 
ATOM     21  C   UNL     1      61.823  67.605  54.173  0.00  0.00    +0.000 C 
ATOM     22  O   UNL     1      61.963  66.882  53.802  0.00  0.00    +0.000 OA
ATOM     23  C   UNL     1      62.210  67.789  54.879  0.00  0.00    +0.000 A 
ATOM     24  C   UNL     1      62.738  67.248  55.212  0.00  0.00    +0.000 A 
ATOM     25  O   UNL     1      62.879  66.525  54.840  0.00  0.00    +0.000 OA
ATOM     26  C   UNL     1      63.125  67.432  55.917  0.00  0.00    +0.000 A 
ATOM     27  C   UNL     1      62.985  68.155  56.289  0.00  0.00    +0.000 A 
ATOM     28  C   UNL     1      62.457  68.694  55.955  0.00  0.00    +0.000 A 
ATOM     29  O   UNL     1      62.318  69.417  56.327  0.00  0.00    +0.000 OA
ATOM     30  C   UNL     1      62.070  68.511  55.250  0.00  0.00    +0.000 A 
ATOM     31  C   UNL     1      61.543  69.051  54.917  0.00  0.00    +0.000 C 
ATOM     32  O   UNL     1      61.402  69.774  55.288  0.00  0.00    +0.000 OA
ENDROOT
TORSDOF 0
ENDMDL
MODEL 5
REMARK VINA RESULT:   -10.379     15.783     17.240
REMARK INTER + INTRA:         -10.379
REMARK INTER:                 -10.379
REMARK INTRA:                   0.000
REMARK UNBOUND:                 0.000
ROOT
REMARK  Name = mitoxantrone
REMARK                            x       y       z     vdW  Elec       q    Type
REMARK                         _______ _______ _______ _____ _____    ______ ____
ATOM      1  O   UNL     1      60.376  58.087  51.106  0.00  0.00    +0.000 OA
ATOM      2  C   UNL     1      60.818  58.672  51.485  0.00  0.00    +0.000 C 
ATOM      3  C   UNL     1      60.551  59.453  51.488  0.00  0.00    +0.000 C 
ATOM      4  N   UNL     1      60.993  60.038  51.867  0.00  0.00    +0.000 NA
ATOM      5  C   UNL     1      60.725  60.818  51.870  0.00  0.00    +0.000 C 
ATOM      6  C   UNL     1      61.167  61.404  52.248  0.00  0.00    +0.000 C 
ATOM      7  N   UNL     1      60.900  62.185  52.252  0.00  0.00    +0.000 NA
ATOM      8  C   UNL     1      61.342  62.770  52.630  0.00  0.00    +0.000 A 
ATOM      9  C   UNL     1      61.074  63.550  52.633  0.00  0.00    +0.000 A 
ATOM     10  C   UNL     1      61.516  64.136  53.012  0.00  0.00    +0.000 A 
ATOM     11  C   UNL     1      62.225  63.941  53.387  0.00  0.00    +0.000 A 
ATOM     12  N   UNL     1      62.666  64.526  53.765  0.00  0.00    +0.000 NA
ATOM     13  C   UNL     1      62.399  65.307  53.769  0.00  0.00    +0.000 C 
ATOM     14  C   UNL     1      62.840  65.891  54.147  0.00  0.00    +0.000 C 
ATOM     15  N   UNL     1      62.574  66.672  54.150  0.00  0.00    +0.000 NA
ATOM     16  C   UNL     1      63.015  67.257  54.528  0.00  0.00    +0.000 C 
ATOM     17  C   UNL     1      62.748  68.038  54.532  0.00  0.00    +0.000 C 
ATOM     18  O   UNL     1      63.189  68.623  54.910  0.00  0.00    +0.000 OA
ATOM     19  C   UNL     1      62.491  63.160  53.383  0.00  0.00    +0.000 A 
ATOM     20  C   UNL     1      62.050  62.575  53.005  0.00  0.00    +0.000 A 
ATOM     21  C   UNL     1      62.317  61.795  53.001  0.00  0.00    +0.000 C 
ATOM     22  O   UNL     1      61.876  61.209  52.623  0.00  0.00    +0.000 OA
ATOM     23  C   UNL     1      63.026  61.599  53.377  0.00  0.00    +0.000 A 
ATOM     24  C   UNL     1      63.293  60.818  53.373  0.00  0.00    +0.000 A 
ATOM     25  O   UNL     1      62.852  60.232  52.994  0.00  0.00    +0.000 OA
ATOM     26  C   UNL     1      64.002  60.623  53.747  0.00  0.00    +0.000 A 
ATOM     27  C   UNL     1      64.444  61.209  54.126  0.00  0.00    +0.000 A 
ATOM     28  C   UNL     1      64.176  61.989  54.129  0.00  0.00    +0.000 A 
ATOM     29  O   UNL     1      64.618  62.574  54.508  0.00  0.00    +0.000 OA
ATOM     30  C   UNL     1      63.468  62.184  53.754  0.00  0.00    +0.000 A 
ATOM     31  C   UNL     1      63.201  62.964  53.758  0.00  0.00    +0.000 C 
ATOM     32  O   UNL     1      63.642  63.550  54.136  0.00  0.00    +0.000 OA
ENDROOT
TORSDOF 0
ENDMDL
MODEL 6
REMARK VINA RESULT:   -10.264     15.485     16.771
REMARK INTER + INTRA:         -10.264
REMARK INTER:                 -10.264
REMARK INTRA:                   0.000
REMARK UNBOUND:                 0.000
ROOT
REMARK  Name = mitoxantrone
REMARK                            x       y       z     vdW  Elec       q    Type
REMARK                         _______ _______ _______ _____ _____    ______ ____
ATOM      1  O   UNL     1      59.902  71.808  54.559  0.00  0.00    +0.000 OA
ATOM      2  C   UNL     1      60.102  71.084  54.218  0.00  0.00    +0.000 C 
ATOM      3  C   UNL     1      60.521  70.524  54.657  0.00  0.00    +0.000 C 
ATOM      4  N   UNL     1      60.721  69.800  54.316  0.00  0.00    +0.000 NA
ATOM      5  C   UNL     1      61.139  69.241  54.755  0.00  0.00    +0.000 C 
ATOM      6  C   UNL     1      61.339  68.516  54.414  0.00  0.00    +0.000 C 
ATOM      7  N   UNL     1      61.758  67.955  54.853  0.00  0.00    +0.000 NA
ATOM      8  C   UNL     1      61.958  67.231  54.512  0.00  0.00    +0.000 A 
ATOM      9  C   UNL     1      62.376  66.672  54.951  0.00  0.00    +0.000 A 
ATOM     10  C   UNL     1      62.577  65.947  54.610  0.00  0.00    +0.000 A 
ATOM     11  C   UNL     1      62.359  65.783  53.832  0.00  0.00    +0.000 A 
ATOM     12  N   UNL     1      62.559  65.059  53.492  0.00  0.00    +0.000 NA
ATOM     13  C   UNL     1      62.978  64.498  53.930  0.00  0.00    +0.000 C 
ATOM     14  C   UNL     1      63.178  63.774  53.590  0.00  0.00    +0.000 C 
ATOM     15  N   UNL     1      63.597  63.214  54.028  0.00  0.00    +0.000 NA
ATOM     16  C   UNL     1      63.797  62.490  53.688  0.00  0.00    +0.000 C 
ATOM     17  C   UNL     1      64.215  61.929  54.126  0.00  0.00    +0.000 C 
ATOM     18  O   UNL     1      64.416  61.206  53.786  0.00  0.00    +0.000 OA
ATOM     19  C   UNL     1      61.941  66.343  53.394  0.00  0.00    +0.000 A 
ATOM     20  C   UNL     1      61.740  67.067  53.734  0.00  0.00    +0.000 A 
ATOM     21  C   UNL     1      61.322  67.627  53.296  0.00  0.00    +0.000 C 
ATOM     22  O   UNL     1      61.122  68.351  53.636  0.00  0.00    +0.000 OA
ATOM     23  C   UNL     1      61.104  67.462  52.516  0.00  0.00    +0.000 A 
ATOM     24  C   UNL     1      60.686  68.022  52.078  0.00  0.00    +0.000 A 
ATOM     25  O   UNL     1      60.485  68.747  52.418  0.00  0.00    +0.000 OA
ATOM     26  C   UNL     1      60.468  67.858  51.300  0.00  0.00    +0.000 A 
ATOM     27  C   UNL     1      60.669  67.133  50.959  0.00  0.00    +0.000 A 
ATOM     28  C   UNL     1      61.087  66.574  51.398  0.00  0.00    +0.000 A 
ATOM     29  O   UNL     1      61.287  65.850  51.057  0.00  0.00    +0.000 OA
ATOM     30  C   UNL     1      61.305  66.738  52.177  0.00  0.00    +0.000 A 
ATOM     31  C   UNL     1      61.723  66.178  52.614  0.00  0.00    +0.000 C 
ATOM     32  O   UNL     1      61.923  65.454  52.275  0.00  0.00    +0.000 OA
ENDROOT
TORSDOF 0
ENDMDL
