MODEL 1
REMARK VINA RESULT:   -10.159      0.000      0.000
REMARK INTER + INTRA:         -10.159
REMARK INTER:                 -10.159
REMARK INTRA:                   0.000
REMARK UNBOUND:                 0.000
ROOT
REMARK  Name = mitomycin
REMARK                            x       y       z     vdW  Elec       q    Type
REMARK                         _______ _______ _______ _____ _____    ______ ____
ATOM      1  C   UNL     1      63.969  66.890  71.430  0.00  0.00    +0.000 C 
ATOM      2  O   UNL     1      63.620  66.152  71.314  0.00  0.00    +0.000 OA
ATOM      3  C   UNL     1      63.024  65.892  71.823  0.00  0.00    +0.000 C 
ATOM      4  C   UNL     1      63.265  66.641  72.073  0.00  0.00    +0.000 C 
ATOM      5  N   UNL     1      63.386  67.366  72.445  0.00  0.00    +0.000 NA
ATOM      6  C   UNL     1      62.818  66.843  72.736  0.00  0.00    +0.000 C 
ATOM      7  C   UNL     1      62.302  66.221  72.897  0.00  0.00    +0.000 C 
ATOM      8  N   UNL     1      62.430  65.633  72.332  0.00  0.00    +0.000 N 
ATOM      9  C   UNL     1      62.189  64.883  72.082  0.00  0.00    +0.000 C 
ATOM     10  C   UNL     1      62.636  64.681  71.419  0.00  0.00    +0.000 C 
ATOM     11  C   UNL     1      63.152  65.304  71.259  0.00  0.00    +0.000 C 
ATOM     12  C   UNL     1      63.700  65.333  70.643  0.00  0.00    +0.000 C 
ATOM     13  O   UNL     1      64.182  65.997  70.550  0.00  0.00    +0.000 OA
ATOM     14  C   UNL     1      64.730  66.027  69.934  0.00  0.00    +0.000 C 
ATOM     15  N   UNL     1      65.211  66.690  69.843  0.00  0.00    +0.000 NA
ATOM     16  O   UNL     1      64.795  65.393  69.410  0.00  0.00    +0.000 OA
ATOM     17  C   UNL     1      62.515  63.955  71.047  0.00  0.00    +0.000 C 
ATOM     18  O   UNL     1      62.961  63.752  70.383  0.00  0.00    +0.000 OA
ATOM     19  C   UNL     1      61.946  63.432  71.338  0.00  0.00    +0.000 C 
ATOM     20  N   UNL     1      61.825  62.706  70.965  0.00  0.00    +0.000 NA
ATOM     21  C   UNL     1      61.500  63.634  72.001  0.00  0.00    +0.000 C 
ATOM     22  C   UNL     1      60.932  63.111  72.292  0.00  0.00    +0.000 C 
ATOM     23  C   UNL     1      61.621  64.360  72.373  0.00  0.00    +0.000 C 
ATOM     24  O   UNL     1      61.175  64.564  73.036  0.00  0.00    +0.000 OA
ENDROOT
TORSDOF 0
ENDMDL
MODEL 2
REMARK VINA RESULT:   -10.154      3.139      3.865
REMARK INTER + INTRA:         -10.154
REMARK INTER:                 -10.154
REMARK INTRA:                   0.000
REMARK UNBOUND:                 0.000
ROOT
REMARK  Name = mitomycin
REMARK                            x       y       z     vdW  Elec       q    Type
REMARK                         _______ _______ _______ _____ _____    ______ ____
ATOM      1  C   UNL     1      59.868  64.293  68.738  0.00  0.00    +0.000 C 
ATOM      2  O   UNL     1      60.203  63.762  69.274  0.00  0.00    +0.000 OA
ATOM      3  C   UNL     1      60.362  64.000  70.048  0.00  0.00    +0.000 C 
ATOM      4  C   UNL     1      60.033  64.641  69.645  0.00  0.00    +0.000 C 
ATOM      5  N   UNL     1      59.724  65.363  69.394  0.00  0.00    +0.000 NA
ATOM      6  C   UNL     1      59.989  65.276  70.171  0.00  0.00    +0.000 C 
ATOM      7  C   UNL     1      60.290  65.027  70.897  0.00  0.00    +0.000 C 
ATOM      8  N   UNL     1      60.520  64.239  70.820  0.00  0.00    +0.000 N 
ATOM      9  C   UNL     1      60.849  63.597  71.223  0.00  0.00    +0.000 C 
ATOM     10  C   UNL     1      60.893  62.963  70.697  0.00  0.00    +0.000 C 
ATOM     11  C   UNL     1      60.592  63.211  69.971  0.00  0.00    +0.000 C 
ATOM     12  C   UNL     1      60.532  62.753  69.288  0.00  0.00    +0.000 C 
ATOM     13  O   UNL     1      60.217  63.078  68.598  0.00  0.00    +0.000 OA
ATOM     14  C   UNL     1      60.157  62.620  67.915  0.00  0.00    +0.000 C 
ATOM     15  N   UNL     1      59.842  62.945  67.226  0.00  0.00    +0.000 NA
ATOM     16  O   UNL     1      60.411  61.835  67.922  0.00  0.00    +0.000 OA
ATOM     17  C   UNL     1      61.202  62.240  70.948  0.00  0.00    +0.000 C 
ATOM     18  O   UNL     1      61.247  61.606  70.423  0.00  0.00    +0.000 OA
ATOM     19  C   UNL     1      61.467  62.153  71.725  0.00  0.00    +0.000 C 
ATOM     20  N   UNL     1      61.776  61.430  71.976  0.00  0.00    +0.000 NA
ATOM     21  C   UNL     1      61.423  62.786  72.250  0.00  0.00    +0.000 C 
ATOM     22  C   UNL     1      61.688  62.699  73.027  0.00  0.00    +0.000 C 
ATOM     23  C   UNL     1      61.114  63.509  71.999  0.00  0.00    +0.000 C 
ATOM     24  O   UNL     1      61.070  64.144  72.524  0.00  0.00    +0.000 OA
ENDROOT
TORSDOF 0
ENDMDL
MODEL 3
REMARK VINA RESULT:   -10.121      3.249      3.900
REMARK INTER + INTRA:         -10.121
REMARK INTER:                 -10.121
REMARK INTRA:                   0.000
REMARK UNBOUND:                 0.000
ROOT
REMARK  Name = mitomycin
REMARK                            x       y       z     vdW  Elec       q    Type
REMARK                         _______ _______ _______ _____ _____    ______ ____
ATOM      1  C   UNL     1      59.971  65.558  72.049  0.00  0.00    +0.000 C 
ATOM      2  O   UNL     1      59.985  65.206  71.303  0.00  0.00    +0.000 OA
ATOM      3  C   UNL     1      60.206  64.414  71.223  0.00  0.00    +0.000 C 
ATOM      4  C   UNL     1      60.243  64.611  72.024  0.00  0.00    +0.000 C 
ATOM      5  N   UNL     1      60.330  64.643  72.843  0.00  0.00    +0.000 NA
ATOM      6  C   UNL     1      60.486  63.940  72.439  0.00  0.00    +0.000 C 
ATOM      7  C   UNL     1      60.599  63.330  71.896  0.00  0.00    +0.000 C 
ATOM      8  N   UNL     1      60.426  63.624  71.145  0.00  0.00    +0.000 N 
ATOM      9  C   UNL     1      60.388  63.428  70.343  0.00  0.00    +0.000 C 
ATOM     10  C   UNL     1      60.145  64.098  69.929  0.00  0.00    +0.000 C 
ATOM     11  C   UNL     1      60.032  64.708  70.472  0.00  0.00    +0.000 C 
ATOM     12  C   UNL     1      59.788  65.476  70.295  0.00  0.00    +0.000 C 
ATOM     13  O   UNL     1      59.699  66.030  70.900  0.00  0.00    +0.000 OA
ATOM     14  C   UNL     1      59.455  66.798  70.724  0.00  0.00    +0.000 C 
ATOM     15  N   UNL     1      59.366  67.351  71.328  0.00  0.00    +0.000 NA
ATOM     16  O   UNL     1      59.301  67.012  69.942  0.00  0.00    +0.000 OA
ATOM     17  C   UNL     1      60.057  64.066  69.109  0.00  0.00    +0.000 C 
ATOM     18  O   UNL     1      59.814  64.735  68.693  0.00  0.00    +0.000 OA
ATOM     19  C   UNL     1      60.214  63.363  68.705  0.00  0.00    +0.000 C 
ATOM     20  N   UNL     1      60.126  63.331  67.885  0.00  0.00    +0.000 NA
ATOM     21  C   UNL     1      60.457  62.693  69.119  0.00  0.00    +0.000 C 
ATOM     22  C   UNL     1      60.613  61.991  68.715  0.00  0.00    +0.000 C 
ATOM     23  C   UNL     1      60.544  62.725  69.939  0.00  0.00    +0.000 C 
ATOM     24  O   UNL     1      60.787  62.056  70.355  0.00  0.00    +0.000 OA
ENDROOT
TORSDOF 0
ENDMDL
MODEL 4
REMARK VINA RESULT:   -10.107      2.043      3.339
REMARK INTER + INTRA:         -10.107
REMARK INTER:                 -10.107
REMARK INTRA:                   0.000
REMARK UNBOUND:                 0.000
ROOT
REMARK  Name = mitomycin
REMARK                            x       y       z     vdW  Elec       q    Type
REMARK                         _______ _______ _______ _____ _____    ______ ____
ATOM      1  C   UNL     1      62.022  64.154  72.040  0.00  0.00    +0.000 C 
ATOM      2  O   UNL     1      61.931  64.032  71.228  0.00  0.00    +0.000 OA
ATOM      3  C   UNL     1      61.472  63.403  70.954  0.00  0.00    +0.000 C 
ATOM      4  C   UNL     1      61.462  63.387  71.780  0.00  0.00    +0.000 C 
ATOM      5  N   UNL     1      61.351  63.231  72.581  0.00  0.00    +0.000 NA
ATOM      6  C   UNL     1      60.997  62.747  72.015  0.00  0.00    +0.000 C 
ATOM      7  C   UNL     1      60.720  62.369  71.336  0.00  0.00    +0.000 C 
ATOM      8  N   UNL     1      61.014  62.775  70.681  0.00  0.00    +0.000 N 
ATOM      9  C   UNL     1      61.024  62.793  69.855  0.00  0.00    +0.000 C 
ATOM     10  C   UNL     1      61.489  63.432  69.620  0.00  0.00    +0.000 C 
ATOM     11  C   UNL     1      61.766  63.810  70.299  0.00  0.00    +0.000 C 
ATOM     12  C   UNL     1      62.251  64.476  70.319  0.00  0.00    +0.000 C 
ATOM     13  O   UNL     1      62.486  64.795  71.044  0.00  0.00    +0.000 OA
ATOM     14  C   UNL     1      62.971  65.462  71.064  0.00  0.00    +0.000 C 
ATOM     15  N   UNL     1      63.205  65.780  71.788  0.00  0.00    +0.000 NA
ATOM     16  O   UNL     1      63.223  65.810  70.360  0.00  0.00    +0.000 OA
ATOM     17  C   UNL     1      61.600  63.588  68.818  0.00  0.00    +0.000 C 
ATOM     18  O   UNL     1      62.065  64.227  68.582  0.00  0.00    +0.000 OA
ATOM     19  C   UNL     1      61.246  63.103  68.251  0.00  0.00    +0.000 C 
ATOM     20  N   UNL     1      61.357  63.259  67.448  0.00  0.00    +0.000 NA
ATOM     21  C   UNL     1      60.781  62.464  68.486  0.00  0.00    +0.000 C 
ATOM     22  C   UNL     1      60.427  61.980  67.919  0.00  0.00    +0.000 C 
ATOM     23  C   UNL     1      60.670  62.309  69.289  0.00  0.00    +0.000 C 
ATOM     24  O   UNL     1      60.205  61.669  69.524  0.00  0.00    +0.000 OA
ENDROOT
TORSDOF 0
ENDMDL
MODEL 5
REMARK VINA RESULT:   -10.054      3.169      3.946
REMARK INTER + INTRA:         -10.054
REMARK INTER:                 -10.054
REMARK INTRA:                   0.000
REMARK UNBOUND:                 0.000
ROOT
REMARK  Name = mitomycin
REMARK                            x       y       z     vdW  Elec       q    Type
REMARK                         _______ _______ _______ _____ _____    ______ ____
ATOM      1  C   UNL     1      59.426  66.329  70.279  0.00  0.00    +0.000 C 
ATOM      2  O   UNL     1      59.732  65.749  70.780  0.00  0.00    +0.000 OA
ATOM      3  C   UNL     1      60.023  65.043  70.465  0.00  0.00    +0.000 C 
ATOM      4  C   UNL     1      59.757  65.512  69.840  0.00  0.00    +0.000 C 
ATOM      5  N   UNL     1      59.543  65.846  69.117  0.00  0.00    +0.000 NA
ATOM      6  C   UNL     1      59.884  65.095  69.139  0.00  0.00    +0.000 C 
ATOM      7  C   UNL     1      60.227  64.371  69.330  0.00  0.00    +0.000 C 
ATOM      8  N   UNL     1      60.313  64.339  70.151  0.00  0.00    +0.000 N 
ATOM      9  C   UNL     1      60.579  63.871  70.777  0.00  0.00    +0.000 C 
ATOM     10  C   UNL     1      60.452  64.287  71.477  0.00  0.00    +0.000 C 
ATOM     11  C   UNL     1      60.108  65.011  71.285  0.00  0.00    +0.000 C 
ATOM     12  C   UNL     1      59.889  65.601  71.819  0.00  0.00    +0.000 C 
ATOM     13  O   UNL     1      59.549  66.301  71.545  0.00  0.00    +0.000 OA
ATOM     14  C   UNL     1      59.329  66.891  72.078  0.00  0.00    +0.000 C 
ATOM     15  N   UNL     1      58.990  67.590  71.804  0.00  0.00    +0.000 NA
ATOM     16  O   UNL     1      59.450  66.780  72.887  0.00  0.00    +0.000 OA
ATOM     17  C   UNL     1      60.666  63.952  72.200  0.00  0.00    +0.000 C 
ATOM     18  O   UNL     1      60.540  64.367  72.901  0.00  0.00    +0.000 OA
ATOM     19  C   UNL     1      61.007  63.201  72.221  0.00  0.00    +0.000 C 
ATOM     20  N   UNL     1      61.221  62.866  72.944  0.00  0.00    +0.000 NA
ATOM     21  C   UNL     1      61.134  62.784  71.521  0.00  0.00    +0.000 C 
ATOM     22  C   UNL     1      61.475  62.033  71.542  0.00  0.00    +0.000 C 
ATOM     23  C   UNL     1      60.920  63.120  70.798  0.00  0.00    +0.000 C 
ATOM     24  O   UNL     1      61.046  62.704  70.097  0.00  0.00    +0.000 OA
ENDROOT
TORSDOF 0
ENDMDL
MODEL 6
REMARK VINA RESULT:   -10.027      3.503      4.426
REMARK INTER + INTRA:         -10.027
REMARK INTER:                 -10.027
REMARK INTRA:                   0.000
REMARK UNBOUND:                 0.000
ROOT
REMARK  Name = mitomycin
REMARK                            x       y       z     vdW  Elec       q    Type
REMARK                         _______ _______ _______ _____ _____    ______ ____
ATOM      1  C   UNL     1      60.810  62.054  69.287  0.00  0.00    +0.000 C 
ATOM      2  O   UNL     1      60.615  62.855  69.321  0.00  0.00    +0.000 OA
ATOM      3  C   UNL     1      60.387  63.194  70.038  0.00  0.00    +0.000 C 
ATOM      4  C   UNL     1      60.547  62.395  70.172  0.00  0.00    +0.000 C 
ATOM      5  N   UNL     1      60.664  61.635  70.470  0.00  0.00    +0.000 NA
ATOM      6  C   UNL     1      60.417  62.241  70.973  0.00  0.00    +0.000 C 
ATOM      7  C   UNL     1      60.177  62.943  71.333  0.00  0.00    +0.000 C 
ATOM      8  N   UNL     1      60.159  63.532  70.755  0.00  0.00    +0.000 N 
ATOM      9  C   UNL     1      59.999  64.331  70.620  0.00  0.00    +0.000 C 
ATOM     10  C   UNL     1      60.128  64.484  69.820  0.00  0.00    +0.000 C 
ATOM     11  C   UNL     1      60.368  63.782  69.460  0.00  0.00    +0.000 C 
ATOM     12  C   UNL     1      60.556  63.685  68.663  0.00  0.00    +0.000 C 
ATOM     13  O   UNL     1      60.788  62.945  68.380  0.00  0.00    +0.000 OA
ATOM     14  C   UNL     1      60.976  62.848  67.583  0.00  0.00    +0.000 C 
ATOM     15  N   UNL     1      61.208  62.109  67.301  0.00  0.00    +0.000 NA
ATOM     16  O   UNL     1      60.932  63.491  67.068  0.00  0.00    +0.000 OA
ATOM     17  C   UNL     1      60.011  65.245  69.522  0.00  0.00    +0.000 C 
ATOM     18  O   UNL     1      60.140  65.400  68.723  0.00  0.00    +0.000 OA
ATOM     19  C   UNL     1      59.764  65.851  70.025  0.00  0.00    +0.000 C 
ATOM     20  N   UNL     1      59.647  66.612  69.728  0.00  0.00    +0.000 NA
ATOM     21  C   UNL     1      59.635  65.697  70.825  0.00  0.00    +0.000 C 
ATOM     22  C   UNL     1      59.388  66.303  71.328  0.00  0.00    +0.000 C 
ATOM     23  C   UNL     1      59.752  64.937  71.123  0.00  0.00    +0.000 C 
ATOM     24  O   UNL     1      59.623  64.782  71.922  0.00  0.00    +0.000 OA
ENDROOT
TORSDOF 0
ENDMDL
MODEL 7
REMARK VINA RESULT:    -9.922      1.259      4.009
REMARK INTER + INTRA:          -9.922
REMARK INTER:                  -9.922
REMARK INTRA:                   0.000
REMARK UNBOUND:                 0.000
ROOT
REMARK  Name = mitomycin
REMARK                            x       y       z     vdW  Elec       q    Type
REMARK                         _______ _______ _______ _____ _____    ______ ____
ATOM      1  C   UNL     1      62.060  64.316  70.968  0.00  0.00    +0.000 C 
ATOM      2  O   UNL     1      62.597  64.915  71.151  0.00  0.00    +0.000 OA
ATOM      3  C   UNL     1      63.219  65.084  70.635  0.00  0.00    +0.000 C 
ATOM      4  C   UNL     1      62.777  64.466  70.311  0.00  0.00    +0.000 C 
ATOM      5  N   UNL     1      62.453  63.858  69.859  0.00  0.00    +0.000 NA
ATOM      6  C   UNL     1      63.127  64.253  69.594  0.00  0.00    +0.000 C 
ATOM      7  C   UNL     1      63.783  64.738  69.476  0.00  0.00    +0.000 C 
ATOM      8  N   UNL     1      63.840  65.252  70.119  0.00  0.00    +0.000 N 
ATOM      9  C   UNL     1      64.281  65.870  70.445  0.00  0.00    +0.000 C 
ATOM     10  C   UNL     1      63.931  66.082  71.160  0.00  0.00    +0.000 C 
ATOM     11  C   UNL     1      63.275  65.597  71.279  0.00  0.00    +0.000 C 
ATOM     12  C   UNL     1      62.765  65.620  71.926  0.00  0.00    +0.000 C 
ATOM     13  O   UNL     1      62.128  65.097  71.970  0.00  0.00    +0.000 OA
ATOM     14  C   UNL     1      61.617  65.121  72.617  0.00  0.00    +0.000 C 
ATOM     15  N   UNL     1      60.981  64.598  72.660  0.00  0.00    +0.000 NA
ATOM     16  O   UNL     1      61.744  65.667  73.222  0.00  0.00    +0.000 OA
ATOM     17  C   UNL     1      64.256  66.691  71.613  0.00  0.00    +0.000 C 
ATOM     18  O   UNL     1      63.907  66.904  72.329  0.00  0.00    +0.000 OA
ATOM     19  C   UNL     1      64.931  67.086  71.348  0.00  0.00    +0.000 C 
ATOM     20  N   UNL     1      65.255  67.695  71.801  0.00  0.00    +0.000 NA
ATOM     21  C   UNL     1      65.280  66.874  70.632  0.00  0.00    +0.000 C 
ATOM     22  C   UNL     1      65.954  67.269  70.368  0.00  0.00    +0.000 C 
ATOM     23  C   UNL     1      64.955  66.265  70.180  0.00  0.00    +0.000 C 
ATOM     24  O   UNL     1      65.304  66.052  69.464  0.00  0.00    +0.000 OA
ENDROOT
TORSDOF 0
ENDMDL
MODEL 8
REMARK VINA RESULT:    -9.837      1.088      3.269
REMARK INTER + INTRA:          -9.837
REMARK INTER:                  -9.837
REMARK INTRA:                   0.000
REMARK UNBOUND:                 0.000
ROOT
REMARK  Name = mitomycin
REMARK                            x       y       z     vdW  Elec       q    Type
REMARK                         _______ _______ _______ _____ _____    ______ ____
ATOM      1  C   UNL     1      60.879  64.259  72.223  0.00  0.00    +0.000 C 
ATOM      2  O   UNL     1      61.541  64.319  71.734  0.00  0.00    +0.000 OA
ATOM      3  C   UNL     1      62.080  64.934  71.842  0.00  0.00    +0.000 C 
ATOM      4  C   UNL     1      61.482  65.016  72.406  0.00  0.00    +0.000 C 
ATOM      5  N   UNL     1      60.976  65.236  73.018  0.00  0.00    +0.000 NA
ATOM      6  C   UNL     1      61.653  65.682  72.862  0.00  0.00    +0.000 C 
ATOM      7  C   UNL     1      62.354  66.012  72.581  0.00  0.00    +0.000 C 
ATOM      8  N   UNL     1      62.618  65.549  71.951  0.00  0.00    +0.000 N 
ATOM      9  C   UNL     1      63.216  65.467  71.387  0.00  0.00    +0.000 C 
ATOM     10  C   UNL     1      63.046  64.801  70.931  0.00  0.00    +0.000 C 
ATOM     11  C   UNL     1      62.344  64.472  71.212  0.00  0.00    +0.000 C 
ATOM     12  C   UNL     1      61.972  63.798  70.915  0.00  0.00    +0.000 C 
ATOM     13  O   UNL     1      61.268  63.532  71.254  0.00  0.00    +0.000 OA
ATOM     14  C   UNL     1      60.895  62.859  70.957  0.00  0.00    +0.000 C 
ATOM     15  N   UNL     1      60.193  62.593  71.296  0.00  0.00    +0.000 NA
ATOM     16  O   UNL     1      61.227  62.451  70.321  0.00  0.00    +0.000 OA
ATOM     17  C   UNL     1      63.553  64.581  70.318  0.00  0.00    +0.000 C 
ATOM     18  O   UNL     1      63.383  63.916  69.862  0.00  0.00    +0.000 OA
ATOM     19  C   UNL     1      64.229  65.027  70.162  0.00  0.00    +0.000 C 
ATOM     20  N   UNL     1      64.736  64.807  69.550  0.00  0.00    +0.000 NA
ATOM     21  C   UNL     1      64.399  65.693  70.618  0.00  0.00    +0.000 C 
ATOM     22  C   UNL     1      65.076  66.139  70.462  0.00  0.00    +0.000 C 
ATOM     23  C   UNL     1      63.893  65.913  71.231  0.00  0.00    +0.000 C 
ATOM     24  O   UNL     1      64.062  66.579  71.687  0.00  0.00    +0.000 OA
ENDROOT
TORSDOF 0
ENDMDL
MODEL 9
REMARK VINA RESULT:    -9.826      1.071      2.292
REMARK INTER + INTRA:          -9.826
REMARK INTER:                  -9.826
REMARK INTRA:                   0.000
REMARK UNBOUND:                 0.000
ROOT
REMARK  Name = mitomycin
REMARK                            x       y       z     vdW  Elec       q    Type
REMARK                         _______ _______ _______ _____ _____    ______ ____
ATOM      1  C   UNL     1      64.294  66.205  70.938  0.00  0.00    +0.000 C 
ATOM      2  O   UNL     1      63.627  65.886  71.304  0.00  0.00    +0.000 OA
ATOM      3  C   UNL     1      63.335  65.152  71.063  0.00  0.00    +0.000 C 
ATOM      4  C   UNL     1      63.998  65.327  70.604  0.00  0.00    +0.000 C 
ATOM      5  N   UNL     1      64.627  65.349  70.071  0.00  0.00    +0.000 NA
ATOM      6  C   UNL     1      64.115  64.701  70.079  0.00  0.00    +0.000 C 
ATOM      7  C   UNL     1      63.526  64.140  70.214  0.00  0.00    +0.000 C 
ATOM      8  N   UNL     1      63.044  64.420  70.823  0.00  0.00    +0.000 N 
ATOM      9  C   UNL     1      62.381  64.246  71.283  0.00  0.00    +0.000 C 
ATOM     10  C   UNL     1      62.263  64.871  71.807  0.00  0.00    +0.000 C 
ATOM     11  C   UNL     1      62.853  65.432  71.672  0.00  0.00    +0.000 C 
ATOM     12  C   UNL     1      62.944  66.146  72.074  0.00  0.00    +0.000 C 
ATOM     13  O   UNL     1      63.564  66.655  71.877  0.00  0.00    +0.000 OA
ATOM     14  C   UNL     1      63.656  67.369  72.279  0.00  0.00    +0.000 C 
ATOM     15  N   UNL     1      64.275  67.876  72.083  0.00  0.00    +0.000 NA
ATOM     16  O   UNL     1      63.127  67.576  72.879  0.00  0.00    +0.000 OA
ATOM     17  C   UNL     1      61.634  64.850  72.340  0.00  0.00    +0.000 C 
ATOM     18  O   UNL     1      61.516  65.475  72.865  0.00  0.00    +0.000 OA
ATOM     19  C   UNL     1      61.123  64.202  72.349  0.00  0.00    +0.000 C 
ATOM     20  N   UNL     1      60.494  64.180  72.882  0.00  0.00    +0.000 NA
ATOM     21  C   UNL     1      61.240  63.576  71.824  0.00  0.00    +0.000 C 
ATOM     22  C   UNL     1      60.729  62.929  71.833  0.00  0.00    +0.000 C 
ATOM     23  C   UNL     1      61.869  63.598  71.291  0.00  0.00    +0.000 C 
ATOM     24  O   UNL     1      61.987  62.973  70.767  0.00  0.00    +0.000 OA
ENDROOT
TORSDOF 0
ENDMDL
