MODEL 1
REMARK VINA RESULT:    -9.547      0.000      0.000
REMARK INTER + INTRA:          -9.547
REMARK INTER:                  -9.547
REMARK INTRA:                   0.000
REMARK UNBOUND:                 0.000
ROOT
REMARK  Name = mivotilate
REMARK                            x       y       z     vdW  Elec       q    Type
REMARK                         _______ _______ _______ _____ _____    ______ ____
ATOM      1  C   UNL     1      61.269  61.275  63.977  0.00  0.00    +0.000 C 
ATOM      2  C   UNL     1      61.579  61.673  64.630  0.00  0.00    +0.000 C 
ATOM      3  C   UNL     1      62.384  61.851  64.660  0.00  0.00    +0.000 C 
ATOM      4  O   UNL     1      61.084  61.893  65.252  0.00  0.00    +0.000 OA
ATOM      5  C   UNL     1      61.393  62.291  65.905  0.00  0.00    +0.000 C 
ATOM      6  O   UNL     1      62.198  62.469  65.935  0.00  0.00    +0.000 OA
ATOM      7  C   UNL     1      60.899  62.511  66.528  0.00  0.00    +0.000 C 
ATOM      8  C   UNL     1      61.208  62.908  67.180  0.00  0.00    +0.000 C 
ATOM      9  O   UNL     1      62.013  63.087  67.210  0.00  0.00    +0.000 OA
ATOM     10  N   UNL     1      60.714  63.129  67.803  0.00  0.00    +0.000 NA
ATOM     11  C   UNL     1      61.023  63.526  68.455  0.00  0.00    +0.000 A 
ATOM     12  N   UNL     1      60.598  63.780  69.115  0.00  0.00    +0.000 NA
ATOM     13  C   UNL     1      61.125  64.151  69.631  0.00  0.00    +0.000 A 
ATOM     14  C   UNL     1      60.935  64.488  70.360  0.00  0.00    +0.000 C 
ATOM     15  C   UNL     1      61.875  64.127  69.289  0.00  0.00    +0.000 A 
ATOM     16  S   UNL     1      61.813  63.742  68.563  0.00  0.00    +0.000 S 
ATOM     17  C   UNL     1      60.094  62.332  66.497  0.00  0.00    +0.000 C 
ATOM     18  S   UNL     1      59.601  61.954  65.955  0.00  0.00    +0.000 S 
ATOM     19  C   UNL     1      58.955  62.080  66.454  0.00  0.00    +0.000 C 
ATOM     20  S   UNL     1      59.449  62.458  66.996  0.00  0.00    +0.000 S 
ENDROOT
TORSDOF 0
ENDMDL
MODEL 2
REMARK VINA RESULT:    -9.480      1.692      4.333
REMARK INTER + INTRA:          -9.480
REMARK INTER:                  -9.480
REMARK INTRA:                   0.000
REMARK UNBOUND:                 0.000
ROOT
REMARK  Name = mivotilate
REMARK                            x       y       z     vdW  Elec       q    Type
REMARK                         _______ _______ _______ _____ _____    ______ ____
ATOM      1  C   UNL     1      60.441  62.733  71.567  0.00  0.00    +0.000 C 
ATOM      2  C   UNL     1      60.466  62.390  70.818  0.00  0.00    +0.000 C 
ATOM      3  C   UNL     1      60.134  61.645  70.694  0.00  0.00    +0.000 C 
ATOM      4  O   UNL     1      60.823  62.792  70.192  0.00  0.00    +0.000 OA
ATOM      5  C   UNL     1      60.849  62.449  69.442  0.00  0.00    +0.000 C 
ATOM      6  O   UNL     1      60.517  61.704  69.318  0.00  0.00    +0.000 OA
ATOM      7  C   UNL     1      61.206  62.851  68.816  0.00  0.00    +0.000 C 
ATOM      8  C   UNL     1      61.231  62.508  68.067  0.00  0.00    +0.000 C 
ATOM      9  O   UNL     1      60.899  61.763  67.943  0.00  0.00    +0.000 OA
ATOM     10  N   UNL     1      61.588  62.909  67.440  0.00  0.00    +0.000 NA
ATOM     11  C   UNL     1      61.613  62.567  66.691  0.00  0.00    +0.000 A 
ATOM     12  N   UNL     1      61.950  62.900  66.015  0.00  0.00    +0.000 NA
ATOM     13  C   UNL     1      61.851  62.369  65.392  0.00  0.00    +0.000 A 
ATOM     14  C   UNL     1      62.105  62.481  64.614  0.00  0.00    +0.000 C 
ATOM     15  C   UNL     1      61.453  61.707  65.682  0.00  0.00    +0.000 A 
ATOM     16  S   UNL     1      61.306  61.829  66.484  0.00  0.00    +0.000 S 
ATOM     17  C   UNL     1      61.538  63.596  68.940  0.00  0.00    +0.000 C 
ATOM     18  S   UNL     1      61.616  64.098  69.589  0.00  0.00    +0.000 S 
ATOM     19  C   UNL     1      62.007  64.649  69.115  0.00  0.00    +0.000 C 
ATOM     20  S   UNL     1      61.928  64.146  68.466  0.00  0.00    +0.000 S 
ENDROOT
TORSDOF 0
ENDMDL
MODEL 3
REMARK VINA RESULT:    -9.172      1.727      4.312
REMARK INTER + INTRA:          -9.172
REMARK INTER:                  -9.172
REMARK INTRA:                   0.000
REMARK UNBOUND:                 0.000
ROOT
REMARK  Name = mivotilate
REMARK                            x       y       z     vdW  Elec       q    Type
REMARK                         _______ _______ _______ _____ _____    ______ ____
ATOM      1  C   UNL     1      59.697  65.211  71.021  0.00  0.00    +0.000 C 
ATOM      2  C   UNL     1      59.934  65.079  70.243  0.00  0.00    +0.000 C 
ATOM      3  C   UNL     1      59.965  65.708  69.709  0.00  0.00    +0.000 C 
ATOM      4  O   UNL     1      60.141  64.320  69.996  0.00  0.00    +0.000 OA
ATOM      5  C   UNL     1      60.379  64.188  69.218  0.00  0.00    +0.000 C 
ATOM      6  O   UNL     1      60.409  64.817  68.684  0.00  0.00    +0.000 OA
ATOM      7  C   UNL     1      60.586  63.428  68.971  0.00  0.00    +0.000 C 
ATOM      8  C   UNL     1      60.823  63.297  68.193  0.00  0.00    +0.000 C 
ATOM      9  O   UNL     1      60.853  63.926  67.660  0.00  0.00    +0.000 OA
ATOM     10  N   UNL     1      61.030  62.537  67.947  0.00  0.00    +0.000 NA
ATOM     11  C   UNL     1      61.267  62.406  67.168  0.00  0.00    +0.000 A 
ATOM     12  N   UNL     1      61.490  61.680  66.844  0.00  0.00    +0.000 NA
ATOM     13  C   UNL     1      61.684  61.803  66.052  0.00  0.00    +0.000 A 
ATOM     14  C   UNL     1      61.936  61.226  65.519  0.00  0.00    +0.000 C 
ATOM     15  C   UNL     1      61.582  62.605  65.886  0.00  0.00    +0.000 A 
ATOM     16  S   UNL     1      61.325  62.977  66.575  0.00  0.00    +0.000 S 
ATOM     17  C   UNL     1      60.555  62.800  69.505  0.00  0.00    +0.000 C 
ATOM     18  S   UNL     1      60.353  62.719  70.300  0.00  0.00    +0.000 S 
ATOM     19  C   UNL     1      60.513  61.911  70.259  0.00  0.00    +0.000 C 
ATOM     20  S   UNL     1      60.715  61.992  69.464  0.00  0.00    +0.000 S 
ENDROOT
TORSDOF 0
ENDMDL
MODEL 4
REMARK VINA RESULT:    -9.022      4.433      6.172
REMARK INTER + INTRA:          -9.022
REMARK INTER:                  -9.022
REMARK INTRA:                   0.000
REMARK UNBOUND:                 0.000
ROOT
REMARK  Name = mivotilate
REMARK                            x       y       z     vdW  Elec       q    Type
REMARK                         _______ _______ _______ _____ _____    ______ ____
ATOM      1  C   UNL     1      60.878  63.602  72.072  0.00  0.00    +0.000 C 
ATOM      2  C   UNL     1      61.458  64.181  72.165  0.00  0.00    +0.000 C 
ATOM      3  C   UNL     1      61.536  64.575  72.885  0.00  0.00    +0.000 C 
ATOM      4  O   UNL     1      61.962  64.365  71.538  0.00  0.00    +0.000 OA
ATOM      5  C   UNL     1      62.542  64.943  71.630  0.00  0.00    +0.000 C 
ATOM      6  O   UNL     1      62.620  65.338  72.350  0.00  0.00    +0.000 OA
ATOM      7  C   UNL     1      63.045  65.127  71.003  0.00  0.00    +0.000 C 
ATOM      8  C   UNL     1      63.626  65.706  71.095  0.00  0.00    +0.000 C 
ATOM      9  O   UNL     1      63.703  66.100  71.815  0.00  0.00    +0.000 OA
ATOM     10  N   UNL     1      64.129  65.890  70.468  0.00  0.00    +0.000 NA
ATOM     11  C   UNL     1      64.709  66.468  70.560  0.00  0.00    +0.000 A 
ATOM     12  N   UNL     1      65.250  66.710  69.986  0.00  0.00    +0.000 NA
ATOM     13  C   UNL     1      65.726  67.298  70.314  0.00  0.00    +0.000 A 
ATOM     14  C   UNL     1      66.341  67.695  69.932  0.00  0.00    +0.000 C 
ATOM     15  C   UNL     1      65.480  67.419  71.092  0.00  0.00    +0.000 A 
ATOM     16  S   UNL     1      64.853  66.908  71.245  0.00  0.00    +0.000 S 
ATOM     17  C   UNL     1      62.968  64.733  70.283  0.00  0.00    +0.000 C 
ATOM     18  S   UNL     1      62.471  64.143  69.992  0.00  0.00    +0.000 S 
ATOM     19  C   UNL     1      62.858  64.174  69.264  0.00  0.00    +0.000 C 
ATOM     20  S   UNL     1      63.355  64.765  69.555  0.00  0.00    +0.000 S 
ENDROOT
TORSDOF 0
ENDMDL
MODEL 5
REMARK VINA RESULT:    -8.885      1.659      4.388
REMARK INTER + INTRA:          -8.885
REMARK INTER:                  -8.885
REMARK INTRA:                   0.000
REMARK UNBOUND:                 0.000
ROOT
REMARK  Name = mivotilate
REMARK                            x       y       z     vdW  Elec       q    Type
REMARK                         _______ _______ _______ _____ _____    ______ ____
ATOM      1  C   UNL     1      63.425  65.284  71.259  0.00  0.00    +0.000 C 
ATOM      2  C   UNL     1      63.282  64.920  70.534  0.00  0.00    +0.000 C 
ATOM      3  C   UNL     1      63.897  64.818  69.994  0.00  0.00    +0.000 C 
ATOM      4  O   UNL     1      62.522  64.656  70.347  0.00  0.00    +0.000 OA
ATOM      5  C   UNL     1      62.378  64.292  69.622  0.00  0.00    +0.000 C 
ATOM      6  O   UNL     1      62.994  64.190  69.082  0.00  0.00    +0.000 OA
ATOM      7  C   UNL     1      61.619  64.028  69.435  0.00  0.00    +0.000 C 
ATOM      8  C   UNL     1      61.475  63.664  68.710  0.00  0.00    +0.000 C 
ATOM      9  O   UNL     1      62.091  63.562  68.170  0.00  0.00    +0.000 OA
ATOM     10  N   UNL     1      60.716  63.400  68.523  0.00  0.00    +0.000 NA
ATOM     11  C   UNL     1      60.572  63.036  67.797  0.00  0.00    +0.000 A 
ATOM     12  N   UNL     1      59.846  62.746  67.535  0.00  0.00    +0.000 NA
ATOM     13  C   UNL     1      59.954  62.428  66.782  0.00  0.00    +0.000 A 
ATOM     14  C   UNL     1      59.371  62.078  66.314  0.00  0.00    +0.000 C 
ATOM     15  C   UNL     1      60.748  62.522  66.578  0.00  0.00    +0.000 A 
ATOM     16  S   UNL     1      61.130  62.897  67.205  0.00  0.00    +0.000 S 
ATOM     17  C   UNL     1      61.003  64.130  69.975  0.00  0.00    +0.000 C 
ATOM     18  S   UNL     1      60.937  64.457  70.728  0.00  0.00    +0.000 S 
ATOM     19  C   UNL     1      60.133  64.273  70.738  0.00  0.00    +0.000 C 
ATOM     20  S   UNL     1      60.200  63.945  69.984  0.00  0.00    +0.000 S 
ENDROOT
TORSDOF 0
ENDMDL
MODEL 6
REMARK VINA RESULT:    -8.628      4.028      5.130
REMARK INTER + INTRA:          -8.628
REMARK INTER:                  -8.628
REMARK INTRA:                   0.000
REMARK UNBOUND:                 0.000
ROOT
REMARK  Name = mivotilate
REMARK                            x       y       z     vdW  Elec       q    Type
REMARK                         _______ _______ _______ _____ _____    ______ ____
ATOM      1  C   UNL     1      60.132  61.989  70.974  0.00  0.00    +0.000 C 
ATOM      2  C   UNL     1      60.755  62.357  70.578  0.00  0.00    +0.000 C 
ATOM      3  C   UNL     1      60.967  62.106  69.821  0.00  0.00    +0.000 C 
ATOM      4  O   UNL     1      61.166  62.975  70.937  0.00  0.00    +0.000 OA
ATOM      5  C   UNL     1      61.789  63.343  70.541  0.00  0.00    +0.000 C 
ATOM      6  O   UNL     1      62.001  63.092  69.784  0.00  0.00    +0.000 OA
ATOM      7  C   UNL     1      62.200  63.961  70.901  0.00  0.00    +0.000 C 
ATOM      8  C   UNL     1      62.822  64.329  70.505  0.00  0.00    +0.000 C 
ATOM      9  O   UNL     1      63.035  64.078  69.748  0.00  0.00    +0.000 OA
ATOM     10  N   UNL     1      63.233  64.947  70.864  0.00  0.00    +0.000 NA
ATOM     11  C   UNL     1      63.856  65.315  70.468  0.00  0.00    +0.000 A 
ATOM     12  N   UNL     1      64.315  65.937  70.756  0.00  0.00    +0.000 NA
ATOM     13  C   UNL     1      64.872  66.132  70.180  0.00  0.00    +0.000 A 
ATOM     14  C   UNL     1      65.443  66.724  70.237  0.00  0.00    +0.000 C 
ATOM     15  C   UNL     1      64.757  65.630  69.535  0.00  0.00    +0.000 A 
ATOM     16  S   UNL     1      64.130  65.125  69.713  0.00  0.00    +0.000 S 
ATOM     17  C   UNL     1      61.987  64.212  71.657  0.00  0.00    +0.000 C 
ATOM     18  S   UNL     1      61.415  63.987  72.207  0.00  0.00    +0.000 S 
ATOM     19  C   UNL     1      61.687  64.567  72.728  0.00  0.00    +0.000 C 
ATOM     20  S   UNL     1      62.259  64.792  72.177  0.00  0.00    +0.000 S 
ENDROOT
TORSDOF 0
ENDMDL
MODEL 7
REMARK VINA RESULT:    -8.624      4.932      6.155
REMARK INTER + INTRA:          -8.624
REMARK INTER:                  -8.624
REMARK INTRA:                   0.000
REMARK UNBOUND:                 0.000
ROOT
REMARK  Name = mivotilate
REMARK                            x       y       z     vdW  Elec       q    Type
REMARK                         _______ _______ _______ _____ _____    ______ ____
ATOM      1  C   UNL     1      61.551  62.210  71.124  0.00  0.00    +0.000 C 
ATOM      2  C   UNL     1      61.486  62.908  71.558  0.00  0.00    +0.000 C 
ATOM      3  C   UNL     1      60.937  62.963  72.172  0.00  0.00    +0.000 C 
ATOM      4  O   UNL     1      61.970  63.552  71.380  0.00  0.00    +0.000 OA
ATOM      5  C   UNL     1      61.906  64.250  71.813  0.00  0.00    +0.000 C 
ATOM      6  O   UNL     1      61.357  64.305  72.427  0.00  0.00    +0.000 OA
ATOM      7  C   UNL     1      62.389  64.894  71.635  0.00  0.00    +0.000 C 
ATOM      8  C   UNL     1      62.325  65.592  72.069  0.00  0.00    +0.000 C 
ATOM      9  O   UNL     1      61.776  65.647  72.682  0.00  0.00    +0.000 OA
ATOM     10  N   UNL     1      62.809  66.237  71.890  0.00  0.00    +0.000 NA
ATOM     11  C   UNL     1      62.744  66.934  72.324  0.00  0.00    +0.000 A 
ATOM     12  N   UNL     1      63.188  67.620  72.210  0.00  0.00    +0.000 NA
ATOM     13  C   UNL     1      62.942  68.179  72.764  0.00  0.00    +0.000 A 
ATOM     14  C   UNL     1      63.240  68.945  72.847  0.00  0.00    +0.000 C 
ATOM     15  C   UNL     1      62.346  67.839  73.221  0.00  0.00    +0.000 A 
ATOM     16  S   UNL     1      62.223  67.071  72.950  0.00  0.00    +0.000 S 
ATOM     17  C   UNL     1      62.938  64.840  71.021  0.00  0.00    +0.000 C 
ATOM     18  S   UNL     1      63.155  64.253  70.484  0.00  0.00    +0.000 S 
ATOM     19  C   UNL     1      63.715  64.762  70.154  0.00  0.00    +0.000 C 
ATOM     20  S   UNL     1      63.497  65.348  70.692  0.00  0.00    +0.000 S 
ENDROOT
TORSDOF 0
ENDMDL
MODEL 8
REMARK VINA RESULT:    -8.582      6.055      6.951
REMARK INTER + INTRA:          -8.582
REMARK INTER:                  -8.582
REMARK INTRA:                   0.000
REMARK UNBOUND:                 0.000
ROOT
REMARK  Name = mivotilate
REMARK                            x       y       z     vdW  Elec       q    Type
REMARK                         _______ _______ _______ _____ _____    ______ ____
ATOM      1  C   UNL     1      59.995  64.577  72.863  0.00  0.00    +0.000 C 
ATOM      2  C   UNL     1      60.746  64.569  72.522  0.00  0.00    +0.000 C 
ATOM      3  C   UNL     1      61.044  63.871  72.199  0.00  0.00    +0.000 C 
ATOM      4  O   UNL     1      61.199  65.258  72.504  0.00  0.00    +0.000 OA
ATOM      5  C   UNL     1      61.950  65.250  72.164  0.00  0.00    +0.000 C 
ATOM      6  O   UNL     1      62.248  64.552  71.841  0.00  0.00    +0.000 OA
ATOM      7  C   UNL     1      62.403  65.939  72.146  0.00  0.00    +0.000 C 
ATOM      8  C   UNL     1      63.153  65.931  71.805  0.00  0.00    +0.000 C 
ATOM      9  O   UNL     1      63.452  65.233  71.482  0.00  0.00    +0.000 OA
ATOM     10  N   UNL     1      63.607  66.620  71.787  0.00  0.00    +0.000 NA
ATOM     11  C   UNL     1      64.357  66.612  71.446  0.00  0.00    +0.000 A 
ATOM     12  N   UNL     1      64.871  67.255  71.388  0.00  0.00    +0.000 NA
ATOM     13  C   UNL     1      65.558  67.000  71.009  0.00  0.00    +0.000 A 
ATOM     14  C   UNL     1      66.219  67.464  70.837  0.00  0.00    +0.000 C 
ATOM     15  C   UNL     1      65.469  66.199  70.833  0.00  0.00    +0.000 A 
ATOM     16  S   UNL     1      64.728  65.959  71.103  0.00  0.00    +0.000 S 
ATOM     17  C   UNL     1      62.104  66.637  72.469  0.00  0.00    +0.000 C 
ATOM     18  S   UNL     1      61.402  66.852  72.843  0.00  0.00    +0.000 S 
ATOM     19  C   UNL     1      61.682  67.624  72.926  0.00  0.00    +0.000 C 
ATOM     20  S   UNL     1      62.384  67.408  72.551  0.00  0.00    +0.000 S 
ENDROOT
TORSDOF 0
ENDMDL
MODEL 9
REMARK VINA RESULT:    -8.542      3.324      4.694
REMARK INTER + INTRA:          -8.542
REMARK INTER:                  -8.542
REMARK INTRA:                   0.000
REMARK UNBOUND:                 0.000
ROOT
REMARK  Name = mivotilate
REMARK                            x       y       z     vdW  Elec       q    Type
REMARK                         _______ _______ _______ _____ _____    ______ ____
ATOM      1  C   UNL     1      61.782  61.227  72.033  0.00  0.00    +0.000 C 
ATOM      2  C   UNL     1      61.560  62.020  71.993  0.00  0.00    +0.000 C 
ATOM      3  C   UNL     1      61.636  62.504  72.657  0.00  0.00    +0.000 C 
ATOM      4  O   UNL     1      61.263  62.331  71.288  0.00  0.00    +0.000 OA
ATOM      5  C   UNL     1      61.041  63.124  71.248  0.00  0.00    +0.000 C 
ATOM      6  O   UNL     1      61.117  63.608  71.913  0.00  0.00    +0.000 OA
ATOM      7  C   UNL     1      60.744  63.435  70.544  0.00  0.00    +0.000 C 
ATOM      8  C   UNL     1      60.522  64.228  70.504  0.00  0.00    +0.000 C 
ATOM      9  O   UNL     1      60.598  64.712  71.168  0.00  0.00    +0.000 OA
ATOM     10  N   UNL     1      60.225  64.539  69.800  0.00  0.00    +0.000 NA
ATOM     11  C   UNL     1      60.004  65.332  69.760  0.00  0.00    +0.000 A 
ATOM     12  N   UNL     1      59.699  65.719  69.097  0.00  0.00    +0.000 NA
ATOM     13  C   UNL     1      59.555  66.504  69.303  0.00  0.00    +0.000 A 
ATOM     14  C   UNL     1      59.249  67.088  68.806  0.00  0.00    +0.000 C 
ATOM     15  C   UNL     1      59.770  66.604  70.093  0.00  0.00    +0.000 A 
ATOM     16  S   UNL     1      60.047  65.881  70.375  0.00  0.00    +0.000 S 
ATOM     17  C   UNL     1      60.668  62.952  69.880  0.00  0.00    +0.000 C 
ATOM     18  S   UNL     1      60.827  62.160  69.714  0.00  0.00    +0.000 S 
ATOM     19  C   UNL     1      60.561  62.268  68.940  0.00  0.00    +0.000 C 
ATOM     20  S   UNL     1      60.403  63.061  69.107  0.00  0.00    +0.000 S 
ENDROOT
TORSDOF 0
ENDMDL
