MODEL 1
REMARK VINA RESULT:    -8.274      0.000      0.000
REMARK INTER + INTRA:          -8.274
REMARK INTER:                  -8.274
REMARK INTRA:                   0.000
REMARK UNBOUND:                 0.000
ROOT
REMARK  Name = mizoribine
REMARK                            x       y       z     vdW  Elec       q    Type
REMARK                         _______ _______ _______ _____ _____    ______ ____
ATOM      1  N   UNL     1      61.667  61.260  63.679  0.00  0.00    +0.000 NA
ATOM      2  C   UNL     1      61.936  61.662  64.346  0.00  0.00    +0.000 C 
ATOM      3  O   UNL     1      62.725  61.902  64.394  0.00  0.00    +0.000 OA
ATOM      4  C   UNL     1      61.418  61.825  64.966  0.00  0.00    +0.000 A 
ATOM      5  C   UNL     1      61.607  62.221  65.666  0.00  0.00    +0.000 A 
ATOM      6  O   UNL     1      62.348  62.522  65.867  0.00  0.00    +0.000 OA
ATOM      7  N   UNL     1      60.925  62.261  66.128  0.00  0.00    +0.000 N 
ATOM      8  C   UNL     1      60.314  61.891  65.715  0.00  0.00    +0.000 A 
ATOM      9  N   UNL     1      60.619  61.621  64.997  0.00  0.00    +0.000 NA
ATOM     10  C1* UNL     1      60.864  62.611  66.873  0.00  0.00    +0.000 C 
ATOM     11  O4* UNL     1      61.475  62.981  67.286  0.00  0.00    +0.000 OA
ATOM     12  C4* UNL     1      61.170  63.250  68.004  0.00  0.00    +0.000 C 
ATOM     13  C5* UNL     1      61.590  63.652  68.589  0.00  0.00    +0.000 C 
ATOM     14  O5* UNL     1      62.390  63.819  68.481  0.00  0.00    +0.000 OA
ATOM     15  C3* UNL     1      60.370  63.046  68.035  0.00  0.00    +0.000 C 
ATOM     16  O3* UNL     1      59.852  63.209  68.655  0.00  0.00    +0.000 OA
ATOM     17  C2* UNL     1      60.182  62.651  67.336  0.00  0.00    +0.000 C 
ATOM     18  O2* UNL     1      59.441  62.349  67.134  0.00  0.00    +0.000 OA
ENDROOT
TORSDOF 0
ENDMDL
MODEL 2
REMARK VINA RESULT:    -8.265      1.594      3.998
REMARK INTER + INTRA:          -8.265
REMARK INTER:                  -8.265
REMARK INTRA:                   0.000
REMARK UNBOUND:                 0.000
ROOT
REMARK  Name = mizoribine
REMARK                            x       y       z     vdW  Elec       q    Type
REMARK                         _______ _______ _______ _____ _____    ______ ____
ATOM      1  N   UNL     1      59.772  62.938  67.963  0.00  0.00    +0.000 NA
ATOM      2  C   UNL     1      59.721  62.515  67.257  0.00  0.00    +0.000 C 
ATOM      3  O   UNL     1      59.025  62.114  67.065  0.00  0.00    +0.000 OA
ATOM      4  C   UNL     1      60.365  62.493  66.742  0.00  0.00    +0.000 A 
ATOM      5  C   UNL     1      60.395  62.095  66.019  0.00  0.00    +0.000 A 
ATOM      6  O   UNL     1      59.786  61.650  65.686  0.00  0.00    +0.000 OA
ATOM      7  N   UNL     1      61.141  62.221  65.690  0.00  0.00    +0.000 N 
ATOM      8  C   UNL     1      61.572  62.697  66.208  0.00  0.00    +0.000 A 
ATOM      9  N   UNL     1      61.092  62.865  66.858  0.00  0.00    +0.000 NA
ATOM     10  C1* UNL     1      61.408  61.923  64.969  0.00  0.00    +0.000 C 
ATOM     11  O4* UNL     1      60.978  61.448  64.450  0.00  0.00    +0.000 OA
ATOM     12  C4* UNL     1      61.457  61.279  63.800  0.00  0.00    +0.000 C 
ATOM     13  C5* UNL     1      61.247  60.821  63.148  0.00  0.00    +0.000 C 
ATOM     14  O5* UNL     1      60.496  60.482  63.107  0.00  0.00    +0.000 OA
ATOM     15  C3* UNL     1      62.185  61.652  63.917  0.00  0.00    +0.000 C 
ATOM     16  O3* UNL     1      62.829  61.629  63.402  0.00  0.00    +0.000 OA
ATOM     17  C2* UNL     1      62.155  62.049  64.639  0.00  0.00    +0.000 C 
ATOM     18  O2* UNL     1      62.764  62.495  64.973  0.00  0.00    +0.000 OA
ENDROOT
TORSDOF 0
ENDMDL
MODEL 3
REMARK VINA RESULT:    -8.063      1.389      3.457
REMARK INTER + INTRA:          -8.063
REMARK INTER:                  -8.063
REMARK INTRA:                   0.000
REMARK UNBOUND:                 0.000
ROOT
REMARK  Name = mizoribine
REMARK                            x       y       z     vdW  Elec       q    Type
REMARK                         _______ _______ _______ _____ _____    ______ ____
ATOM      1  N   UNL     1      60.712  63.977  69.665  0.00  0.00    +0.000 NA
ATOM      2  C   UNL     1      61.173  63.744  69.022  0.00  0.00    +0.000 C 
ATOM      3  O   UNL     1      61.980  63.913  69.010  0.00  0.00    +0.000 OA
ATOM      4  C   UNL     1      60.827  63.342  68.390  0.00  0.00    +0.000 A 
ATOM      5  C   UNL     1      61.216  63.076  67.713  0.00  0.00    +0.000 A 
ATOM      6  O   UNL     1      62.019  63.166  67.549  0.00  0.00    +0.000 OA
ATOM      7  N   UNL     1      60.660  62.705  67.228  0.00  0.00    +0.000 N 
ATOM      8  C   UNL     1      59.928  62.741  67.606  0.00  0.00    +0.000 A 
ATOM      9  N   UNL     1      60.031  63.135  68.324  0.00  0.00    +0.000 NA
ATOM     10  C1* UNL     1      60.811  62.358  66.496  0.00  0.00    +0.000 C 
ATOM     11  O4* UNL     1      61.543  62.321  66.118  0.00  0.00    +0.000 OA
ATOM     12  C4* UNL     1      61.441  61.928  65.400  0.00  0.00    +0.000 C 
ATOM     13  C5* UNL     1      62.030  61.768  64.845  0.00  0.00    +0.000 C 
ATOM     14  O5* UNL     1      62.805  62.010  64.987  0.00  0.00    +0.000 OA
ATOM     15  C3* UNL     1      60.644  61.721  65.334  0.00  0.00    +0.000 C 
ATOM     16  O3* UNL     1      60.298  61.319  64.703  0.00  0.00    +0.000 OA
ATOM     17  C2* UNL     1      60.255  61.987  66.011  0.00  0.00    +0.000 C 
ATOM     18  O2* UNL     1      59.452  61.897  66.176  0.00  0.00    +0.000 OA
ENDROOT
TORSDOF 0
ENDMDL
MODEL 4
REMARK VINA RESULT:    -7.536      1.787      3.014
REMARK INTER + INTRA:          -7.536
REMARK INTER:                  -7.536
REMARK INTRA:                   0.000
REMARK UNBOUND:                 0.000
ROOT
REMARK  Name = mizoribine
REMARK                            x       y       z     vdW  Elec       q    Type
REMARK                         _______ _______ _______ _____ _____    ______ ____
ATOM      1  N   UNL     1      59.892  62.290  66.602  0.00  0.00    +0.000 NA
ATOM      2  C   UNL     1      60.566  62.678  66.875  0.00  0.00    +0.000 C 
ATOM      3  O   UNL     1      61.139  62.937  66.341  0.00  0.00    +0.000 OA
ATOM      4  C   UNL     1      60.667  62.808  67.684  0.00  0.00    +0.000 A 
ATOM      5  C   UNL     1      61.310  63.188  68.037  0.00  0.00    +0.000 A 
ATOM      6  O   UNL     1      61.963  63.502  67.643  0.00  0.00    +0.000 OA
ATOM      7  N   UNL     1      61.184  63.196  68.852  0.00  0.00    +0.000 N 
ATOM      8  C   UNL     1      60.464  62.823  69.003  0.00  0.00    +0.000 A 
ATOM      9  N   UNL     1      60.145  62.583  68.281  0.00  0.00    +0.000 NA
ATOM     10  C1* UNL     1      61.690  63.521  69.417  0.00  0.00    +0.000 C 
ATOM     11  O4* UNL     1      62.410  63.895  69.266  0.00  0.00    +0.000 OA
ATOM     12  C4* UNL     1      62.729  64.134  69.989  0.00  0.00    +0.000 C 
ATOM     13  C5* UNL     1      63.445  64.530  70.095  0.00  0.00    +0.000 C 
ATOM     14  O5* UNL     1      63.911  64.720  69.442  0.00  0.00    +0.000 OA
ATOM     15  C3* UNL     1      62.206  63.908  70.586  0.00  0.00    +0.000 C 
ATOM     16  O3* UNL     1      62.308  64.039  71.394  0.00  0.00    +0.000 OA
ATOM     17  C2* UNL     1      61.564  63.530  70.233  0.00  0.00    +0.000 C 
ATOM     18  O2* UNL     1      60.910  63.215  70.626  0.00  0.00    +0.000 OA
ENDROOT
TORSDOF 0
ENDMDL
MODEL 5
REMARK VINA RESULT:    -7.414      5.018      6.408
REMARK INTER + INTRA:          -7.414
REMARK INTER:                  -7.414
REMARK INTRA:                   0.000
REMARK UNBOUND:                 0.000
ROOT
REMARK  Name = mizoribine
REMARK                            x       y       z     vdW  Elec       q    Type
REMARK                         _______ _______ _______ _____ _____    ______ ____
ATOM      1  N   UNL     1      66.096  67.282  70.270  0.00  0.00    +0.000 NA
ATOM      2  C   UNL     1      65.521  66.970  70.772  0.00  0.00    +0.000 C 
ATOM      3  O   UNL     1      65.438  67.264  71.538  0.00  0.00    +0.000 OA
ATOM      4  C   UNL     1      65.029  66.363  70.508  0.00  0.00    +0.000 A 
ATOM      5  C   UNL     1      64.432  65.998  70.946  0.00  0.00    +0.000 A 
ATOM      6  O   UNL     1      64.223  66.176  71.723  0.00  0.00    +0.000 OA
ATOM      7  N   UNL     1      64.080  65.424  70.468  0.00  0.00    +0.000 N 
ATOM      8  C   UNL     1      64.460  65.435  69.736  0.00  0.00    +0.000 A 
ATOM      9  N   UNL     1      65.046  66.015  69.760  0.00  0.00    +0.000 NA
ATOM     10  C1* UNL     1      63.458  64.928  70.685  0.00  0.00    +0.000 C 
ATOM     11  O4* UNL     1      63.079  64.917  71.418  0.00  0.00    +0.000 OA
ATOM     12  C4* UNL     1      62.493  64.337  71.393  0.00  0.00    +0.000 C 
ATOM     13  C5* UNL     1      61.980  64.139  72.007  0.00  0.00    +0.000 C 
ATOM     14  O5* UNL     1      62.027  64.537  72.728  0.00  0.00    +0.000 OA
ATOM     15  C3* UNL     1      62.510  63.989  70.644  0.00  0.00    +0.000 C 
ATOM     16  O3* UNL     1      62.017  63.382  70.380  0.00  0.00    +0.000 OA
ATOM     17  C2* UNL     1      63.107  64.354  70.207  0.00  0.00    +0.000 C 
ATOM     18  O2* UNL     1      63.316  64.176  69.429  0.00  0.00    +0.000 OA
ENDROOT
TORSDOF 0
ENDMDL
MODEL 6
REMARK VINA RESULT:    -7.394      2.441      4.055
REMARK INTER + INTRA:          -7.394
REMARK INTER:                  -7.394
REMARK INTRA:                   0.000
REMARK UNBOUND:                 0.000
ROOT
REMARK  Name = mizoribine
REMARK                            x       y       z     vdW  Elec       q    Type
REMARK                         _______ _______ _______ _____ _____    ______ ____
ATOM      1  N   UNL     1      60.681  62.435  67.166  0.00  0.00    +0.000 NA
ATOM      2  C   UNL     1      60.645  62.434  67.989  0.00  0.00    +0.000 C 
ATOM      3  O   UNL     1      60.138  61.913  68.380  0.00  0.00    +0.000 OA
ATOM      4  C   UNL     1      61.115  62.954  68.423  0.00  0.00    +0.000 A 
ATOM      5  C   UNL     1      61.138  63.016  69.246  0.00  0.00    +0.000 A 
ATOM      6  O   UNL     1      60.695  62.568  69.778  0.00  0.00    +0.000 OA
ATOM      7  N   UNL     1      61.683  63.604  69.443  0.00  0.00    +0.000 N 
ATOM      8  C   UNL     1      61.996  63.905  68.741  0.00  0.00    +0.000 A 
ATOM      9  N   UNL     1      61.645  63.504  68.112  0.00  0.00    +0.000 NA
ATOM     10  C1* UNL     1      61.879  63.847  70.206  0.00  0.00    +0.000 C 
ATOM     11  O4* UNL     1      61.566  63.546  70.907  0.00  0.00    +0.000 OA
ATOM     12  C4* UNL     1      61.917  63.947  71.537  0.00  0.00    +0.000 C 
ATOM     13  C5* UNL     1      61.765  63.821  72.337  0.00  0.00    +0.000 C 
ATOM     14  O5* UNL     1      61.217  63.249  72.567  0.00  0.00    +0.000 OA
ATOM     15  C3* UNL     1      62.448  64.497  71.224  0.00  0.00    +0.000 C 
ATOM     16  O3* UNL     1      62.918  65.017  71.658  0.00  0.00    +0.000 OA
ATOM     17  C2* UNL     1      62.424  64.435  70.402  0.00  0.00    +0.000 C 
ATOM     18  O2* UNL     1      62.868  64.883  69.869  0.00  0.00    +0.000 OA
ENDROOT
TORSDOF 0
ENDMDL
MODEL 7
REMARK VINA RESULT:    -7.394      4.137      5.302
REMARK INTER + INTRA:          -7.394
REMARK INTER:                  -7.394
REMARK INTRA:                   0.000
REMARK UNBOUND:                 0.000
ROOT
REMARK  Name = mizoribine
REMARK                            x       y       z     vdW  Elec       q    Type
REMARK                         _______ _______ _______ _____ _____    ______ ____
ATOM      1  N   UNL     1      60.625  61.642  70.586  0.00  0.00    +0.000 NA
ATOM      2  C   UNL     1      60.535  62.367  70.205  0.00  0.00    +0.000 C 
ATOM      3  O   UNL     1      60.711  62.437  69.402  0.00  0.00    +0.000 OA
ATOM      4  C   UNL     1      60.267  63.024  70.627  0.00  0.00    +0.000 A 
ATOM      5  C   UNL     1      60.149  63.781  70.322  0.00  0.00    +0.000 A 
ATOM      6  O   UNL     1      60.279  64.015  69.542  0.00  0.00    +0.000 OA
ATOM      7  N   UNL     1      59.879  64.264  70.935  0.00  0.00    +0.000 N 
ATOM      8  C   UNL     1      59.830  63.805  71.618  0.00  0.00    +0.000 A 
ATOM      9  N   UNL     1      60.069  63.038  71.428  0.00  0.00    +0.000 NA
ATOM     10  C1* UNL     1      59.692  65.065  70.874  0.00  0.00    +0.000 C 
ATOM     11  O4* UNL     1      59.742  65.524  70.191  0.00  0.00    +0.000 OA
ATOM     12  C4* UNL     1      59.502  66.291  70.381  0.00  0.00    +0.000 C 
ATOM     13  C5* UNL     1      59.466  66.930  69.862  0.00  0.00    +0.000 C 
ATOM     14  O5* UNL     1      59.682  66.833  69.072  0.00  0.00    +0.000 OA
ATOM     15  C3* UNL     1      59.305  66.305  71.182  0.00  0.00    +0.000 C 
ATOM     16  O3* UNL     1      59.037  66.961  71.604  0.00  0.00    +0.000 OA
ATOM     17  C2* UNL     1      59.422  65.547  71.487  0.00  0.00    +0.000 C 
ATOM     18  O2* UNL     1      59.292  65.313  72.268  0.00  0.00    +0.000 OA
ENDROOT
TORSDOF 0
ENDMDL
MODEL 8
REMARK VINA RESULT:    -7.348      3.850      5.361
REMARK INTER + INTRA:          -7.348
REMARK INTER:                  -7.348
REMARK INTRA:                   0.000
REMARK UNBOUND:                 0.000
ROOT
REMARK  Name = mizoribine
REMARK                            x       y       z     vdW  Elec       q    Type
REMARK                         _______ _______ _______ _____ _____    ______ ____
ATOM      1  N   UNL     1      60.528  63.482  68.209  0.00  0.00    +0.000 NA
ATOM      2  C   UNL     1      60.349  63.631  68.999  0.00  0.00    +0.000 C 
ATOM      3  O   UNL     1      60.366  63.016  69.550  0.00  0.00    +0.000 OA
ATOM      4  C   UNL     1      60.153  64.395  69.241  0.00  0.00    +0.000 A 
ATOM      5  C   UNL     1      59.961  64.626  70.010  0.00  0.00    +0.000 A 
ATOM      6  O   UNL     1      59.933  64.134  70.671  0.00  0.00    +0.000 OA
ATOM      7  N   UNL     1      59.803  65.436  70.000  0.00  0.00    +0.000 N 
ATOM      8  C   UNL     1      59.897  65.705  69.226  0.00  0.00    +0.000 A 
ATOM      9  N   UNL     1      60.113  65.061  68.757  0.00  0.00    +0.000 NA
ATOM     10  C1* UNL     1      59.589  65.896  70.651  0.00  0.00    +0.000 C 
ATOM     11  O4* UNL     1      59.496  65.627  71.425  0.00  0.00    +0.000 OA
ATOM     12  C4* UNL     1      59.280  66.271  71.894  0.00  0.00    +0.000 C 
ATOM     13  C5* UNL     1      59.130  66.251  72.705  0.00  0.00    +0.000 C 
ATOM     14  O5* UNL     1      59.192  65.540  73.119  0.00  0.00    +0.000 OA
ATOM     15  C3* UNL     1      59.240  66.937  71.409  0.00  0.00    +0.000 C 
ATOM     16  O3* UNL     1      59.043  67.701  71.651  0.00  0.00    +0.000 OA
ATOM     17  C2* UNL     1      59.431  66.706  70.641  0.00  0.00    +0.000 C 
ATOM     18  O2* UNL     1      59.459  67.198  69.979  0.00  0.00    +0.000 OA
ENDROOT
TORSDOF 0
ENDMDL
MODEL 9
REMARK VINA RESULT:    -7.180      5.389      5.901
REMARK INTER + INTRA:          -7.180
REMARK INTER:                  -7.180
REMARK INTRA:                   0.000
REMARK UNBOUND:                 0.000
ROOT
REMARK  Name = mizoribine
REMARK                            x       y       z     vdW  Elec       q    Type
REMARK                         _______ _______ _______ _____ _____    ______ ____
ATOM      1  N   UNL     1      64.950  66.290  69.881  0.00  0.00    +0.000 NA
ATOM      2  C   UNL     1      64.540  65.576  69.920  0.00  0.00    +0.000 C 
ATOM      3  O   UNL     1      64.703  64.976  69.378  0.00  0.00    +0.000 OA
ATOM      4  C   UNL     1      63.967  65.461  70.502  0.00  0.00    +0.000 A 
ATOM      5  C   UNL     1      63.515  64.779  70.610  0.00  0.00    +0.000 A 
ATOM      6  O   UNL     1      63.557  64.093  70.154  0.00  0.00    +0.000 OA
ATOM      7  N   UNL     1      63.013  64.904  71.253  0.00  0.00    +0.000 N 
ATOM      8  C   UNL     1      63.156  65.663  71.543  0.00  0.00    +0.000 A 
ATOM      9  N   UNL     1      63.745  66.007  71.079  0.00  0.00    +0.000 NA
ATOM     10  C1* UNL     1      62.466  64.365  71.553  0.00  0.00    +0.000 C 
ATOM     11  O4* UNL     1      62.324  63.606  71.263  0.00  0.00    +0.000 OA
ATOM     12  C4* UNL     1      61.734  63.262  71.727  0.00  0.00    +0.000 C 
ATOM     13  C5* UNL     1      61.422  62.505  71.631  0.00  0.00    +0.000 C 
ATOM     14  O5* UNL     1      61.700  62.018  71.026  0.00  0.00    +0.000 OA
ATOM     15  C3* UNL     1      61.513  63.809  72.304  0.00  0.00    +0.000 C 
ATOM     16  O3* UNL     1      60.939  63.694  72.886  0.00  0.00    +0.000 OA
ATOM     17  C2* UNL     1      61.965  64.490  72.197  0.00  0.00    +0.000 C 
ATOM     18  O2* UNL     1      61.923  65.177  72.653  0.00  0.00    +0.000 OA
ENDROOT
TORSDOF 0
ENDMDL
