MODEL 1
REMARK VINA RESULT:   -11.656      0.000      0.000
REMARK INTER + INTRA:         -11.656
REMARK INTER:                 -11.656
REMARK INTRA:                   0.000
REMARK UNBOUND:                 0.000
ROOT
REMARK  Name = mofezolac
REMARK                            x       y       z     vdW  Elec       q    Type
REMARK                         _______ _______ _______ _____ _____    ______ ____
ATOM      1  C   UNL     1      62.069  60.636  72.099  0.00  0.00    +0.000 C 
ATOM      2  O   UNL     1      61.991  61.299  72.585  0.00  0.00    +0.000 OA
ATOM      3  C   UNL     1      61.672  61.996  72.283  0.00  0.00    +0.000 A 
ATOM      4  C   UNL     1      61.594  62.659  72.767  0.00  0.00    +0.000 A 
ATOM      5  C   UNL     1      61.275  63.357  72.464  0.00  0.00    +0.000 A 
ATOM      6  C   UNL     1      61.034  63.392  71.677  0.00  0.00    +0.000 A 
ATOM      7  C   UNL     1      61.111  62.730  71.191  0.00  0.00    +0.000 A 
ATOM      8  C   UNL     1      61.430  62.032  71.494  0.00  0.00    +0.000 A 
ATOM      9  C   UNL     1      60.714  64.091  71.374  0.00  0.00    +0.000 A 
ATOM     10  N   UNL     1      60.603  64.793  71.791  0.00  0.00    +0.000 NA
ATOM     11  O   UNL     1      60.270  65.345  71.275  0.00  0.00    +0.000 OA
ATOM     12  C   UNL     1      60.176  64.983  70.540  0.00  0.00    +0.000 A 
ATOM     13  C   UNL     1      59.861  65.335  69.863  0.00  0.00    +0.000 C 
ATOM     14  C   UNL     1      59.609  66.119  69.886  0.00  0.00    +0.000 C 
ATOM     15  O   UNL     1      59.669  66.552  70.585  0.00  0.00    +0.000 OA
ATOM     16  O   UNL     1      59.294  66.472  69.208  0.00  0.00    +0.000 OA
ATOM     17  C   UNL     1      60.450  64.207  70.601  0.00  0.00    +0.000 A 
ATOM     18  C   UNL     1      60.458  63.647  69.995  0.00  0.00    +0.000 A 
ATOM     19  C   UNL     1      60.175  63.844  69.246  0.00  0.00    +0.000 A 
ATOM     20  C   UNL     1      60.183  63.285  68.641  0.00  0.00    +0.000 A 
ATOM     21  C   UNL     1      60.476  62.527  68.784  0.00  0.00    +0.000 A 
ATOM     22  O   UNL     1      60.485  61.967  68.179  0.00  0.00    +0.000 OA
ATOM     23  C   UNL     1      60.201  62.165  67.430  0.00  0.00    +0.000 C 
ATOM     24  C   UNL     1      60.760  62.329  69.533  0.00  0.00    +0.000 A 
ATOM     25  C   UNL     1      60.752  62.889  70.139  0.00  0.00    +0.000 A 
ENDROOT
TORSDOF 0
ENDMDL
MODEL 2
REMARK VINA RESULT:   -11.266      1.145      3.068
REMARK INTER + INTRA:         -11.266
REMARK INTER:                 -11.266
REMARK INTRA:                   0.000
REMARK UNBOUND:                 0.000
ROOT
REMARK  Name = mofezolac
REMARK                            x       y       z     vdW  Elec       q    Type
REMARK                         _______ _______ _______ _____ _____    ______ ____
ATOM      1  C   UNL     1      61.504  63.706  73.160  0.00  0.00    +0.000 C 
ATOM      2  O   UNL     1      61.555  62.941  72.853  0.00  0.00    +0.000 OA
ATOM      3  C   UNL     1      61.323  62.792  72.077  0.00  0.00    +0.000 A 
ATOM      4  C   UNL     1      61.373  62.028  71.770  0.00  0.00    +0.000 A 
ATOM      5  C   UNL     1      61.141  61.879  70.993  0.00  0.00    +0.000 A 
ATOM      6  C   UNL     1      60.859  62.494  70.522  0.00  0.00    +0.000 A 
ATOM      7  C   UNL     1      60.808  63.258  70.827  0.00  0.00    +0.000 A 
ATOM      8  C   UNL     1      61.040  63.408  71.605  0.00  0.00    +0.000 A 
ATOM      9  C   UNL     1      60.626  62.344  69.744  0.00  0.00    +0.000 A 
ATOM     10  N   UNL     1      60.646  61.612  69.365  0.00  0.00    +0.000 NA
ATOM     11  O   UNL     1      60.365  61.717  68.595  0.00  0.00    +0.000 OA
ATOM     12  C   UNL     1      60.173  62.513  68.500  0.00  0.00    +0.000 A 
ATOM     13  C   UNL     1      59.872  62.861  67.814  0.00  0.00    +0.000 C 
ATOM     14  C   UNL     1      59.738  62.400  67.143  0.00  0.00    +0.000 C 
ATOM     15  O   UNL     1      59.905  61.593  67.157  0.00  0.00    +0.000 OA
ATOM     16  O   UNL     1      59.437  62.747  66.458  0.00  0.00    +0.000 OA
ATOM     17  C   UNL     1      60.334  62.901  69.210  0.00  0.00    +0.000 A 
ATOM     18  C   UNL     1      60.223  63.705  69.359  0.00  0.00    +0.000 A 
ATOM     19  C   UNL     1      59.924  64.197  68.768  0.00  0.00    +0.000 A 
ATOM     20  C   UNL     1      59.813  65.000  68.917  0.00  0.00    +0.000 A 
ATOM     21  C   UNL     1      60.000  65.312  69.658  0.00  0.00    +0.000 A 
ATOM     22  O   UNL     1      59.889  66.116  69.807  0.00  0.00    +0.000 OA
ATOM     23  C   UNL     1      59.590  66.607  69.216  0.00  0.00    +0.000 C 
ATOM     24  C   UNL     1      60.298  64.820  70.249  0.00  0.00    +0.000 A 
ATOM     25  C   UNL     1      60.410  64.017  70.100  0.00  0.00    +0.000 A 
ENDROOT
TORSDOF 0
ENDMDL
MODEL 3
REMARK VINA RESULT:   -11.003      2.852      4.398
REMARK INTER + INTRA:         -11.003
REMARK INTER:                 -11.003
REMARK INTRA:                   0.000
REMARK UNBOUND:                 0.000
ROOT
REMARK  Name = mofezolac
REMARK                            x       y       z     vdW  Elec       q    Type
REMARK                         _______ _______ _______ _____ _____    ______ ____
ATOM      1  C   UNL     1      57.338  65.360  73.222  0.00  0.00    +0.000 C 
ATOM      2  O   UNL     1      57.606  66.142  73.222  0.00  0.00    +0.000 OA
ATOM      3  C   UNL     1      58.405  66.304  73.106  0.00  0.00    +0.000 A 
ATOM      4  C   UNL     1      58.672  67.084  73.106  0.00  0.00    +0.000 A 
ATOM      5  C   UNL     1      59.473  67.247  72.989  0.00  0.00    +0.000 A 
ATOM      6  C   UNL     1      60.006  66.629  72.873  0.00  0.00    +0.000 A 
ATOM      7  C   UNL     1      59.740  65.848  72.873  0.00  0.00    +0.000 A 
ATOM      8  C   UNL     1      58.939  65.685  72.989  0.00  0.00    +0.000 A 
ATOM      9  C   UNL     1      60.807  66.791  72.756  0.00  0.00    +0.000 A 
ATOM     10  N   UNL     1      61.152  67.540  72.742  0.00  0.00    +0.000 NA
ATOM     11  O   UNL     1      61.961  67.444  72.610  0.00  0.00    +0.000 OA
ATOM     12  C   UNL     1      62.116  66.637  72.543  0.00  0.00    +0.000 A 
ATOM     13  C   UNL     1      62.854  66.293  72.410  0.00  0.00    +0.000 C 
ATOM     14  C   UNL     1      63.522  66.771  72.330  0.00  0.00    +0.000 C 
ATOM     15  O   UNL     1      63.452  67.590  72.385  0.00  0.00    +0.000 OA
ATOM     16  O   UNL     1      64.261  66.427  72.197  0.00  0.00    +0.000 OA
ATOM     17  C   UNL     1      61.402  66.233  72.633  0.00  0.00    +0.000 A 
ATOM     18  C   UNL     1      61.302  65.414  72.605  0.00  0.00    +0.000 A 
ATOM     19  C   UNL     1      61.951  64.922  72.478  0.00  0.00    +0.000 A 
ATOM     20  C   UNL     1      61.851  64.105  72.450  0.00  0.00    +0.000 A 
ATOM     21  C   UNL     1      61.100  63.778  72.550  0.00  0.00    +0.000 A 
ATOM     22  O   UNL     1      60.999  62.960  72.522  0.00  0.00    +0.000 OA
ATOM     23  C   UNL     1      61.649  62.468  72.394  0.00  0.00    +0.000 C 
ATOM     24  C   UNL     1      60.450  64.269  72.678  0.00  0.00    +0.000 A 
ATOM     25  C   UNL     1      60.550  65.088  72.706  0.00  0.00    +0.000 A 
ENDROOT
TORSDOF 0
ENDMDL
MODEL 4
REMARK VINA RESULT:   -10.992      2.838      4.066
REMARK INTER + INTRA:         -10.992
REMARK INTER:                 -10.992
REMARK INTRA:                   0.000
REMARK UNBOUND:                 0.000
ROOT
REMARK  Name = mofezolac
REMARK                            x       y       z     vdW  Elec       q    Type
REMARK                         _______ _______ _______ _____ _____    ______ ____
ATOM      1  C   UNL     1      64.355  66.752  72.155  0.00  0.00    +0.000 C 
ATOM      2  O   UNL     1      63.823  67.360  72.327  0.00  0.00    +0.000 OA
ATOM      3  C   UNL     1      63.025  67.189  72.441  0.00  0.00    +0.000 A 
ATOM      4  C   UNL     1      62.494  67.796  72.613  0.00  0.00    +0.000 A 
ATOM      5  C   UNL     1      61.695  67.625  72.727  0.00  0.00    +0.000 A 
ATOM      6  C   UNL     1      61.427  66.848  72.669  0.00  0.00    +0.000 A 
ATOM      7  C   UNL     1      61.958  66.240  72.497  0.00  0.00    +0.000 A 
ATOM      8  C   UNL     1      62.757  66.411  72.383  0.00  0.00    +0.000 A 
ATOM      9  C   UNL     1      60.627  66.677  72.783  0.00  0.00    +0.000 A 
ATOM     10  N   UNL     1      60.036  67.223  72.958  0.00  0.00    +0.000 NA
ATOM     11  O   UNL     1      59.322  66.813  73.025  0.00  0.00    +0.000 OA
ATOM     12  C   UNL     1      59.474  66.014  72.892  0.00  0.00    +0.000 A 
ATOM     13  C   UNL     1      58.917  65.405  72.907  0.00  0.00    +0.000 C 
ATOM     14  C   UNL     1      58.126  65.575  73.065  0.00  0.00    +0.000 C 
ATOM     15  O   UNL     1      57.891  66.352  73.209  0.00  0.00    +0.000 OA
ATOM     16  O   UNL     1      57.568  64.966  73.079  0.00  0.00    +0.000 OA
ATOM     17  C   UNL     1      60.282  65.929  72.743  0.00  0.00    +0.000 A 
ATOM     18  C   UNL     1      60.672  65.220  72.582  0.00  0.00    +0.000 A 
ATOM     19  C   UNL     1      60.252  64.512  72.559  0.00  0.00    +0.000 A 
ATOM     20  C   UNL     1      60.642  63.804  72.398  0.00  0.00    +0.000 A 
ATOM     21  C   UNL     1      61.456  63.805  72.259  0.00  0.00    +0.000 A 
ATOM     22  O   UNL     1      61.847  63.097  72.097  0.00  0.00    +0.000 OA
ATOM     23  C   UNL     1      61.426  62.389  72.075  0.00  0.00    +0.000 C 
ATOM     24  C   UNL     1      61.877  64.513  72.281  0.00  0.00    +0.000 A 
ATOM     25  C   UNL     1      61.487  65.222  72.442  0.00  0.00    +0.000 A 
ENDROOT
TORSDOF 0
ENDMDL
MODEL 5
REMARK VINA RESULT:   -10.836      2.389      4.247
REMARK INTER + INTRA:         -10.836
REMARK INTER:                 -10.836
REMARK INTRA:                   0.000
REMARK UNBOUND:                 0.000
ROOT
REMARK  Name = mofezolac
REMARK                            x       y       z     vdW  Elec       q    Type
REMARK                         _______ _______ _______ _____ _____    ______ ____
ATOM      1  C   UNL     1      62.568  67.998  72.887  0.00  0.00    +0.000 C 
ATOM      2  O   UNL     1      63.093  67.462  72.541  0.00  0.00    +0.000 OA
ATOM      3  C   UNL     1      62.828  66.719  72.306  0.00  0.00    +0.000 A 
ATOM      4  C   UNL     1      63.352  66.183  71.960  0.00  0.00    +0.000 A 
ATOM      5  C   UNL     1      63.087  65.439  71.725  0.00  0.00    +0.000 A 
ATOM      6  C   UNL     1      62.297  65.229  71.834  0.00  0.00    +0.000 A 
ATOM      7  C   UNL     1      61.772  65.764  72.179  0.00  0.00    +0.000 A 
ATOM      8  C   UNL     1      62.037  66.508  72.415  0.00  0.00    +0.000 A 
ATOM      9  C   UNL     1      62.031  64.484  71.598  0.00  0.00    +0.000 A 
ATOM     10  N   UNL     1      62.489  63.895  71.248  0.00  0.00    +0.000 NA
ATOM     11  O   UNL     1      62.002  63.244  71.105  0.00  0.00    +0.000 OA
ATOM     12  C   UNL     1      61.243  63.432  71.367  0.00  0.00    +0.000 A 
ATOM     13  C   UNL     1      60.581  62.939  71.331  0.00  0.00    +0.000 C 
ATOM     14  C   UNL     1      60.648  62.183  71.009  0.00  0.00    +0.000 C 
ATOM     15  O   UNL     1      61.375  61.919  70.723  0.00  0.00    +0.000 OA
ATOM     16  O   UNL     1      59.987  61.691  70.972  0.00  0.00    +0.000 OA
ATOM     17  C   UNL     1      61.261  64.199  71.673  0.00  0.00    +0.000 A 
ATOM     18  C   UNL     1      60.620  64.606  71.995  0.00  0.00    +0.000 A 
ATOM     19  C   UNL     1      59.878  64.248  72.033  0.00  0.00    +0.000 A 
ATOM     20  C   UNL     1      59.239  64.656  72.355  0.00  0.00    +0.000 A 
ATOM     21  C   UNL     1      59.340  65.424  72.640  0.00  0.00    +0.000 A 
ATOM     22  O   UNL     1      58.701  65.832  72.962  0.00  0.00    +0.000 OA
ATOM     23  C   UNL     1      57.959  65.473  73.000  0.00  0.00    +0.000 C 
ATOM     24  C   UNL     1      60.082  65.782  72.603  0.00  0.00    +0.000 A 
ATOM     25  C   UNL     1      60.723  65.375  72.280  0.00  0.00    +0.000 A 
ENDROOT
TORSDOF 0
ENDMDL
MODEL 6
REMARK VINA RESULT:   -10.784      3.424      4.871
REMARK INTER + INTRA:         -10.784
REMARK INTER:                 -10.784
REMARK INTRA:                   0.000
REMARK UNBOUND:                 0.000
ROOT
REMARK  Name = mofezolac
REMARK                            x       y       z     vdW  Elec       q    Type
REMARK                         _______ _______ _______ _____ _____    ______ ____
ATOM      1  C   UNL     1      65.643  67.475  70.133  0.00  0.00    +0.000 C 
ATOM      2  O   UNL     1      65.627  66.724  69.790  0.00  0.00    +0.000 OA
ATOM      3  C   UNL     1      65.019  66.199  69.974  0.00  0.00    +0.000 A 
ATOM      4  C   UNL     1      65.003  65.449  69.631  0.00  0.00    +0.000 A 
ATOM      5  C   UNL     1      64.394  64.924  69.816  0.00  0.00    +0.000 A 
ATOM      6  C   UNL     1      63.801  65.148  70.343  0.00  0.00    +0.000 A 
ATOM      7  C   UNL     1      63.816  65.899  70.686  0.00  0.00    +0.000 A 
ATOM      8  C   UNL     1      64.425  66.424  70.502  0.00  0.00    +0.000 A 
ATOM      9  C   UNL     1      63.192  64.623  70.527  0.00  0.00    +0.000 A 
ATOM     10  N   UNL     1      63.104  63.859  70.229  0.00  0.00    +0.000 NA
ATOM     11  O   UNL     1      62.422  63.533  70.560  0.00  0.00    +0.000 OA
ATOM     12  C   UNL     1      62.088  64.096  71.063  0.00  0.00    +0.000 A 
ATOM     13  C   UNL     1      61.399  64.002  71.507  0.00  0.00    +0.000 C 
ATOM     14  C   UNL     1      60.979  63.293  71.471  0.00  0.00    +0.000 C 
ATOM     15  O   UNL     1      61.247  62.679  70.991  0.00  0.00    +0.000 OA
ATOM     16  O   UNL     1      60.290  63.199  71.916  0.00  0.00    +0.000 OA
ATOM     17  C   UNL     1      62.564  64.770  71.042  0.00  0.00    +0.000 A 
ATOM     18  C   UNL     1      62.434  65.468  71.464  0.00  0.00    +0.000 A 
ATOM     19  C   UNL     1      61.780  65.535  71.960  0.00  0.00    +0.000 A 
ATOM     20  C   UNL     1      61.651  66.232  72.381  0.00  0.00    +0.000 A 
ATOM     21  C   UNL     1      62.177  66.863  72.305  0.00  0.00    +0.000 A 
ATOM     22  O   UNL     1      62.048  67.560  72.726  0.00  0.00    +0.000 OA
ATOM     23  C   UNL     1      61.393  67.627  73.222  0.00  0.00    +0.000 C 
ATOM     24  C   UNL     1      62.832  66.796  71.809  0.00  0.00    +0.000 A 
ATOM     25  C   UNL     1      62.962  66.099  71.387  0.00  0.00    +0.000 A 
ENDROOT
TORSDOF 0
ENDMDL
MODEL 7
REMARK VINA RESULT:   -10.742      2.788      4.158
REMARK INTER + INTRA:         -10.742
REMARK INTER:                 -10.742
REMARK INTRA:                   0.000
REMARK UNBOUND:                 0.000
ROOT
REMARK  Name = mofezolac
REMARK                            x       y       z     vdW  Elec       q    Type
REMARK                         _______ _______ _______ _____ _____    ______ ____
ATOM      1  C   UNL     1      63.021  68.472  72.848  0.00  0.00    +0.000 C 
ATOM      2  O   UNL     1      62.284  68.236  73.137  0.00  0.00    +0.000 OA
ATOM      3  C   UNL     1      61.973  67.503  72.926  0.00  0.00    +0.000 A 
ATOM      4  C   UNL     1      61.237  67.267  73.214  0.00  0.00    +0.000 A 
ATOM      5  C   UNL     1      60.927  66.533  73.003  0.00  0.00    +0.000 A 
ATOM      6  C   UNL     1      61.352  66.034  72.503  0.00  0.00    +0.000 A 
ATOM      7  C   UNL     1      62.089  66.268  72.214  0.00  0.00    +0.000 A 
ATOM      8  C   UNL     1      62.399  67.003  72.425  0.00  0.00    +0.000 A 
ATOM      9  C   UNL     1      61.041  65.299  72.291  0.00  0.00    +0.000 A 
ATOM     10  N   UNL     1      60.316  64.991  72.535  0.00  0.00    +0.000 NA
ATOM     11  O   UNL     1      60.228  64.245  72.193  0.00  0.00    +0.000 OA
ATOM     12  C   UNL     1      60.899  64.093  71.738  0.00  0.00    +0.000 A 
ATOM     13  C   UNL     1      61.042  63.408  71.299  0.00  0.00    +0.000 C 
ATOM     14  C   UNL     1      60.485  62.800  71.292  0.00  0.00    +0.000 C 
ATOM     15  O   UNL     1      59.786  62.875  71.722  0.00  0.00    +0.000 OA
ATOM     16  O   UNL     1      60.628  62.116  70.853  0.00  0.00    +0.000 OA
ATOM     17  C   UNL     1      61.402  64.744  71.799  0.00  0.00    +0.000 A 
ATOM     18  C   UNL     1      62.136  64.825  71.430  0.00  0.00    +0.000 A 
ATOM     19  C   UNL     1      62.427  64.221  70.951  0.00  0.00    +0.000 A 
ATOM     20  C   UNL     1      63.160  64.302  70.583  0.00  0.00    +0.000 A 
ATOM     21  C   UNL     1      63.604  64.989  70.695  0.00  0.00    +0.000 A 
ATOM     22  O   UNL     1      64.337  65.070  70.328  0.00  0.00    +0.000 OA
ATOM     23  C   UNL     1      64.628  64.466  69.848  0.00  0.00    +0.000 C 
ATOM     24  C   UNL     1      63.313  65.593  71.175  0.00  0.00    +0.000 A 
ATOM     25  C   UNL     1      62.579  65.513  71.543  0.00  0.00    +0.000 A 
ENDROOT
TORSDOF 0
ENDMDL
MODEL 8
REMARK VINA RESULT:   -10.355      2.229      2.790
REMARK INTER + INTRA:         -10.355
REMARK INTER:                 -10.355
REMARK INTRA:                   0.000
REMARK UNBOUND:                 0.000
ROOT
REMARK  Name = mofezolac
REMARK                            x       y       z     vdW  Elec       q    Type
REMARK                         _______ _______ _______ _____ _____    ______ ____
ATOM      1  C   UNL     1      64.886  64.754  69.975  0.00  0.00    +0.000 C 
ATOM      2  O   UNL     1      64.701  65.315  70.552  0.00  0.00    +0.000 OA
ATOM      3  C   UNL     1      63.940  65.346  70.867  0.00  0.00    +0.000 A 
ATOM      4  C   UNL     1      63.754  65.906  71.444  0.00  0.00    +0.000 A 
ATOM      5  C   UNL     1      62.992  65.936  71.759  0.00  0.00    +0.000 A 
ATOM      6  C   UNL     1      62.417  65.407  71.498  0.00  0.00    +0.000 A 
ATOM      7  C   UNL     1      62.601  64.847  70.921  0.00  0.00    +0.000 A 
ATOM      8  C   UNL     1      63.363  64.816  70.606  0.00  0.00    +0.000 A 
ATOM      9  C   UNL     1      61.654  65.438  71.814  0.00  0.00    +0.000 A 
ATOM     10  N   UNL     1      61.390  65.965  72.390  0.00  0.00    +0.000 NA
ATOM     11  O   UNL     1      60.595  65.800  72.541  0.00  0.00    +0.000 OA
ATOM     12  C   UNL     1      60.369  65.171  72.057  0.00  0.00    +0.000 A 
ATOM     13  C   UNL     1      59.620  64.826  72.028  0.00  0.00    +0.000 C 
ATOM     14  C   UNL     1      59.017  65.110  72.513  0.00  0.00    +0.000 C 
ATOM     15  O   UNL     1      59.162  65.739  73.027  0.00  0.00    +0.000 OA
ATOM     16  O   UNL     1      58.267  64.765  72.484  0.00  0.00    +0.000 OA
ATOM     17  C   UNL     1      61.024  64.947  71.607  0.00  0.00    +0.000 A 
ATOM     18  C   UNL     1      61.044  64.339  71.050  0.00  0.00    +0.000 A 
ATOM     19  C   UNL     1      60.368  63.892  70.902  0.00  0.00    +0.000 A 
ATOM     20  C   UNL     1      60.388  63.284  70.345  0.00  0.00    +0.000 A 
ATOM     21  C   UNL     1      61.086  63.123  69.936  0.00  0.00    +0.000 A 
ATOM     22  O   UNL     1      61.106  62.516  69.379  0.00  0.00    +0.000 OA
ATOM     23  C   UNL     1      60.429  62.069  69.230  0.00  0.00    +0.000 C 
ATOM     24  C   UNL     1      61.763  63.570  70.084  0.00  0.00    +0.000 A 
ATOM     25  C   UNL     1      61.743  64.178  70.641  0.00  0.00    +0.000 A 
ENDROOT
TORSDOF 0
ENDMDL
MODEL 9
REMARK VINA RESULT:   -10.200      2.038      3.413
REMARK INTER + INTRA:         -10.200
REMARK INTER:                 -10.200
REMARK INTRA:                   0.000
REMARK UNBOUND:                 0.000
ROOT
REMARK  Name = mofezolac
REMARK                            x       y       z     vdW  Elec       q    Type
REMARK                         _______ _______ _______ _____ _____    ______ ____
ATOM      1  C   UNL     1      60.857  64.534  73.201  0.00  0.00    +0.000 C 
ATOM      2  O   UNL     1      60.309  64.023  72.855  0.00  0.00    +0.000 OA
ATOM      3  C   UNL     1      60.399  63.792  72.069  0.00  0.00    +0.000 A 
ATOM      4  C   UNL     1      59.852  63.281  71.723  0.00  0.00    +0.000 A 
ATOM      5  C   UNL     1      59.942  63.050  70.936  0.00  0.00    +0.000 A 
ATOM      6  C   UNL     1      60.580  63.330  70.495  0.00  0.00    +0.000 A 
ATOM      7  C   UNL     1      61.129  63.841  70.840  0.00  0.00    +0.000 A 
ATOM      8  C   UNL     1      61.038  64.072  71.627  0.00  0.00    +0.000 A 
ATOM      9  C   UNL     1      60.671  63.099  69.708  0.00  0.00    +0.000 A 
ATOM     10  N   UNL     1      60.170  62.594  69.291  0.00  0.00    +0.000 NA
ATOM     11  O   UNL     1      60.468  62.516  68.525  0.00  0.00    +0.000 OA
ATOM     12  C   UNL     1      61.153  62.973  68.470  0.00  0.00    +0.000 A 
ATOM     13  C   UNL     1      61.629  63.054  67.800  0.00  0.00    +0.000 C 
ATOM     14  C   UNL     1      61.433  62.658  67.104  0.00  0.00    +0.000 C 
ATOM     15  O   UNL     1      60.761  62.179  67.077  0.00  0.00    +0.000 OA
ATOM     16  O   UNL     1      61.908  62.739  66.435  0.00  0.00    +0.000 OA
ATOM     17  C   UNL     1      61.278  63.334  69.201  0.00  0.00    +0.000 A 
ATOM     18  C   UNL     1      61.902  63.839  69.391  0.00  0.00    +0.000 A 
ATOM     19  C   UNL     1      62.471  64.025  68.824  0.00  0.00    +0.000 A 
ATOM     20  C   UNL     1      63.094  64.530  69.014  0.00  0.00    +0.000 A 
ATOM     21  C   UNL     1      63.149  64.851  69.772  0.00  0.00    +0.000 A 
ATOM     22  O   UNL     1      63.771  65.356  69.963  0.00  0.00    +0.000 OA
ATOM     23  C   UNL     1      64.341  65.541  69.396  0.00  0.00    +0.000 C 
ATOM     24  C   UNL     1      62.579  64.666  70.340  0.00  0.00    +0.000 A 
ATOM     25  C   UNL     1      61.955  64.160  70.150  0.00  0.00    +0.000 A 
ENDROOT
TORSDOF 0
ENDMDL
