MODEL 1
REMARK VINA RESULT:   -11.016      0.000      0.000
REMARK INTER + INTRA:         -11.016
REMARK INTER:                 -11.016
REMARK INTRA:                   0.000
REMARK UNBOUND:                 0.000
ROOT
REMARK  Name = molnupiravir
REMARK                            x       y       z     vdW  Elec       q    Type
REMARK                         _______ _______ _______ _____ _____    ______ ____
ATOM      1  C   UNL     1      61.251  64.597  70.934  0.00  0.00    +0.000 C 
ATOM      2  C   UNL     1      60.956  64.185  70.283  0.00  0.00    +0.000 C 
ATOM      3  C   UNL     1      60.180  63.906  70.289  0.00  0.00    +0.000 C 
ATOM      4  C   UNL     1      61.436  64.053  69.625  0.00  0.00    +0.000 C 
ATOM      5  O   UNL     1      62.212  64.332  69.619  0.00  0.00    +0.000 OA
ATOM      6  O   UNL     1      61.141  63.641  68.975  0.00  0.00    +0.000 OA
ATOM      7  C   UNL     1      61.621  63.508  68.317  0.00  0.00    +0.000 C 
ATOM      8  C   UNL     1      61.326  63.097  67.667  0.00  0.00    +0.000 C 
ATOM      9  O   UNL     1      61.739  62.923  66.974  0.00  0.00    +0.000 OA
ATOM     10  C   UNL     1      61.234  62.505  66.473  0.00  0.00    +0.000 C 
ATOM     11  C   UNL     1      60.509  62.420  66.857  0.00  0.00    +0.000 C 
ATOM     12  O   UNL     1      59.843  62.037  66.555  0.00  0.00    +0.000 OA
ATOM     13  C   UNL     1      60.565  62.786  67.594  0.00  0.00    +0.000 C 
ATOM     14  O   UNL     1      59.966  62.832  68.160  0.00  0.00    +0.000 OA
ATOM     15  N   UNL     1      61.423  62.222  65.722  0.00  0.00    +0.000 N 
ATOM     16  C   UNL     1      62.175  62.350  65.408  0.00  0.00    +0.000 A 
ATOM     17  C   UNL     1      62.363  62.067  64.657  0.00  0.00    +0.000 A 
ATOM     18  C   UNL     1      61.797  61.656  64.218  0.00  0.00    +0.000 A 
ATOM     19  N   UNL     1      61.985  61.372  63.466  0.00  0.00    +0.000 NA
ATOM     20  O   UNL     1      62.737  61.500  63.153  0.00  0.00    +0.000 OA
ATOM     21  N   UNL     1      61.044  61.528  64.531  0.00  0.00    +0.000 NA
ATOM     22  C   UNL     1      60.857  61.811  65.283  0.00  0.00    +0.000 A 
ATOM     23  O   UNL     1      60.105  61.683  65.595  0.00  0.00    +0.000 OA
ENDROOT
TORSDOF 0
ENDMDL
MODEL 2
REMARK VINA RESULT:   -10.830      1.906      4.926
REMARK INTER + INTRA:         -10.830
REMARK INTER:                 -10.830
REMARK INTRA:                   0.000
REMARK UNBOUND:                 0.000
ROOT
REMARK  Name = molnupiravir
REMARK                            x       y       z     vdW  Elec       q    Type
REMARK                         _______ _______ _______ _____ _____    ______ ____
ATOM      1  C   UNL     1      62.026  61.478  63.499  0.00  0.00    +0.000 C 
ATOM      2  C   UNL     1      61.646  61.582  64.223  0.00  0.00    +0.000 C 
ATOM      3  C   UNL     1      60.910  61.233  64.356  0.00  0.00    +0.000 C 
ATOM      4  C   UNL     1      62.000  62.034  64.816  0.00  0.00    +0.000 C 
ATOM      5  O   UNL     1      62.736  62.382  64.683  0.00  0.00    +0.000 OA
ATOM      6  O   UNL     1      61.620  62.138  65.540  0.00  0.00    +0.000 OA
ATOM      7  C   UNL     1      61.975  62.590  66.132  0.00  0.00    +0.000 C 
ATOM      8  C   UNL     1      61.594  62.693  66.856  0.00  0.00    +0.000 C 
ATOM      9  O   UNL     1      61.880  63.128  67.496  0.00  0.00    +0.000 OA
ATOM     10  C   UNL     1      61.323  63.084  68.103  0.00  0.00    +0.000 C 
ATOM     11  C   UNL     1      60.693  62.622  67.838  0.00  0.00    +0.000 C 
ATOM     12  O   UNL     1      60.015  62.434  68.269  0.00  0.00    +0.000 OA
ATOM     13  C   UNL     1      60.860  62.380  67.067  0.00  0.00    +0.000 C 
ATOM     14  O   UNL     1      60.379  61.908  66.591  0.00  0.00    +0.000 OA
ATOM     15  N   UNL     1      61.386  63.440  68.845  0.00  0.00    +0.000 N 
ATOM     16  C   UNL     1      62.051  63.889  69.033  0.00  0.00    +0.000 A 
ATOM     17  C   UNL     1      62.114  64.244  69.774  0.00  0.00    +0.000 A 
ATOM     18  C   UNL     1      61.510  64.151  70.328  0.00  0.00    +0.000 A 
ATOM     19  N   UNL     1      61.572  64.506  71.071  0.00  0.00    +0.000 NA
ATOM     20  O   UNL     1      62.238  64.955  71.258  0.00  0.00    +0.000 OA
ATOM     21  N   UNL     1      60.843  63.702  70.141  0.00  0.00    +0.000 NA
ATOM     22  C   UNL     1      60.781  63.346  69.399  0.00  0.00    +0.000 A 
ATOM     23  O   UNL     1      60.116  62.898  69.212  0.00  0.00    +0.000 OA
ENDROOT
TORSDOF 0
ENDMDL
MODEL 3
REMARK VINA RESULT:   -10.417      3.670      5.897
REMARK INTER + INTRA:         -10.417
REMARK INTER:                 -10.417
REMARK INTRA:                   0.000
REMARK UNBOUND:                 0.000
ROOT
REMARK  Name = molnupiravir
REMARK                            x       y       z     vdW  Elec       q    Type
REMARK                         _______ _______ _______ _____ _____    ______ ____
ATOM      1  C   UNL     1      60.326  62.007  68.293  0.00  0.00    +0.000 C 
ATOM      2  C   UNL     1      60.727  62.455  68.857  0.00  0.00    +0.000 C 
ATOM      3  C   UNL     1      60.531  62.386  69.655  0.00  0.00    +0.000 C 
ATOM      4  C   UNL     1      61.325  62.973  68.623  0.00  0.00    +0.000 C 
ATOM      5  O   UNL     1      61.521  63.043  67.824  0.00  0.00    +0.000 OA
ATOM      6  O   UNL     1      61.727  63.421  69.186  0.00  0.00    +0.000 OA
ATOM      7  C   UNL     1      62.325  63.940  68.953  0.00  0.00    +0.000 C 
ATOM      8  C   UNL     1      62.727  64.388  69.516  0.00  0.00    +0.000 C 
ATOM      9  O   UNL     1      63.334  64.926  69.366  0.00  0.00    +0.000 OA
ATOM     10  C   UNL     1      63.574  65.248  70.086  0.00  0.00    +0.000 C 
ATOM     11  C   UNL     1      63.115  64.908  70.682  0.00  0.00    +0.000 C 
ATOM     12  O   UNL     1      63.171  65.072  71.489  0.00  0.00    +0.000 OA
ATOM     13  C   UNL     1      62.592  64.377  70.330  0.00  0.00    +0.000 C 
ATOM     14  O   UNL     1      62.031  63.916  70.723  0.00  0.00    +0.000 OA
ATOM     15  N   UNL     1      64.168  65.810  70.191  0.00  0.00    +0.000 N 
ATOM     16  C   UNL     1      64.583  66.100  69.540  0.00  0.00    +0.000 A 
ATOM     17  C   UNL     1      65.177  66.662  69.645  0.00  0.00    +0.000 A 
ATOM     18  C   UNL     1      65.357  66.934  70.404  0.00  0.00    +0.000 A 
ATOM     19  N   UNL     1      65.952  67.496  70.510  0.00  0.00    +0.000 NA
ATOM     20  O   UNL     1      66.366  67.786  69.857  0.00  0.00    +0.000 OA
ATOM     21  N   UNL     1      64.944  66.644  71.056  0.00  0.00    +0.000 NA
ATOM     22  C   UNL     1      64.349  66.081  70.950  0.00  0.00    +0.000 A 
ATOM     23  O   UNL     1      63.936  65.791  71.601  0.00  0.00    +0.000 OA
ENDROOT
TORSDOF 0
ENDMDL
MODEL 4
REMARK VINA RESULT:   -10.234      2.821      4.541
REMARK INTER + INTRA:         -10.234
REMARK INTER:                 -10.234
REMARK INTRA:                   0.000
REMARK UNBOUND:                 0.000
ROOT
REMARK  Name = molnupiravir
REMARK                            x       y       z     vdW  Elec       q    Type
REMARK                         _______ _______ _______ _____ _____    ______ ____
ATOM      1  C   UNL     1      65.959  67.379  70.632  0.00  0.00    +0.000 C 
ATOM      2  C   UNL     1      65.379  66.813  70.783  0.00  0.00    +0.000 C 
ATOM      3  C   UNL     1      65.215  66.587  71.559  0.00  0.00    +0.000 C 
ATOM      4  C   UNL     1      64.961  66.472  70.158  0.00  0.00    +0.000 C 
ATOM      5  O   UNL     1      65.125  66.698  69.382  0.00  0.00    +0.000 OA
ATOM      6  O   UNL     1      64.381  65.907  70.309  0.00  0.00    +0.000 OA
ATOM      7  C   UNL     1      63.964  65.566  69.684  0.00  0.00    +0.000 C 
ATOM      8  C   UNL     1      63.383  65.000  69.835  0.00  0.00    +0.000 C 
ATOM      9  O   UNL     1      62.923  64.614  69.269  0.00  0.00    +0.000 OA
ATOM     10  C   UNL     1      62.416  64.096  69.663  0.00  0.00    +0.000 C 
ATOM     11  C   UNL     1      62.563  64.162  70.472  0.00  0.00    +0.000 C 
ATOM     12  O   UNL     1      62.178  63.743  71.070  0.00  0.00    +0.000 OA
ATOM     13  C   UNL     1      63.160  64.721  70.579  0.00  0.00    +0.000 C 
ATOM     14  O   UNL     1      63.478  64.959  71.302  0.00  0.00    +0.000 OA
ATOM     15  N   UNL     1      61.861  63.599  69.309  0.00  0.00    +0.000 N 
ATOM     16  C   UNL     1      61.776  63.592  68.489  0.00  0.00    +0.000 A 
ATOM     17  C   UNL     1      61.221  63.096  68.135  0.00  0.00    +0.000 A 
ATOM     18  C   UNL     1      60.749  62.606  68.602  0.00  0.00    +0.000 A 
ATOM     19  N   UNL     1      60.193  62.108  68.249  0.00  0.00    +0.000 NA
ATOM     20  O   UNL     1      60.109  62.102  67.428  0.00  0.00    +0.000 OA
ATOM     21  N   UNL     1      60.833  62.612  69.423  0.00  0.00    +0.000 NA
ATOM     22  C   UNL     1      61.389  63.109  69.776  0.00  0.00    +0.000 A 
ATOM     23  O   UNL     1      61.474  63.116  70.596  0.00  0.00    +0.000 OA
ENDROOT
TORSDOF 0
ENDMDL
MODEL 5
REMARK VINA RESULT:    -9.938      1.596      2.879
REMARK INTER + INTRA:          -9.938
REMARK INTER:                  -9.938
REMARK INTRA:                   0.000
REMARK UNBOUND:                 0.000
ROOT
REMARK  Name = molnupiravir
REMARK                            x       y       z     vdW  Elec       q    Type
REMARK                         _______ _______ _______ _____ _____    ______ ____
ATOM      1  C   UNL     1      60.222  65.429  73.094  0.00  0.00    +0.000 C 
ATOM      2  C   UNL     1      60.594  65.195  72.396  0.00  0.00    +0.000 C 
ATOM      3  C   UNL     1      61.396  65.355  72.283  0.00  0.00    +0.000 C 
ATOM      4  C   UNL     1      60.166  64.802  71.811  0.00  0.00    +0.000 C 
ATOM      5  O   UNL     1      59.365  64.642  71.924  0.00  0.00    +0.000 OA
ATOM      6  O   UNL     1      60.539  64.568  71.114  0.00  0.00    +0.000 OA
ATOM      7  C   UNL     1      60.110  64.174  70.528  0.00  0.00    +0.000 C 
ATOM      8  C   UNL     1      60.483  63.940  69.831  0.00  0.00    +0.000 C 
ATOM      9  O   UNL     1      60.128  63.545  69.200  0.00  0.00    +0.000 OA
ATOM     10  C   UNL     1      60.702  63.421  68.621  0.00  0.00    +0.000 C 
ATOM     11  C   UNL     1      61.412  63.740  68.894  0.00  0.00    +0.000 C 
ATOM     12  O   UNL     1      62.131  63.739  68.489  0.00  0.00    +0.000 OA
ATOM     13  C   UNL     1      61.277  64.061  69.641  0.00  0.00    +0.000 C 
ATOM     14  O   UNL     1      61.837  64.437  70.116  0.00  0.00    +0.000 OA
ATOM     15  N   UNL     1      60.585  63.044  67.897  0.00  0.00    +0.000 N 
ATOM     16  C   UNL     1      59.841  62.751  67.698  0.00  0.00    +0.000 A 
ATOM     17  C   UNL     1      59.724  62.374  66.974  0.00  0.00    +0.000 A 
ATOM     18  C   UNL     1      60.354  62.290  66.447  0.00  0.00    +0.000 A 
ATOM     19  N   UNL     1      60.239  61.913  65.722  0.00  0.00    +0.000 NA
ATOM     20  O   UNL     1      59.493  61.620  65.525  0.00  0.00    +0.000 OA
ATOM     21  N   UNL     1      61.100  62.583  66.645  0.00  0.00    +0.000 NA
ATOM     22  C   UNL     1      61.215  62.960  67.370  0.00  0.00    +0.000 A 
ATOM     23  O   UNL     1      61.960  63.253  67.567  0.00  0.00    +0.000 OA
ENDROOT
TORSDOF 0
ENDMDL
MODEL 6
REMARK VINA RESULT:    -9.636      4.385      6.016
REMARK INTER + INTRA:          -9.636
REMARK INTER:                  -9.636
REMARK INTRA:                   0.000
REMARK UNBOUND:                 0.000
ROOT
REMARK  Name = molnupiravir
REMARK                            x       y       z     vdW  Elec       q    Type
REMARK                         _______ _______ _______ _____ _____    ______ ____
ATOM      1  C   UNL     1      66.992  67.566  70.919  0.00  0.00    +0.000 C 
ATOM      2  C   UNL     1      66.284  67.304  70.587  0.00  0.00    +0.000 C 
ATOM      3  C   UNL     1      66.061  67.563  69.836  0.00  0.00    +0.000 C 
ATOM      4  C   UNL     1      65.799  66.784  71.004  0.00  0.00    +0.000 C 
ATOM      5  O   UNL     1      66.023  66.525  71.755  0.00  0.00    +0.000 OA
ATOM      6  O   UNL     1      65.091  66.522  70.672  0.00  0.00    +0.000 OA
ATOM      7  C   UNL     1      64.606  66.002  71.090  0.00  0.00    +0.000 C 
ATOM      8  C   UNL     1      63.898  65.741  70.758  0.00  0.00    +0.000 C 
ATOM      9  O   UNL     1      63.360  65.223  71.108  0.00  0.00    +0.000 OA
ATOM     10  C   UNL     1      62.733  65.113  70.584  0.00  0.00    +0.000 C 
ATOM     11  C   UNL     1      62.884  65.563  69.909  0.00  0.00    +0.000 C 
ATOM     12  O   UNL     1      62.399  65.616  69.243  0.00  0.00    +0.000 OA
ATOM     13  C   UNL     1      63.604  65.951  70.016  0.00  0.00    +0.000 C 
ATOM     14  O   UNL     1      63.966  66.459  69.477  0.00  0.00    +0.000 OA
ATOM     15  N   UNL     1      62.072  64.637  70.712  0.00  0.00    +0.000 N 
ATOM     16  C   UNL     1      61.995  64.217  71.417  0.00  0.00    +0.000 A 
ATOM     17  C   UNL     1      61.334  63.741  71.546  0.00  0.00    +0.000 A 
ATOM     18  C   UNL     1      60.748  63.686  70.967  0.00  0.00    +0.000 A 
ATOM     19  N   UNL     1      60.086  63.209  71.095  0.00  0.00    +0.000 NA
ATOM     20  O   UNL     1      60.011  62.790  71.801  0.00  0.00    +0.000 OA
ATOM     21  N   UNL     1      60.824  64.105  70.261  0.00  0.00    +0.000 NA
ATOM     22  C   UNL     1      61.486  64.581  70.133  0.00  0.00    +0.000 A 
ATOM     23  O   UNL     1      61.561  65.001  69.428  0.00  0.00    +0.000 OA
ENDROOT
TORSDOF 0
ENDMDL
MODEL 7
REMARK VINA RESULT:    -9.213      5.299      6.698
REMARK INTER + INTRA:          -9.213
REMARK INTER:                  -9.213
REMARK INTRA:                   0.000
REMARK UNBOUND:                 0.000
ROOT
REMARK  Name = molnupiravir
REMARK                            x       y       z     vdW  Elec       q    Type
REMARK                         _______ _______ _______ _____ _____    ______ ____
ATOM      1  C   UNL     1      66.387  67.267  71.013  0.00  0.00    +0.000 C 
ATOM      2  C   UNL     1      65.646  67.034  70.737  0.00  0.00    +0.000 C 
ATOM      3  C   UNL     1      65.527  66.911  69.930  0.00  0.00    +0.000 C 
ATOM      4  C   UNL     1      65.024  66.924  71.267  0.00  0.00    +0.000 C 
ATOM      5  O   UNL     1      65.143  67.048  72.074  0.00  0.00    +0.000 OA
ATOM      6  O   UNL     1      64.283  66.691  70.991  0.00  0.00    +0.000 OA
ATOM      7  C   UNL     1      63.660  66.581  71.522  0.00  0.00    +0.000 C 
ATOM      8  C   UNL     1      62.919  66.348  71.246  0.00  0.00    +0.000 C 
ATOM      9  O   UNL     1      62.248  66.217  71.708  0.00  0.00    +0.000 OA
ATOM     10  C   UNL     1      61.633  65.993  71.206  0.00  0.00    +0.000 C 
ATOM     11  C   UNL     1      61.923  65.985  70.434  0.00  0.00    +0.000 C 
ATOM     12  O   UNL     1      61.494  65.791  69.757  0.00  0.00    +0.000 OA
ATOM     13  C   UNL     1      62.718  66.204  70.458  0.00  0.00    +0.000 C 
ATOM     14  O   UNL     1      63.223  66.269  69.809  0.00  0.00    +0.000 OA
ATOM     15  N   UNL     1      60.863  65.809  71.437  0.00  0.00    +0.000 N 
ATOM     16  C   UNL     1      60.651  65.841  72.234  0.00  0.00    +0.000 A 
ATOM     17  C   UNL     1      59.881  65.657  72.465  0.00  0.00    +0.000 A 
ATOM     18  C   UNL     1      59.321  65.441  71.897  0.00  0.00    +0.000 A 
ATOM     19  N   UNL     1      58.550  65.256  72.128  0.00  0.00    +0.000 NA
ATOM     20  O   UNL     1      58.340  65.289  72.925  0.00  0.00    +0.000 OA
ATOM     21  N   UNL     1      59.532  65.408  71.100  0.00  0.00    +0.000 NA
ATOM     22  C   UNL     1      60.303  65.592  70.870  0.00  0.00    +0.000 A 
ATOM     23  O   UNL     1      60.514  65.560  70.074  0.00  0.00    +0.000 OA
ENDROOT
TORSDOF 0
ENDMDL
MODEL 8
REMARK VINA RESULT:    -8.257     13.370     13.751
REMARK INTER + INTRA:          -8.257
REMARK INTER:                  -8.257
REMARK INTRA:                   0.000
REMARK UNBOUND:                 0.000
ROOT
REMARK  Name = molnupiravir
REMARK                            x       y       z     vdW  Elec       q    Type
REMARK                         _______ _______ _______ _____ _____    ______ ____
ATOM      1  C   UNL     1      61.232  66.564  53.742  0.00  0.00    +0.000 C 
ATOM      2  C   UNL     1      61.776  65.954  53.848  0.00  0.00    +0.000 C 
ATOM      3  C   UNL     1      62.517  66.115  54.174  0.00  0.00    +0.000 C 
ATOM      4  C   UNL     1      61.582  65.183  53.628  0.00  0.00    +0.000 C 
ATOM      5  O   UNL     1      60.841  65.023  53.302  0.00  0.00    +0.000 OA
ATOM      6  O   UNL     1      62.126  64.574  53.734  0.00  0.00    +0.000 OA
ATOM      7  C   UNL     1      61.932  63.803  53.514  0.00  0.00    +0.000 C 
ATOM      8  C   UNL     1      62.476  63.193  53.619  0.00  0.00    +0.000 C 
ATOM      9  O   UNL     1      62.360  62.399  53.427  0.00  0.00    +0.000 OA
ATOM     10  C   UNL     1      63.046  61.985  53.625  0.00  0.00    +0.000 C 
ATOM     11  C   UNL     1      63.585  62.523  53.940  0.00  0.00    +0.000 C 
ATOM     12  O   UNL     1      64.344  62.345  54.211  0.00  0.00    +0.000 OA
ATOM     13  C   UNL     1      63.234  63.270  53.937  0.00  0.00    +0.000 C 
ATOM     14  O   UNL     1      63.580  63.970  54.204  0.00  0.00    +0.000 OA
ATOM     15  N   UNL     1      63.168  61.176  53.525  0.00  0.00    +0.000 N 
ATOM     16  C   UNL     1      62.574  60.705  53.200  0.00  0.00    +0.000 A 
ATOM     17  C   UNL     1      62.697  59.895  53.100  0.00  0.00    +0.000 A 
ATOM     18  C   UNL     1      63.416  59.557  53.325  0.00  0.00    +0.000 A 
ATOM     19  N   UNL     1      63.539  58.747  53.226  0.00  0.00    +0.000 NA
ATOM     20  O   UNL     1      62.944  58.276  52.901  0.00  0.00    +0.000 OA
ATOM     21  N   UNL     1      64.010  60.027  53.650  0.00  0.00    +0.000 NA
ATOM     22  C   UNL     1      63.887  60.837  53.750  0.00  0.00    +0.000 A 
ATOM     23  O   UNL     1      64.481  61.308  54.074  0.00  0.00    +0.000 OA
ENDROOT
TORSDOF 0
ENDMDL
MODEL 9
REMARK VINA RESULT:    -8.233     24.131     25.578
REMARK INTER + INTRA:          -8.233
REMARK INTER:                  -8.233
REMARK INTRA:                   0.000
REMARK UNBOUND:                 0.000
ROOT
REMARK  Name = molnupiravir
REMARK                            x       y       z     vdW  Elec       q    Type
REMARK                         _______ _______ _______ _____ _____    ______ ____
ATOM      1  C   UNL     1      72.711  78.871  48.336  0.00  0.00    +0.000 C 
ATOM      2  C   UNL     1      72.391  79.212  49.015  0.00  0.00    +0.000 C 
ATOM      3  C   UNL     1      72.890  79.480  49.616  0.00  0.00    +0.000 C 
ATOM      4  C   UNL     1      71.573  79.283  49.096  0.00  0.00    +0.000 C 
ATOM      5  O   UNL     1      71.075  79.015  48.496  0.00  0.00    +0.000 OA
ATOM      6  O   UNL     1      71.253  79.624  49.775  0.00  0.00    +0.000 OA
ATOM      7  C   UNL     1      70.435  79.696  49.856  0.00  0.00    +0.000 C 
ATOM      8  C   UNL     1      70.116  80.036  50.535  0.00  0.00    +0.000 C 
ATOM      9  O   UNL     1      69.313  80.144  50.692  0.00  0.00    +0.000 OA
ATOM     10  C   UNL     1      69.243  80.503  51.432  0.00  0.00    +0.000 C 
ATOM     11  C   UNL     1      70.003  80.617  51.731  0.00  0.00    +0.000 C 
ATOM     12  O   UNL     1      70.191  80.959  52.459  0.00  0.00    +0.000 OA
ATOM     13  C   UNL     1      70.543  80.328  51.178  0.00  0.00    +0.000 C 
ATOM     14  O   UNL     1      71.364  80.331  51.254  0.00  0.00    +0.000 OA
ATOM     15  N   UNL     1      68.538  80.711  51.804  0.00  0.00    +0.000 N 
ATOM     16  C   UNL     1      67.816  80.563  51.435  0.00  0.00    +0.000 A 
ATOM     17  C   UNL     1      67.110  80.771  51.808  0.00  0.00    +0.000 A 
ATOM     18  C   UNL     1      67.127  81.128  52.552  0.00  0.00    +0.000 A 
ATOM     19  N   UNL     1      66.422  81.337  52.926  0.00  0.00    +0.000 NA
ATOM     20  O   UNL     1      65.700  81.188  52.555  0.00  0.00    +0.000 OA
ATOM     21  N   UNL     1      67.849  81.277  52.922  0.00  0.00    +0.000 NA
ATOM     22  C   UNL     1      68.555  81.069  52.548  0.00  0.00    +0.000 A 
ATOM     23  O   UNL     1      69.276  81.217  52.918  0.00  0.00    +0.000 OA
ENDROOT
TORSDOF 0
ENDMDL
