MODEL 1
REMARK VINA RESULT:    -9.151      0.000      0.000
REMARK INTER + INTRA:          -9.151
REMARK INTER:                  -9.151
REMARK INTRA:                   0.000
REMARK UNBOUND:                 0.000
ROOT
REMARK  Name = moprolol
REMARK                            x       y       z     vdW  Elec       q    Type
REMARK                         _______ _______ _______ _____ _____    ______ ____
ATOM      1  C   UNL     1      60.089  64.587  70.587  0.00  0.00    +0.000 C 
ATOM      2  O   UNL     1      60.333  64.073  69.989  0.00  0.00    +0.000 OA
ATOM      3  C   UNL     1      60.380  63.262  70.136  0.00  0.00    +0.000 A 
ATOM      4  C   UNL     1      60.623  62.748  69.539  0.00  0.00    +0.000 A 
ATOM      5  O   UNL     1      60.820  63.044  68.794  0.00  0.00    +0.000 OA
ATOM      6  C   UNL     1      61.063  62.530  68.197  0.00  0.00    +0.000 C 
ATOM      7  C   UNL     1      61.259  62.826  67.453  0.00  0.00    +0.000 C 
ATOM      8  O   UNL     1      61.212  63.637  67.306  0.00  0.00    +0.000 OA
ATOM      9  C   UNL     1      61.503  62.312  66.855  0.00  0.00    +0.000 C 
ATOM     10  N   UNL     1      61.700  62.607  66.110  0.00  0.00    +0.000 NA
ATOM     11  C   UNL     1      61.943  62.094  65.513  0.00  0.00    +0.000 C 
ATOM     12  C   UNL     1      62.139  62.389  64.769  0.00  0.00    +0.000 C 
ATOM     13  C   UNL     1      61.990  61.283  65.661  0.00  0.00    +0.000 C 
ATOM     14  C   UNL     1      60.670  61.938  69.687  0.00  0.00    +0.000 A 
ATOM     15  C   UNL     1      60.474  61.641  70.431  0.00  0.00    +0.000 A 
ATOM     16  C   UNL     1      60.231  62.156  71.029  0.00  0.00    +0.000 A 
ATOM     17  C   UNL     1      60.183  62.967  70.881  0.00  0.00    +0.000 A 
ENDROOT
TORSDOF 0
ENDMDL
MODEL 2
REMARK VINA RESULT:    -8.439      1.660      4.326
REMARK INTER + INTRA:          -8.439
REMARK INTER:                  -8.439
REMARK INTRA:                   0.000
REMARK UNBOUND:                 0.000
ROOT
REMARK  Name = moprolol
REMARK                            x       y       z     vdW  Elec       q    Type
REMARK                         _______ _______ _______ _____ _____    ______ ____
ATOM      1  C   UNL     1      62.137  62.403  65.372  0.00  0.00    +0.000 C 
ATOM      2  O   UNL     1      61.819  62.577  66.113  0.00  0.00    +0.000 OA
ATOM      3  C   UNL     1      61.023  62.421  66.268  0.00  0.00    +0.000 A 
ATOM      4  C   UNL     1      60.705  62.595  67.008  0.00  0.00    +0.000 A 
ATOM      5  O   UNL     1      61.182  62.923  67.596  0.00  0.00    +0.000 OA
ATOM      6  C   UNL     1      60.864  63.097  68.337  0.00  0.00    +0.000 C 
ATOM      7  C   UNL     1      61.341  63.425  68.923  0.00  0.00    +0.000 C 
ATOM      8  O   UNL     1      62.138  63.580  68.769  0.00  0.00    +0.000 OA
ATOM      9  C   UNL     1      61.024  63.599  69.665  0.00  0.00    +0.000 C 
ATOM     10  N   UNL     1      61.501  63.928  70.253  0.00  0.00    +0.000 NA
ATOM     11  C   UNL     1      61.183  64.101  70.993  0.00  0.00    +0.000 C 
ATOM     12  C   UNL     1      61.660  64.429  71.580  0.00  0.00    +0.000 C 
ATOM     13  C   UNL     1      60.387  63.946  71.147  0.00  0.00    +0.000 C 
ATOM     14  C   UNL     1      59.909  62.440  67.162  0.00  0.00    +0.000 A 
ATOM     15  C   UNL     1      59.432  62.111  66.576  0.00  0.00    +0.000 A 
ATOM     16  C   UNL     1      59.750  61.938  65.834  0.00  0.00    +0.000 A 
ATOM     17  C   UNL     1      60.546  62.093  65.680  0.00  0.00    +0.000 A 
ENDROOT
TORSDOF 0
ENDMDL
MODEL 3
REMARK VINA RESULT:    -8.206      2.947      3.932
REMARK INTER + INTRA:          -8.206
REMARK INTER:                  -8.206
REMARK INTRA:                   0.000
REMARK UNBOUND:                 0.000
ROOT
REMARK  Name = moprolol
REMARK                            x       y       z     vdW  Elec       q    Type
REMARK                         _______ _______ _______ _____ _____    ______ ____
ATOM      1  C   UNL     1      60.465  62.016  68.722  0.00  0.00    +0.000 C 
ATOM      2  O   UNL     1      60.995  62.502  69.126  0.00  0.00    +0.000 OA
ATOM      3  C   UNL     1      61.016  62.493  69.951  0.00  0.00    +0.000 A 
ATOM      4  C   UNL     1      61.545  62.979  70.355  0.00  0.00    +0.000 A 
ATOM      5  O   UNL     1      62.055  63.474  69.935  0.00  0.00    +0.000 OA
ATOM      6  C   UNL     1      62.585  63.959  70.339  0.00  0.00    +0.000 C 
ATOM      7  C   UNL     1      63.094  64.453  69.920  0.00  0.00    +0.000 C 
ATOM      8  O   UNL     1      63.074  64.462  69.094  0.00  0.00    +0.000 OA
ATOM      9  C   UNL     1      63.625  64.939  70.324  0.00  0.00    +0.000 C 
ATOM     10  N   UNL     1      64.135  65.434  69.904  0.00  0.00    +0.000 NA
ATOM     11  C   UNL     1      64.664  65.920  70.308  0.00  0.00    +0.000 C 
ATOM     12  C   UNL     1      65.173  66.414  69.888  0.00  0.00    +0.000 C 
ATOM     13  C   UNL     1      64.685  65.911  71.133  0.00  0.00    +0.000 C 
ATOM     14  C   UNL     1      61.566  62.970  71.180  0.00  0.00    +0.000 A 
ATOM     15  C   UNL     1      61.057  62.476  71.601  0.00  0.00    +0.000 A 
ATOM     16  C   UNL     1      60.526  61.990  71.196  0.00  0.00    +0.000 A 
ATOM     17  C   UNL     1      60.506  61.999  70.371  0.00  0.00    +0.000 A 
ENDROOT
TORSDOF 0
ENDMDL
MODEL 4
REMARK VINA RESULT:    -8.076      3.672      4.730
REMARK INTER + INTRA:          -8.076
REMARK INTER:                  -8.076
REMARK INTRA:                   0.000
REMARK UNBOUND:                 0.000
ROOT
REMARK  Name = moprolol
REMARK                            x       y       z     vdW  Elec       q    Type
REMARK                         _______ _______ _______ _____ _____    ______ ____
ATOM      1  C   UNL     1      60.906  62.853  69.773  0.00  0.00    +0.000 C 
ATOM      2  O   UNL     1      61.469  63.369  70.086  0.00  0.00    +0.000 OA
ATOM      3  C   UNL     1      61.522  63.475  70.903  0.00  0.00    +0.000 A 
ATOM      4  C   UNL     1      62.084  63.991  71.216  0.00  0.00    +0.000 A 
ATOM      5  O   UNL     1      62.595  64.400  70.714  0.00  0.00    +0.000 OA
ATOM      6  C   UNL     1      63.157  64.915  71.027  0.00  0.00    +0.000 C 
ATOM      7  C   UNL     1      63.667  65.324  70.524  0.00  0.00    +0.000 C 
ATOM      8  O   UNL     1      63.614  65.218  69.707  0.00  0.00    +0.000 OA
ATOM      9  C   UNL     1      64.230  65.840  70.837  0.00  0.00    +0.000 C 
ATOM     10  N   UNL     1      64.741  66.249  70.335  0.00  0.00    +0.000 NA
ATOM     11  C   UNL     1      65.303  66.764  70.648  0.00  0.00    +0.000 C 
ATOM     12  C   UNL     1      65.813  67.173  70.146  0.00  0.00    +0.000 C 
ATOM     13  C   UNL     1      65.355  66.871  71.465  0.00  0.00    +0.000 C 
ATOM     14  C   UNL     1      62.137  64.097  72.033  0.00  0.00    +0.000 A 
ATOM     15  C   UNL     1      61.627  63.688  72.536  0.00  0.00    +0.000 A 
ATOM     16  C   UNL     1      61.064  63.172  72.222  0.00  0.00    +0.000 A 
ATOM     17  C   UNL     1      61.011  63.066  71.406  0.00  0.00    +0.000 A 
ENDROOT
TORSDOF 0
ENDMDL
MODEL 5
REMARK VINA RESULT:    -7.909      2.385      5.052
REMARK INTER + INTRA:          -7.909
REMARK INTER:                  -7.909
REMARK INTRA:                   0.000
REMARK UNBOUND:                 0.000
ROOT
REMARK  Name = moprolol
REMARK                            x       y       z     vdW  Elec       q    Type
REMARK                         _______ _______ _______ _____ _____    ______ ____
ATOM      1  C   UNL     1      60.842  62.952  68.299  0.00  0.00    +0.000 C 
ATOM      2  O   UNL     1      60.579  63.307  68.996  0.00  0.00    +0.000 OA
ATOM      3  C   UNL     1      60.548  62.870  69.696  0.00  0.00    +0.000 A 
ATOM      4  C   UNL     1      60.285  63.224  70.392  0.00  0.00    +0.000 A 
ATOM      5  O   UNL     1      60.052  64.016  70.390  0.00  0.00    +0.000 OA
ATOM      6  C   UNL     1      59.789  64.370  71.086  0.00  0.00    +0.000 C 
ATOM      7  C   UNL     1      59.556  65.161  71.084  0.00  0.00    +0.000 C 
ATOM      8  O   UNL     1      59.587  65.599  70.384  0.00  0.00    +0.000 OA
ATOM      9  C   UNL     1      59.293  65.516  71.781  0.00  0.00    +0.000 C 
ATOM     10  N   UNL     1      59.060  66.308  71.779  0.00  0.00    +0.000 NA
ATOM     11  C   UNL     1      58.797  66.662  72.475  0.00  0.00    +0.000 C 
ATOM     12  C   UNL     1      58.564  67.453  72.473  0.00  0.00    +0.000 C 
ATOM     13  C   UNL     1      58.766  66.226  73.174  0.00  0.00    +0.000 C 
ATOM     14  C   UNL     1      60.254  62.787  71.091  0.00  0.00    +0.000 A 
ATOM     15  C   UNL     1      60.487  61.996  71.094  0.00  0.00    +0.000 A 
ATOM     16  C   UNL     1      60.750  61.641  70.397  0.00  0.00    +0.000 A 
ATOM     17  C   UNL     1      60.781  62.078  69.697  0.00  0.00    +0.000 A 
ENDROOT
TORSDOF 0
ENDMDL
MODEL 6
REMARK VINA RESULT:    -7.830      1.703      2.070
REMARK INTER + INTRA:          -7.830
REMARK INTER:                  -7.830
REMARK INTRA:                   0.000
REMARK UNBOUND:                 0.000
ROOT
REMARK  Name = moprolol
REMARK                            x       y       z     vdW  Elec       q    Type
REMARK                         _______ _______ _______ _____ _____    ______ ____
ATOM      1  C   UNL     1      63.207  64.882  71.367  0.00  0.00    +0.000 C 
ATOM      2  O   UNL     1      62.686  64.465  70.881  0.00  0.00    +0.000 OA
ATOM      3  C   UNL     1      62.080  64.015  71.216  0.00  0.00    +0.000 A 
ATOM      4  C   UNL     1      61.559  63.599  70.731  0.00  0.00    +0.000 A 
ATOM      5  O   UNL     1      61.643  63.631  69.911  0.00  0.00    +0.000 OA
ATOM      6  C   UNL     1      61.122  63.215  69.426  0.00  0.00    +0.000 C 
ATOM      7  C   UNL     1      61.206  63.247  68.607  0.00  0.00    +0.000 C 
ATOM      8  O   UNL     1      61.812  63.698  68.271  0.00  0.00    +0.000 OA
ATOM      9  C   UNL     1      60.685  62.831  68.121  0.00  0.00    +0.000 C 
ATOM     10  N   UNL     1      60.768  62.863  67.301  0.00  0.00    +0.000 NA
ATOM     11  C   UNL     1      60.248  62.447  66.816  0.00  0.00    +0.000 C 
ATOM     12  C   UNL     1      60.332  62.479  65.997  0.00  0.00    +0.000 C 
ATOM     13  C   UNL     1      59.643  61.997  67.151  0.00  0.00    +0.000 C 
ATOM     14  C   UNL     1      60.954  63.149  71.066  0.00  0.00    +0.000 A 
ATOM     15  C   UNL     1      60.870  63.116  71.886  0.00  0.00    +0.000 A 
ATOM     16  C   UNL     1      61.391  63.533  72.372  0.00  0.00    +0.000 A 
ATOM     17  C   UNL     1      61.997  63.983  72.037  0.00  0.00    +0.000 A 
ENDROOT
TORSDOF 0
ENDMDL
MODEL 7
REMARK VINA RESULT:    -7.729      3.540      4.975
REMARK INTER + INTRA:          -7.729
REMARK INTER:                  -7.729
REMARK INTRA:                   0.000
REMARK UNBOUND:                 0.000
ROOT
REMARK  Name = moprolol
REMARK                            x       y       z     vdW  Elec       q    Type
REMARK                         _______ _______ _______ _____ _____    ______ ____
ATOM      1  C   UNL     1      65.143  66.494  69.901  0.00  0.00    +0.000 C 
ATOM      2  O   UNL     1      64.508  66.047  70.181  0.00  0.00    +0.000 OA
ATOM      3  C   UNL     1      64.142  66.251  70.893  0.00  0.00    +0.000 A 
ATOM      4  C   UNL     1      63.508  65.806  71.173  0.00  0.00    +0.000 A 
ATOM      5  O   UNL     1      63.238  65.156  70.743  0.00  0.00    +0.000 OA
ATOM      6  C   UNL     1      62.603  64.710  71.023  0.00  0.00    +0.000 C 
ATOM      7  C   UNL     1      62.334  64.061  70.592  0.00  0.00    +0.000 C 
ATOM      8  O   UNL     1      62.699  63.856  69.880  0.00  0.00    +0.000 OA
ATOM      9  C   UNL     1      61.698  63.614  70.872  0.00  0.00    +0.000 C 
ATOM     10  N   UNL     1      61.428  62.964  70.442  0.00  0.00    +0.000 NA
ATOM     11  C   UNL     1      60.794  62.518  70.722  0.00  0.00    +0.000 C 
ATOM     12  C   UNL     1      60.524  61.869  70.291  0.00  0.00    +0.000 C 
ATOM     13  C   UNL     1      60.429  62.722  71.433  0.00  0.00    +0.000 C 
ATOM     14  C   UNL     1      63.143  66.010  71.884  0.00  0.00    +0.000 A 
ATOM     15  C   UNL     1      63.412  66.659  72.315  0.00  0.00    +0.000 A 
ATOM     16  C   UNL     1      64.048  67.105  72.035  0.00  0.00    +0.000 A 
ATOM     17  C   UNL     1      64.413  66.902  71.324  0.00  0.00    +0.000 A 
ENDROOT
TORSDOF 0
ENDMDL
MODEL 8
REMARK VINA RESULT:    -7.591      5.107      5.865
REMARK INTER + INTRA:          -7.591
REMARK INTER:                  -7.591
REMARK INTRA:                   0.000
REMARK UNBOUND:                 0.000
ROOT
REMARK  Name = moprolol
REMARK                            x       y       z     vdW  Elec       q    Type
REMARK                         _______ _______ _______ _____ _____    ______ ____
ATOM      1  C   UNL     1      66.505  68.012  69.682  0.00  0.00    +0.000 C 
ATOM      2  O   UNL     1      65.952  67.422  69.848  0.00  0.00    +0.000 OA
ATOM      3  C   UNL     1      65.942  67.064  70.592  0.00  0.00    +0.000 A 
ATOM      4  C   UNL     1      65.390  66.474  70.757  0.00  0.00    +0.000 A 
ATOM      5  O   UNL     1      64.848  66.241  70.180  0.00  0.00    +0.000 OA
ATOM      6  C   UNL     1      64.296  65.652  70.346  0.00  0.00    +0.000 C 
ATOM      7  C   UNL     1      63.754  65.420  69.769  0.00  0.00    +0.000 C 
ATOM      8  O   UNL     1      63.765  65.778  69.025  0.00  0.00    +0.000 OA
ATOM      9  C   UNL     1      63.202  64.830  69.934  0.00  0.00    +0.000 C 
ATOM     10  N   UNL     1      62.660  64.597  69.357  0.00  0.00    +0.000 NA
ATOM     11  C   UNL     1      62.108  64.007  69.523  0.00  0.00    +0.000 C 
ATOM     12  C   UNL     1      61.566  63.775  68.946  0.00  0.00    +0.000 C 
ATOM     13  C   UNL     1      62.097  63.649  70.266  0.00  0.00    +0.000 C 
ATOM     14  C   UNL     1      65.379  66.116  71.500  0.00  0.00    +0.000 A 
ATOM     15  C   UNL     1      65.921  66.348  72.078  0.00  0.00    +0.000 A 
ATOM     16  C   UNL     1      66.473  66.938  71.912  0.00  0.00    +0.000 A 
ATOM     17  C   UNL     1      66.484  67.296  71.169  0.00  0.00    +0.000 A 
ENDROOT
TORSDOF 0
ENDMDL
MODEL 9
REMARK VINA RESULT:    -7.394      5.884      6.264
REMARK INTER + INTRA:          -7.394
REMARK INTER:                  -7.394
REMARK INTRA:                   0.000
REMARK UNBOUND:                 0.000
ROOT
REMARK  Name = moprolol
REMARK                            x       y       z     vdW  Elec       q    Type
REMARK                         _______ _______ _______ _____ _____    ______ ____
ATOM      1  C   UNL     1      59.433  66.901  73.222  0.00  0.00    +0.000 C 
ATOM      2  O   UNL     1      60.160  66.933  72.833  0.00  0.00    +0.000 OA
ATOM      3  C   UNL     1      60.193  67.165  72.041  0.00  0.00    +0.000 A 
ATOM      4  C   UNL     1      60.919  67.198  71.652  0.00  0.00    +0.000 A 
ATOM      5  O   UNL     1      61.612  67.000  72.053  0.00  0.00    +0.000 OA
ATOM      6  C   UNL     1      62.338  67.033  71.663  0.00  0.00    +0.000 C 
ATOM      7  C   UNL     1      63.031  66.834  72.064  0.00  0.00    +0.000 C 
ATOM      8  O   UNL     1      62.997  66.602  72.856  0.00  0.00    +0.000 OA
ATOM      9  C   UNL     1      63.758  66.867  71.675  0.00  0.00    +0.000 C 
ATOM     10  N   UNL     1      64.451  66.669  72.076  0.00  0.00    +0.000 NA
ATOM     11  C   UNL     1      65.177  66.701  71.687  0.00  0.00    +0.000 C 
ATOM     12  C   UNL     1      65.869  66.503  72.088  0.00  0.00    +0.000 C 
ATOM     13  C   UNL     1      65.211  66.933  70.896  0.00  0.00    +0.000 C 
ATOM     14  C   UNL     1      60.953  67.430  70.861  0.00  0.00    +0.000 A 
ATOM     15  C   UNL     1      60.260  67.628  70.459  0.00  0.00    +0.000 A 
ATOM     16  C   UNL     1      59.533  67.595  70.849  0.00  0.00    +0.000 A 
ATOM     17  C   UNL     1      59.500  67.364  71.640  0.00  0.00    +0.000 A 
ENDROOT
TORSDOF 0
ENDMDL
