MODEL 1
REMARK VINA RESULT:   -13.877      0.000      0.000
REMARK INTER + INTRA:         -13.877
REMARK INTER:                 -13.877
REMARK INTRA:                   0.000
REMARK UNBOUND:                 0.000
ROOT
REMARK  Name = morazone
REMARK                            x       y       z     vdW  Elec       q    Type
REMARK                         _______ _______ _______ _____ _____    ______ ____
ATOM      1  C   UNL     1      62.213  62.750  66.411  0.00  0.00    +0.000 C 
ATOM      2  C   UNL     1      61.468  62.575  66.718  0.00  0.00    +0.000 C 
ATOM      3  C   UNL     1      60.921  62.154  66.265  0.00  0.00    +0.000 C 
ATOM      4  O   UNL     1      60.177  61.980  66.573  0.00  0.00    +0.000 OA
ATOM      5  C   UNL     1      59.978  62.225  67.335  0.00  0.00    +0.000 C 
ATOM      6  C   UNL     1      60.523  62.646  67.789  0.00  0.00    +0.000 C 
ATOM      7  N   UNL     1      61.268  62.821  67.480  0.00  0.00    +0.000 NA
ATOM      8  C   UNL     1      61.814  63.242  67.935  0.00  0.00    +0.000 C 
ATOM      9  C   UNL     1      61.615  63.487  68.696  0.00  0.00    +0.000 A 
ATOM     10  C   UNL     1      60.895  63.353  69.075  0.00  0.00    +0.000 A 
ATOM     11  C   UNL     1      60.247  62.950  68.760  0.00  0.00    +0.000 C 
ATOM     12  N   UNL     1      60.935  63.693  69.826  0.00  0.00    +0.000 N 
ATOM     13  C   UNL     1      60.336  63.690  70.393  0.00  0.00    +0.000 C 
ATOM     14  N   UNL     1      61.681  64.037  69.910  0.00  0.00    +0.000 N 
ATOM     15  C   UNL     1      62.101  63.910  69.211  0.00  0.00    +0.000 A 
ATOM     16  O   UNL     1      62.871  64.161  69.056  0.00  0.00    +0.000 OA
ATOM     17  C   UNL     1      61.958  64.438  70.576  0.00  0.00    +0.000 A 
ATOM     18  C   UNL     1      61.472  64.522  71.238  0.00  0.00    +0.000 A 
ATOM     19  C   UNL     1      61.749  64.923  71.904  0.00  0.00    +0.000 A 
ATOM     20  C   UNL     1      62.511  65.240  71.908  0.00  0.00    +0.000 A 
ATOM     21  C   UNL     1      62.996  65.155  71.246  0.00  0.00    +0.000 A 
ATOM     22  C   UNL     1      62.719  64.754  70.580  0.00  0.00    +0.000 A 
ATOM     23  C   UNL     1      61.121  61.908  65.502  0.00  0.00    +0.000 A 
ATOM     24  C   UNL     1      61.866  62.084  65.195  0.00  0.00    +0.000 A 
ATOM     25  C   UNL     1      62.066  61.838  64.433  0.00  0.00    +0.000 A 
ATOM     26  C   UNL     1      61.520  61.417  63.978  0.00  0.00    +0.000 A 
ATOM     27  C   UNL     1      60.775  61.242  64.287  0.00  0.00    +0.000 A 
ATOM     28  C   UNL     1      60.576  61.488  65.049  0.00  0.00    +0.000 A 
ENDROOT
TORSDOF 0
ENDMDL
MODEL 2
REMARK VINA RESULT:   -13.492      0.853      5.298
REMARK INTER + INTRA:         -13.492
REMARK INTER:                 -13.492
REMARK INTRA:                   0.000
REMARK UNBOUND:                 0.000
ROOT
REMARK  Name = morazone
REMARK                            x       y       z     vdW  Elec       q    Type
REMARK                         _______ _______ _______ _____ _____    ______ ____
ATOM      1  C   UNL     1      62.696  64.217  69.196  0.00  0.00    +0.000 C 
ATOM      2  C   UNL     1      61.899  64.073  69.351  0.00  0.00    +0.000 C 
ATOM      3  C   UNL     1      61.561  64.334  70.057  0.00  0.00    +0.000 C 
ATOM      4  O   UNL     1      60.764  64.190  70.212  0.00  0.00    +0.000 OA
ATOM      5  C   UNL     1      60.304  63.784  69.660  0.00  0.00    +0.000 C 
ATOM      6  C   UNL     1      60.641  63.522  68.954  0.00  0.00    +0.000 C 
ATOM      7  N   UNL     1      61.439  63.667  68.800  0.00  0.00    +0.000 NA
ATOM      8  C   UNL     1      61.776  63.405  68.093  0.00  0.00    +0.000 C 
ATOM      9  C   UNL     1      61.316  63.000  67.542  0.00  0.00    +0.000 A 
ATOM     10  C   UNL     1      60.516  62.815  67.620  0.00  0.00    +0.000 A 
ATOM     11  C   UNL     1      60.034  63.005  68.264  0.00  0.00    +0.000 C 
ATOM     12  N   UNL     1      60.280  62.408  66.942  0.00  0.00    +0.000 N 
ATOM     13  C   UNL     1      59.523  62.120  66.788  0.00  0.00    +0.000 C 
ATOM     14  N   UNL     1      60.935  62.341  66.445  0.00  0.00    +0.000 N 
ATOM     15  C   UNL     1      61.576  62.706  66.816  0.00  0.00    +0.000 A 
ATOM     16  O   UNL     1      62.341  62.768  66.514  0.00  0.00    +0.000 OA
ATOM     17  C   UNL     1      60.948  61.973  65.707  0.00  0.00    +0.000 A 
ATOM     18  C   UNL     1      60.261  61.629  65.406  0.00  0.00    +0.000 A 
ATOM     19  C   UNL     1      60.274  61.261  64.667  0.00  0.00    +0.000 A 
ATOM     20  C   UNL     1      60.974  61.237  64.231  0.00  0.00    +0.000 A 
ATOM     21  C   UNL     1      61.660  61.580  64.532  0.00  0.00    +0.000 A 
ATOM     22  C   UNL     1      61.648  61.948  65.271  0.00  0.00    +0.000 A 
ATOM     23  C   UNL     1      62.021  64.741  70.609  0.00  0.00    +0.000 A 
ATOM     24  C   UNL     1      62.819  64.885  70.454  0.00  0.00    +0.000 A 
ATOM     25  C   UNL     1      63.279  65.291  71.005  0.00  0.00    +0.000 A 
ATOM     26  C   UNL     1      62.942  65.553  71.712  0.00  0.00    +0.000 A 
ATOM     27  C   UNL     1      62.144  65.408  71.866  0.00  0.00    +0.000 A 
ATOM     28  C   UNL     1      61.684  65.002  71.315  0.00  0.00    +0.000 A 
ENDROOT
TORSDOF 0
ENDMDL
MODEL 3
REMARK VINA RESULT:   -13.447      2.055      5.643
REMARK INTER + INTRA:         -13.447
REMARK INTER:                 -13.447
REMARK INTRA:                   0.000
REMARK UNBOUND:                 0.000
ROOT
REMARK  Name = morazone
REMARK                            x       y       z     vdW  Elec       q    Type
REMARK                         _______ _______ _______ _____ _____    ______ ____
ATOM      1  C   UNL     1      64.425  65.944  69.385  0.00  0.00    +0.000 C 
ATOM      2  C   UNL     1      64.164  65.773  70.149  0.00  0.00    +0.000 C 
ATOM      3  C   UNL     1      64.502  66.157  70.797  0.00  0.00    +0.000 C 
ATOM      4  O   UNL     1      64.241  65.986  71.560  0.00  0.00    +0.000 OA
ATOM      5  C   UNL     1      63.642  65.431  71.677  0.00  0.00    +0.000 C 
ATOM      6  C   UNL     1      63.304  65.046  71.030  0.00  0.00    +0.000 C 
ATOM      7  N   UNL     1      63.565  65.218  70.266  0.00  0.00    +0.000 NA
ATOM      8  C   UNL     1      63.227  64.833  69.618  0.00  0.00    +0.000 C 
ATOM      9  C   UNL     1      62.629  64.278  69.735  0.00  0.00    +0.000 A 
ATOM     10  C   UNL     1      62.312  64.052  70.463  0.00  0.00    +0.000 A 
ATOM     11  C   UNL     1      62.540  64.340  71.202  0.00  0.00    +0.000 C 
ATOM     12  N   UNL     1      61.729  63.485  70.322  0.00  0.00    +0.000 N 
ATOM     13  C   UNL     1      61.271  63.109  70.895  0.00  0.00    +0.000 C 
ATOM     14  N   UNL     1      61.684  63.362  69.507  0.00  0.00    +0.000 N 
ATOM     15  C   UNL     1      62.241  63.852  69.145  0.00  0.00    +0.000 A 
ATOM     16  O   UNL     1      62.384  63.907  68.333  0.00  0.00    +0.000 OA
ATOM     17  C   UNL     1      61.174  62.841  69.122  0.00  0.00    +0.000 A 
ATOM     18  C   UNL     1      60.645  62.383  69.561  0.00  0.00    +0.000 A 
ATOM     19  C   UNL     1      60.134  61.862  69.176  0.00  0.00    +0.000 A 
ATOM     20  C   UNL     1      60.153  61.798  68.353  0.00  0.00    +0.000 A 
ATOM     21  C   UNL     1      60.681  62.254  67.916  0.00  0.00    +0.000 A 
ATOM     22  C   UNL     1      61.192  62.776  68.301  0.00  0.00    +0.000 A 
ATOM     23  C   UNL     1      65.101  66.713  70.680  0.00  0.00    +0.000 A 
ATOM     24  C   UNL     1      65.362  66.883  69.916  0.00  0.00    +0.000 A 
ATOM     25  C   UNL     1      65.961  67.439  69.800  0.00  0.00    +0.000 A 
ATOM     26  C   UNL     1      66.299  67.823  70.447  0.00  0.00    +0.000 A 
ATOM     27  C   UNL     1      66.038  67.652  71.211  0.00  0.00    +0.000 A 
ATOM     28  C   UNL     1      65.439  67.097  71.327  0.00  0.00    +0.000 A 
ENDROOT
TORSDOF 0
ENDMDL
MODEL 4
REMARK VINA RESULT:   -13.053      2.181      3.936
REMARK INTER + INTRA:         -13.053
REMARK INTER:                 -13.053
REMARK INTRA:                   0.000
REMARK UNBOUND:                 0.000
ROOT
REMARK  Name = morazone
REMARK                            x       y       z     vdW  Elec       q    Type
REMARK                         _______ _______ _______ _____ _____    ______ ____
ATOM      1  C   UNL     1      62.277  63.887  68.577  0.00  0.00    +0.000 C 
ATOM      2  C   UNL     1      62.157  63.865  69.394  0.00  0.00    +0.000 C 
ATOM      3  C   UNL     1      61.581  63.367  69.714  0.00  0.00    +0.000 C 
ATOM      4  O   UNL     1      61.462  63.345  70.529  0.00  0.00    +0.000 OA
ATOM      5  C   UNL     1      61.918  63.821  71.026  0.00  0.00    +0.000 C 
ATOM      6  C   UNL     1      62.493  64.318  70.707  0.00  0.00    +0.000 C 
ATOM      7  N   UNL     1      62.613  64.340  69.890  0.00  0.00    +0.000 NA
ATOM      8  C   UNL     1      63.188  64.838  69.570  0.00  0.00    +0.000 C 
ATOM      9  C   UNL     1      63.644  65.313  70.066  0.00  0.00    +0.000 A 
ATOM     10  C   UNL     1      63.587  65.350  70.889  0.00  0.00    +0.000 A 
ATOM     11  C   UNL     1      63.065  64.918  71.359  0.00  0.00    +0.000 C 
ATOM     12  N   UNL     1      64.145  65.895  71.159  0.00  0.00    +0.000 N 
ATOM     13  C   UNL     1      64.278  66.104  71.946  0.00  0.00    +0.000 C 
ATOM     14  N   UNL     1      64.546  66.195  70.503  0.00  0.00    +0.000 N 
ATOM     15  C   UNL     1      64.236  65.835  69.828  0.00  0.00    +0.000 A 
ATOM     16  O   UNL     1      64.477  65.974  69.051  0.00  0.00    +0.000 OA
ATOM     17  C   UNL     1      65.150  66.756  70.519  0.00  0.00    +0.000 A 
ATOM     18  C   UNL     1      65.404  67.069  71.240  0.00  0.00    +0.000 A 
ATOM     19  C   UNL     1      66.009  67.630  71.257  0.00  0.00    +0.000 A 
ATOM     20  C   UNL     1      66.360  67.879  70.552  0.00  0.00    +0.000 A 
ATOM     21  C   UNL     1      66.106  67.566  69.832  0.00  0.00    +0.000 A 
ATOM     22  C   UNL     1      65.501  67.005  69.816  0.00  0.00    +0.000 A 
ATOM     23  C   UNL     1      61.125  62.891  69.217  0.00  0.00    +0.000 A 
ATOM     24  C   UNL     1      61.245  62.913  68.401  0.00  0.00    +0.000 A 
ATOM     25  C   UNL     1      60.789  62.438  67.904  0.00  0.00    +0.000 A 
ATOM     26  C   UNL     1      60.213  61.939  68.224  0.00  0.00    +0.000 A 
ATOM     27  C   UNL     1      60.094  61.918  69.040  0.00  0.00    +0.000 A 
ATOM     28  C   UNL     1      60.550  62.394  69.536  0.00  0.00    +0.000 A 
ENDROOT
TORSDOF 0
ENDMDL
