MODEL 1
REMARK VINA RESULT:    -7.613      0.000      0.000
REMARK INTER + INTRA:          -7.613
REMARK INTER:                  -7.613
REMARK INTRA:                   0.000
REMARK UNBOUND:                 0.000
ROOT
REMARK  Name = morinamide
REMARK                            x       y       z     vdW  Elec       q    Type
REMARK                         _______ _______ _______ _____ _____    ______ ____
ATOM      1  O   UNL     1      59.718  62.036  67.154  0.00  0.00    +0.000 OA
ATOM      2  C   UNL     1      60.461  62.391  67.140  0.00  0.00    +0.000 C 
ATOM      3  N   UNL     1      60.946  62.308  66.476  0.00  0.00    +0.000 NA
ATOM      4  C   UNL     1      60.686  61.870  65.828  0.00  0.00    +0.000 C 
ATOM      5  N   UNL     1      61.170  61.786  65.166  0.00  0.00    +0.000 NA
ATOM      6  C   UNL     1      61.915  62.141  65.151  0.00  0.00    +0.000 C 
ATOM      7  C   UNL     1      62.398  62.058  64.489  0.00  0.00    +0.000 C 
ATOM      8  O   UNL     1      62.139  61.620  63.840  0.00  0.00    +0.000 OA
ATOM      9  C   UNL     1      61.394  61.264  63.855  0.00  0.00    +0.000 C 
ATOM     10  C   UNL     1      60.910  61.347  64.517  0.00  0.00    +0.000 C 
ATOM     11  C   UNL     1      60.722  62.830  67.788  0.00  0.00    +0.000 A 
ATOM     12  N   UNL     1      60.238  62.913  68.451  0.00  0.00    +0.000 NA
ATOM     13  C   UNL     1      60.498  63.352  69.100  0.00  0.00    +0.000 A 
ATOM     14  C   UNL     1      61.243  63.707  69.085  0.00  0.00    +0.000 A 
ATOM     15  N   UNL     1      61.727  63.624  68.422  0.00  0.00    +0.000 NA
ATOM     16  C   UNL     1      61.466  63.185  67.774  0.00  0.00    +0.000 A 
ENDROOT
TORSDOF 0
ENDMDL
MODEL 2
REMARK VINA RESULT:    -7.521      1.071      3.912
REMARK INTER + INTRA:          -7.521
REMARK INTER:                  -7.521
REMARK INTRA:                   0.000
REMARK UNBOUND:                 0.000
ROOT
REMARK  Name = morinamide
REMARK                            x       y       z     vdW  Elec       q    Type
REMARK                         _______ _______ _______ _____ _____    ______ ____
ATOM      1  O   UNL     1      59.891  62.003  66.122  0.00  0.00    +0.000 OA
ATOM      2  C   UNL     1      60.682  62.234  66.133  0.00  0.00    +0.000 C 
ATOM      3  N   UNL     1      60.982  62.646  66.783  0.00  0.00    +0.000 NA
ATOM      4  C   UNL     1      60.491  62.826  67.420  0.00  0.00    +0.000 C 
ATOM      5  N   UNL     1      60.791  63.238  68.069  0.00  0.00    +0.000 NA
ATOM      6  C   UNL     1      61.583  63.470  68.080  0.00  0.00    +0.000 C 
ATOM      7  C   UNL     1      61.882  63.881  68.728  0.00  0.00    +0.000 C 
ATOM      8  O   UNL     1      61.392  64.061  69.366  0.00  0.00    +0.000 OA
ATOM      9  C   UNL     1      60.599  63.829  69.355  0.00  0.00    +0.000 C 
ATOM     10  C   UNL     1      60.300  63.418  68.707  0.00  0.00    +0.000 C 
ATOM     11  C   UNL     1      61.174  62.055  65.495  0.00  0.00    +0.000 A 
ATOM     12  N   UNL     1      60.874  61.643  64.846  0.00  0.00    +0.000 NA
ATOM     13  C   UNL     1      61.365  61.463  64.208  0.00  0.00    +0.000 A 
ATOM     14  C   UNL     1      62.157  61.695  64.220  0.00  0.00    +0.000 A 
ATOM     15  N   UNL     1      62.457  62.107  64.869  0.00  0.00    +0.000 NA
ATOM     16  C   UNL     1      61.965  62.287  65.506  0.00  0.00    +0.000 A 
ENDROOT
TORSDOF 0
ENDMDL
MODEL 3
REMARK VINA RESULT:    -6.915      2.456      5.070
REMARK INTER + INTRA:          -6.915
REMARK INTER:                  -6.915
REMARK INTRA:                   0.000
REMARK UNBOUND:                 0.000
ROOT
REMARK  Name = morinamide
REMARK                            x       y       z     vdW  Elec       q    Type
REMARK                         _______ _______ _______ _____ _____    ______ ____
ATOM      1  O   UNL     1      60.237  61.642  69.476  0.00  0.00    +0.000 OA
ATOM      2  C   UNL     1      60.662  62.322  69.286  0.00  0.00    +0.000 C 
ATOM      3  N   UNL     1      61.014  62.771  69.884  0.00  0.00    +0.000 NA
ATOM      4  C   UNL     1      60.939  62.538  70.671  0.00  0.00    +0.000 C 
ATOM      5  N   UNL     1      61.290  62.986  71.269  0.00  0.00    +0.000 NA
ATOM      6  C   UNL     1      61.716  63.666  71.079  0.00  0.00    +0.000 C 
ATOM      7  C   UNL     1      62.066  64.114  71.675  0.00  0.00    +0.000 C 
ATOM      8  O   UNL     1      61.993  63.881  72.463  0.00  0.00    +0.000 OA
ATOM      9  C   UNL     1      61.567  63.200  72.654  0.00  0.00    +0.000 C 
ATOM     10  C   UNL     1      61.216  62.753  72.057  0.00  0.00    +0.000 C 
ATOM     11  C   UNL     1      60.737  62.556  68.498  0.00  0.00    +0.000 A 
ATOM     12  N   UNL     1      60.386  62.108  67.901  0.00  0.00    +0.000 NA
ATOM     13  C   UNL     1      60.460  62.340  67.113  0.00  0.00    +0.000 A 
ATOM     14  C   UNL     1      60.886  63.022  66.922  0.00  0.00    +0.000 A 
ATOM     15  N   UNL     1      61.237  63.470  67.519  0.00  0.00    +0.000 NA
ATOM     16  C   UNL     1      61.162  63.236  68.307  0.00  0.00    +0.000 A 
ENDROOT
TORSDOF 0
ENDMDL
MODEL 4
REMARK VINA RESULT:    -6.786      2.165      3.330
REMARK INTER + INTRA:          -6.786
REMARK INTER:                  -6.786
REMARK INTRA:                   0.000
REMARK UNBOUND:                 0.000
ROOT
REMARK  Name = morinamide
REMARK                            x       y       z     vdW  Elec       q    Type
REMARK                         _______ _______ _______ _____ _____    ______ ____
ATOM      1  O   UNL     1      60.315  61.634  70.586  0.00  0.00    +0.000 OA
ATOM      2  C   UNL     1      60.739  62.325  70.437  0.00  0.00    +0.000 C 
ATOM      3  N   UNL     1      60.817  62.604  69.664  0.00  0.00    +0.000 NA
ATOM      4  C   UNL     1      60.470  62.191  69.040  0.00  0.00    +0.000 C 
ATOM      5  N   UNL     1      60.547  62.469  68.268  0.00  0.00    +0.000 NA
ATOM      6  C   UNL     1      60.972  63.161  68.118  0.00  0.00    +0.000 C 
ATOM      7  C   UNL     1      61.049  63.439  67.347  0.00  0.00    +0.000 C 
ATOM      8  O   UNL     1      60.702  63.027  66.722  0.00  0.00    +0.000 OA
ATOM      9  C   UNL     1      60.277  62.335  66.871  0.00  0.00    +0.000 C 
ATOM     10  C   UNL     1      60.199  62.056  67.643  0.00  0.00    +0.000 C 
ATOM     11  C   UNL     1      61.087  62.738  71.061  0.00  0.00    +0.000 A 
ATOM     12  N   UNL     1      61.010  62.460  71.834  0.00  0.00    +0.000 NA
ATOM     13  C   UNL     1      61.357  62.872  72.458  0.00  0.00    +0.000 A 
ATOM     14  C   UNL     1      61.782  63.564  72.309  0.00  0.00    +0.000 A 
ATOM     15  N   UNL     1      61.860  63.842  71.537  0.00  0.00    +0.000 NA
ATOM     16  C   UNL     1      61.512  63.429  70.913  0.00  0.00    +0.000 A 
ENDROOT
TORSDOF 0
ENDMDL
MODEL 5
REMARK VINA RESULT:    -6.741      2.032      3.365
REMARK INTER + INTRA:          -6.741
REMARK INTER:                  -6.741
REMARK INTRA:                   0.000
REMARK UNBOUND:                 0.000
ROOT
REMARK  Name = morinamide
REMARK                            x       y       z     vdW  Elec       q    Type
REMARK                         _______ _______ _______ _____ _____    ______ ____
ATOM      1  O   UNL     1      61.213  64.109  70.365  0.00  0.00    +0.000 OA
ATOM      2  C   UNL     1      61.834  64.074  69.823  0.00  0.00    +0.000 C 
ATOM      3  N   UNL     1      61.709  63.752  69.073  0.00  0.00    +0.000 NA
ATOM      4  C   UNL     1      60.964  63.466  68.866  0.00  0.00    +0.000 C 
ATOM      5  N   UNL     1      60.840  63.145  68.116  0.00  0.00    +0.000 NA
ATOM      6  C   UNL     1      61.461  63.109  67.574  0.00  0.00    +0.000 C 
ATOM      7  C   UNL     1      61.336  62.788  66.825  0.00  0.00    +0.000 C 
ATOM      8  O   UNL     1      60.591  62.501  66.617  0.00  0.00    +0.000 OA
ATOM      9  C   UNL     1      59.970  62.537  67.160  0.00  0.00    +0.000 C 
ATOM     10  C   UNL     1      60.094  62.858  67.908  0.00  0.00    +0.000 C 
ATOM     11  C   UNL     1      62.580  64.360  70.030  0.00  0.00    +0.000 A 
ATOM     12  N   UNL     1      62.704  64.682  70.780  0.00  0.00    +0.000 NA
ATOM     13  C   UNL     1      63.449  64.968  70.988  0.00  0.00    +0.000 A 
ATOM     14  C   UNL     1      64.071  64.932  70.445  0.00  0.00    +0.000 A 
ATOM     15  N   UNL     1      63.946  64.611  69.696  0.00  0.00    +0.000 NA
ATOM     16  C   UNL     1      63.200  64.325  69.489  0.00  0.00    +0.000 A 
ENDROOT
TORSDOF 0
ENDMDL
MODEL 6
REMARK VINA RESULT:    -6.681      3.530      5.003
REMARK INTER + INTRA:          -6.681
REMARK INTER:                  -6.681
REMARK INTRA:                   0.000
REMARK UNBOUND:                 0.000
ROOT
REMARK  Name = morinamide
REMARK                            x       y       z     vdW  Elec       q    Type
REMARK                         _______ _______ _______ _____ _____    ______ ____
ATOM      1  O   UNL     1      59.753  65.874  69.333  0.00  0.00    +0.000 OA
ATOM      2  C   UNL     1      59.749  65.545  70.090  0.00  0.00    +0.000 C 
ATOM      3  N   UNL     1      59.929  64.746  70.193  0.00  0.00    +0.000 NA
ATOM      4  C   UNL     1      60.114  64.277  69.541  0.00  0.00    +0.000 C 
ATOM      5  N   UNL     1      60.294  63.479  69.645  0.00  0.00    +0.000 NA
ATOM      6  C   UNL     1      60.290  63.149  70.401  0.00  0.00    +0.000 C 
ATOM      7  C   UNL     1      60.470  62.352  70.505  0.00  0.00    +0.000 C 
ATOM      8  O   UNL     1      60.655  61.882  69.852  0.00  0.00    +0.000 OA
ATOM      9  C   UNL     1      60.659  62.211  69.095  0.00  0.00    +0.000 C 
ATOM     10  C   UNL     1      60.479  63.009  68.991  0.00  0.00    +0.000 C 
ATOM     11  C   UNL     1      59.564  66.014  70.743  0.00  0.00    +0.000 A 
ATOM     12  N   UNL     1      59.384  66.813  70.639  0.00  0.00    +0.000 NA
ATOM     13  C   UNL     1      59.199  67.282  71.291  0.00  0.00    +0.000 A 
ATOM     14  C   UNL     1      59.195  66.953  72.049  0.00  0.00    +0.000 A 
ATOM     15  N   UNL     1      59.375  66.155  72.152  0.00  0.00    +0.000 NA
ATOM     16  C   UNL     1      59.560  65.686  71.499  0.00  0.00    +0.000 A 
ENDROOT
TORSDOF 0
ENDMDL
MODEL 7
REMARK VINA RESULT:    -6.680      4.422      6.330
REMARK INTER + INTRA:          -6.680
REMARK INTER:                  -6.680
REMARK INTRA:                   0.000
REMARK UNBOUND:                 0.000
ROOT
REMARK  Name = morinamide
REMARK                            x       y       z     vdW  Elec       q    Type
REMARK                         _______ _______ _______ _____ _____    ______ ____
ATOM      1  O   UNL     1      59.387  63.834  72.100  0.00  0.00    +0.000 OA
ATOM      2  C   UNL     1      59.753  64.067  71.400  0.00  0.00    +0.000 C 
ATOM      3  N   UNL     1      59.756  64.863  71.180  0.00  0.00    +0.000 NA
ATOM      4  C   UNL     1      59.392  65.424  71.661  0.00  0.00    +0.000 C 
ATOM      5  N   UNL     1      59.394  66.220  71.442  0.00  0.00    +0.000 NA
ATOM      6  C   UNL     1      59.761  66.453  70.741  0.00  0.00    +0.000 C 
ATOM      7  C   UNL     1      59.763  67.248  70.521  0.00  0.00    +0.000 C 
ATOM      8  O   UNL     1      59.399  67.810  71.003  0.00  0.00    +0.000 OA
ATOM      9  C   UNL     1      59.032  67.577  71.705  0.00  0.00    +0.000 C 
ATOM     10  C   UNL     1      59.030  66.782  71.924  0.00  0.00    +0.000 C 
ATOM     11  C   UNL     1      60.118  63.505  70.917  0.00  0.00    +0.000 A 
ATOM     12  N   UNL     1      60.115  62.710  71.137  0.00  0.00    +0.000 NA
ATOM     13  C   UNL     1      60.479  62.147  70.656  0.00  0.00    +0.000 A 
ATOM     14  C   UNL     1      60.846  62.381  69.954  0.00  0.00    +0.000 A 
ATOM     15  N   UNL     1      60.849  63.176  69.734  0.00  0.00    +0.000 NA
ATOM     16  C   UNL     1      60.484  63.738  70.217  0.00  0.00    +0.000 A 
ENDROOT
TORSDOF 0
ENDMDL
MODEL 8
REMARK VINA RESULT:    -6.626      4.359      6.404
REMARK INTER + INTRA:          -6.626
REMARK INTER:                  -6.626
REMARK INTRA:                   0.000
REMARK UNBOUND:                 0.000
ROOT
REMARK  Name = morinamide
REMARK                            x       y       z     vdW  Elec       q    Type
REMARK                         _______ _______ _______ _____ _____    ______ ____
ATOM      1  O   UNL     1      62.882  64.811  71.683  0.00  0.00    +0.000 OA
ATOM      2  C   UNL     1      63.052  64.869  70.878  0.00  0.00    +0.000 C 
ATOM      3  N   UNL     1      63.658  65.366  70.618  0.00  0.00    +0.000 NA
ATOM      4  C   UNL     1      64.093  65.804  71.164  0.00  0.00    +0.000 C 
ATOM      5  N   UNL     1      64.699  66.301  70.905  0.00  0.00    +0.000 NA
ATOM      6  C   UNL     1      64.869  66.360  70.100  0.00  0.00    +0.000 C 
ATOM      7  C   UNL     1      65.474  66.856  69.841  0.00  0.00    +0.000 C 
ATOM      8  O   UNL     1      65.910  67.295  70.387  0.00  0.00    +0.000 OA
ATOM      9  C   UNL     1      65.740  67.237  71.193  0.00  0.00    +0.000 C 
ATOM     10  C   UNL     1      65.135  66.741  71.452  0.00  0.00    +0.000 C 
ATOM     11  C   UNL     1      62.616  64.430  70.331  0.00  0.00    +0.000 A 
ATOM     12  N   UNL     1      62.011  63.933  70.590  0.00  0.00    +0.000 NA
ATOM     13  C   UNL     1      61.575  63.494  70.045  0.00  0.00    +0.000 A 
ATOM     14  C   UNL     1      61.745  63.552  69.239  0.00  0.00    +0.000 A 
ATOM     15  N   UNL     1      62.350  64.049  68.980  0.00  0.00    +0.000 NA
ATOM     16  C   UNL     1      62.786  64.488  69.527  0.00  0.00    +0.000 A 
ENDROOT
TORSDOF 0
ENDMDL
MODEL 9
REMARK VINA RESULT:    -6.598      4.562      6.516
REMARK INTER + INTRA:          -6.598
REMARK INTER:                  -6.598
REMARK INTRA:                   0.000
REMARK UNBOUND:                 0.000
ROOT
REMARK  Name = morinamide
REMARK                            x       y       z     vdW  Elec       q    Type
REMARK                         _______ _______ _______ _____ _____    ______ ____
ATOM      1  O   UNL     1      63.933  66.385  72.092  0.00  0.00    +0.000 OA
ATOM      2  C   UNL     1      64.134  66.221  71.310  0.00  0.00    +0.000 C 
ATOM      3  N   UNL     1      63.724  65.638  70.891  0.00  0.00    +0.000 NA
ATOM      4  C   UNL     1      63.114  65.221  71.257  0.00  0.00    +0.000 C 
ATOM      5  N   UNL     1      62.705  64.640  70.839  0.00  0.00    +0.000 NA
ATOM      6  C   UNL     1      62.905  64.475  70.056  0.00  0.00    +0.000 C 
ATOM      7  C   UNL     1      62.496  63.894  69.639  0.00  0.00    +0.000 C 
ATOM      8  O   UNL     1      61.885  63.476  70.003  0.00  0.00    +0.000 OA
ATOM      9  C   UNL     1      61.684  63.641  70.787  0.00  0.00    +0.000 C 
ATOM     10  C   UNL     1      62.093  64.222  71.204  0.00  0.00    +0.000 C 
ATOM     11  C   UNL     1      64.745  66.638  70.944  0.00  0.00    +0.000 A 
ATOM     12  N   UNL     1      65.155  67.219  71.362  0.00  0.00    +0.000 NA
ATOM     13  C   UNL     1      65.766  67.637  70.997  0.00  0.00    +0.000 A 
ATOM     14  C   UNL     1      65.967  67.472  70.213  0.00  0.00    +0.000 A 
ATOM     15  N   UNL     1      65.557  66.891  69.796  0.00  0.00    +0.000 NA
ATOM     16  C   UNL     1      64.947  66.474  70.161  0.00  0.00    +0.000 A 
ENDROOT
TORSDOF 0
ENDMDL
