MODEL 1
REMARK VINA RESULT:    -9.902      0.000      0.000
REMARK INTER + INTRA:          -9.902
REMARK INTER:                  -9.902
REMARK INTRA:                   0.000
REMARK UNBOUND:                 0.000
ROOT
REMARK  Name = muzolimine
REMARK                            x       y       z     vdW  Elec       q    Type
REMARK                         _______ _______ _______ _____ _____    ______ ____
ATOM      1  C   UNL     1      59.689  61.736  65.944  0.00  0.00    +0.000 C 
ATOM      2  C   UNL     1      60.448  62.047  66.035  0.00  0.00    +0.000 C 
ATOM      3  N   UNL     1      60.645  62.459  66.722  0.00  0.00    +0.000 N 
ATOM      4  N   UNL     1      61.377  62.799  66.891  0.00  0.00    +0.000 NA
ATOM      5  C   UNL     1      61.329  63.153  67.635  0.00  0.00    +0.000 C 
ATOM      6  N   UNL     1      61.936  63.557  68.020  0.00  0.00    +0.000 NA
ATOM      7  C   UNL     1      60.567  63.031  67.926  0.00  0.00    +0.000 C 
ATOM      8  C   UNL     1      60.144  62.602  67.362  0.00  0.00    +0.000 C 
ATOM      9  O   UNL     1      59.359  62.359  67.427  0.00  0.00    +0.000 OA
ATOM     10  C   UNL     1      61.010  61.947  65.440  0.00  0.00    +0.000 A 
ATOM     11  C   UNL     1      60.813  61.536  64.752  0.00  0.00    +0.000 A 
ATOM     12  C   UNL     1      61.375  61.436  64.156  0.00  0.00    +0.000 A 
ATOM     13 CL   UNL     1      61.178  61.024  63.468  0.00  0.00    +0.000 Cl
ATOM     14  C   UNL     1      62.133  61.747  64.248  0.00  0.00    +0.000 A 
ATOM     15 CL   UNL     1      62.695  61.646  63.651  0.00  0.00    +0.000 Cl
ATOM     16  C   UNL     1      62.330  62.158  64.935  0.00  0.00    +0.000 A 
ATOM     17  C   UNL     1      61.769  62.258  65.531  0.00  0.00    +0.000 A 
ENDROOT
TORSDOF 0
ENDMDL
MODEL 2
REMARK VINA RESULT:    -8.469      2.313      3.294
REMARK INTER + INTRA:          -8.469
REMARK INTER:                  -8.469
REMARK INTRA:                   0.000
REMARK UNBOUND:                 0.000
ROOT
REMARK  Name = muzolimine
REMARK                            x       y       z     vdW  Elec       q    Type
REMARK                         _______ _______ _______ _____ _____    ______ ____
ATOM      1  C   UNL     1      59.777  61.413  65.737  0.00  0.00    +0.000 C 
ATOM      2  C   UNL     1      60.494  61.821  65.721  0.00  0.00    +0.000 C 
ATOM      3  N   UNL     1      61.000  61.740  65.074  0.00  0.00    +0.000 N 
ATOM      4  N   UNL     1      61.730  62.110  64.979  0.00  0.00    +0.000 NA
ATOM      5  C   UNL     1      62.045  61.873  64.254  0.00  0.00    +0.000 C 
ATOM      6  N   UNL     1      62.769  62.112  63.939  0.00  0.00    +0.000 NA
ATOM      7  C   UNL     1      61.509  61.355  63.900  0.00  0.00    +0.000 C 
ATOM      8  C   UNL     1      60.862  61.273  64.407  0.00  0.00    +0.000 C 
ATOM      9  O   UNL     1      60.197  60.806  64.271  0.00  0.00    +0.000 OA
ATOM     10  C   UNL     1      60.706  62.310  66.350  0.00  0.00    +0.000 A 
ATOM     11  C   UNL     1      60.201  62.391  66.997  0.00  0.00    +0.000 A 
ATOM     12  C   UNL     1      60.413  62.880  67.627  0.00  0.00    +0.000 A 
ATOM     13 CL   UNL     1      59.908  62.962  68.274  0.00  0.00    +0.000 Cl
ATOM     14  C   UNL     1      61.130  63.288  67.609  0.00  0.00    +0.000 A 
ATOM     15 CL   UNL     1      61.342  63.777  68.240  0.00  0.00    +0.000 Cl
ATOM     16  C   UNL     1      61.635  63.207  66.962  0.00  0.00    +0.000 A 
ATOM     17  C   UNL     1      61.423  62.718  66.333  0.00  0.00    +0.000 A 
ENDROOT
TORSDOF 0
ENDMDL
MODEL 3
REMARK VINA RESULT:    -8.456      4.282      5.725
REMARK INTER + INTRA:          -8.456
REMARK INTER:                  -8.456
REMARK INTRA:                   0.000
REMARK UNBOUND:                 0.000
ROOT
REMARK  Name = muzolimine
REMARK                            x       y       z     vdW  Elec       q    Type
REMARK                         _______ _______ _______ _____ _____    ______ ____
ATOM      1  C   UNL     1      60.577  61.638  70.585  0.00  0.00    +0.000 C 
ATOM      2  C   UNL     1      60.801  62.417  70.428  0.00  0.00    +0.000 C 
ATOM      3  N   UNL     1      60.725  62.721  69.665  0.00  0.00    +0.000 N 
ATOM      4  N   UNL     1      60.925  63.485  69.425  0.00  0.00    +0.000 NA
ATOM      5  C   UNL     1      60.759  63.551  68.619  0.00  0.00    +0.000 C 
ATOM      6  N   UNL     1      60.875  64.222  68.154  0.00  0.00    +0.000 NA
ATOM      7  C   UNL     1      60.456  62.828  68.361  0.00  0.00    +0.000 C 
ATOM      8  C   UNL     1      60.435  62.315  69.007  0.00  0.00    +0.000 C 
ATOM      9  O   UNL     1      60.171  61.534  68.998  0.00  0.00    +0.000 OA
ATOM     10  C   UNL     1      61.101  62.890  71.032  0.00  0.00    +0.000 A 
ATOM     11  C   UNL     1      61.177  62.586  71.795  0.00  0.00    +0.000 A 
ATOM     12  C   UNL     1      61.478  63.060  72.401  0.00  0.00    +0.000 A 
ATOM     13 CL   UNL     1      61.554  62.755  73.164  0.00  0.00    +0.000 Cl
ATOM     14  C   UNL     1      61.702  63.838  72.242  0.00  0.00    +0.000 A 
ATOM     15 CL   UNL     1      62.002  64.312  72.848  0.00  0.00    +0.000 Cl
ATOM     16  C   UNL     1      61.625  64.142  71.479  0.00  0.00    +0.000 A 
ATOM     17  C   UNL     1      61.325  63.669  70.875  0.00  0.00    +0.000 A 
ENDROOT
TORSDOF 0
ENDMDL
MODEL 4
REMARK VINA RESULT:    -8.317      4.182      5.154
REMARK INTER + INTRA:          -8.317
REMARK INTER:                  -8.317
REMARK INTRA:                   0.000
REMARK UNBOUND:                 0.000
ROOT
REMARK  Name = muzolimine
REMARK                            x       y       z     vdW  Elec       q    Type
REMARK                         _______ _______ _______ _____ _____    ______ ____
ATOM      1  C   UNL     1      61.281  61.578  71.293  0.00  0.00    +0.000 C 
ATOM      2  C   UNL     1      61.119  62.372  71.134  0.00  0.00    +0.000 C 
ATOM      3  N   UNL     1      61.233  62.941  71.720  0.00  0.00    +0.000 N 
ATOM      4  N   UNL     1      61.096  63.750  71.644  0.00  0.00    +0.000 NA
ATOM      5  C   UNL     1      61.282  64.110  72.363  0.00  0.00    +0.000 C 
ATOM      6  N   UNL     1      61.226  64.916  72.531  0.00  0.00    +0.000 NA
ATOM      7  C   UNL     1      61.534  63.522  72.884  0.00  0.00    +0.000 C 
ATOM      8  C   UNL     1      61.504  62.799  72.487  0.00  0.00    +0.000 C 
ATOM      9  O   UNL     1      61.708  62.065  72.801  0.00  0.00    +0.000 OA
ATOM     10  C   UNL     1      60.845  62.596  70.390  0.00  0.00    +0.000 A 
ATOM     11  C   UNL     1      60.731  62.027  69.803  0.00  0.00    +0.000 A 
ATOM     12  C   UNL     1      60.456  62.252  69.058  0.00  0.00    +0.000 A 
ATOM     13 CL   UNL     1      60.342  61.683  68.471  0.00  0.00    +0.000 Cl
ATOM     14  C   UNL     1      60.294  63.045  68.900  0.00  0.00    +0.000 A 
ATOM     15 CL   UNL     1      60.019  63.270  68.155  0.00  0.00    +0.000 Cl
ATOM     16  C   UNL     1      60.408  63.614  69.487  0.00  0.00    +0.000 A 
ATOM     17  C   UNL     1      60.683  63.390  70.231  0.00  0.00    +0.000 A 
ENDROOT
TORSDOF 0
ENDMDL
MODEL 5
REMARK VINA RESULT:    -8.217      5.932      7.082
REMARK INTER + INTRA:          -8.217
REMARK INTER:                  -8.217
REMARK INTRA:                   0.000
REMARK UNBOUND:                 0.000
ROOT
REMARK  Name = muzolimine
REMARK                            x       y       z     vdW  Elec       q    Type
REMARK                         _______ _______ _______ _____ _____    ______ ____
ATOM      1  C   UNL     1      64.144  64.985  69.383  0.00  0.00    +0.000 C 
ATOM      2  C   UNL     1      63.967  65.274  70.135  0.00  0.00    +0.000 C 
ATOM      3  N   UNL     1      63.373  64.919  70.583  0.00  0.00    +0.000 N 
ATOM      4  N   UNL     1      63.135  65.146  71.340  0.00  0.00    +0.000 NA
ATOM      5  C   UNL     1      62.526  64.641  71.578  0.00  0.00    +0.000 C 
ATOM      6  N   UNL     1      62.127  64.671  72.298  0.00  0.00    +0.000 NA
ATOM      7  C   UNL     1      62.388  64.103  70.968  0.00  0.00    +0.000 C 
ATOM      8  C   UNL     1      62.911  64.274  70.353  0.00  0.00    +0.000 C 
ATOM      9  O   UNL     1      62.964  63.873  69.635  0.00  0.00    +0.000 OA
ATOM     10  C   UNL     1      64.384  65.918  70.439  0.00  0.00    +0.000 A 
ATOM     11  C   UNL     1      64.978  66.273  69.990  0.00  0.00    +0.000 A 
ATOM     12  C   UNL     1      65.396  66.917  70.294  0.00  0.00    +0.000 A 
ATOM     13 CL   UNL     1      65.990  67.272  69.846  0.00  0.00    +0.000 Cl
ATOM     14  C   UNL     1      65.217  67.205  71.046  0.00  0.00    +0.000 A 
ATOM     15 CL   UNL     1      65.635  67.850  71.350  0.00  0.00    +0.000 Cl
ATOM     16  C   UNL     1      64.623  66.850  71.495  0.00  0.00    +0.000 A 
ATOM     17  C   UNL     1      64.206  66.207  71.191  0.00  0.00    +0.000 A 
ENDROOT
TORSDOF 0
ENDMDL
MODEL 6
REMARK VINA RESULT:    -7.889      5.772      6.409
REMARK INTER + INTRA:          -7.889
REMARK INTER:                  -7.889
REMARK INTRA:                   0.000
REMARK UNBOUND:                 0.000
ROOT
REMARK  Name = muzolimine
REMARK                            x       y       z     vdW  Elec       q    Type
REMARK                         _______ _______ _______ _____ _____    ______ ____
ATOM      1  C   UNL     1      62.262  65.622  72.163  0.00  0.00    +0.000 C 
ATOM      2  C   UNL     1      62.432  64.944  71.725  0.00  0.00    +0.000 C 
ATOM      3  N   UNL     1      62.041  64.237  71.892  0.00  0.00    +0.000 N 
ATOM      4  N   UNL     1      62.151  63.518  71.503  0.00  0.00    +0.000 NA
ATOM      5  C   UNL     1      61.649  62.962  71.848  0.00  0.00    +0.000 C 
ATOM      6  N   UNL     1      61.580  62.170  71.629  0.00  0.00    +0.000 NA
ATOM      7  C   UNL     1      61.227  63.337  72.449  0.00  0.00    +0.000 C 
ATOM      8  C   UNL     1      61.470  64.126  72.477  0.00  0.00    +0.000 C 
ATOM      9  O   UNL     1      61.190  64.701  72.997  0.00  0.00    +0.000 OA
ATOM     10  C   UNL     1      62.992  64.972  71.121  0.00  0.00    +0.000 A 
ATOM     11  C   UNL     1      63.384  65.679  70.954  0.00  0.00    +0.000 A 
ATOM     12  C   UNL     1      63.945  65.708  70.349  0.00  0.00    +0.000 A 
ATOM     13 CL   UNL     1      64.336  66.415  70.182  0.00  0.00    +0.000 Cl
ATOM     14  C   UNL     1      64.114  65.029  69.911  0.00  0.00    +0.000 A 
ATOM     15 CL   UNL     1      64.675  65.058  69.306  0.00  0.00    +0.000 Cl
ATOM     16  C   UNL     1      63.722  64.322  70.078  0.00  0.00    +0.000 A 
ATOM     17  C   UNL     1      63.162  64.294  70.682  0.00  0.00    +0.000 A 
ENDROOT
TORSDOF 0
ENDMDL
MODEL 7
REMARK VINA RESULT:    -7.807      3.824      5.265
REMARK INTER + INTRA:          -7.807
REMARK INTER:                  -7.807
REMARK INTRA:                   0.000
REMARK UNBOUND:                 0.000
ROOT
REMARK  Name = muzolimine
REMARK                            x       y       z     vdW  Elec       q    Type
REMARK                         _______ _______ _______ _____ _____    ______ ____
ATOM      1  C   UNL     1      60.424  63.168  70.697  0.00  0.00    +0.000 C 
ATOM      2  C   UNL     1      60.273  63.492  69.953  0.00  0.00    +0.000 C 
ATOM      3  N   UNL     1      60.308  63.015  69.281  0.00  0.00    +0.000 N 
ATOM      4  N   UNL     1      60.172  63.259  68.505  0.00  0.00    +0.000 NA
ATOM      5  C   UNL     1      60.266  62.605  68.011  0.00  0.00    +0.000 C 
ATOM      6  N   UNL     1      60.180  62.601  67.191  0.00  0.00    +0.000 NA
ATOM      7  C   UNL     1      60.461  61.956  68.482  0.00  0.00    +0.000 C 
ATOM      8  C   UNL     1      60.487  62.209  69.267  0.00  0.00    +0.000 C 
ATOM      9  O   UNL     1      60.661  61.740  69.923  0.00  0.00    +0.000 OA
ATOM     10  C   UNL     1      60.087  64.292  69.882  0.00  0.00    +0.000 A 
ATOM     11  C   UNL     1      60.051  64.769  70.554  0.00  0.00    +0.000 A 
ATOM     12  C   UNL     1      59.865  65.570  70.482  0.00  0.00    +0.000 A 
ATOM     13 CL   UNL     1      59.829  66.047  71.154  0.00  0.00    +0.000 Cl
ATOM     14  C   UNL     1      59.714  65.893  69.738  0.00  0.00    +0.000 A 
ATOM     15 CL   UNL     1      59.527  66.694  69.667  0.00  0.00    +0.000 Cl
ATOM     16  C   UNL     1      59.750  65.416  69.066  0.00  0.00    +0.000 A 
ATOM     17  C   UNL     1      59.936  64.616  69.138  0.00  0.00    +0.000 A 
ENDROOT
TORSDOF 0
ENDMDL
MODEL 8
REMARK VINA RESULT:    -7.765      6.191      7.033
REMARK INTER + INTRA:          -7.765
REMARK INTER:                  -7.765
REMARK INTRA:                   0.000
REMARK UNBOUND:                 0.000
ROOT
REMARK  Name = muzolimine
REMARK                            x       y       z     vdW  Elec       q    Type
REMARK                         _______ _______ _______ _____ _____    ______ ____
ATOM      1  C   UNL     1      62.650  66.023  72.325  0.00  0.00    +0.000 C 
ATOM      2  C   UNL     1      62.815  65.413  71.794  0.00  0.00    +0.000 C 
ATOM      3  N   UNL     1      63.440  65.489  71.261  0.00  0.00    +0.000 N 
ATOM      4  N   UNL     1      63.670  64.929  70.700  0.00  0.00    +0.000 NA
ATOM      5  C   UNL     1      64.317  65.232  70.287  0.00  0.00    +0.000 C 
ATOM      6  N   UNL     1      64.722  64.854  69.677  0.00  0.00    +0.000 NA
ATOM      7  C   UNL     1      64.487  65.980  70.592  0.00  0.00    +0.000 C 
ATOM      8  C   UNL     1      63.945  66.139  71.194  0.00  0.00    +0.000 C 
ATOM      9  O   UNL     1      63.913  66.826  71.649  0.00  0.00    +0.000 OA
ATOM     10  C   UNL     1      62.356  64.729  71.796  0.00  0.00    +0.000 A 
ATOM     11  C   UNL     1      61.731  64.653  72.330  0.00  0.00    +0.000 A 
ATOM     12  C   UNL     1      61.271  63.968  72.332  0.00  0.00    +0.000 A 
ATOM     13 CL   UNL     1      60.646  63.892  72.866  0.00  0.00    +0.000 Cl
ATOM     14  C   UNL     1      61.436  63.359  71.801  0.00  0.00    +0.000 A 
ATOM     15 CL   UNL     1      60.976  62.673  71.804  0.00  0.00    +0.000 Cl
ATOM     16  C   UNL     1      62.061  63.434  71.268  0.00  0.00    +0.000 A 
ATOM     17  C   UNL     1      62.520  64.119  71.266  0.00  0.00    +0.000 A 
ENDROOT
TORSDOF 0
ENDMDL
