MODEL 1
REMARK VINA RESULT:    -9.235      0.000      0.000
REMARK INTER + INTRA:          -9.235
REMARK INTER:                  -9.235
REMARK INTRA:                   0.000
REMARK UNBOUND:                 0.000
ROOT
REMARK  Name = N-Acetyltyrosine
REMARK                            x       y       z     vdW  Elec       q    Type
REMARK                         _______ _______ _______ _____ _____    ______ ____
ATOM      1  C   UNK A   0      60.140  62.830  68.444  0.00  0.00    +0.000 C 
ATOM      2  C   UNK A   0      60.636  62.778  67.788  0.00  0.00    +0.000 C 
ATOM      3  O   UNK A   0      61.356  63.179  67.782  0.00  0.00    +0.000 OA
ATOM      4  N   TYR A   1      60.411  62.324  67.136  0.00  0.00    +0.000 NA
ATOM      5  CA  TYR A   1      60.907  62.271  66.479  0.00  0.00    +0.000 C 
ATOM      6  CB  TYR A   1      60.683  61.818  65.829  0.00  0.00    +0.000 C 
ATOM      7  CG  TYR A   1      61.180  61.766  65.171  0.00  0.00    +0.000 A 
ATOM      8  CD1 TYR A   1      60.955  61.312  64.520  0.00  0.00    +0.000 A 
ATOM      9  CE1 TYR A   1      61.451  61.260  63.863  0.00  0.00    +0.000 A 
ATOM     10  CZ  TYR A   1      62.172  61.661  63.857  0.00  0.00    +0.000 A 
ATOM     11  OH  TYR A   1      62.668  61.609  63.200  0.00  0.00    +0.000 OA
ATOM     12  CE2 TYR A   1      62.396  62.115  64.508  0.00  0.00    +0.000 A 
ATOM     13  CD2 TYR A   1      61.900  62.167  65.166  0.00  0.00    +0.000 A 
ATOM     14  C   TYR A   1      61.628  62.673  66.474  0.00  0.00    +0.000 C 
ATOM     15  O   TYR A   1      62.124  62.621  65.816  0.00  0.00    +0.000 OA
ATOM     16  OXT TYR A   1      61.853  63.127  67.125  0.00  0.00    +0.000 OA
ENDROOT
TORSDOF 0
ENDMDL
MODEL 2
REMARK VINA RESULT:    -8.801      1.154      3.357
REMARK INTER + INTRA:          -8.801
REMARK INTER:                  -8.801
REMARK INTRA:                   0.000
REMARK UNBOUND:                 0.000
ROOT
REMARK  Name = N-Acetyltyrosine
REMARK                            x       y       z     vdW  Elec       q    Type
REMARK                         _______ _______ _______ _____ _____    ______ ____
ATOM      1  C   UNK A   0      62.376  61.304  63.207  0.00  0.00    +0.000 C 
ATOM      2  C   UNK A   0      62.192  61.660  63.928  0.00  0.00    +0.000 C 
ATOM      3  O   UNK A   0      62.749  62.133  64.309  0.00  0.00    +0.000 OA
ATOM      4  N   TYR A   1      61.449  61.542  64.267  0.00  0.00    +0.000 NA
ATOM      5  CA  TYR A   1      61.264  61.898  64.988  0.00  0.00    +0.000 C 
ATOM      6  CB  TYR A   1      60.522  61.781  65.328  0.00  0.00    +0.000 C 
ATOM      7  CG  TYR A   1      60.337  62.137  66.049  0.00  0.00    +0.000 A 
ATOM      8  CD1 TYR A   1      59.595  62.020  66.389  0.00  0.00    +0.000 A 
ATOM      9  CE1 TYR A   1      59.410  62.375  67.109  0.00  0.00    +0.000 A 
ATOM     10  CZ  TYR A   1      59.968  62.849  67.491  0.00  0.00    +0.000 A 
ATOM     11  OH  TYR A   1      59.783  63.205  68.211  0.00  0.00    +0.000 OA
ATOM     12  CE2 TYR A   1      60.710  62.967  67.151  0.00  0.00    +0.000 A 
ATOM     13  CD2 TYR A   1      60.895  62.611  66.430  0.00  0.00    +0.000 A 
ATOM     14  C   TYR A   1      61.822  62.372  65.369  0.00  0.00    +0.000 C 
ATOM     15  O   TYR A   1      61.637  62.728  66.090  0.00  0.00    +0.000 OA
ATOM     16  OXT TYR A   1      62.565  62.490  65.030  0.00  0.00    +0.000 OA
ENDROOT
TORSDOF 0
ENDMDL
MODEL 3
REMARK VINA RESULT:    -8.073      1.779      4.634
REMARK INTER + INTRA:          -8.073
REMARK INTER:                  -8.073
REMARK INTRA:                   0.000
REMARK UNBOUND:                 0.000
ROOT
REMARK  Name = N-Acetyltyrosine
REMARK                            x       y       z     vdW  Elec       q    Type
REMARK                         _______ _______ _______ _____ _____    ______ ____
ATOM      1  C   UNK A   0      60.878  62.178  66.012  0.00  0.00    +0.000 C 
ATOM      2  C   UNK A   0      60.927  62.478  66.778  0.00  0.00    +0.000 C 
ATOM      3  O   UNK A   0      61.216  63.240  66.905  0.00  0.00    +0.000 OA
ATOM      4  N   TYR A   1      60.687  62.016  67.418  0.00  0.00    +0.000 NA
ATOM      5  CA  TYR A   1      60.736  62.316  68.185  0.00  0.00    +0.000 C 
ATOM      6  CB  TYR A   1      60.496  61.855  68.824  0.00  0.00    +0.000 C 
ATOM      7  CG  TYR A   1      60.545  62.155  69.592  0.00  0.00    +0.000 A 
ATOM      8  CD1 TYR A   1      60.305  61.693  70.232  0.00  0.00    +0.000 A 
ATOM      9  CE1 TYR A   1      60.355  61.993  70.998  0.00  0.00    +0.000 A 
ATOM     10  CZ  TYR A   1      60.644  62.755  71.125  0.00  0.00    +0.000 A 
ATOM     11  OH  TYR A   1      60.693  63.056  71.892  0.00  0.00    +0.000 OA
ATOM     12  CE2 TYR A   1      60.884  63.217  70.485  0.00  0.00    +0.000 A 
ATOM     13  CD2 TYR A   1      60.835  62.917  69.718  0.00  0.00    +0.000 A 
ATOM     14  C   TYR A   1      61.025  63.079  68.312  0.00  0.00    +0.000 C 
ATOM     15  O   TYR A   1      61.074  63.378  69.079  0.00  0.00    +0.000 OA
ATOM     16  OXT TYR A   1      61.265  63.541  67.672  0.00  0.00    +0.000 OA
ENDROOT
TORSDOF 0
ENDMDL
MODEL 4
REMARK VINA RESULT:    -8.034      1.313      3.843
REMARK INTER + INTRA:          -8.034
REMARK INTER:                  -8.034
REMARK INTRA:                   0.000
REMARK UNBOUND:                 0.000
ROOT
REMARK  Name = N-Acetyltyrosine
REMARK                            x       y       z     vdW  Elec       q    Type
REMARK                         _______ _______ _______ _____ _____    ______ ____
ATOM      1  C   UNK A   0      62.373  62.386  64.490  0.00  0.00    +0.000 C 
ATOM      2  C   UNK A   0      62.010  62.184  65.201  0.00  0.00    +0.000 C 
ATOM      3  O   UNK A   0      61.659  61.443  65.290  0.00  0.00    +0.000 OA
ATOM      4  N   TYR A   1      61.997  62.724  65.826  0.00  0.00    +0.000 NA
ATOM      5  CA  TYR A   1      61.633  62.522  66.538  0.00  0.00    +0.000 C 
ATOM      6  CB  TYR A   1      61.620  63.061  67.162  0.00  0.00    +0.000 C 
ATOM      7  CG  TYR A   1      61.256  62.859  67.874  0.00  0.00    +0.000 A 
ATOM      8  CD1 TYR A   1      61.243  63.398  68.499  0.00  0.00    +0.000 A 
ATOM      9  CE1 TYR A   1      60.880  63.196  69.210  0.00  0.00    +0.000 A 
ATOM     10  CZ  TYR A   1      60.529  62.454  69.299  0.00  0.00    +0.000 A 
ATOM     11  OH  TYR A   1      60.165  62.252  70.011  0.00  0.00    +0.000 OA
ATOM     12  CE2 TYR A   1      60.541  61.915  68.675  0.00  0.00    +0.000 A 
ATOM     13  CD2 TYR A   1      60.906  62.117  67.962  0.00  0.00    +0.000 A 
ATOM     14  C   TYR A   1      61.282  61.780  66.626  0.00  0.00    +0.000 C 
ATOM     15  O   TYR A   1      60.919  61.578  67.339  0.00  0.00    +0.000 OA
ATOM     16  OXT TYR A   1      61.295  61.241  66.002  0.00  0.00    +0.000 OA
ENDROOT
TORSDOF 0
ENDMDL
MODEL 5
REMARK VINA RESULT:    -7.884      1.580      2.517
REMARK INTER + INTRA:          -7.884
REMARK INTER:                  -7.884
REMARK INTRA:                   0.000
REMARK UNBOUND:                 0.000
ROOT
REMARK  Name = N-Acetyltyrosine
REMARK                            x       y       z     vdW  Elec       q    Type
REMARK                         _______ _______ _______ _____ _____    ______ ____
ATOM      1  C   UNK A   0      60.389  62.242  71.087  0.00  0.00    +0.000 C 
ATOM      2  C   UNK A   0      60.695  62.462  70.354  0.00  0.00    +0.000 C 
ATOM      3  O   UNK A   0      61.312  63.007  70.310  0.00  0.00    +0.000 OA
ATOM      4  N   TYR A   1      60.382  62.138  69.663  0.00  0.00    +0.000 NA
ATOM      5  CA  TYR A   1      60.687  62.357  68.928  0.00  0.00    +0.000 C 
ATOM      6  CB  TYR A   1      60.375  62.033  68.238  0.00  0.00    +0.000 C 
ATOM      7  CG  TYR A   1      60.680  62.253  67.503  0.00  0.00    +0.000 A 
ATOM      8  CD1 TYR A   1      60.368  61.929  66.812  0.00  0.00    +0.000 A 
ATOM      9  CE1 TYR A   1      60.673  62.149  66.079  0.00  0.00    +0.000 A 
ATOM     10  CZ  TYR A   1      61.292  62.694  66.035  0.00  0.00    +0.000 A 
ATOM     11  OH  TYR A   1      61.597  62.914  65.302  0.00  0.00    +0.000 OA
ATOM     12  CE2 TYR A   1      61.604  63.018  66.726  0.00  0.00    +0.000 A 
ATOM     13  CD2 TYR A   1      61.298  62.798  67.461  0.00  0.00    +0.000 A 
ATOM     14  C   TYR A   1      61.306  62.903  68.886  0.00  0.00    +0.000 C 
ATOM     15  O   TYR A   1      61.611  63.122  68.151  0.00  0.00    +0.000 OA
ATOM     16  OXT TYR A   1      61.618  63.227  69.577  0.00  0.00    +0.000 OA
ENDROOT
TORSDOF 0
ENDMDL
MODEL 6
REMARK VINA RESULT:    -7.836      5.655      7.010
REMARK INTER + INTRA:          -7.836
REMARK INTER:                  -7.836
REMARK INTRA:                   0.000
REMARK UNBOUND:                 0.000
ROOT
REMARK  Name = N-Acetyltyrosine
REMARK                            x       y       z     vdW  Elec       q    Type
REMARK                         _______ _______ _______ _____ _____    ______ ____
ATOM      1  C   UNK A   0      62.204  63.846  71.096  0.00  0.00    +0.000 C 
ATOM      2  C   UNK A   0      62.736  64.356  70.727  0.00  0.00    +0.000 C 
ATOM      3  O   UNK A   0      62.766  64.397  69.904  0.00  0.00    +0.000 OA
ATOM      4  N   TYR A   1      63.240  64.826  71.182  0.00  0.00    +0.000 NA
ATOM      5  CA  TYR A   1      63.773  65.336  70.814  0.00  0.00    +0.000 C 
ATOM      6  CB  TYR A   1      64.276  65.805  71.268  0.00  0.00    +0.000 C 
ATOM      7  CG  TYR A   1      64.809  66.316  70.899  0.00  0.00    +0.000 A 
ATOM      8  CD1 TYR A   1      65.313  66.786  71.353  0.00  0.00    +0.000 A 
ATOM      9  CE1 TYR A   1      65.845  67.296  70.985  0.00  0.00    +0.000 A 
ATOM     10  CZ  TYR A   1      65.875  67.337  70.161  0.00  0.00    +0.000 A 
ATOM     11  OH  TYR A   1      66.408  67.847  69.792  0.00  0.00    +0.000 OA
ATOM     12  CE2 TYR A   1      65.372  66.867  69.706  0.00  0.00    +0.000 A 
ATOM     13  CD2 TYR A   1      64.838  66.357  70.075  0.00  0.00    +0.000 A 
ATOM     14  C   TYR A   1      63.802  65.377  69.990  0.00  0.00    +0.000 C 
ATOM     15  O   TYR A   1      64.336  65.888  69.621  0.00  0.00    +0.000 OA
ATOM     16  OXT TYR A   1      63.299  64.908  69.535  0.00  0.00    +0.000 OA
ENDROOT
TORSDOF 0
ENDMDL
MODEL 7
REMARK VINA RESULT:    -7.809      5.985      7.029
REMARK INTER + INTRA:          -7.809
REMARK INTER:                  -7.809
REMARK INTRA:                   0.000
REMARK UNBOUND:                 0.000
ROOT
REMARK  Name = N-Acetyltyrosine
REMARK                            x       y       z     vdW  Elec       q    Type
REMARK                         _______ _______ _______ _____ _____    ______ ____
ATOM      1  C   UNK A   0      59.107  66.804  73.183  0.00  0.00    +0.000 C 
ATOM      2  C   UNK A   0      59.263  66.112  72.763  0.00  0.00    +0.000 C 
ATOM      3  O   UNK A   0      58.814  65.922  72.098  0.00  0.00    +0.000 OA
ATOM      4  N   TYR A   1      59.869  65.609  73.008  0.00  0.00    +0.000 NA
ATOM      5  CA  TYR A   1      60.026  64.917  72.588  0.00  0.00    +0.000 C 
ATOM      6  CB  TYR A   1      60.632  64.414  72.832  0.00  0.00    +0.000 C 
ATOM      7  CG  TYR A   1      60.789  63.721  72.412  0.00  0.00    +0.000 A 
ATOM      8  CD1 TYR A   1      61.395  63.218  72.657  0.00  0.00    +0.000 A 
ATOM      9  CE1 TYR A   1      61.551  62.526  72.237  0.00  0.00    +0.000 A 
ATOM     10  CZ  TYR A   1      61.102  62.336  71.572  0.00  0.00    +0.000 A 
ATOM     11  OH  TYR A   1      61.258  61.644  71.152  0.00  0.00    +0.000 OA
ATOM     12  CE2 TYR A   1      60.496  62.839  71.327  0.00  0.00    +0.000 A 
ATOM     13  CD2 TYR A   1      60.339  63.532  71.747  0.00  0.00    +0.000 A 
ATOM     14  C   TYR A   1      59.576  64.727  71.922  0.00  0.00    +0.000 C 
ATOM     15  O   TYR A   1      59.733  64.034  71.502  0.00  0.00    +0.000 OA
ATOM     16  OXT TYR A   1      58.970  65.230  71.677  0.00  0.00    +0.000 OA
ENDROOT
TORSDOF 0
ENDMDL
MODEL 8
REMARK VINA RESULT:    -7.730      5.770      7.181
REMARK INTER + INTRA:          -7.730
REMARK INTER:                  -7.730
REMARK INTRA:                   0.000
REMARK UNBOUND:                 0.000
ROOT
REMARK  Name = N-Acetyltyrosine
REMARK                            x       y       z     vdW  Elec       q    Type
REMARK                         _______ _______ _______ _____ _____    ______ ____
ATOM      1  C   UNK A   0      66.497  67.951  69.840  0.00  0.00    +0.000 C 
ATOM      2  C   UNK A   0      65.924  67.483  70.202  0.00  0.00    +0.000 C 
ATOM      3  O   UNK A   0      65.699  67.635  70.981  0.00  0.00    +0.000 OA
ATOM      4  N   TYR A   1      65.575  66.862  69.786  0.00  0.00    +0.000 NA
ATOM      5  CA  TYR A   1      65.001  66.393  70.148  0.00  0.00    +0.000 C 
ATOM      6  CB  TYR A   1      64.652  65.773  69.733  0.00  0.00    +0.000 C 
ATOM      7  CG  TYR A   1      64.078  65.304  70.096  0.00  0.00    +0.000 A 
ATOM      8  CD1 TYR A   1      63.729  64.683  69.680  0.00  0.00    +0.000 A 
ATOM      9  CE1 TYR A   1      63.155  64.215  70.042  0.00  0.00    +0.000 A 
ATOM     10  CZ  TYR A   1      62.930  64.366  70.821  0.00  0.00    +0.000 A 
ATOM     11  OH  TYR A   1      62.356  63.898  71.184  0.00  0.00    +0.000 OA
ATOM     12  CE2 TYR A   1      63.279  64.987  71.238  0.00  0.00    +0.000 A 
ATOM     13  CD2 TYR A   1      63.853  65.456  70.875  0.00  0.00    +0.000 A 
ATOM     14  C   TYR A   1      64.776  66.545  70.928  0.00  0.00    +0.000 C 
ATOM     15  O   TYR A   1      64.202  66.077  71.290  0.00  0.00    +0.000 OA
ATOM     16  OXT TYR A   1      65.125  67.166  71.344  0.00  0.00    +0.000 OA
ENDROOT
TORSDOF 0
ENDMDL
MODEL 9
REMARK VINA RESULT:    -7.422      5.305      6.276
REMARK INTER + INTRA:          -7.422
REMARK INTER:                  -7.422
REMARK INTRA:                   0.000
REMARK UNBOUND:                 0.000
ROOT
REMARK  Name = N-Acetyltyrosine
REMARK                            x       y       z     vdW  Elec       q    Type
REMARK                         _______ _______ _______ _____ _____    ______ ____
ATOM      1  C   UNK A   0      64.812  65.767  70.661  0.00  0.00    +0.000 C 
ATOM      2  C   UNK A   0      64.213  65.209  70.568  0.00  0.00    +0.000 C 
ATOM      3  O   UNK A   0      64.154  64.779  69.867  0.00  0.00    +0.000 OA
ATOM      4  N   TYR A   1      63.671  65.080  71.177  0.00  0.00    +0.000 NA
ATOM      5  CA  TYR A   1      63.071  64.522  71.086  0.00  0.00    +0.000 C 
ATOM      6  CB  TYR A   1      62.530  64.394  71.694  0.00  0.00    +0.000 C 
ATOM      7  CG  TYR A   1      61.929  63.835  71.602  0.00  0.00    +0.000 A 
ATOM      8  CD1 TYR A   1      61.388  63.707  72.211  0.00  0.00    +0.000 A 
ATOM      9  CE1 TYR A   1      60.788  63.149  72.118  0.00  0.00    +0.000 A 
ATOM     10  CZ  TYR A   1      60.729  62.719  71.416  0.00  0.00    +0.000 A 
ATOM     11  OH  TYR A   1      60.129  62.161  71.324  0.00  0.00    +0.000 OA
ATOM     12  CE2 TYR A   1      61.270  62.847  70.807  0.00  0.00    +0.000 A 
ATOM     13  CD2 TYR A   1      61.871  63.406  70.900  0.00  0.00    +0.000 A 
ATOM     14  C   TYR A   1      63.012  64.092  70.383  0.00  0.00    +0.000 C 
ATOM     15  O   TYR A   1      62.411  63.534  70.291  0.00  0.00    +0.000 OA
ATOM     16  OXT TYR A   1      63.553  64.221  69.774  0.00  0.00    +0.000 OA
ENDROOT
TORSDOF 0
ENDMDL
