MODEL 1
REMARK VINA RESULT:   -10.189      0.000      0.000
REMARK INTER + INTRA:         -10.189
REMARK INTER:                 -10.189
REMARK INTRA:                   0.000
REMARK UNBOUND:                 0.000
ROOT
REMARK  Name = naepaine
REMARK                            x       y       z     vdW  Elec       q    Type
REMARK                         _______ _______ _______ _____ _____    ______ ____
ATOM      1  C   UNL     1      60.876  63.506  72.570  0.00  0.00    +0.000 C 
ATOM      2  C   UNL     1      60.504  63.259  71.877  0.00  0.00    +0.000 C 
ATOM      3  C   UNL     1      60.940  63.175  71.181  0.00  0.00    +0.000 C 
ATOM      4  C   UNL     1      60.568  62.927  70.488  0.00  0.00    +0.000 C 
ATOM      5  C   UNL     1      61.004  62.844  69.792  0.00  0.00    +0.000 C 
ATOM      6  N   UNL     1      60.632  62.596  69.100  0.00  0.00    +0.000 NA
ATOM      7  C   UNL     1      61.068  62.512  68.404  0.00  0.00    +0.000 C 
ATOM      8  C   UNL     1      60.696  62.264  67.711  0.00  0.00    +0.000 C 
ATOM      9  O   UNL     1      61.132  62.181  67.015  0.00  0.00    +0.000 OA
ATOM     10  C   UNL     1      60.760  61.933  66.323  0.00  0.00    +0.000 C 
ATOM     11  O   UNL     1      59.951  61.768  66.325  0.00  0.00    +0.000 OA
ATOM     12  C   UNL     1      61.196  61.849  65.627  0.00  0.00    +0.000 A 
ATOM     13  C   UNL     1      60.824  61.601  64.934  0.00  0.00    +0.000 A 
ATOM     14  C   UNL     1      61.260  61.518  64.239  0.00  0.00    +0.000 A 
ATOM     15  C   UNL     1      62.069  61.682  64.237  0.00  0.00    +0.000 A 
ATOM     16  N   UNL     1      62.505  61.599  63.542  0.00  0.00    +0.000 NA
ATOM     17  C   UNL     1      62.441  61.930  64.930  0.00  0.00    +0.000 A 
ATOM     18  C   UNL     1      62.005  62.014  65.625  0.00  0.00    +0.000 A 
ENDROOT
TORSDOF 0
ENDMDL
MODEL 2
REMARK VINA RESULT:    -9.703      1.450      5.825
REMARK INTER + INTRA:          -9.703
REMARK INTER:                  -9.703
REMARK INTRA:                   0.000
REMARK UNBOUND:                 0.000
ROOT
REMARK  Name = naepaine
REMARK                            x       y       z     vdW  Elec       q    Type
REMARK                         _______ _______ _______ _____ _____    ______ ____
ATOM      1  C   UNL     1      62.400  61.912  63.538  0.00  0.00    +0.000 C 
ATOM      2  C   UNL     1      62.031  61.632  64.220  0.00  0.00    +0.000 C 
ATOM      3  C   UNL     1      62.035  62.086  64.909  0.00  0.00    +0.000 C 
ATOM      4  C   UNL     1      61.666  61.806  65.591  0.00  0.00    +0.000 C 
ATOM      5  C   UNL     1      61.670  62.260  66.280  0.00  0.00    +0.000 C 
ATOM      6  N   UNL     1      61.301  61.980  66.961  0.00  0.00    +0.000 NA
ATOM      7  C   UNL     1      61.305  62.434  67.650  0.00  0.00    +0.000 C 
ATOM      8  C   UNL     1      60.936  62.154  68.332  0.00  0.00    +0.000 C 
ATOM      9  O   UNL     1      60.940  62.608  69.021  0.00  0.00    +0.000 OA
ATOM     10  C   UNL     1      60.571  62.328  69.703  0.00  0.00    +0.000 C 
ATOM     11  O   UNL     1      60.196  61.592  69.696  0.00  0.00    +0.000 OA
ATOM     12  C   UNL     1      60.575  62.782  70.392  0.00  0.00    +0.000 A 
ATOM     13  C   UNL     1      60.206  62.502  71.073  0.00  0.00    +0.000 A 
ATOM     14  C   UNL     1      60.211  62.956  71.761  0.00  0.00    +0.000 A 
ATOM     15  C   UNL     1      60.585  63.691  71.768  0.00  0.00    +0.000 A 
ATOM     16  N   UNL     1      60.590  64.146  72.457  0.00  0.00    +0.000 NA
ATOM     17  C   UNL     1      60.955  63.972  71.086  0.00  0.00    +0.000 A 
ATOM     18  C   UNL     1      60.950  63.517  70.398  0.00  0.00    +0.000 A 
ENDROOT
TORSDOF 0
ENDMDL
MODEL 3
REMARK VINA RESULT:    -9.245      3.581      4.451
REMARK INTER + INTRA:          -9.245
REMARK INTER:                  -9.245
REMARK INTRA:                   0.000
REMARK UNBOUND:                 0.000
ROOT
REMARK  Name = naepaine
REMARK                            x       y       z     vdW  Elec       q    Type
REMARK                         _______ _______ _______ _____ _____    ______ ____
ATOM      1  C   UNL     1      66.336  67.738  70.220  0.00  0.00    +0.000 C 
ATOM      2  C   UNL     1      65.814  67.143  70.450  0.00  0.00    +0.000 C 
ATOM      3  C   UNL     1      65.297  66.810  69.899  0.00  0.00    +0.000 C 
ATOM      4  C   UNL     1      64.775  66.215  70.130  0.00  0.00    +0.000 C 
ATOM      5  C   UNL     1      64.259  65.883  69.579  0.00  0.00    +0.000 C 
ATOM      6  N   UNL     1      63.737  65.288  69.810  0.00  0.00    +0.000 NA
ATOM      7  C   UNL     1      63.220  64.955  69.259  0.00  0.00    +0.000 C 
ATOM      8  C   UNL     1      62.698  64.360  69.490  0.00  0.00    +0.000 C 
ATOM      9  O   UNL     1      62.181  64.028  68.939  0.00  0.00    +0.000 OA
ATOM     10  C   UNL     1      61.659  63.433  69.169  0.00  0.00    +0.000 C 
ATOM     11  O   UNL     1      61.653  63.169  69.952  0.00  0.00    +0.000 OA
ATOM     12  C   UNL     1      61.142  63.100  68.619  0.00  0.00    +0.000 A 
ATOM     13  C   UNL     1      60.620  62.505  68.849  0.00  0.00    +0.000 A 
ATOM     14  C   UNL     1      60.104  62.173  68.299  0.00  0.00    +0.000 A 
ATOM     15  C   UNL     1      60.110  62.437  67.517  0.00  0.00    +0.000 A 
ATOM     16  N   UNL     1      59.593  62.104  66.965  0.00  0.00    +0.000 NA
ATOM     17  C   UNL     1      60.632  63.032  67.286  0.00  0.00    +0.000 A 
ATOM     18  C   UNL     1      61.148  63.363  67.837  0.00  0.00    +0.000 A 
ENDROOT
TORSDOF 0
ENDMDL
MODEL 4
REMARK VINA RESULT:    -9.062      4.348      6.244
REMARK INTER + INTRA:          -9.062
REMARK INTER:                  -9.062
REMARK INTRA:                   0.000
REMARK UNBOUND:                 0.000
ROOT
REMARK  Name = naepaine
REMARK                            x       y       z     vdW  Elec       q    Type
REMARK                         _______ _______ _______ _____ _____    ______ ____
ATOM      1  C   UNL     1      66.782  68.013  69.828  0.00  0.00    +0.000 C 
ATOM      2  C   UNL     1      66.226  67.718  70.360  0.00  0.00    +0.000 C 
ATOM      3  C   UNL     1      65.735  67.092  70.139  0.00  0.00    +0.000 C 
ATOM      4  C   UNL     1      65.179  66.796  70.671  0.00  0.00    +0.000 C 
ATOM      5  C   UNL     1      64.688  66.170  70.450  0.00  0.00    +0.000 C 
ATOM      6  N   UNL     1      64.132  65.875  70.982  0.00  0.00    +0.000 NA
ATOM      7  C   UNL     1      63.641  65.249  70.761  0.00  0.00    +0.000 C 
ATOM      8  C   UNL     1      63.084  64.953  71.293  0.00  0.00    +0.000 C 
ATOM      9  O   UNL     1      62.594  64.327  71.072  0.00  0.00    +0.000 OA
ATOM     10  C   UNL     1      62.037  64.032  71.604  0.00  0.00    +0.000 C 
ATOM     11  O   UNL     1      61.970  64.363  72.358  0.00  0.00    +0.000 OA
ATOM     12  C   UNL     1      61.547  63.406  71.383  0.00  0.00    +0.000 A 
ATOM     13  C   UNL     1      60.990  63.111  71.915  0.00  0.00    +0.000 A 
ATOM     14  C   UNL     1      60.501  62.485  71.694  0.00  0.00    +0.000 A 
ATOM     15  C   UNL     1      60.568  62.155  70.941  0.00  0.00    +0.000 A 
ATOM     16  N   UNL     1      60.078  61.528  70.720  0.00  0.00    +0.000 NA
ATOM     17  C   UNL     1      61.125  62.450  70.409  0.00  0.00    +0.000 A 
ATOM     18  C   UNL     1      61.614  63.076  70.630  0.00  0.00    +0.000 A 
ENDROOT
TORSDOF 0
ENDMDL
MODEL 5
REMARK VINA RESULT:    -8.782      2.727      6.114
REMARK INTER + INTRA:          -8.782
REMARK INTER:                  -8.782
REMARK INTRA:                   0.000
REMARK UNBOUND:                 0.000
ROOT
REMARK  Name = naepaine
REMARK                            x       y       z     vdW  Elec       q    Type
REMARK                         _______ _______ _______ _____ _____    ______ ____
ATOM      1  C   UNL     1      62.263  61.608  64.638  0.00  0.00    +0.000 C 
ATOM      2  C   UNL     1      61.926  61.634  65.389  0.00  0.00    +0.000 C 
ATOM      3  C   UNL     1      61.785  62.361  65.753  0.00  0.00    +0.000 C 
ATOM      4  C   UNL     1      61.448  62.388  66.505  0.00  0.00    +0.000 C 
ATOM      5  C   UNL     1      61.306  63.115  66.869  0.00  0.00    +0.000 C 
ATOM      6  N   UNL     1      60.969  63.142  67.621  0.00  0.00    +0.000 NA
ATOM      7  C   UNL     1      60.828  63.869  67.985  0.00  0.00    +0.000 C 
ATOM      8  C   UNL     1      60.491  63.895  68.737  0.00  0.00    +0.000 C 
ATOM      9  O   UNL     1      60.349  64.622  69.101  0.00  0.00    +0.000 OA
ATOM     10  C   UNL     1      60.013  64.649  69.853  0.00  0.00    +0.000 C 
ATOM     11  O   UNL     1      59.816  63.948  70.243  0.00  0.00    +0.000 OA
ATOM     12  C   UNL     1      59.871  65.376  70.217  0.00  0.00    +0.000 A 
ATOM     13  C   UNL     1      59.534  65.403  70.969  0.00  0.00    +0.000 A 
ATOM     14  C   UNL     1      59.393  66.129  71.332  0.00  0.00    +0.000 A 
ATOM     15  C   UNL     1      59.589  66.830  70.943  0.00  0.00    +0.000 A 
ATOM     16  N   UNL     1      59.447  67.557  71.306  0.00  0.00    +0.000 NA
ATOM     17  C   UNL     1      59.926  66.804  70.191  0.00  0.00    +0.000 A 
ATOM     18  C   UNL     1      60.067  66.077  69.828  0.00  0.00    +0.000 A 
ENDROOT
TORSDOF 0
ENDMDL
MODEL 6
REMARK VINA RESULT:    -7.878      7.031      8.004
REMARK INTER + INTRA:          -7.878
REMARK INTER:                  -7.878
REMARK INTRA:                   0.000
REMARK UNBOUND:                 0.000
ROOT
REMARK  Name = naepaine
REMARK                            x       y       z     vdW  Elec       q    Type
REMARK                         _______ _______ _______ _____ _____    ______ ____
ATOM      1  C   UNL     1      66.371  66.872  71.469  0.00  0.00    +0.000 C 
ATOM      2  C   UNL     1      65.655  67.231  71.662  0.00  0.00    +0.000 C 
ATOM      3  C   UNL     1      64.971  66.774  71.738  0.00  0.00    +0.000 C 
ATOM      4  C   UNL     1      64.255  67.133  71.932  0.00  0.00    +0.000 C 
ATOM      5  C   UNL     1      63.572  66.677  72.008  0.00  0.00    +0.000 C 
ATOM      6  N   UNL     1      62.855  67.036  72.201  0.00  0.00    +0.000 NA
ATOM      7  C   UNL     1      62.172  66.580  72.277  0.00  0.00    +0.000 C 
ATOM      8  C   UNL     1      61.455  66.939  72.471  0.00  0.00    +0.000 C 
ATOM      9  O   UNL     1      60.772  66.482  72.547  0.00  0.00    +0.000 OA
ATOM     10  C   UNL     1      60.055  66.841  72.740  0.00  0.00    +0.000 C 
ATOM     11  O   UNL     1      60.021  67.658  72.858  0.00  0.00    +0.000 OA
ATOM     12  C   UNL     1      59.372  66.385  72.816  0.00  0.00    +0.000 A 
ATOM     13  C   UNL     1      58.655  66.744  73.010  0.00  0.00    +0.000 A 
ATOM     14  C   UNL     1      57.973  66.288  73.086  0.00  0.00    +0.000 A 
ATOM     15  C   UNL     1      58.007  65.472  72.968  0.00  0.00    +0.000 A 
ATOM     16  N   UNL     1      57.323  65.015  73.044  0.00  0.00    +0.000 NA
ATOM     17  C   UNL     1      58.723  65.112  72.774  0.00  0.00    +0.000 A 
ATOM     18  C   UNL     1      59.406  65.569  72.699  0.00  0.00    +0.000 A 
ENDROOT
TORSDOF 0
ENDMDL
MODEL 7
REMARK VINA RESULT:    -7.227     13.352     16.339
REMARK INTER + INTRA:          -7.227
REMARK INTER:                  -7.227
REMARK INTRA:                   0.000
REMARK UNBOUND:                 0.000
ROOT
REMARK  Name = naepaine
REMARK                            x       y       z     vdW  Elec       q    Type
REMARK                         _______ _______ _______ _____ _____    ______ ____
ATOM      1  C   UNL     1      60.891  70.550  48.765  0.00  0.00    +0.000 C 
ATOM      2  C   UNL     1      61.220  69.973  49.255  0.00  0.00    +0.000 C 
ATOM      3  C   UNL     1      61.257  70.096  50.070  0.00  0.00    +0.000 C 
ATOM      4  C   UNL     1      61.586  69.520  50.559  0.00  0.00    +0.000 C 
ATOM      5  C   UNL     1      61.624  69.642  51.374  0.00  0.00    +0.000 C 
ATOM      6  N   UNL     1      61.952  69.066  51.864  0.00  0.00    +0.000 NA
ATOM      7  C   UNL     1      61.990  69.189  52.679  0.00  0.00    +0.000 C 
ATOM      8  C   UNL     1      62.319  68.613  53.168  0.00  0.00    +0.000 C 
ATOM      9  O   UNL     1      62.356  68.735  53.984  0.00  0.00    +0.000 OA
ATOM     10  C   UNL     1      62.685  68.159  54.473  0.00  0.00    +0.000 C 
ATOM     11  O   UNL     1      62.977  67.458  54.147  0.00  0.00    +0.000 OA
ATOM     12  C   UNL     1      62.723  68.281  55.288  0.00  0.00    +0.000 A 
ATOM     13  C   UNL     1      63.051  67.705  55.778  0.00  0.00    +0.000 A 
ATOM     14  C   UNL     1      63.089  67.828  56.592  0.00  0.00    +0.000 A 
ATOM     15  C   UNL     1      62.797  68.528  56.917  0.00  0.00    +0.000 A 
ATOM     16  N   UNL     1      62.834  68.651  57.733  0.00  0.00    +0.000 NA
ATOM     17  C   UNL     1      62.468  69.105  56.428  0.00  0.00    +0.000 A 
ATOM     18  C   UNL     1      62.431  68.981  55.613  0.00  0.00    +0.000 A 
ENDROOT
TORSDOF 0
ENDMDL
