MODEL 1
REMARK VINA RESULT:   -14.971      0.000      0.000
REMARK INTER + INTRA:         -14.971
REMARK INTER:                 -14.971
REMARK INTRA:                   0.000
REMARK UNBOUND:                 0.000
ROOT
REMARK  Name = nafarelin
REMARK                            x       y       z     vdW  Elec       q    Type
REMARK                         _______ _______ _______ _____ _____    ______ ____
ATOM      1  C   UNL     1      82.252  63.738  50.590  0.00  0.00    +0.000 C 
ATOM      2  C   UNL     1      82.252  63.612  51.404  0.00  0.00    +0.000 C 
ATOM      3  C   UNL     1      82.252  62.842  51.701  0.00  0.00    +0.000 C 
ATOM      4  C   UNL     1      82.252  64.254  51.922  0.00  0.00    +0.000 C 
ATOM      5  C   UNL     1      82.252  64.126  52.737  0.00  0.00    +0.000 C 
ATOM      6  N   UNL     1      82.252  64.769  53.255  0.00  0.00    +0.000 NA
ATOM      7  C   UNL     1      82.252  65.538  52.958  0.00  0.00    +0.000 C 
ATOM      8  O   UNL     1      82.252  65.666  52.143  0.00  0.00    +0.000 OA
ATOM      9  C   UNL     1      82.252  66.180  53.476  0.00  0.00    +0.000 C 
ATOM     10  C   UNL     1      82.252  66.950  53.179  0.00  0.00    +0.000 C 
ATOM     11  C   UNL     1      82.252  67.592  53.696  0.00  0.00    +0.000 A 
ATOM     12  C   UNL     1      82.252  67.465  54.511  0.00  0.00    +0.000 A 
ATOM     13  C   UNL     1      82.252  68.107  55.029  0.00  0.00    +0.000 A 
ATOM     14  C   UNL     1      82.252  68.877  54.732  0.00  0.00    +0.000 A 
ATOM     15  C   UNL     1      82.252  69.519  55.250  0.00  0.00    +0.000 A 
ATOM     16  C   UNL     1      82.252  69.391  56.065  0.00  0.00    +0.000 A 
ATOM     17  C   UNL     1      82.252  68.622  56.363  0.00  0.00    +0.000 A 
ATOM     18  C   UNL     1      82.252  67.979  55.844  0.00  0.00    +0.000 A 
ATOM     19  C   UNL     1      82.252  69.004  53.917  0.00  0.00    +0.000 A 
ATOM     20  C   UNL     1      82.252  68.362  53.399  0.00  0.00    +0.000 A 
ATOM     21  N   UNL     1      82.252  66.053  54.291  0.00  0.00    +0.000 NA
ATOM     22  C   UNL     1      82.252  65.283  54.588  0.00  0.00    +0.000 C 
ATOM     23  O   UNL     1      82.252  64.641  54.070  0.00  0.00    +0.000 OA
ATOM     24  C   UNL     1      82.252  65.156  55.403  0.00  0.00    +0.000 C 
ATOM     25  C   UNL     1      82.252  65.927  55.697  0.00  0.00    +0.000 C 
ATOM     26  C   UNL     1      82.252  66.057  56.512  0.00  0.00    +0.000 A 
ATOM     27  C   UNL     1      82.252  66.828  56.806  0.00  0.00    +0.000 A 
ATOM     28  C   UNL     1      82.252  66.959  57.621  0.00  0.00    +0.000 A 
ATOM     29  C   UNL     1      82.252  66.319  58.141  0.00  0.00    +0.000 A 
ATOM     30  O   UNL     1      82.252  66.449  58.955  0.00  0.00    +0.000 OA
ATOM     31  C   UNL     1      82.252  65.548  57.847  0.00  0.00    +0.000 A 
ATOM     32  C   UNL     1      82.252  65.418  57.033  0.00  0.00    +0.000 A 
ATOM     33  N   UNL     1      82.252  64.386  55.701  0.00  0.00    +0.000 NA
ATOM     34  C   UNL     1      82.252  64.259  56.515  0.00  0.00    +0.000 C 
ATOM     35  O   UNL     1      82.252  64.474  57.312  0.00  0.00    +0.000 OA
ATOM     36  CA  UNL     1      82.252  63.490  56.812  0.00  0.00    +0.000 C 
ATOM     37  C   UNL     1      82.252  62.847  56.295  0.00  0.00    +0.000 C 
ATOM     38  O   UNL     1      82.252  62.975  55.479  0.00  0.00    +0.000 OA
ATOM     39  N   UNL     1      82.252  63.362  57.628  0.00  0.00    +0.000 NA
ATOM     40  C   UNL     1      82.252  62.592  57.925  0.00  0.00    +0.000 C 
ATOM     41  O   UNL     1      82.252  61.950  57.408  0.00  0.00    +0.000 OA
ATOM     42  CA  UNL     1      82.252  62.465  58.740  0.00  0.00    +0.000 C 
ATOM     43  CB  UNL     1      82.252  63.107  59.258  0.00  0.00    +0.000 C 
ATOM     44  CG  UNL     1      82.252  63.877  58.961  0.00  0.00    +0.000 C 
ATOM     45  CD1 UNL     1      82.252  64.089  58.164  0.00  0.00    +0.000 C 
ATOM     46  NE1 UNL     1      82.252  64.912  58.119  0.00  0.00    +0.000 NA
ATOM     47  CE2 UNL     1      82.252  65.210  58.889  0.00  0.00    +0.000 C 
ATOM     48  CD2 UNL     1      82.252  64.569  59.409  0.00  0.00    +0.000 C 
ATOM     49  CE3 UNL     1      82.252  64.701  60.223  0.00  0.00    +0.000 C 
ATOM     50  CZ3 UNL     1      82.252  65.471  60.518  0.00  0.00    +0.000 C 
ATOM     51  CH2 UNL     1      82.252  66.112  59.997  0.00  0.00    +0.000 C 
ATOM     52  CZ2 UNL     1      82.252  65.980  59.182  0.00  0.00    +0.000 C 
ATOM     53  N   UNL     1      82.252  61.695  59.038  0.00  0.00    +0.000 NA
ATOM     54  C   UNL     1      82.252  61.568  59.853  0.00  0.00    +0.000 C 
ATOM     55  O   UNL     1      82.252  62.211  60.370  0.00  0.00    +0.000 OA
ATOM     56  CA  UNL     1      82.252  60.799  60.150  0.00  0.00    +0.000 C 
ATOM     57  CB  UNL     1      82.252  60.156  59.632  0.00  0.00    +0.000 C 
ATOM     58  CG  UNL     1      82.252  60.284  58.817  0.00  0.00    +0.000 A 
ATOM     59  CD2 UNL     1      82.252  61.018  58.441  0.00  0.00    +0.000 A 
ATOM     60  NE2 UNL     1      82.252  60.887  57.626  0.00  0.00    +0.000 NA
ATOM     61  CE1 UNL     1      82.252  60.072  57.498  0.00  0.00    +0.000 A 
ATOM     62  ND1 UNL     1      82.252  59.699  58.235  0.00  0.00    +0.000 NA
ATOM     63  N   UNL     1      82.252  60.671  60.964  0.00  0.00    +0.000 NA
ATOM     64  C   UNL     1      82.252  59.901  61.263  0.00  0.00    +0.000 C 
ATOM     65  O   UNL     1      82.252  59.259  60.744  0.00  0.00    +0.000 OA
ATOM     66  CA  UNL     1      82.252  59.774  62.077  0.00  0.00    +0.000 C 
ATOM     67  C   UNL     1      82.252  59.040  62.453  0.00  0.00    +0.000 C 
ATOM     68  C   UNL     1      82.252  59.171  63.267  0.00  0.00    +0.000 C 
ATOM     69  C   UNL     1      82.252  59.986  63.395  0.00  0.00    +0.000 C 
ATOM     70  O   UNL     1      82.252  60.361  64.130  0.00  0.00    +0.000 OA
ATOM     71  N   UNL     1      82.252  60.359  62.659  0.00  0.00    +0.000 NA
ATOM     72  C   UNL     1      82.252  63.357  53.034  0.00  0.00    +0.000 C 
ATOM     73  O   UNL     1      82.252  63.229  53.850  0.00  0.00    +0.000 OA
ATOM     74  N   UNL     1      82.252  62.714  52.517  0.00  0.00    +0.000 NA
ATOM     75  C   UNL     1      82.252  61.945  52.814  0.00  0.00    +0.000 C 
ATOM     76  C   UNL     1      82.252  61.817  53.629  0.00  0.00    +0.000 C 
ATOM     77  C   UNL     1      82.252  61.047  53.926  0.00  0.00    +0.000 C 
ATOM     78  C   UNL     1      82.252  60.921  54.742  0.00  0.00    +0.000 C 
ATOM     79  N   UNL     1      82.252  60.151  55.039  0.00  0.00    +0.000 NA
ATOM     80  C   UNL     1      82.252  60.024  55.853  0.00  0.00    +0.000 C 
ATOM     81  N   UNL     1      82.252  60.666  56.372  0.00  0.00    +0.000 NA
ATOM     82  N   UNL     1      82.252  59.254  56.150  0.00  0.00    +0.000 NA
ATOM     83  C   UNL     1      82.252  61.303  52.296  0.00  0.00    +0.000 C 
ATOM     84  O   UNL     1      82.252  60.533  52.593  0.00  0.00    +0.000 OA
ATOM     85  N   UNL     1      82.252  61.430  51.481  0.00  0.00    +0.000 N 
ATOM     86  C   UNL     1      82.252  62.165  51.105  0.00  0.00    +0.000 C 
ATOM     87  C   UNL     1      82.252  62.033  50.291  0.00  0.00    +0.000 C 
ATOM     88  C   UNL     1      82.252  61.219  50.163  0.00  0.00    +0.000 C 
ATOM     89  C   UNL     1      82.252  60.845  50.899  0.00  0.00    +0.000 C 
ATOM     90  C   UNL     1      82.252  60.031  51.029  0.00  0.00    +0.000 C 
ATOM     91  O   UNL     1      82.252  59.511  50.389  0.00  0.00    +0.000 OA
ATOM     92  N   UNL     1      82.252  59.737  51.800  0.00  0.00    +0.000 NA
ATOM     93  C   UNL     1      82.252  58.922  51.931  0.00  0.00    +0.000 C 
ATOM     94  C   UNL     1      82.252  58.628  52.702  0.00  0.00    +0.000 C 
ATOM     95  N   UNL     1      82.252  57.813  52.832  0.00  0.00    +0.000 NA
ATOM     96  O   UNL     1      82.252  59.149  53.342  0.00  0.00    +0.000 OA
ENDROOT
TORSDOF 0
ENDMDL
MODEL 2
REMARK VINA RESULT:   -12.677      1.480      8.651
REMARK INTER + INTRA:         -12.677
REMARK INTER:                 -12.677
REMARK INTRA:                   0.000
REMARK UNBOUND:                 0.000
ROOT
REMARK  Name = nafarelin
REMARK                            x       y       z     vdW  Elec       q    Type
REMARK                         _______ _______ _______ _____ _____    ______ ____
ATOM      1  C   UNL     1      82.252  59.925  59.080  0.00  0.00    +0.000 C 
ATOM      2  C   UNL     1      82.252  60.505  58.494  0.00  0.00    +0.000 C 
ATOM      3  C   UNL     1      82.252  61.303  58.705  0.00  0.00    +0.000 C 
ATOM      4  C   UNL     1      82.252  60.288  57.698  0.00  0.00    +0.000 C 
ATOM      5  C   UNL     1      82.252  60.869  57.113  0.00  0.00    +0.000 C 
ATOM      6  N   UNL     1      82.252  60.653  56.316  0.00  0.00    +0.000 NA
ATOM      7  C   UNL     1      82.252  59.855  56.106  0.00  0.00    +0.000 C 
ATOM      8  O   UNL     1      82.252  59.273  56.692  0.00  0.00    +0.000 OA
ATOM      9  C   UNL     1      82.252  59.638  55.311  0.00  0.00    +0.000 C 
ATOM     10  C   UNL     1      82.252  58.840  55.100  0.00  0.00    +0.000 C 
ATOM     11  C   UNL     1      82.252  58.623  54.305  0.00  0.00    +0.000 A 
ATOM     12  C   UNL     1      82.252  59.204  53.719  0.00  0.00    +0.000 A 
ATOM     13  C   UNL     1      82.252  58.987  52.923  0.00  0.00    +0.000 A 
ATOM     14  C   UNL     1      82.252  58.189  52.713  0.00  0.00    +0.000 A 
ATOM     15  C   UNL     1      82.252  57.972  51.916  0.00  0.00    +0.000 A 
ATOM     16  C   UNL     1      82.252  58.553  51.331  0.00  0.00    +0.000 A 
ATOM     17  C   UNL     1      82.252  59.351  51.541  0.00  0.00    +0.000 A 
ATOM     18  C   UNL     1      82.252  59.568  52.337  0.00  0.00    +0.000 A 
ATOM     19  C   UNL     1      82.252  57.608  53.298  0.00  0.00    +0.000 A 
ATOM     20  C   UNL     1      82.252  57.825  54.094  0.00  0.00    +0.000 A 
ATOM     21  N   UNL     1      82.252  60.219  54.725  0.00  0.00    +0.000 NA
ATOM     22  C   UNL     1      82.252  61.017  54.935  0.00  0.00    +0.000 C 
ATOM     23  O   UNL     1      82.252  61.233  55.731  0.00  0.00    +0.000 OA
ATOM     24  C   UNL     1      82.252  61.597  54.350  0.00  0.00    +0.000 C 
ATOM     25  C   UNL     1      82.252  61.145  53.659  0.00  0.00    +0.000 C 
ATOM     26  C   UNL     1      82.252  61.517  52.922  0.00  0.00    +0.000 A 
ATOM     27  C   UNL     1      82.252  61.064  52.233  0.00  0.00    +0.000 A 
ATOM     28  C   UNL     1      82.252  61.436  51.496  0.00  0.00    +0.000 A 
ATOM     29  C   UNL     1      82.252  62.260  51.449  0.00  0.00    +0.000 A 
ATOM     30  O   UNL     1      82.252  62.631  50.713  0.00  0.00    +0.000 OA
ATOM     31  C   UNL     1      82.252  62.712  52.139  0.00  0.00    +0.000 A 
ATOM     32  C   UNL     1      82.252  62.340  52.875  0.00  0.00    +0.000 A 
ATOM     33  N   UNL     1      82.252  62.396  54.559  0.00  0.00    +0.000 NA
ATOM     34  C   UNL     1      82.252  62.976  53.974  0.00  0.00    +0.000 C 
ATOM     35  O   UNL     1      82.252  63.268  53.202  0.00  0.00    +0.000 OA
ATOM     36  CA  UNL     1      82.252  63.773  54.184  0.00  0.00    +0.000 C 
ATOM     37  C   UNL     1      82.252  63.991  54.979  0.00  0.00    +0.000 C 
ATOM     38  O   UNL     1      82.252  63.409  55.566  0.00  0.00    +0.000 OA
ATOM     39  N   UNL     1      82.252  64.355  53.598  0.00  0.00    +0.000 NA
ATOM     40  C   UNL     1      82.252  65.153  53.808  0.00  0.00    +0.000 C 
ATOM     41  O   UNL     1      82.252  65.370  54.604  0.00  0.00    +0.000 OA
ATOM     42  CA  UNL     1      82.252  65.734  53.222  0.00  0.00    +0.000 C 
ATOM     43  CB  UNL     1      82.252  65.517  52.427  0.00  0.00    +0.000 C 
ATOM     44  CG  UNL     1      82.252  64.719  52.216  0.00  0.00    +0.000 C 
ATOM     45  CD1 UNL     1      82.252  64.080  52.738  0.00  0.00    +0.000 C 
ATOM     46  NE1 UNL     1      82.252  63.387  52.292  0.00  0.00    +0.000 NA
ATOM     47  CE2 UNL     1      82.252  63.596  51.493  0.00  0.00    +0.000 C 
ATOM     48  CD2 UNL     1      82.252  64.420  51.447  0.00  0.00    +0.000 C 
ATOM     49  CE3 UNL     1      82.252  64.791  50.710  0.00  0.00    +0.000 C 
ATOM     50  CZ3 UNL     1      82.252  64.339  50.020  0.00  0.00    +0.000 C 
ATOM     51  CH2 UNL     1      82.252  63.515  50.067  0.00  0.00    +0.000 C 
ATOM     52  CZ2 UNL     1      82.252  63.144  50.804  0.00  0.00    +0.000 C 
ATOM     53  N   UNL     1      82.252  66.532  53.433  0.00  0.00    +0.000 NA
ATOM     54  C   UNL     1      82.252  67.112  52.846  0.00  0.00    +0.000 C 
ATOM     55  O   UNL     1      82.252  66.895  52.051  0.00  0.00    +0.000 OA
ATOM     56  CA  UNL     1      82.252  67.910  53.056  0.00  0.00    +0.000 C 
ATOM     57  CB  UNL     1      82.252  68.126  53.853  0.00  0.00    +0.000 C 
ATOM     58  CG  UNL     1      82.252  67.546  54.438  0.00  0.00    +0.000 A 
ATOM     59  CD2 UNL     1      82.252  66.731  54.313  0.00  0.00    +0.000 A 
ATOM     60  NE2 UNL     1      82.252  66.359  55.050  0.00  0.00    +0.000 NA
ATOM     61  CE1 UNL     1      82.252  66.945  55.631  0.00  0.00    +0.000 A 
ATOM     62  ND1 UNL     1      82.252  67.678  55.252  0.00  0.00    +0.000 NA
ATOM     63  N   UNL     1      82.252  68.491  52.471  0.00  0.00    +0.000 NA
ATOM     64  C   UNL     1      82.252  69.289  52.681  0.00  0.00    +0.000 C 
ATOM     65  O   UNL     1      82.252  69.505  53.477  0.00  0.00    +0.000 OA
ATOM     66  CA  UNL     1      82.252  69.870  52.096  0.00  0.00    +0.000 C 
ATOM     67  C   UNL     1      82.252  70.684  52.221  0.00  0.00    +0.000 C 
ATOM     68  C   UNL     1      82.252  71.056  51.485  0.00  0.00    +0.000 C 
ATOM     69  C   UNL     1      82.252  70.470  50.903  0.00  0.00    +0.000 C 
ATOM     70  O   UNL     1      82.252  70.596  50.088  0.00  0.00    +0.000 OA
ATOM     71  N   UNL     1      82.252  69.737  51.281  0.00  0.00    +0.000 NA
ATOM     72  C   UNL     1      82.252  61.667  57.323  0.00  0.00    +0.000 C 
ATOM     73  O   UNL     1      82.252  62.248  56.737  0.00  0.00    +0.000 OA
ATOM     74  N   UNL     1      82.252  61.884  58.119  0.00  0.00    +0.000 NA
ATOM     75  C   UNL     1      82.252  62.682  58.329  0.00  0.00    +0.000 C 
ATOM     76  C   UNL     1      82.252  63.263  57.743  0.00  0.00    +0.000 C 
ATOM     77  C   UNL     1      82.252  64.061  57.954  0.00  0.00    +0.000 C 
ATOM     78  C   UNL     1      82.252  64.641  57.367  0.00  0.00    +0.000 C 
ATOM     79  N   UNL     1      82.252  65.439  57.577  0.00  0.00    +0.000 NA
ATOM     80  C   UNL     1      82.252  66.020  56.992  0.00  0.00    +0.000 C 
ATOM     81  N   UNL     1      82.252  65.803  56.196  0.00  0.00    +0.000 NA
ATOM     82  N   UNL     1      82.252  66.818  57.203  0.00  0.00    +0.000 NA
ATOM     83  C   UNL     1      82.252  62.899  59.125  0.00  0.00    +0.000 C 
ATOM     84  O   UNL     1      82.252  63.697  59.335  0.00  0.00    +0.000 OA
ATOM     85  N   UNL     1      82.252  62.318  59.711  0.00  0.00    +0.000 N 
ATOM     86  C   UNL     1      82.252  61.502  59.585  0.00  0.00    +0.000 C 
ATOM     87  C   UNL     1      82.252  61.131  60.322  0.00  0.00    +0.000 C 
ATOM     88  C   UNL     1      82.252  61.717  60.903  0.00  0.00    +0.000 C 
ATOM     89  C   UNL     1      82.252  62.450  60.525  0.00  0.00    +0.000 C 
ATOM     90  C   UNL     1      82.252  63.186  60.897  0.00  0.00    +0.000 C 
ATOM     91  O   UNL     1      82.252  63.233  61.720  0.00  0.00    +0.000 OA
ATOM     92  N   UNL     1      82.252  63.877  60.444  0.00  0.00    +0.000 NA
ATOM     93  C   UNL     1      82.252  64.614  60.816  0.00  0.00    +0.000 C 
ATOM     94  C   UNL     1      82.252  65.303  60.364  0.00  0.00    +0.000 C 
ATOM     95  N   UNL     1      82.252  66.040  60.735  0.00  0.00    +0.000 NA
ATOM     96  O   UNL     1      82.252  65.257  59.539  0.00  0.00    +0.000 OA
ENDROOT
TORSDOF 0
ENDMDL
