MODEL 1
REMARK VINA RESULT:   -12.888      0.000      0.000
REMARK INTER + INTRA:         -12.888
REMARK INTER:                 -12.888
REMARK INTRA:                   0.000
REMARK UNBOUND:                 0.000
ROOT
REMARK  Name = naftifine
REMARK                            x       y       z     vdW  Elec       q    Type
REMARK                         _______ _______ _______ _____ _____    ______ ____
ATOM      1  C   UNL     1      60.915  61.865  68.528  0.00  0.00    +0.000 C 
ATOM      2  N   UNL     1      60.998  62.684  68.474  0.00  0.00    +0.000 NA
ATOM      3  C   UNL     1      61.231  63.029  67.763  0.00  0.00    +0.000 C 
ATOM      4  C   UNL     1      61.382  62.554  67.104  0.00  0.00    +0.000 C 
ATOM      5  C   UNL     1      61.616  62.899  66.392  0.00  0.00    +0.000 C 
ATOM      6  C   UNL     1      61.767  62.424  65.734  0.00  0.00    +0.000 A 
ATOM      7  C   UNL     1      62.001  62.769  65.022  0.00  0.00    +0.000 A 
ATOM      8  C   UNL     1      62.152  62.295  64.364  0.00  0.00    +0.000 A 
ATOM      9  C   UNL     1      62.069  61.477  64.418  0.00  0.00    +0.000 A 
ATOM     10  C   UNL     1      61.835  61.132  65.131  0.00  0.00    +0.000 A 
ATOM     11  C   UNL     1      61.684  61.606  65.788  0.00  0.00    +0.000 A 
ATOM     12  C   UNL     1      60.847  63.158  69.132  0.00  0.00    +0.000 C 
ATOM     13  C   UNL     1      60.613  62.813  69.845  0.00  0.00    +0.000 A 
ATOM     14  C   UNL     1      60.530  61.995  69.898  0.00  0.00    +0.000 A 
ATOM     15  C   UNL     1      60.296  61.649  70.611  0.00  0.00    +0.000 A 
ATOM     16  C   UNL     1      60.145  62.123  71.269  0.00  0.00    +0.000 A 
ATOM     17  C   UNL     1      60.228  62.942  71.215  0.00  0.00    +0.000 A 
ATOM     18  C   UNL     1      60.077  63.417  71.873  0.00  0.00    +0.000 A 
ATOM     19  C   UNL     1      60.160  64.235  71.819  0.00  0.00    +0.000 A 
ATOM     20  C   UNL     1      60.394  64.580  71.106  0.00  0.00    +0.000 A 
ATOM     21  C   UNL     1      60.545  64.106  70.448  0.00  0.00    +0.000 A 
ATOM     22  C   UNL     1      60.462  63.287  70.502  0.00  0.00    +0.000 A 
ENDROOT
TORSDOF 0
ENDMDL
MODEL 2
REMARK VINA RESULT:   -12.804      1.065      5.385
REMARK INTER + INTRA:         -12.804
REMARK INTER:                 -12.804
REMARK INTRA:                   0.000
REMARK UNBOUND:                 0.000
ROOT
REMARK  Name = naftifine
REMARK                            x       y       z     vdW  Elec       q    Type
REMARK                         _______ _______ _______ _____ _____    ______ ____
ATOM      1  C   UNL     1      60.032  62.522  68.167  0.00  0.00    +0.000 C 
ATOM      2  N   UNL     1      60.853  62.492  68.088  0.00  0.00    +0.000 NA
ATOM      3  C   UNL     1      61.337  62.672  68.730  0.00  0.00    +0.000 C 
ATOM      4  C   UNL     1      61.000  62.882  69.454  0.00  0.00    +0.000 C 
ATOM      5  C   UNL     1      61.483  63.063  70.098  0.00  0.00    +0.000 C 
ATOM      6  C   UNL     1      61.146  63.273  70.821  0.00  0.00    +0.000 A 
ATOM      7  C   UNL     1      61.630  63.454  71.465  0.00  0.00    +0.000 A 
ATOM      8  C   UNL     1      61.293  63.664  72.187  0.00  0.00    +0.000 A 
ATOM      9  C   UNL     1      60.473  63.694  72.267  0.00  0.00    +0.000 A 
ATOM     10  C   UNL     1      59.989  63.514  71.623  0.00  0.00    +0.000 A 
ATOM     11  C   UNL     1      60.326  63.303  70.900  0.00  0.00    +0.000 A 
ATOM     12  C   UNL     1      61.190  62.281  67.364  0.00  0.00    +0.000 C 
ATOM     13  C   UNL     1      60.706  62.101  66.721  0.00  0.00    +0.000 A 
ATOM     14  C   UNL     1      59.886  62.131  66.801  0.00  0.00    +0.000 A 
ATOM     15  C   UNL     1      59.402  61.950  66.156  0.00  0.00    +0.000 A 
ATOM     16  C   UNL     1      59.738  61.740  65.434  0.00  0.00    +0.000 A 
ATOM     17  C   UNL     1      60.558  61.710  65.354  0.00  0.00    +0.000 A 
ATOM     18  C   UNL     1      60.896  61.499  64.631  0.00  0.00    +0.000 A 
ATOM     19  C   UNL     1      61.716  61.469  64.552  0.00  0.00    +0.000 A 
ATOM     20  C   UNL     1      62.200  61.650  65.196  0.00  0.00    +0.000 A 
ATOM     21  C   UNL     1      61.863  61.860  65.918  0.00  0.00    +0.000 A 
ATOM     22  C   UNL     1      61.043  61.891  65.999  0.00  0.00    +0.000 A 
ENDROOT
TORSDOF 0
ENDMDL
MODEL 3
REMARK VINA RESULT:   -12.693      3.478      5.067
REMARK INTER + INTRA:         -12.693
REMARK INTER:                 -12.693
REMARK INTRA:                   0.000
REMARK UNBOUND:                 0.000
ROOT
REMARK  Name = naftifine
REMARK                            x       y       z     vdW  Elec       q    Type
REMARK                         _______ _______ _______ _____ _____    ______ ____
ATOM      1  C   UNL     1      62.908  64.713  71.574  0.00  0.00    +0.000 C 
ATOM      2  N   UNL     1      62.872  64.522  70.772  0.00  0.00    +0.000 NA
ATOM      3  C   UNL     1      63.356  64.915  70.233  0.00  0.00    +0.000 C 
ATOM      4  C   UNL     1      63.876  65.500  70.494  0.00  0.00    +0.000 C 
ATOM      5  C   UNL     1      64.360  65.894  69.954  0.00  0.00    +0.000 C 
ATOM      6  C   UNL     1      64.880  66.479  70.217  0.00  0.00    +0.000 A 
ATOM      7  C   UNL     1      65.364  66.873  69.676  0.00  0.00    +0.000 A 
ATOM      8  C   UNL     1      65.883  67.457  69.938  0.00  0.00    +0.000 A 
ATOM      9  C   UNL     1      65.920  67.648  70.739  0.00  0.00    +0.000 A 
ATOM     10  C   UNL     1      65.435  67.254  71.280  0.00  0.00    +0.000 A 
ATOM     11  C   UNL     1      64.916  66.670  71.018  0.00  0.00    +0.000 A 
ATOM     12  C   UNL     1      62.352  63.937  70.511  0.00  0.00    +0.000 C 
ATOM     13  C   UNL     1      61.869  63.544  71.051  0.00  0.00    +0.000 A 
ATOM     14  C   UNL     1      61.905  63.735  71.852  0.00  0.00    +0.000 A 
ATOM     15  C   UNL     1      61.420  63.340  72.393  0.00  0.00    +0.000 A 
ATOM     16  C   UNL     1      60.901  62.756  72.131  0.00  0.00    +0.000 A 
ATOM     17  C   UNL     1      60.865  62.565  71.330  0.00  0.00    +0.000 A 
ATOM     18  C   UNL     1      60.345  61.981  71.067  0.00  0.00    +0.000 A 
ATOM     19  C   UNL     1      60.309  61.790  70.266  0.00  0.00    +0.000 A 
ATOM     20  C   UNL     1      60.793  62.184  69.725  0.00  0.00    +0.000 A 
ATOM     21  C   UNL     1      61.312  62.768  69.987  0.00  0.00    +0.000 A 
ATOM     22  C   UNL     1      61.349  62.960  70.789  0.00  0.00    +0.000 A 
ENDROOT
TORSDOF 0
ENDMDL
MODEL 4
REMARK VINA RESULT:   -11.625      3.976      5.469
REMARK INTER + INTRA:         -11.625
REMARK INTER:                 -11.625
REMARK INTRA:                   0.000
REMARK UNBOUND:                 0.000
ROOT
REMARK  Name = naftifine
REMARK                            x       y       z     vdW  Elec       q    Type
REMARK                         _______ _______ _______ _____ _____    ______ ____
ATOM      1  C   UNL     1      63.010  65.481  70.216  0.00  0.00    +0.000 C 
ATOM      2  N   UNL     1      63.217  65.214  70.970  0.00  0.00    +0.000 NA
ATOM      3  C   UNL     1      63.922  65.462  71.316  0.00  0.00    +0.000 C 
ATOM      4  C   UNL     1      64.422  65.979  70.909  0.00  0.00    +0.000 C 
ATOM      5  C   UNL     1      65.128  66.228  71.256  0.00  0.00    +0.000 C 
ATOM      6  C   UNL     1      65.627  66.744  70.849  0.00  0.00    +0.000 A 
ATOM      7  C   UNL     1      66.334  66.993  71.196  0.00  0.00    +0.000 A 
ATOM      8  C   UNL     1      66.833  67.509  70.790  0.00  0.00    +0.000 A 
ATOM      9  C   UNL     1      66.627  67.776  70.038  0.00  0.00    +0.000 A 
ATOM     10  C   UNL     1      65.920  67.527  69.691  0.00  0.00    +0.000 A 
ATOM     11  C   UNL     1      65.421  67.011  70.097  0.00  0.00    +0.000 A 
ATOM     12  C   UNL     1      62.718  64.698  71.375  0.00  0.00    +0.000 C 
ATOM     13  C   UNL     1      62.011  64.449  71.029  0.00  0.00    +0.000 A 
ATOM     14  C   UNL     1      61.805  64.716  70.277  0.00  0.00    +0.000 A 
ATOM     15  C   UNL     1      61.098  64.467  69.930  0.00  0.00    +0.000 A 
ATOM     16  C   UNL     1      60.599  63.951  70.336  0.00  0.00    +0.000 A 
ATOM     17  C   UNL     1      60.806  63.684  71.088  0.00  0.00    +0.000 A 
ATOM     18  C   UNL     1      60.307  63.168  71.495  0.00  0.00    +0.000 A 
ATOM     19  C   UNL     1      60.513  62.901  72.247  0.00  0.00    +0.000 A 
ATOM     20  C   UNL     1      61.220  63.150  72.593  0.00  0.00    +0.000 A 
ATOM     21  C   UNL     1      61.719  63.666  72.187  0.00  0.00    +0.000 A 
ATOM     22  C   UNL     1      61.513  63.933  71.435  0.00  0.00    +0.000 A 
ENDROOT
TORSDOF 0
ENDMDL
MODEL 5
REMARK VINA RESULT:   -11.472      2.378      3.062
REMARK INTER + INTRA:         -11.472
REMARK INTER:                 -11.472
REMARK INTRA:                   0.000
REMARK UNBOUND:                 0.000
ROOT
REMARK  Name = naftifine
REMARK                            x       y       z     vdW  Elec       q    Type
REMARK                         _______ _______ _______ _____ _____    ______ ____
ATOM      1  C   UNL     1      61.187  64.012  69.222  0.00  0.00    +0.000 C 
ATOM      2  N   UNL     1      61.903  63.898  68.826  0.00  0.00    +0.000 NA
ATOM      3  C   UNL     1      61.918  63.493  68.109  0.00  0.00    +0.000 C 
ATOM      4  C   UNL     1      61.217  63.199  67.786  0.00  0.00    +0.000 C 
ATOM      5  C   UNL     1      61.233  62.793  67.068  0.00  0.00    +0.000 C 
ATOM      6  C   UNL     1      60.532  62.500  66.746  0.00  0.00    +0.000 A 
ATOM      7  C   UNL     1      60.547  62.093  66.027  0.00  0.00    +0.000 A 
ATOM      8  C   UNL     1      59.847  61.800  65.705  0.00  0.00    +0.000 A 
ATOM      9  C   UNL     1      59.132  61.913  66.099  0.00  0.00    +0.000 A 
ATOM     10  C   UNL     1      59.117  62.320  66.818  0.00  0.00    +0.000 A 
ATOM     11  C   UNL     1      59.817  62.613  67.140  0.00  0.00    +0.000 A 
ATOM     12  C   UNL     1      62.603  64.192  69.150  0.00  0.00    +0.000 C 
ATOM     13  C   UNL     1      62.588  64.598  69.868  0.00  0.00    +0.000 A 
ATOM     14  C   UNL     1      61.873  64.711  70.262  0.00  0.00    +0.000 A 
ATOM     15  C   UNL     1      61.858  65.118  70.981  0.00  0.00    +0.000 A 
ATOM     16  C   UNL     1      62.558  65.410  71.303  0.00  0.00    +0.000 A 
ATOM     17  C   UNL     1      63.273  65.298  70.909  0.00  0.00    +0.000 A 
ATOM     18  C   UNL     1      63.973  65.591  71.231  0.00  0.00    +0.000 A 
ATOM     19  C   UNL     1      64.688  65.478  70.837  0.00  0.00    +0.000 A 
ATOM     20  C   UNL     1      64.703  65.071  70.118  0.00  0.00    +0.000 A 
ATOM     21  C   UNL     1      64.004  64.778  69.795  0.00  0.00    +0.000 A 
ATOM     22  C   UNL     1      63.288  64.891  70.190  0.00  0.00    +0.000 A 
ENDROOT
TORSDOF 0
ENDMDL
MODEL 6
REMARK VINA RESULT:   -10.537      4.554      6.652
REMARK INTER + INTRA:         -10.537
REMARK INTER:                 -10.537
REMARK INTRA:                   0.000
REMARK UNBOUND:                 0.000
ROOT
REMARK  Name = naftifine
REMARK                            x       y       z     vdW  Elec       q    Type
REMARK                         _______ _______ _______ _____ _____    ______ ____
ATOM      1  C   UNL     1      61.795  65.214  71.485  0.00  0.00    +0.000 C 
ATOM      2  N   UNL     1      61.954  65.938  71.850  0.00  0.00    +0.000 NA
ATOM      3  C   UNL     1      61.359  66.332  72.260  0.00  0.00    +0.000 C 
ATOM      4  C   UNL     1      60.602  66.004  72.307  0.00  0.00    +0.000 C 
ATOM      5  C   UNL     1      60.006  66.399  72.718  0.00  0.00    +0.000 C 
ATOM      6  C   UNL     1      59.250  66.070  72.764  0.00  0.00    +0.000 A 
ATOM      7  C   UNL     1      58.653  66.466  73.175  0.00  0.00    +0.000 A 
ATOM      8  C   UNL     1      57.898  66.138  73.222  0.00  0.00    +0.000 A 
ATOM      9  C   UNL     1      57.739  65.416  72.858  0.00  0.00    +0.000 A 
ATOM     10  C   UNL     1      58.336  65.020  72.446  0.00  0.00    +0.000 A 
ATOM     11  C   UNL     1      59.091  65.348  72.400  0.00  0.00    +0.000 A 
ATOM     12  C   UNL     1      62.710  66.265  71.803  0.00  0.00    +0.000 C 
ATOM     13  C   UNL     1      63.307  65.870  71.392  0.00  0.00    +0.000 A 
ATOM     14  C   UNL     1      63.147  65.148  71.028  0.00  0.00    +0.000 A 
ATOM     15  C   UNL     1      63.745  64.752  70.617  0.00  0.00    +0.000 A 
ATOM     16  C   UNL     1      64.500  65.080  70.571  0.00  0.00    +0.000 A 
ATOM     17  C   UNL     1      64.659  65.802  70.935  0.00  0.00    +0.000 A 
ATOM     18  C   UNL     1      65.414  66.131  70.888  0.00  0.00    +0.000 A 
ATOM     19  C   UNL     1      65.574  66.853  71.253  0.00  0.00    +0.000 A 
ATOM     20  C   UNL     1      64.976  67.249  71.664  0.00  0.00    +0.000 A 
ATOM     21  C   UNL     1      64.221  66.921  71.710  0.00  0.00    +0.000 A 
ATOM     22  C   UNL     1      64.062  66.198  71.346  0.00  0.00    +0.000 A 
ENDROOT
TORSDOF 0
ENDMDL
