MODEL 1
REMARK VINA RESULT:    -8.892      0.000      0.000
REMARK INTER + INTRA:          -8.892
REMARK INTER:                  -8.892
REMARK INTRA:                   0.000
REMARK UNBOUND:                 0.000
ROOT
REMARK  Name = nalidixic acid
REMARK                            x       y       z     vdW  Elec       q    Type
REMARK                         _______ _______ _______ _____ _____    ______ ____
ATOM      1  C   UNL     1      59.053  62.048  66.507  0.00  0.00    +0.000 C 
ATOM      2  C   UNL     1      59.417  61.792  65.813  0.00  0.00    +0.000 C 
ATOM      3  N   UNL     1      60.221  61.933  65.693  0.00  0.00    +0.000 N 
ATOM      4  C   UNL     1      60.585  61.677  64.999  0.00  0.00    +0.000 A 
ATOM      5  C   UNL     1      61.390  61.818  64.879  0.00  0.00    +0.000 A 
ATOM      6  C   UNL     1      61.754  61.562  64.184  0.00  0.00    +0.000 C 
ATOM      7  O   UNL     1      61.315  61.165  63.609  0.00  0.00    +0.000 OA
ATOM      8  O   UNL     1      62.558  61.702  64.064  0.00  0.00    +0.000 OA
ATOM      9  C   UNL     1      61.829  62.214  65.453  0.00  0.00    +0.000 A 
ATOM     10  O   UNL     1      62.633  62.355  65.333  0.00  0.00    +0.000 OA
ATOM     11  C   UNL     1      61.466  62.470  66.147  0.00  0.00    +0.000 A 
ATOM     12  C   UNL     1      61.905  62.867  66.722  0.00  0.00    +0.000 A 
ATOM     13  C   UNL     1      61.541  63.122  67.416  0.00  0.00    +0.000 A 
ATOM     14  C   UNL     1      60.736  62.981  67.536  0.00  0.00    +0.000 A 
ATOM     15  C   UNL     1      60.372  63.238  68.231  0.00  0.00    +0.000 C 
ATOM     16  N   UNL     1      60.297  62.585  66.962  0.00  0.00    +0.000 NA
ATOM     17  C   UNL     1      60.661  62.329  66.267  0.00  0.00    +0.000 A 
ENDROOT
TORSDOF 0
ENDMDL
MODEL 2
REMARK VINA RESULT:    -8.605      1.864      3.321
REMARK INTER + INTRA:          -8.605
REMARK INTER:                  -8.605
REMARK INTRA:                   0.000
REMARK UNBOUND:                 0.000
ROOT
REMARK  Name = nalidixic acid
REMARK                            x       y       z     vdW  Elec       q    Type
REMARK                         _______ _______ _______ _____ _____    ______ ____
ATOM      1  C   UNL     1      62.537  62.017  64.927  0.00  0.00    +0.000 C 
ATOM      2  C   UNL     1      62.482  62.434  65.637  0.00  0.00    +0.000 C 
ATOM      3  N   UNL     1      61.766  62.460  66.046  0.00  0.00    +0.000 N 
ATOM      4  C   UNL     1      61.711  62.877  66.755  0.00  0.00    +0.000 A 
ATOM      5  C   UNL     1      60.995  62.903  67.164  0.00  0.00    +0.000 A 
ATOM      6  C   UNL     1      60.941  63.321  67.874  0.00  0.00    +0.000 C 
ATOM      7  O   UNL     1      61.602  63.713  68.175  0.00  0.00    +0.000 OA
ATOM      8  O   UNL     1      60.225  63.347  68.283  0.00  0.00    +0.000 OA
ATOM      9  C   UNL     1      60.334  62.512  66.864  0.00  0.00    +0.000 A 
ATOM     10  O   UNL     1      59.618  62.539  67.273  0.00  0.00    +0.000 OA
ATOM     11  C   UNL     1      60.388  62.095  66.155  0.00  0.00    +0.000 A 
ATOM     12  C   UNL     1      59.727  61.704  65.854  0.00  0.00    +0.000 A 
ATOM     13  C   UNL     1      59.782  61.287  65.145  0.00  0.00    +0.000 A 
ATOM     14  C   UNL     1      60.499  61.261  64.735  0.00  0.00    +0.000 A 
ATOM     15  C   UNL     1      60.553  60.843  64.025  0.00  0.00    +0.000 C 
ATOM     16  N   UNL     1      61.159  61.652  65.036  0.00  0.00    +0.000 NA
ATOM     17  C   UNL     1      61.105  62.069  65.745  0.00  0.00    +0.000 A 
ENDROOT
TORSDOF 0
ENDMDL
MODEL 3
REMARK VINA RESULT:    -8.408      2.594      3.960
REMARK INTER + INTRA:          -8.408
REMARK INTER:                  -8.408
REMARK INTRA:                   0.000
REMARK UNBOUND:                 0.000
ROOT
REMARK  Name = nalidixic acid
REMARK                            x       y       z     vdW  Elec       q    Type
REMARK                         _______ _______ _______ _____ _____    ______ ____
ATOM      1  C   UNL     1      62.343  64.144  70.287  0.00  0.00    +0.000 C 
ATOM      2  C   UNL     1      62.166  64.073  69.484  0.00  0.00    +0.000 C 
ATOM      3  N   UNL     1      61.650  63.484  69.225  0.00  0.00    +0.000 N 
ATOM      4  C   UNL     1      61.474  63.414  68.423  0.00  0.00    +0.000 A 
ATOM      5  C   UNL     1      60.958  62.824  68.163  0.00  0.00    +0.000 A 
ATOM      6  C   UNL     1      60.782  62.755  67.360  0.00  0.00    +0.000 C 
ATOM      7  O   UNL     1      61.120  63.274  66.816  0.00  0.00    +0.000 OA
ATOM      8  O   UNL     1      60.266  62.165  67.101  0.00  0.00    +0.000 OA
ATOM      9  C   UNL     1      60.619  62.304  68.706  0.00  0.00    +0.000 A 
ATOM     10  O   UNL     1      60.104  61.715  68.447  0.00  0.00    +0.000 OA
ATOM     11  C   UNL     1      60.796  62.374  69.509  0.00  0.00    +0.000 A 
ATOM     12  C   UNL     1      60.457  61.854  70.053  0.00  0.00    +0.000 A 
ATOM     13  C   UNL     1      60.634  61.924  70.855  0.00  0.00    +0.000 A 
ATOM     14  C   UNL     1      61.150  62.514  71.115  0.00  0.00    +0.000 A 
ATOM     15  C   UNL     1      61.326  62.583  71.918  0.00  0.00    +0.000 C 
ATOM     16  N   UNL     1      61.488  63.033  70.571  0.00  0.00    +0.000 NA
ATOM     17  C   UNL     1      61.312  62.964  69.768  0.00  0.00    +0.000 A 
ENDROOT
TORSDOF 0
ENDMDL
MODEL 4
REMARK VINA RESULT:    -7.891      4.639      5.984
REMARK INTER + INTRA:          -7.891
REMARK INTER:                  -7.891
REMARK INTRA:                   0.000
REMARK UNBOUND:                 0.000
ROOT
REMARK  Name = nalidixic acid
REMARK                            x       y       z     vdW  Elec       q    Type
REMARK                         _______ _______ _______ _____ _____    ______ ____
ATOM      1  C   UNL     1      60.534  63.429  68.797  0.00  0.00    +0.000 C 
ATOM      2  C   UNL     1      60.284  64.196  68.969  0.00  0.00    +0.000 C 
ATOM      3  N   UNL     1      60.088  64.403  69.743  0.00  0.00    +0.000 N 
ATOM      4  C   UNL     1      59.837  65.170  69.914  0.00  0.00    +0.000 A 
ATOM      5  C   UNL     1      59.641  65.378  70.689  0.00  0.00    +0.000 A 
ATOM      6  C   UNL     1      59.390  66.145  70.859  0.00  0.00    +0.000 C 
ATOM      7  O   UNL     1      59.335  66.706  70.256  0.00  0.00    +0.000 OA
ATOM      8  O   UNL     1      59.194  66.352  71.633  0.00  0.00    +0.000 OA
ATOM      9  C   UNL     1      59.696  64.818  71.291  0.00  0.00    +0.000 A 
ATOM     10  O   UNL     1      59.500  65.025  72.065  0.00  0.00    +0.000 OA
ATOM     11  C   UNL     1      59.946  64.051  71.121  0.00  0.00    +0.000 A 
ATOM     12  C   UNL     1      60.001  63.490  71.724  0.00  0.00    +0.000 A 
ATOM     13  C   UNL     1      60.251  62.724  71.553  0.00  0.00    +0.000 A 
ATOM     14  C   UNL     1      60.448  62.516  70.778  0.00  0.00    +0.000 A 
ATOM     15  C   UNL     1      60.698  61.749  70.608  0.00  0.00    +0.000 C 
ATOM     16  N   UNL     1      60.393  63.076  70.176  0.00  0.00    +0.000 NA
ATOM     17  C   UNL     1      60.142  63.844  70.346  0.00  0.00    +0.000 A 
ENDROOT
TORSDOF 0
ENDMDL
MODEL 5
REMARK VINA RESULT:    -7.832      6.348      7.652
REMARK INTER + INTRA:          -7.832
REMARK INTER:                  -7.832
REMARK INTRA:                   0.000
REMARK UNBOUND:                 0.000
ROOT
REMARK  Name = nalidixic acid
REMARK                            x       y       z     vdW  Elec       q    Type
REMARK                         _______ _______ _______ _____ _____    ______ ____
ATOM      1  C   UNL     1      64.702  65.289  69.429  0.00  0.00    +0.000 C 
ATOM      2  C   UNL     1      64.069  65.018  69.883  0.00  0.00    +0.000 C 
ATOM      3  N   UNL     1      63.862  65.409  70.579  0.00  0.00    +0.000 N 
ATOM      4  C   UNL     1      63.229  65.138  71.032  0.00  0.00    +0.000 A 
ATOM      5  C   UNL     1      63.022  65.529  71.729  0.00  0.00    +0.000 A 
ATOM      6  C   UNL     1      62.388  65.257  72.182  0.00  0.00    +0.000 C 
ATOM      7  O   UNL     1      61.961  64.594  71.939  0.00  0.00    +0.000 OA
ATOM      8  O   UNL     1      62.181  65.648  72.878  0.00  0.00    +0.000 OA
ATOM      9  C   UNL     1      63.448  66.192  71.971  0.00  0.00    +0.000 A 
ATOM     10  O   UNL     1      63.241  66.583  72.668  0.00  0.00    +0.000 OA
ATOM     11  C   UNL     1      64.081  66.463  71.518  0.00  0.00    +0.000 A 
ATOM     12  C   UNL     1      64.508  67.127  71.761  0.00  0.00    +0.000 A 
ATOM     13  C   UNL     1      65.141  67.398  71.308  0.00  0.00    +0.000 A 
ATOM     14  C   UNL     1      65.348  67.006  70.611  0.00  0.00    +0.000 A 
ATOM     15  C   UNL     1      65.982  67.279  70.158  0.00  0.00    +0.000 C 
ATOM     16  N   UNL     1      64.922  66.344  70.368  0.00  0.00    +0.000 NA
ATOM     17  C   UNL     1      64.288  66.072  70.821  0.00  0.00    +0.000 A 
ENDROOT
TORSDOF 0
ENDMDL
MODEL 6
REMARK VINA RESULT:    -7.681      6.244      7.268
REMARK INTER + INTRA:          -7.681
REMARK INTER:                  -7.681
REMARK INTRA:                   0.000
REMARK UNBOUND:                 0.000
ROOT
REMARK  Name = nalidixic acid
REMARK                            x       y       z     vdW  Elec       q    Type
REMARK                         _______ _______ _______ _____ _____    ______ ____
ATOM      1  C   UNL     1      62.980  63.886  70.460  0.00  0.00    +0.000 C 
ATOM      2  C   UNL     1      62.916  64.668  70.713  0.00  0.00    +0.000 C 
ATOM      3  N   UNL     1      62.401  64.862  71.329  0.00  0.00    +0.000 N 
ATOM      4  C   UNL     1      62.337  65.644  71.581  0.00  0.00    +0.000 A 
ATOM      5  C   UNL     1      61.823  65.837  72.198  0.00  0.00    +0.000 A 
ATOM      6  C   UNL     1      61.759  66.620  72.450  0.00  0.00    +0.000 C 
ATOM      7  O   UNL     1      62.208  67.210  72.088  0.00  0.00    +0.000 OA
ATOM      8  O   UNL     1      61.245  66.814  73.066  0.00  0.00    +0.000 OA
ATOM      9  C   UNL     1      61.373  65.249  72.560  0.00  0.00    +0.000 A 
ATOM     10  O   UNL     1      60.859  65.442  73.175  0.00  0.00    +0.000 OA
ATOM     11  C   UNL     1      61.437  64.467  72.307  0.00  0.00    +0.000 A 
ATOM     12  C   UNL     1      60.988  63.877  72.669  0.00  0.00    +0.000 A 
ATOM     13  C   UNL     1      61.052  63.095  72.416  0.00  0.00    +0.000 A 
ATOM     14  C   UNL     1      61.567  62.901  71.800  0.00  0.00    +0.000 A 
ATOM     15  C   UNL     1      61.630  62.118  71.547  0.00  0.00    +0.000 C 
ATOM     16  N   UNL     1      62.016  63.490  71.438  0.00  0.00    +0.000 NA
ATOM     17  C   UNL     1      61.952  64.273  71.691  0.00  0.00    +0.000 A 
ENDROOT
TORSDOF 0
ENDMDL
MODEL 7
REMARK VINA RESULT:    -7.669      4.234      5.534
REMARK INTER + INTRA:          -7.669
REMARK INTER:                  -7.669
REMARK INTRA:                   0.000
REMARK UNBOUND:                 0.000
ROOT
REMARK  Name = nalidixic acid
REMARK                            x       y       z     vdW  Elec       q    Type
REMARK                         _______ _______ _______ _____ _____    ______ ____
ATOM      1  C   UNL     1      61.265  62.870  72.503  0.00  0.00    +0.000 C 
ATOM      2  C   UNL     1      61.791  63.469  72.291  0.00  0.00    +0.000 C 
ATOM      3  N   UNL     1      61.930  63.635  71.495  0.00  0.00    +0.000 N 
ATOM      4  C   UNL     1      62.456  64.234  71.285  0.00  0.00    +0.000 A 
ATOM      5  C   UNL     1      62.595  64.401  70.488  0.00  0.00    +0.000 A 
ATOM      6  C   UNL     1      63.122  65.000  70.278  0.00  0.00    +0.000 C 
ATOM      7  O   UNL     1      63.510  65.433  70.863  0.00  0.00    +0.000 OA
ATOM      8  O   UNL     1      63.260  65.166  69.482  0.00  0.00    +0.000 OA
ATOM      9  C   UNL     1      62.207  63.968  69.903  0.00  0.00    +0.000 A 
ATOM     10  O   UNL     1      62.345  64.135  69.107  0.00  0.00    +0.000 OA
ATOM     11  C   UNL     1      61.681  63.370  70.113  0.00  0.00    +0.000 A 
ATOM     12  C   UNL     1      61.292  62.936  69.528  0.00  0.00    +0.000 A 
ATOM     13  C   UNL     1      60.766  62.338  69.738  0.00  0.00    +0.000 A 
ATOM     14  C   UNL     1      60.627  62.171  70.536  0.00  0.00    +0.000 A 
ATOM     15  C   UNL     1      60.100  61.572  70.745  0.00  0.00    +0.000 C 
ATOM     16  N   UNL     1      61.015  62.604  71.120  0.00  0.00    +0.000 NA
ATOM     17  C   UNL     1      61.542  63.203  70.910  0.00  0.00    +0.000 A 
ENDROOT
TORSDOF 0
ENDMDL
MODEL 8
REMARK VINA RESULT:    -7.654      5.753      6.602
REMARK INTER + INTRA:          -7.654
REMARK INTER:                  -7.654
REMARK INTRA:                   0.000
REMARK UNBOUND:                 0.000
ROOT
REMARK  Name = nalidixic acid
REMARK                            x       y       z     vdW  Elec       q    Type
REMARK                         _______ _______ _______ _____ _____    ______ ____
ATOM      1  C   UNL     1      62.415  66.131  72.789  0.00  0.00    +0.000 C 
ATOM      2  C   UNL     1      62.998  66.321  72.237  0.00  0.00    +0.000 C 
ATOM      3  N   UNL     1      63.175  65.797  71.625  0.00  0.00    +0.000 N 
ATOM      4  C   UNL     1      63.757  65.989  71.074  0.00  0.00    +0.000 A 
ATOM      5  C   UNL     1      63.934  65.464  70.461  0.00  0.00    +0.000 A 
ATOM      6  C   UNL     1      64.517  65.656  69.909  0.00  0.00    +0.000 C 
ATOM      7  O   UNL     1      64.924  66.371  69.969  0.00  0.00    +0.000 OA
ATOM      8  O   UNL     1      64.693  65.132  69.297  0.00  0.00    +0.000 OA
ATOM      9  C   UNL     1      63.528  64.749  70.401  0.00  0.00    +0.000 A 
ATOM     10  O   UNL     1      63.704  64.225  69.788  0.00  0.00    +0.000 OA
ATOM     11  C   UNL     1      62.945  64.558  70.952  0.00  0.00    +0.000 A 
ATOM     12  C   UNL     1      62.539  63.842  70.892  0.00  0.00    +0.000 A 
ATOM     13  C   UNL     1      61.956  63.651  71.443  0.00  0.00    +0.000 A 
ATOM     14  C   UNL     1      61.780  64.175  72.056  0.00  0.00    +0.000 A 
ATOM     15  C   UNL     1      61.196  63.983  72.607  0.00  0.00    +0.000 C 
ATOM     16  N   UNL     1      62.186  64.890  72.116  0.00  0.00    +0.000 NA
ATOM     17  C   UNL     1      62.769  65.082  71.565  0.00  0.00    +0.000 A 
ENDROOT
TORSDOF 0
ENDMDL
MODEL 9
REMARK VINA RESULT:    -7.631      4.998      5.973
REMARK INTER + INTRA:          -7.631
REMARK INTER:                  -7.631
REMARK INTRA:                   0.000
REMARK UNBOUND:                 0.000
ROOT
REMARK  Name = nalidixic acid
REMARK                            x       y       z     vdW  Elec       q    Type
REMARK                         _______ _______ _______ _____ _____    ______ ____
ATOM      1  C   UNL     1      59.949  65.394  70.760  0.00  0.00    +0.000 C 
ATOM      2  C   UNL     1      59.923  64.624  70.465  0.00  0.00    +0.000 C 
ATOM      3  N   UNL     1      60.321  64.017  70.857  0.00  0.00    +0.000 N 
ATOM      4  C   UNL     1      60.295  63.248  70.561  0.00  0.00    +0.000 A 
ATOM      5  C   UNL     1      60.693  62.641  70.954  0.00  0.00    +0.000 A 
ATOM      6  C   UNL     1      60.666  61.871  70.657  0.00  0.00    +0.000 C 
ATOM      7  O   UNL     1      60.242  61.708  69.969  0.00  0.00    +0.000 OA
ATOM      8  O   UNL     1      61.064  61.264  71.050  0.00  0.00    +0.000 OA
ATOM      9  C   UNL     1      61.117  62.804  71.642  0.00  0.00    +0.000 A 
ATOM     10  O   UNL     1      61.515  62.197  72.034  0.00  0.00    +0.000 OA
ATOM     11  C   UNL     1      61.144  63.572  71.938  0.00  0.00    +0.000 A 
ATOM     12  C   UNL     1      61.568  63.736  72.627  0.00  0.00    +0.000 A 
ATOM     13  C   UNL     1      61.594  64.505  72.923  0.00  0.00    +0.000 A 
ATOM     14  C   UNL     1      61.196  65.112  72.530  0.00  0.00    +0.000 A 
ATOM     15  C   UNL     1      61.223  65.882  72.827  0.00  0.00    +0.000 C 
ATOM     16  N   UNL     1      60.772  64.950  71.842  0.00  0.00    +0.000 NA
ATOM     17  C   UNL     1      60.745  64.180  71.545  0.00  0.00    +0.000 A 
ENDROOT
TORSDOF 0
ENDMDL
