MODEL 1
REMARK VINA RESULT:   -11.896      0.000      0.000
REMARK INTER + INTRA:         -11.896
REMARK INTER:                 -11.896
REMARK INTRA:                   0.000
REMARK UNBOUND:                 0.000
ROOT
REMARK  Name = naltrexone
REMARK                            x       y       z     vdW  Elec       q    Type
REMARK                         _______ _______ _______ _____ _____    ______ ____
ATOM      1  O   UNL     1      61.441  62.908  72.737  0.00  0.00    +0.000 OA
ATOM      2  C   UNL     1      61.238  62.675  71.972  0.00  0.00    +0.000 A 
ATOM      3  C   UNL     1      60.965  63.266  71.419  0.00  0.00    +0.000 A 
ATOM      4  O   UNL     1      60.809  64.088  71.357  0.00  0.00    +0.000 OA
ATOM      5  C   UNL     1      60.536  64.284  70.594  0.00  0.00    +0.000 C 
ATOM      6  C   UNL     1      60.305  65.016  70.249  0.00  0.00    +0.000 C 
ATOM      7  O   UNL     1      60.336  65.701  70.709  0.00  0.00    +0.000 OA
ATOM      8  C   UNL     1      60.051  65.069  69.472  0.00  0.00    +0.000 C 
ATOM      9  C   UNL     1      60.044  64.367  69.079  0.00  0.00    +0.000 C 
ATOM     10  C   UNL     1      60.321  63.530  69.517  0.00  0.00    +0.000 C 
ATOM     11  O   UNL     1      60.094  63.412  68.734  0.00  0.00    +0.000 OA
ATOM     12  C   UNL     1      60.393  62.588  69.248  0.00  0.00    +0.000 C 
ATOM     13  C   UNL     1      60.645  61.968  69.719  0.00  0.00    +0.000 C 
ATOM     14  C   UNL     1      60.840  62.207  70.464  0.00  0.00    +0.000 A 
ATOM     15  C   UNL     1      61.105  61.629  70.997  0.00  0.00    +0.000 A 
ATOM     16  C   UNL     1      61.306  61.868  71.762  0.00  0.00    +0.000 A 
ATOM     17  C   UNL     1      60.770  63.010  70.664  0.00  0.00    +0.000 A 
ATOM     18  C   UNL     1      60.486  63.600  70.076  0.00  0.00    +0.000 C 
ATOM     19  C   UNL     1      60.144  63.873  69.137  0.00  0.00    +0.000 C 
ATOM     20  C   UNL     1      59.977  63.429  68.374  0.00  0.00    +0.000 C 
ATOM     21  N   UNL     1      60.145  62.637  68.487  0.00  0.00    +0.000 NA
ATOM     22  C   UNL     1      60.074  62.024  67.940  0.00  0.00    +0.000 C 
ATOM     23  C   UNL     1      59.807  62.182  67.176  0.00  0.00    +0.000 C 
ATOM     24  C   UNL     1      59.539  62.719  66.609  0.00  0.00    +0.000 C 
ATOM     25  C   UNL     1      59.612  61.918  66.418  0.00  0.00    +0.000 C 
ENDROOT
TORSDOF 0
ENDMDL
MODEL 2
REMARK VINA RESULT:   -11.849      0.977      3.383
REMARK INTER + INTRA:         -11.849
REMARK INTER:                 -11.849
REMARK INTRA:                   0.000
REMARK UNBOUND:                 0.000
ROOT
REMARK  Name = naltrexone
REMARK                            x       y       z     vdW  Elec       q    Type
REMARK                         _______ _______ _______ _____ _____    ______ ____
ATOM      1  O   UNL     1      59.812  62.959  66.851  0.00  0.00    +0.000 OA
ATOM      2  C   UNL     1      60.089  62.772  67.605  0.00  0.00    +0.000 A 
ATOM      3  C   UNL     1      60.061  63.370  68.215  0.00  0.00    +0.000 A 
ATOM      4  O   UNL     1      59.831  64.166  68.347  0.00  0.00    +0.000 OA
ATOM      5  C   UNL     1      59.979  64.392  69.136  0.00  0.00    +0.000 C 
ATOM      6  C   UNL     1      59.853  65.116  69.547  0.00  0.00    +0.000 C 
ATOM      7  O   UNL     1      59.523  65.754  69.140  0.00  0.00    +0.000 OA
ATOM      8  C   UNL     1      60.047  65.206  70.338  0.00  0.00    +0.000 C 
ATOM      9  C   UNL     1      60.364  64.548  70.676  0.00  0.00    +0.000 C 
ATOM     10  C   UNL     1      60.497  63.719  70.161  0.00  0.00    +0.000 C 
ATOM     11  O   UNL     1      60.744  63.644  70.944  0.00  0.00    +0.000 OA
ATOM     12  C   UNL     1      60.852  62.824  70.354  0.00  0.00    +0.000 C 
ATOM     13  C   UNL     1      60.911  62.202  69.825  0.00  0.00    +0.000 C 
ATOM     14  C   UNL     1      60.638  62.396  69.091  0.00  0.00    +0.000 A 
ATOM     15  C   UNL     1      60.667  61.812  68.503  0.00  0.00    +0.000 A 
ATOM     16  C   UNL     1      60.388  62.004  67.749  0.00  0.00    +0.000 A 
ATOM     17  C   UNL     1      60.342  63.161  68.957  0.00  0.00    +0.000 A 
ATOM     18  C   UNL     1      60.325  63.758  69.602  0.00  0.00    +0.000 C 
ATOM     19  C   UNL     1      60.497  64.068  70.575  0.00  0.00    +0.000 C 
ATOM     20  C   UNL     1      60.837  63.678  71.309  0.00  0.00    +0.000 C 
ATOM     21  N   UNL     1      61.044  62.909  71.128  0.00  0.00    +0.000 NA
ATOM     22  C   UNL     1      61.376  62.345  71.630  0.00  0.00    +0.000 C 
ATOM     23  C   UNL     1      61.535  62.535  72.416  0.00  0.00    +0.000 C 
ATOM     24  C   UNL     1      61.527  63.081  73.035  0.00  0.00    +0.000 C 
ATOM     25  C   UNL     1      61.819  62.318  73.160  0.00  0.00    +0.000 C 
ENDROOT
TORSDOF 0
ENDMDL
MODEL 3
REMARK VINA RESULT:   -11.837      1.855      3.322
REMARK INTER + INTRA:         -11.837
REMARK INTER:                 -11.837
REMARK INTRA:                   0.000
REMARK UNBOUND:                 0.000
ROOT
REMARK  Name = naltrexone
REMARK                            x       y       z     vdW  Elec       q    Type
REMARK                         _______ _______ _______ _____ _____    ______ ____
ATOM      1  O   UNL     1      58.673  67.613  72.631  0.00  0.00    +0.000 OA
ATOM      2  C   UNL     1      58.901  66.828  72.513  0.00  0.00    +0.000 A 
ATOM      3  C   UNL     1      59.116  66.574  71.727  0.00  0.00    +0.000 A 
ATOM      4  O   UNL     1      59.191  66.857  70.940  0.00  0.00    +0.000 OA
ATOM      5  C   UNL     1      59.447  66.251  70.428  0.00  0.00    +0.000 C 
ATOM      6  C   UNL     1      59.605  66.242  69.602  0.00  0.00    +0.000 C 
ATOM      7  O   UNL     1      59.504  66.937  69.168  0.00  0.00    +0.000 OA
ATOM      8  C   UNL     1      59.856  65.564  69.214  0.00  0.00    +0.000 C 
ATOM      9  C   UNL     1      59.935  64.922  69.693  0.00  0.00    +0.000 C 
ATOM     10  C   UNL     1      59.739  64.972  70.657  0.00  0.00    +0.000 C 
ATOM     11  O   UNL     1      59.981  64.218  70.425  0.00  0.00    +0.000 OA
ATOM     12  C   UNL     1      59.763  64.342  71.410  0.00  0.00    +0.000 C 
ATOM     13  C   UNL     1      59.571  64.510  72.188  0.00  0.00    +0.000 C 
ATOM     14  C   UNL     1      59.350  65.279  72.290  0.00  0.00    +0.000 A 
ATOM     15  C   UNL     1      59.142  65.521  73.056  0.00  0.00    +0.000 A 
ATOM     16  C   UNL     1      58.914  66.307  73.168  0.00  0.00    +0.000 A 
ATOM     17  C   UNL     1      59.340  65.790  71.635  0.00  0.00    +0.000 A 
ATOM     18  C   UNL     1      59.566  65.503  70.835  0.00  0.00    +0.000 C 
ATOM     19  C   UNL     1      59.883  64.771  70.175  0.00  0.00    +0.000 C 
ATOM     20  C   UNL     1      60.097  63.902  70.253  0.00  0.00    +0.000 C 
ATOM     21  N   UNL     1      60.008  63.678  71.034  0.00  0.00    +0.000 NA
ATOM     22  C   UNL     1      60.142  62.933  71.363  0.00  0.00    +0.000 C 
ATOM     23  C   UNL     1      60.396  62.311  70.885  0.00  0.00    +0.000 C 
ATOM     24  C   UNL     1      60.612  62.022  70.142  0.00  0.00    +0.000 C 
ATOM     25  C   UNL     1      60.619  61.521  70.799  0.00  0.00    +0.000 C 
ENDROOT
TORSDOF 0
ENDMDL
MODEL 4
REMARK VINA RESULT:   -11.758      1.351      2.250
REMARK INTER + INTRA:         -11.758
REMARK INTER:                 -11.758
REMARK INTRA:                   0.000
REMARK UNBOUND:                 0.000
ROOT
REMARK  Name = naltrexone
REMARK                            x       y       z     vdW  Elec       q    Type
REMARK                         _______ _______ _______ _____ _____    ______ ____
ATOM      1  O   UNL     1      63.181  64.686  71.268  0.00  0.00    +0.000 OA
ATOM      2  C   UNL     1      62.771  64.482  70.581  0.00  0.00    +0.000 A 
ATOM      3  C   UNL     1      62.243  63.812  70.598  0.00  0.00    +0.000 A 
ATOM      4  O   UNL     1      61.952  63.215  71.112  0.00  0.00    +0.000 OA
ATOM      5  C   UNL     1      61.413  62.717  70.716  0.00  0.00    +0.000 C 
ATOM      6  C   UNL     1      60.972  62.048  70.973  0.00  0.00    +0.000 C 
ATOM      7  O   UNL     1      61.051  61.794  71.754  0.00  0.00    +0.000 OA
ATOM      8  C   UNL     1      60.467  61.641  70.471  0.00  0.00    +0.000 C 
ATOM      9  C   UNL     1      60.436  61.939  69.725  0.00  0.00    +0.000 C 
ATOM     10  C   UNL     1      60.967  62.725  69.461  0.00  0.00    +0.000 C 
ATOM     11  O   UNL     1      60.511  62.434  68.839  0.00  0.00    +0.000 OA
ATOM     12  C   UNL     1      61.086  63.247  68.638  0.00  0.00    +0.000 C 
ATOM     13  C   UNL     1      61.572  63.899  68.544  0.00  0.00    +0.000 C 
ATOM     14  C   UNL     1      61.967  64.088  69.221  0.00  0.00    +0.000 A 
ATOM     15  C   UNL     1      62.479  64.740  69.198  0.00  0.00    +0.000 A 
ATOM     16  C   UNL     1      62.886  64.940  69.889  0.00  0.00    +0.000 A 
ATOM     17  C   UNL     1      61.847  63.629  69.903  0.00  0.00    +0.000 A 
ATOM     18  C   UNL     1      61.297  62.943  69.895  0.00  0.00    +0.000 C 
ATOM     19  C   UNL     1      60.623  62.308  69.430  0.00  0.00    +0.000 C 
ATOM     20  C   UNL     1      60.280  62.251  68.602  0.00  0.00    +0.000 C 
ATOM     21  N   UNL     1      60.593  62.851  68.144  0.00  0.00    +0.000 NA
ATOM     22  C   UNL     1      60.437  63.014  67.351  0.00  0.00    +0.000 C 
ATOM     23  C   UNL     1      59.909  62.541  66.930  0.00  0.00    +0.000 C 
ATOM     24  C   UNL     1      59.388  61.901  66.901  0.00  0.00    +0.000 C 
ATOM     25  C   UNL     1      59.513  62.363  66.227  0.00  0.00    +0.000 C 
ENDROOT
TORSDOF 0
ENDMDL
MODEL 5
REMARK VINA RESULT:   -11.654      2.804      3.820
REMARK INTER + INTRA:         -11.654
REMARK INTER:                 -11.654
REMARK INTRA:                   0.000
REMARK UNBOUND:                 0.000
ROOT
REMARK  Name = naltrexone
REMARK                            x       y       z     vdW  Elec       q    Type
REMARK                         _______ _______ _______ _____ _____    ______ ____
ATOM      1  O   UNL     1      65.017  66.650  70.633  0.00  0.00    +0.000 OA
ATOM      2  C   UNL     1      64.509  66.006  70.535  0.00  0.00    +0.000 A 
ATOM      3  C   UNL     1      63.878  65.889  71.099  0.00  0.00    +0.000 A 
ATOM      4  O   UNL     1      63.544  66.221  71.793  0.00  0.00    +0.000 OA
ATOM      5  C   UNL     1      62.890  65.775  72.053  0.00  0.00    +0.000 C 
ATOM      6  C   UNL     1      62.370  65.868  72.708  0.00  0.00    +0.000 C 
ATOM      7  O   UNL     1      62.484  66.503  73.222  0.00  0.00    +0.000 OA
ATOM      8  C   UNL     1      61.753  65.347  72.850  0.00  0.00    +0.000 C 
ATOM      9  C   UNL     1      61.695  64.750  72.314  0.00  0.00    +0.000 C 
ATOM     10  C   UNL     1      62.324  64.675  71.559  0.00  0.00    +0.000 C 
ATOM     11  O   UNL     1      61.762  64.071  71.559  0.00  0.00    +0.000 OA
ATOM     12  C   UNL     1      62.444  64.056  70.807  0.00  0.00    +0.000 C 
ATOM     13  C   UNL     1      63.023  64.102  70.229  0.00  0.00    +0.000 C 
ATOM     14  C   UNL     1      63.512  64.734  70.335  0.00  0.00    +0.000 A 
ATOM     15  C   UNL     1      64.123  64.844  69.785  0.00  0.00    +0.000 A 
ATOM     16  C   UNL     1      64.629  65.490  69.887  0.00  0.00    +0.000 A 
ATOM     17  C   UNL     1      63.387  65.242  70.980  0.00  0.00    +0.000 A 
ATOM     18  C   UNL     1      62.729  65.099  71.547  0.00  0.00    +0.000 C 
ATOM     19  C   UNL     1      61.912  64.565  71.893  0.00  0.00    +0.000 C 
ATOM     20  C   UNL     1      61.480  63.827  71.619  0.00  0.00    +0.000 C 
ATOM     21  N   UNL     1      61.842  63.544  70.943  0.00  0.00    +0.000 NA
ATOM     22  C   UNL     1      61.635  62.880  70.500  0.00  0.00    +0.000 C 
ATOM     23  C   UNL     1      60.993  62.416  70.729  0.00  0.00    +0.000 C 
ATOM     24  C   UNL     1      60.370  62.264  71.249  0.00  0.00    +0.000 C 
ATOM     25  C   UNL     1      60.502  61.764  70.604  0.00  0.00    +0.000 C 
ENDROOT
TORSDOF 0
ENDMDL
MODEL 6
REMARK VINA RESULT:   -11.579      3.124      4.699
REMARK INTER + INTRA:         -11.579
REMARK INTER:                 -11.579
REMARK INTRA:                   0.000
REMARK UNBOUND:                 0.000
ROOT
REMARK  Name = naltrexone
REMARK                            x       y       z     vdW  Elec       q    Type
REMARK                         _______ _______ _______ _____ _____    ______ ____
ATOM      1  O   UNL     1      61.450  62.127  71.478  0.00  0.00    +0.000 OA
ATOM      2  C   UNL     1      61.529  62.889  71.784  0.00  0.00    +0.000 A 
ATOM      3  C   UNL     1      62.016  63.453  71.367  0.00  0.00    +0.000 A 
ATOM      4  O   UNL     1      62.499  63.530  70.685  0.00  0.00    +0.000 OA
ATOM      5  C   UNL     1      62.820  64.297  70.631  0.00  0.00    +0.000 C 
ATOM      6  C   UNL     1      63.330  64.655  70.066  0.00  0.00    +0.000 C 
ATOM      7  O   UNL     1      63.591  64.207  69.424  0.00  0.00    +0.000 OA
ATOM      8  C   UNL     1      63.574  65.435  70.133  0.00  0.00    +0.000 C 
ATOM      9  C   UNL     1      63.285  65.816  70.780  0.00  0.00    +0.000 C 
ATOM     10  C   UNL     1      62.690  65.362  71.420  0.00  0.00    +0.000 C 
ATOM     11  O   UNL     1      62.839  66.145  71.633  0.00  0.00    +0.000 OA
ATOM     12  C   UNL     1      62.231  65.615  72.251  0.00  0.00    +0.000 C 
ATOM     13  C   UNL     1      61.749  65.132  72.704  0.00  0.00    +0.000 C 
ATOM     14  C   UNL     1      61.680  64.391  72.396  0.00  0.00    +0.000 A 
ATOM     15  C   UNL     1      61.205  63.847  72.804  0.00  0.00    +0.000 A 
ATOM     16  C   UNL     1      61.130  63.085  72.493  0.00  0.00    +0.000 A 
ATOM     17  C   UNL     1      62.079  64.204  71.691  0.00  0.00    +0.000 A 
ATOM     18  C   UNL     1      62.575  64.804  71.281  0.00  0.00    +0.000 C 
ATOM     19  C   UNL     1      62.989  65.749  71.187  0.00  0.00    +0.000 C 
ATOM     20  C   UNL     1      62.948  66.505  71.670  0.00  0.00    +0.000 C 
ATOM     21  N   UNL     1      62.468  66.378  72.319  0.00  0.00    +0.000 NA
ATOM     22  C   UNL     1      62.272  66.915  72.914  0.00  0.00    +0.000 C 
ATOM     23  C   UNL     1      62.572  67.683  72.891  0.00  0.00    +0.000 C 
ATOM     24  C   UNL     1      63.032  68.260  72.522  0.00  0.00    +0.000 C 
ATOM     25  C   UNL     1      62.631  68.437  73.222  0.00  0.00    +0.000 C 
ENDROOT
TORSDOF 0
ENDMDL
MODEL 7
REMARK VINA RESULT:   -11.529      1.294      2.877
REMARK INTER + INTRA:         -11.529
REMARK INTER:                 -11.529
REMARK INTRA:                   0.000
REMARK UNBOUND:                 0.000
ROOT
REMARK  Name = naltrexone
REMARK                            x       y       z     vdW  Elec       q    Type
REMARK                         _______ _______ _______ _____ _____    ______ ____
ATOM      1  O   UNL     1      61.869  61.074  72.052  0.00  0.00    +0.000 OA
ATOM      2  C   UNL     1      61.603  61.848  71.949  0.00  0.00    +0.000 A 
ATOM      3  C   UNL     1      61.302  62.083  71.185  0.00  0.00    +0.000 A 
ATOM      4  O   UNL     1      61.161  61.786  70.413  0.00  0.00    +0.000 OA
ATOM      5  C   UNL     1      60.834  62.376  69.922  0.00  0.00    +0.000 C 
ATOM      6  C   UNL     1      60.595  62.367  69.116  0.00  0.00    +0.000 C 
ATOM      7  O   UNL     1      60.677  61.669  68.682  0.00  0.00    +0.000 OA
ATOM      8  C   UNL     1      60.282  63.030  68.747  0.00  0.00    +0.000 C 
ATOM      9  C   UNL     1      60.229  63.676  69.224  0.00  0.00    +0.000 C 
ATOM     10  C   UNL     1      60.520  63.647  70.164  0.00  0.00    +0.000 C 
ATOM     11  O   UNL     1      60.230  64.389  69.949  0.00  0.00    +0.000 OA
ATOM     12  C   UNL     1      60.548  64.287  70.909  0.00  0.00    +0.000 C 
ATOM     13  C   UNL     1      60.821  64.137  71.666  0.00  0.00    +0.000 C 
ATOM     14  C   UNL     1      61.079  63.378  71.755  0.00  0.00    +0.000 A 
ATOM     15  C   UNL     1      61.370  63.155  72.499  0.00  0.00    +0.000 A 
ATOM     16  C   UNL     1      61.636  62.379  72.596  0.00  0.00    +0.000 A 
ATOM     17  C   UNL     1      61.043  62.858  71.107  0.00  0.00    +0.000 A 
ATOM     18  C   UNL     1      60.729  63.125  70.330  0.00  0.00    +0.000 C 
ATOM     19  C   UNL     1      60.322  63.836  69.697  0.00  0.00    +0.000 C 
ATOM     20  C   UNL     1      60.086  64.698  69.786  0.00  0.00    +0.000 C 
ATOM     21  N   UNL     1      60.243  64.937  70.552  0.00  0.00    +0.000 NA
ATOM     22  C   UNL     1      60.117  65.681  70.884  0.00  0.00    +0.000 C 
ATOM     23  C   UNL     1      59.795  66.287  70.426  0.00  0.00    +0.000 C 
ATOM     24  C   UNL     1      59.496  66.558  69.706  0.00  0.00    +0.000 C 
ATOM     25  C   UNL     1      59.536  67.068  70.354  0.00  0.00    +0.000 C 
ENDROOT
TORSDOF 0
ENDMDL
MODEL 8
REMARK VINA RESULT:   -11.457      4.028      5.277
REMARK INTER + INTRA:         -11.457
REMARK INTER:                 -11.457
REMARK INTRA:                   0.000
REMARK UNBOUND:                 0.000
ROOT
REMARK  Name = naltrexone
REMARK                            x       y       z     vdW  Elec       q    Type
REMARK                         _______ _______ _______ _____ _____    ______ ____
ATOM      1  O   UNL     1      61.027  64.942  72.841  0.00  0.00    +0.000 OA
ATOM      2  C   UNL     1      61.687  65.389  72.626  0.00  0.00    +0.000 A 
ATOM      3  C   UNL     1      62.127  65.166  71.928  0.00  0.00    +0.000 A 
ATOM      4  O   UNL     1      62.138  64.599  71.310  0.00  0.00    +0.000 OA
ATOM      5  C   UNL     1      62.775  64.737  70.790  0.00  0.00    +0.000 C 
ATOM      6  C   UNL     1      63.031  64.337  70.095  0.00  0.00    +0.000 C 
ATOM      7  O   UNL     1      62.607  63.679  69.834  0.00  0.00    +0.000 OA
ATOM      8  C   UNL     1      63.687  64.583  69.669  0.00  0.00    +0.000 C 
ATOM      9  C   UNL     1      64.055  65.229  69.975  0.00  0.00    +0.000 C 
ATOM     10  C   UNL     1      63.725  65.670  70.792  0.00  0.00    +0.000 C 
ATOM     11  O   UNL     1      64.395  66.040  70.486  0.00  0.00    +0.000 OA
ATOM     12  C   UNL     1      64.000  66.444  71.330  0.00  0.00    +0.000 C 
ATOM     13  C   UNL     1      63.632  66.717  72.009  0.00  0.00    +0.000 C 
ATOM     14  C   UNL     1      62.989  66.274  72.209  0.00  0.00    +0.000 A 
ATOM     15  C   UNL     1      62.566  66.494  72.888  0.00  0.00    +0.000 A 
ATOM     16  C   UNL     1      61.906  66.044  73.098  0.00  0.00    +0.000 A 
ATOM     17  C   UNL     1      62.779  65.625  71.735  0.00  0.00    +0.000 A 
ATOM     18  C   UNL     1      63.248  65.416  71.020  0.00  0.00    +0.000 C 
ATOM     19  C   UNL     1      64.030  65.563  70.357  0.00  0.00    +0.000 C 
ATOM     20  C   UNL     1      64.699  66.159  70.294  0.00  0.00    +0.000 C 
ATOM     21  N   UNL     1      64.643  66.686  70.916  0.00  0.00    +0.000 NA
ATOM     22  C   UNL     1      65.137  67.325  71.082  0.00  0.00    +0.000 C 
ATOM     23  C   UNL     1      65.776  67.490  70.588  0.00  0.00    +0.000 C 
ATOM     24  C   UNL     1      66.230  67.312  69.922  0.00  0.00    +0.000 C 
ATOM     25  C   UNL     1      66.432  67.956  70.399  0.00  0.00    +0.000 C 
ENDROOT
TORSDOF 0
ENDMDL
MODEL 9
REMARK VINA RESULT:   -11.358      3.487      4.879
REMARK INTER + INTRA:         -11.358
REMARK INTER:                 -11.358
REMARK INTRA:                   0.000
REMARK UNBOUND:                 0.000
ROOT
REMARK  Name = naltrexone
REMARK                            x       y       z     vdW  Elec       q    Type
REMARK                         _______ _______ _______ _____ _____    ______ ____
ATOM      1  O   UNL     1      63.468  68.789  72.765  0.00  0.00    +0.000 OA
ATOM      2  C   UNL     1      63.070  68.067  72.744  0.00  0.00    +0.000 A 
ATOM      3  C   UNL     1      63.364  67.447  72.235  0.00  0.00    +0.000 A 
ATOM      4  O   UNL     1      63.977  67.281  71.687  0.00  0.00    +0.000 OA
ATOM      5  C   UNL     1      63.907  66.505  71.388  0.00  0.00    +0.000 C 
ATOM      6  C   UNL     1      64.370  66.072  70.835  0.00  0.00    +0.000 C 
ATOM      7  O   UNL     1      65.027  66.435  70.492  0.00  0.00    +0.000 OA
ATOM      8  C   UNL     1      64.187  65.301  70.625  0.00  0.00    +0.000 C 
ATOM      9  C   UNL     1      63.536  65.005  70.994  0.00  0.00    +0.000 C 
ATOM     10  C   UNL     1      63.020  65.544  71.637  0.00  0.00    +0.000 C 
ATOM     11  O   UNL     1      62.705  64.788  71.537  0.00  0.00    +0.000 OA
ATOM     12  C   UNL     1      62.221  65.400  72.189  0.00  0.00    +0.000 C 
ATOM     13  C   UNL     1      61.880  65.943  72.698  0.00  0.00    +0.000 C 
ATOM     14  C   UNL     1      62.278  66.644  72.710  0.00  0.00    +0.000 A 
ATOM     15  C   UNL     1      61.988  67.243  73.206  0.00  0.00    +0.000 A 
ATOM     16  C   UNL     1      62.390  67.964  73.222  0.00  0.00    +0.000 A 
ATOM     17  C   UNL     1      62.952  66.738  72.232  0.00  0.00    +0.000 A 
ATOM     18  C   UNL     1      63.234  66.084  71.717  0.00  0.00    +0.000 C 
ATOM     19  C   UNL     1      63.174  65.126  71.328  0.00  0.00    +0.000 C 
ATOM     20  C   UNL     1      62.614  64.433  71.446  0.00  0.00    +0.000 C 
ATOM     21  N   UNL     1      62.040  64.645  71.986  0.00  0.00    +0.000 NA
ATOM     22  C   UNL     1      61.413  64.186  72.262  0.00  0.00    +0.000 C 
ATOM     23  C   UNL     1      61.314  63.415  71.988  0.00  0.00    +0.000 C 
ATOM     24  C   UNL     1      61.563  62.789  71.511  0.00  0.00    +0.000 C 
ATOM     25  C   UNL     1      60.895  62.704  71.989  0.00  0.00    +0.000 C 
ENDROOT
TORSDOF 0
ENDMDL
