MODEL 1
REMARK VINA RESULT:   -12.518      0.000      0.000
REMARK INTER + INTRA:         -12.518
REMARK INTER:                 -12.518
REMARK INTRA:                   0.000
REMARK UNBOUND:                 0.000
ROOT
REMARK  Name = nandrolone
REMARK                            x       y       z     vdW  Elec       q    Type
REMARK                         _______ _______ _______ _____ _____    ______ ____
ATOM      1  C   UNL     1      62.528  61.949  64.193  0.00  0.00    +0.000 C 
ATOM      2  C   UNL     1      61.776  61.797  64.500  0.00  0.00    +0.000 C 
ATOM      3  C   UNL     1      62.242  62.285  64.976  0.00  0.00    +0.000 C 
ATOM      4  C   UNL     1      61.942  62.573  65.688  0.00  0.00    +0.000 C 
ATOM      5  C   UNL     1      61.177  62.374  65.925  0.00  0.00    +0.000 C 
ATOM      6  C   UNL     1      60.712  61.886  65.448  0.00  0.00    +0.000 C 
ATOM      7  C   UNL     1      59.947  61.687  65.685  0.00  0.00    +0.000 C 
ATOM      8  C   UNL     1      59.647  61.975  66.398  0.00  0.00    +0.000 C 
ATOM      9  C   UNL     1      60.113  62.462  66.873  0.00  0.00    +0.000 C 
ATOM     10  C   UNL     1      59.812  62.750  67.586  0.00  0.00    +0.000 C 
ATOM     11  C   UNL     1      60.277  63.238  68.062  0.00  0.00    +0.000 C 
ATOM     12  O   UNL     1      59.977  63.526  68.774  0.00  0.00    +0.000 OA
ATOM     13  C   UNL     1      61.042  63.437  67.826  0.00  0.00    +0.000 C 
ATOM     14  C   UNL     1      61.342  63.149  67.113  0.00  0.00    +0.000 C 
ATOM     15  C   UNL     1      60.877  62.662  66.637  0.00  0.00    +0.000 C 
ATOM     16  C   UNL     1      61.011  61.598  64.736  0.00  0.00    +0.000 C 
ATOM     17  C   UNL     1      60.685  61.110  64.156  0.00  0.00    +0.000 C 
ATOM     18  C   UNL     1      61.248  61.009  63.562  0.00  0.00    +0.000 C 
ATOM     19  C   UNL     1      61.923  61.433  63.774  0.00  0.00    +0.000 C 
ATOM     20  O   UNL     1      62.620  61.484  63.337  0.00  0.00    +0.000 OA
ENDROOT
TORSDOF 0
ENDMDL
MODEL 2
REMARK VINA RESULT:   -11.751      0.441      3.610
REMARK INTER + INTRA:         -11.751
REMARK INTER:                 -11.751
REMARK INTRA:                   0.000
REMARK UNBOUND:                 0.000
ROOT
REMARK  Name = nandrolone
REMARK                            x       y       z     vdW  Elec       q    Type
REMARK                         _______ _______ _______ _____ _____    ______ ____
ATOM      1  C   UNL     1      60.918  63.266  67.632  0.00  0.00    +0.000 C 
ATOM      2  C   UNL     1      60.584  62.761  67.071  0.00  0.00    +0.000 C 
ATOM      3  C   UNL     1      61.342  63.023  66.877  0.00  0.00    +0.000 C 
ATOM      4  C   UNL     1      61.696  62.777  66.174  0.00  0.00    +0.000 C 
ATOM      5  C   UNL     1      61.292  62.268  65.665  0.00  0.00    +0.000 C 
ATOM      6  C   UNL     1      60.534  62.007  65.859  0.00  0.00    +0.000 C 
ATOM      7  C   UNL     1      60.131  61.498  65.349  0.00  0.00    +0.000 C 
ATOM      8  C   UNL     1      60.485  61.252  64.646  0.00  0.00    +0.000 C 
ATOM      9  C   UNL     1      61.243  61.514  64.453  0.00  0.00    +0.000 C 
ATOM     10  C   UNL     1      61.597  61.267  63.749  0.00  0.00    +0.000 C 
ATOM     11  C   UNL     1      62.355  61.529  63.556  0.00  0.00    +0.000 C 
ATOM     12  O   UNL     1      62.709  61.283  62.853  0.00  0.00    +0.000 OA
ATOM     13  C   UNL     1      62.759  62.037  64.065  0.00  0.00    +0.000 C 
ATOM     14  C   UNL     1      62.404  62.284  64.768  0.00  0.00    +0.000 C 
ATOM     15  C   UNL     1      61.647  62.022  64.962  0.00  0.00    +0.000 C 
ATOM     16  C   UNL     1      60.180  62.253  66.561  0.00  0.00    +0.000 C 
ATOM     17  C   UNL     1      59.445  62.088  66.896  0.00  0.00    +0.000 C 
ATOM     18  C   UNL     1      59.394  62.493  67.613  0.00  0.00    +0.000 C 
ATOM     19  C   UNL     1      60.098  62.910  67.721  0.00  0.00    +0.000 C 
ATOM     20  O   UNL     1      60.283  63.390  68.365  0.00  0.00    +0.000 OA
ENDROOT
TORSDOF 0
ENDMDL
MODEL 3
REMARK VINA RESULT:   -11.145      3.130      5.925
REMARK INTER + INTRA:         -11.145
REMARK INTER:                 -11.145
REMARK INTRA:                   0.000
REMARK UNBOUND:                 0.000
ROOT
REMARK  Name = nandrolone
REMARK                            x       y       z     vdW  Elec       q    Type
REMARK                         _______ _______ _______ _____ _____    ______ ____
ATOM      1  C   UNL     1      61.609  61.975  72.291  0.00  0.00    +0.000 C 
ATOM      2  C   UNL     1      61.311  62.624  71.876  0.00  0.00    +0.000 C 
ATOM      3  C   UNL     1      61.355  61.931  71.430  0.00  0.00    +0.000 C 
ATOM      4  C   UNL     1      61.112  61.932  70.641  0.00  0.00    +0.000 C 
ATOM      5  C   UNL     1      60.826  62.625  70.299  0.00  0.00    +0.000 C 
ATOM      6  C   UNL     1      60.782  63.318  70.745  0.00  0.00    +0.000 C 
ATOM      7  C   UNL     1      60.495  64.012  70.402  0.00  0.00    +0.000 C 
ATOM      8  C   UNL     1      60.252  64.013  69.614  0.00  0.00    +0.000 C 
ATOM      9  C   UNL     1      60.296  63.320  69.168  0.00  0.00    +0.000 C 
ATOM     10  C   UNL     1      60.053  63.321  68.379  0.00  0.00    +0.000 C 
ATOM     11  C   UNL     1      60.097  62.628  67.934  0.00  0.00    +0.000 C 
ATOM     12  O   UNL     1      59.854  62.629  67.146  0.00  0.00    +0.000 OA
ATOM     13  C   UNL     1      60.383  61.934  68.276  0.00  0.00    +0.000 C 
ATOM     14  C   UNL     1      60.626  61.934  69.065  0.00  0.00    +0.000 C 
ATOM     15  C   UNL     1      60.583  62.626  69.511  0.00  0.00    +0.000 C 
ATOM     16  C   UNL     1      61.025  63.318  71.533  0.00  0.00    +0.000 C 
ATOM     17  C   UNL     1      61.046  63.912  72.105  0.00  0.00    +0.000 C 
ATOM     18  C   UNL     1      61.345  63.585  72.801  0.00  0.00    +0.000 C 
ATOM     19  C   UNL     1      61.510  62.789  72.660  0.00  0.00    +0.000 C 
ATOM     20  O   UNL     1      61.818  62.253  73.205  0.00  0.00    +0.000 OA
ENDROOT
TORSDOF 0
ENDMDL
MODEL 4
REMARK VINA RESULT:   -10.644      5.826      7.685
REMARK INTER + INTRA:         -10.644
REMARK INTER:                 -10.644
REMARK INTRA:                   0.000
REMARK UNBOUND:                 0.000
ROOT
REMARK  Name = nandrolone
REMARK                            x       y       z     vdW  Elec       q    Type
REMARK                         _______ _______ _______ _____ _____    ______ ____
ATOM      1  C   UNL     1      66.213  66.863  71.770  0.00  0.00    +0.000 C 
ATOM      2  C   UNL     1      65.750  66.834  71.087  0.00  0.00    +0.000 C 
ATOM      3  C   UNL     1      65.421  66.439  71.732  0.00  0.00    +0.000 C 
ATOM      4  C   UNL     1      64.692  66.061  71.656  0.00  0.00    +0.000 C 
ATOM      5  C   UNL     1      64.291  66.079  70.935  0.00  0.00    +0.000 C 
ATOM      6  C   UNL     1      64.620  66.475  70.290  0.00  0.00    +0.000 C 
ATOM      7  C   UNL     1      64.219  66.492  69.569  0.00  0.00    +0.000 C 
ATOM      8  C   UNL     1      63.489  66.115  69.494  0.00  0.00    +0.000 C 
ATOM      9  C   UNL     1      63.161  65.719  70.139  0.00  0.00    +0.000 C 
ATOM     10  C   UNL     1      62.431  65.342  70.062  0.00  0.00    +0.000 C 
ATOM     11  C   UNL     1      62.103  64.946  70.708  0.00  0.00    +0.000 C 
ATOM     12  O   UNL     1      61.373  64.569  70.632  0.00  0.00    +0.000 OA
ATOM     13  C   UNL     1      62.503  64.928  71.429  0.00  0.00    +0.000 C 
ATOM     14  C   UNL     1      63.233  65.306  71.504  0.00  0.00    +0.000 C 
ATOM     15  C   UNL     1      63.562  65.701  70.860  0.00  0.00    +0.000 C 
ATOM     16  C   UNL     1      65.350  66.852  70.366  0.00  0.00    +0.000 C 
ATOM     17  C   UNL     1      65.807  67.282  69.831  0.00  0.00    +0.000 C 
ATOM     18  C   UNL     1      66.490  67.530  70.221  0.00  0.00    +0.000 C 
ATOM     19  C   UNL     1      66.456  67.253  70.998  0.00  0.00    +0.000 C 
ATOM     20  O   UNL     1      67.025  67.374  71.581  0.00  0.00    +0.000 OA
ENDROOT
TORSDOF 0
ENDMDL
MODEL 5
REMARK VINA RESULT:   -10.478      5.784      7.076
REMARK INTER + INTRA:         -10.478
REMARK INTER:                 -10.478
REMARK INTRA:                   0.000
REMARK UNBOUND:                 0.000
ROOT
REMARK  Name = nandrolone
REMARK                            x       y       z     vdW  Elec       q    Type
REMARK                         _______ _______ _______ _____ _____    ______ ____
ATOM      1  C   UNL     1      59.615  64.880  70.931  0.00  0.00    +0.000 C 
ATOM      2  C   UNL     1      60.062  64.633  71.580  0.00  0.00    +0.000 C 
ATOM      3  C   UNL     1      60.014  64.075  70.974  0.00  0.00    +0.000 C 
ATOM      4  C   UNL     1      60.395  63.348  71.052  0.00  0.00    +0.000 C 
ATOM      5  C   UNL     1      60.823  63.179  71.736  0.00  0.00    +0.000 C 
ATOM      6  C   UNL     1      60.871  63.737  72.342  0.00  0.00    +0.000 C 
ATOM      7  C   UNL     1      61.300  63.566  73.026  0.00  0.00    +0.000 C 
ATOM      8  C   UNL     1      61.681  62.839  73.104  0.00  0.00    +0.000 C 
ATOM      9  C   UNL     1      61.633  62.282  72.498  0.00  0.00    +0.000 C 
ATOM     10  C   UNL     1      62.015  61.553  72.577  0.00  0.00    +0.000 C 
ATOM     11  C   UNL     1      61.967  60.996  71.971  0.00  0.00    +0.000 C 
ATOM     12  O   UNL     1      62.348  60.269  72.048  0.00  0.00    +0.000 OA
ATOM     13  C   UNL     1      61.538  61.166  71.286  0.00  0.00    +0.000 C 
ATOM     14  C   UNL     1      61.157  61.893  71.208  0.00  0.00    +0.000 C 
ATOM     15  C   UNL     1      61.204  62.451  71.814  0.00  0.00    +0.000 C 
ATOM     16  C   UNL     1      60.490  64.464  72.264  0.00  0.00    +0.000 C 
ATOM     17  C   UNL     1      60.440  65.117  72.765  0.00  0.00    +0.000 C 
ATOM     18  C   UNL     1      59.980  65.691  72.391  0.00  0.00    +0.000 C 
ATOM     19  C   UNL     1      59.745  65.392  71.658  0.00  0.00    +0.000 C 
ATOM     20  O   UNL     1      59.278  65.782  71.101  0.00  0.00    +0.000 OA
ENDROOT
TORSDOF 0
ENDMDL
MODEL 6
REMARK VINA RESULT:   -10.395      6.245      7.702
REMARK INTER + INTRA:         -10.395
REMARK INTER:                 -10.395
REMARK INTRA:                   0.000
REMARK UNBOUND:                 0.000
ROOT
REMARK  Name = nandrolone
REMARK                            x       y       z     vdW  Elec       q    Type
REMARK                         _______ _______ _______ _____ _____    ______ ____
ATOM      1  C   UNL     1      62.195  65.374  72.610  0.00  0.00    +0.000 C 
ATOM      2  C   UNL     1      62.607  65.174  71.923  0.00  0.00    +0.000 C 
ATOM      3  C   UNL     1      62.877  65.863  72.288  0.00  0.00    +0.000 C 
ATOM      4  C   UNL     1      63.507  66.283  71.961  0.00  0.00    +0.000 C 
ATOM      5  C   UNL     1      63.866  66.015  71.268  0.00  0.00    +0.000 C 
ATOM      6  C   UNL     1      63.595  65.326  70.903  0.00  0.00    +0.000 C 
ATOM      7  C   UNL     1      63.955  65.058  70.210  0.00  0.00    +0.000 C 
ATOM      8  C   UNL     1      64.585  65.479  69.883  0.00  0.00    +0.000 C 
ATOM      9  C   UNL     1      64.855  66.167  70.248  0.00  0.00    +0.000 C 
ATOM     10  C   UNL     1      65.485  66.587  69.920  0.00  0.00    +0.000 C 
ATOM     11  C   UNL     1      65.755  67.276  70.286  0.00  0.00    +0.000 C 
ATOM     12  O   UNL     1      66.385  67.696  69.958  0.00  0.00    +0.000 OA
ATOM     13  C   UNL     1      65.396  67.544  70.978  0.00  0.00    +0.000 C 
ATOM     14  C   UNL     1      64.766  67.124  71.305  0.00  0.00    +0.000 C 
ATOM     15  C   UNL     1      64.495  66.435  70.941  0.00  0.00    +0.000 C 
ATOM     16  C   UNL     1      62.966  64.905  71.230  0.00  0.00    +0.000 C 
ATOM     17  C   UNL     1      62.583  64.214  70.996  0.00  0.00    +0.000 C 
ATOM     18  C   UNL     1      61.986  64.054  71.543  0.00  0.00    +0.000 C 
ATOM     19  C   UNL     1      62.001  64.648  72.117  0.00  0.00    +0.000 C 
ATOM     20  O   UNL     1      61.499  64.705  72.768  0.00  0.00    +0.000 OA
ENDROOT
TORSDOF 0
ENDMDL
MODEL 7
REMARK VINA RESULT:   -10.379      5.549      6.647
REMARK INTER + INTRA:         -10.379
REMARK INTER:                 -10.379
REMARK INTRA:                   0.000
REMARK UNBOUND:                 0.000
ROOT
REMARK  Name = nandrolone
REMARK                            x       y       z     vdW  Elec       q    Type
REMARK                         _______ _______ _______ _____ _____    ______ ____
ATOM      1  C   UNL     1      61.872  61.953  72.222  0.00  0.00    +0.000 C 
ATOM      2  C   UNL     1      61.263  62.355  71.836  0.00  0.00    +0.000 C 
ATOM      3  C   UNL     1      61.596  62.774  72.464  0.00  0.00    +0.000 C 
ATOM      4  C   UNL     1      61.315  63.526  72.654  0.00  0.00    +0.000 C 
ATOM      5  C   UNL     1      60.700  63.858  72.215  0.00  0.00    +0.000 C 
ATOM      6  C   UNL     1      60.367  63.439  71.587  0.00  0.00    +0.000 C 
ATOM      7  C   UNL     1      59.752  63.773  71.150  0.00  0.00    +0.000 C 
ATOM      8  C   UNL     1      59.471  64.525  71.339  0.00  0.00    +0.000 C 
ATOM      9  C   UNL     1      59.804  64.943  71.967  0.00  0.00    +0.000 C 
ATOM     10  C   UNL     1      59.522  65.696  72.157  0.00  0.00    +0.000 C 
ATOM     11  C   UNL     1      59.855  66.114  72.784  0.00  0.00    +0.000 C 
ATOM     12  O   UNL     1      59.574  66.865  72.974  0.00  0.00    +0.000 OA
ATOM     13  C   UNL     1      60.470  65.781  73.223  0.00  0.00    +0.000 C 
ATOM     14  C   UNL     1      60.751  65.029  73.033  0.00  0.00    +0.000 C 
ATOM     15  C   UNL     1      60.419  64.610  72.405  0.00  0.00    +0.000 C 
ATOM     16  C   UNL     1      60.648  62.687  71.398  0.00  0.00    +0.000 C 
ATOM     17  C   UNL     1      60.430  62.148  70.814  0.00  0.00    +0.000 C 
ATOM     18  C   UNL     1      60.910  61.481  70.891  0.00  0.00    +0.000 C 
ATOM     19  C   UNL     1      61.425  61.608  71.523  0.00  0.00    +0.000 C 
ATOM     20  O   UNL     1      62.000  61.083  71.793  0.00  0.00    +0.000 OA
ENDROOT
TORSDOF 0
ENDMDL
MODEL 8
REMARK VINA RESULT:   -10.146      5.767      6.998
REMARK INTER + INTRA:         -10.146
REMARK INTER:                 -10.146
REMARK INTRA:                   0.000
REMARK UNBOUND:                 0.000
ROOT
REMARK  Name = nandrolone
REMARK                            x       y       z     vdW  Elec       q    Type
REMARK                         _______ _______ _______ _____ _____    ______ ____
ATOM      1  C   UNL     1      61.606  62.912  71.227  0.00  0.00    +0.000 C 
ATOM      2  C   UNL     1      61.822  63.640  71.549  0.00  0.00    +0.000 C 
ATOM      3  C   UNL     1      62.258  63.426  70.882  0.00  0.00    +0.000 C 
ATOM      4  C   UNL     1      62.849  63.926  70.596  0.00  0.00    +0.000 C 
ATOM      5  C   UNL     1      63.004  64.641  70.978  0.00  0.00    +0.000 C 
ATOM      6  C   UNL     1      62.568  64.855  71.645  0.00  0.00    +0.000 C 
ATOM      7  C   UNL     1      62.723  65.571  72.027  0.00  0.00    +0.000 C 
ATOM      8  C   UNL     1      63.314  66.071  71.741  0.00  0.00    +0.000 C 
ATOM      9  C   UNL     1      63.749  65.855  71.074  0.00  0.00    +0.000 C 
ATOM     10  C   UNL     1      64.340  66.357  70.789  0.00  0.00    +0.000 C 
ATOM     11  C   UNL     1      64.775  66.141  70.122  0.00  0.00    +0.000 C 
ATOM     12  O   UNL     1      65.366  66.641  69.837  0.00  0.00    +0.000 OA
ATOM     13  C   UNL     1      64.620  65.427  69.740  0.00  0.00    +0.000 C 
ATOM     14  C   UNL     1      64.030  64.927  70.026  0.00  0.00    +0.000 C 
ATOM     15  C   UNL     1      63.594  65.141  70.693  0.00  0.00    +0.000 C 
ATOM     16  C   UNL     1      61.977  64.355  71.931  0.00  0.00    +0.000 C 
ATOM     17  C   UNL     1      61.462  64.419  72.571  0.00  0.00    +0.000 C 
ATOM     18  C   UNL     1      60.988  63.744  72.586  0.00  0.00    +0.000 C 
ATOM     19  C   UNL     1      61.211  63.262  71.954  0.00  0.00    +0.000 C 
ATOM     20  O   UNL     1      60.880  62.532  71.761  0.00  0.00    +0.000 OA
ENDROOT
TORSDOF 0
ENDMDL
MODEL 9
REMARK VINA RESULT:    -9.877      5.896      7.311
REMARK INTER + INTRA:          -9.877
REMARK INTER:                  -9.877
REMARK INTRA:                   0.000
REMARK UNBOUND:                 0.000
ROOT
REMARK  Name = nandrolone
REMARK                            x       y       z     vdW  Elec       q    Type
REMARK                         _______ _______ _______ _____ _____    ______ ____
ATOM      1  C   UNL     1      63.664  66.977  72.242  0.00  0.00    +0.000 C 
ATOM      2  C   UNL     1      63.652  66.317  71.747  0.00  0.00    +0.000 C 
ATOM      3  C   UNL     1      63.060  66.316  72.322  0.00  0.00    +0.000 C 
ATOM      4  C   UNL     1      62.525  65.690  72.363  0.00  0.00    +0.000 C 
ATOM      5  C   UNL     1      62.581  65.064  71.828  0.00  0.00    +0.000 C 
ATOM      6  C   UNL     1      63.174  65.065  71.253  0.00  0.00    +0.000 C 
ATOM      7  C   UNL     1      63.230  64.438  70.719  0.00  0.00    +0.000 C 
ATOM      8  C   UNL     1      62.694  63.812  70.760  0.00  0.00    +0.000 C 
ATOM      9  C   UNL     1      62.103  63.812  71.335  0.00  0.00    +0.000 C 
ATOM     10  C   UNL     1      61.567  63.185  71.375  0.00  0.00    +0.000 C 
ATOM     11  C   UNL     1      60.976  63.185  71.949  0.00  0.00    +0.000 C 
ATOM     12  O   UNL     1      60.441  62.559  71.990  0.00  0.00    +0.000 OA
ATOM     13  C   UNL     1      60.919  63.811  72.484  0.00  0.00    +0.000 C 
ATOM     14  C   UNL     1      61.454  64.437  72.443  0.00  0.00    +0.000 C 
ATOM     15  C   UNL     1      62.046  64.438  71.869  0.00  0.00    +0.000 C 
ATOM     16  C   UNL     1      63.709  65.691  71.213  0.00  0.00    +0.000 C 
ATOM     17  C   UNL     1      64.345  65.841  70.710  0.00  0.00    +0.000 C 
ATOM     18  C   UNL     1      64.682  66.561  70.934  0.00  0.00    +0.000 C 
ATOM     19  C   UNL     1      64.254  66.855  71.575  0.00  0.00    +0.000 C 
ATOM     20  O   UNL     1      64.401  67.562  71.973  0.00  0.00    +0.000 OA
ENDROOT
TORSDOF 0
ENDMDL
