MODEL 1
REMARK VINA RESULT:   -12.792      0.000      0.000
REMARK INTER + INTRA:         -12.792
REMARK INTER:                 -12.792
REMARK INTRA:                   0.000
REMARK UNBOUND:                 0.000
ROOT
REMARK  Name = naproxcinod
REMARK                            x       y       z     vdW  Elec       q    Type
REMARK                         _______ _______ _______ _____ _____    ______ ____
ATOM      1  C   UNL     1      61.042  60.574  62.815  0.00  0.00    +0.000 C 
ATOM      2  O   UNL     1      61.690  60.966  63.142  0.00  0.00    +0.000 OA
ATOM      3  C   UNL     1      61.626  61.321  63.885  0.00  0.00    +0.000 A 
ATOM      4  C   UNL     1      62.274  61.713  64.211  0.00  0.00    +0.000 A 
ATOM      5  C   UNL     1      62.209  62.068  64.954  0.00  0.00    +0.000 A 
ATOM      6  C   UNL     1      61.498  62.031  65.368  0.00  0.00    +0.000 A 
ATOM      7  C   UNL     1      61.433  62.385  66.110  0.00  0.00    +0.000 A 
ATOM      8  C   UNL     1      60.721  62.348  66.525  0.00  0.00    +0.000 A 
ATOM      9  C   UNL     1      60.073  61.956  66.198  0.00  0.00    +0.000 A 
ATOM     10  C   UNL     1      60.137  61.601  65.456  0.00  0.00    +0.000 A 
ATOM     11  C   UNL     1      60.849  61.638  65.041  0.00  0.00    +0.000 A 
ATOM     12  C   UNL     1      60.914  61.283  64.299  0.00  0.00    +0.000 A 
ATOM     13  C   UNL     1      60.656  62.703  67.266  0.00  0.00    +0.000 C 
ATOM     14  C   UNL     1      59.943  62.665  67.681  0.00  0.00    +0.000 C 
ATOM     15  C   UNL     1      61.304  63.095  67.594  0.00  0.00    +0.000 C 
ATOM     16  O   UNL     1      62.016  63.133  67.179  0.00  0.00    +0.000 OA
ATOM     17  O   UNL     1      61.240  63.451  68.336  0.00  0.00    +0.000 OA
ATOM     18  C   UNL     1      61.887  63.843  68.663  0.00  0.00    +0.000 C 
ATOM     19  C   UNL     1      61.823  64.197  69.405  0.00  0.00    +0.000 C 
ATOM     20  C   UNL     1      62.471  64.590  69.732  0.00  0.00    +0.000 C 
ATOM     21  C   UNL     1      62.406  64.945  70.474  0.00  0.00    +0.000 C 
ATOM     22  O   UNL     1      63.054  65.337  70.802  0.00  0.00    +0.000 OA
ATOM     23  N   UNL     1      62.990  65.692  71.543  0.00  0.00    +0.000 N 
ATOM     24  O   UNL     1      63.637  66.085  71.871  0.00  0.00    +0.000 OA
ATOM     25  O   UNL     1      62.277  65.655  71.958  0.00  0.00    +0.000 OA
ENDROOT
TORSDOF 0
ENDMDL
MODEL 2
REMARK VINA RESULT:   -12.228      2.821      6.567
REMARK INTER + INTRA:         -12.228
REMARK INTER:                 -12.228
REMARK INTRA:                   0.000
REMARK UNBOUND:                 0.000
ROOT
REMARK  Name = naproxcinod
REMARK                            x       y       z     vdW  Elec       q    Type
REMARK                         _______ _______ _______ _____ _____    ______ ____
ATOM      1  C   UNL     1      58.862  65.789  73.222  0.00  0.00    +0.000 C 
ATOM      2  O   UNL     1      59.023  66.099  72.475  0.00  0.00    +0.000 OA
ATOM      3  C   UNL     1      59.317  65.608  71.880  0.00  0.00    +0.000 A 
ATOM      4  C   UNL     1      59.478  65.919  71.133  0.00  0.00    +0.000 A 
ATOM      5  C   UNL     1      59.772  65.428  70.537  0.00  0.00    +0.000 A 
ATOM      6  C   UNL     1      59.904  64.629  70.690  0.00  0.00    +0.000 A 
ATOM      7  C   UNL     1      60.197  64.138  70.095  0.00  0.00    +0.000 A 
ATOM      8  C   UNL     1      60.329  63.338  70.248  0.00  0.00    +0.000 A 
ATOM      9  C   UNL     1      60.168  63.029  70.995  0.00  0.00    +0.000 A 
ATOM     10  C   UNL     1      59.874  63.519  71.590  0.00  0.00    +0.000 A 
ATOM     11  C   UNL     1      59.742  64.319  71.438  0.00  0.00    +0.000 A 
ATOM     12  C   UNL     1      59.449  64.809  72.032  0.00  0.00    +0.000 A 
ATOM     13  C   UNL     1      60.622  62.848  69.653  0.00  0.00    +0.000 C 
ATOM     14  C   UNL     1      60.754  62.047  69.806  0.00  0.00    +0.000 C 
ATOM     15  C   UNL     1      60.784  63.157  68.905  0.00  0.00    +0.000 C 
ATOM     16  O   UNL     1      60.652  63.957  68.753  0.00  0.00    +0.000 OA
ATOM     17  O   UNL     1      61.078  62.667  68.310  0.00  0.00    +0.000 OA
ATOM     18  C   UNL     1      61.239  62.976  67.563  0.00  0.00    +0.000 C 
ATOM     19  C   UNL     1      61.532  62.486  66.968  0.00  0.00    +0.000 C 
ATOM     20  C   UNL     1      61.694  62.795  66.220  0.00  0.00    +0.000 C 
ATOM     21  C   UNL     1      61.987  62.306  65.626  0.00  0.00    +0.000 C 
ATOM     22  O   UNL     1      62.149  62.615  64.878  0.00  0.00    +0.000 OA
ATOM     23  N   UNL     1      62.442  62.125  64.283  0.00  0.00    +0.000 N 
ATOM     24  O   UNL     1      62.604  62.434  63.535  0.00  0.00    +0.000 OA
ATOM     25  O   UNL     1      62.575  61.324  64.436  0.00  0.00    +0.000 OA
ENDROOT
TORSDOF 0
ENDMDL
MODEL 3
REMARK VINA RESULT:   -11.441      2.164      6.649
REMARK INTER + INTRA:         -11.441
REMARK INTER:                 -11.441
REMARK INTRA:                   0.000
REMARK UNBOUND:                 0.000
ROOT
REMARK  Name = naproxcinod
REMARK                            x       y       z     vdW  Elec       q    Type
REMARK                         _______ _______ _______ _____ _____    ______ ____
ATOM      1  C   UNL     1      62.763  66.465  72.948  0.00  0.00    +0.000 C 
ATOM      2  O   UNL     1      62.998  66.523  72.159  0.00  0.00    +0.000 OA
ATOM      3  C   UNL     1      62.727  65.973  71.607  0.00  0.00    +0.000 A 
ATOM      4  C   UNL     1      62.962  66.031  70.818  0.00  0.00    +0.000 A 
ATOM      5  C   UNL     1      62.691  65.480  70.266  0.00  0.00    +0.000 A 
ATOM      6  C   UNL     1      62.187  64.873  70.502  0.00  0.00    +0.000 A 
ATOM      7  C   UNL     1      61.917  64.322  69.951  0.00  0.00    +0.000 A 
ATOM      8  C   UNL     1      61.412  63.714  70.188  0.00  0.00    +0.000 A 
ATOM      9  C   UNL     1      61.178  63.656  70.976  0.00  0.00    +0.000 A 
ATOM     10  C   UNL     1      61.448  64.206  71.529  0.00  0.00    +0.000 A 
ATOM     11  C   UNL     1      61.953  64.815  71.292  0.00  0.00    +0.000 A 
ATOM     12  C   UNL     1      62.223  65.365  71.843  0.00  0.00    +0.000 A 
ATOM     13  C   UNL     1      61.143  63.164  69.636  0.00  0.00    +0.000 C 
ATOM     14  C   UNL     1      60.637  62.555  69.873  0.00  0.00    +0.000 C 
ATOM     15  C   UNL     1      61.376  63.221  68.847  0.00  0.00    +0.000 C 
ATOM     16  O   UNL     1      61.881  63.830  68.610  0.00  0.00    +0.000 OA
ATOM     17  O   UNL     1      61.107  62.671  68.294  0.00  0.00    +0.000 OA
ATOM     18  C   UNL     1      61.340  62.729  67.506  0.00  0.00    +0.000 C 
ATOM     19  C   UNL     1      61.071  62.179  66.954  0.00  0.00    +0.000 C 
ATOM     20  C   UNL     1      61.304  62.237  66.165  0.00  0.00    +0.000 C 
ATOM     21  C   UNL     1      61.035  61.687  65.613  0.00  0.00    +0.000 C 
ATOM     22  O   UNL     1      61.268  61.744  64.824  0.00  0.00    +0.000 OA
ATOM     23  N   UNL     1      60.999  61.195  64.272  0.00  0.00    +0.000 N 
ATOM     24  O   UNL     1      61.233  61.252  63.483  0.00  0.00    +0.000 OA
ATOM     25  O   UNL     1      60.493  60.586  64.509  0.00  0.00    +0.000 OA
ENDROOT
TORSDOF 0
ENDMDL
