MODEL 1
REMARK VINA RESULT:   -13.667      0.000      0.000
REMARK INTER + INTRA:         -13.667
REMARK INTER:                 -13.667
REMARK INTRA:                   0.000
REMARK UNBOUND:                 0.000
ROOT
REMARK  Name = nemonapride
REMARK                            x       y       z     vdW  Elec       q    Type
REMARK                         _______ _______ _______ _____ _____    ______ ____
ATOM      1  C   UNL     1      64.345  65.274  70.698  0.00  0.00    +0.000 C 
ATOM      2  N   UNL     1      63.578  65.134  70.969  0.00  0.00    +0.000 NA
ATOM      3  C   UNL     1      63.035  64.743  70.488  0.00  0.00    +0.000 A 
ATOM      4  C   UNL     1      62.268  64.603  70.761  0.00  0.00    +0.000 A 
ATOM      5  C   UNL     1      61.724  64.212  70.279  0.00  0.00    +0.000 A 
ATOM      6  O   UNL     1      60.958  64.072  70.551  0.00  0.00    +0.000 OA
ATOM      7  C   UNL     1      60.414  63.681  70.070  0.00  0.00    +0.000 C 
ATOM      8  C   UNL     1      61.947  63.961  69.525  0.00  0.00    +0.000 A 
ATOM      9  C   UNL     1      62.713  64.101  69.253  0.00  0.00    +0.000 A 
ATOM     10  C   UNL     1      63.257  64.492  69.735  0.00  0.00    +0.000 A 
ATOM     11 CL   UNL     1      64.023  64.631  69.462  0.00  0.00    +0.000 Cl
ATOM     12  C   UNL     1      61.403  63.570  69.044  0.00  0.00    +0.000 C 
ATOM     13  O   UNL     1      60.636  63.430  69.317  0.00  0.00    +0.000 OA
ATOM     14  N   UNL     1      61.625  63.319  68.290  0.00  0.00    +0.000 NA
ATOM     15  C   UNL     1      61.081  62.928  67.809  0.00  0.00    +0.000 C 
ATOM     16  C   UNL     1      60.300  62.750  68.005  0.00  0.00    +0.000 C 
ATOM     17  C   UNL     1      59.958  62.358  67.364  0.00  0.00    +0.000 C 
ATOM     18  N   UNL     1      60.529  62.293  66.771  0.00  0.00    +0.000 NA
ATOM     19  C   UNL     1      60.425  61.939  66.034  0.00  0.00    +0.000 C 
ATOM     20  C   UNL     1      61.049  61.916  65.495  0.00  0.00    +0.000 A 
ATOM     21  C   UNL     1      60.944  61.562  64.758  0.00  0.00    +0.000 A 
ATOM     22  C   UNL     1      61.569  61.538  64.219  0.00  0.00    +0.000 A 
ATOM     23  C   UNL     1      62.298  61.870  64.418  0.00  0.00    +0.000 A 
ATOM     24  C   UNL     1      62.402  62.224  65.156  0.00  0.00    +0.000 A 
ATOM     25  C   UNL     1      61.778  62.247  65.694  0.00  0.00    +0.000 A 
ATOM     26  C   UNL     1      61.223  62.645  67.046  0.00  0.00    +0.000 C 
ATOM     27  C   UNL     1      61.933  62.705  66.632  0.00  0.00    +0.000 C 
ENDROOT
TORSDOF 0
ENDMDL
MODEL 2
REMARK VINA RESULT:   -13.201      1.541      4.942
REMARK INTER + INTRA:         -13.201
REMARK INTER:                 -13.201
REMARK INTRA:                   0.000
REMARK UNBOUND:                 0.000
ROOT
REMARK  Name = nemonapride
REMARK                            x       y       z     vdW  Elec       q    Type
REMARK                         _______ _______ _______ _____ _____    ______ ____
ATOM      1  C   UNL     1      62.364  61.621  63.857  0.00  0.00    +0.000 C 
ATOM      2  N   UNL     1      61.584  61.548  64.115  0.00  0.00    +0.000 NA
ATOM      3  C   UNL     1      61.369  61.823  64.862  0.00  0.00    +0.000 A 
ATOM      4  C   UNL     1      60.588  61.750  65.119  0.00  0.00    +0.000 A 
ATOM      5  C   UNL     1      60.372  62.025  65.866  0.00  0.00    +0.000 A 
ATOM      6  O   UNL     1      59.592  61.953  66.124  0.00  0.00    +0.000 OA
ATOM      7  C   UNL     1      59.377  62.228  66.871  0.00  0.00    +0.000 C 
ATOM      8  C   UNL     1      60.938  62.373  66.357  0.00  0.00    +0.000 A 
ATOM      9  C   UNL     1      61.718  62.446  66.100  0.00  0.00    +0.000 A 
ATOM     10  C   UNL     1      61.933  62.171  65.352  0.00  0.00    +0.000 A 
ATOM     11 CL   UNL     1      62.714  62.244  65.096  0.00  0.00    +0.000 Cl
ATOM     12  C   UNL     1      60.722  62.648  67.105  0.00  0.00    +0.000 C 
ATOM     13  O   UNL     1      59.941  62.575  67.361  0.00  0.00    +0.000 OA
ATOM     14  N   UNL     1      61.287  62.996  67.594  0.00  0.00    +0.000 NA
ATOM     15  C   UNL     1      61.071  63.271  68.342  0.00  0.00    +0.000 C 
ATOM     16  C   UNL     1      60.317  63.236  68.672  0.00  0.00    +0.000 C 
ATOM     17  C   UNL     1      60.352  63.573  69.425  0.00  0.00    +0.000 C 
ATOM     18  N   UNL     1      61.129  63.816  69.560  0.00  0.00    +0.000 NA
ATOM     19  C   UNL     1      61.411  64.181  70.243  0.00  0.00    +0.000 C 
ATOM     20  C   UNL     1      62.206  64.394  70.299  0.00  0.00    +0.000 A 
ATOM     21  C   UNL     1      62.488  64.759  70.982  0.00  0.00    +0.000 A 
ATOM     22  C   UNL     1      63.284  64.972  71.038  0.00  0.00    +0.000 A 
ATOM     23  C   UNL     1      63.796  64.819  70.410  0.00  0.00    +0.000 A 
ATOM     24  C   UNL     1      63.514  64.454  69.726  0.00  0.00    +0.000 A 
ATOM     25  C   UNL     1      62.719  64.241  69.671  0.00  0.00    +0.000 A 
ATOM     26  C   UNL     1      61.574  63.629  68.890  0.00  0.00    +0.000 C 
ATOM     27  C   UNL     1      62.379  63.775  68.787  0.00  0.00    +0.000 C 
ENDROOT
TORSDOF 0
ENDMDL
MODEL 3
REMARK VINA RESULT:   -12.767      1.270      5.032
REMARK INTER + INTRA:         -12.767
REMARK INTER:                 -12.767
REMARK INTRA:                   0.000
REMARK UNBOUND:                 0.000
ROOT
REMARK  Name = nemonapride
REMARK                            x       y       z     vdW  Elec       q    Type
REMARK                         _______ _______ _______ _____ _____    ______ ____
ATOM      1  C   UNL     1      60.685  62.212  65.833  0.00  0.00    +0.000 C 
ATOM      2  N   UNL     1      60.351  61.984  66.551  0.00  0.00    +0.000 NA
ATOM      3  C   UNL     1      60.634  62.302  67.258  0.00  0.00    +0.000 A 
ATOM      4  C   UNL     1      60.299  62.072  67.976  0.00  0.00    +0.000 A 
ATOM      5  C   UNL     1      60.582  62.390  68.683  0.00  0.00    +0.000 A 
ATOM      6  O   UNL     1      60.247  62.162  69.402  0.00  0.00    +0.000 OA
ATOM      7  C   UNL     1      60.530  62.480  70.108  0.00  0.00    +0.000 C 
ATOM      8  C   UNL     1      61.200  62.937  68.672  0.00  0.00    +0.000 A 
ATOM      9  C   UNL     1      61.534  63.166  67.953  0.00  0.00    +0.000 A 
ATOM     10  C   UNL     1      61.251  62.848  67.246  0.00  0.00    +0.000 A 
ATOM     11 CL   UNL     1      61.587  63.077  66.528  0.00  0.00    +0.000 Cl
ATOM     12  C   UNL     1      61.483  63.255  69.378  0.00  0.00    +0.000 C 
ATOM     13  O   UNL     1      61.148  63.026  70.097  0.00  0.00    +0.000 OA
ATOM     14  N   UNL     1      62.100  63.802  69.366  0.00  0.00    +0.000 NA
ATOM     15  C   UNL     1      62.383  64.119  70.073  0.00  0.00    +0.000 C 
ATOM     16  C   UNL     1      62.105  63.944  70.829  0.00  0.00    +0.000 C 
ATOM     17  C   UNL     1      62.544  64.385  71.372  0.00  0.00    +0.000 C 
ATOM     18  N   UNL     1      63.094  64.833  70.950  0.00  0.00    +0.000 NA
ATOM     19  C   UNL     1      63.646  65.353  71.274  0.00  0.00    +0.000 C 
ATOM     20  C   UNL     1      64.163  65.765  70.781  0.00  0.00    +0.000 A 
ATOM     21  C   UNL     1      64.715  66.285  71.105  0.00  0.00    +0.000 A 
ATOM     22  C   UNL     1      65.233  66.698  70.611  0.00  0.00    +0.000 A 
ATOM     23  C   UNL     1      65.198  66.589  69.794  0.00  0.00    +0.000 A 
ATOM     24  C   UNL     1      64.646  66.069  69.471  0.00  0.00    +0.000 A 
ATOM     25  C   UNL     1      64.129  65.657  69.963  0.00  0.00    +0.000 A 
ATOM     26  C   UNL     1      62.995  64.669  70.147  0.00  0.00    +0.000 C 
ATOM     27  C   UNL     1      63.430  64.996  69.528  0.00  0.00    +0.000 C 
ENDROOT
TORSDOF 0
ENDMDL
MODEL 4
REMARK VINA RESULT:   -12.558      1.765      5.509
REMARK INTER + INTRA:         -12.558
REMARK INTER:                 -12.558
REMARK INTRA:                   0.000
REMARK UNBOUND:                 0.000
ROOT
REMARK  Name = nemonapride
REMARK                            x       y       z     vdW  Elec       q    Type
REMARK                         _______ _______ _______ _____ _____    ______ ____
ATOM      1  C   UNL     1      60.791  62.478  67.614  0.00  0.00    +0.000 C 
ATOM      2  N   UNL     1      60.478  62.535  68.376  0.00  0.00    +0.000 NA
ATOM      3  C   UNL     1      60.834  63.028  68.933  0.00  0.00    +0.000 A 
ATOM      4  C   UNL     1      60.520  63.084  69.694  0.00  0.00    +0.000 A 
ATOM      5  C   UNL     1      60.876  63.578  70.251  0.00  0.00    +0.000 A 
ATOM      6  O   UNL     1      60.564  63.634  71.012  0.00  0.00    +0.000 OA
ATOM      7  C   UNL     1      60.919  64.128  71.569  0.00  0.00    +0.000 C 
ATOM      8  C   UNL     1      61.545  64.016  70.046  0.00  0.00    +0.000 A 
ATOM      9  C   UNL     1      61.857  63.960  69.285  0.00  0.00    +0.000 A 
ATOM     10  C   UNL     1      61.502  63.466  68.728  0.00  0.00    +0.000 A 
ATOM     11 CL   UNL     1      61.815  63.411  67.967  0.00  0.00    +0.000 Cl
ATOM     12  C   UNL     1      61.901  64.510  70.603  0.00  0.00    +0.000 C 
ATOM     13  O   UNL     1      61.587  64.566  71.365  0.00  0.00    +0.000 OA
ATOM     14  N   UNL     1      62.569  64.948  70.399  0.00  0.00    +0.000 NA
ATOM     15  C   UNL     1      62.924  65.442  70.956  0.00  0.00    +0.000 C 
ATOM     16  C   UNL     1      62.675  65.554  71.734  0.00  0.00    +0.000 C 
ATOM     17  C   UNL     1      63.189  66.092  72.092  0.00  0.00    +0.000 C 
ATOM     18  N   UNL     1      63.756  66.312  71.534  0.00  0.00    +0.000 NA
ATOM     19  C   UNL     1      64.376  66.842  71.657  0.00  0.00    +0.000 C 
ATOM     20  C   UNL     1      64.902  67.009  71.045  0.00  0.00    +0.000 A 
ATOM     21  C   UNL     1      65.523  67.538  71.167  0.00  0.00    +0.000 A 
ATOM     22  C   UNL     1      66.050  67.707  70.554  0.00  0.00    +0.000 A 
ATOM     23  C   UNL     1      65.955  67.345  69.819  0.00  0.00    +0.000 A 
ATOM     24  C   UNL     1      65.334  66.816  69.696  0.00  0.00    +0.000 A 
ATOM     25  C   UNL     1      64.808  66.648  70.309  0.00  0.00    +0.000 A 
ATOM     26  C   UNL     1      63.592  65.911  70.832  0.00  0.00    +0.000 C 
ATOM     27  C   UNL     1      64.021  65.968  70.130  0.00  0.00    +0.000 C 
ENDROOT
TORSDOF 0
ENDMDL
MODEL 5
REMARK VINA RESULT:   -12.340      3.654      4.862
REMARK INTER + INTRA:         -12.340
REMARK INTER:                 -12.340
REMARK INTRA:                   0.000
REMARK UNBOUND:                 0.000
ROOT
REMARK  Name = nemonapride
REMARK                            x       y       z     vdW  Elec       q    Type
REMARK                         _______ _______ _______ _____ _____    ______ ____
ATOM      1  C   UNL     1      66.113  67.251  70.235  0.00  0.00    +0.000 C 
ATOM      2  N   UNL     1      65.708  67.588  70.870  0.00  0.00    +0.000 NA
ATOM      3  C   UNL     1      65.029  67.226  71.166  0.00  0.00    +0.000 A 
ATOM      4  C   UNL     1      64.625  67.564  71.801  0.00  0.00    +0.000 A 
ATOM      5  C   UNL     1      63.945  67.201  72.097  0.00  0.00    +0.000 A 
ATOM      6  O   UNL     1      63.541  67.538  72.732  0.00  0.00    +0.000 OA
ATOM      7  C   UNL     1      62.861  67.176  73.028  0.00  0.00    +0.000 C 
ATOM      8  C   UNL     1      63.670  66.501  71.758  0.00  0.00    +0.000 A 
ATOM      9  C   UNL     1      64.075  66.164  71.123  0.00  0.00    +0.000 A 
ATOM     10  C   UNL     1      64.754  66.526  70.827  0.00  0.00    +0.000 A 
ATOM     11 CL   UNL     1      65.158  66.188  70.192  0.00  0.00    +0.000 Cl
ATOM     12  C   UNL     1      62.991  66.138  72.054  0.00  0.00    +0.000 C 
ATOM     13  O   UNL     1      62.587  66.476  72.689  0.00  0.00    +0.000 OA
ATOM     14  N   UNL     1      62.716  65.439  71.715  0.00  0.00    +0.000 NA
ATOM     15  C   UNL     1      62.036  65.076  72.011  0.00  0.00    +0.000 C 
ATOM     16  C   UNL     1      61.577  65.347  72.639  0.00  0.00    +0.000 C 
ATOM     17  C   UNL     1      60.953  64.817  72.747  0.00  0.00    +0.000 C 
ATOM     18  N   UNL     1      61.028  64.218  72.185  0.00  0.00    +0.000 NA
ATOM     19  C   UNL     1      60.522  63.573  72.093  0.00  0.00    +0.000 C 
ATOM     20  C   UNL     1      60.667  63.016  71.503  0.00  0.00    +0.000 A 
ATOM     21  C   UNL     1      60.162  62.370  71.412  0.00  0.00    +0.000 A 
ATOM     22  C   UNL     1      60.307  61.812  70.821  0.00  0.00    +0.000 A 
ATOM     23  C   UNL     1      60.958  61.900  70.323  0.00  0.00    +0.000 A 
ATOM     24  C   UNL     1      61.464  62.546  70.414  0.00  0.00    +0.000 A 
ATOM     25  C   UNL     1      61.319  63.103  71.004  0.00  0.00    +0.000 A 
ATOM     26  C   UNL     1      61.697  64.378  71.729  0.00  0.00    +0.000 C 
ATOM     27  C   UNL     1      61.978  63.921  71.103  0.00  0.00    +0.000 C 
ENDROOT
TORSDOF 0
ENDMDL
MODEL 6
REMARK VINA RESULT:   -12.295      1.249      2.061
REMARK INTER + INTRA:         -12.295
REMARK INTER:                 -12.295
REMARK INTRA:                   0.000
REMARK UNBOUND:                 0.000
ROOT
REMARK  Name = nemonapride
REMARK                            x       y       z     vdW  Elec       q    Type
REMARK                         _______ _______ _______ _____ _____    ______ ____
ATOM      1  C   UNL     1      65.354  66.740  70.158  0.00  0.00    +0.000 C 
ATOM      2  N   UNL     1      64.916  66.484  70.809  0.00  0.00    +0.000 NA
ATOM      3  C   UNL     1      64.282  65.967  70.703  0.00  0.00    +0.000 A 
ATOM      4  C   UNL     1      63.846  65.712  71.355  0.00  0.00    +0.000 A 
ATOM      5  C   UNL     1      63.212  65.194  71.250  0.00  0.00    +0.000 A 
ATOM      6  O   UNL     1      62.775  64.939  71.901  0.00  0.00    +0.000 OA
ATOM      7  C   UNL     1      62.141  64.421  71.796  0.00  0.00    +0.000 C 
ATOM      8  C   UNL     1      63.015  64.932  70.492  0.00  0.00    +0.000 A 
ATOM      9  C   UNL     1      63.452  65.187  69.841  0.00  0.00    +0.000 A 
ATOM     10  C   UNL     1      64.086  65.705  69.947  0.00  0.00    +0.000 A 
ATOM     11 CL   UNL     1      64.523  65.959  69.295  0.00  0.00    +0.000 Cl
ATOM     12  C   UNL     1      62.381  64.414  70.387  0.00  0.00    +0.000 C 
ATOM     13  O   UNL     1      61.944  64.159  71.039  0.00  0.00    +0.000 OA
ATOM     14  N   UNL     1      62.185  64.152  69.631  0.00  0.00    +0.000 NA
ATOM     15  C   UNL     1      61.551  63.634  69.525  0.00  0.00    +0.000 C 
ATOM     16  C   UNL     1      61.066  63.334  70.121  0.00  0.00    +0.000 C 
ATOM     17  C   UNL     1      60.506  62.840  69.769  0.00  0.00    +0.000 C 
ATOM     18  N   UNL     1      60.645  62.836  68.956  0.00  0.00    +0.000 NA
ATOM     19  C   UNL     1      60.214  62.415  68.392  0.00  0.00    +0.000 C 
ATOM     20  C   UNL     1      60.418  62.465  67.595  0.00  0.00    +0.000 A 
ATOM     21  C   UNL     1      59.987  62.044  67.032  0.00  0.00    +0.000 A 
ATOM     22  C   UNL     1      60.191  62.093  66.233  0.00  0.00    +0.000 A 
ATOM     23  C   UNL     1      60.827  62.565  66.000  0.00  0.00    +0.000 A 
ATOM     24  C   UNL     1      61.257  62.986  66.563  0.00  0.00    +0.000 A 
ATOM     25  C   UNL     1      61.054  62.936  67.360  0.00  0.00    +0.000 A 
ATOM     26  C   UNL     1      61.291  63.327  68.805  0.00  0.00    +0.000 C 
ATOM     27  C   UNL     1      61.618  63.483  68.064  0.00  0.00    +0.000 C 
ENDROOT
TORSDOF 0
ENDMDL
MODEL 7
REMARK VINA RESULT:   -11.863      2.158      5.686
REMARK INTER + INTRA:         -11.863
REMARK INTER:                 -11.863
REMARK INTRA:                   0.000
REMARK UNBOUND:                 0.000
ROOT
REMARK  Name = nemonapride
REMARK                            x       y       z     vdW  Elec       q    Type
REMARK                         _______ _______ _______ _____ _____    ______ ____
ATOM      1  C   UNL     1      60.783  62.676  66.653  0.00  0.00    +0.000 C 
ATOM      2  N   UNL     1      60.608  62.144  67.258  0.00  0.00    +0.000 NA
ATOM      3  C   UNL     1      60.624  62.393  68.044  0.00  0.00    +0.000 A 
ATOM      4  C   UNL     1      60.448  61.860  68.649  0.00  0.00    +0.000 A 
ATOM      5  C   UNL     1      60.465  62.109  69.436  0.00  0.00    +0.000 A 
ATOM      6  O   UNL     1      60.290  61.577  70.041  0.00  0.00    +0.000 OA
ATOM      7  C   UNL     1      60.306  61.826  70.827  0.00  0.00    +0.000 C 
ATOM      8  C   UNL     1      60.658  62.891  69.617  0.00  0.00    +0.000 A 
ATOM      9  C   UNL     1      60.834  63.423  69.012  0.00  0.00    +0.000 A 
ATOM     10  C   UNL     1      60.817  63.174  68.225  0.00  0.00    +0.000 A 
ATOM     11 CL   UNL     1      60.993  63.707  67.621  0.00  0.00    +0.000 Cl
ATOM     12  C   UNL     1      60.675  63.140  70.404  0.00  0.00    +0.000 C 
ATOM     13  O   UNL     1      60.499  62.606  71.008  0.00  0.00    +0.000 OA
ATOM     14  N   UNL     1      60.868  63.920  70.585  0.00  0.00    +0.000 NA
ATOM     15  C   UNL     1      60.885  64.169  71.371  0.00  0.00    +0.000 C 
ATOM     16  C   UNL     1      60.723  63.702  72.031  0.00  0.00    +0.000 C 
ATOM     17  C   UNL     1      60.804  64.174  72.704  0.00  0.00    +0.000 C 
ATOM     18  N   UNL     1      61.017  64.932  72.459  0.00  0.00    +0.000 NA
ATOM     19  C   UNL     1      61.156  65.579  72.951  0.00  0.00    +0.000 C 
ATOM     20  C   UNL     1      61.366  66.307  72.626  0.00  0.00    +0.000 A 
ATOM     21  C   UNL     1      61.505  66.954  73.118  0.00  0.00    +0.000 A 
ATOM     22  C   UNL     1      61.715  67.683  72.792  0.00  0.00    +0.000 A 
ATOM     23  C   UNL     1      61.786  67.764  71.974  0.00  0.00    +0.000 A 
ATOM     24  C   UNL     1      61.647  67.117  71.482  0.00  0.00    +0.000 A 
ATOM     25  C   UNL     1      61.437  66.389  71.808  0.00  0.00    +0.000 A 
ATOM     26  C   UNL     1      61.067  64.930  71.635  0.00  0.00    +0.000 C 
ATOM     27  C   UNL     1      61.264  65.574  71.160  0.00  0.00    +0.000 C 
ENDROOT
TORSDOF 0
ENDMDL
MODEL 8
REMARK VINA RESULT:   -11.041      4.560      6.231
REMARK INTER + INTRA:         -11.041
REMARK INTER:                 -11.041
REMARK INTRA:                   0.000
REMARK UNBOUND:                 0.000
ROOT
REMARK  Name = nemonapride
REMARK                            x       y       z     vdW  Elec       q    Type
REMARK                         _______ _______ _______ _____ _____    ______ ____
ATOM      1  C   UNL     1      59.372  66.983  68.787  0.00  0.00    +0.000 C 
ATOM      2  N   UNL     1      59.353  66.619  69.527  0.00  0.00    +0.000 NA
ATOM      3  C   UNL     1      60.048  66.533  69.963  0.00  0.00    +0.000 A 
ATOM      4  C   UNL     1      60.028  66.168  70.703  0.00  0.00    +0.000 A 
ATOM      5  C   UNL     1      60.723  66.082  71.138  0.00  0.00    +0.000 A 
ATOM      6  O   UNL     1      60.704  65.718  71.878  0.00  0.00    +0.000 OA
ATOM      7  C   UNL     1      61.399  65.632  72.314  0.00  0.00    +0.000 C 
ATOM      8  C   UNL     1      61.438  66.360  70.834  0.00  0.00    +0.000 A 
ATOM      9  C   UNL     1      61.457  66.725  70.094  0.00  0.00    +0.000 A 
ATOM     10  C   UNL     1      60.762  66.811  69.659  0.00  0.00    +0.000 A 
ATOM     11 CL   UNL     1      60.782  67.175  68.919  0.00  0.00    +0.000 Cl
ATOM     12  C   UNL     1      62.133  66.274  71.270  0.00  0.00    +0.000 C 
ATOM     13  O   UNL     1      62.113  65.910  72.010  0.00  0.00    +0.000 OA
ATOM     14  N   UNL     1      62.847  66.552  70.966  0.00  0.00    +0.000 NA
ATOM     15  C   UNL     1      63.543  66.466  71.402  0.00  0.00    +0.000 C 
ATOM     16  C   UNL     1      63.608  66.115  72.145  0.00  0.00    +0.000 C 
ATOM     17  C   UNL     1      64.401  66.148  72.374  0.00  0.00    +0.000 C 
ATOM     18  N   UNL     1      64.825  66.519  71.771  0.00  0.00    +0.000 NA
ATOM     19  C   UNL     1      65.636  66.667  71.769  0.00  0.00    +0.000 C 
ATOM     20  C   UNL     1      65.985  67.045  71.124  0.00  0.00    +0.000 A 
ATOM     21  C   UNL     1      66.796  67.193  71.122  0.00  0.00    +0.000 A 
ATOM     22  C   UNL     1      67.146  67.571  70.477  0.00  0.00    +0.000 A 
ATOM     23  C   UNL     1      66.682  67.801  69.834  0.00  0.00    +0.000 A 
ATOM     24  C   UNL     1      65.871  67.653  69.836  0.00  0.00    +0.000 A 
ATOM     25  C   UNL     1      65.522  67.275  70.481  0.00  0.00    +0.000 A 
ATOM     26  C   UNL     1      64.294  66.716  71.170  0.00  0.00    +0.000 C 
ATOM     27  C   UNL     1      64.482  67.095  70.462  0.00  0.00    +0.000 C 
ENDROOT
TORSDOF 0
ENDMDL
