MODEL 1
REMARK VINA RESULT:    -8.239      0.000      0.000
REMARK INTER + INTRA:          -8.239
REMARK INTER:                  -8.239
REMARK INTRA:                   0.000
REMARK UNBOUND:                 0.000
ROOT
REMARK  Name = neostigmine
REMARK                            x       y       z     vdW  Elec       q    Type
REMARK                         _______ _______ _______ _____ _____    ______ ____
ATOM      1  C   UNL     1      60.313  63.681  68.929  0.00  0.00    +0.000 C 
ATOM      2  N   UNL     1      60.853  63.556  68.318  0.00  0.00    +0.000 N 
ATOM      3  C   UNL     1      61.608  63.886  68.359  0.00  0.00    +0.000 C 
ATOM      4  C   UNL     1      60.638  63.100  67.665  0.00  0.00    +0.000 C 
ATOM      5  O   UNL     1      59.883  62.769  67.623  0.00  0.00    +0.000 OA
ATOM      6  O   UNL     1      61.178  62.974  67.053  0.00  0.00    +0.000 OA
ATOM      7  C   UNL     1      60.963  62.519  66.401  0.00  0.00    +0.000 A 
ATOM      8  C   UNL     1      61.502  62.394  65.789  0.00  0.00    +0.000 A 
ATOM      9  C   UNL     1      61.287  61.938  65.136  0.00  0.00    +0.000 A 
ATOM     10  C   UNL     1      60.533  61.608  65.094  0.00  0.00    +0.000 A 
ATOM     11  C   UNL     1      59.992  61.733  65.706  0.00  0.00    +0.000 A 
ATOM     12  C   UNL     1      60.208  62.188  66.359  0.00  0.00    +0.000 A 
ATOM     13  N   UNL     1      61.826  61.813  64.525  0.00  0.00    +0.000 NA
ATOM     14  C   UNL     1      62.366  61.687  63.913  0.00  0.00    +0.000 C 
ATOM     15  C   UNL     1      61.266  61.359  64.123  0.00  0.00    +0.000 C 
ATOM     16  C   UNL     1      62.386  62.267  64.926  0.00  0.00    +0.000 C 
ENDROOT
TORSDOF 0
ENDMDL
MODEL 2
REMARK VINA RESULT:    -7.814      0.881      3.509
REMARK INTER + INTRA:          -7.814
REMARK INTER:                  -7.814
REMARK INTRA:                   0.000
REMARK UNBOUND:                 0.000
ROOT
REMARK  Name = neostigmine
REMARK                            x       y       z     vdW  Elec       q    Type
REMARK                         _______ _______ _______ _____ _____    ______ ____
ATOM      1  C   UNL     1      61.314  61.240  63.825  0.00  0.00    +0.000 C 
ATOM      2  N   UNL     1      61.601  61.659  64.475  0.00  0.00    +0.000 N 
ATOM      3  C   UNL     1      62.389  61.905  64.494  0.00  0.00    +0.000 C 
ATOM      4  C   UNL     1      61.101  61.834  65.107  0.00  0.00    +0.000 C 
ATOM      5  O   UNL     1      60.312  61.588  65.089  0.00  0.00    +0.000 OA
ATOM      6  O   UNL     1      61.387  62.253  65.758  0.00  0.00    +0.000 OA
ATOM      7  C   UNL     1      60.887  62.427  66.389  0.00  0.00    +0.000 A 
ATOM      8  C   UNL     1      61.173  62.846  67.039  0.00  0.00    +0.000 A 
ATOM      9  C   UNL     1      60.672  63.021  67.671  0.00  0.00    +0.000 A 
ATOM     10  C   UNL     1      59.885  62.776  67.653  0.00  0.00    +0.000 A 
ATOM     11  C   UNL     1      59.598  62.356  67.003  0.00  0.00    +0.000 A 
ATOM     12  C   UNL     1      60.099  62.182  66.371  0.00  0.00    +0.000 A 
ATOM     13  N   UNL     1      60.959  63.440  68.321  0.00  0.00    +0.000 NA
ATOM     14  C   UNL     1      61.246  63.859  68.971  0.00  0.00    +0.000 C 
ATOM     15  C   UNL     1      60.215  63.399  68.676  0.00  0.00    +0.000 C 
ATOM     16  C   UNL     1      61.703  63.481  67.967  0.00  0.00    +0.000 C 
ENDROOT
TORSDOF 0
ENDMDL
MODEL 3
REMARK VINA RESULT:    -7.374      2.340      5.101
REMARK INTER + INTRA:          -7.374
REMARK INTER:                  -7.374
REMARK INTRA:                   0.000
REMARK UNBOUND:                 0.000
ROOT
REMARK  Name = neostigmine
REMARK                            x       y       z     vdW  Elec       q    Type
REMARK                         _______ _______ _______ _____ _____    ______ ____
ATOM      1  C   UNL     1      60.236  62.269  67.098  0.00  0.00    +0.000 C 
ATOM      2  N   UNL     1      60.552  62.753  67.687  0.00  0.00    +0.000 N 
ATOM      3  C   UNL     1      60.877  63.486  67.491  0.00  0.00    +0.000 C 
ATOM      4  C   UNL     1      60.542  62.505  68.474  0.00  0.00    +0.000 C 
ATOM      5  O   UNL     1      60.217  61.772  68.671  0.00  0.00    +0.000 OA
ATOM      6  O   UNL     1      60.858  62.988  69.064  0.00  0.00    +0.000 OA
ATOM      7  C   UNL     1      60.848  62.740  69.849  0.00  0.00    +0.000 A 
ATOM      8  C   UNL     1      61.163  63.223  70.439  0.00  0.00    +0.000 A 
ATOM      9  C   UNL     1      61.153  62.974  71.226  0.00  0.00    +0.000 A 
ATOM     10  C   UNL     1      60.828  62.243  71.423  0.00  0.00    +0.000 A 
ATOM     11  C   UNL     1      60.513  61.759  70.834  0.00  0.00    +0.000 A 
ATOM     12  C   UNL     1      60.522  62.007  70.047  0.00  0.00    +0.000 A 
ATOM     13  N   UNL     1      61.468  63.458  71.815  0.00  0.00    +0.000 NA
ATOM     14  C   UNL     1      61.783  63.942  72.405  0.00  0.00    +0.000 C 
ATOM     15  C   UNL     1      61.275  62.892  72.383  0.00  0.00    +0.000 C 
ATOM     16  C   UNL     1      61.662  64.024  71.247  0.00  0.00    +0.000 C 
ENDROOT
TORSDOF 0
ENDMDL
MODEL 4
REMARK VINA RESULT:    -7.213      2.400      3.651
REMARK INTER + INTRA:          -7.213
REMARK INTER:                  -7.213
REMARK INTRA:                   0.000
REMARK UNBOUND:                 0.000
ROOT
REMARK  Name = neostigmine
REMARK                            x       y       z     vdW  Elec       q    Type
REMARK                         _______ _______ _______ _____ _____    ______ ____
ATOM      1  C   UNL     1      61.652  63.801  72.649  0.00  0.00    +0.000 C 
ATOM      2  N   UNL     1      61.750  63.947  71.843  0.00  0.00    +0.000 N 
ATOM      3  C   UNL     1      62.169  64.612  71.590  0.00  0.00    +0.000 C 
ATOM      4  C   UNL     1      61.428  63.428  71.288  0.00  0.00    +0.000 C 
ATOM      5  O   UNL     1      61.009  62.763  71.540  0.00  0.00    +0.000 OA
ATOM      6  O   UNL     1      61.526  63.573  70.481  0.00  0.00    +0.000 OA
ATOM      7  C   UNL     1      61.204  63.055  69.927  0.00  0.00    +0.000 A 
ATOM      8  C   UNL     1      61.301  63.200  69.121  0.00  0.00    +0.000 A 
ATOM      9  C   UNL     1      60.979  62.681  68.567  0.00  0.00    +0.000 A 
ATOM     10  C   UNL     1      60.560  62.017  68.818  0.00  0.00    +0.000 A 
ATOM     11  C   UNL     1      60.463  61.871  69.625  0.00  0.00    +0.000 A 
ATOM     12  C   UNL     1      60.784  62.390  70.179  0.00  0.00    +0.000 A 
ATOM     13  N   UNL     1      61.077  62.826  67.761  0.00  0.00    +0.000 NA
ATOM     14  C   UNL     1      61.174  62.971  66.954  0.00  0.00    +0.000 C 
ATOM     15  C   UNL     1      60.649  62.142  67.585  0.00  0.00    +0.000 C 
ATOM     16  C   UNL     1      61.505  63.509  67.935  0.00  0.00    +0.000 C 
ENDROOT
TORSDOF 0
ENDMDL
MODEL 5
REMARK VINA RESULT:    -7.168      3.813      5.162
REMARK INTER + INTRA:          -7.168
REMARK INTER:                  -7.168
REMARK INTRA:                   0.000
REMARK UNBOUND:                 0.000
ROOT
REMARK  Name = neostigmine
REMARK                            x       y       z     vdW  Elec       q    Type
REMARK                         _______ _______ _______ _____ _____    ______ ____
ATOM      1  C   UNL     1      59.359  67.308  71.184  0.00  0.00    +0.000 C 
ATOM      2  N   UNL     1      59.559  66.714  70.647  0.00  0.00    +0.000 N 
ATOM      3  C   UNL     1      59.653  66.894  69.847  0.00  0.00    +0.000 C 
ATOM      4  C   UNL     1      59.665  65.939  70.910  0.00  0.00    +0.000 C 
ATOM      5  O   UNL     1      59.571  65.758  71.710  0.00  0.00    +0.000 OA
ATOM      6  O   UNL     1      59.864  65.344  70.373  0.00  0.00    +0.000 OA
ATOM      7  C   UNL     1      59.970  64.571  70.636  0.00  0.00    +0.000 A 
ATOM      8  C   UNL     1      60.170  63.976  70.100  0.00  0.00    +0.000 A 
ATOM      9  C   UNL     1      60.275  63.201  70.364  0.00  0.00    +0.000 A 
ATOM     10  C   UNL     1      60.182  63.021  71.163  0.00  0.00    +0.000 A 
ATOM     11  C   UNL     1      59.982  63.615  71.700  0.00  0.00    +0.000 A 
ATOM     12  C   UNL     1      59.876  64.390  71.436  0.00  0.00    +0.000 A 
ATOM     13  N   UNL     1      60.475  62.608  69.828  0.00  0.00    +0.000 NA
ATOM     14  C   UNL     1      60.674  62.013  69.291  0.00  0.00    +0.000 C 
ATOM     15  C   UNL     1      60.482  62.055  70.441  0.00  0.00    +0.000 C 
ATOM     16  C   UNL     1      60.468  63.158  69.214  0.00  0.00    +0.000 C 
ENDROOT
TORSDOF 0
ENDMDL
MODEL 6
REMARK VINA RESULT:    -7.103      5.044      6.672
REMARK INTER + INTRA:          -7.103
REMARK INTER:                  -7.103
REMARK INTRA:                   0.000
REMARK UNBOUND:                 0.000
ROOT
REMARK  Name = neostigmine
REMARK                            x       y       z     vdW  Elec       q    Type
REMARK                         _______ _______ _______ _____ _____    ______ ____
ATOM      1  C   UNL     1      61.860  63.223  70.712  0.00  0.00    +0.000 C 
ATOM      2  N   UNL     1      62.276  63.831  71.083  0.00  0.00    +0.000 N 
ATOM      3  C   UNL     1      62.107  64.031  71.865  0.00  0.00    +0.000 C 
ATOM      4  C   UNL     1      62.862  64.241  70.670  0.00  0.00    +0.000 C 
ATOM      5  O   UNL     1      63.031  64.042  69.887  0.00  0.00    +0.000 OA
ATOM      6  O   UNL     1      63.279  64.850  71.041  0.00  0.00    +0.000 OA
ATOM      7  C   UNL     1      63.864  65.259  70.629  0.00  0.00    +0.000 A 
ATOM      8  C   UNL     1      64.280  65.867  70.998  0.00  0.00    +0.000 A 
ATOM      9  C   UNL     1      64.866  66.276  70.586  0.00  0.00    +0.000 A 
ATOM     10  C   UNL     1      65.035  66.077  69.804  0.00  0.00    +0.000 A 
ATOM     11  C   UNL     1      64.619  65.469  69.433  0.00  0.00    +0.000 A 
ATOM     12  C   UNL     1      64.033  65.059  69.846  0.00  0.00    +0.000 A 
ATOM     13  N   UNL     1      65.282  66.884  70.956  0.00  0.00    +0.000 NA
ATOM     14  C   UNL     1      65.699  67.493  71.326  0.00  0.00    +0.000 C 
ATOM     15  C   UNL     1      65.718  67.006  70.266  0.00  0.00    +0.000 C 
ATOM     16  C   UNL     1      64.846  66.764  71.646  0.00  0.00    +0.000 C 
ENDROOT
TORSDOF 0
ENDMDL
MODEL 7
REMARK VINA RESULT:    -6.979      4.164      6.495
REMARK INTER + INTRA:          -6.979
REMARK INTER:                  -6.979
REMARK INTRA:                   0.000
REMARK UNBOUND:                 0.000
ROOT
REMARK  Name = neostigmine
REMARK                            x       y       z     vdW  Elec       q    Type
REMARK                         _______ _______ _______ _____ _____    ______ ____
ATOM      1  C   UNL     1      60.496  61.952  70.628  0.00  0.00    +0.000 C 
ATOM      2  N   UNL     1      60.469  62.747  70.407  0.00  0.00    +0.000 N 
ATOM      3  C   UNL     1      60.791  62.988  69.687  0.00  0.00    +0.000 C 
ATOM      4  C   UNL     1      60.119  63.302  70.908  0.00  0.00    +0.000 C 
ATOM      5  O   UNL     1      59.797  63.061  71.629  0.00  0.00    +0.000 OA
ATOM      6  O   UNL     1      60.091  64.097  70.688  0.00  0.00    +0.000 OA
ATOM      7  C   UNL     1      59.742  64.651  71.188  0.00  0.00    +0.000 A 
ATOM      8  C   UNL     1      59.714  65.446  70.969  0.00  0.00    +0.000 A 
ATOM      9  C   UNL     1      59.364  66.000  71.470  0.00  0.00    +0.000 A 
ATOM     10  C   UNL     1      59.043  65.760  72.190  0.00  0.00    +0.000 A 
ATOM     11  C   UNL     1      59.070  64.965  72.410  0.00  0.00    +0.000 A 
ATOM     12  C   UNL     1      59.420  64.411  71.910  0.00  0.00    +0.000 A 
ATOM     13  N   UNL     1      59.337  66.794  71.250  0.00  0.00    +0.000 NA
ATOM     14  C   UNL     1      59.309  67.590  71.030  0.00  0.00    +0.000 C 
ATOM     15  C   UNL     1      58.949  66.976  71.955  0.00  0.00    +0.000 C 
ATOM     16  C   UNL     1      59.724  66.613  70.545  0.00  0.00    +0.000 C 
ENDROOT
TORSDOF 0
ENDMDL
MODEL 8
REMARK VINA RESULT:    -6.929      3.762      5.218
REMARK INTER + INTRA:          -6.929
REMARK INTER:                  -6.929
REMARK INTRA:                   0.000
REMARK UNBOUND:                 0.000
ROOT
REMARK  Name = neostigmine
REMARK                            x       y       z     vdW  Elec       q    Type
REMARK                         _______ _______ _______ _____ _____    ______ ____
ATOM      1  C   UNL     1      62.835  66.106  72.348  0.00  0.00    +0.000 C 
ATOM      2  N   UNL     1      62.576  65.722  71.664  0.00  0.00    +0.000 N 
ATOM      3  C   UNL     1      62.676  66.079  70.927  0.00  0.00    +0.000 C 
ATOM      4  C   UNL     1      62.218  64.981  71.718  0.00  0.00    +0.000 C 
ATOM      5  O   UNL     1      62.118  64.623  72.456  0.00  0.00    +0.000 OA
ATOM      6  O   UNL     1      61.959  64.597  71.035  0.00  0.00    +0.000 OA
ATOM      7  C   UNL     1      61.601  63.856  71.089  0.00  0.00    +0.000 A 
ATOM      8  C   UNL     1      61.342  63.472  70.407  0.00  0.00    +0.000 A 
ATOM      9  C   UNL     1      60.984  62.731  70.461  0.00  0.00    +0.000 A 
ATOM     10  C   UNL     1      60.884  62.374  71.197  0.00  0.00    +0.000 A 
ATOM     11  C   UNL     1      61.143  62.758  71.880  0.00  0.00    +0.000 A 
ATOM     12  C   UNL     1      61.501  63.499  71.826  0.00  0.00    +0.000 A 
ATOM     13  N   UNL     1      60.725  62.347  69.778  0.00  0.00    +0.000 NA
ATOM     14  C   UNL     1      60.467  61.963  69.095  0.00  0.00    +0.000 C 
ATOM     15  C   UNL     1      60.461  61.713  70.234  0.00  0.00    +0.000 C 
ATOM     16  C   UNL     1      60.990  62.981  69.321  0.00  0.00    +0.000 C 
ENDROOT
TORSDOF 0
ENDMDL
MODEL 9
REMARK VINA RESULT:    -6.794      2.340      4.897
REMARK INTER + INTRA:          -6.794
REMARK INTER:                  -6.794
REMARK INTRA:                   0.000
REMARK UNBOUND:                 0.000
ROOT
REMARK  Name = neostigmine
REMARK                            x       y       z     vdW  Elec       q    Type
REMARK                         _______ _______ _______ _____ _____    ______ ____
ATOM      1  C   UNL     1      60.220  62.566  67.766  0.00  0.00    +0.000 C 
ATOM      2  N   UNL     1      60.952  62.940  67.842  0.00  0.00    +0.000 N 
ATOM      3  C   UNL     1      61.439  63.033  67.182  0.00  0.00    +0.000 C 
ATOM      4  C   UNL     1      61.196  63.222  68.578  0.00  0.00    +0.000 C 
ATOM      5  O   UNL     1      60.709  63.129  69.238  0.00  0.00    +0.000 OA
ATOM      6  O   UNL     1      61.928  63.597  68.654  0.00  0.00    +0.000 OA
ATOM      7  C   UNL     1      62.172  63.878  69.389  0.00  0.00    +0.000 A 
ATOM      8  C   UNL     1      62.903  64.253  69.466  0.00  0.00    +0.000 A 
ATOM      9  C   UNL     1      63.147  64.534  70.202  0.00  0.00    +0.000 A 
ATOM     10  C   UNL     1      62.660  64.442  70.861  0.00  0.00    +0.000 A 
ATOM     11  C   UNL     1      61.929  64.067  70.785  0.00  0.00    +0.000 A 
ATOM     12  C   UNL     1      61.685  63.786  70.049  0.00  0.00    +0.000 A 
ATOM     13  N   UNL     1      63.878  64.909  70.278  0.00  0.00    +0.000 NA
ATOM     14  C   UNL     1      64.609  65.283  70.354  0.00  0.00    +0.000 C 
ATOM     15  C   UNL     1      63.738  65.018  71.084  0.00  0.00    +0.000 C 
ATOM     16  C   UNL     1      64.018  64.800  69.472  0.00  0.00    +0.000 C 
ENDROOT
TORSDOF 0
ENDMDL
