MODEL 1
REMARK VINA RESULT:   -18.023      0.000      0.000
REMARK INTER + INTRA:         -18.023
REMARK INTER:                 -18.023
REMARK INTRA:                   0.000
REMARK UNBOUND:                 0.000
ROOT
REMARK  Name = netupitant
REMARK                            x       y       z     vdW  Elec       q    Type
REMARK                         _______ _______ _______ _____ _____    ______ ____
ATOM      1  C   UNL     1      60.919  62.581  68.665  0.00  0.00    +0.000 C 
ATOM      2  N   UNL     1      60.802  63.367  68.444  0.00  0.00    +0.000 N 
ATOM      3  C   UNL     1      60.973  63.608  67.672  0.00  0.00    +0.000 C 
ATOM      4  O   UNL     1      60.857  64.395  67.451  0.00  0.00    +0.000 OA
ATOM      5  C   UNL     1      61.259  63.063  67.124  0.00  0.00    +0.000 C 
ATOM      6  C   UNL     1      61.228  62.470  67.697  0.00  0.00    +0.000 C 
ATOM      7  C   UNL     1      61.291  63.655  66.551  0.00  0.00    +0.000 C 
ATOM      8  C   UNL     1      61.546  62.517  66.575  0.00  0.00    +0.000 A 
ATOM      9  C   UNL     1      61.662  61.730  66.797  0.00  0.00    +0.000 A 
ATOM     10  C   UNL     1      61.948  61.185  66.248  0.00  0.00    +0.000 A 
ATOM     11  C   UNL     1      62.118  61.426  65.478  0.00  0.00    +0.000 A 
ATOM     12  C   UNL     1      62.003  62.212  65.255  0.00  0.00    +0.000 A 
ATOM     13  C   UNL     1      61.716  62.758  65.804  0.00  0.00    +0.000 A 
ATOM     14  C   UNL     1      62.173  62.453  64.485  0.00  0.00    +0.000 C 
ATOM     15  F   UNL     1      62.343  62.693  63.715  0.00  0.00    +0.000 F 
ATOM     16  F   UNL     1      62.405  61.684  64.297  0.00  0.00    +0.000 F 
ATOM     17  F   UNL     1      61.940  63.222  64.675  0.00  0.00    +0.000 F 
ATOM     18  C   UNL     1      62.064  60.399  66.470  0.00  0.00    +0.000 C 
ATOM     19  F   UNL     1      62.180  59.613  66.691  0.00  0.00    +0.000 F 
ATOM     20  F   UNL     1      62.327  60.224  65.708  0.00  0.00    +0.000 F 
ATOM     21  F   UNL     1      61.800  60.576  67.232  0.00  0.00    +0.000 F 
ATOM     22  C   UNL     1      60.516  63.912  68.992  0.00  0.00    +0.000 A 
ATOM     23  C   UNL     1      60.400  64.699  68.770  0.00  0.00    +0.000 A 
ATOM     24  N   UNL     1      60.114  65.244  69.319  0.00  0.00    +0.000 NA
ATOM     25  C   UNL     1      59.944  65.003  70.089  0.00  0.00    +0.000 A 
ATOM     26  C   UNL     1      60.060  64.218  70.311  0.00  0.00    +0.000 A 
ATOM     27  C   UNL     1      60.346  63.672  69.762  0.00  0.00    +0.000 A 
ATOM     28  C   UNL     1      60.462  62.886  69.983  0.00  0.00    +0.000 A 
ATOM     29  C   UNL     1      60.291  62.645  70.755  0.00  0.00    +0.000 A 
ATOM     30  C   UNL     1      60.005  63.191  71.303  0.00  0.00    +0.000 C 
ATOM     31  C   UNL     1      60.408  61.859  70.976  0.00  0.00    +0.000 A 
ATOM     32  C   UNL     1      60.694  61.314  70.428  0.00  0.00    +0.000 A 
ATOM     33  C   UNL     1      60.864  61.554  69.657  0.00  0.00    +0.000 A 
ATOM     34  C   UNL     1      60.748  62.341  69.435  0.00  0.00    +0.000 A 
ATOM     35  N   UNL     1      59.657  65.549  70.639  0.00  0.00    +0.000 N 
ATOM     36  C   UNL     1      59.541  66.335  70.416  0.00  0.00    +0.000 C 
ATOM     37  C   UNL     1      59.255  66.881  70.965  0.00  0.00    +0.000 C 
ATOM     38  N   UNL     1      59.084  66.640  71.736  0.00  0.00    +0.000 NA
ATOM     39  C   UNL     1      58.798  67.185  72.284  0.00  0.00    +0.000 C 
ATOM     40  C   UNL     1      59.200  65.854  71.957  0.00  0.00    +0.000 C 
ATOM     41  C   UNL     1      59.487  65.308  71.408  0.00  0.00    +0.000 C 
ENDROOT
TORSDOF 0
ENDMDL
MODEL 2
REMARK VINA RESULT:   -17.243      4.522      6.331
REMARK INTER + INTRA:         -17.243
REMARK INTER:                 -17.243
REMARK INTRA:                   0.000
REMARK UNBOUND:                 0.000
ROOT
REMARK  Name = netupitant
REMARK                            x       y       z     vdW  Elec       q    Type
REMARK                         _______ _______ _______ _____ _____    ______ ____
ATOM      1  C   UNL     1      62.112  65.823  70.313  0.00  0.00    +0.000 C 
ATOM      2  N   UNL     1      62.549  65.296  69.853  0.00  0.00    +0.000 N 
ATOM      3  C   UNL     1      63.373  65.280  69.915  0.00  0.00    +0.000 C 
ATOM      4  O   UNL     1      63.811  64.752  69.455  0.00  0.00    +0.000 OA
ATOM      5  C   UNL     1      63.758  65.790  70.436  0.00  0.00    +0.000 C 
ATOM      6  C   UNL     1      63.030  66.104  70.666  0.00  0.00    +0.000 C 
ATOM      7  C   UNL     1      64.485  65.476  70.207  0.00  0.00    +0.000 C 
ATOM      8  C   UNL     1      64.142  66.300  70.958  0.00  0.00    +0.000 A 
ATOM      9  C   UNL     1      63.705  66.828  71.418  0.00  0.00    +0.000 A 
ATOM     10  C   UNL     1      64.089  67.338  71.940  0.00  0.00    +0.000 A 
ATOM     11  C   UNL     1      64.912  67.321  72.001  0.00  0.00    +0.000 A 
ATOM     12  C   UNL     1      65.350  66.794  71.541  0.00  0.00    +0.000 A 
ATOM     13  C   UNL     1      64.966  66.284  71.020  0.00  0.00    +0.000 A 
ATOM     14  C   UNL     1      66.172  66.777  71.603  0.00  0.00    +0.000 C 
ATOM     15  F   UNL     1      66.995  66.761  71.665  0.00  0.00    +0.000 F 
ATOM     16  F   UNL     1      66.141  67.376  72.170  0.00  0.00    +0.000 F 
ATOM     17  F   UNL     1      66.202  66.178  71.036  0.00  0.00    +0.000 F 
ATOM     18  C   UNL     1      63.652  67.865  72.399  0.00  0.00    +0.000 C 
ATOM     19  F   UNL     1      63.215  68.392  72.859  0.00  0.00    +0.000 F 
ATOM     20  F   UNL     1      64.349  68.149  72.735  0.00  0.00    +0.000 F 
ATOM     21  F   UNL     1      62.955  67.579  72.062  0.00  0.00    +0.000 F 
ATOM     22  C   UNL     1      62.165  64.786  69.332  0.00  0.00    +0.000 A 
ATOM     23  C   UNL     1      62.603  64.259  68.872  0.00  0.00    +0.000 A 
ATOM     24  N   UNL     1      62.218  63.748  68.350  0.00  0.00    +0.000 NA
ATOM     25  C   UNL     1      61.395  63.765  68.289  0.00  0.00    +0.000 A 
ATOM     26  C   UNL     1      60.958  64.292  68.748  0.00  0.00    +0.000 A 
ATOM     27  C   UNL     1      61.343  64.802  69.270  0.00  0.00    +0.000 A 
ATOM     28  C   UNL     1      60.906  65.330  69.730  0.00  0.00    +0.000 A 
ATOM     29  C   UNL     1      60.083  65.346  69.668  0.00  0.00    +0.000 A 
ATOM     30  C   UNL     1      59.698  64.836  69.146  0.00  0.00    +0.000 C 
ATOM     31  C   UNL     1      59.646  65.873  70.127  0.00  0.00    +0.000 A 
ATOM     32  C   UNL     1      60.030  66.383  70.648  0.00  0.00    +0.000 A 
ATOM     33  C   UNL     1      60.852  66.367  70.711  0.00  0.00    +0.000 A 
ATOM     34  C   UNL     1      61.290  65.839  70.250  0.00  0.00    +0.000 A 
ATOM     35  N   UNL     1      61.010  63.254  67.767  0.00  0.00    +0.000 N 
ATOM     36  C   UNL     1      61.448  62.728  67.307  0.00  0.00    +0.000 C 
ATOM     37  C   UNL     1      61.064  62.217  66.786  0.00  0.00    +0.000 C 
ATOM     38  N   UNL     1      60.240  62.234  66.724  0.00  0.00    +0.000 NA
ATOM     39  C   UNL     1      59.856  61.724  66.203  0.00  0.00    +0.000 C 
ATOM     40  C   UNL     1      59.803  62.761  67.183  0.00  0.00    +0.000 C 
ATOM     41  C   UNL     1      60.188  63.271  67.705  0.00  0.00    +0.000 C 
ENDROOT
TORSDOF 0
ENDMDL
MODEL 3
REMARK VINA RESULT:   -17.000      3.247      5.990
REMARK INTER + INTRA:         -17.000
REMARK INTER:                 -17.000
REMARK INTRA:                   0.000
REMARK UNBOUND:                 0.000
ROOT
REMARK  Name = netupitant
REMARK                            x       y       z     vdW  Elec       q    Type
REMARK                         _______ _______ _______ _____ _____    ______ ____
ATOM      1  C   UNL     1      60.222  63.708  69.845  0.00  0.00    +0.000 C 
ATOM      2  N   UNL     1      60.402  64.141  69.167  0.00  0.00    +0.000 N 
ATOM      3  C   UNL     1      60.303  64.961  69.164  0.00  0.00    +0.000 C 
ATOM      4  O   UNL     1      60.483  65.396  68.485  0.00  0.00    +0.000 OA
ATOM      5  C   UNL     1      60.025  65.346  69.839  0.00  0.00    +0.000 C 
ATOM      6  C   UNL     1      59.978  64.622  70.232  0.00  0.00    +0.000 C 
ATOM      7  C   UNL     1      60.071  66.070  69.445  0.00  0.00    +0.000 C 
ATOM      8  C   UNL     1      59.746  65.731  70.513  0.00  0.00    +0.000 A 
ATOM      9  C   UNL     1      59.567  65.296  71.192  0.00  0.00    +0.000 A 
ATOM     10  C   UNL     1      59.289  65.681  71.867  0.00  0.00    +0.000 A 
ATOM     11  C   UNL     1      59.190  66.500  71.863  0.00  0.00    +0.000 A 
ATOM     12  C   UNL     1      59.370  66.935  71.185  0.00  0.00    +0.000 A 
ATOM     13  C   UNL     1      59.648  66.551  70.510  0.00  0.00    +0.000 A 
ATOM     14  C   UNL     1      59.271  67.754  71.181  0.00  0.00    +0.000 C 
ATOM     15  F   UNL     1      59.172  68.573  71.178  0.00  0.00    +0.000 F 
ATOM     16  F   UNL     1      59.007  67.725  71.962  0.00  0.00    +0.000 F 
ATOM     17  F   UNL     1      59.536  67.782  70.400  0.00  0.00    +0.000 F 
ATOM     18  C   UNL     1      59.109  65.247  72.544  0.00  0.00    +0.000 C 
ATOM     19  F   UNL     1      58.930  64.813  73.222  0.00  0.00    +0.000 F 
ATOM     20  F   UNL     1      58.892  65.942  72.931  0.00  0.00    +0.000 F 
ATOM     21  F   UNL     1      59.327  64.552  72.156  0.00  0.00    +0.000 F 
ATOM     22  C   UNL     1      60.679  63.757  68.493  0.00  0.00    +0.000 A 
ATOM     23  C   UNL     1      60.859  64.192  67.815  0.00  0.00    +0.000 A 
ATOM     24  N   UNL     1      61.137  63.807  67.140  0.00  0.00    +0.000 NA
ATOM     25  C   UNL     1      61.236  62.988  67.144  0.00  0.00    +0.000 A 
ATOM     26  C   UNL     1      61.056  62.553  67.821  0.00  0.00    +0.000 A 
ATOM     27  C   UNL     1      60.778  62.938  68.496  0.00  0.00    +0.000 A 
ATOM     28  C   UNL     1      60.598  62.505  69.174  0.00  0.00    +0.000 A 
ATOM     29  C   UNL     1      60.697  61.685  69.178  0.00  0.00    +0.000 A 
ATOM     30  C   UNL     1      60.975  61.300  68.503  0.00  0.00    +0.000 C 
ATOM     31  C   UNL     1      60.517  61.251  69.856  0.00  0.00    +0.000 A 
ATOM     32  C   UNL     1      60.240  61.636  70.530  0.00  0.00    +0.000 A 
ATOM     33  C   UNL     1      60.141  62.454  70.527  0.00  0.00    +0.000 A 
ATOM     34  C   UNL     1      60.321  62.889  69.848  0.00  0.00    +0.000 A 
ATOM     35  N   UNL     1      61.514  62.602  66.468  0.00  0.00    +0.000 N 
ATOM     36  C   UNL     1      61.694  63.037  65.791  0.00  0.00    +0.000 C 
ATOM     37  C   UNL     1      61.972  62.653  65.116  0.00  0.00    +0.000 C 
ATOM     38  N   UNL     1      62.070  61.833  65.119  0.00  0.00    +0.000 NA
ATOM     39  C   UNL     1      62.348  61.448  64.445  0.00  0.00    +0.000 C 
ATOM     40  C   UNL     1      61.891  61.399  65.797  0.00  0.00    +0.000 C 
ATOM     41  C   UNL     1      61.613  61.784  66.472  0.00  0.00    +0.000 C 
ENDROOT
TORSDOF 0
ENDMDL
MODEL 4
REMARK VINA RESULT:   -16.460      3.505      5.789
REMARK INTER + INTRA:         -16.460
REMARK INTER:                 -16.460
REMARK INTRA:                   0.000
REMARK UNBOUND:                 0.000
ROOT
REMARK  Name = netupitant
REMARK                            x       y       z     vdW  Elec       q    Type
REMARK                         _______ _______ _______ _____ _____    ______ ____
ATOM      1  C   UNL     1      61.580  63.529  69.654  0.00  0.00    +0.000 C 
ATOM      2  N   UNL     1      61.965  63.790  68.972  0.00  0.00    +0.000 N 
ATOM      3  C   UNL     1      62.486  64.429  69.013  0.00  0.00    +0.000 C 
ATOM      4  O   UNL     1      62.871  64.691  68.331  0.00  0.00    +0.000 OA
ATOM      5  C   UNL     1      62.622  64.805  69.734  0.00  0.00    +0.000 C 
ATOM      6  C   UNL     1      62.099  64.285  70.104  0.00  0.00    +0.000 C 
ATOM      7  C   UNL     1      63.145  65.325  69.364  0.00  0.00    +0.000 C 
ATOM      8  C   UNL     1      62.758  65.182  70.456  0.00  0.00    +0.000 A 
ATOM      9  C   UNL     1      62.373  64.920  71.137  0.00  0.00    +0.000 A 
ATOM     10  C   UNL     1      62.509  65.296  71.859  0.00  0.00    +0.000 A 
ATOM     11  C   UNL     1      63.030  65.935  71.898  0.00  0.00    +0.000 A 
ATOM     12  C   UNL     1      63.416  66.197  71.218  0.00  0.00    +0.000 A 
ATOM     13  C   UNL     1      63.280  65.821  70.496  0.00  0.00    +0.000 A 
ATOM     14  C   UNL     1      63.937  66.835  71.258  0.00  0.00    +0.000 C 
ATOM     15  F   UNL     1      64.457  67.473  71.299  0.00  0.00    +0.000 F 
ATOM     16  F   UNL     1      63.792  66.900  72.067  0.00  0.00    +0.000 F 
ATOM     17  F   UNL     1      64.080  66.768  70.448  0.00  0.00    +0.000 F 
ATOM     18  C   UNL     1      62.124  65.034  72.539  0.00  0.00    +0.000 C 
ATOM     19  F   UNL     1      61.739  64.773  73.220  0.00  0.00    +0.000 F 
ATOM     20  F   UNL     1      62.504  65.620  72.978  0.00  0.00    +0.000 F 
ATOM     21  F   UNL     1      61.745  64.449  72.099  0.00  0.00    +0.000 F 
ATOM     22  C   UNL     1      61.829  63.414  68.252  0.00  0.00    +0.000 A 
ATOM     23  C   UNL     1      62.214  63.676  67.570  0.00  0.00    +0.000 A 
ATOM     24  N   UNL     1      62.078  63.299  66.849  0.00  0.00    +0.000 NA
ATOM     25  C   UNL     1      61.557  62.661  66.809  0.00  0.00    +0.000 A 
ATOM     26  C   UNL     1      61.172  62.399  67.489  0.00  0.00    +0.000 A 
ATOM     27  C   UNL     1      61.308  62.776  68.211  0.00  0.00    +0.000 A 
ATOM     28  C   UNL     1      60.923  62.514  68.892  0.00  0.00    +0.000 A 
ATOM     29  C   UNL     1      60.402  61.875  68.852  0.00  0.00    +0.000 A 
ATOM     30  C   UNL     1      60.266  61.499  68.130  0.00  0.00    +0.000 C 
ATOM     31  C   UNL     1      60.017  61.614  69.533  0.00  0.00    +0.000 A 
ATOM     32  C   UNL     1      60.153  61.990  70.253  0.00  0.00    +0.000 A 
ATOM     33  C   UNL     1      60.674  62.628  70.294  0.00  0.00    +0.000 A 
ATOM     34  C   UNL     1      61.059  62.890  69.613  0.00  0.00    +0.000 A 
ATOM     35  N   UNL     1      61.420  62.284  66.087  0.00  0.00    +0.000 N 
ATOM     36  C   UNL     1      61.806  62.546  65.406  0.00  0.00    +0.000 C 
ATOM     37  C   UNL     1      61.670  62.170  64.685  0.00  0.00    +0.000 C 
ATOM     38  N   UNL     1      61.148  61.531  64.644  0.00  0.00    +0.000 NA
ATOM     39  C   UNL     1      61.013  61.155  63.924  0.00  0.00    +0.000 C 
ATOM     40  C   UNL     1      60.764  61.270  65.325  0.00  0.00    +0.000 C 
ATOM     41  C   UNL     1      60.900  61.646  66.047  0.00  0.00    +0.000 C 
ENDROOT
TORSDOF 0
ENDMDL
MODEL 5
REMARK VINA RESULT:   -16.263      2.631      3.145
REMARK INTER + INTRA:         -16.263
REMARK INTER:                 -16.263
REMARK INTRA:                   0.000
REMARK UNBOUND:                 0.000
ROOT
REMARK  Name = netupitant
REMARK                            x       y       z     vdW  Elec       q    Type
REMARK                         _______ _______ _______ _____ _____    ______ ____
ATOM      1  C   UNL     1      60.871  64.001  68.637  0.00  0.00    +0.000 C 
ATOM      2  N   UNL     1      61.687  63.971  68.515  0.00  0.00    +0.000 N 
ATOM      3  C   UNL     1      61.993  63.536  67.883  0.00  0.00    +0.000 C 
ATOM      4  O   UNL     1      62.809  63.506  67.760  0.00  0.00    +0.000 OA
ATOM      5  C   UNL     1      61.484  63.132  67.375  0.00  0.00    +0.000 C 
ATOM      6  C   UNL     1      60.836  63.400  67.811  0.00  0.00    +0.000 C 
ATOM      7  C   UNL     1      62.131  62.864  66.940  0.00  0.00    +0.000 C 
ATOM      8  C   UNL     1      60.975  62.727  66.867  0.00  0.00    +0.000 A 
ATOM      9  C   UNL     1      60.159  62.757  66.991  0.00  0.00    +0.000 A 
ATOM     10  C   UNL     1      59.650  62.353  66.483  0.00  0.00    +0.000 A 
ATOM     11  C   UNL     1      59.956  61.919  65.852  0.00  0.00    +0.000 A 
ATOM     12  C   UNL     1      60.772  61.888  65.728  0.00  0.00    +0.000 A 
ATOM     13  C   UNL     1      61.281  62.292  66.236  0.00  0.00    +0.000 A 
ATOM     14  C   UNL     1      61.078  61.454  65.097  0.00  0.00    +0.000 C 
ATOM     15  F   UNL     1      61.383  61.020  64.466  0.00  0.00    +0.000 F 
ATOM     16  F   UNL     1      60.313  61.238  64.876  0.00  0.00    +0.000 F 
ATOM     17  F   UNL     1      61.842  61.671  65.320  0.00  0.00    +0.000 F 
ATOM     18  C   UNL     1      58.835  62.383  66.606  0.00  0.00    +0.000 C 
ATOM     19  F   UNL     1      58.020  62.413  66.729  0.00  0.00    +0.000 F 
ATOM     20  F   UNL     1      58.718  61.899  65.948  0.00  0.00    +0.000 F 
ATOM     21  F   UNL     1      58.953  62.868  67.264  0.00  0.00    +0.000 F 
ATOM     22  C   UNL     1      62.195  64.375  69.022  0.00  0.00    +0.000 A 
ATOM     23  C   UNL     1      63.011  64.345  68.899  0.00  0.00    +0.000 A 
ATOM     24  N   UNL     1      63.520  64.749  69.407  0.00  0.00    +0.000 NA
ATOM     25  C   UNL     1      63.213  65.184  70.038  0.00  0.00    +0.000 A 
ATOM     26  C   UNL     1      62.399  65.214  70.161  0.00  0.00    +0.000 A 
ATOM     27  C   UNL     1      61.890  64.809  69.653  0.00  0.00    +0.000 A 
ATOM     28  C   UNL     1      61.075  64.839  69.776  0.00  0.00    +0.000 A 
ATOM     29  C   UNL     1      60.768  65.274  70.407  0.00  0.00    +0.000 A 
ATOM     30  C   UNL     1      61.277  65.678  70.915  0.00  0.00    +0.000 C 
ATOM     31  C   UNL     1      59.953  65.304  70.530  0.00  0.00    +0.000 A 
ATOM     32  C   UNL     1      59.445  64.900  70.023  0.00  0.00    +0.000 A 
ATOM     33  C   UNL     1      59.750  64.465  69.392  0.00  0.00    +0.000 A 
ATOM     34  C   UNL     1      60.566  64.435  69.268  0.00  0.00    +0.000 A 
ATOM     35  N   UNL     1      63.723  65.588  70.546  0.00  0.00    +0.000 N 
ATOM     36  C   UNL     1      64.538  65.558  70.422  0.00  0.00    +0.000 C 
ATOM     37  C   UNL     1      65.047  65.962  70.930  0.00  0.00    +0.000 C 
ATOM     38  N   UNL     1      64.741  66.397  71.562  0.00  0.00    +0.000 NA
ATOM     39  C   UNL     1      65.250  66.801  72.069  0.00  0.00    +0.000 C 
ATOM     40  C   UNL     1      63.926  66.427  71.684  0.00  0.00    +0.000 C 
ATOM     41  C   UNL     1      63.417  66.022  71.177  0.00  0.00    +0.000 C 
ENDROOT
TORSDOF 0
ENDMDL
MODEL 6
REMARK VINA RESULT:   -16.253      1.667      2.161
REMARK INTER + INTRA:         -16.253
REMARK INTER:                 -16.253
REMARK INTRA:                   0.000
REMARK UNBOUND:                 0.000
ROOT
REMARK  Name = netupitant
REMARK                            x       y       z     vdW  Elec       q    Type
REMARK                         _______ _______ _______ _____ _____    ______ ____
ATOM      1  C   UNL     1      61.615  63.961  68.421  0.00  0.00    +0.000 C 
ATOM      2  N   UNL     1      60.823  64.044  68.636  0.00  0.00    +0.000 N 
ATOM      3  C   UNL     1      60.234  63.668  68.196  0.00  0.00    +0.000 C 
ATOM      4  O   UNL     1      59.441  63.751  68.412  0.00  0.00    +0.000 OA
ATOM      5  C   UNL     1      60.438  63.210  67.541  0.00  0.00    +0.000 C 
ATOM      6  C   UNL     1      61.235  63.379  67.670  0.00  0.00    +0.000 C 
ATOM      7  C   UNL     1      59.640  63.041  67.411  0.00  0.00    +0.000 C 
ATOM      8  C   UNL     1      60.641  62.752  66.886  0.00  0.00    +0.000 A 
ATOM      9  C   UNL     1      61.434  62.669  66.670  0.00  0.00    +0.000 A 
ATOM     10  C   UNL     1      61.637  62.211  66.015  0.00  0.00    +0.000 A 
ATOM     11  C   UNL     1      61.048  61.836  65.575  0.00  0.00    +0.000 A 
ATOM     12  C   UNL     1      60.256  61.919  65.790  0.00  0.00    +0.000 A 
ATOM     13  C   UNL     1      60.052  62.377  66.445  0.00  0.00    +0.000 A 
ATOM     14  C   UNL     1      59.668  61.544  65.351  0.00  0.00    +0.000 C 
ATOM     15  F   UNL     1      59.080  61.168  64.910  0.00  0.00    +0.000 F 
ATOM     16  F   UNL     1      60.243  61.232  64.848  0.00  0.00    +0.000 F 
ATOM     17  F   UNL     1      59.093  61.856  65.854  0.00  0.00    +0.000 F 
ATOM     18  C   UNL     1      62.429  62.129  65.800  0.00  0.00    +0.000 C 
ATOM     19  F   UNL     1      63.221  62.045  65.584  0.00  0.00    +0.000 F 
ATOM     20  F   UNL     1      62.206  61.648  65.168  0.00  0.00    +0.000 F 
ATOM     21  F   UNL     1      62.650  62.610  66.432  0.00  0.00    +0.000 F 
ATOM     22  C   UNL     1      60.620  64.501  69.291  0.00  0.00    +0.000 A 
ATOM     23  C   UNL     1      59.827  64.584  69.507  0.00  0.00    +0.000 A 
ATOM     24  N   UNL     1      59.623  65.043  70.162  0.00  0.00    +0.000 NA
ATOM     25  C   UNL     1      60.212  65.418  70.601  0.00  0.00    +0.000 A 
ATOM     26  C   UNL     1      61.004  65.335  70.386  0.00  0.00    +0.000 A 
ATOM     27  C   UNL     1      61.207  64.877  69.731  0.00  0.00    +0.000 A 
ATOM     28  C   UNL     1      61.999  64.794  69.515  0.00  0.00    +0.000 A 
ATOM     29  C   UNL     1      62.588  65.169  69.956  0.00  0.00    +0.000 A 
ATOM     30  C   UNL     1      62.384  65.627  70.611  0.00  0.00    +0.000 C 
ATOM     31  C   UNL     1      63.380  65.086  69.740  0.00  0.00    +0.000 A 
ATOM     32  C   UNL     1      63.583  64.629  69.085  0.00  0.00    +0.000 A 
ATOM     33  C   UNL     1      62.995  64.253  68.645  0.00  0.00    +0.000 A 
ATOM     34  C   UNL     1      62.202  64.336  68.861  0.00  0.00    +0.000 A 
ATOM     35  N   UNL     1      60.009  65.876  71.258  0.00  0.00    +0.000 N 
ATOM     36  C   UNL     1      59.216  65.959  71.472  0.00  0.00    +0.000 C 
ATOM     37  C   UNL     1      59.013  66.417  72.128  0.00  0.00    +0.000 C 
ATOM     38  N   UNL     1      59.601  66.792  72.568  0.00  0.00    +0.000 NA
ATOM     39  C   UNL     1      59.398  67.250  73.222  0.00  0.00    +0.000 C 
ATOM     40  C   UNL     1      60.393  66.709  72.352  0.00  0.00    +0.000 C 
ATOM     41  C   UNL     1      60.597  66.251  71.697  0.00  0.00    +0.000 C 
ENDROOT
TORSDOF 0
ENDMDL
MODEL 7
REMARK VINA RESULT:   -15.626      4.032      5.186
REMARK INTER + INTRA:         -15.626
REMARK INTER:                 -15.626
REMARK INTRA:                   0.000
REMARK UNBOUND:                 0.000
ROOT
REMARK  Name = netupitant
REMARK                            x       y       z     vdW  Elec       q    Type
REMARK                         _______ _______ _______ _____ _____    ______ ____
ATOM      1  C   UNL     1      62.383  64.910  71.121  0.00  0.00    +0.000 C 
ATOM      2  N   UNL     1      62.851  64.900  70.442  0.00  0.00    +0.000 N 
ATOM      3  C   UNL     1      62.681  64.370  69.833  0.00  0.00    +0.000 C 
ATOM      4  O   UNL     1      63.149  64.359  69.152  0.00  0.00    +0.000 OA
ATOM      5  C   UNL     1      62.044  63.850  69.903  0.00  0.00    +0.000 C 
ATOM      6  C   UNL     1      61.872  64.162  70.647  0.00  0.00    +0.000 C 
ATOM      7  C   UNL     1      62.216  63.538  69.159  0.00  0.00    +0.000 C 
ATOM      8  C   UNL     1      61.407  63.330  69.974  0.00  0.00    +0.000 A 
ATOM      9  C   UNL     1      60.939  63.341  70.654  0.00  0.00    +0.000 A 
ATOM     10  C   UNL     1      60.303  62.821  70.725  0.00  0.00    +0.000 A 
ATOM     11  C   UNL     1      60.134  62.291  70.116  0.00  0.00    +0.000 A 
ATOM     12  C   UNL     1      60.601  62.280  69.436  0.00  0.00    +0.000 A 
ATOM     13  C   UNL     1      61.238  62.800  69.365  0.00  0.00    +0.000 A 
ATOM     14  C   UNL     1      60.431  61.750  68.827  0.00  0.00    +0.000 C 
ATOM     15  F   UNL     1      60.261  61.220  68.219  0.00  0.00    +0.000 F 
ATOM     16  F   UNL     1      59.794  61.457  69.261  0.00  0.00    +0.000 F 
ATOM     17  F   UNL     1      61.069  62.045  68.394  0.00  0.00    +0.000 F 
ATOM     18  C   UNL     1      59.836  62.832  71.405  0.00  0.00    +0.000 C 
ATOM     19  F   UNL     1      59.368  62.842  72.084  0.00  0.00    +0.000 F 
ATOM     20  F   UNL     1      59.370  62.226  71.093  0.00  0.00    +0.000 F 
ATOM     21  F   UNL     1      60.302  63.438  71.715  0.00  0.00    +0.000 F 
ATOM     22  C   UNL     1      63.487  65.419  70.371  0.00  0.00    +0.000 A 
ATOM     23  C   UNL     1      63.955  65.409  69.691  0.00  0.00    +0.000 A 
ATOM     24  N   UNL     1      64.592  65.928  69.620  0.00  0.00    +0.000 NA
ATOM     25  C   UNL     1      64.761  66.458  70.230  0.00  0.00    +0.000 A 
ATOM     26  C   UNL     1      64.294  66.469  70.909  0.00  0.00    +0.000 A 
ATOM     27  C   UNL     1      63.657  65.949  70.980  0.00  0.00    +0.000 A 
ATOM     28  C   UNL     1      63.189  65.960  71.659  0.00  0.00    +0.000 A 
ATOM     29  C   UNL     1      63.359  66.490  72.268  0.00  0.00    +0.000 A 
ATOM     30  C   UNL     1      63.996  67.010  72.198  0.00  0.00    +0.000 C 
ATOM     31  C   UNL     1      62.891  66.500  72.948  0.00  0.00    +0.000 A 
ATOM     32  C   UNL     1      62.255  65.982  73.019  0.00  0.00    +0.000 A 
ATOM     33  C   UNL     1      62.085  65.451  72.410  0.00  0.00    +0.000 A 
ATOM     34  C   UNL     1      62.553  65.441  71.730  0.00  0.00    +0.000 A 
ATOM     35  N   UNL     1      65.399  66.978  70.159  0.00  0.00    +0.000 N 
ATOM     36  C   UNL     1      65.866  66.967  69.479  0.00  0.00    +0.000 C 
ATOM     37  C   UNL     1      66.503  67.487  69.408  0.00  0.00    +0.000 C 
ATOM     38  N   UNL     1      66.673  68.018  70.017  0.00  0.00    +0.000 NA
ATOM     39  C   UNL     1      67.309  68.537  69.947  0.00  0.00    +0.000 C 
ATOM     40  C   UNL     1      66.205  68.028  70.697  0.00  0.00    +0.000 C 
ATOM     41  C   UNL     1      65.568  67.508  70.767  0.00  0.00    +0.000 C 
ENDROOT
TORSDOF 0
ENDMDL
MODEL 8
REMARK VINA RESULT:   -15.320      2.543      3.273
REMARK INTER + INTRA:         -15.320
REMARK INTER:                 -15.320
REMARK INTRA:                   0.000
REMARK UNBOUND:                 0.000
ROOT
REMARK  Name = netupitant
REMARK                            x       y       z     vdW  Elec       q    Type
REMARK                         _______ _______ _______ _____ _____    ______ ____
ATOM      1  C   UNL     1      61.238  64.269  70.780  0.00  0.00    +0.000 C 
ATOM      2  N   UNL     1      61.682  64.843  70.388  0.00  0.00    +0.000 N 
ATOM      3  C   UNL     1      61.870  64.745  69.590  0.00  0.00    +0.000 C 
ATOM      4  O   UNL     1      62.314  65.320  69.197  0.00  0.00    +0.000 OA
ATOM      5  C   UNL     1      61.612  64.074  69.185  0.00  0.00    +0.000 C 
ATOM      6  C   UNL     1      61.248  63.799  69.872  0.00  0.00    +0.000 C 
ATOM      7  C   UNL     1      61.977  64.349  68.498  0.00  0.00    +0.000 C 
ATOM      8  C   UNL     1      61.355  63.403  68.780  0.00  0.00    +0.000 A 
ATOM      9  C   UNL     1      60.911  62.829  69.172  0.00  0.00    +0.000 A 
ATOM     10  C   UNL     1      60.654  62.157  68.767  0.00  0.00    +0.000 A 
ATOM     11  C   UNL     1      60.841  62.061  67.970  0.00  0.00    +0.000 A 
ATOM     12  C   UNL     1      61.286  62.634  67.576  0.00  0.00    +0.000 A 
ATOM     13  C   UNL     1      61.543  63.305  67.981  0.00  0.00    +0.000 A 
ATOM     14  C   UNL     1      61.473  62.537  66.779  0.00  0.00    +0.000 C 
ATOM     15  F   UNL     1      61.659  62.439  65.982  0.00  0.00    +0.000 F 
ATOM     16  F   UNL     1      61.068  61.818  66.773  0.00  0.00    +0.000 F 
ATOM     17  F   UNL     1      61.877  63.256  66.787  0.00  0.00    +0.000 F 
ATOM     18  C   UNL     1      60.210  61.584  69.160  0.00  0.00    +0.000 C 
ATOM     19  F   UNL     1      59.766  61.010  69.552  0.00  0.00    +0.000 F 
ATOM     20  F   UNL     1      60.170  61.141  68.465  0.00  0.00    +0.000 F 
ATOM     21  F   UNL     1      60.251  62.029  69.854  0.00  0.00    +0.000 F 
ATOM     22  C   UNL     1      61.939  65.513  70.792  0.00  0.00    +0.000 A 
ATOM     23  C   UNL     1      62.384  66.088  70.400  0.00  0.00    +0.000 A 
ATOM     24  N   UNL     1      62.641  66.759  70.805  0.00  0.00    +0.000 NA
ATOM     25  C   UNL     1      62.453  66.856  71.602  0.00  0.00    +0.000 A 
ATOM     26  C   UNL     1      62.009  66.283  71.995  0.00  0.00    +0.000 A 
ATOM     27  C   UNL     1      61.752  65.611  71.590  0.00  0.00    +0.000 A 
ATOM     28  C   UNL     1      61.308  65.037  71.982  0.00  0.00    +0.000 A 
ATOM     29  C   UNL     1      61.121  65.135  72.780  0.00  0.00    +0.000 A 
ATOM     30  C   UNL     1      61.378  65.806  73.185  0.00  0.00    +0.000 C 
ATOM     31  C   UNL     1      60.677  64.561  73.172  0.00  0.00    +0.000 A 
ATOM     32  C   UNL     1      60.420  63.891  72.767  0.00  0.00    +0.000 A 
ATOM     33  C   UNL     1      60.607  63.793  71.970  0.00  0.00    +0.000 A 
ATOM     34  C   UNL     1      61.051  64.367  71.577  0.00  0.00    +0.000 A 
ATOM     35  N   UNL     1      62.711  67.528  72.008  0.00  0.00    +0.000 N 
ATOM     36  C   UNL     1      63.155  68.101  71.615  0.00  0.00    +0.000 C 
ATOM     37  C   UNL     1      63.412  68.773  72.020  0.00  0.00    +0.000 C 
ATOM     38  N   UNL     1      63.225  68.870  72.818  0.00  0.00    +0.000 NA
ATOM     39  C   UNL     1      63.482  69.541  73.222  0.00  0.00    +0.000 C 
ATOM     40  C   UNL     1      62.781  68.296  73.210  0.00  0.00    +0.000 C 
ATOM     41  C   UNL     1      62.524  67.625  72.805  0.00  0.00    +0.000 C 
ENDROOT
TORSDOF 0
ENDMDL
