MODEL 1
REMARK VINA RESULT:   -16.058      0.000      0.000
REMARK INTER + INTRA:         -16.058
REMARK INTER:                 -16.058
REMARK INTRA:                   0.000
REMARK UNBOUND:                 0.000
ROOT
REMARK  Name = niceritrol
REMARK                            x       y       z     vdW  Elec       q    Type
REMARK                         _______ _______ _______ _____ _____    ______ ____
ATOM      1  O   UNL     1      64.619  65.318  69.554  0.00  0.00    +0.000 OA
ATOM      2  C   UNL     1      64.005  65.620  70.014  0.00  0.00    +0.000 C 
ATOM      3  O   UNL     1      63.234  65.348  69.903  0.00  0.00    +0.000 OA
ATOM      4  C   UNL     1      62.620  65.651  70.363  0.00  0.00    +0.000 C 
ATOM      5  C   UNL     1      61.849  65.380  70.253  0.00  0.00    +0.000 C 
ATOM      6  C   UNL     1      61.585  65.885  70.848  0.00  0.00    +0.000 C 
ATOM      7  O   UNL     1      62.121  66.373  71.242  0.00  0.00    +0.000 OA
ATOM      8  C   UNL     1      61.857  66.880  71.838  0.00  0.00    +0.000 C 
ATOM      9  O   UNL     1      61.057  66.897  72.040  0.00  0.00    +0.000 OA
ATOM     10  C   UNL     1      62.393  67.368  72.232  0.00  0.00    +0.000 A 
ATOM     11  C   UNL     1      62.129  67.874  72.828  0.00  0.00    +0.000 A 
ATOM     12  N   UNL     1      62.665  68.362  73.222  0.00  0.00    +0.000 NA
ATOM     13  C   UNL     1      63.465  68.344  73.020  0.00  0.00    +0.000 A 
ATOM     14  C   UNL     1      63.728  67.838  72.424  0.00  0.00    +0.000 A 
ATOM     15  C   UNL     1      63.193  67.350  72.030  0.00  0.00    +0.000 A 
ATOM     16  C   UNL     1      62.113  64.873  69.657  0.00  0.00    +0.000 C 
ATOM     17  O   UNL     1      61.577  64.385  69.263  0.00  0.00    +0.000 OA
ATOM     18  C   UNL     1      61.841  63.880  68.667  0.00  0.00    +0.000 C 
ATOM     19  O   UNL     1      62.641  63.861  68.465  0.00  0.00    +0.000 OA
ATOM     20  C   UNL     1      61.305  63.391  68.273  0.00  0.00    +0.000 A 
ATOM     21  C   UNL     1      61.569  62.885  67.677  0.00  0.00    +0.000 A 
ATOM     22  N   UNL     1      61.033  62.397  67.283  0.00  0.00    +0.000 NA
ATOM     23  C   UNL     1      60.234  62.415  67.485  0.00  0.00    +0.000 A 
ATOM     24  C   UNL     1      59.970  62.921  68.081  0.00  0.00    +0.000 A 
ATOM     25  C   UNL     1      60.506  63.409  68.475  0.00  0.00    +0.000 A 
ATOM     26  C   UNL     1      61.078  65.108  70.141  0.00  0.00    +0.000 C 
ATOM     27  O   UNL     1      60.464  65.410  70.602  0.00  0.00    +0.000 OA
ATOM     28  C   UNL     1      60.621  65.985  71.174  0.00  0.00    +0.000 C 
ATOM     29  O   UNL     1      61.392  66.256  71.284  0.00  0.00    +0.000 OA
ATOM     30  C   UNL     1      60.007  66.287  71.634  0.00  0.00    +0.000 A 
ATOM     31  C   UNL     1      59.236  66.015  71.523  0.00  0.00    +0.000 A 
ATOM     32  N   UNL     1      58.622  66.318  71.983  0.00  0.00    +0.000 NA
ATOM     33  C   UNL     1      58.779  66.892  72.555  0.00  0.00    +0.000 A 
ATOM     34  C   UNL     1      59.550  67.163  72.666  0.00  0.00    +0.000 A 
ATOM     35  C   UNL     1      60.164  66.861  72.205  0.00  0.00    +0.000 A 
ATOM     36  C   UNL     1      64.162  66.194  70.585  0.00  0.00    +0.000 A 
ATOM     37  C   UNL     1      63.548  66.496  71.046  0.00  0.00    +0.000 A 
ATOM     38  N   UNL     1      63.705  67.070  71.617  0.00  0.00    +0.000 NA
ATOM     39  C   UNL     1      64.476  67.342  71.728  0.00  0.00    +0.000 A 
ATOM     40  C   UNL     1      65.091  67.039  71.268  0.00  0.00    +0.000 A 
ATOM     41  C   UNL     1      64.933  66.465  70.696  0.00  0.00    +0.000 A 
ENDROOT
TORSDOF 0
ENDMDL
MODEL 2
REMARK VINA RESULT:   -15.923      0.943      3.296
REMARK INTER + INTRA:         -15.923
REMARK INTER:                 -15.923
REMARK INTRA:                   0.000
REMARK UNBOUND:                 0.000
ROOT
REMARK  Name = niceritrol
REMARK                            x       y       z     vdW  Elec       q    Type
REMARK                         _______ _______ _______ _____ _____    ______ ____
ATOM      1  O   UNL     1      59.001  65.057  71.241  0.00  0.00    +0.000 OA
ATOM      2  C   UNL     1      59.772  65.348  71.211  0.00  0.00    +0.000 C 
ATOM      3  O   UNL     1      60.293  65.076  70.631  0.00  0.00    +0.000 OA
ATOM      4  C   UNL     1      61.064  65.367  70.600  0.00  0.00    +0.000 C 
ATOM      5  C   UNL     1      61.585  65.096  70.021  0.00  0.00    +0.000 C 
ATOM      6  C   UNL     1      62.174  65.589  70.320  0.00  0.00    +0.000 C 
ATOM      7  O   UNL     1      62.018  66.071  70.971  0.00  0.00    +0.000 OA
ATOM      8  C   UNL     1      62.608  66.565  71.270  0.00  0.00    +0.000 C 
ATOM      9  O   UNL     1      63.354  66.576  70.917  0.00  0.00    +0.000 OA
ATOM     10  C   UNL     1      62.452  67.047  71.921  0.00  0.00    +0.000 A 
ATOM     11  C   UNL     1      63.041  67.541  72.219  0.00  0.00    +0.000 A 
ATOM     12  N   UNL     1      62.885  68.023  72.870  0.00  0.00    +0.000 NA
ATOM     13  C   UNL     1      62.140  68.012  73.222  0.00  0.00    +0.000 A 
ATOM     14  C   UNL     1      61.549  67.518  72.923  0.00  0.00    +0.000 A 
ATOM     15  C   UNL     1      61.706  67.036  72.272  0.00  0.00    +0.000 A 
ATOM     16  C   UNL     1      60.995  64.602  69.722  0.00  0.00    +0.000 C 
ATOM     17  O   UNL     1      61.151  64.120  69.071  0.00  0.00    +0.000 OA
ATOM     18  C   UNL     1      60.562  63.626  68.773  0.00  0.00    +0.000 C 
ATOM     19  O   UNL     1      59.815  63.615  69.125  0.00  0.00    +0.000 OA
ATOM     20  C   UNL     1      60.718  63.144  68.122  0.00  0.00    +0.000 A 
ATOM     21  C   UNL     1      60.128  62.650  67.823  0.00  0.00    +0.000 A 
ATOM     22  N   UNL     1      60.284  62.168  67.172  0.00  0.00    +0.000 NA
ATOM     23  C   UNL     1      61.030  62.180  66.820  0.00  0.00    +0.000 A 
ATOM     24  C   UNL     1      61.620  62.673  67.119  0.00  0.00    +0.000 A 
ATOM     25  C   UNL     1      61.464  63.155  67.770  0.00  0.00    +0.000 A 
ATOM     26  C   UNL     1      62.105  64.823  69.442  0.00  0.00    +0.000 C 
ATOM     27  O   UNL     1      62.877  65.115  69.411  0.00  0.00    +0.000 OA
ATOM     28  C   UNL     1      63.127  65.679  69.960  0.00  0.00    +0.000 C 
ATOM     29  O   UNL     1      62.606  65.950  70.539  0.00  0.00    +0.000 OA
ATOM     30  C   UNL     1      63.898  65.970  69.929  0.00  0.00    +0.000 A 
ATOM     31  C   UNL     1      64.419  65.698  69.349  0.00  0.00    +0.000 A 
ATOM     32  N   UNL     1      65.190  65.989  69.319  0.00  0.00    +0.000 NA
ATOM     33  C   UNL     1      65.441  66.553  69.867  0.00  0.00    +0.000 A 
ATOM     34  C   UNL     1      64.920  66.825  70.446  0.00  0.00    +0.000 A 
ATOM     35  C   UNL     1      64.148  66.533  70.477  0.00  0.00    +0.000 A 
ATOM     36  C   UNL     1      60.022  65.911  71.758  0.00  0.00    +0.000 A 
ATOM     37  C   UNL     1      60.793  66.203  71.728  0.00  0.00    +0.000 A 
ATOM     38  N   UNL     1      61.044  66.766  72.276  0.00  0.00    +0.000 NA
ATOM     39  C   UNL     1      60.522  67.038  72.855  0.00  0.00    +0.000 A 
ATOM     40  C   UNL     1      59.751  66.746  72.886  0.00  0.00    +0.000 A 
ATOM     41  C   UNL     1      59.502  66.183  72.337  0.00  0.00    +0.000 A 
ENDROOT
TORSDOF 0
ENDMDL
MODEL 3
REMARK VINA RESULT:   -15.238      2.790      3.799
REMARK INTER + INTRA:         -15.238
REMARK INTER:                 -15.238
REMARK INTRA:                   0.000
REMARK UNBOUND:                 0.000
ROOT
REMARK  Name = niceritrol
REMARK                            x       y       z     vdW  Elec       q    Type
REMARK                         _______ _______ _______ _____ _____    ______ ____
ATOM      1  O   UNL     1      59.649  66.019  68.159  0.00  0.00    +0.000 OA
ATOM      2  C   UNL     1      59.872  65.579  68.820  0.00  0.00    +0.000 C 
ATOM      3  O   UNL     1      60.197  64.827  68.725  0.00  0.00    +0.000 OA
ATOM      4  C   UNL     1      60.421  64.387  69.386  0.00  0.00    +0.000 C 
ATOM      5  C   UNL     1      60.745  63.635  69.292  0.00  0.00    +0.000 C 
ATOM      6  C   UNL     1      60.816  63.562  70.110  0.00  0.00    +0.000 C 
ATOM      7  O   UNL     1      60.570  64.177  70.601  0.00  0.00    +0.000 OA
ATOM      8  C   UNL     1      60.641  64.104  71.421  0.00  0.00    +0.000 C 
ATOM      9  O   UNL     1      60.958  63.416  71.747  0.00  0.00    +0.000 OA
ATOM     10  C   UNL     1      60.396  64.719  71.913  0.00  0.00    +0.000 A 
ATOM     11  C   UNL     1      60.467  64.646  72.731  0.00  0.00    +0.000 A 
ATOM     12  N   UNL     1      60.221  65.261  73.222  0.00  0.00    +0.000 NA
ATOM     13  C   UNL     1      59.905  65.950  72.896  0.00  0.00    +0.000 A 
ATOM     14  C   UNL     1      59.834  66.022  72.077  0.00  0.00    +0.000 A 
ATOM     15  C   UNL     1      60.079  65.407  71.585  0.00  0.00    +0.000 A 
ATOM     16  C   UNL     1      60.674  63.708  68.472  0.00  0.00    +0.000 C 
ATOM     17  O   UNL     1      60.920  63.092  67.980  0.00  0.00    +0.000 OA
ATOM     18  C   UNL     1      60.849  63.165  67.162  0.00  0.00    +0.000 C 
ATOM     19  O   UNL     1      60.532  63.853  66.835  0.00  0.00    +0.000 OA
ATOM     20  C   UNL     1      61.094  62.550  66.671  0.00  0.00    +0.000 A 
ATOM     21  C   UNL     1      61.023  62.623  65.851  0.00  0.00    +0.000 A 
ATOM     22  N   UNL     1      61.269  62.008  65.359  0.00  0.00    +0.000 NA
ATOM     23  C   UNL     1      61.585  61.320  65.687  0.00  0.00    +0.000 A 
ATOM     24  C   UNL     1      61.656  61.247  66.505  0.00  0.00    +0.000 A 
ATOM     25  C   UNL     1      61.411  61.862  66.997  0.00  0.00    +0.000 A 
ATOM     26  C   UNL     1      61.070  62.882  69.196  0.00  0.00    +0.000 C 
ATOM     27  O   UNL     1      61.293  62.443  69.857  0.00  0.00    +0.000 OA
ATOM     28  C   UNL     1      61.192  62.756  70.614  0.00  0.00    +0.000 C 
ATOM     29  O   UNL     1      60.868  63.508  70.709  0.00  0.00    +0.000 OA
ATOM     30  C   UNL     1      61.416  62.316  71.276  0.00  0.00    +0.000 A 
ATOM     31  C   UNL     1      61.741  61.564  71.180  0.00  0.00    +0.000 A 
ATOM     32  N   UNL     1      61.964  61.124  71.841  0.00  0.00    +0.000 NA
ATOM     33  C   UNL     1      61.863  61.438  72.599  0.00  0.00    +0.000 A 
ATOM     34  C   UNL     1      61.539  62.190  72.693  0.00  0.00    +0.000 A 
ATOM     35  C   UNL     1      61.315  62.629  72.032  0.00  0.00    +0.000 A 
ATOM     36  C   UNL     1      59.771  65.892  69.576  0.00  0.00    +0.000 A 
ATOM     37  C   UNL     1      59.995  65.453  70.238  0.00  0.00    +0.000 A 
ATOM     38  N   UNL     1      59.895  65.765  70.995  0.00  0.00    +0.000 NA
ATOM     39  C   UNL     1      59.570  66.518  71.090  0.00  0.00    +0.000 A 
ATOM     40  C   UNL     1      59.346  66.958  70.428  0.00  0.00    +0.000 A 
ATOM     41  C   UNL     1      59.447  66.644  69.672  0.00  0.00    +0.000 A 
ENDROOT
TORSDOF 0
ENDMDL
MODEL 4
REMARK VINA RESULT:   -13.502      1.868      3.941
REMARK INTER + INTRA:         -13.502
REMARK INTER:                 -13.502
REMARK INTRA:                   0.000
REMARK UNBOUND:                 0.000
ROOT
REMARK  Name = niceritrol
REMARK                            x       y       z     vdW  Elec       q    Type
REMARK                         _______ _______ _______ _____ _____    ______ ____
ATOM      1  O   UNL     1      61.587  63.586  70.657  0.00  0.00    +0.000 OA
ATOM      2  C   UNL     1      61.988  64.270  70.883  0.00  0.00    +0.000 C 
ATOM      3  O   UNL     1      61.587  64.869  71.286  0.00  0.00    +0.000 OA
ATOM      4  C   UNL     1      61.989  65.553  71.512  0.00  0.00    +0.000 C 
ATOM      5  C   UNL     1      61.589  66.153  71.914  0.00  0.00    +0.000 C 
ATOM      6  C   UNL     1      62.283  66.597  71.943  0.00  0.00    +0.000 C 
ATOM      7  O   UNL     1      62.977  66.300  71.610  0.00  0.00    +0.000 OA
ATOM      8  C   UNL     1      63.672  66.745  71.639  0.00  0.00    +0.000 C 
ATOM      9  O   UNL     1      63.672  67.486  72.002  0.00  0.00    +0.000 OA
ATOM     10  C   UNL     1      64.366  66.448  71.305  0.00  0.00    +0.000 A 
ATOM     11  C   UNL     1      65.059  66.893  71.335  0.00  0.00    +0.000 A 
ATOM     12  N   UNL     1      65.753  66.596  71.001  0.00  0.00    +0.000 NA
ATOM     13  C   UNL     1      65.753  65.855  70.638  0.00  0.00    +0.000 A 
ATOM     14  C   UNL     1      65.058  65.411  70.609  0.00  0.00    +0.000 A 
ATOM     15  C   UNL     1      64.364  65.707  70.942  0.00  0.00    +0.000 A 
ATOM     16  C   UNL     1      60.894  65.708  71.885  0.00  0.00    +0.000 C 
ATOM     17  O   UNL     1      60.200  66.004  72.219  0.00  0.00    +0.000 OA
ATOM     18  C   UNL     1      59.506  65.560  72.189  0.00  0.00    +0.000 C 
ATOM     19  O   UNL     1      59.505  64.819  71.826  0.00  0.00    +0.000 OA
ATOM     20  C   UNL     1      58.812  65.857  72.523  0.00  0.00    +0.000 A 
ATOM     21  C   UNL     1      58.117  65.412  72.494  0.00  0.00    +0.000 A 
ATOM     22  N   UNL     1      57.424  65.708  72.827  0.00  0.00    +0.000 NA
ATOM     23  C   UNL     1      57.425  66.450  73.190  0.00  0.00    +0.000 A 
ATOM     24  C   UNL     1      58.119  66.894  73.220  0.00  0.00    +0.000 A 
ATOM     25  C   UNL     1      58.812  66.597  72.886  0.00  0.00    +0.000 A 
ATOM     26  C   UNL     1      61.188  66.751  72.316  0.00  0.00    +0.000 C 
ATOM     27  O   UNL     1      61.589  67.436  72.543  0.00  0.00    +0.000 OA
ATOM     28  C   UNL     1      62.392  67.521  72.367  0.00  0.00    +0.000 C 
ATOM     29  O   UNL     1      62.791  66.922  71.965  0.00  0.00    +0.000 OA
ATOM     30  C   UNL     1      62.793  68.206  72.593  0.00  0.00    +0.000 A 
ATOM     31  C   UNL     1      62.392  68.804  72.996  0.00  0.00    +0.000 A 
ATOM     32  N   UNL     1      62.793  69.489  73.222  0.00  0.00    +0.000 NA
ATOM     33  C   UNL     1      63.596  69.574  73.046  0.00  0.00    +0.000 A 
ATOM     34  C   UNL     1      63.995  68.975  72.644  0.00  0.00    +0.000 A 
ATOM     35  C   UNL     1      63.594  68.291  72.418  0.00  0.00    +0.000 A 
ATOM     36  C   UNL     1      62.789  64.355  70.708  0.00  0.00    +0.000 A 
ATOM     37  C   UNL     1      63.190  65.040  70.934  0.00  0.00    +0.000 A 
ATOM     38  N   UNL     1      63.992  65.126  70.759  0.00  0.00    +0.000 NA
ATOM     39  C   UNL     1      64.392  64.526  70.356  0.00  0.00    +0.000 A 
ATOM     40  C   UNL     1      63.991  63.842  70.130  0.00  0.00    +0.000 A 
ATOM     41  C   UNL     1      63.189  63.757  70.306  0.00  0.00    +0.000 A 
ENDROOT
TORSDOF 0
ENDMDL
