MODEL 1
REMARK VINA RESULT:    -5.069      0.000      0.000
REMARK INTER + INTRA:          -5.069
REMARK INTER:                  -5.069
REMARK INTRA:                   0.000
REMARK UNBOUND:                 0.000
ROOT
REMARK  Name = nicotinyl alcohol
REMARK                            x       y       z     vdW  Elec       q    Type
REMARK                         _______ _______ _______ _____ _____    ______ ____
ATOM      1  O   UNL     1      61.750  62.451  66.833  0.00  0.00    +0.000 OA
ATOM      2  C   UNL     1      61.276  62.012  66.319  0.00  0.00    +0.000 C 
ATOM      3  C   UNL     1      61.501  61.914  65.532  0.00  0.00    +0.000 A 
ATOM      4  C   UNL     1      61.027  61.476  65.019  0.00  0.00    +0.000 A 
ATOM      5  N   UNL     1      61.253  61.378  64.231  0.00  0.00    +0.000 NA
ATOM      6  C   UNL     1      61.952  61.719  63.957  0.00  0.00    +0.000 A 
ATOM      7  C   UNL     1      62.427  62.157  64.470  0.00  0.00    +0.000 A 
ATOM      8  C   UNL     1      62.201  62.255  65.258  0.00  0.00    +0.000 A 
ENDROOT
TORSDOF 0
ENDMDL
MODEL 2
REMARK VINA RESULT:    -5.067      1.565      2.228
REMARK INTER + INTRA:          -5.067
REMARK INTER:                  -5.067
REMARK INTRA:                   0.000
REMARK UNBOUND:                 0.000
ROOT
REMARK  Name = nicotinyl alcohol
REMARK                            x       y       z     vdW  Elec       q    Type
REMARK                         _______ _______ _______ _____ _____    ______ ____
ATOM      1  O   UNL     1      62.038  61.262  63.279  0.00  0.00    +0.000 OA
ATOM      2  C   UNL     1      62.365  61.762  63.849  0.00  0.00    +0.000 C 
ATOM      3  C   UNL     1      61.974  61.885  64.564  0.00  0.00    +0.000 A 
ATOM      4  C   UNL     1      62.301  62.384  65.133  0.00  0.00    +0.000 A 
ATOM      5  N   UNL     1      61.908  62.507  65.848  0.00  0.00    +0.000 NA
ATOM      6  C   UNL     1      61.189  62.131  65.994  0.00  0.00    +0.000 A 
ATOM      7  C   UNL     1      60.861  61.632  65.425  0.00  0.00    +0.000 A 
ATOM      8  C   UNL     1      61.253  61.509  64.710  0.00  0.00    +0.000 A 
ENDROOT
TORSDOF 0
ENDMDL
MODEL 3
REMARK VINA RESULT:    -4.536     17.437     17.883
REMARK INTER + INTRA:          -4.536
REMARK INTER:                  -4.536
REMARK INTRA:                   0.000
REMARK UNBOUND:                 0.000
ROOT
REMARK  Name = nicotinyl alcohol
REMARK                            x       y       z     vdW  Elec       q    Type
REMARK                         _______ _______ _______ _____ _____    ______ ____
ATOM      1  O   UNL     1      64.601  79.087  58.723  0.00  0.00    +0.000 OA
ATOM      2  C   UNL     1      65.372  79.191  58.999  0.00  0.00    +0.000 C 
ATOM      3  C   UNL     1      65.771  78.564  59.355  0.00  0.00    +0.000 A 
ATOM      4  C   UNL     1      66.541  78.667  59.631  0.00  0.00    +0.000 A 
ATOM      5  N   UNL     1      66.940  78.039  59.987  0.00  0.00    +0.000 NA
ATOM      6  C   UNL     1      66.569  77.308  60.069  0.00  0.00    +0.000 A 
ATOM      7  C   UNL     1      65.798  77.203  59.794  0.00  0.00    +0.000 A 
ATOM      8  C   UNL     1      65.399  77.831  59.437  0.00  0.00    +0.000 A 
ENDROOT
TORSDOF 0
ENDMDL
MODEL 4
REMARK VINA RESULT:    -4.457     16.251     16.771
REMARK INTER + INTRA:          -4.457
REMARK INTER:                  -4.457
REMARK INTRA:                   0.000
REMARK UNBOUND:                 0.000
ROOT
REMARK  Name = nicotinyl alcohol
REMARK                            x       y       z     vdW  Elec       q    Type
REMARK                         _______ _______ _______ _____ _____    ______ ____
ATOM      1  O   UNL     1      60.073  77.342  73.177  0.00  0.00    +0.000 OA
ATOM      2  C   UNL     1      59.254  77.447  73.164  0.00  0.00    +0.000 C 
ATOM      3  C   UNL     1      58.766  76.848  72.878  0.00  0.00    +0.000 A 
ATOM      4  C   UNL     1      57.948  76.952  72.865  0.00  0.00    +0.000 A 
ATOM      5  N   UNL     1      57.460  76.352  72.578  0.00  0.00    +0.000 NA
ATOM      6  C   UNL     1      57.790  75.648  72.305  0.00  0.00    +0.000 A 
ATOM      7  C   UNL     1      58.608  75.542  72.317  0.00  0.00    +0.000 A 
ATOM      8  C   UNL     1      59.096  76.142  72.604  0.00  0.00    +0.000 A 
ENDROOT
TORSDOF 0
ENDMDL
MODEL 5
REMARK VINA RESULT:    -4.452      7.829      8.324
REMARK INTER + INTRA:          -4.452
REMARK INTER:                  -4.452
REMARK INTRA:                   0.000
REMARK UNBOUND:                 0.000
ROOT
REMARK  Name = nicotinyl alcohol
REMARK                            x       y       z     vdW  Elec       q    Type
REMARK                         _______ _______ _______ _____ _____    ______ ____
ATOM      1  O   UNL     1      66.289  68.010  69.603  0.00  0.00    +0.000 OA
ATOM      2  C   UNL     1      66.259  67.678  70.358  0.00  0.00    +0.000 C 
ATOM      3  C   UNL     1      65.758  67.043  70.510  0.00  0.00    +0.000 A 
ATOM      4  C   UNL     1      65.727  66.711  71.264  0.00  0.00    +0.000 A 
ATOM      5  N   UNL     1      65.225  66.074  71.416  0.00  0.00    +0.000 NA
ATOM      6  C   UNL     1      64.753  65.770  70.813  0.00  0.00    +0.000 A 
ATOM      7  C   UNL     1      64.782  66.100  70.057  0.00  0.00    +0.000 A 
ATOM      8  C   UNL     1      65.284  66.737  69.906  0.00  0.00    +0.000 A 
ENDROOT
TORSDOF 0
ENDMDL
MODEL 6
REMARK VINA RESULT:    -4.390      7.817      8.285
REMARK INTER + INTRA:          -4.390
REMARK INTER:                  -4.390
REMARK INTRA:                   0.000
REMARK UNBOUND:                 0.000
ROOT
REMARK  Name = nicotinyl alcohol
REMARK                            x       y       z     vdW  Elec       q    Type
REMARK                         _______ _______ _______ _____ _____    ______ ____
ATOM      1  O   UNL     1      64.247  66.244  69.367  0.00  0.00    +0.000 OA
ATOM      2  C   UNL     1      64.503  66.107  70.140  0.00  0.00    +0.000 C 
ATOM      3  C   UNL     1      65.149  66.521  70.439  0.00  0.00    +0.000 A 
ATOM      4  C   UNL     1      65.405  66.385  71.212  0.00  0.00    +0.000 A 
ATOM      5  N   UNL     1      66.053  66.799  71.511  0.00  0.00    +0.000 NA
ATOM      6  C   UNL     1      66.444  67.349  71.039  0.00  0.00    +0.000 A 
ATOM      7  C   UNL     1      66.189  67.486  70.266  0.00  0.00    +0.000 A 
ATOM      8  C   UNL     1      65.542  67.072  69.966  0.00  0.00    +0.000 A 
ENDROOT
TORSDOF 0
ENDMDL
MODEL 7
REMARK VINA RESULT:    -4.333     24.856     25.484
REMARK INTER + INTRA:          -4.333
REMARK INTER:                  -4.333
REMARK INTRA:                   0.000
REMARK UNBOUND:                 0.000
ROOT
REMARK  Name = nicotinyl alcohol
REMARK                            x       y       z     vdW  Elec       q    Type
REMARK                         _______ _______ _______ _____ _____    ______ ____
ATOM      1  O   UNL     1      72.850  78.891  48.231  0.00  0.00    +0.000 OA
ATOM      2  C   UNL     1      72.487  79.403  48.768  0.00  0.00    +0.000 C 
ATOM      3  C   UNL     1      71.750  79.214  49.083  0.00  0.00    +0.000 A 
ATOM      4  C   UNL     1      71.387  79.725  49.620  0.00  0.00    +0.000 A 
ATOM      5  N   UNL     1      70.648  79.536  49.935  0.00  0.00    +0.000 NA
ATOM      6  C   UNL     1      70.273  78.836  49.714  0.00  0.00    +0.000 A 
ATOM      7  C   UNL     1      70.634  78.325  49.177  0.00  0.00    +0.000 A 
ATOM      8  C   UNL     1      71.373  78.514  48.862  0.00  0.00    +0.000 A 
ENDROOT
TORSDOF 0
ENDMDL
MODEL 8
REMARK VINA RESULT:    -4.326      1.961      2.543
REMARK INTER + INTRA:          -4.326
REMARK INTER:                  -4.326
REMARK INTRA:                   0.000
REMARK UNBOUND:                 0.000
ROOT
REMARK  Name = nicotinyl alcohol
REMARK                            x       y       z     vdW  Elec       q    Type
REMARK                         _______ _______ _______ _____ _____    ______ ____
ATOM      1  O   UNL     1      60.123  63.323  68.280  0.00  0.00    +0.000 OA
ATOM      2  C   UNL     1      60.629  63.057  67.684  0.00  0.00    +0.000 C 
ATOM      3  C   UNL     1      60.326  62.634  67.045  0.00  0.00    +0.000 A 
ATOM      4  C   UNL     1      60.831  62.368  66.449  0.00  0.00    +0.000 A 
ATOM      5  N   UNL     1      60.527  61.945  65.809  0.00  0.00    +0.000 NA
ATOM      6  C   UNL     1      59.719  61.788  65.765  0.00  0.00    +0.000 A 
ATOM      7  C   UNL     1      59.213  62.054  66.360  0.00  0.00    +0.000 A 
ATOM      8  C   UNL     1      59.516  62.477  67.000  0.00  0.00    +0.000 A 
ENDROOT
TORSDOF 0
ENDMDL
MODEL 9
REMARK VINA RESULT:    -4.145      6.611      7.122
REMARK INTER + INTRA:          -4.145
REMARK INTER:                  -4.145
REMARK INTRA:                   0.000
REMARK UNBOUND:                 0.000
ROOT
REMARK  Name = nicotinyl alcohol
REMARK                            x       y       z     vdW  Elec       q    Type
REMARK                         _______ _______ _______ _____ _____    ______ ____
ATOM      1  O   UNL     1      59.596  64.570  72.310  0.00  0.00    +0.000 OA
ATOM      2  C   UNL     1      59.685  63.932  71.793  0.00  0.00    +0.000 C 
ATOM      3  C   UNL     1      60.310  63.404  71.893  0.00  0.00    +0.000 A 
ATOM      4  C   UNL     1      60.399  62.767  71.377  0.00  0.00    +0.000 A 
ATOM      5  N   UNL     1      61.024  62.238  71.477  0.00  0.00    +0.000 NA
ATOM      6  C   UNL     1      61.560  62.346  72.093  0.00  0.00    +0.000 A 
ATOM      7  C   UNL     1      61.472  62.983  72.611  0.00  0.00    +0.000 A 
ATOM      8  C   UNL     1      60.847  63.512  72.511  0.00  0.00    +0.000 A 
ENDROOT
TORSDOF 0
ENDMDL
