MODEL 1
REMARK VINA RESULT:   -15.751      0.000      0.000
REMARK INTER + INTRA:         -15.751
REMARK INTER:                 -15.751
REMARK INTRA:                   0.000
REMARK UNBOUND:                 0.000
ROOT
REMARK  Name = nicofuranose
REMARK                            x       y       z     vdW  Elec       q    Type
REMARK                         _______ _______ _______ _____ _____    ______ ____
ATOM      1  O   UNL     1      60.520  65.498  71.213  0.00  0.00    +0.000 OA
ATOM      2  C   UNL     1      60.897  65.093  70.601  0.00  0.00    +0.000 C 
ATOM      3  C   UNL     1      60.187  64.675  70.556  0.00  0.00    +0.000 C 
ATOM      4  O   UNL     1      59.569  64.856  71.072  0.00  0.00    +0.000 OA
ATOM      5  C   UNL     1      59.660  65.455  71.631  0.00  0.00    +0.000 C 
ATOM      6  O   UNL     1      60.369  65.873  71.676  0.00  0.00    +0.000 OA
ATOM      7  C   UNL     1      59.041  65.636  72.147  0.00  0.00    +0.000 A 
ATOM      8  C   UNL     1      59.133  66.235  72.706  0.00  0.00    +0.000 A 
ATOM      9  N   UNL     1      58.514  66.416  73.222  0.00  0.00    +0.000 NA
ATOM     10  C   UNL     1      57.805  65.997  73.177  0.00  0.00    +0.000 A 
ATOM     11  C   UNL     1      57.713  65.398  72.618  0.00  0.00    +0.000 A 
ATOM     12  C   UNL     1      58.332  65.217  72.102  0.00  0.00    +0.000 A 
ATOM     13  O   UNL     1      61.126  64.602  69.979  0.00  0.00    +0.000 OA
ATOM     14  C   UNL     1      61.897  64.802  69.768  0.00  0.00    +0.000 C 
ATOM     15  C   UNL     1      62.343  64.448  69.170  0.00  0.00    +0.000 C 
ATOM     16  O   UNL     1      62.020  63.835  68.721  0.00  0.00    +0.000 OA
ATOM     17  C   UNL     1      61.251  63.577  68.871  0.00  0.00    +0.000 C 
ATOM     18  O   UNL     1      60.805  63.929  69.468  0.00  0.00    +0.000 OA
ATOM     19  C   UNL     1      60.927  62.964  68.422  0.00  0.00    +0.000 A 
ATOM     20  C   UNL     1      60.158  62.705  68.572  0.00  0.00    +0.000 A 
ATOM     21  N   UNL     1      59.835  62.093  68.124  0.00  0.00    +0.000 NA
ATOM     22  C   UNL     1      60.280  61.739  67.526  0.00  0.00    +0.000 A 
ATOM     23  C   UNL     1      61.049  61.998  67.377  0.00  0.00    +0.000 A 
ATOM     24  C   UNL     1      61.372  62.610  67.825  0.00  0.00    +0.000 A 
ATOM     25  C   UNL     1      62.146  65.416  70.259  0.00  0.00    +0.000 C 
ATOM     26  O   UNL     1      62.884  65.786  70.238  0.00  0.00    +0.000 OA
ATOM     27  C   UNL     1      63.451  65.544  69.688  0.00  0.00    +0.000 C 
ATOM     28  O   UNL     1      63.280  64.934  69.160  0.00  0.00    +0.000 OA
ATOM     29  C   UNL     1      64.188  65.914  69.668  0.00  0.00    +0.000 A 
ATOM     30  C   UNL     1      64.755  65.672  69.119  0.00  0.00    +0.000 A 
ATOM     31  N   UNL     1      65.492  66.042  69.098  0.00  0.00    +0.000 NA
ATOM     32  C   UNL     1      65.663  66.652  69.627  0.00  0.00    +0.000 A 
ATOM     33  C   UNL     1      65.095  66.893  70.175  0.00  0.00    +0.000 A 
ATOM     34  C   UNL     1      64.358  66.524  70.196  0.00  0.00    +0.000 A 
ATOM     35  C   UNL     1      61.528  65.597  70.774  0.00  0.00    +0.000 C 
ATOM     36  O   UNL     1      61.538  66.178  71.358  0.00  0.00    +0.000 OA
ATOM     37  C   UNL     1      62.212  66.642  71.467  0.00  0.00    +0.000 C 
ATOM     38  O   UNL     1      62.875  66.524  70.992  0.00  0.00    +0.000 OA
ATOM     39  C   UNL     1      62.222  67.223  72.052  0.00  0.00    +0.000 A 
ATOM     40  C   UNL     1      62.896  67.687  72.161  0.00  0.00    +0.000 A 
ATOM     41  N   UNL     1      62.906  68.269  72.747  0.00  0.00    +0.000 NA
ATOM     42  C   UNL     1      62.243  68.387  73.222  0.00  0.00    +0.000 A 
ATOM     43  C   UNL     1      61.569  67.923  73.113  0.00  0.00    +0.000 A 
ATOM     44  C   UNL     1      61.558  67.341  72.528  0.00  0.00    +0.000 A 
ENDROOT
TORSDOF 0
ENDMDL
MODEL 2
REMARK VINA RESULT:   -13.376      0.940      4.431
REMARK INTER + INTRA:         -13.376
REMARK INTER:                 -13.376
REMARK INTRA:                   0.000
REMARK UNBOUND:                 0.000
ROOT
REMARK  Name = nicofuranose
REMARK                            x       y       z     vdW  Elec       q    Type
REMARK                         _______ _______ _______ _____ _____    ______ ____
ATOM      1  O   UNL     1      61.464  65.072  70.237  0.00  0.00    +0.000 OA
ATOM      2  C   UNL     1      61.113  65.570  70.793  0.00  0.00    +0.000 C 
ATOM      3  C   UNL     1      60.435  65.129  70.633  0.00  0.00    +0.000 C 
ATOM      4  O   UNL     1      60.463  64.515  70.082  0.00  0.00    +0.000 OA
ATOM      5  C   UNL     1      61.169  64.342  69.693  0.00  0.00    +0.000 C 
ATOM      6  O   UNL     1      61.848  64.783  69.854  0.00  0.00    +0.000 OA
ATOM      7  C   UNL     1      61.198  63.728  69.142  0.00  0.00    +0.000 A 
ATOM      8  C   UNL     1      61.904  63.556  68.753  0.00  0.00    +0.000 A 
ATOM      9  N   UNL     1      61.932  62.942  68.202  0.00  0.00    +0.000 NA
ATOM     10  C   UNL     1      61.254  62.501  68.041  0.00  0.00    +0.000 A 
ATOM     11  C   UNL     1      60.548  62.673  68.430  0.00  0.00    +0.000 A 
ATOM     12  C   UNL     1      60.519  63.287  68.981  0.00  0.00    +0.000 A 
ATOM     13  O   UNL     1      60.620  65.975  71.316  0.00  0.00    +0.000 OA
ATOM     14  C   UNL     1      61.067  66.563  71.684  0.00  0.00    +0.000 C 
ATOM     15  C   UNL     1      60.794  67.099  72.248  0.00  0.00    +0.000 C 
ATOM     16  O   UNL     1      60.005  67.075  72.492  0.00  0.00    +0.000 OA
ATOM     17  C   UNL     1      59.492  66.515  72.171  0.00  0.00    +0.000 C 
ATOM     18  O   UNL     1      59.765  65.979  71.607  0.00  0.00    +0.000 OA
ATOM     19  C   UNL     1      58.703  66.491  72.415  0.00  0.00    +0.000 A 
ATOM     20  C   UNL     1      58.190  65.931  72.094  0.00  0.00    +0.000 A 
ATOM     21  N   UNL     1      57.402  65.907  72.337  0.00  0.00    +0.000 NA
ATOM     22  C   UNL     1      57.128  66.442  72.901  0.00  0.00    +0.000 A 
ATOM     23  C   UNL     1      57.642  67.003  73.222  0.00  0.00    +0.000 A 
ATOM     24  C   UNL     1      58.429  67.027  72.979  0.00  0.00    +0.000 A 
ATOM     25  C   UNL     1      61.836  66.520  71.388  0.00  0.00    +0.000 C 
ATOM     26  O   UNL     1      62.467  67.007  71.605  0.00  0.00    +0.000 OA
ATOM     27  C   UNL     1      62.355  67.602  72.167  0.00  0.00    +0.000 C 
ATOM     28  O   UNL     1      61.613  67.710  72.511  0.00  0.00    +0.000 OA
ATOM     29  C   UNL     1      62.985  68.088  72.383  0.00  0.00    +0.000 A 
ATOM     30  C   UNL     1      62.873  68.682  72.945  0.00  0.00    +0.000 A 
ATOM     31  N   UNL     1      63.503  69.168  73.161  0.00  0.00    +0.000 NA
ATOM     32  C   UNL     1      64.246  69.060  72.817  0.00  0.00    +0.000 A 
ATOM     33  C   UNL     1      64.357  68.466  72.256  0.00  0.00    +0.000 A 
ATOM     34  C   UNL     1      63.726  67.980  72.039  0.00  0.00    +0.000 A 
ATOM     35  C   UNL     1      61.865  65.907  70.838  0.00  0.00    +0.000 C 
ATOM     36  O   UNL     1      62.528  65.672  70.408  0.00  0.00    +0.000 OA
ATOM     37  C   UNL     1      63.247  66.063  70.511  0.00  0.00    +0.000 C 
ATOM     38  O   UNL     1      63.302  66.690  71.045  0.00  0.00    +0.000 OA
ATOM     39  C   UNL     1      63.910  65.828  70.081  0.00  0.00    +0.000 A 
ATOM     40  C   UNL     1      64.629  66.219  70.184  0.00  0.00    +0.000 A 
ATOM     41  N   UNL     1      65.293  65.984  69.754  0.00  0.00    +0.000 NA
ATOM     42  C   UNL     1      65.237  65.357  69.220  0.00  0.00    +0.000 A 
ATOM     43  C   UNL     1      64.518  64.966  69.117  0.00  0.00    +0.000 A 
ATOM     44  C   UNL     1      63.854  65.201  69.547  0.00  0.00    +0.000 A 
ENDROOT
TORSDOF 0
ENDMDL
MODEL 3
REMARK VINA RESULT:   -13.251     16.040     18.736
REMARK INTER + INTRA:         -13.251
REMARK INTER:                 -13.251
REMARK INTRA:                   0.000
REMARK UNBOUND:                 0.000
ROOT
REMARK  Name = nicofuranose
REMARK                            x       y       z     vdW  Elec       q    Type
REMARK                         _______ _______ _______ _____ _____    ______ ____
ATOM      1  O   UNL     1      61.834  67.715  51.902  0.00  0.00    +0.000 OA
ATOM      2  C   UNL     1      61.969  67.463  52.676  0.00  0.00    +0.000 C 
ATOM      3  C   UNL     1      62.000  68.270  52.842  0.00  0.00    +0.000 C 
ATOM      4  O   UNL     1      61.896  68.821  52.235  0.00  0.00    +0.000 OA
ATOM      5  C   UNL     1      61.760  68.563  51.464  0.00  0.00    +0.000 C 
ATOM      6  O   UNL     1      61.729  67.756  51.298  0.00  0.00    +0.000 OA
ATOM      7  C   UNL     1      61.656  69.113  50.858  0.00  0.00    +0.000 A 
ATOM      8  C   UNL     1      61.520  68.856  50.086  0.00  0.00    +0.000 A 
ATOM      9  N   UNL     1      61.416  69.406  49.480  0.00  0.00    +0.000 NA
ATOM     10  C   UNL     1      61.448  70.213  49.646  0.00  0.00    +0.000 A 
ATOM     11  C   UNL     1      61.583  70.471  50.417  0.00  0.00    +0.000 A 
ATOM     12  C   UNL     1      61.688  69.921  51.024  0.00  0.00    +0.000 A 
ATOM     13  O   UNL     1      62.110  67.379  53.484  0.00  0.00    +0.000 OA
ATOM     14  C   UNL     1      62.137  66.573  53.655  0.00  0.00    +0.000 C 
ATOM     15  C   UNL     1      62.266  66.240  54.399  0.00  0.00    +0.000 C 
ATOM     16  O   UNL     1      62.382  66.727  55.056  0.00  0.00    +0.000 OA
ATOM     17  C   UNL     1      62.369  67.547  54.967  0.00  0.00    +0.000 C 
ATOM     18  O   UNL     1      62.241  67.880  54.224  0.00  0.00    +0.000 OA
ATOM     19  C   UNL     1      62.485  68.034  55.623  0.00  0.00    +0.000 A 
ATOM     20  C   UNL     1      62.473  68.854  55.535  0.00  0.00    +0.000 A 
ATOM     21  N   UNL     1      62.589  69.341  56.191  0.00  0.00    +0.000 NA
ATOM     22  C   UNL     1      62.718  69.008  56.935  0.00  0.00    +0.000 A 
ATOM     23  C   UNL     1      62.730  68.188  57.022  0.00  0.00    +0.000 A 
ATOM     24  C   UNL     1      62.614  67.701  56.367  0.00  0.00    +0.000 A 
ATOM     25  C   UNL     1      62.013  66.158  52.953  0.00  0.00    +0.000 C 
ATOM     26  O   UNL     1      61.996  65.337  52.871  0.00  0.00    +0.000 OA
ATOM     27  C   UNL     1      62.110  64.854  53.531  0.00  0.00    +0.000 C 
ATOM     28  O   UNL     1      62.241  65.193  54.273  0.00  0.00    +0.000 OA
ATOM     29  C   UNL     1      62.093  64.034  53.449  0.00  0.00    +0.000 A 
ATOM     30  C   UNL     1      62.207  63.551  54.109  0.00  0.00    +0.000 A 
ATOM     31  N   UNL     1      62.190  62.731  54.026  0.00  0.00    +0.000 NA
ATOM     32  C   UNL     1      62.059  62.392  53.285  0.00  0.00    +0.000 A 
ATOM     33  C   UNL     1      61.946  62.876  52.626  0.00  0.00    +0.000 A 
ATOM     34  C   UNL     1      61.962  63.696  52.708  0.00  0.00    +0.000 A 
ATOM     35  C   UNL     1      61.909  66.708  52.347  0.00  0.00    +0.000 C 
ATOM     36  O   UNL     1      61.770  66.534  51.554  0.00  0.00    +0.000 OA
ATOM     37  C   UNL     1      61.724  65.749  51.305  0.00  0.00    +0.000 C 
ATOM     38  O   UNL     1      61.817  65.137  51.851  0.00  0.00    +0.000 OA
ATOM     39  C   UNL     1      61.584  65.575  50.511  0.00  0.00    +0.000 A 
ATOM     40  C   UNL     1      61.539  64.789  50.262  0.00  0.00    +0.000 A 
ATOM     41  N   UNL     1      61.399  64.615  49.468  0.00  0.00    +0.000 NA
ATOM     42  C   UNL     1      61.306  65.227  48.922  0.00  0.00    +0.000 A 
ATOM     43  C   UNL     1      61.352  66.012  49.170  0.00  0.00    +0.000 A 
ATOM     44  C   UNL     1      61.491  66.186  49.965  0.00  0.00    +0.000 A 
ENDROOT
TORSDOF 0
ENDMDL
MODEL 4
REMARK VINA RESULT:   -13.047     15.567     17.804
REMARK INTER + INTRA:         -13.047
REMARK INTER:                 -13.047
REMARK INTRA:                   0.000
REMARK UNBOUND:                 0.000
ROOT
REMARK  Name = nicofuranose
REMARK                            x       y       z     vdW  Elec       q    Type
REMARK                         _______ _______ _______ _____ _____    ______ ____
ATOM      1  O   UNL     1      60.785  66.826  52.101  0.00  0.00    +0.000 OA
ATOM      2  C   UNL     1      61.227  66.380  52.636  0.00  0.00    +0.000 C 
ATOM      3  C   UNL     1      61.110  65.771  52.092  0.00  0.00    +0.000 C 
ATOM      4  O   UNL     1      60.678  65.911  51.403  0.00  0.00    +0.000 OA
ATOM      5  C   UNL     1      60.363  66.659  51.258  0.00  0.00    +0.000 C 
ATOM      6  O   UNL     1      60.479  67.268  51.803  0.00  0.00    +0.000 OA
ATOM      7  C   UNL     1      59.930  66.799  50.569  0.00  0.00    +0.000 A 
ATOM      8  C   UNL     1      59.615  67.547  50.425  0.00  0.00    +0.000 A 
ATOM      9  N   UNL     1      59.183  67.687  49.736  0.00  0.00    +0.000 NA
ATOM     10  C   UNL     1      59.066  67.078  49.192  0.00  0.00    +0.000 A 
ATOM     11  C   UNL     1      59.381  66.330  49.336  0.00  0.00    +0.000 A 
ATOM     12  C   UNL     1      59.814  66.190  50.025  0.00  0.00    +0.000 A 
ATOM     13  O   UNL     1      61.644  65.807  53.057  0.00  0.00    +0.000 OA
ATOM     14  C   UNL     1      61.926  66.154  53.750  0.00  0.00    +0.000 C 
ATOM     15  C   UNL     1      62.372  65.779  54.334  0.00  0.00    +0.000 C 
ATOM     16  O   UNL     1      62.574  64.983  54.252  0.00  0.00    +0.000 OA
ATOM     17  C   UNL     1      62.330  64.563  53.585  0.00  0.00    +0.000 C 
ATOM     18  O   UNL     1      61.884  64.937  53.002  0.00  0.00    +0.000 OA
ATOM     19  C   UNL     1      62.532  63.767  53.503  0.00  0.00    +0.000 A 
ATOM     20  C   UNL     1      62.287  63.347  52.836  0.00  0.00    +0.000 A 
ATOM     21  N   UNL     1      62.490  62.551  52.754  0.00  0.00    +0.000 NA
ATOM     22  C   UNL     1      62.936  62.176  53.337  0.00  0.00    +0.000 A 
ATOM     23  C   UNL     1      63.180  62.597  54.004  0.00  0.00    +0.000 A 
ATOM     24  C   UNL     1      62.978  63.392  54.086  0.00  0.00    +0.000 A 
ATOM     25  C   UNL     1      61.683  66.943  53.757  0.00  0.00    +0.000 C 
ATOM     26  O   UNL     1      61.844  67.495  54.349  0.00  0.00    +0.000 OA
ATOM     27  C   UNL     1      62.286  67.274  55.010  0.00  0.00    +0.000 C 
ATOM     28  O   UNL     1      62.567  66.500  55.079  0.00  0.00    +0.000 OA
ATOM     29  C   UNL     1      62.447  67.826  55.601  0.00  0.00    +0.000 A 
ATOM     30  C   UNL     1      62.889  67.605  56.262  0.00  0.00    +0.000 A 
ATOM     31  N   UNL     1      63.050  68.156  56.853  0.00  0.00    +0.000 NA
ATOM     32  C   UNL     1      62.770  68.930  56.784  0.00  0.00    +0.000 A 
ATOM     33  C   UNL     1      62.328  69.150  56.123  0.00  0.00    +0.000 A 
ATOM     34  C   UNL     1      62.167  68.598  55.532  0.00  0.00    +0.000 A 
ATOM     35  C   UNL     1      61.251  67.083  53.068  0.00  0.00    +0.000 C 
ATOM     36  O   UNL     1      60.905  67.798  52.850  0.00  0.00    +0.000 OA
ATOM     37  C   UNL     1      60.976  68.457  53.341  0.00  0.00    +0.000 C 
ATOM     38  O   UNL     1      61.393  68.401  54.050  0.00  0.00    +0.000 OA
ATOM     39  C   UNL     1      60.629  69.174  53.123  0.00  0.00    +0.000 A 
ATOM     40  C   UNL     1      60.700  69.833  53.614  0.00  0.00    +0.000 A 
ATOM     41  N   UNL     1      60.353  70.549  53.396  0.00  0.00    +0.000 NA
ATOM     42  C   UNL     1      59.935  70.606  52.686  0.00  0.00    +0.000 A 
ATOM     43  C   UNL     1      59.864  69.946  52.195  0.00  0.00    +0.000 A 
ATOM     44  C   UNL     1      60.211  69.230  52.414  0.00  0.00    +0.000 A 
ENDROOT
TORSDOF 0
ENDMDL
MODEL 5
REMARK VINA RESULT:   -13.011     16.610     19.150
REMARK INTER + INTRA:         -13.011
REMARK INTER:                 -13.011
REMARK INTRA:                   0.000
REMARK UNBOUND:                 0.000
ROOT
REMARK  Name = nicofuranose
REMARK                            x       y       z     vdW  Elec       q    Type
REMARK                         _______ _______ _______ _____ _____    ______ ____
ATOM      1  O   UNL     1      61.624  65.771  51.235  0.00  0.00    +0.000 OA
ATOM      2  C   UNL     1      61.684  66.587  51.339  0.00  0.00    +0.000 C 
ATOM      3  C   UNL     1      61.528  66.616  50.530  0.00  0.00    +0.000 C 
ATOM      4  O   UNL     1      61.412  65.916  50.107  0.00  0.00    +0.000 OA
ATOM      5  C   UNL     1      61.452  65.189  50.495  0.00  0.00    +0.000 C 
ATOM      6  O   UNL     1      61.608  65.161  51.305  0.00  0.00    +0.000 OA
ATOM      7  C   UNL     1      61.336  64.490  50.072  0.00  0.00    +0.000 A 
ATOM      8  C   UNL     1      61.377  63.763  50.460  0.00  0.00    +0.000 A 
ATOM      9  N   UNL     1      61.261  63.063  50.038  0.00  0.00    +0.000 NA
ATOM     10  C   UNL     1      61.104  63.091  49.228  0.00  0.00    +0.000 A 
ATOM     11  C   UNL     1      61.064  63.818  48.840  0.00  0.00    +0.000 A 
ATOM     12  C   UNL     1      61.180  64.518  49.263  0.00  0.00    +0.000 A 
ATOM     13  O   UNL     1      61.711  67.409  51.275  0.00  0.00    +0.000 OA
ATOM     14  C   UNL     1      61.871  67.718  52.023  0.00  0.00    +0.000 C 
ATOM     15  C   UNL     1      61.947  68.518  52.211  0.00  0.00    +0.000 C 
ATOM     16  O   UNL     1      61.860  69.091  51.623  0.00  0.00    +0.000 OA
ATOM     17  C   UNL     1      61.698  68.862  50.847  0.00  0.00    +0.000 C 
ATOM     18  O   UNL     1      61.623  68.064  50.658  0.00  0.00    +0.000 OA
ATOM     19  C   UNL     1      61.611  69.435  50.258  0.00  0.00    +0.000 A 
ATOM     20  C   UNL     1      61.449  69.207  49.482  0.00  0.00    +0.000 A 
ATOM     21  N   UNL     1      61.362  69.779  48.894  0.00  0.00    +0.000 NA
ATOM     22  C   UNL     1      61.437  70.579  49.082  0.00  0.00    +0.000 A 
ATOM     23  C   UNL     1      61.599  70.806  49.859  0.00  0.00    +0.000 A 
ATOM     24  C   UNL     1      61.686  70.235  50.446  0.00  0.00    +0.000 A 
ATOM     25  C   UNL     1      61.943  67.087  52.549  0.00  0.00    +0.000 C 
ATOM     26  O   UNL     1      62.103  67.145  53.357  0.00  0.00    +0.000 OA
ATOM     27  C   UNL     1      62.207  67.887  53.705  0.00  0.00    +0.000 C 
ATOM     28  O   UNL     1      62.150  68.570  53.245  0.00  0.00    +0.000 OA
ATOM     29  C   UNL     1      62.366  67.945  54.512  0.00  0.00    +0.000 A 
ATOM     30  C   UNL     1      62.470  68.686  54.860  0.00  0.00    +0.000 A 
ATOM     31  N   UNL     1      62.630  68.744  55.667  0.00  0.00    +0.000 NA
ATOM     32  C   UNL     1      62.686  68.061  56.127  0.00  0.00    +0.000 A 
ATOM     33  C   UNL     1      62.583  67.320  55.778  0.00  0.00    +0.000 A 
ATOM     34  C   UNL     1      62.423  67.262  54.971  0.00  0.00    +0.000 A 
ATOM     35  C   UNL     1      61.828  66.388  52.128  0.00  0.00    +0.000 C 
ATOM     36  O   UNL     1      61.851  65.625  52.438  0.00  0.00    +0.000 OA
ATOM     37  C   UNL     1      62.002  65.511  53.241  0.00  0.00    +0.000 C 
ATOM     38  O   UNL     1      62.129  66.160  53.733  0.00  0.00    +0.000 OA
ATOM     39  C   UNL     1      62.025  64.747  53.552  0.00  0.00    +0.000 A 
ATOM     40  C   UNL     1      62.176  64.633  54.355  0.00  0.00    +0.000 A 
ATOM     41  N   UNL     1      62.200  63.868  54.666  0.00  0.00    +0.000 NA
ATOM     42  C   UNL     1      62.073  63.219  54.173  0.00  0.00    +0.000 A 
ATOM     43  C   UNL     1      61.922  63.333  53.370  0.00  0.00    +0.000 A 
ATOM     44  C   UNL     1      61.898  64.097  53.059  0.00  0.00    +0.000 A 
ENDROOT
TORSDOF 0
ENDMDL
MODEL 6
REMARK VINA RESULT:   -13.008     15.522     17.770
REMARK INTER + INTRA:         -13.008
REMARK INTER:                 -13.008
REMARK INTRA:                   0.000
REMARK UNBOUND:                 0.000
ROOT
REMARK  Name = nicofuranose
REMARK                            x       y       z     vdW  Elec       q    Type
REMARK                         _______ _______ _______ _____ _____    ______ ____
ATOM      1  O   UNL     1      61.917  67.281  54.237  0.00  0.00    +0.000 OA
ATOM      2  C   UNL     1      61.923  66.597  53.776  0.00  0.00    +0.000 C 
ATOM      3  C   UNL     1      62.369  66.287  54.398  0.00  0.00    +0.000 C 
ATOM      4  O   UNL     1      62.545  66.756  55.053  0.00  0.00    +0.000 OA
ATOM      5  C   UNL     1      62.275  67.535  55.087  0.00  0.00    +0.000 C 
ATOM      6  O   UNL     1      61.830  67.845  54.465  0.00  0.00    +0.000 OA
ATOM      7  C   UNL     1      62.452  68.004  55.742  0.00  0.00    +0.000 A 
ATOM      8  C   UNL     1      62.182  68.783  55.776  0.00  0.00    +0.000 A 
ATOM      9  N   UNL     1      62.359  69.253  56.431  0.00  0.00    +0.000 NA
ATOM     10  C   UNL     1      62.804  68.943  57.053  0.00  0.00    +0.000 A 
ATOM     11  C   UNL     1      63.073  68.164  57.020  0.00  0.00    +0.000 A 
ATOM     12  C   UNL     1      62.897  67.694  56.364  0.00  0.00    +0.000 A 
ATOM     13  O   UNL     1      62.023  65.848  53.445  0.00  0.00    +0.000 OA
ATOM     14  C   UNL     1      61.639  65.838  52.716  0.00  0.00    +0.000 C 
ATOM     15  C   UNL     1      61.598  65.198  52.197  0.00  0.00    +0.000 C 
ATOM     16  O   UNL     1      61.965  64.484  52.393  0.00  0.00    +0.000 OA
ATOM     17  C   UNL     1      62.372  64.413  53.107  0.00  0.00    +0.000 C 
ATOM     18  O   UNL     1      62.412  65.052  53.625  0.00  0.00    +0.000 OA
ATOM     19  C   UNL     1      62.739  63.700  53.303  0.00  0.00    +0.000 A 
ATOM     20  C   UNL     1      63.145  63.628  54.017  0.00  0.00    +0.000 A 
ATOM     21  N   UNL     1      63.512  62.915  54.212  0.00  0.00    +0.000 NA
ATOM     22  C   UNL     1      63.472  62.274  53.694  0.00  0.00    +0.000 A 
ATOM     23  C   UNL     1      63.065  62.347  52.980  0.00  0.00    +0.000 A 
ATOM     24  C   UNL     1      62.699  63.059  52.784  0.00  0.00    +0.000 A 
ATOM     25  C   UNL     1      61.301  66.581  52.596  0.00  0.00    +0.000 C 
ATOM     26  O   UNL     1      60.863  66.814  51.936  0.00  0.00    +0.000 OA
ATOM     27  C   UNL     1      60.732  66.281  51.319  0.00  0.00    +0.000 C 
ATOM     28  O   UNL     1      61.037  65.516  51.363  0.00  0.00    +0.000 OA
ATOM     29  C   UNL     1      60.295  66.515  50.660  0.00  0.00    +0.000 A 
ATOM     30  C   UNL     1      60.163  65.982  50.043  0.00  0.00    +0.000 A 
ATOM     31  N   UNL     1      59.726  66.215  49.384  0.00  0.00    +0.000 NA
ATOM     32  C   UNL     1      59.420  66.981  49.340  0.00  0.00    +0.000 A 
ATOM     33  C   UNL     1      59.553  67.513  49.957  0.00  0.00    +0.000 A 
ATOM     34  C   UNL     1      59.990  67.279  50.616  0.00  0.00    +0.000 A 
ATOM     35  C   UNL     1      61.477  67.050  53.251  0.00  0.00    +0.000 C 
ATOM     36  O   UNL     1      61.247  67.834  53.362  0.00  0.00    +0.000 OA
ATOM     37  C   UNL     1      60.799  68.218  52.785  0.00  0.00    +0.000 C 
ATOM     38  O   UNL     1      60.580  67.818  52.098  0.00  0.00    +0.000 OA
ATOM     39  C   UNL     1      60.568  69.003  52.896  0.00  0.00    +0.000 A 
ATOM     40  C   UNL     1      60.120  69.386  52.319  0.00  0.00    +0.000 A 
ATOM     41  N   UNL     1      59.890  70.171  52.430  0.00  0.00    +0.000 NA
ATOM     42  C   UNL     1      60.108  70.572  53.117  0.00  0.00    +0.000 A 
ATOM     43  C   UNL     1      60.557  70.188  53.694  0.00  0.00    +0.000 A 
ATOM     44  C   UNL     1      60.787  69.403  53.583  0.00  0.00    +0.000 A 
ENDROOT
TORSDOF 0
ENDMDL
MODEL 7
REMARK VINA RESULT:   -12.958     15.989     18.599
REMARK INTER + INTRA:         -12.958
REMARK INTER:                 -12.958
REMARK INTRA:                   0.000
REMARK UNBOUND:                 0.000
ROOT
REMARK  Name = nicofuranose
REMARK                            x       y       z     vdW  Elec       q    Type
REMARK                         _______ _______ _______ _____ _____    ______ ____
ATOM      1  O   UNL     1      62.091  65.623  52.965  0.00  0.00    +0.000 OA
ATOM      2  C   UNL     1      62.124  66.387  53.273  0.00  0.00    +0.000 C 
ATOM      3  C   UNL     1      62.272  66.001  53.986  0.00  0.00    +0.000 C 
ATOM      4  O   UNL     1      62.303  65.176  54.010  0.00  0.00    +0.000 OA
ATOM      5  C   UNL     1      62.187  64.739  53.320  0.00  0.00    +0.000 C 
ATOM      6  O   UNL     1      62.040  65.126  52.607  0.00  0.00    +0.000 OA
ATOM      7  C   UNL     1      62.219  63.915  53.344  0.00  0.00    +0.000 A 
ATOM      8  C   UNL     1      62.103  63.478  52.654  0.00  0.00    +0.000 A 
ATOM      9  N   UNL     1      62.135  62.654  52.678  0.00  0.00    +0.000 NA
ATOM     10  C   UNL     1      62.282  62.267  53.391  0.00  0.00    +0.000 A 
ATOM     11  C   UNL     1      62.398  62.704  54.081  0.00  0.00    +0.000 A 
ATOM     12  C   UNL     1      62.367  63.528  54.058  0.00  0.00    +0.000 A 
ATOM     13  O   UNL     1      62.188  67.071  53.729  0.00  0.00    +0.000 OA
ATOM     14  C   UNL     1      62.073  67.720  53.234  0.00  0.00    +0.000 C 
ATOM     15  C   UNL     1      62.090  68.513  53.462  0.00  0.00    +0.000 C 
ATOM     16  O   UNL     1      62.232  68.714  54.250  0.00  0.00    +0.000 OA
ATOM     17  C   UNL     1      62.357  68.120  54.809  0.00  0.00    +0.000 C 
ATOM     18  O   UNL     1      62.340  67.328  54.582  0.00  0.00    +0.000 OA
ATOM     19  C   UNL     1      62.499  68.321  55.597  0.00  0.00    +0.000 A 
ATOM     20  C   UNL     1      62.625  67.727  56.157  0.00  0.00    +0.000 A 
ATOM     21  N   UNL     1      62.767  67.928  56.945  0.00  0.00    +0.000 NA
ATOM     22  C   UNL     1      62.784  68.720  57.173  0.00  0.00    +0.000 A 
ATOM     23  C   UNL     1      62.658  69.313  56.612  0.00  0.00    +0.000 A 
ATOM     24  C   UNL     1      62.516  69.113  55.825  0.00  0.00    +0.000 A 
ATOM     25  C   UNL     1      61.938  67.437  52.471  0.00  0.00    +0.000 C 
ATOM     26  O   UNL     1      61.796  67.899  51.801  0.00  0.00    +0.000 OA
ATOM     27  C   UNL     1      61.781  68.722  51.862  0.00  0.00    +0.000 C 
ATOM     28  O   UNL     1      61.907  69.084  52.593  0.00  0.00    +0.000 OA
ATOM     29  C   UNL     1      61.639  69.182  51.193  0.00  0.00    +0.000 A 
ATOM     30  C   UNL     1      61.623  70.005  51.254  0.00  0.00    +0.000 A 
ATOM     31  N   UNL     1      61.482  70.465  50.585  0.00  0.00    +0.000 NA
ATOM     32  C   UNL     1      61.356  70.103  49.853  0.00  0.00    +0.000 A 
ATOM     33  C   UNL     1      61.371  69.281  49.793  0.00  0.00    +0.000 A 
ATOM     34  C   UNL     1      61.513  68.820  50.462  0.00  0.00    +0.000 A 
ATOM     35  C   UNL     1      61.970  66.614  52.494  0.00  0.00    +0.000 C 
ATOM     36  O   UNL     1      61.865  66.106  51.853  0.00  0.00    +0.000 OA
ATOM     37  C   UNL     1      61.713  66.415  51.103  0.00  0.00    +0.000 C 
ATOM     38  O   UNL     1      61.666  67.231  50.994  0.00  0.00    +0.000 OA
ATOM     39  C   UNL     1      61.609  65.906  50.461  0.00  0.00    +0.000 A 
ATOM     40  C   UNL     1      61.457  66.215  49.712  0.00  0.00    +0.000 A 
ATOM     41  N   UNL     1      61.353  65.707  49.070  0.00  0.00    +0.000 NA
ATOM     42  C   UNL     1      61.400  64.890  49.178  0.00  0.00    +0.000 A 
ATOM     43  C   UNL     1      61.552  64.582  49.928  0.00  0.00    +0.000 A 
ATOM     44  C   UNL     1      61.656  65.090  50.570  0.00  0.00    +0.000 A 
ENDROOT
TORSDOF 0
ENDMDL
