MODEL 1
REMARK VINA RESULT:   -15.080      0.000      0.000
REMARK INTER + INTRA:         -15.080
REMARK INTER:                 -15.080
REMARK INTRA:                   0.000
REMARK UNBOUND:                 0.000
ROOT
REMARK  Name = nicomorphine
REMARK                            x       y       z     vdW  Elec       q    Type
REMARK                         _______ _______ _______ _____ _____    ______ ____
ATOM      1  C   UNL     1      65.160  67.359  72.098  0.00  0.00    +0.000 C 
ATOM      2  N   UNL     1      64.474  66.994  71.821  0.00  0.00    +0.000 NA
ATOM      3  C   UNL     1      63.721  67.100  72.104  0.00  0.00    +0.000 C 
ATOM      4  C   UNL     1      63.002  66.569  71.642  0.00  0.00    +0.000 C 
ATOM      5  C   UNL     1      63.097  66.007  70.971  0.00  0.00    +0.000 C 
ATOM      6  C   UNL     1      62.275  65.895  71.016  0.00  0.00    +0.000 C 
ATOM      7  O   UNL     1      62.149  65.331  70.390  0.00  0.00    +0.000 OA
ATOM      8  C   UNL     1      62.869  65.108  69.979  0.00  0.00    +0.000 A 
ATOM      9  C   UNL     1      63.444  65.542  70.359  0.00  0.00    +0.000 A 
ATOM     10  C   UNL     1      64.273  65.548  70.190  0.00  0.00    +0.000 A 
ATOM     11  C   UNL     1      64.779  66.027  70.637  0.00  0.00    +0.000 C 
ATOM     12  C   UNL     1      64.425  66.463  71.217  0.00  0.00    +0.000 C 
ATOM     13  C   UNL     1      63.534  66.344  71.268  0.00  0.00    +0.000 C 
ATOM     14  C   UNL     1      63.210  66.902  71.983  0.00  0.00    +0.000 C 
ATOM     15  C   UNL     1      62.388  66.892  72.146  0.00  0.00    +0.000 C 
ATOM     16  C   UNL     1      61.938  66.382  71.651  0.00  0.00    +0.000 C 
ATOM     17  O   UNL     1      61.123  66.342  71.777  0.00  0.00    +0.000 OA
ATOM     18  C   UNL     1      60.775  66.794  72.374  0.00  0.00    +0.000 C 
ATOM     19  O   UNL     1      61.242  67.285  72.843  0.00  0.00    +0.000 OA
ATOM     20  C   UNL     1      59.961  66.753  72.500  0.00  0.00    +0.000 A 
ATOM     21  C   UNL     1      59.614  67.205  73.096  0.00  0.00    +0.000 A 
ATOM     22  N   UNL     1      58.799  67.165  73.222  0.00  0.00    +0.000 NA
ATOM     23  C   UNL     1      58.333  66.673  72.752  0.00  0.00    +0.000 A 
ATOM     24  C   UNL     1      58.681  66.221  72.156  0.00  0.00    +0.000 A 
ATOM     25  C   UNL     1      59.495  66.261  72.029  0.00  0.00    +0.000 A 
ATOM     26  C   UNL     1      64.546  65.069  69.579  0.00  0.00    +0.000 A 
ATOM     27  C   UNL     1      64.004  64.605  69.157  0.00  0.00    +0.000 A 
ATOM     28  C   UNL     1      63.187  64.627  69.355  0.00  0.00    +0.000 A 
ATOM     29  O   UNL     1      62.667  64.156  68.920  0.00  0.00    +0.000 OA
ATOM     30  C   UNL     1      61.861  64.160  69.097  0.00  0.00    +0.000 C 
ATOM     31  O   UNL     1      61.575  64.636  69.707  0.00  0.00    +0.000 OA
ATOM     32  C   UNL     1      61.341  63.689  68.662  0.00  0.00    +0.000 A 
ATOM     33  C   UNL     1      60.536  63.694  68.838  0.00  0.00    +0.000 A 
ATOM     34  N   UNL     1      60.016  63.224  68.404  0.00  0.00    +0.000 NA
ATOM     35  C   UNL     1      60.302  62.748  67.793  0.00  0.00    +0.000 A 
ATOM     36  C   UNL     1      61.108  62.743  67.617  0.00  0.00    +0.000 A 
ATOM     37  C   UNL     1      61.627  63.214  68.051  0.00  0.00    +0.000 A 
ENDROOT
TORSDOF 0
ENDMDL
MODEL 2
REMARK VINA RESULT:   -14.954      0.691      4.199
REMARK INTER + INTRA:         -14.954
REMARK INTER:                 -14.954
REMARK INTRA:                   0.000
REMARK UNBOUND:                 0.000
ROOT
REMARK  Name = nicomorphine
REMARK                            x       y       z     vdW  Elec       q    Type
REMARK                         _______ _______ _______ _____ _____    ______ ____
ATOM      1  C   UNL     1      65.680  66.681  71.040  0.00  0.00    +0.000 C 
ATOM      2  N   UNL     1      64.875  66.504  71.016  0.00  0.00    +0.000 NA
ATOM      3  C   UNL     1      64.508  65.987  70.510  0.00  0.00    +0.000 C 
ATOM      4  C   UNL     1      63.512  65.897  70.625  0.00  0.00    +0.000 C 
ATOM      5  C   UNL     1      63.000  66.312  71.208  0.00  0.00    +0.000 C 
ATOM      6  C   UNL     1      62.366  65.893  70.872  0.00  0.00    +0.000 C 
ATOM      7  O   UNL     1      61.712  66.178  71.337  0.00  0.00    +0.000 OA
ATOM      8  C   UNL     1      61.939  66.750  71.935  0.00  0.00    +0.000 A 
ATOM      9  C   UNL     1      62.744  66.816  71.835  0.00  0.00    +0.000 A 
ATOM     10  C   UNL     1      63.275  67.307  72.275  0.00  0.00    +0.000 A 
ATOM     11  C   UNL     1      64.083  67.303  72.094  0.00  0.00    +0.000 C 
ATOM     12  C   UNL     1      64.304  66.814  71.491  0.00  0.00    +0.000 C 
ATOM     13  C   UNL     1      63.618  66.358  71.125  0.00  0.00    +0.000 C 
ATOM     14  C   UNL     1      63.983  65.809  70.423  0.00  0.00    +0.000 C 
ATOM     15  C   UNL     1      63.453  65.324  69.989  0.00  0.00    +0.000 C 
ATOM     16  C   UNL     1      62.649  65.382  70.230  0.00  0.00    +0.000 C 
ATOM     17  O   UNL     1      62.094  64.921  69.829  0.00  0.00    +0.000 OA
ATOM     18  C   UNL     1      62.334  64.425  69.215  0.00  0.00    +0.000 C 
ATOM     19  O   UNL     1      63.129  64.390  69.001  0.00  0.00    +0.000 OA
ATOM     20  C   UNL     1      61.778  63.965  68.815  0.00  0.00    +0.000 A 
ATOM     21  C   UNL     1      62.019  63.470  68.201  0.00  0.00    +0.000 A 
ATOM     22  N   UNL     1      61.463  63.009  67.801  0.00  0.00    +0.000 NA
ATOM     23  C   UNL     1      60.667  63.045  68.015  0.00  0.00    +0.000 A 
ATOM     24  C   UNL     1      60.427  63.541  68.629  0.00  0.00    +0.000 A 
ATOM     25  C   UNL     1      60.982  64.001  69.029  0.00  0.00    +0.000 A 
ATOM     26  C   UNL     1      62.960  67.775  72.874  0.00  0.00    +0.000 A 
ATOM     27  C   UNL     1      62.144  67.748  73.021  0.00  0.00    +0.000 A 
ATOM     28  C   UNL     1      61.650  67.247  72.561  0.00  0.00    +0.000 A 
ATOM     29  O   UNL     1      60.842  67.237  72.726  0.00  0.00    +0.000 OA
ATOM     30  C   UNL     1      60.337  66.753  72.288  0.00  0.00    +0.000 C 
ATOM     31  O   UNL     1      60.640  66.279  71.685  0.00  0.00    +0.000 OA
ATOM     32  C   UNL     1      59.528  66.743  72.454  0.00  0.00    +0.000 A 
ATOM     33  C   UNL     1      59.024  66.259  72.016  0.00  0.00    +0.000 A 
ATOM     34  N   UNL     1      58.216  66.249  72.181  0.00  0.00    +0.000 NA
ATOM     35  C   UNL     1      57.912  66.723  72.784  0.00  0.00    +0.000 A 
ATOM     36  C   UNL     1      58.417  67.207  73.222  0.00  0.00    +0.000 A 
ATOM     37  C   UNL     1      59.225  67.217  73.057  0.00  0.00    +0.000 A 
ENDROOT
TORSDOF 0
ENDMDL
MODEL 3
REMARK VINA RESULT:   -14.805      2.826      5.270
REMARK INTER + INTRA:         -14.805
REMARK INTER:                 -14.805
REMARK INTRA:                   0.000
REMARK UNBOUND:                 0.000
ROOT
REMARK  Name = nicomorphine
REMARK                            x       y       z     vdW  Elec       q    Type
REMARK                         _______ _______ _______ _____ _____    ______ ____
ATOM      1  C   UNL     1      62.037  60.698  72.521  0.00  0.00    +0.000 C 
ATOM      2  N   UNL     1      61.721  61.310  72.067  0.00  0.00    +0.000 NA
ATOM      3  C   UNL     1      61.468  61.259  71.298  0.00  0.00    +0.000 C 
ATOM      4  C   UNL     1      61.109  62.112  70.900  0.00  0.00    +0.000 C 
ATOM      5  C   UNL     1      61.040  62.898  71.289  0.00  0.00    +0.000 C 
ATOM      6  C   UNL     1      60.721  63.168  70.571  0.00  0.00    +0.000 C 
ATOM      7  O   UNL     1      60.571  63.986  70.752  0.00  0.00    +0.000 OA
ATOM      8  C   UNL     1      60.790  64.207  71.552  0.00  0.00    +0.000 A 
ATOM      9  C   UNL     1      61.079  63.513  71.865  0.00  0.00    +0.000 A 
ATOM     10  C   UNL     1      61.381  63.393  72.647  0.00  0.00    +0.000 A 
ATOM     11  C   UNL     1      61.653  62.643  72.871  0.00  0.00    +0.000 C 
ATOM     12  C   UNL     1      61.605  62.071  72.303  0.00  0.00    +0.000 C 
ATOM     13  C   UNL     1      61.260  62.361  71.523  0.00  0.00    +0.000 C 
ATOM     14  C   UNL     1      61.246  61.610  70.920  0.00  0.00    +0.000 C 
ATOM     15  C   UNL     1      60.946  61.735  70.147  0.00  0.00    +0.000 C 
ATOM     16  C   UNL     1      60.689  62.521  69.993  0.00  0.00    +0.000 C 
ATOM     17  O   UNL     1      60.386  62.687  69.243  0.00  0.00    +0.000 OA
ATOM     18  C   UNL     1      60.343  62.092  68.674  0.00  0.00    +0.000 C 
ATOM     19  O   UNL     1      60.603  61.330  68.854  0.00  0.00    +0.000 OA
ATOM     20  C   UNL     1      60.040  62.259  67.925  0.00  0.00    +0.000 A 
ATOM     21  C   UNL     1      59.998  61.663  67.355  0.00  0.00    +0.000 A 
ATOM     22  N   UNL     1      59.695  61.830  66.606  0.00  0.00    +0.000 NA
ATOM     23  C   UNL     1      59.435  62.592  66.427  0.00  0.00    +0.000 A 
ATOM     24  C   UNL     1      59.478  63.187  66.997  0.00  0.00    +0.000 A 
ATOM     25  C   UNL     1      59.780  63.021  67.745  0.00  0.00    +0.000 A 
ATOM     26  C   UNL     1      61.391  64.036  73.160  0.00  0.00    +0.000 A 
ATOM     27  C   UNL     1      61.109  64.769  72.894  0.00  0.00    +0.000 A 
ATOM     28  C   UNL     1      60.817  64.848  72.109  0.00  0.00    +0.000 A 
ATOM     29  O   UNL     1      60.541  65.587  71.868  0.00  0.00    +0.000 OA
ATOM     30  C   UNL     1      60.250  65.689  71.102  0.00  0.00    +0.000 C 
ATOM     31  O   UNL     1      60.234  65.052  70.579  0.00  0.00    +0.000 OA
ATOM     32  C   UNL     1      59.974  66.429  70.862  0.00  0.00    +0.000 A 
ATOM     33  C   UNL     1      59.683  66.531  70.097  0.00  0.00    +0.000 A 
ATOM     34  N   UNL     1      59.407  67.269  69.855  0.00  0.00    +0.000 NA
ATOM     35  C   UNL     1      59.423  67.907  70.379  0.00  0.00    +0.000 A 
ATOM     36  C   UNL     1      59.714  67.805  71.144  0.00  0.00    +0.000 A 
ATOM     37  C   UNL     1      59.990  67.066  71.385  0.00  0.00    +0.000 A 
ENDROOT
TORSDOF 0
ENDMDL
MODEL 4
REMARK VINA RESULT:   -14.561      2.326      4.230
REMARK INTER + INTRA:         -14.561
REMARK INTER:                 -14.561
REMARK INTRA:                   0.000
REMARK UNBOUND:                 0.000
ROOT
REMARK  Name = nicomorphine
REMARK                            x       y       z     vdW  Elec       q    Type
REMARK                         _______ _______ _______ _____ _____    ______ ____
ATOM      1  C   UNL     1      60.957  62.888  73.222  0.00  0.00    +0.000 C 
ATOM      2  N   UNL     1      61.215  63.050  72.456  0.00  0.00    +0.000 NA
ATOM      3  C   UNL     1      61.775  63.596  72.240  0.00  0.00    +0.000 C 
ATOM      4  C   UNL     1      61.965  63.658  71.253  0.00  0.00    +0.000 C 
ATOM      5  C   UNL     1      61.596  63.191  70.605  0.00  0.00    +0.000 C 
ATOM      6  C   UNL     1      62.083  63.621  70.087  0.00  0.00    +0.000 C 
ATOM      7  O   UNL     1      61.859  63.291  69.335  0.00  0.00    +0.000 OA
ATOM      8  C   UNL     1      61.258  62.681  69.392  0.00  0.00    +0.000 A 
ATOM      9  C   UNL     1      61.111  62.638  70.192  0.00  0.00    +0.000 A 
ATOM     10  C   UNL     1      60.561  62.126  70.583  0.00  0.00    +0.000 A 
ATOM     11  C   UNL     1      60.485  62.159  71.407  0.00  0.00    +0.000 C 
ATOM     12  C   UNL     1      60.959  62.696  71.780  0.00  0.00    +0.000 C 
ATOM     13  C   UNL     1      61.488  63.164  71.221  0.00  0.00    +0.000 C 
ATOM     14  C   UNL     1      62.008  63.770  71.760  0.00  0.00    +0.000 C 
ATOM     15  C   UNL     1      62.551  64.274  71.367  0.00  0.00    +0.000 C 
ATOM     16  C   UNL     1      62.572  64.184  70.531  0.00  0.00    +0.000 C 
ATOM     17  O   UNL     1      63.094  64.662  70.106  0.00  0.00    +0.000 OA
ATOM     18  C   UNL     1      63.572  65.206  70.501  0.00  0.00    +0.000 C 
ATOM     19  O   UNL     1      63.529  65.272  71.322  0.00  0.00    +0.000 OA
ATOM     20  C   UNL     1      64.093  65.683  70.075  0.00  0.00    +0.000 A 
ATOM     21  C   UNL     1      64.571  66.227  70.471  0.00  0.00    +0.000 A 
ATOM     22  N   UNL     1      65.092  66.705  70.045  0.00  0.00    +0.000 NA
ATOM     23  C   UNL     1      65.135  66.638  69.224  0.00  0.00    +0.000 A 
ATOM     24  C   UNL     1      64.657  66.094  68.829  0.00  0.00    +0.000 A 
ATOM     25  C   UNL     1      64.136  65.617  69.254  0.00  0.00    +0.000 A 
ATOM     26  C   UNL     1      60.119  61.610  70.120  0.00  0.00    +0.000 A 
ATOM     27  C   UNL     1      60.228  61.611  69.298  0.00  0.00    +0.000 A 
ATOM     28  C   UNL     1      60.784  62.134  68.947  0.00  0.00    +0.000 A 
ATOM     29  O   UNL     1      60.874  62.117  68.127  0.00  0.00    +0.000 OA
ATOM     30  C   UNL     1      61.414  62.622  67.760  0.00  0.00    +0.000 C 
ATOM     31  O   UNL     1      61.864  63.144  68.213  0.00  0.00    +0.000 OA
ATOM     32  C   UNL     1      61.504  62.603  66.940  0.00  0.00    +0.000 A 
ATOM     33  C   UNL     1      62.043  63.108  66.573  0.00  0.00    +0.000 A 
ATOM     34  N   UNL     1      62.134  63.090  65.754  0.00  0.00    +0.000 NA
ATOM     35  C   UNL     1      61.684  62.568  65.301  0.00  0.00    +0.000 A 
ATOM     36  C   UNL     1      61.144  62.063  65.667  0.00  0.00    +0.000 A 
ATOM     37  C   UNL     1      61.054  62.081  66.487  0.00  0.00    +0.000 A 
ENDROOT
TORSDOF 0
ENDMDL
MODEL 5
REMARK VINA RESULT:   -13.191     15.545     17.957
REMARK INTER + INTRA:         -13.191
REMARK INTER:                 -13.191
REMARK INTRA:                   0.000
REMARK UNBOUND:                 0.000
ROOT
REMARK  Name = nicomorphine
REMARK                            x       y       z     vdW  Elec       q    Type
REMARK                         _______ _______ _______ _____ _____    ______ ____
ATOM      1  C   UNL     1      62.753  68.312  56.811  0.00  0.00    +0.000 C 
ATOM      2  N   UNL     1      62.610  68.047  56.043  0.00  0.00    +0.000 NA
ATOM      3  C   UNL     1      62.515  67.276  55.808  0.00  0.00    +0.000 C 
ATOM      4  C   UNL     1      62.347  67.138  54.825  0.00  0.00    +0.000 C 
ATOM      5  C   UNL     1      62.292  67.753  54.198  0.00  0.00    +0.000 C 
ATOM      6  C   UNL     1      62.161  67.128  53.667  0.00  0.00    +0.000 C 
ATOM      7  O   UNL     1      62.074  67.549  52.932  0.00  0.00    +0.000 OA
ATOM      8  C   UNL     1      62.149  68.400  53.012  0.00  0.00    +0.000 A 
ATOM      9  C   UNL     1      62.285  68.502  53.809  0.00  0.00    +0.000 A 
ATOM     10  C   UNL     1      62.404  69.234  54.216  0.00  0.00    +0.000 A 
ATOM     11  C   UNL     1      62.535  69.232  55.034  0.00  0.00    +0.000 C 
ATOM     12  C   UNL     1      62.538  68.505  55.385  0.00  0.00    +0.000 C 
ATOM     13  C   UNL     1      62.396  67.824  54.811  0.00  0.00    +0.000 C 
ATOM     14  C   UNL     1      62.418  67.009  55.324  0.00  0.00    +0.000 C 
ATOM     15  C   UNL     1      62.299  66.286  54.915  0.00  0.00    +0.000 C 
ATOM     16  C   UNL     1      62.173  66.369  54.088  0.00  0.00    +0.000 C 
ATOM     17  O   UNL     1      62.051  65.681  53.647  0.00  0.00    +0.000 OA
ATOM     18  C   UNL     1      62.057  64.945  54.019  0.00  0.00    +0.000 C 
ATOM     19  O   UNL     1      62.184  64.896  54.832  0.00  0.00    +0.000 OA
ATOM     20  C   UNL     1      61.936  64.258  53.578  0.00  0.00    +0.000 A 
ATOM     21  C   UNL     1      61.942  63.523  53.951  0.00  0.00    +0.000 A 
ATOM     22  N   UNL     1      61.820  62.836  53.510  0.00  0.00    +0.000 NA
ATOM     23  C   UNL     1      61.693  62.886  52.696  0.00  0.00    +0.000 A 
ATOM     24  C   UNL     1      61.688  63.622  52.324  0.00  0.00    +0.000 A 
ATOM     25  C   UNL     1      61.809  64.308  52.764  0.00  0.00    +0.000 A 
ATOM     26  C   UNL     1      62.384  69.929  53.775  0.00  0.00    +0.000 A 
ATOM     27  C   UNL     1      62.250  69.884  52.959  0.00  0.00    +0.000 A 
ATOM     28  C   UNL     1      62.136  69.138  52.590  0.00  0.00    +0.000 A 
ATOM     29  O   UNL     1      62.004  69.119  51.776  0.00  0.00    +0.000 OA
ATOM     30  C   UNL     1      61.889  68.397  51.392  0.00  0.00    +0.000 C 
ATOM     31  O   UNL     1      61.906  67.694  51.823  0.00  0.00    +0.000 OA
ATOM     32  C   UNL     1      61.757  68.380  50.578  0.00  0.00    +0.000 A 
ATOM     33  C   UNL     1      61.643  67.659  50.195  0.00  0.00    +0.000 A 
ATOM     34  N   UNL     1      61.511  67.641  49.381  0.00  0.00    +0.000 NA
ATOM     35  C   UNL     1      61.493  68.344  48.950  0.00  0.00    +0.000 A 
ATOM     36  C   UNL     1      61.608  69.065  49.333  0.00  0.00    +0.000 A 
ATOM     37  C   UNL     1      61.739  69.084  50.147  0.00  0.00    +0.000 A 
ENDROOT
TORSDOF 0
ENDMDL
MODEL 6
REMARK VINA RESULT:   -12.937      2.000      4.375
REMARK INTER + INTRA:         -12.937
REMARK INTER:                 -12.937
REMARK INTRA:                   0.000
REMARK UNBOUND:                 0.000
ROOT
REMARK  Name = nicomorphine
REMARK                            x       y       z     vdW  Elec       q    Type
REMARK                         _______ _______ _______ _____ _____    ______ ____
ATOM      1  C   UNL     1      58.098  67.987  73.219  0.00  0.00    +0.000 C 
ATOM      2  N   UNL     1      58.687  67.455  72.991  0.00  0.00    +0.000 NA
ATOM      3  C   UNL     1      59.475  67.619  72.897  0.00  0.00    +0.000 C 
ATOM      4  C   UNL     1      60.051  66.844  72.612  0.00  0.00    +0.000 C 
ATOM      5  C   UNL     1      59.797  66.017  72.455  0.00  0.00    +0.000 C 
ATOM      6  C   UNL     1      60.594  65.859  72.282  0.00  0.00    +0.000 C 
ATOM      7  O   UNL     1      60.562  65.030  72.088  0.00  0.00    +0.000 OA
ATOM      8  C   UNL     1      59.773  64.695  72.140  0.00  0.00    +0.000 A 
ATOM      9  C   UNL     1      59.316  65.328  72.371  0.00  0.00    +0.000 A 
ATOM     10  C   UNL     1      58.481  65.330  72.512  0.00  0.00    +0.000 A 
ATOM     11  C   UNL     1      58.106  66.030  72.745  0.00  0.00    +0.000 C 
ATOM     12  C   UNL     1      58.586  66.675  72.820  0.00  0.00    +0.000 C 
ATOM     13  C   UNL     1      59.451  66.507  72.633  0.00  0.00    +0.000 C 
ATOM     14  C   UNL     1      59.934  67.332  72.750  0.00  0.00    +0.000 C 
ATOM     15  C   UNL     1      60.761  67.325  72.608  0.00  0.00    +0.000 C 
ATOM     16  C   UNL     1      61.071  66.578  72.375  0.00  0.00    +0.000 C 
ATOM     17  O   UNL     1      61.881  66.527  72.226  0.00  0.00    +0.000 OA
ATOM     18  C   UNL     1      62.359  67.194  72.306  0.00  0.00    +0.000 C 
ATOM     19  O   UNL     1      62.027  67.913  72.536  0.00  0.00    +0.000 OA
ATOM     20  C   UNL     1      63.169  67.142  72.156  0.00  0.00    +0.000 A 
ATOM     21  C   UNL     1      63.646  67.811  72.237  0.00  0.00    +0.000 A 
ATOM     22  N   UNL     1      64.456  67.758  72.087  0.00  0.00    +0.000 NA
ATOM     23  C   UNL     1      64.787  67.039  71.857  0.00  0.00    +0.000 A 
ATOM     24  C   UNL     1      64.309  66.371  71.777  0.00  0.00    +0.000 A 
ATOM     25  C   UNL     1      63.500  66.423  71.926  0.00  0.00    +0.000 A 
ATOM     26  C   UNL     1      58.071  64.623  72.411  0.00  0.00    +0.000 A 
ATOM     27  C   UNL     1      58.487  63.946  72.177  0.00  0.00    +0.000 A 
ATOM     28  C   UNL     1      59.317  63.984  72.046  0.00  0.00    +0.000 A 
ATOM     29  O   UNL     1      59.708  63.297  71.813  0.00  0.00    +0.000 OA
ATOM     30  C   UNL     1      60.523  63.310  71.679  0.00  0.00    +0.000 C 
ATOM     31  O   UNL     1      60.945  64.012  71.777  0.00  0.00    +0.000 OA
ATOM     32  C   UNL     1      60.914  62.622  71.446  0.00  0.00    +0.000 A 
ATOM     33  C   UNL     1      61.728  62.636  71.312  0.00  0.00    +0.000 A 
ATOM     34  N   UNL     1      62.119  61.949  71.079  0.00  0.00    +0.000 NA
ATOM     35  C   UNL     1      61.697  61.247  70.981  0.00  0.00    +0.000 A 
ATOM     36  C   UNL     1      60.883  61.232  71.116  0.00  0.00    +0.000 A 
ATOM     37  C   UNL     1      60.492  61.920  71.348  0.00  0.00    +0.000 A 
ENDROOT
TORSDOF 0
ENDMDL
MODEL 7
REMARK VINA RESULT:   -12.727     15.710     18.067
REMARK INTER + INTRA:         -12.727
REMARK INTER:                 -12.727
REMARK INTRA:                   0.000
REMARK UNBOUND:                 0.000
ROOT
REMARK  Name = nicomorphine
REMARK                            x       y       z     vdW  Elec       q    Type
REMARK                         _______ _______ _______ _____ _____    ______ ____
ATOM      1  C   UNL     1      62.390  70.652  55.185  0.00  0.00    +0.000 C 
ATOM      2  N   UNL     1      62.320  69.974  54.721  0.00  0.00    +0.000 NA
ATOM      3  C   UNL     1      62.221  69.948  53.916  0.00  0.00    +0.000 C 
ATOM      4  C   UNL     1      62.153  69.027  53.515  0.00  0.00    +0.000 C 
ATOM      5  C   UNL     1      62.189  68.255  53.935  0.00  0.00    +0.000 C 
ATOM      6  C   UNL     1      62.091  67.902  53.189  0.00  0.00    +0.000 C 
ATOM      7  O   UNL     1      62.099  67.076  53.393  0.00  0.00    +0.000 OA
ATOM      8  C   UNL     1      62.198  66.929  54.233  0.00  0.00    +0.000 A 
ATOM      9  C   UNL     1      62.252  67.678  54.548  0.00  0.00    +0.000 A 
ATOM     10  C   UNL     1      62.355  67.882  55.363  0.00  0.00    +0.000 A 
ATOM     11  C   UNL     1      62.398  68.679  55.584  0.00  0.00    +0.000 C 
ATOM     12  C   UNL     1      62.336  69.213  54.981  0.00  0.00    +0.000 C 
ATOM     13  C   UNL     1      62.229  68.833  54.171  0.00  0.00    +0.000 C 
ATOM     14  C   UNL     1      62.166  69.547  53.527  0.00  0.00    +0.000 C 
ATOM     15  C   UNL     1      62.063  69.339  52.721  0.00  0.00    +0.000 C 
ATOM     16  C   UNL     1      62.029  68.512  52.574  0.00  0.00    +0.000 C 
ATOM     17  O   UNL     1      61.928  68.263  51.793  0.00  0.00    +0.000 OA
ATOM     18  C   UNL     1      61.866  68.820  51.187  0.00  0.00    +0.000 C 
ATOM     19  O   UNL     1      61.904  69.625  51.362  0.00  0.00    +0.000 OA
ATOM     20  C   UNL     1      61.766  68.571  50.407  0.00  0.00    +0.000 A 
ATOM     21  C   UNL     1      61.704  69.128  49.802  0.00  0.00    +0.000 A 
ATOM     22  N   UNL     1      61.604  68.879  49.021  0.00  0.00    +0.000 NA
ATOM     23  C   UNL     1      61.566  68.074  48.847  0.00  0.00    +0.000 A 
ATOM     24  C   UNL     1      61.629  67.517  49.453  0.00  0.00    +0.000 A 
ATOM     25  C   UNL     1      61.728  67.765  50.233  0.00  0.00    +0.000 A 
ATOM     26  C   UNL     1      62.409  67.270  55.910  0.00  0.00    +0.000 A 
ATOM     27  C   UNL     1      62.360  66.486  55.645  0.00  0.00    +0.000 A 
ATOM     28  C   UNL     1      62.258  66.324  54.826  0.00  0.00    +0.000 A 
ATOM     29  O   UNL     1      62.212  65.536  54.587  0.00  0.00    +0.000 OA
ATOM     30  C   UNL     1      62.111  65.352  53.788  0.00  0.00    +0.000 C 
ATOM     31  O   UNL     1      62.056  65.957  53.230  0.00  0.00    +0.000 OA
ATOM     32  C   UNL     1      62.066  64.564  53.549  0.00  0.00    +0.000 A 
ATOM     33  C   UNL     1      61.965  64.381  52.751  0.00  0.00    +0.000 A 
ATOM     34  N   UNL     1      61.920  63.593  52.512  0.00  0.00    +0.000 NA
ATOM     35  C   UNL     1      61.976  62.988  53.070  0.00  0.00    +0.000 A 
ATOM     36  C   UNL     1      62.076  63.171  53.868  0.00  0.00    +0.000 A 
ATOM     37  C   UNL     1      62.122  63.959  54.108  0.00  0.00    +0.000 A 
ENDROOT
TORSDOF 0
ENDMDL
MODEL 8
REMARK VINA RESULT:   -12.408     24.916     26.211
REMARK INTER + INTRA:         -12.408
REMARK INTER:                 -12.408
REMARK INTRA:                   0.000
REMARK UNBOUND:                 0.000
ROOT
REMARK  Name = nicomorphine
REMARK                            x       y       z     vdW  Elec       q    Type
REMARK                         _______ _______ _______ _____ _____    ______ ____
ATOM      1  C   UNL     1      71.716  79.365  48.177  0.00  0.00    +0.000 C 
ATOM      2  N   UNL     1      71.519  79.656  48.924  0.00  0.00    +0.000 NA
ATOM      3  C   UNL     1      70.771  79.768  49.217  0.00  0.00    +0.000 C 
ATOM      4  C   UNL     1      70.720  80.134  50.154  0.00  0.00    +0.000 C 
ATOM      5  C   UNL     1      71.390  80.343  50.684  0.00  0.00    +0.000 C 
ATOM      6  C   UNL     1      70.813  80.559  51.242  0.00  0.00    +0.000 C 
ATOM      7  O   UNL     1      71.298  80.815  51.894  0.00  0.00    +0.000 OA
ATOM      8  C   UNL     1      72.140  80.758  51.739  0.00  0.00    +0.000 A 
ATOM      9  C   UNL     1      72.171  80.462  50.981  0.00  0.00    +0.000 A 
ATOM     10  C   UNL     1      72.866  80.288  50.529  0.00  0.00    +0.000 A 
ATOM     11  C   UNL     1      72.791  79.988  49.761  0.00  0.00    +0.000 C 
ATOM     12  C   UNL     1      72.034  79.883  49.499  0.00  0.00    +0.000 C 
ATOM     13  C   UNL     1      71.406  80.116  50.102  0.00  0.00    +0.000 C 
ATOM     14  C   UNL     1      70.548  79.955  49.696  0.00  0.00    +0.000 C 
ATOM     15  C   UNL     1      69.863  80.129  50.149  0.00  0.00    +0.000 C 
ATOM     16  C   UNL     1      70.018  80.430  50.918  0.00  0.00    +0.000 C 
ATOM     17  O   UNL     1      69.371  80.614  51.397  0.00  0.00    +0.000 OA
ATOM     18  C   UNL     1      68.604  80.502  51.116  0.00  0.00    +0.000 C 
ATOM     19  O   UNL     1      68.483  80.205  50.356  0.00  0.00    +0.000 OA
ATOM     20  C   UNL     1      67.958  80.687  51.595  0.00  0.00    +0.000 A 
ATOM     21  C   UNL     1      67.191  80.574  51.313  0.00  0.00    +0.000 A 
ATOM     22  N   UNL     1      66.545  80.759  51.792  0.00  0.00    +0.000 NA
ATOM     23  C   UNL     1      66.666  81.056  52.552  0.00  0.00    +0.000 A 
ATOM     24  C   UNL     1      67.434  81.168  52.833  0.00  0.00    +0.000 A 
ATOM     25  C   UNL     1      68.079  80.984  52.355  0.00  0.00    +0.000 A 
ATOM     26  C   UNL     1      73.598  80.427  50.878  0.00  0.00    +0.000 A 
ATOM     27  C   UNL     1      73.626  80.728  51.650  0.00  0.00    +0.000 A 
ATOM     28  C   UNL     1      72.913  80.889  52.066  0.00  0.00    +0.000 A 
ATOM     29  O   UNL     1      72.968  81.188  52.833  0.00  0.00    +0.000 OA
ATOM     30  C   UNL     1      72.281  81.353  53.261  0.00  0.00    +0.000 C 
ATOM     31  O   UNL     1      71.541  81.218  52.922  0.00  0.00    +0.000 OA
ATOM     32  C   UNL     1      72.336  81.653  54.028  0.00  0.00    +0.000 A 
ATOM     33  C   UNL     1      71.650  81.817  54.456  0.00  0.00    +0.000 A 
ATOM     34  N   UNL     1      71.704  82.117  55.222  0.00  0.00    +0.000 NA
ATOM     35  C   UNL     1      72.444  82.252  55.561  0.00  0.00    +0.000 A 
ATOM     36  C   UNL     1      73.130  82.087  55.133  0.00  0.00    +0.000 A 
ATOM     37  C   UNL     1      73.076  81.788  54.367  0.00  0.00    +0.000 A 
ENDROOT
TORSDOF 0
ENDMDL
MODEL 9
REMARK VINA RESULT:   -12.239     15.707     18.447
REMARK INTER + INTRA:         -12.239
REMARK INTER:                 -12.239
REMARK INTRA:                   0.000
REMARK UNBOUND:                 0.000
ROOT
REMARK  Name = nicomorphine
REMARK                            x       y       z     vdW  Elec       q    Type
REMARK                         _______ _______ _______ _____ _____    ______ ____
ATOM      1  C   UNL     1      61.447  68.096  49.362  0.00  0.00    +0.000 C 
ATOM      2  N   UNL     1      61.565  67.856  50.142  0.00  0.00    +0.000 NA
ATOM      3  C   UNL     1      61.571  67.093  50.417  0.00  0.00    +0.000 C 
ATOM      4  C   UNL     1      61.730  66.987  51.406  0.00  0.00    +0.000 C 
ATOM      5  C   UNL     1      61.860  67.623  51.999  0.00  0.00    +0.000 C 
ATOM      6  C   UNL     1      61.923  67.015  52.562  0.00  0.00    +0.000 C 
ATOM      7  O   UNL     1      62.063  67.460  53.274  0.00  0.00    +0.000 OA
ATOM      8  C   UNL     1      62.086  68.309  53.150  0.00  0.00    +0.000 A 
ATOM      9  C   UNL     1      61.957  68.385  52.350  0.00  0.00    +0.000 A 
ATOM     10  C   UNL     1      61.920  69.104  51.905  0.00  0.00    +0.000 A 
ATOM     11  C   UNL     1      61.784  69.074  51.088  0.00  0.00    +0.000 C 
ATOM     12  C   UNL     1      61.694  68.335  50.776  0.00  0.00    +0.000 C 
ATOM     13  C   UNL     1      61.761  67.674  51.383  0.00  0.00    +0.000 C 
ATOM     14  C   UNL     1      61.641  66.841  50.914  0.00  0.00    +0.000 C 
ATOM     15  C   UNL     1      61.678  66.132  51.360  0.00  0.00    +0.000 C 
ATOM     16  C   UNL     1      61.820  66.241  52.181  0.00  0.00    +0.000 C 
ATOM     17  O   UNL     1      61.864  65.568  52.657  0.00  0.00    +0.000 OA
ATOM     18  C   UNL     1      61.771  64.819  52.324  0.00  0.00    +0.000 C 
ATOM     19  O   UNL     1      61.633  64.744  51.514  0.00  0.00    +0.000 OA
ATOM     20  C   UNL     1      61.815  64.147  52.800  0.00  0.00    +0.000 A 
ATOM     21  C   UNL     1      61.722  63.398  52.465  0.00  0.00    +0.000 A 
ATOM     22  N   UNL     1      61.766  62.726  52.941  0.00  0.00    +0.000 NA
ATOM     23  C   UNL     1      61.904  62.802  53.751  0.00  0.00    +0.000 A 
ATOM     24  C   UNL     1      61.998  63.551  54.085  0.00  0.00    +0.000 A 
ATOM     25  C   UNL     1      61.954  64.223  53.609  0.00  0.00    +0.000 A 
ATOM     26  C   UNL     1      62.024  69.813  52.309  0.00  0.00    +0.000 A 
ATOM     27  C   UNL     1      62.158  69.795  53.127  0.00  0.00    +0.000 A 
ATOM     28  C   UNL     1      62.188  69.060  53.534  0.00  0.00    +0.000 A 
ATOM     29  O   UNL     1      62.324  69.069  54.347  0.00  0.00    +0.000 OA
ATOM     30  C   UNL     1      62.357  68.359  54.768  0.00  0.00    +0.000 C 
ATOM     31  O   UNL     1      62.255  67.641  54.374  0.00  0.00    +0.000 OA
ATOM     32  C   UNL     1      62.492  68.369  55.582  0.00  0.00    +0.000 A 
ATOM     33  C   UNL     1      62.526  67.659  56.001  0.00  0.00    +0.000 A 
ATOM     34  N   UNL     1      62.661  67.668  56.815  0.00  0.00    +0.000 NA
ATOM     35  C   UNL     1      62.763  68.386  57.209  0.00  0.00    +0.000 A 
ATOM     36  C   UNL     1      62.730  69.095  56.789  0.00  0.00    +0.000 A 
ATOM     37  C   UNL     1      62.594  69.086  55.975  0.00  0.00    +0.000 A 
ENDROOT
TORSDOF 0
ENDMDL
