MODEL 1
REMARK VINA RESULT:   -11.231      0.000      0.000
REMARK INTER + INTRA:         -11.231
REMARK INTER:                 -11.231
REMARK INTRA:                   0.000
REMARK UNBOUND:                 0.000
ROOT
REMARK  Name = nicofibrate
REMARK                            x       y       z     vdW  Elec       q    Type
REMARK                         _______ _______ _______ _____ _____    ______ ____
ATOM      1  C   UNL     1      60.706  61.740  68.086  0.00  0.00    +0.000 C 
ATOM      2  C   UNL     1      60.928  62.371  68.569  0.00  0.00    +0.000 C 
ATOM      3  C   UNL     1      61.149  63.002  69.053  0.00  0.00    +0.000 C 
ATOM      4  O   UNL     1      60.549  62.013  69.209  0.00  0.00    +0.000 OA
ATOM      5  C   UNL     1      60.552  62.380  69.948  0.00  0.00    +0.000 A 
ATOM      6  C   UNL     1      60.174  62.023  70.587  0.00  0.00    +0.000 A 
ATOM      7  C   UNL     1      60.176  62.390  71.326  0.00  0.00    +0.000 A 
ATOM      8  C   UNL     1      60.556  63.115  71.425  0.00  0.00    +0.000 A 
ATOM      9 CL   UNL     1      60.559  63.483  72.164  0.00  0.00    +0.000 Cl
ATOM     10  C   UNL     1      60.935  63.473  70.784  0.00  0.00    +0.000 A 
ATOM     11  C   UNL     1      60.933  63.106  70.046  0.00  0.00    +0.000 A 
ATOM     12  C   UNL     1      61.306  62.728  67.929  0.00  0.00    +0.000 C 
ATOM     13  O   UNL     1      61.686  63.453  68.028  0.00  0.00    +0.000 OA
ATOM     14  O   UNL     1      61.304  62.361  67.190  0.00  0.00    +0.000 OA
ATOM     15  C   UNL     1      61.682  62.718  66.551  0.00  0.00    +0.000 C 
ATOM     16  C   UNL     1      61.679  62.351  65.812  0.00  0.00    +0.000 A 
ATOM     17  C   UNL     1      62.058  62.709  65.172  0.00  0.00    +0.000 A 
ATOM     18  N   UNL     1      62.055  62.341  64.433  0.00  0.00    +0.000 NA
ATOM     19  C   UNL     1      61.674  61.615  64.334  0.00  0.00    +0.000 A 
ATOM     20  C   UNL     1      61.296  61.258  64.975  0.00  0.00    +0.000 A 
ATOM     21  C   UNL     1      61.299  61.626  65.713  0.00  0.00    +0.000 A 
ENDROOT
TORSDOF 0
ENDMDL
MODEL 2
REMARK VINA RESULT:   -11.134      2.536      4.944
REMARK INTER + INTRA:         -11.134
REMARK INTER:                 -11.134
REMARK INTRA:                   0.000
REMARK UNBOUND:                 0.000
ROOT
REMARK  Name = nicofibrate
REMARK                            x       y       z     vdW  Elec       q    Type
REMARK                         _______ _______ _______ _____ _____    ______ ____
ATOM      1  C   UNL     1      61.038  61.964  68.230  0.00  0.00    +0.000 C 
ATOM      2  C   UNL     1      61.257  62.455  67.603  0.00  0.00    +0.000 C 
ATOM      3  C   UNL     1      61.476  62.945  66.976  0.00  0.00    +0.000 C 
ATOM      4  O   UNL     1      61.388  61.792  67.130  0.00  0.00    +0.000 OA
ATOM      5  C   UNL     1      61.643  61.885  66.351  0.00  0.00    +0.000 A 
ATOM      6  C   UNL     1      61.774  61.222  65.878  0.00  0.00    +0.000 A 
ATOM      7  C   UNL     1      62.029  61.315  65.099  0.00  0.00    +0.000 A 
ATOM      8  C   UNL     1      62.153  62.071  64.793  0.00  0.00    +0.000 A 
ATOM      9 CL   UNL     1      62.408  62.164  64.014  0.00  0.00    +0.000 Cl
ATOM     10  C   UNL     1      62.022  62.734  65.266  0.00  0.00    +0.000 A 
ATOM     11  C   UNL     1      61.767  62.641  66.045  0.00  0.00    +0.000 A 
ATOM     12  C   UNL     1      61.126  63.118  68.076  0.00  0.00    +0.000 C 
ATOM     13  O   UNL     1      61.249  63.873  67.769  0.00  0.00    +0.000 OA
ATOM     14  O   UNL     1      60.871  63.025  68.855  0.00  0.00    +0.000 OA
ATOM     15  C   UNL     1      60.740  63.687  69.328  0.00  0.00    +0.000 C 
ATOM     16  C   UNL     1      60.484  63.594  70.108  0.00  0.00    +0.000 A 
ATOM     17  C   UNL     1      60.353  64.258  70.580  0.00  0.00    +0.000 A 
ATOM     18  N   UNL     1      60.098  64.165  71.359  0.00  0.00    +0.000 NA
ATOM     19  C   UNL     1      59.974  63.408  71.666  0.00  0.00    +0.000 A 
ATOM     20  C   UNL     1      60.106  62.745  71.192  0.00  0.00    +0.000 A 
ATOM     21  C   UNL     1      60.361  62.838  70.413  0.00  0.00    +0.000 A 
ENDROOT
TORSDOF 0
ENDMDL
MODEL 3
REMARK VINA RESULT:   -10.415      4.042      5.499
REMARK INTER + INTRA:         -10.415
REMARK INTER:                 -10.415
REMARK INTRA:                   0.000
REMARK UNBOUND:                 0.000
ROOT
REMARK  Name = nicofibrate
REMARK                            x       y       z     vdW  Elec       q    Type
REMARK                         _______ _______ _______ _____ _____    ______ ____
ATOM      1  C   UNL     1      63.122  64.992  71.387  0.00  0.00    +0.000 C 
ATOM      2  C   UNL     1      63.557  65.256  70.736  0.00  0.00    +0.000 C 
ATOM      3  C   UNL     1      63.991  65.519  70.087  0.00  0.00    +0.000 C 
ATOM      4  O   UNL     1      63.972  65.775  71.225  0.00  0.00    +0.000 OA
ATOM      5  C   UNL     1      64.555  66.263  70.906  0.00  0.00    +0.000 A 
ATOM      6  C   UNL     1      64.970  66.783  71.394  0.00  0.00    +0.000 A 
ATOM      7  C   UNL     1      65.554  67.271  71.075  0.00  0.00    +0.000 A 
ATOM      8  C   UNL     1      65.723  67.240  70.269  0.00  0.00    +0.000 A 
ATOM      9 CL   UNL     1      66.307  67.728  69.950  0.00  0.00    +0.000 Cl
ATOM     10  C   UNL     1      65.307  66.719  69.780  0.00  0.00    +0.000 A 
ATOM     11  C   UNL     1      64.724  66.231  70.099  0.00  0.00    +0.000 A 
ATOM     12  C   UNL     1      63.142  64.736  70.249  0.00  0.00    +0.000 C 
ATOM     13  O   UNL     1      63.311  64.705  69.442  0.00  0.00    +0.000 OA
ATOM     14  O   UNL     1      62.558  64.248  70.567  0.00  0.00    +0.000 OA
ATOM     15  C   UNL     1      62.143  63.729  70.079  0.00  0.00    +0.000 C 
ATOM     16  C   UNL     1      61.559  63.240  70.398  0.00  0.00    +0.000 A 
ATOM     17  C   UNL     1      61.144  62.720  69.910  0.00  0.00    +0.000 A 
ATOM     18  N   UNL     1      60.560  62.232  70.228  0.00  0.00    +0.000 NA
ATOM     19  C   UNL     1      60.391  62.264  71.036  0.00  0.00    +0.000 A 
ATOM     20  C   UNL     1      60.807  62.783  71.524  0.00  0.00    +0.000 A 
ATOM     21  C   UNL     1      61.390  63.272  71.205  0.00  0.00    +0.000 A 
ENDROOT
TORSDOF 0
ENDMDL
MODEL 4
REMARK VINA RESULT:   -10.271      3.767      5.191
REMARK INTER + INTRA:         -10.271
REMARK INTER:                 -10.271
REMARK INTRA:                   0.000
REMARK UNBOUND:                 0.000
ROOT
REMARK  Name = nicofibrate
REMARK                            x       y       z     vdW  Elec       q    Type
REMARK                         _______ _______ _______ _____ _____    ______ ____
ATOM      1  C   UNL     1      62.943  64.988  71.616  0.00  0.00    +0.000 C 
ATOM      2  C   UNL     1      62.693  64.426  71.065  0.00  0.00    +0.000 C 
ATOM      3  C   UNL     1      62.443  63.864  70.516  0.00  0.00    +0.000 C 
ATOM      4  O   UNL     1      62.148  64.134  71.612  0.00  0.00    +0.000 OA
ATOM      5  C   UNL     1      61.659  63.501  71.409  0.00  0.00    +0.000 A 
ATOM      6  C   UNL     1      61.115  63.209  71.955  0.00  0.00    +0.000 A 
ATOM      7  C   UNL     1      60.626  62.576  71.751  0.00  0.00    +0.000 A 
ATOM      8  C   UNL     1      60.681  62.236  71.002  0.00  0.00    +0.000 A 
ATOM      9 CL   UNL     1      60.193  61.603  70.799  0.00  0.00    +0.000 Cl
ATOM     10  C   UNL     1      61.227  62.528  70.456  0.00  0.00    +0.000 A 
ATOM     11  C   UNL     1      61.716  63.161  70.659  0.00  0.00    +0.000 A 
ATOM     12  C   UNL     1      63.238  64.718  70.520  0.00  0.00    +0.000 C 
ATOM     13  O   UNL     1      63.293  64.378  69.770  0.00  0.00    +0.000 OA
ATOM     14  O   UNL     1      63.727  65.351  70.723  0.00  0.00    +0.000 OA
ATOM     15  C   UNL     1      64.271  65.643  70.177  0.00  0.00    +0.000 C 
ATOM     16  C   UNL     1      64.760  66.277  70.380  0.00  0.00    +0.000 A 
ATOM     17  C   UNL     1      65.305  66.569  69.834  0.00  0.00    +0.000 A 
ATOM     18  N   UNL     1      65.794  67.201  70.037  0.00  0.00    +0.000 NA
ATOM     19  C   UNL     1      65.738  67.542  70.787  0.00  0.00    +0.000 A 
ATOM     20  C   UNL     1      65.193  67.249  71.333  0.00  0.00    +0.000 A 
ATOM     21  C   UNL     1      64.704  66.617  71.129  0.00  0.00    +0.000 A 
ENDROOT
TORSDOF 0
ENDMDL
MODEL 5
REMARK VINA RESULT:    -9.633      4.317      5.682
REMARK INTER + INTRA:          -9.633
REMARK INTER:                  -9.633
REMARK INTRA:                   0.000
REMARK UNBOUND:                 0.000
ROOT
REMARK  Name = nicofibrate
REMARK                            x       y       z     vdW  Elec       q    Type
REMARK                         _______ _______ _______ _____ _____    ______ ____
ATOM      1  C   UNL     1      63.034  65.788  70.145  0.00  0.00    +0.000 C 
ATOM      2  C   UNL     1      62.701  65.448  70.819  0.00  0.00    +0.000 C 
ATOM      3  C   UNL     1      62.369  65.108  71.492  0.00  0.00    +0.000 C 
ATOM      4  O   UNL     1      62.040  65.226  70.379  0.00  0.00    +0.000 OA
ATOM      5  C   UNL     1      61.420  64.820  70.743  0.00  0.00    +0.000 A 
ATOM      6  C   UNL     1      60.759  64.598  70.304  0.00  0.00    +0.000 A 
ATOM      7  C   UNL     1      60.140  64.192  70.668  0.00  0.00    +0.000 A 
ATOM      8  C   UNL     1      60.182  64.008  71.471  0.00  0.00    +0.000 A 
ATOM      9 CL   UNL     1      59.562  63.602  71.834  0.00  0.00    +0.000 Cl
ATOM     10  C   UNL     1      60.844  64.231  71.910  0.00  0.00    +0.000 A 
ATOM     11  C   UNL     1      61.464  64.636  71.546  0.00  0.00    +0.000 A 
ATOM     12  C   UNL     1      63.364  65.670  71.258  0.00  0.00    +0.000 C 
ATOM     13  O   UNL     1      63.406  65.486  72.061  0.00  0.00    +0.000 OA
ATOM     14  O   UNL     1      63.983  66.076  70.894  0.00  0.00    +0.000 OA
ATOM     15  C   UNL     1      64.644  66.298  71.333  0.00  0.00    +0.000 C 
ATOM     16  C   UNL     1      65.264  66.704  70.969  0.00  0.00    +0.000 A 
ATOM     17  C   UNL     1      65.926  66.926  71.409  0.00  0.00    +0.000 A 
ATOM     18  N   UNL     1      66.545  67.332  71.045  0.00  0.00    +0.000 NA
ATOM     19  C   UNL     1      66.503  67.516  70.241  0.00  0.00    +0.000 A 
ATOM     20  C   UNL     1      65.841  67.294  69.802  0.00  0.00    +0.000 A 
ATOM     21  C   UNL     1      65.221  66.888  70.166  0.00  0.00    +0.000 A 
ENDROOT
TORSDOF 0
ENDMDL
MODEL 6
REMARK VINA RESULT:    -9.610      5.051      6.519
REMARK INTER + INTRA:          -9.610
REMARK INTER:                  -9.610
REMARK INTRA:                   0.000
REMARK UNBOUND:                 0.000
ROOT
REMARK  Name = nicofibrate
REMARK                            x       y       z     vdW  Elec       q    Type
REMARK                         _______ _______ _______ _____ _____    ______ ____
ATOM      1  C   UNL     1      62.731  65.578  70.576  0.00  0.00    +0.000 C 
ATOM      2  C   UNL     1      63.279  65.995  71.031  0.00  0.00    +0.000 C 
ATOM      3  C   UNL     1      63.827  66.411  71.485  0.00  0.00    +0.000 C 
ATOM      4  O   UNL     1      63.776  66.055  70.375  0.00  0.00    +0.000 OA
ATOM      5  C   UNL     1      64.500  66.445  70.441  0.00  0.00    +0.000 A 
ATOM      6  C   UNL     1      64.997  66.505  69.786  0.00  0.00    +0.000 A 
ATOM      7  C   UNL     1      65.721  66.895  69.852  0.00  0.00    +0.000 A 
ATOM      8  C   UNL     1      65.948  67.226  70.573  0.00  0.00    +0.000 A 
ATOM      9 CL   UNL     1      66.671  67.617  70.638  0.00  0.00    +0.000 Cl
ATOM     10  C   UNL     1      65.450  67.166  71.228  0.00  0.00    +0.000 A 
ATOM     11  C   UNL     1      64.726  66.776  71.163  0.00  0.00    +0.000 A 
ATOM     12  C   UNL     1      62.782  65.935  71.686  0.00  0.00    +0.000 C 
ATOM     13  O   UNL     1      63.008  66.266  72.407  0.00  0.00    +0.000 OA
ATOM     14  O   UNL     1      62.058  65.544  71.620  0.00  0.00    +0.000 OA
ATOM     15  C   UNL     1      61.561  65.484  72.275  0.00  0.00    +0.000 C 
ATOM     16  C   UNL     1      60.836  65.093  72.210  0.00  0.00    +0.000 A 
ATOM     17  C   UNL     1      60.339  65.034  72.866  0.00  0.00    +0.000 A 
ATOM     18  N   UNL     1      59.615  64.643  72.800  0.00  0.00    +0.000 NA
ATOM     19  C   UNL     1      59.389  64.312  72.078  0.00  0.00    +0.000 A 
ATOM     20  C   UNL     1      59.887  64.372  71.423  0.00  0.00    +0.000 A 
ATOM     21  C   UNL     1      60.610  64.763  71.489  0.00  0.00    +0.000 A 
ENDROOT
TORSDOF 0
ENDMDL
MODEL 7
REMARK VINA RESULT:    -9.284      3.442      5.281
REMARK INTER + INTRA:          -9.284
REMARK INTER:                  -9.284
REMARK INTRA:                   0.000
REMARK UNBOUND:                 0.000
ROOT
REMARK  Name = nicofibrate
REMARK                            x       y       z     vdW  Elec       q    Type
REMARK                         _______ _______ _______ _____ _____    ______ ____
ATOM      1  C   UNL     1      62.958  64.642  69.183  0.00  0.00    +0.000 C 
ATOM      2  C   UNL     1      62.237  64.279  69.359  0.00  0.00    +0.000 C 
ATOM      3  C   UNL     1      61.518  63.917  69.534  0.00  0.00    +0.000 C 
ATOM      4  O   UNL     1      62.239  63.919  68.616  0.00  0.00    +0.000 OA
ATOM      5  C   UNL     1      61.615  63.425  68.397  0.00  0.00    +0.000 A 
ATOM      6  C   UNL     1      61.616  63.064  67.656  0.00  0.00    +0.000 A 
ATOM      7  C   UNL     1      60.993  62.570  67.437  0.00  0.00    +0.000 A 
ATOM      8  C   UNL     1      60.369  62.436  67.959  0.00  0.00    +0.000 A 
ATOM      9 CL   UNL     1      59.746  61.942  67.740  0.00  0.00    +0.000 Cl
ATOM     10  C   UNL     1      60.368  62.798  68.702  0.00  0.00    +0.000 A 
ATOM     11  C   UNL     1      60.992  63.292  68.921  0.00  0.00    +0.000 A 
ATOM     12  C   UNL     1      62.237  64.640  70.100  0.00  0.00    +0.000 C 
ATOM     13  O   UNL     1      61.613  64.507  70.622  0.00  0.00    +0.000 OA
ATOM     14  O   UNL     1      62.861  65.134  70.319  0.00  0.00    +0.000 OA
ATOM     15  C   UNL     1      62.860  65.495  71.061  0.00  0.00    +0.000 C 
ATOM     16  C   UNL     1      63.484  65.990  71.280  0.00  0.00    +0.000 A 
ATOM     17  C   UNL     1      63.482  66.350  72.022  0.00  0.00    +0.000 A 
ATOM     18  N   UNL     1      64.106  66.844  72.241  0.00  0.00    +0.000 NA
ATOM     19  C   UNL     1      64.730  66.978  71.718  0.00  0.00    +0.000 A 
ATOM     20  C   UNL     1      64.730  66.617  70.976  0.00  0.00    +0.000 A 
ATOM     21  C   UNL     1      64.107  66.123  70.757  0.00  0.00    +0.000 A 
ENDROOT
TORSDOF 0
ENDMDL
MODEL 8
REMARK VINA RESULT:    -9.207      2.724      3.545
REMARK INTER + INTRA:          -9.207
REMARK INTER:                  -9.207
REMARK INTRA:                   0.000
REMARK UNBOUND:                 0.000
ROOT
REMARK  Name = nicofibrate
REMARK                            x       y       z     vdW  Elec       q    Type
REMARK                         _______ _______ _______ _____ _____    ______ ____
ATOM      1  C   UNL     1      61.353  64.747  69.854  0.00  0.00    +0.000 C 
ATOM      2  C   UNL     1      62.165  64.883  69.922  0.00  0.00    +0.000 C 
ATOM      3  C   UNL     1      62.975  65.020  69.991  0.00  0.00    +0.000 C 
ATOM      4  O   UNL     1      62.025  65.386  70.561  0.00  0.00    +0.000 OA
ATOM      5  C   UNL     1      62.658  65.755  70.940  0.00  0.00    +0.000 A 
ATOM      6  C   UNL     1      62.520  66.258  71.579  0.00  0.00    +0.000 A 
ATOM      7  C   UNL     1      63.153  66.627  71.958  0.00  0.00    +0.000 A 
ATOM      8  C   UNL     1      63.924  66.494  71.698  0.00  0.00    +0.000 A 
ATOM      9 CL   UNL     1      64.557  66.863  72.077  0.00  0.00    +0.000 Cl
ATOM     10  C   UNL     1      64.063  65.991  71.058  0.00  0.00    +0.000 A 
ATOM     11  C   UNL     1      63.430  65.622  70.679  0.00  0.00    +0.000 A 
ATOM     12  C   UNL     1      62.302  64.381  69.283  0.00  0.00    +0.000 C 
ATOM     13  O   UNL     1      63.074  64.248  69.023  0.00  0.00    +0.000 OA
ATOM     14  O   UNL     1      61.669  64.011  68.904  0.00  0.00    +0.000 OA
ATOM     15  C   UNL     1      61.808  63.509  68.265  0.00  0.00    +0.000 C 
ATOM     16  C   UNL     1      61.174  63.139  67.886  0.00  0.00    +0.000 A 
ATOM     17  C   UNL     1      61.313  62.637  67.246  0.00  0.00    +0.000 A 
ATOM     18  N   UNL     1      60.680  62.267  66.867  0.00  0.00    +0.000 NA
ATOM     19  C   UNL     1      59.908  62.401  67.128  0.00  0.00    +0.000 A 
ATOM     20  C   UNL     1      59.771  62.903  67.767  0.00  0.00    +0.000 A 
ATOM     21  C   UNL     1      60.404  63.273  68.146  0.00  0.00    +0.000 A 
ENDROOT
TORSDOF 0
ENDMDL
