MODEL 1
REMARK VINA RESULT:    -9.439      0.000      0.000
REMARK INTER + INTRA:          -9.439
REMARK INTER:                  -9.439
REMARK INTRA:                   0.000
REMARK UNBOUND:                 0.000
ROOT
REMARK  Name = nifuratel
REMARK                            x       y       z     vdW  Elec       q    Type
REMARK                         _______ _______ _______ _____ _____    ______ ____
ATOM      1  C   UNL     1      60.608  64.214  70.839  0.00  0.00    +0.000 C 
ATOM      2  S   UNL     1      60.502  63.834  70.114  0.00  0.00    +0.000 S 
ATOM      3  C   UNL     1      61.109  63.835  69.556  0.00  0.00    +0.000 C 
ATOM      4  C   UNL     1      61.004  63.455  68.831  0.00  0.00    +0.000 C 
ATOM      5  C   UNL     1      61.559  63.410  68.222  0.00  0.00    +0.000 C 
ATOM      6  N   UNL     1      61.224  62.981  67.603  0.00  0.00    +0.000 N 
ATOM      7  N   UNL     1      61.587  62.803  66.883  0.00  0.00    +0.000 NA
ATOM      8  C   UNL     1      61.180  62.366  66.313  0.00  0.00    +0.000 C 
ATOM      9  C   UNL     1      61.543  62.188  65.594  0.00  0.00    +0.000 A 
ATOM     10  C   UNL     1      62.305  62.409  65.368  0.00  0.00    +0.000 A 
ATOM     11  C   UNL     1      62.441  62.115  64.608  0.00  0.00    +0.000 A 
ATOM     12  C   UNL     1      61.763  61.714  64.365  0.00  0.00    +0.000 A 
ATOM     13  O   UNL     1      61.207  61.759  64.974  0.00  0.00    +0.000 OA
ATOM     14  N   UNL     1      61.658  61.334  63.640  0.00  0.00    +0.000 N 
ATOM     15  O   UNL     1      62.265  61.335  63.083  0.00  0.00    +0.000 OA
ATOM     16  O   UNL     1      60.944  60.953  63.474  0.00  0.00    +0.000 OA
ATOM     17  C   UNL     1      60.462  62.761  67.829  0.00  0.00    +0.000 C 
ATOM     18  O   UNL     1      59.928  62.324  67.375  0.00  0.00    +0.000 OA
ATOM     19  O   UNL     1      60.326  63.054  68.588  0.00  0.00    +0.000 OA
ENDROOT
TORSDOF 0
ENDMDL
MODEL 2
REMARK VINA RESULT:    -9.108      2.175      5.159
REMARK INTER + INTRA:          -9.108
REMARK INTER:                  -9.108
REMARK INTRA:                   0.000
REMARK UNBOUND:                 0.000
ROOT
REMARK  Name = nifuratel
REMARK                            x       y       z     vdW  Elec       q    Type
REMARK                         _______ _______ _______ _____ _____    ______ ____
ATOM      1  C   UNL     1      62.378  61.642  63.707  0.00  0.00    +0.000 C 
ATOM      2  S   UNL     1      62.125  62.022  64.394  0.00  0.00    +0.000 S 
ATOM      3  C   UNL     1      61.987  61.587  65.081  0.00  0.00    +0.000 C 
ATOM      4  C   UNL     1      61.735  61.967  65.768  0.00  0.00    +0.000 C 
ATOM      5  C   UNL     1      61.575  61.605  66.492  0.00  0.00    +0.000 C 
ATOM      6  N   UNL     1      61.340  62.190  67.023  0.00  0.00    +0.000 N 
ATOM      7  N   UNL     1      61.127  62.073  67.812  0.00  0.00    +0.000 NA
ATOM      8  C   UNL     1      60.902  62.716  68.278  0.00  0.00    +0.000 C 
ATOM      9  C   UNL     1      60.690  62.598  69.067  0.00  0.00    +0.000 A 
ATOM     10  C   UNL     1      60.676  61.874  69.462  0.00  0.00    +0.000 A 
ATOM     11  C   UNL     1      60.432  62.013  70.239  0.00  0.00    +0.000 A 
ATOM     12  C   UNL     1      60.294  62.822  70.322  0.00  0.00    +0.000 A 
ATOM     13  O   UNL     1      60.454  63.184  69.598  0.00  0.00    +0.000 OA
ATOM     14  N   UNL     1      60.042  63.202  71.009  0.00  0.00    +0.000 N 
ATOM     15  O   UNL     1      59.904  62.766  71.695  0.00  0.00    +0.000 OA
ATOM     16  O   UNL     1      59.928  64.020  71.009  0.00  0.00    +0.000 OA
ATOM     17  C   UNL     1      61.353  62.914  66.627  0.00  0.00    +0.000 C 
ATOM     18  O   UNL     1      61.157  63.648  66.950  0.00  0.00    +0.000 OA
ATOM     19  O   UNL     1      61.597  62.776  65.851  0.00  0.00    +0.000 OA
ENDROOT
TORSDOF 0
ENDMDL
MODEL 3
REMARK VINA RESULT:    -8.794      1.084      1.494
REMARK INTER + INTRA:          -8.794
REMARK INTER:                  -8.794
REMARK INTRA:                   0.000
REMARK UNBOUND:                 0.000
ROOT
REMARK  Name = nifuratel
REMARK                            x       y       z     vdW  Elec       q    Type
REMARK                         _______ _______ _______ _____ _____    ______ ____
ATOM      1  C   UNL     1      60.424  64.112  71.838  0.00  0.00    +0.000 C 
ATOM      2  S   UNL     1      60.775  64.027  71.096  0.00  0.00    +0.000 S 
ATOM      3  C   UNL     1      60.424  63.544  70.527  0.00  0.00    +0.000 C 
ATOM      4  C   UNL     1      60.775  63.459  69.785  0.00  0.00    +0.000 C 
ATOM      5  C   UNL     1      60.489  62.997  69.163  0.00  0.00    +0.000 C 
ATOM      6  N   UNL     1      61.010  63.073  68.529  0.00  0.00    +0.000 N 
ATOM      7  N   UNL     1      60.937  62.705  67.794  0.00  0.00    +0.000 NA
ATOM      8  C   UNL     1      61.505  62.834  67.209  0.00  0.00    +0.000 C 
ATOM      9  C   UNL     1      61.432  62.466  66.475  0.00  0.00    +0.000 A 
ATOM     10  C   UNL     1      60.824  61.957  66.246  0.00  0.00    +0.000 A 
ATOM     11  C   UNL     1      60.969  61.719  65.469  0.00  0.00    +0.000 A 
ATOM     12  C   UNL     1      61.667  62.080  65.219  0.00  0.00    +0.000 A 
ATOM     13  O   UNL     1      61.953  62.542  65.840  0.00  0.00    +0.000 OA
ATOM     14  N   UNL     1      62.018  61.994  64.477  0.00  0.00    +0.000 N 
ATOM     15  O   UNL     1      61.667  61.512  63.908  0.00  0.00    +0.000 OA
ATOM     16  O   UNL     1      62.720  62.392  64.305  0.00  0.00    +0.000 OA
ATOM     17  C   UNL     1      61.618  63.581  68.758  0.00  0.00    +0.000 C 
ATOM     18  O   UNL     1      62.260  63.811  68.292  0.00  0.00    +0.000 OA
ATOM     19  O   UNL     1      61.473  63.820  69.534  0.00  0.00    +0.000 OA
ENDROOT
TORSDOF 0
ENDMDL
MODEL 4
REMARK VINA RESULT:    -8.409      4.309      6.307
REMARK INTER + INTRA:          -8.409
REMARK INTER:                  -8.409
REMARK INTRA:                   0.000
REMARK UNBOUND:                 0.000
ROOT
REMARK  Name = nifuratel
REMARK                            x       y       z     vdW  Elec       q    Type
REMARK                         _______ _______ _______ _____ _____    ______ ____
ATOM      1  C   UNL     1      60.273  62.212  68.671  0.00  0.00    +0.000 C 
ATOM      2  S   UNL     1      60.819  62.614  69.142  0.00  0.00    +0.000 S 
ATOM      3  C   UNL     1      61.314  63.182  68.806  0.00  0.00    +0.000 C 
ATOM      4  C   UNL     1      61.860  63.583  69.276  0.00  0.00    +0.000 C 
ATOM      5  C   UNL     1      62.388  64.163  69.019  0.00  0.00    +0.000 C 
ATOM      6  N   UNL     1      62.828  64.413  69.669  0.00  0.00    +0.000 N 
ATOM      7  N   UNL     1      63.421  64.988  69.662  0.00  0.00    +0.000 NA
ATOM      8  C   UNL     1      63.816  65.182  70.361  0.00  0.00    +0.000 C 
ATOM      9  C   UNL     1      64.408  65.756  70.353  0.00  0.00    +0.000 A 
ATOM     10  C   UNL     1      64.664  66.181  69.694  0.00  0.00    +0.000 A 
ATOM     11  C   UNL     1      65.263  66.694  69.937  0.00  0.00    +0.000 A 
ATOM     12  C   UNL     1      65.377  66.586  70.747  0.00  0.00    +0.000 A 
ATOM     13  O   UNL     1      64.849  66.007  71.004  0.00  0.00    +0.000 OA
ATOM     14  N   UNL     1      65.924  66.988  71.217  0.00  0.00    +0.000 N 
ATOM     15  O   UNL     1      66.418  67.556  70.881  0.00  0.00    +0.000 OA
ATOM     16  O   UNL     1      65.975  66.820  72.023  0.00  0.00    +0.000 OA
ATOM     17  C   UNL     1      62.573  63.989  70.329  0.00  0.00    +0.000 C 
ATOM     18  O   UNL     1      62.865  64.064  71.097  0.00  0.00    +0.000 OA
ATOM     19  O   UNL     1      61.975  63.476  70.086  0.00  0.00    +0.000 OA
ENDROOT
TORSDOF 0
ENDMDL
MODEL 5
REMARK VINA RESULT:    -8.259      1.887      2.740
REMARK INTER + INTRA:          -8.259
REMARK INTER:                  -8.259
REMARK INTRA:                   0.000
REMARK UNBOUND:                 0.000
ROOT
REMARK  Name = nifuratel
REMARK                            x       y       z     vdW  Elec       q    Type
REMARK                         _______ _______ _______ _____ _____    ______ ____
ATOM      1  C   UNL     1      63.672  65.985  71.666  0.00  0.00    +0.000 C 
ATOM      2  S   UNL     1      63.080  65.645  71.202  0.00  0.00    +0.000 S 
ATOM      3  C   UNL     1      63.281  65.200  70.537  0.00  0.00    +0.000 C 
ATOM      4  C   UNL     1      62.689  64.860  70.074  0.00  0.00    +0.000 C 
ATOM      5  C   UNL     1      62.806  64.403  69.396  0.00  0.00    +0.000 C 
ATOM      6  N   UNL     1      62.067  64.178  69.111  0.00  0.00    +0.000 N 
ATOM      7  N   UNL     1      61.925  63.716  68.441  0.00  0.00    +0.000 NA
ATOM      8  C   UNL     1      61.150  63.534  68.222  0.00  0.00    +0.000 C 
ATOM      9  C   UNL     1      61.009  63.072  67.553  0.00  0.00    +0.000 A 
ATOM     10  C   UNL     1      61.584  62.755  67.052  0.00  0.00    +0.000 A 
ATOM     11  C   UNL     1      61.198  62.333  66.457  0.00  0.00    +0.000 A 
ATOM     12  C   UNL     1      60.386  62.390  66.589  0.00  0.00    +0.000 A 
ATOM     13  O   UNL     1      60.269  62.846  67.267  0.00  0.00    +0.000 OA
ATOM     14  N   UNL     1      59.794  62.049  66.126  0.00  0.00    +0.000 N 
ATOM     15  O   UNL     1      59.996  61.605  65.461  0.00  0.00    +0.000 OA
ATOM     16  O   UNL     1      59.001  62.154  66.328  0.00  0.00    +0.000 OA
ATOM     17  C   UNL     1      61.492  64.495  69.611  0.00  0.00    +0.000 C 
ATOM     18  O   UNL     1      60.676  64.405  69.530  0.00  0.00    +0.000 OA
ATOM     19  O   UNL     1      61.877  64.916  70.206  0.00  0.00    +0.000 OA
ENDROOT
TORSDOF 0
ENDMDL
MODEL 6
REMARK VINA RESULT:    -8.119      4.493      5.612
REMARK INTER + INTRA:          -8.119
REMARK INTER:                  -8.119
REMARK INTRA:                   0.000
REMARK UNBOUND:                 0.000
ROOT
REMARK  Name = nifuratel
REMARK                            x       y       z     vdW  Elec       q    Type
REMARK                         _______ _______ _______ _____ _____    ______ ____
ATOM      1  C   UNL     1      66.135  67.503  70.452  0.00  0.00    +0.000 C 
ATOM      2  S   UNL     1      65.592  66.931  70.212  0.00  0.00    +0.000 S 
ATOM      3  C   UNL     1      65.130  66.538  70.772  0.00  0.00    +0.000 C 
ATOM      4  C   UNL     1      64.587  65.966  70.531  0.00  0.00    +0.000 C 
ATOM      5  C   UNL     1      64.091  65.530  71.026  0.00  0.00    +0.000 C 
ATOM      6  N   UNL     1      63.643  65.024  70.555  0.00  0.00    +0.000 N 
ATOM      7  N   UNL     1      63.074  64.488  70.822  0.00  0.00    +0.000 NA
ATOM      8  C   UNL     1      62.667  64.014  70.282  0.00  0.00    +0.000 C 
ATOM      9  C   UNL     1      62.099  63.480  70.550  0.00  0.00    +0.000 A 
ATOM     10  C   UNL     1      61.880  63.358  71.336  0.00  0.00    +0.000 A 
ATOM     11  C   UNL     1      61.295  62.775  71.350  0.00  0.00    +0.000 A 
ATOM     12  C   UNL     1      61.154  62.537  70.573  0.00  0.00    +0.000 A 
ATOM     13  O   UNL     1      61.650  62.972  70.078  0.00  0.00    +0.000 OA
ATOM     14  N   UNL     1      60.611  61.964  70.333  0.00  0.00    +0.000 N 
ATOM     15  O   UNL     1      60.150  61.572  70.893  0.00  0.00    +0.000 OA
ATOM     16  O   UNL     1      60.530  61.784  69.531  0.00  0.00    +0.000 OA
ATOM     17  C   UNL     1      63.862  65.145  69.769  0.00  0.00    +0.000 C 
ATOM     18  O   UNL     1      63.551  64.753  69.112  0.00  0.00    +0.000 OA
ATOM     19  O   UNL     1      64.446  65.727  69.754  0.00  0.00    +0.000 OA
ENDROOT
TORSDOF 0
ENDMDL
MODEL 7
REMARK VINA RESULT:    -7.921      5.515      6.688
REMARK INTER + INTRA:          -7.921
REMARK INTER:                  -7.921
REMARK INTRA:                   0.000
REMARK UNBOUND:                 0.000
ROOT
REMARK  Name = nifuratel
REMARK                            x       y       z     vdW  Elec       q    Type
REMARK                         _______ _______ _______ _____ _____    ______ ____
ATOM      1  C   UNL     1      59.741  63.597  71.715  0.00  0.00    +0.000 C 
ATOM      2  S   UNL     1      60.309  64.090  71.375  0.00  0.00    +0.000 S 
ATOM      3  C   UNL     1      61.054  64.163  71.721  0.00  0.00    +0.000 C 
ATOM      4  C   UNL     1      61.621  64.656  71.381  0.00  0.00    +0.000 C 
ATOM      5  C   UNL     1      62.386  64.784  71.664  0.00  0.00    +0.000 C 
ATOM      6  N   UNL     1      62.760  65.314  71.156  0.00  0.00    +0.000 N 
ATOM      7  N   UNL     1      63.533  65.595  71.232  0.00  0.00    +0.000 NA
ATOM      8  C   UNL     1      63.834  66.127  70.678  0.00  0.00    +0.000 C 
ATOM      9  C   UNL     1      64.606  66.408  70.753  0.00  0.00    +0.000 A 
ATOM     10  C   UNL     1      65.139  66.207  71.351  0.00  0.00    +0.000 A 
ATOM     11  C   UNL     1      65.843  66.614  71.211  0.00  0.00    +0.000 A 
ATOM     12  C   UNL     1      65.746  67.066  70.528  0.00  0.00    +0.000 A 
ATOM     13  O   UNL     1      64.981  66.939  70.245  0.00  0.00    +0.000 OA
ATOM     14  N   UNL     1      66.313  67.559  70.188  0.00  0.00    +0.000 N 
ATOM     15  O   UNL     1      67.057  67.632  70.535  0.00  0.00    +0.000 OA
ATOM     16  O   UNL     1      66.135  67.979  69.501  0.00  0.00    +0.000 OA
ATOM     17  C   UNL     1      62.227  65.515  70.559  0.00  0.00    +0.000 C 
ATOM     18  O   UNL     1      62.374  66.032  69.933  0.00  0.00    +0.000 OA
ATOM     19  O   UNL     1      61.524  65.108  70.698  0.00  0.00    +0.000 OA
ENDROOT
TORSDOF 0
ENDMDL
MODEL 8
REMARK VINA RESULT:    -7.520      6.846      7.400
REMARK INTER + INTRA:          -7.520
REMARK INTER:                  -7.520
REMARK INTRA:                   0.000
REMARK UNBOUND:                 0.000
ROOT
REMARK  Name = nifuratel
REMARK                            x       y       z     vdW  Elec       q    Type
REMARK                         _______ _______ _______ _____ _____    ______ ____
ATOM      1  C   UNL     1      57.700  67.112  73.064  0.00  0.00    +0.000 C 
ATOM      2  S   UNL     1      58.521  67.192  73.064  0.00  0.00    +0.000 S 
ATOM      3  C   UNL     1      58.968  66.870  72.450  0.00  0.00    +0.000 C 
ATOM      4  C   UNL     1      59.789  66.950  72.451  0.00  0.00    +0.000 C 
ATOM      5  C   UNL     1      60.305  66.658  71.876  0.00  0.00    +0.000 C 
ATOM      6  N   UNL     1      61.073  66.864  72.096  0.00  0.00    +0.000 N 
ATOM      7  N   UNL     1      61.762  66.683  71.679  0.00  0.00    +0.000 NA
ATOM      8  C   UNL     1      62.495  66.927  71.968  0.00  0.00    +0.000 C 
ATOM      9  C   UNL     1      63.183  66.746  71.551  0.00  0.00    +0.000 A 
ATOM     10  C   UNL     1      63.224  66.327  70.841  0.00  0.00    +0.000 A 
ATOM     11  C   UNL     1      64.018  66.274  70.622  0.00  0.00    +0.000 A 
ATOM     12  C   UNL     1      64.468  66.660  71.196  0.00  0.00    +0.000 A 
ATOM     13  O   UNL     1      63.952  66.952  71.770  0.00  0.00    +0.000 OA
ATOM     14  N   UNL     1      65.289  66.740  71.196  0.00  0.00    +0.000 N 
ATOM     15  O   UNL     1      65.735  66.418  70.582  0.00  0.00    +0.000 OA
ATOM     16  O   UNL     1      65.663  67.143  71.811  0.00  0.00    +0.000 OA
ATOM     17  C   UNL     1      61.031  67.283  72.805  0.00  0.00    +0.000 C 
ATOM     18  O   UNL     1      61.672  67.594  73.222  0.00  0.00    +0.000 OA
ATOM     19  O   UNL     1      60.238  67.336  73.024  0.00  0.00    +0.000 OA
ENDROOT
TORSDOF 0
ENDMDL
MODEL 9
REMARK VINA RESULT:    -7.124     24.057     25.071
REMARK INTER + INTRA:          -7.124
REMARK INTER:                  -7.124
REMARK INTRA:                   0.000
REMARK UNBOUND:                 0.000
ROOT
REMARK  Name = nifuratel
REMARK                            x       y       z     vdW  Elec       q    Type
REMARK                         _______ _______ _______ _____ _____    ______ ____
ATOM      1  C   UNL     1      67.288  81.642  54.355  0.00  0.00    +0.000 C 
ATOM      2  S   UNL     1      67.956  81.474  53.901  0.00  0.00    +0.000 S 
ATOM      3  C   UNL     1      67.886  81.016  53.218  0.00  0.00    +0.000 C 
ATOM      4  C   UNL     1      68.554  80.848  52.763  0.00  0.00    +0.000 C 
ATOM      5  C   UNL     1      68.568  80.400  52.070  0.00  0.00    +0.000 C 
ATOM      6  N   UNL     1      69.347  80.374  51.801  0.00  0.00    +0.000 N 
ATOM      7  N   UNL     1      69.613  79.984  51.123  0.00  0.00    +0.000 NA
ATOM      8  C   UNL     1      70.413  80.006  50.922  0.00  0.00    +0.000 C 
ATOM      9  C   UNL     1      70.678  79.616  50.245  0.00  0.00    +0.000 A 
ATOM     10  C   UNL     1      70.212  79.185  49.719  0.00  0.00    +0.000 A 
ATOM     11  C   UNL     1      70.702  78.891  49.124  0.00  0.00    +0.000 A 
ATOM     12  C   UNL     1      71.472  79.142  49.282  0.00  0.00    +0.000 A 
ATOM     13  O   UNL     1      71.458  79.590  49.975  0.00  0.00    +0.000 OA
ATOM     14  N   UNL     1      72.140  78.974  48.827  0.00  0.00    +0.000 N 
ATOM     15  O   UNL     1      72.069  78.516  48.145  0.00  0.00    +0.000 OA
ATOM     16  O   UNL     1      72.878  79.264  49.056  0.00  0.00    +0.000 OA
ATOM     17  C   UNL     1      69.813  80.805  52.326  0.00  0.00    +0.000 C 
ATOM     18  O   UNL     1      70.628  80.923  52.267  0.00  0.00    +0.000 OA
ATOM     19  O   UNL     1      69.323  81.098  52.921  0.00  0.00    +0.000 OA
ENDROOT
TORSDOF 0
ENDMDL
