MODEL 1
REMARK VINA RESULT:   -15.734      0.000      0.000
REMARK INTER + INTRA:         -15.734
REMARK INTER:                 -15.734
REMARK INTRA:                   0.000
REMARK UNBOUND:                 0.000
ROOT
REMARK  Name = nilotinib
REMARK                            x       y       z     vdW  Elec       q    Type
REMARK                         _______ _______ _______ _____ _____    ______ ____
ATOM      1  C   UNL     1      58.123  68.328  73.215  0.00  0.00    +0.000 C 
ATOM      2  C   UNL     1      58.376  67.627  72.863  0.00  0.00    +0.000 A 
ATOM      3  C   UNL     1      58.655  67.545  72.091  0.00  0.00    +0.000 A 
ATOM      4  N   UNL     1      58.847  66.751  71.972  0.00  0.00    +0.000 N 
ATOM      5  C   UNL     1      58.687  66.343  72.671  0.00  0.00    +0.000 A 
ATOM      6  N   UNL     1      58.396  66.885  73.222  0.00  0.00    +0.000 NA
ATOM      7  C   UNL     1      59.146  66.422  71.277  0.00  0.00    +0.000 A 
ATOM      8  C   UNL     1      59.278  66.902  70.619  0.00  0.00    +0.000 A 
ATOM      9  C   UNL     1      59.578  66.573  69.923  0.00  0.00    +0.000 A 
ATOM     10  C   UNL     1      59.744  65.767  69.886  0.00  0.00    +0.000 A 
ATOM     11  C   UNL     1      59.612  65.287  70.545  0.00  0.00    +0.000 A 
ATOM     12  N   UNL     1      59.778  64.481  70.508  0.00  0.00    +0.000 NA
ATOM     13  C   UNL     1      60.078  64.152  69.812  0.00  0.00    +0.000 C 
ATOM     14  O   UNL     1      60.210  64.631  69.155  0.00  0.00    +0.000 OA
ATOM     15  C   UNL     1      60.244  63.345  69.776  0.00  0.00    +0.000 A 
ATOM     16  C   UNL     1      60.544  63.017  69.081  0.00  0.00    +0.000 A 
ATOM     17  C   UNL     1      60.710  62.209  69.044  0.00  0.00    +0.000 A 
ATOM     18  N   UNL     1      61.009  61.881  68.349  0.00  0.00    +0.000 NA
ATOM     19  C   UNL     1      61.142  62.360  67.690  0.00  0.00    +0.000 A 
ATOM     20  N   UNL     1      60.975  63.168  67.727  0.00  0.00    +0.000 NA
ATOM     21  C   UNL     1      61.108  63.647  67.068  0.00  0.00    +0.000 A 
ATOM     22  C   UNL     1      61.407  63.319  66.373  0.00  0.00    +0.000 A 
ATOM     23  C   UNL     1      61.574  62.511  66.337  0.00  0.00    +0.000 A 
ATOM     24  N   UNL     1      61.441  62.033  66.995  0.00  0.00    +0.000 NA
ATOM     25  C   UNL     1      61.873  62.184  65.642  0.00  0.00    +0.000 A 
ATOM     26  C   UNL     1      62.006  62.663  64.983  0.00  0.00    +0.000 A 
ATOM     27  N   UNL     1      62.305  62.335  64.287  0.00  0.00    +0.000 NA
ATOM     28  C   UNL     1      62.471  61.527  64.251  0.00  0.00    +0.000 A 
ATOM     29  C   UNL     1      62.339  61.049  64.909  0.00  0.00    +0.000 A 
ATOM     30  C   UNL     1      62.040  61.376  65.604  0.00  0.00    +0.000 A 
ATOM     31  C   UNL     1      60.578  61.730  69.702  0.00  0.00    +0.000 A 
ATOM     32  C   UNL     1      60.744  60.924  69.666  0.00  0.00    +0.000 C 
ATOM     33  C   UNL     1      60.278  62.059  70.398  0.00  0.00    +0.000 A 
ATOM     34  C   UNL     1      60.112  62.866  70.434  0.00  0.00    +0.000 A 
ATOM     35  C   UNL     1      59.312  65.616  71.241  0.00  0.00    +0.000 A 
ATOM     36  C   UNL     1      59.711  67.052  69.264  0.00  0.00    +0.000 C 
ATOM     37  F   UNL     1      59.843  67.532  68.607  0.00  0.00    +0.000 F 
ATOM     38  F   UNL     1      59.979  66.397  68.842  0.00  0.00    +0.000 F 
ATOM     39  F   UNL     1      59.441  67.708  69.687  0.00  0.00    +0.000 F 
ENDROOT
TORSDOF 0
ENDMDL
MODEL 2
REMARK VINA RESULT:   -14.532      2.524      2.673
REMARK INTER + INTRA:         -14.532
REMARK INTER:                 -14.532
REMARK INTRA:                   0.000
REMARK UNBOUND:                 0.000
ROOT
REMARK  Name = nilotinib
REMARK                            x       y       z     vdW  Elec       q    Type
REMARK                         _______ _______ _______ _____ _____    ______ ____
ATOM      1  C   UNL     1      63.545  68.141  73.222  0.00  0.00    +0.000 C 
ATOM      2  C   UNL     1      63.212  67.490  72.843  0.00  0.00    +0.000 A 
ATOM      3  C   UNL     1      63.294  67.300  72.044  0.00  0.00    +0.000 A 
ATOM      4  N   UNL     1      62.870  66.606  71.903  0.00  0.00    +0.000 N 
ATOM      5  C   UNL     1      62.526  66.367  72.614  0.00  0.00    +0.000 A 
ATOM      6  N   UNL     1      62.738  66.914  73.195  0.00  0.00    +0.000 NA
ATOM      7  C   UNL     1      62.801  66.218  71.177  0.00  0.00    +0.000 A 
ATOM      8  C   UNL     1      63.178  66.524  70.510  0.00  0.00    +0.000 A 
ATOM      9  C   UNL     1      63.110  66.136  69.784  0.00  0.00    +0.000 A 
ATOM     10  C   UNL     1      62.665  65.444  69.727  0.00  0.00    +0.000 A 
ATOM     11  C   UNL     1      62.288  65.138  70.394  0.00  0.00    +0.000 A 
ATOM     12  N   UNL     1      61.844  64.447  70.336  0.00  0.00    +0.000 NA
ATOM     13  C   UNL     1      61.776  64.059  69.611  0.00  0.00    +0.000 C 
ATOM     14  O   UNL     1      62.152  64.365  68.944  0.00  0.00    +0.000 OA
ATOM     15  C   UNL     1      61.331  63.367  69.554  0.00  0.00    +0.000 A 
ATOM     16  C   UNL     1      61.263  62.979  68.828  0.00  0.00    +0.000 A 
ATOM     17  C   UNL     1      60.818  62.286  68.771  0.00  0.00    +0.000 A 
ATOM     18  N   UNL     1      60.750  61.899  68.046  0.00  0.00    +0.000 NA
ATOM     19  C   UNL     1      61.126  62.205  67.378  0.00  0.00    +0.000 A 
ATOM     20  N   UNL     1      61.571  62.898  67.435  0.00  0.00    +0.000 NA
ATOM     21  C   UNL     1      61.947  63.203  66.768  0.00  0.00    +0.000 A 
ATOM     22  C   UNL     1      61.879  62.816  66.043  0.00  0.00    +0.000 A 
ATOM     23  C   UNL     1      61.434  62.123  65.985  0.00  0.00    +0.000 A 
ATOM     24  N   UNL     1      61.058  61.818  66.652  0.00  0.00    +0.000 NA
ATOM     25  C   UNL     1      61.366  61.736  65.260  0.00  0.00    +0.000 A 
ATOM     26  C   UNL     1      61.743  62.041  64.592  0.00  0.00    +0.000 A 
ATOM     27  N   UNL     1      61.675  61.654  63.867  0.00  0.00    +0.000 NA
ATOM     28  C   UNL     1      61.230  60.961  63.809  0.00  0.00    +0.000 A 
ATOM     29  C   UNL     1      60.854  60.656  64.477  0.00  0.00    +0.000 A 
ATOM     30  C   UNL     1      60.922  61.043  65.202  0.00  0.00    +0.000 A 
ATOM     31  C   UNL     1      60.442  61.981  69.438  0.00  0.00    +0.000 A 
ATOM     32  C   UNL     1      59.997  61.289  69.381  0.00  0.00    +0.000 C 
ATOM     33  C   UNL     1      60.510  62.369  70.164  0.00  0.00    +0.000 A 
ATOM     34  C   UNL     1      60.955  63.061  70.221  0.00  0.00    +0.000 A 
ATOM     35  C   UNL     1      62.357  65.526  71.120  0.00  0.00    +0.000 A 
ATOM     36  C   UNL     1      63.486  66.441  69.116  0.00  0.00    +0.000 C 
ATOM     37  F   UNL     1      63.863  66.747  68.449  0.00  0.00    +0.000 F 
ATOM     38  F   UNL     1      63.190  65.818  68.665  0.00  0.00    +0.000 F 
ATOM     39  F   UNL     1      63.783  67.065  69.568  0.00  0.00    +0.000 F 
ENDROOT
TORSDOF 0
ENDMDL
MODEL 3
REMARK VINA RESULT:   -12.903     15.246     16.187
REMARK INTER + INTRA:         -12.903
REMARK INTER:                 -12.903
REMARK INTRA:                   0.000
REMARK UNBOUND:                 0.000
ROOT
REMARK  Name = nilotinib
REMARK                            x       y       z     vdW  Elec       q    Type
REMARK                         _______ _______ _______ _____ _____    ______ ____
ATOM      1  C   UNL     1      62.626  69.175  54.932  0.00  0.00    +0.000 C 
ATOM      2  C   UNL     1      62.768  68.370  54.829  0.00  0.00    +0.000 A 
ATOM      3  C   UNL     1      62.273  67.836  54.440  0.00  0.00    +0.000 A 
ATOM      4  N   UNL     1      62.629  67.092  54.467  0.00  0.00    +0.000 N 
ATOM      5  C   UNL     1      63.345  67.166  54.871  0.00  0.00    +0.000 A 
ATOM      6  N   UNL     1      63.430  67.956  55.094  0.00  0.00    +0.000 NA
ATOM      7  C   UNL     1      62.324  66.396  54.145  0.00  0.00    +0.000 A 
ATOM      8  C   UNL     1      61.598  66.407  53.754  0.00  0.00    +0.000 A 
ATOM      9  C   UNL     1      61.292  65.711  53.433  0.00  0.00    +0.000 A 
ATOM     10  C   UNL     1      61.713  65.005  53.502  0.00  0.00    +0.000 A 
ATOM     11  C   UNL     1      62.440  64.994  53.893  0.00  0.00    +0.000 A 
ATOM     12  N   UNL     1      62.860  64.289  53.963  0.00  0.00    +0.000 NA
ATOM     13  C   UNL     1      62.555  63.592  53.641  0.00  0.00    +0.000 C 
ATOM     14  O   UNL     1      61.829  63.603  53.250  0.00  0.00    +0.000 OA
ATOM     15  C   UNL     1      62.976  62.887  53.711  0.00  0.00    +0.000 A 
ATOM     16  C   UNL     1      62.671  62.191  53.389  0.00  0.00    +0.000 A 
ATOM     17  C   UNL     1      63.092  61.484  53.459  0.00  0.00    +0.000 A 
ATOM     18  N   UNL     1      62.786  60.789  53.138  0.00  0.00    +0.000 NA
ATOM     19  C   UNL     1      62.060  60.799  52.746  0.00  0.00    +0.000 A 
ATOM     20  N   UNL     1      61.638  61.505  52.677  0.00  0.00    +0.000 NA
ATOM     21  C   UNL     1      60.912  61.516  52.286  0.00  0.00    +0.000 A 
ATOM     22  C   UNL     1      60.607  60.820  51.964  0.00  0.00    +0.000 A 
ATOM     23  C   UNL     1      61.028  60.114  52.034  0.00  0.00    +0.000 A 
ATOM     24  N   UNL     1      61.754  60.104  52.425  0.00  0.00    +0.000 NA
ATOM     25  C   UNL     1      60.723  59.419  51.713  0.00  0.00    +0.000 A 
ATOM     26  C   UNL     1      59.996  59.429  51.321  0.00  0.00    +0.000 A 
ATOM     27  N   UNL     1      59.690  58.733  51.000  0.00  0.00    +0.000 NA
ATOM     28  C   UNL     1      60.112  58.027  51.070  0.00  0.00    +0.000 A 
ATOM     29  C   UNL     1      60.838  58.017  51.460  0.00  0.00    +0.000 A 
ATOM     30  C   UNL     1      61.143  58.712  51.782  0.00  0.00    +0.000 A 
ATOM     31  C   UNL     1      63.818  61.474  53.850  0.00  0.00    +0.000 A 
ATOM     32  C   UNL     1      64.239  60.769  53.920  0.00  0.00    +0.000 C 
ATOM     33  C   UNL     1      64.123  62.170  54.172  0.00  0.00    +0.000 A 
ATOM     34  C   UNL     1      63.702  62.876  54.102  0.00  0.00    +0.000 A 
ATOM     35  C   UNL     1      62.745  65.690  54.215  0.00  0.00    +0.000 A 
ATOM     36  C   UNL     1      60.566  65.721  53.041  0.00  0.00    +0.000 C 
ATOM     37  F   UNL     1      59.840  65.732  52.651  0.00  0.00    +0.000 F 
ATOM     38  F   UNL     1      60.633  64.912  52.896  0.00  0.00    +0.000 F 
ATOM     39  F   UNL     1      60.499  66.531  53.187  0.00  0.00    +0.000 F 
ENDROOT
TORSDOF 0
ENDMDL
MODEL 4
REMARK VINA RESULT:   -12.877     14.907     17.291
REMARK INTER + INTRA:         -12.877
REMARK INTER:                 -12.877
REMARK INTRA:                   0.000
REMARK UNBOUND:                 0.000
ROOT
REMARK  Name = nilotinib
REMARK                            x       y       z     vdW  Elec       q    Type
REMARK                         _______ _______ _______ _____ _____    ______ ____
ATOM      1  C   UNL     1      63.471  57.926  51.875  0.00  0.00    +0.000 C 
ATOM      2  C   UNL     1      63.137  58.679  51.866  0.00  0.00    +0.000 A 
ATOM      3  C   UNL     1      63.349  59.310  52.354  0.00  0.00    +0.000 A 
ATOM      4  N   UNL     1      62.875  59.956  52.157  0.00  0.00    +0.000 N 
ATOM      5  C   UNL     1      62.370  59.725  51.547  0.00  0.00    +0.000 A 
ATOM      6  N   UNL     1      62.533  58.935  51.367  0.00  0.00    +0.000 NA
ATOM      7  C   UNL     1      62.901  60.703  52.508  0.00  0.00    +0.000 A 
ATOM      8  C   UNL     1      63.438  60.853  53.115  0.00  0.00    +0.000 A 
ATOM      9  C   UNL     1      63.464  61.600  53.466  0.00  0.00    +0.000 A 
ATOM     10  C   UNL     1      62.953  62.194  53.210  0.00  0.00    +0.000 A 
ATOM     11  C   UNL     1      62.416  62.043  52.602  0.00  0.00    +0.000 A 
ATOM     12  N   UNL     1      61.905  62.638  52.345  0.00  0.00    +0.000 NA
ATOM     13  C   UNL     1      61.931  63.384  52.696  0.00  0.00    +0.000 C 
ATOM     14  O   UNL     1      62.468  63.535  53.304  0.00  0.00    +0.000 OA
ATOM     15  C   UNL     1      61.420  63.978  52.439  0.00  0.00    +0.000 A 
ATOM     16  C   UNL     1      61.446  64.725  52.790  0.00  0.00    +0.000 A 
ATOM     17  C   UNL     1      60.935  65.320  52.533  0.00  0.00    +0.000 A 
ATOM     18  N   UNL     1      60.961  66.066  52.884  0.00  0.00    +0.000 NA
ATOM     19  C   UNL     1      61.498  66.218  53.492  0.00  0.00    +0.000 A 
ATOM     20  N   UNL     1      62.010  65.623  53.749  0.00  0.00    +0.000 NA
ATOM     21  C   UNL     1      62.546  65.774  54.357  0.00  0.00    +0.000 A 
ATOM     22  C   UNL     1      62.572  66.520  54.708  0.00  0.00    +0.000 A 
ATOM     23  C   UNL     1      62.061  67.115  54.451  0.00  0.00    +0.000 A 
ATOM     24  N   UNL     1      61.525  66.963  53.843  0.00  0.00    +0.000 NA
ATOM     25  C   UNL     1      62.087  67.861  54.802  0.00  0.00    +0.000 A 
ATOM     26  C   UNL     1      62.625  68.013  55.410  0.00  0.00    +0.000 A 
ATOM     27  N   UNL     1      62.651  68.758  55.761  0.00  0.00    +0.000 NA
ATOM     28  C   UNL     1      62.139  69.353  55.504  0.00  0.00    +0.000 A 
ATOM     29  C   UNL     1      61.603  69.202  54.896  0.00  0.00    +0.000 A 
ATOM     30  C   UNL     1      61.577  68.456  54.545  0.00  0.00    +0.000 A 
ATOM     31  C   UNL     1      60.398  65.168  51.926  0.00  0.00    +0.000 A 
ATOM     32  C   UNL     1      59.887  65.762  51.669  0.00  0.00    +0.000 C 
ATOM     33  C   UNL     1      60.373  64.422  51.575  0.00  0.00    +0.000 A 
ATOM     34  C   UNL     1      60.883  63.828  51.832  0.00  0.00    +0.000 A 
ATOM     35  C   UNL     1      62.390  61.297  52.251  0.00  0.00    +0.000 A 
ATOM     36  C   UNL     1      64.001  61.752  54.074  0.00  0.00    +0.000 C 
ATOM     37  F   UNL     1      64.538  61.903  54.682  0.00  0.00    +0.000 F 
ATOM     38  F   UNL     1      63.721  62.526  54.129  0.00  0.00    +0.000 F 
ATOM     39  F   UNL     1      64.281  60.977  54.020  0.00  0.00    +0.000 F 
ENDROOT
TORSDOF 0
ENDMDL
MODEL 5
REMARK VINA RESULT:   -12.737     14.504     16.782
REMARK INTER + INTRA:         -12.737
REMARK INTER:                 -12.737
REMARK INTRA:                   0.000
REMARK UNBOUND:                 0.000
ROOT
REMARK  Name = nilotinib
REMARK                            x       y       z     vdW  Elec       q    Type
REMARK                         _______ _______ _______ _____ _____    ______ ____
ATOM      1  C   UNL     1      64.039  61.308  52.938  0.00  0.00    +0.000 C 
ATOM      2  C   UNL     1      63.891  62.047  53.272  0.00  0.00    +0.000 A 
ATOM      3  C   UNL     1      63.385  62.624  52.968  0.00  0.00    +0.000 A 
ATOM      4  N   UNL     1      63.404  63.273  53.477  0.00  0.00    +0.000 N 
ATOM      5  C   UNL     1      63.922  63.098  54.094  0.00  0.00    +0.000 A 
ATOM      6  N   UNL     1      64.223  62.340  53.967  0.00  0.00    +0.000 NA
ATOM      7  C   UNL     1      62.980  63.975  53.384  0.00  0.00    +0.000 A 
ATOM      8  C   UNL     1      62.480  64.072  52.735  0.00  0.00    +0.000 A 
ATOM      9  C   UNL     1      62.056  64.774  52.642  0.00  0.00    +0.000 A 
ATOM     10  C   UNL     1      62.131  65.377  53.198  0.00  0.00    +0.000 A 
ATOM     11  C   UNL     1      62.631  65.281  53.848  0.00  0.00    +0.000 A 
ATOM     12  N   UNL     1      62.707  65.885  54.404  0.00  0.00    +0.000 NA
ATOM     13  C   UNL     1      62.282  66.587  54.311  0.00  0.00    +0.000 C 
ATOM     14  O   UNL     1      61.783  66.683  53.662  0.00  0.00    +0.000 OA
ATOM     15  C   UNL     1      62.358  67.191  54.867  0.00  0.00    +0.000 A 
ATOM     16  C   UNL     1      61.934  67.893  54.775  0.00  0.00    +0.000 A 
ATOM     17  C   UNL     1      62.010  68.497  55.332  0.00  0.00    +0.000 A 
ATOM     18  N   UNL     1      61.585  69.198  55.239  0.00  0.00    +0.000 NA
ATOM     19  C   UNL     1      61.085  69.296  54.589  0.00  0.00    +0.000 A 
ATOM     20  N   UNL     1      61.009  68.691  54.032  0.00  0.00    +0.000 NA
ATOM     21  C   UNL     1      60.510  68.788  53.384  0.00  0.00    +0.000 A 
ATOM     22  C   UNL     1      60.086  69.489  53.291  0.00  0.00    +0.000 A 
ATOM     23  C   UNL     1      60.161  70.094  53.847  0.00  0.00    +0.000 A 
ATOM     24  N   UNL     1      60.661  69.997  54.496  0.00  0.00    +0.000 NA
ATOM     25  C   UNL     1      59.737  70.795  53.754  0.00  0.00    +0.000 A 
ATOM     26  C   UNL     1      59.237  70.892  53.105  0.00  0.00    +0.000 A 
ATOM     27  N   UNL     1      58.813  71.593  53.012  0.00  0.00    +0.000 NA
ATOM     28  C   UNL     1      58.889  72.198  53.569  0.00  0.00    +0.000 A 
ATOM     29  C   UNL     1      59.388  72.101  54.217  0.00  0.00    +0.000 A 
ATOM     30  C   UNL     1      59.812  71.400  54.310  0.00  0.00    +0.000 A 
ATOM     31  C   UNL     1      62.509  68.400  55.980  0.00  0.00    +0.000 A 
ATOM     32  C   UNL     1      62.585  69.004  56.537  0.00  0.00    +0.000 C 
ATOM     33  C   UNL     1      62.934  67.698  56.073  0.00  0.00    +0.000 A 
ATOM     34  C   UNL     1      62.858  67.095  55.516  0.00  0.00    +0.000 A 
ATOM     35  C   UNL     1      63.056  64.579  53.940  0.00  0.00    +0.000 A 
ATOM     36  C   UNL     1      61.556  64.871  51.993  0.00  0.00    +0.000 C 
ATOM     37  F   UNL     1      61.056  64.967  51.344  0.00  0.00    +0.000 F 
ATOM     38  F   UNL     1      61.355  65.624  52.261  0.00  0.00    +0.000 F 
ATOM     39  F   UNL     1      61.757  64.116  51.725  0.00  0.00    +0.000 F 
ENDROOT
TORSDOF 0
ENDMDL
