MODEL 1
REMARK VINA RESULT:   -10.410      0.000      0.000
REMARK INTER + INTRA:         -10.410
REMARK INTER:                 -10.410
REMARK INTRA:                   0.000
REMARK UNBOUND:                 0.000
ROOT
REMARK  Name = nimetazepam
REMARK                            x       y       z     vdW  Elec       q    Type
REMARK                         _______ _______ _______ _____ _____    ______ ____
ATOM      1  C   UNL     1      59.935  63.460  68.118  0.00  0.00    +0.000 C 
ATOM      2  N   UNL     1      60.229  63.134  68.817  0.00  0.00    +0.000 N 
ATOM      3  C   UNL     1      60.299  63.655  69.453  0.00  0.00    +0.000 A 
ATOM      4  C   UNL     1      60.054  64.416  69.249  0.00  0.00    +0.000 A 
ATOM      5  C   UNL     1      60.080  65.022  69.807  0.00  0.00    +0.000 A 
ATOM      6  C   UNL     1      60.352  64.867  70.571  0.00  0.00    +0.000 A 
ATOM      7  C   UNL     1      60.598  64.107  70.776  0.00  0.00    +0.000 A 
ATOM      8  C   UNL     1      60.571  63.500  70.216  0.00  0.00    +0.000 A 
ATOM      9  C   UNL     1      60.839  62.787  70.532  0.00  0.00    +0.000 C 
ATOM     10  N   UNL     1      60.902  62.052  70.164  0.00  0.00    +0.000 NA
ATOM     11  C   UNL     1      60.712  61.849  69.386  0.00  0.00    +0.000 C 
ATOM     12  C   UNL     1      60.412  62.330  68.787  0.00  0.00    +0.000 C 
ATOM     13  O   UNL     1      60.279  61.958  68.063  0.00  0.00    +0.000 OA
ATOM     14  C   UNL     1      61.076  62.813  71.323  0.00  0.00    +0.000 A 
ATOM     15  C   UNL     1      61.036  63.521  71.743  0.00  0.00    +0.000 A 
ATOM     16  C   UNL     1      61.273  63.546  72.532  0.00  0.00    +0.000 A 
ATOM     17  C   UNL     1      61.550  62.863  72.902  0.00  0.00    +0.000 A 
ATOM     18  C   UNL     1      61.591  62.154  72.481  0.00  0.00    +0.000 A 
ATOM     19  C   UNL     1      61.354  62.129  71.692  0.00  0.00    +0.000 A 
ATOM     20  N   UNL     1      60.379  65.473  71.130  0.00  0.00    +0.000 N 
ATOM     21  O   UNL     1      60.133  66.234  70.925  0.00  0.00    +0.000 OA
ATOM     22  O   UNL     1      60.650  65.319  71.892  0.00  0.00    +0.000 OA
ENDROOT
TORSDOF 0
ENDMDL
MODEL 2
REMARK VINA RESULT:   -10.403      0.744      2.727
REMARK INTER + INTRA:         -10.403
REMARK INTER:                 -10.403
REMARK INTRA:                   0.000
REMARK UNBOUND:                 0.000
ROOT
REMARK  Name = nimetazepam
REMARK                            x       y       z     vdW  Elec       q    Type
REMARK                         _______ _______ _______ _____ _____    ______ ____
ATOM      1  C   UNL     1      59.743  65.715  69.465  0.00  0.00    +0.000 C 
ATOM      2  N   UNL     1      60.052  65.331  70.128  0.00  0.00    +0.000 N 
ATOM      3  C   UNL     1      60.224  64.530  70.029  0.00  0.00    +0.000 A 
ATOM      4  C   UNL     1      60.045  64.274  69.266  0.00  0.00    +0.000 A 
ATOM      5  C   UNL     1      60.176  63.489  69.052  0.00  0.00    +0.000 A 
ATOM      6  C   UNL     1      60.487  62.958  69.602  0.00  0.00    +0.000 A 
ATOM      7  C   UNL     1      60.666  63.213  70.366  0.00  0.00    +0.000 A 
ATOM      8  C   UNL     1      60.535  64.000  70.580  0.00  0.00    +0.000 A 
ATOM      9  C   UNL     1      60.750  64.139  71.363  0.00  0.00    +0.000 C 
ATOM     10  N   UNL     1      60.708  64.843  71.791  0.00  0.00    +0.000 NA
ATOM     11  C   UNL     1      60.440  65.582  71.540  0.00  0.00    +0.000 C 
ATOM     12  C   UNL     1      60.148  65.799  70.800  0.00  0.00    +0.000 C 
ATOM     13  O   UNL     1      59.923  66.589  70.722  0.00  0.00    +0.000 OA
ATOM     14  C   UNL     1      61.047  63.487  71.774  0.00  0.00    +0.000 A 
ATOM     15  C   UNL     1      61.112  62.757  71.397  0.00  0.00    +0.000 A 
ATOM     16  C   UNL     1      61.409  62.106  71.808  0.00  0.00    +0.000 A 
ATOM     17  C   UNL     1      61.640  62.186  72.596  0.00  0.00    +0.000 A 
ATOM     18  C   UNL     1      61.575  62.917  72.973  0.00  0.00    +0.000 A 
ATOM     19  C   UNL     1      61.278  63.568  72.562  0.00  0.00    +0.000 A 
ATOM     20  N   UNL     1      60.619  62.172  69.389  0.00  0.00    +0.000 N 
ATOM     21  O   UNL     1      60.439  61.917  68.625  0.00  0.00    +0.000 OA
ATOM     22  O   UNL     1      60.929  61.642  69.939  0.00  0.00    +0.000 OA
ENDROOT
TORSDOF 0
ENDMDL
MODEL 3
REMARK VINA RESULT:   -10.288      1.487      3.479
REMARK INTER + INTRA:         -10.288
REMARK INTER:                 -10.288
REMARK INTRA:                   0.000
REMARK UNBOUND:                 0.000
ROOT
REMARK  Name = nimetazepam
REMARK                            x       y       z     vdW  Elec       q    Type
REMARK                         _______ _______ _______ _____ _____    ______ ____
ATOM      1  C   UNL     1      60.306  65.444  72.753  0.00  0.00    +0.000 C 
ATOM      2  N   UNL     1      60.256  65.052  72.028  0.00  0.00    +0.000 N 
ATOM      3  C   UNL     1      60.575  64.292  72.009  0.00  0.00    +0.000 A 
ATOM      4  C   UNL     1      60.886  64.077  72.743  0.00  0.00    +0.000 A 
ATOM      5  C   UNL     1      61.233  63.335  72.843  0.00  0.00    +0.000 A 
ATOM      6  C   UNL     1      61.268  62.808  72.209  0.00  0.00    +0.000 A 
ATOM      7  C   UNL     1      60.957  63.022  71.476  0.00  0.00    +0.000 A 
ATOM      8  C   UNL     1      60.611  63.765  71.376  0.00  0.00    +0.000 A 
ATOM      9  C   UNL     1      60.336  63.868  70.605  0.00  0.00    +0.000 C 
ATOM     10  N   UNL     1      59.958  64.523  70.277  0.00  0.00    +0.000 NA
ATOM     11  C   UNL     1      59.761  65.238  70.639  0.00  0.00    +0.000 C 
ATOM     12  C   UNL     1      59.894  65.473  71.418  0.00  0.00    +0.000 C 
ATOM     13  O   UNL     1      59.629  66.231  71.613  0.00  0.00    +0.000 OA
ATOM     14  C   UNL     1      60.455  63.230  70.094  0.00  0.00    +0.000 A 
ATOM     15  C   UNL     1      60.828  62.547  70.367  0.00  0.00    +0.000 A 
ATOM     16  C   UNL     1      60.947  61.911  69.857  0.00  0.00    +0.000 A 
ATOM     17  C   UNL     1      60.694  61.956  69.074  0.00  0.00    +0.000 A 
ATOM     18  C   UNL     1      60.320  62.640  68.800  0.00  0.00    +0.000 A 
ATOM     19  C   UNL     1      60.201  63.276  69.311  0.00  0.00    +0.000 A 
ATOM     20  N   UNL     1      61.615  62.066  72.308  0.00  0.00    +0.000 N 
ATOM     21  O   UNL     1      61.926  61.851  73.042  0.00  0.00    +0.000 OA
ATOM     22  O   UNL     1      61.650  61.539  71.676  0.00  0.00    +0.000 OA
ENDROOT
TORSDOF 0
ENDMDL
MODEL 4
REMARK VINA RESULT:   -10.219      1.504      1.544
REMARK INTER + INTRA:         -10.219
REMARK INTER:                 -10.219
REMARK INTRA:                   0.000
REMARK UNBOUND:                 0.000
ROOT
REMARK  Name = nimetazepam
REMARK                            x       y       z     vdW  Elec       q    Type
REMARK                         _______ _______ _______ _____ _____    ______ ____
ATOM      1  C   UNL     1      61.251  63.059  67.793  0.00  0.00    +0.000 C 
ATOM      2  N   UNL     1      61.161  62.917  68.602  0.00  0.00    +0.000 N 
ATOM      3  C   UNL     1      61.574  63.427  69.102  0.00  0.00    +0.000 A 
ATOM      4  C   UNL     1      62.004  63.988  68.675  0.00  0.00    +0.000 A 
ATOM      5  C   UNL     1      62.456  64.551  69.072  0.00  0.00    +0.000 A 
ATOM      6  C   UNL     1      62.480  64.554  69.896  0.00  0.00    +0.000 A 
ATOM      7  C   UNL     1      62.052  63.995  70.324  0.00  0.00    +0.000 A 
ATOM      8  C   UNL     1      61.598  63.430  69.927  0.00  0.00    +0.000 A 
ATOM      9  C   UNL     1      61.215  62.925  70.454  0.00  0.00    +0.000 C 
ATOM     10  N   UNL     1      60.714  62.292  70.288  0.00  0.00    +0.000 NA
ATOM     11  C   UNL     1      60.471  62.007  69.552  0.00  0.00    +0.000 C 
ATOM     12  C   UNL     1      60.670  62.286  68.802  0.00  0.00    +0.000 C 
ATOM     13  O   UNL     1      60.334  61.878  68.168  0.00  0.00    +0.000 OA
ATOM     14  C   UNL     1      61.352  63.073  71.255  0.00  0.00    +0.000 A 
ATOM     15  C   UNL     1      61.846  63.694  71.481  0.00  0.00    +0.000 A 
ATOM     16  C   UNL     1      61.982  63.842  72.281  0.00  0.00    +0.000 A 
ATOM     17  C   UNL     1      61.626  63.369  72.854  0.00  0.00    +0.000 A 
ATOM     18  C   UNL     1      61.132  62.747  72.628  0.00  0.00    +0.000 A 
ATOM     19  C   UNL     1      60.995  62.600  71.829  0.00  0.00    +0.000 A 
ATOM     20  N   UNL     1      62.933  65.118  70.294  0.00  0.00    +0.000 N 
ATOM     21  O   UNL     1      63.362  65.678  69.866  0.00  0.00    +0.000 OA
ATOM     22  O   UNL     1      62.957  65.121  71.117  0.00  0.00    +0.000 OA
ENDROOT
TORSDOF 0
ENDMDL
MODEL 5
REMARK VINA RESULT:   -10.176      2.865      3.410
REMARK INTER + INTRA:         -10.176
REMARK INTER:                 -10.176
REMARK INTRA:                   0.000
REMARK UNBOUND:                 0.000
ROOT
REMARK  Name = nimetazepam
REMARK                            x       y       z     vdW  Elec       q    Type
REMARK                         _______ _______ _______ _____ _____    ______ ____
ATOM      1  C   UNL     1      64.559  66.248  70.165  0.00  0.00    +0.000 C 
ATOM      2  N   UNL     1      64.043  65.639  70.378  0.00  0.00    +0.000 N 
ATOM      3  C   UNL     1      63.530  65.806  71.002  0.00  0.00    +0.000 A 
ATOM      4  C   UNL     1      63.646  66.571  71.291  0.00  0.00    +0.000 A 
ATOM      5  C   UNL     1      63.188  66.849  71.918  0.00  0.00    +0.000 A 
ATOM      6  C   UNL     1      62.614  66.362  72.256  0.00  0.00    +0.000 A 
ATOM      7  C   UNL     1      62.498  65.598  71.969  0.00  0.00    +0.000 A 
ATOM      8  C   UNL     1      62.957  65.320  71.341  0.00  0.00    +0.000 A 
ATOM      9  C   UNL     1      62.754  64.547  71.139  0.00  0.00    +0.000 C 
ATOM     10  N   UNL     1      63.074  64.068  70.548  0.00  0.00    +0.000 NA
ATOM     11  C   UNL     1      63.677  64.246  70.014  0.00  0.00    +0.000 C 
ATOM     12  C   UNL     1      64.108  64.945  69.938  0.00  0.00    +0.000 C 
ATOM     13  O   UNL     1      64.681  64.949  69.343  0.00  0.00    +0.000 OA
ATOM     14  C   UNL     1      62.150  64.206  71.587  0.00  0.00    +0.000 A 
ATOM     15  C   UNL     1      61.792  64.638  72.192  0.00  0.00    +0.000 A 
ATOM     16  C   UNL     1      61.188  64.297  72.639  0.00  0.00    +0.000 A 
ATOM     17  C   UNL     1      60.943  63.526  72.482  0.00  0.00    +0.000 A 
ATOM     18  C   UNL     1      61.301  63.094  71.877  0.00  0.00    +0.000 A 
ATOM     19  C   UNL     1      61.905  63.434  71.430  0.00  0.00    +0.000 A 
ATOM     20  N   UNL     1      62.155  66.640  72.883  0.00  0.00    +0.000 N 
ATOM     21  O   UNL     1      62.271  67.405  73.172  0.00  0.00    +0.000 OA
ATOM     22  O   UNL     1      61.582  66.154  73.222  0.00  0.00    +0.000 OA
ENDROOT
TORSDOF 0
ENDMDL
MODEL 6
REMARK VINA RESULT:   -10.083      1.893      2.581
REMARK INTER + INTRA:         -10.083
REMARK INTER:                 -10.083
REMARK INTRA:                   0.000
REMARK UNBOUND:                 0.000
ROOT
REMARK  Name = nimetazepam
REMARK                            x       y       z     vdW  Elec       q    Type
REMARK                         _______ _______ _______ _____ _____    ______ ____
ATOM      1  C   UNL     1      60.356  61.914  69.087  0.00  0.00    +0.000 C 
ATOM      2  N   UNL     1      60.892  62.541  69.135  0.00  0.00    +0.000 N 
ATOM      3  C   UNL     1      61.124  62.755  69.896  0.00  0.00    +0.000 A 
ATOM      4  C   UNL     1      60.760  62.283  70.467  0.00  0.00    +0.000 A 
ATOM      5  C   UNL     1      60.918  62.407  71.267  0.00  0.00    +0.000 A 
ATOM      6  C   UNL     1      61.441  63.002  71.497  0.00  0.00    +0.000 A 
ATOM      7  C   UNL     1      61.805  63.475  70.927  0.00  0.00    +0.000 A 
ATOM      8  C   UNL     1      61.647  63.350  70.126  0.00  0.00    +0.000 A 
ATOM      9  C   UNL     1      62.065  63.879  69.651  0.00  0.00    +0.000 C 
ATOM     10  N   UNL     1      62.065  63.942  68.829  0.00  0.00    +0.000 NA
ATOM     11  C   UNL     1      61.646  63.492  68.278  0.00  0.00    +0.000 C 
ATOM     12  C   UNL     1      61.124  62.869  68.414  0.00  0.00    +0.000 C 
ATOM     13  O   UNL     1      60.789  62.528  67.741  0.00  0.00    +0.000 OA
ATOM     14  C   UNL     1      62.548  64.415  70.051  0.00  0.00    +0.000 A 
ATOM     15  C   UNL     1      62.589  64.399  70.875  0.00  0.00    +0.000 A 
ATOM     16  C   UNL     1      63.071  64.935  71.274  0.00  0.00    +0.000 A 
ATOM     17  C   UNL     1      63.513  65.487  70.851  0.00  0.00    +0.000 A 
ATOM     18  C   UNL     1      63.473  65.504  70.027  0.00  0.00    +0.000 A 
ATOM     19  C   UNL     1      62.991  64.968  69.627  0.00  0.00    +0.000 A 
ATOM     20  N   UNL     1      61.599  63.127  72.297  0.00  0.00    +0.000 N 
ATOM     21  O   UNL     1      61.235  62.654  72.867  0.00  0.00    +0.000 OA
ATOM     22  O   UNL     1      62.121  63.722  72.526  0.00  0.00    +0.000 OA
ENDROOT
TORSDOF 0
ENDMDL
MODEL 7
REMARK VINA RESULT:   -10.052      2.951      4.353
REMARK INTER + INTRA:         -10.052
REMARK INTER:                 -10.052
REMARK INTRA:                   0.000
REMARK UNBOUND:                 0.000
ROOT
REMARK  Name = nimetazepam
REMARK                            x       y       z     vdW  Elec       q    Type
REMARK                         _______ _______ _______ _____ _____    ______ ____
ATOM      1  C   UNL     1      63.450  67.684  72.125  0.00  0.00    +0.000 C 
ATOM      2  N   UNL     1      62.975  67.023  72.261  0.00  0.00    +0.000 N 
ATOM      3  C   UNL     1      63.136  66.364  71.792  0.00  0.00    +0.000 A 
ATOM      4  C   UNL     1      63.758  66.510  71.270  0.00  0.00    +0.000 A 
ATOM      5  C   UNL     1      64.007  65.921  70.750  0.00  0.00    +0.000 A 
ATOM      6  C   UNL     1      63.635  65.185  70.752  0.00  0.00    +0.000 A 
ATOM      7  C   UNL     1      63.014  65.038  71.274  0.00  0.00    +0.000 A 
ATOM      8  C   UNL     1      62.764  65.628  71.794  0.00  0.00    +0.000 A 
ATOM      9  C   UNL     1      62.139  65.369  72.266  0.00  0.00    +0.000 C 
ATOM     10  N   UNL     1      61.732  65.782  72.852  0.00  0.00    +0.000 NA
ATOM     11  C   UNL     1      61.849  66.557  73.112  0.00  0.00    +0.000 C 
ATOM     12  C   UNL     1      62.402  67.109  72.848  0.00  0.00    +0.000 C 
ATOM     13  O   UNL     1      62.379  67.844  73.222  0.00  0.00    +0.000 OA
ATOM     14  C   UNL     1      61.888  64.593  72.134  0.00  0.00    +0.000 A 
ATOM     15  C   UNL     1      62.259  64.132  71.560  0.00  0.00    +0.000 A 
ATOM     16  C   UNL     1      62.008  63.358  71.428  0.00  0.00    +0.000 A 
ATOM     17  C   UNL     1      61.387  63.044  71.870  0.00  0.00    +0.000 A 
ATOM     18  C   UNL     1      61.016  63.506  72.445  0.00  0.00    +0.000 A 
ATOM     19  C   UNL     1      61.267  64.280  72.577  0.00  0.00    +0.000 A 
ATOM     20  N   UNL     1      63.885  64.595  70.232  0.00  0.00    +0.000 N 
ATOM     21  O   UNL     1      64.507  64.742  69.709  0.00  0.00    +0.000 OA
ATOM     22  O   UNL     1      63.513  63.859  70.234  0.00  0.00    +0.000 OA
ENDROOT
TORSDOF 0
ENDMDL
MODEL 8
REMARK VINA RESULT:    -9.816      4.037      5.207
REMARK INTER + INTRA:          -9.816
REMARK INTER:                  -9.816
REMARK INTRA:                   0.000
REMARK UNBOUND:                 0.000
ROOT
REMARK  Name = nimetazepam
REMARK                            x       y       z     vdW  Elec       q    Type
REMARK                         _______ _______ _______ _____ _____    ______ ____
ATOM      1  C   UNL     1      62.763  68.205  73.070  0.00  0.00    +0.000 C 
ATOM      2  N   UNL     1      62.717  67.492  72.655  0.00  0.00    +0.000 N 
ATOM      3  C   UNL     1      63.384  67.292  72.213  0.00  0.00    +0.000 A 
ATOM      4  C   UNL     1      63.975  67.863  72.282  0.00  0.00    +0.000 A 
ATOM      5  C   UNL     1      64.690  67.768  71.883  0.00  0.00    +0.000 A 
ATOM      6  C   UNL     1      64.815  67.101  71.414  0.00  0.00    +0.000 A 
ATOM      7  C   UNL     1      64.225  66.529  71.344  0.00  0.00    +0.000 A 
ATOM      8  C   UNL     1      63.509  66.624  71.744  0.00  0.00    +0.000 A 
ATOM      9  C   UNL     1      62.997  65.994  71.601  0.00  0.00    +0.000 C 
ATOM     10  N   UNL     1      62.235  65.874  71.891  0.00  0.00    +0.000 NA
ATOM     11  C   UNL     1      61.795  66.356  72.397  0.00  0.00    +0.000 C 
ATOM     12  C   UNL     1      62.010  67.076  72.736  0.00  0.00    +0.000 C 
ATOM     13  O   UNL     1      61.441  67.426  73.222  0.00  0.00    +0.000 OA
ATOM     14  C   UNL     1      63.287  65.404  71.101  0.00  0.00    +0.000 A 
ATOM     15  C   UNL     1      64.044  65.470  70.781  0.00  0.00    +0.000 A 
ATOM     16  C   UNL     1      64.333  64.881  70.282  0.00  0.00    +0.000 A 
ATOM     17  C   UNL     1      63.866  64.226  70.102  0.00  0.00    +0.000 A 
ATOM     18  C   UNL     1      63.108  64.160  70.423  0.00  0.00    +0.000 A 
ATOM     19  C   UNL     1      62.819  64.749  70.922  0.00  0.00    +0.000 A 
ATOM     20  N   UNL     1      65.530  67.005  71.014  0.00  0.00    +0.000 N 
ATOM     21  O   UNL     1      66.121  67.577  71.084  0.00  0.00    +0.000 OA
ATOM     22  O   UNL     1      65.655  66.339  70.546  0.00  0.00    +0.000 OA
ENDROOT
TORSDOF 0
ENDMDL
MODEL 9
REMARK VINA RESULT:    -9.740      3.640      4.649
REMARK INTER + INTRA:          -9.740
REMARK INTER:                  -9.740
REMARK INTRA:                   0.000
REMARK UNBOUND:                 0.000
ROOT
REMARK  Name = nimetazepam
REMARK                            x       y       z     vdW  Elec       q    Type
REMARK                         _______ _______ _______ _____ _____    ______ ____
ATOM      1  C   UNL     1      60.437  66.420  73.158  0.00  0.00    +0.000 C 
ATOM      2  N   UNL     1      61.097  66.150  72.742  0.00  0.00    +0.000 N 
ATOM      3  C   UNL     1      61.734  66.673  72.703  0.00  0.00    +0.000 A 
ATOM      4  C   UNL     1      61.571  67.377  73.101  0.00  0.00    +0.000 A 
ATOM      5  C   UNL     1      62.137  67.976  73.129  0.00  0.00    +0.000 A 
ATOM      6  C   UNL     1      62.867  67.871  72.758  0.00  0.00    +0.000 A 
ATOM      7  C   UNL     1      63.031  67.167  72.360  0.00  0.00    +0.000 A 
ATOM      8  C   UNL     1      62.464  66.568  72.332  0.00  0.00    +0.000 A 
ATOM      9  C   UNL     1      62.736  65.914  71.910  0.00  0.00    +0.000 C 
ATOM     10  N   UNL     1      62.347  65.204  71.752  0.00  0.00    +0.000 NA
ATOM     11  C   UNL     1      61.588  64.972  71.980  0.00  0.00    +0.000 C 
ATOM     12  C   UNL     1      61.032  65.393  72.420  0.00  0.00    +0.000 C 
ATOM     13  O   UNL     1      60.317  65.005  72.556  0.00  0.00    +0.000 OA
ATOM     14  C   UNL     1      63.500  65.980  71.603  0.00  0.00    +0.000 A 
ATOM     15  C   UNL     1      63.937  66.668  71.728  0.00  0.00    +0.000 A 
ATOM     16  C   UNL     1      64.700  66.733  71.422  0.00  0.00    +0.000 A 
ATOM     17  C   UNL     1      65.026  66.110  70.990  0.00  0.00    +0.000 A 
ATOM     18  C   UNL     1      64.588  65.422  70.864  0.00  0.00    +0.000 A 
ATOM     19  C   UNL     1      63.825  65.357  71.171  0.00  0.00    +0.000 A 
ATOM     20  N   UNL     1      63.433  68.470  72.785  0.00  0.00    +0.000 N 
ATOM     21  O   UNL     1      63.270  69.174  73.184  0.00  0.00    +0.000 OA
ATOM     22  O   UNL     1      64.162  68.365  72.415  0.00  0.00    +0.000 OA
ENDROOT
TORSDOF 0
ENDMDL
