MODEL 1
REMARK VINA RESULT:   -12.644      0.000      0.000
REMARK INTER + INTRA:         -12.644
REMARK INTER:                 -12.644
REMARK INTRA:                   0.000
REMARK UNBOUND:                 0.000
ROOT
REMARK  Name = nisoldipine
REMARK                            x       y       z     vdW  Elec       q    Type
REMARK                         _______ _______ _______ _____ _____    ______ ____
ATOM      1  C   UNL     1      63.284  65.524  70.884  0.00  0.00    +0.000 C 
ATOM      2  O   UNL     1      62.902  65.077  70.304  0.00  0.00    +0.000 OA
ATOM      3  C   UNL     1      62.428  64.438  70.521  0.00  0.00    +0.000 C 
ATOM      4  O   UNL     1      62.336  64.245  71.317  0.00  0.00    +0.000 OA
ATOM      5  C   UNL     1      62.047  63.992  69.941  0.00  0.00    +0.000 C 
ATOM      6  C   UNL     1      62.140  64.186  69.145  0.00  0.00    +0.000 C 
ATOM      7  C   UNL     1      62.614  64.825  68.928  0.00  0.00    +0.000 C 
ATOM      8  N   UNL     1      61.759  63.739  68.564  0.00  0.00    +0.000 NA
ATOM      9  C   UNL     1      61.284  63.100  68.781  0.00  0.00    +0.000 C 
ATOM     10  C   UNL     1      61.168  63.022  67.969  0.00  0.00    +0.000 C 
ATOM     11  C   UNL     1      61.192  62.907  69.578  0.00  0.00    +0.000 C 
ATOM     12  C   UNL     1      61.573  63.352  70.157  0.00  0.00    +0.000 C 
ATOM     13  C   UNL     1      61.480  63.160  70.954  0.00  0.00    +0.000 A 
ATOM     14  C   UNL     1      61.006  62.520  71.171  0.00  0.00    +0.000 A 
ATOM     15  C   UNL     1      60.913  62.326  71.968  0.00  0.00    +0.000 A 
ATOM     16  C   UNL     1      61.294  62.772  72.548  0.00  0.00    +0.000 A 
ATOM     17  C   UNL     1      61.768  63.411  72.331  0.00  0.00    +0.000 A 
ATOM     18  C   UNL     1      61.861  63.605  71.534  0.00  0.00    +0.000 A 
ATOM     19  N   UNL     1      60.624  62.073  70.591  0.00  0.00    +0.000 N 
ATOM     20  O   UNL     1      60.150  61.434  70.808  0.00  0.00    +0.000 OA
ATOM     21  O   UNL     1      60.717  62.267  69.794  0.00  0.00    +0.000 OA
ATOM     22  C   UNL     1      60.710  62.304  69.287  0.00  0.00    +0.000 C 
ATOM     23  O   UNL     1      60.212  61.648  69.333  0.00  0.00    +0.000 OA
ATOM     24  O   UNL     1      60.594  62.225  68.473  0.00  0.00    +0.000 OA
ATOM     25  C   UNL     1      60.960  62.750  67.952  0.00  0.00    +0.000 C 
ATOM     26  C   UNL     1      60.843  62.672  67.139  0.00  0.00    +0.000 C 
ATOM     27  C   UNL     1      61.209  63.197  66.618  0.00  0.00    +0.000 C 
ATOM     28  C   UNL     1      60.362  62.069  66.847  0.00  0.00    +0.000 C 
ENDROOT
TORSDOF 0
ENDMDL
MODEL 2
REMARK VINA RESULT:   -12.561      2.560      4.254
REMARK INTER + INTRA:         -12.561
REMARK INTER:                 -12.561
REMARK INTRA:                   0.000
REMARK UNBOUND:                 0.000
ROOT
REMARK  Name = nisoldipine
REMARK                            x       y       z     vdW  Elec       q    Type
REMARK                         _______ _______ _______ _____ _____    ______ ____
ATOM      1  C   UNL     1      62.755  68.201  73.219  0.00  0.00    +0.000 C 
ATOM      2  O   UNL     1      62.526  67.447  72.975  0.00  0.00    +0.000 OA
ATOM      3  C   UNL     1      62.995  67.024  72.443  0.00  0.00    +0.000 C 
ATOM      4  O   UNL     1      63.694  67.356  72.157  0.00  0.00    +0.000 OA
ATOM      5  C   UNL     1      62.765  66.271  72.200  0.00  0.00    +0.000 C 
ATOM      6  C   UNL     1      62.067  65.940  72.487  0.00  0.00    +0.000 C 
ATOM      7  C   UNL     1      61.597  66.362  73.017  0.00  0.00    +0.000 C 
ATOM      8  N   UNL     1      61.837  65.185  72.243  0.00  0.00    +0.000 NA
ATOM      9  C   UNL     1      62.307  64.763  71.711  0.00  0.00    +0.000 C 
ATOM     10  C   UNL     1      61.725  64.184  71.791  0.00  0.00    +0.000 C 
ATOM     11  C   UNL     1      63.006  65.095  71.425  0.00  0.00    +0.000 C 
ATOM     12  C   UNL     1      63.235  65.848  71.669  0.00  0.00    +0.000 C 
ATOM     13  C   UNL     1      63.933  66.180  71.382  0.00  0.00    +0.000 A 
ATOM     14  C   UNL     1      64.403  65.757  70.851  0.00  0.00    +0.000 A 
ATOM     15  C   UNL     1      65.102  66.089  70.564  0.00  0.00    +0.000 A 
ATOM     16  C   UNL     1      65.332  66.843  70.808  0.00  0.00    +0.000 A 
ATOM     17  C   UNL     1      64.862  67.265  71.339  0.00  0.00    +0.000 A 
ATOM     18  C   UNL     1      64.163  66.934  71.626  0.00  0.00    +0.000 A 
ATOM     19  N   UNL     1      64.174  65.003  70.607  0.00  0.00    +0.000 N 
ATOM     20  O   UNL     1      64.643  64.581  70.076  0.00  0.00    +0.000 OA
ATOM     21  O   UNL     1      63.475  64.672  70.894  0.00  0.00    +0.000 OA
ATOM     22  C   UNL     1      63.071  64.385  71.010  0.00  0.00    +0.000 C 
ATOM     23  O   UNL     1      63.418  63.841  70.495  0.00  0.00    +0.000 OA
ATOM     24  O   UNL     1      62.488  63.805  71.090  0.00  0.00    +0.000 OA
ATOM     25  C   UNL     1      61.842  63.937  71.585  0.00  0.00    +0.000 C 
ATOM     26  C   UNL     1      61.259  63.357  71.665  0.00  0.00    +0.000 C 
ATOM     27  C   UNL     1      60.613  63.488  72.160  0.00  0.00    +0.000 C 
ATOM     28  C   UNL     1      61.324  62.647  71.250  0.00  0.00    +0.000 C 
ENDROOT
TORSDOF 0
ENDMDL
MODEL 3
REMARK VINA RESULT:   -12.397      1.668      2.488
REMARK INTER + INTRA:         -12.397
REMARK INTER:                 -12.397
REMARK INTRA:                   0.000
REMARK UNBOUND:                 0.000
ROOT
REMARK  Name = nisoldipine
REMARK                            x       y       z     vdW  Elec       q    Type
REMARK                         _______ _______ _______ _____ _____    ______ ____
ATOM      1  C   UNL     1      61.905  62.007  73.221  0.00  0.00    +0.000 C 
ATOM      2  O   UNL     1      61.663  62.080  72.436  0.00  0.00    +0.000 OA
ATOM      3  C   UNL     1      61.297  62.774  72.179  0.00  0.00    +0.000 C 
ATOM      4  O   UNL     1      61.172  63.394  72.708  0.00  0.00    +0.000 OA
ATOM      5  C   UNL     1      61.055  62.845  71.394  0.00  0.00    +0.000 C 
ATOM      6  C   UNL     1      61.181  62.225  70.865  0.00  0.00    +0.000 C 
ATOM      7  C   UNL     1      61.547  61.532  71.121  0.00  0.00    +0.000 C 
ATOM      8  N   UNL     1      60.939  62.297  70.079  0.00  0.00    +0.000 NA
ATOM      9  C   UNL     1      60.572  62.991  69.822  0.00  0.00    +0.000 C 
ATOM     10  C   UNL     1      60.544  62.604  69.095  0.00  0.00    +0.000 C 
ATOM     11  C   UNL     1      60.447  63.611  70.352  0.00  0.00    +0.000 C 
ATOM     12  C   UNL     1      60.689  63.539  71.136  0.00  0.00    +0.000 C 
ATOM     13  C   UNL     1      60.564  64.159  71.666  0.00  0.00    +0.000 A 
ATOM     14  C   UNL     1      60.197  64.852  71.409  0.00  0.00    +0.000 A 
ATOM     15  C   UNL     1      60.072  65.473  71.938  0.00  0.00    +0.000 A 
ATOM     16  C   UNL     1      60.314  65.401  72.724  0.00  0.00    +0.000 A 
ATOM     17  C   UNL     1      60.680  64.708  72.980  0.00  0.00    +0.000 A 
ATOM     18  C   UNL     1      60.805  64.087  72.451  0.00  0.00    +0.000 A 
ATOM     19  N   UNL     1      59.956  64.925  70.623  0.00  0.00    +0.000 N 
ATOM     20  O   UNL     1      59.589  65.618  70.367  0.00  0.00    +0.000 OA
ATOM     21  O   UNL     1      60.081  64.304  70.094  0.00  0.00    +0.000 OA
ATOM     22  C   UNL     1      60.112  63.986  69.698  0.00  0.00    +0.000 C 
ATOM     23  O   UNL     1      59.739  64.598  69.289  0.00  0.00    +0.000 OA
ATOM     24  O   UNL     1      60.083  63.599  68.969  0.00  0.00    +0.000 OA
ATOM     25  C   UNL     1      60.391  62.837  68.896  0.00  0.00    +0.000 C 
ATOM     26  C   UNL     1      60.362  62.449  68.167  0.00  0.00    +0.000 C 
ATOM     27  C   UNL     1      60.670  61.688  68.094  0.00  0.00    +0.000 C 
ATOM     28  C   UNL     1      60.026  62.824  67.514  0.00  0.00    +0.000 C 
ENDROOT
TORSDOF 0
ENDMDL
MODEL 4
REMARK VINA RESULT:   -12.282      2.078      3.327
REMARK INTER + INTRA:         -12.282
REMARK INTER:                 -12.282
REMARK INTRA:                   0.000
REMARK UNBOUND:                 0.000
ROOT
REMARK  Name = nisoldipine
REMARK                            x       y       z     vdW  Elec       q    Type
REMARK                         _______ _______ _______ _____ _____    ______ ____
ATOM      1  C   UNL     1      60.595  61.803  68.441  0.00  0.00    +0.000 C 
ATOM      2  O   UNL     1      60.438  62.572  68.695  0.00  0.00    +0.000 OA
ATOM      3  C   UNL     1      60.573  62.784  69.481  0.00  0.00    +0.000 C 
ATOM      4  O   UNL     1      60.867  62.226  70.013  0.00  0.00    +0.000 OA
ATOM      5  C   UNL     1      60.416  63.553  69.734  0.00  0.00    +0.000 C 
ATOM      6  C   UNL     1      60.122  64.110  69.201  0.00  0.00    +0.000 C 
ATOM      7  C   UNL     1      59.987  63.899  68.416  0.00  0.00    +0.000 C 
ATOM      8  N   UNL     1      59.965  64.880  69.455  0.00  0.00    +0.000 NA
ATOM      9  C   UNL     1      60.100  65.092  70.241  0.00  0.00    +0.000 C 
ATOM     10  C   UNL     1      59.827  65.831  69.998  0.00  0.00    +0.000 C 
ATOM     11  C   UNL     1      60.394  64.533  70.773  0.00  0.00    +0.000 C 
ATOM     12  C   UNL     1      60.551  63.765  70.520  0.00  0.00    +0.000 C 
ATOM     13  C   UNL     1      60.845  63.207  71.052  0.00  0.00    +0.000 A 
ATOM     14  C   UNL     1      60.980  63.419  71.838  0.00  0.00    +0.000 A 
ATOM     15  C   UNL     1      61.274  62.861  72.371  0.00  0.00    +0.000 A 
ATOM     16  C   UNL     1      61.432  62.091  72.118  0.00  0.00    +0.000 A 
ATOM     17  C   UNL     1      61.296  61.880  71.332  0.00  0.00    +0.000 A 
ATOM     18  C   UNL     1      61.002  62.438  70.799  0.00  0.00    +0.000 A 
ATOM     19  N   UNL     1      60.823  64.188  72.092  0.00  0.00    +0.000 N 
ATOM     20  O   UNL     1      60.959  64.399  72.877  0.00  0.00    +0.000 OA
ATOM     21  O   UNL     1      60.529  64.746  71.559  0.00  0.00    +0.000 OA
ATOM     22  C   UNL     1      60.351  65.155  71.314  0.00  0.00    +0.000 C 
ATOM     23  O   UNL     1      60.429  65.521  72.049  0.00  0.00    +0.000 OA
ATOM     24  O   UNL     1      60.077  65.895  71.072  0.00  0.00    +0.000 OA
ATOM     25  C   UNL     1      59.848  66.013  70.288  0.00  0.00    +0.000 C 
ATOM     26  C   UNL     1      59.574  66.753  70.046  0.00  0.00    +0.000 C 
ATOM     27  C   UNL     1      59.345  66.871  69.262  0.00  0.00    +0.000 C 
ATOM     28  C   UNL     1      59.531  67.375  70.587  0.00  0.00    +0.000 C 
ENDROOT
TORSDOF 0
ENDMDL
MODEL 5
REMARK VINA RESULT:   -12.086      2.622      4.374
REMARK INTER + INTRA:         -12.086
REMARK INTER:                 -12.086
REMARK INTRA:                   0.000
REMARK UNBOUND:                 0.000
ROOT
REMARK  Name = nisoldipine
REMARK                            x       y       z     vdW  Elec       q    Type
REMARK                         _______ _______ _______ _____ _____    ______ ____
ATOM      1  C   UNL     1      59.647  66.879  73.222  0.00  0.00    +0.000 C 
ATOM      2  O   UNL     1      60.426  66.870  72.949  0.00  0.00    +0.000 OA
ATOM      3  C   UNL     1      60.731  66.192  72.591  0.00  0.00    +0.000 C 
ATOM      4  O   UNL     1      60.256  65.523  72.507  0.00  0.00    +0.000 OA
ATOM      5  C   UNL     1      61.509  66.184  72.319  0.00  0.00    +0.000 C 
ATOM      6  C   UNL     1      61.982  66.854  72.404  0.00  0.00    +0.000 C 
ATOM      7  C   UNL     1      61.678  67.532  72.762  0.00  0.00    +0.000 C 
ATOM      8  N   UNL     1      62.762  66.846  72.132  0.00  0.00    +0.000 NA
ATOM      9  C   UNL     1      63.067  66.168  71.774  0.00  0.00    +0.000 C 
ATOM     10  C   UNL     1      63.753  66.618  71.703  0.00  0.00    +0.000 C 
ATOM     11  C   UNL     1      62.592  65.498  71.689  0.00  0.00    +0.000 C 
ATOM     12  C   UNL     1      61.814  65.506  71.961  0.00  0.00    +0.000 C 
ATOM     13  C   UNL     1      61.340  64.837  71.876  0.00  0.00    +0.000 A 
ATOM     14  C   UNL     1      61.645  64.158  71.519  0.00  0.00    +0.000 A 
ATOM     15  C   UNL     1      61.171  63.488  71.433  0.00  0.00    +0.000 A 
ATOM     16  C   UNL     1      60.392  63.496  71.706  0.00  0.00    +0.000 A 
ATOM     17  C   UNL     1      60.088  64.174  72.063  0.00  0.00    +0.000 A 
ATOM     18  C   UNL     1      60.562  64.844  72.149  0.00  0.00    +0.000 A 
ATOM     19  N   UNL     1      62.424  64.150  71.246  0.00  0.00    +0.000 N 
ATOM     20  O   UNL     1      62.728  63.472  70.888  0.00  0.00    +0.000 OA
ATOM     21  O   UNL     1      62.898  64.820  71.331  0.00  0.00    +0.000 OA
ATOM     22  C   UNL     1      63.263  65.174  71.336  0.00  0.00    +0.000 C 
ATOM     23  O   UNL     1      63.712  64.590  70.963  0.00  0.00    +0.000 OA
ATOM     24  O   UNL     1      63.951  65.625  71.265  0.00  0.00    +0.000 OA
ATOM     25  C   UNL     1      63.967  66.399  71.548  0.00  0.00    +0.000 C 
ATOM     26  C   UNL     1      64.655  66.850  71.478  0.00  0.00    +0.000 C 
ATOM     27  C   UNL     1      64.670  67.625  71.761  0.00  0.00    +0.000 C 
ATOM     28  C   UNL     1      65.326  66.526  71.125  0.00  0.00    +0.000 C 
ENDROOT
TORSDOF 0
ENDMDL
MODEL 6
REMARK VINA RESULT:   -12.069      2.774      4.506
REMARK INTER + INTRA:         -12.069
REMARK INTER:                 -12.069
REMARK INTRA:                   0.000
REMARK UNBOUND:                 0.000
ROOT
REMARK  Name = nisoldipine
REMARK                            x       y       z     vdW  Elec       q    Type
REMARK                         _______ _______ _______ _____ _____    ______ ____
ATOM      1  C   UNL     1      65.816  67.277  71.078  0.00  0.00    +0.000 C 
ATOM      2  O   UNL     1      65.205  66.723  71.114  0.00  0.00    +0.000 OA
ATOM      3  C   UNL     1      64.513  66.898  71.529  0.00  0.00    +0.000 C 
ATOM      4  O   UNL     1      64.432  67.626  71.907  0.00  0.00    +0.000 OA
ATOM      5  C   UNL     1      63.903  66.344  71.565  0.00  0.00    +0.000 C 
ATOM      6  C   UNL     1      63.985  65.615  71.187  0.00  0.00    +0.000 C 
ATOM      7  C   UNL     1      64.676  65.440  70.773  0.00  0.00    +0.000 C 
ATOM      8  N   UNL     1      63.374  65.061  71.223  0.00  0.00    +0.000 NA
ATOM      9  C   UNL     1      62.682  65.236  71.638  0.00  0.00    +0.000 C 
ATOM     10  C   UNL     1      62.451  64.482  71.398  0.00  0.00    +0.000 C 
ATOM     11  C   UNL     1      62.601  65.965  72.016  0.00  0.00    +0.000 C 
ATOM     12  C   UNL     1      63.211  66.519  71.979  0.00  0.00    +0.000 C 
ATOM     13  C   UNL     1      63.131  67.247  72.357  0.00  0.00    +0.000 A 
ATOM     14  C   UNL     1      62.438  67.422  72.771  0.00  0.00    +0.000 A 
ATOM     15  C   UNL     1      62.357  68.151  73.150  0.00  0.00    +0.000 A 
ATOM     16  C   UNL     1      62.967  68.706  73.114  0.00  0.00    +0.000 A 
ATOM     17  C   UNL     1      63.659  68.530  72.699  0.00  0.00    +0.000 A 
ATOM     18  C   UNL     1      63.740  67.801  72.321  0.00  0.00    +0.000 A 
ATOM     19  N   UNL     1      61.828  66.868  72.808  0.00  0.00    +0.000 N 
ATOM     20  O   UNL     1      61.136  67.044  73.222  0.00  0.00    +0.000 OA
ATOM     21  O   UNL     1      61.909  66.139  72.430  0.00  0.00    +0.000 OA
ATOM     22  C   UNL     1      61.862  65.672  72.235  0.00  0.00    +0.000 C 
ATOM     23  O   UNL     1      61.122  65.688  72.599  0.00  0.00    +0.000 OA
ATOM     24  O   UNL     1      61.630  64.916  71.995  0.00  0.00    +0.000 OA
ATOM     25  C   UNL     1      62.138  64.456  71.537  0.00  0.00    +0.000 C 
ATOM     26  C   UNL     1      61.907  63.700  71.297  0.00  0.00    +0.000 C 
ATOM     27  C   UNL     1      62.415  63.240  70.839  0.00  0.00    +0.000 C 
ATOM     28  C   UNL     1      61.168  63.407  71.516  0.00  0.00    +0.000 C 
ENDROOT
TORSDOF 0
ENDMDL
MODEL 7
REMARK VINA RESULT:   -11.973      1.633      3.868
REMARK INTER + INTRA:         -11.973
REMARK INTER:                 -11.973
REMARK INTRA:                   0.000
REMARK UNBOUND:                 0.000
ROOT
REMARK  Name = nisoldipine
REMARK                            x       y       z     vdW  Elec       q    Type
REMARK                         _______ _______ _______ _____ _____    ______ ____
ATOM      1  C   UNL     1      60.880  62.768  69.198  0.00  0.00    +0.000 C 
ATOM      2  O   UNL     1      61.470  63.311  69.393  0.00  0.00    +0.000 OA
ATOM      3  C   UNL     1      61.448  63.701  70.120  0.00  0.00    +0.000 C 
ATOM      4  O   UNL     1      60.836  63.548  70.651  0.00  0.00    +0.000 OA
ATOM      5  C   UNL     1      62.038  64.243  70.315  0.00  0.00    +0.000 C 
ATOM      6  C   UNL     1      62.650  64.395  69.784  0.00  0.00    +0.000 C 
ATOM      7  C   UNL     1      62.672  64.006  69.057  0.00  0.00    +0.000 C 
ATOM      8  N   UNL     1      63.241  64.938  69.979  0.00  0.00    +0.000 NA
ATOM      9  C   UNL     1      63.219  65.328  70.706  0.00  0.00    +0.000 C 
ATOM     10  C   UNL     1      63.911  65.686  70.437  0.00  0.00    +0.000 C 
ATOM     11  C   UNL     1      62.606  65.175  71.237  0.00  0.00    +0.000 C 
ATOM     12  C   UNL     1      62.016  64.633  71.042  0.00  0.00    +0.000 C 
ATOM     13  C   UNL     1      61.404  64.480  71.573  0.00  0.00    +0.000 A 
ATOM     14  C   UNL     1      61.382  64.870  72.300  0.00  0.00    +0.000 A 
ATOM     15  C   UNL     1      60.770  64.718  72.832  0.00  0.00    +0.000 A 
ATOM     16  C   UNL     1      60.179  64.175  72.637  0.00  0.00    +0.000 A 
ATOM     17  C   UNL     1      60.201  63.786  71.910  0.00  0.00    +0.000 A 
ATOM     18  C   UNL     1      60.814  63.938  71.378  0.00  0.00    +0.000 A 
ATOM     19  N   UNL     1      61.972  65.413  72.496  0.00  0.00    +0.000 N 
ATOM     20  O   UNL     1      61.950  65.802  73.222  0.00  0.00    +0.000 OA
ATOM     21  O   UNL     1      62.585  65.565  71.964  0.00  0.00    +0.000 OA
ATOM     22  C   UNL     1      62.996  65.726  71.711  0.00  0.00    +0.000 C 
ATOM     23  O   UNL     1      63.119  66.191  72.382  0.00  0.00    +0.000 OA
ATOM     24  O   UNL     1      63.689  66.085  71.442  0.00  0.00    +0.000 OA
ATOM     25  C   UNL     1      63.991  65.892  70.699  0.00  0.00    +0.000 C 
ATOM     26  C   UNL     1      64.685  66.250  70.430  0.00  0.00    +0.000 C 
ATOM     27  C   UNL     1      64.987  66.057  69.687  0.00  0.00    +0.000 C 
ATOM     28  C   UNL     1      65.075  66.801  70.904  0.00  0.00    +0.000 C 
ENDROOT
TORSDOF 0
ENDMDL
MODEL 8
REMARK VINA RESULT:   -11.875      2.532      4.132
REMARK INTER + INTRA:         -11.875
REMARK INTER:                 -11.875
REMARK INTRA:                   0.000
REMARK UNBOUND:                 0.000
ROOT
REMARK  Name = nisoldipine
REMARK                            x       y       z     vdW  Elec       q    Type
REMARK                         _______ _______ _______ _____ _____    ______ ____
ATOM      1  C   UNL     1      58.781  67.056  73.222  0.00  0.00    +0.000 C 
ATOM      2  O   UNL     1      59.114  66.363  72.922  0.00  0.00    +0.000 OA
ATOM      3  C   UNL     1      59.921  66.332  72.752  0.00  0.00    +0.000 C 
ATOM      4  O   UNL     1      60.395  66.994  72.883  0.00  0.00    +0.000 OA
ATOM      5  C   UNL     1      60.253  65.639  72.452  0.00  0.00    +0.000 C 
ATOM      6  C   UNL     1      59.778  64.977  72.322  0.00  0.00    +0.000 C 
ATOM      7  C   UNL     1      58.972  65.008  72.492  0.00  0.00    +0.000 C 
ATOM      8  N   UNL     1      60.110  64.284  72.021  0.00  0.00    +0.000 NA
ATOM      9  C   UNL     1      60.917  64.253  71.851  0.00  0.00    +0.000 C 
ATOM     10  C   UNL     1      60.751  63.479  71.622  0.00  0.00    +0.000 C 
ATOM     11  C   UNL     1      61.392  64.916  71.982  0.00  0.00    +0.000 C 
ATOM     12  C   UNL     1      61.060  65.608  72.282  0.00  0.00    +0.000 C 
ATOM     13  C   UNL     1      61.533  66.270  72.412  0.00  0.00    +0.000 A 
ATOM     14  C   UNL     1      62.341  66.239  72.242  0.00  0.00    +0.000 A 
ATOM     15  C   UNL     1      62.816  66.901  72.372  0.00  0.00    +0.000 A 
ATOM     16  C   UNL     1      62.484  67.595  72.673  0.00  0.00    +0.000 A 
ATOM     17  C   UNL     1      61.677  67.625  72.843  0.00  0.00    +0.000 A 
ATOM     18  C   UNL     1      61.202  66.963  72.712  0.00  0.00    +0.000 A 
ATOM     19  N   UNL     1      62.673  65.546  71.942  0.00  0.00    +0.000 N 
ATOM     20  O   UNL     1      63.480  65.516  71.772  0.00  0.00    +0.000 OA
ATOM     21  O   UNL     1      62.198  64.884  71.812  0.00  0.00    +0.000 OA
ATOM     22  C   UNL     1      61.996  64.431  71.698  0.00  0.00    +0.000 C 
ATOM     23  O   UNL     1      62.768  64.238  71.480  0.00  0.00    +0.000 OA
ATOM     24  O   UNL     1      61.830  63.655  71.469  0.00  0.00    +0.000 OA
ATOM     25  C   UNL     1      61.059  63.366  71.523  0.00  0.00    +0.000 C 
ATOM     26  C   UNL     1      60.893  62.590  71.293  0.00  0.00    +0.000 C 
ATOM     27  C   UNL     1      60.123  62.301  71.348  0.00  0.00    +0.000 C 
ATOM     28  C   UNL     1      61.498  62.106  71.010  0.00  0.00    +0.000 C 
ENDROOT
TORSDOF 0
ENDMDL
MODEL 9
REMARK VINA RESULT:   -11.806      2.369      3.787
REMARK INTER + INTRA:         -11.806
REMARK INTER:                 -11.806
REMARK INTRA:                   0.000
REMARK UNBOUND:                 0.000
ROOT
REMARK  Name = nisoldipine
REMARK                            x       y       z     vdW  Elec       q    Type
REMARK                         _______ _______ _______ _____ _____    ______ ____
ATOM      1  C   UNL     1      62.049  67.974  72.448  0.00  0.00    +0.000 C 
ATOM      2  O   UNL     1      61.918  67.161  72.385  0.00  0.00    +0.000 OA
ATOM      3  C   UNL     1      61.490  66.859  71.748  0.00  0.00    +0.000 C 
ATOM      4  O   UNL     1      61.192  67.370  71.173  0.00  0.00    +0.000 OA
ATOM      5  C   UNL     1      61.360  66.047  71.686  0.00  0.00    +0.000 C 
ATOM      6  C   UNL     1      61.658  65.537  72.262  0.00  0.00    +0.000 C 
ATOM      7  C   UNL     1      62.086  65.838  72.899  0.00  0.00    +0.000 C 
ATOM      8  N   UNL     1      61.528  64.724  72.200  0.00  0.00    +0.000 NA
ATOM      9  C   UNL     1      61.099  64.422  71.562  0.00  0.00    +0.000 C 
ATOM     10  C   UNL     1      61.240  63.695  71.924  0.00  0.00    +0.000 C 
ATOM     11  C   UNL     1      60.801  64.934  70.987  0.00  0.00    +0.000 C 
ATOM     12  C   UNL     1      60.931  65.745  71.049  0.00  0.00    +0.000 C 
ATOM     13  C   UNL     1      60.634  66.256  70.474  0.00  0.00    +0.000 A 
ATOM     14  C   UNL     1      60.205  65.954  69.836  0.00  0.00    +0.000 A 
ATOM     15  C   UNL     1      59.907  66.465  69.261  0.00  0.00    +0.000 A 
ATOM     16  C   UNL     1      60.037  67.277  69.322  0.00  0.00    +0.000 A 
ATOM     17  C   UNL     1      60.465  67.579  69.960  0.00  0.00    +0.000 A 
ATOM     18  C   UNL     1      60.764  67.068  70.535  0.00  0.00    +0.000 A 
ATOM     19  N   UNL     1      60.075  65.142  69.774  0.00  0.00    +0.000 N 
ATOM     20  O   UNL     1      59.647  64.840  69.137  0.00  0.00    +0.000 OA
ATOM     21  O   UNL     1      60.373  64.631  70.350  0.00  0.00    +0.000 OA
ATOM     22  C   UNL     1      60.512  64.241  70.645  0.00  0.00    +0.000 C 
ATOM     23  O   UNL     1      60.113  63.786  70.084  0.00  0.00    +0.000 OA
ATOM     24  O   UNL     1      60.653  63.512  71.007  0.00  0.00    +0.000 OA
ATOM     25  C   UNL     1      61.083  63.478  71.710  0.00  0.00    +0.000 C 
ATOM     26  C   UNL     1      61.225  62.749  72.071  0.00  0.00    +0.000 C 
ATOM     27  C   UNL     1      61.655  62.714  72.774  0.00  0.00    +0.000 C 
ATOM     28  C   UNL     1      60.935  62.056  71.730  0.00  0.00    +0.000 C 
ENDROOT
TORSDOF 0
ENDMDL
