MODEL 1
REMARK VINA RESULT:   -10.626      0.000      0.000
REMARK INTER + INTRA:         -10.626
REMARK INTER:                 -10.626
REMARK INTRA:                   0.000
REMARK UNBOUND:                 0.000
ROOT
REMARK  Name = nitazoxanide
REMARK                            x       y       z     vdW  Elec       q    Type
REMARK                         _______ _______ _______ _____ _____    ______ ____
ATOM      1  C   UNL     1      62.552  62.029  64.960  0.00  0.00    +0.000 C 
ATOM      2  C   UNL     1      61.760  61.979  65.183  0.00  0.00    +0.000 C 
ATOM      3  O   UNL     1      61.211  61.628  64.677  0.00  0.00    +0.000 OA
ATOM      4  O   UNL     1      61.516  62.279  65.912  0.00  0.00    +0.000 OA
ATOM      5  C   UNL     1      60.724  62.228  66.135  0.00  0.00    +0.000 A 
ATOM      6  C   UNL     1      60.480  62.528  66.864  0.00  0.00    +0.000 A 
ATOM      7  C   UNL     1      59.688  62.478  67.087  0.00  0.00    +0.000 A 
ATOM      8  C   UNL     1      59.139  62.127  66.581  0.00  0.00    +0.000 A 
ATOM      9  C   UNL     1      59.382  61.827  65.852  0.00  0.00    +0.000 A 
ATOM     10  C   UNL     1      60.175  61.878  65.629  0.00  0.00    +0.000 A 
ATOM     11  C   UNL     1      61.030  62.879  67.370  0.00  0.00    +0.000 C 
ATOM     12  O   UNL     1      61.823  62.929  67.147  0.00  0.00    +0.000 OA
ATOM     13  N   UNL     1      60.787  63.179  68.099  0.00  0.00    +0.000 NA
ATOM     14  C   UNL     1      61.336  63.529  68.605  0.00  0.00    +0.000 A 
ATOM     15  N   UNL     1      62.142  63.618  68.458  0.00  0.00    +0.000 NA
ATOM     16  C   UNL     1      62.480  63.996  69.109  0.00  0.00    +0.000 A 
ATOM     17  C   UNL     1      61.882  64.140  69.658  0.00  0.00    +0.000 A 
ATOM     18  S   UNL     1      61.174  63.851  69.347  0.00  0.00    +0.000 S 
ATOM     19  N   UNL     1      61.975  64.509  70.391  0.00  0.00    +0.000 N 
ATOM     20  O   UNL     1      62.720  64.770  70.629  0.00  0.00    +0.000 OA
ATOM     21  O   UNL     1      61.323  64.615  70.884  0.00  0.00    +0.000 OA
ENDROOT
TORSDOF 0
ENDMDL
MODEL 2
REMARK VINA RESULT:   -10.338      1.843      4.372
REMARK INTER + INTRA:         -10.338
REMARK INTER:                 -10.338
REMARK INTRA:                   0.000
REMARK UNBOUND:                 0.000
ROOT
REMARK  Name = nitazoxanide
REMARK                            x       y       z     vdW  Elec       q    Type
REMARK                         _______ _______ _______ _____ _____    ______ ____
ATOM      1  C   UNL     1      62.805  64.691  69.129  0.00  0.00    +0.000 C 
ATOM      2  C   UNL     1      62.233  64.123  69.305  0.00  0.00    +0.000 C 
ATOM      3  O   UNL     1      61.930  64.067  70.070  0.00  0.00    +0.000 OA
ATOM      4  O   UNL     1      61.964  63.612  68.717  0.00  0.00    +0.000 OA
ATOM      5  C   UNL     1      61.392  63.045  68.892  0.00  0.00    +0.000 A 
ATOM      6  C   UNL     1      61.123  62.533  68.304  0.00  0.00    +0.000 A 
ATOM      7  C   UNL     1      60.551  61.966  68.479  0.00  0.00    +0.000 A 
ATOM      8  C   UNL     1      60.247  61.910  69.245  0.00  0.00    +0.000 A 
ATOM      9  C   UNL     1      60.516  62.420  69.834  0.00  0.00    +0.000 A 
ATOM     10  C   UNL     1      61.089  62.988  69.657  0.00  0.00    +0.000 A 
ATOM     11  C   UNL     1      61.426  62.589  67.539  0.00  0.00    +0.000 C 
ATOM     12  O   UNL     1      61.999  63.157  67.362  0.00  0.00    +0.000 OA
ATOM     13  N   UNL     1      61.157  62.078  66.949  0.00  0.00    +0.000 NA
ATOM     14  C   UNL     1      61.461  62.135  66.184  0.00  0.00    +0.000 A 
ATOM     15  N   UNL     1      62.031  62.671  65.928  0.00  0.00    +0.000 NA
ATOM     16  C   UNL     1      62.170  62.532  65.126  0.00  0.00    +0.000 A 
ATOM     17  C   UNL     1      61.684  61.909  64.888  0.00  0.00    +0.000 A 
ATOM     18  S   UNL     1      61.246  61.663  65.542  0.00  0.00    +0.000 S 
ATOM     19  N   UNL     1      61.645  61.589  64.128  0.00  0.00    +0.000 N 
ATOM     20  O   UNL     1      62.119  61.894  63.527  0.00  0.00    +0.000 OA
ATOM     21  O   UNL     1      61.130  60.964  63.972  0.00  0.00    +0.000 OA
ENDROOT
TORSDOF 0
ENDMDL
MODEL 3
REMARK VINA RESULT:   -10.046      1.930      4.542
REMARK INTER + INTRA:         -10.046
REMARK INTER:                 -10.046
REMARK INTRA:                   0.000
REMARK UNBOUND:                 0.000
ROOT
REMARK  Name = nitazoxanide
REMARK                            x       y       z     vdW  Elec       q    Type
REMARK                         _______ _______ _______ _____ _____    ______ ____
ATOM      1  C   UNL     1      59.785  65.472  70.191  0.00  0.00    +0.000 C 
ATOM      2  C   UNL     1      59.901  64.708  70.477  0.00  0.00    +0.000 C 
ATOM      3  O   UNL     1      59.765  64.540  71.273  0.00  0.00    +0.000 OA
ATOM      4  O   UNL     1      60.155  64.109  69.968  0.00  0.00    +0.000 OA
ATOM      5  C   UNL     1      60.272  63.345  70.255  0.00  0.00    +0.000 A 
ATOM      6  C   UNL     1      60.525  62.747  69.746  0.00  0.00    +0.000 A 
ATOM      7  C   UNL     1      60.642  61.983  70.032  0.00  0.00    +0.000 A 
ATOM      8  C   UNL     1      60.505  61.816  70.828  0.00  0.00    +0.000 A 
ATOM      9  C   UNL     1      60.252  62.413  71.338  0.00  0.00    +0.000 A 
ATOM     10  C   UNL     1      60.135  63.178  71.051  0.00  0.00    +0.000 A 
ATOM     11  C   UNL     1      60.661  62.914  68.949  0.00  0.00    +0.000 C 
ATOM     12  O   UNL     1      60.544  63.680  68.662  0.00  0.00    +0.000 OA
ATOM     13  N   UNL     1      60.915  62.318  68.440  0.00  0.00    +0.000 NA
ATOM     14  C   UNL     1      61.051  62.485  67.643  0.00  0.00    +0.000 A 
ATOM     15  N   UNL     1      60.958  63.219  67.280  0.00  0.00    +0.000 NA
ATOM     16  C   UNL     1      61.154  63.135  66.483  0.00  0.00    +0.000 A 
ATOM     17  C   UNL     1      61.368  62.348  66.354  0.00  0.00    +0.000 A 
ATOM     18  S   UNL     1      61.304  61.946  67.072  0.00  0.00    +0.000 S 
ATOM     19  N   UNL     1      61.604  62.021  65.634  0.00  0.00    +0.000 N 
ATOM     20  O   UNL     1      61.642  62.494  64.960  0.00  0.00    +0.000 OA
ATOM     21  O   UNL     1      61.802  61.222  65.590  0.00  0.00    +0.000 OA
ENDROOT
TORSDOF 0
ENDMDL
MODEL 4
REMARK VINA RESULT:    -9.866      2.752      3.909
REMARK INTER + INTRA:          -9.866
REMARK INTER:                  -9.866
REMARK INTRA:                   0.000
REMARK UNBOUND:                 0.000
ROOT
REMARK  Name = nitazoxanide
REMARK                            x       y       z     vdW  Elec       q    Type
REMARK                         _______ _______ _______ _____ _____    ______ ____
ATOM      1  C   UNL     1      60.690  63.077  67.667  0.00  0.00    +0.000 C 
ATOM      2  C   UNL     1      60.664  62.716  68.407  0.00  0.00    +0.000 C 
ATOM      3  O   UNL     1      60.834  61.912  68.481  0.00  0.00    +0.000 OA
ATOM      4  O   UNL     1      60.468  63.158  69.076  0.00  0.00    +0.000 OA
ATOM      5  C   UNL     1      60.442  62.797  69.817  0.00  0.00    +0.000 A 
ATOM      6  C   UNL     1      60.246  63.240  70.485  0.00  0.00    +0.000 A 
ATOM      7  C   UNL     1      60.220  62.879  71.226  0.00  0.00    +0.000 A 
ATOM      8  C   UNL     1      60.390  62.075  71.299  0.00  0.00    +0.000 A 
ATOM      9  C   UNL     1      60.586  61.632  70.632  0.00  0.00    +0.000 A 
ATOM     10  C   UNL     1      60.612  61.994  69.890  0.00  0.00    +0.000 A 
ATOM     11  C   UNL     1      60.076  64.044  70.412  0.00  0.00    +0.000 C 
ATOM     12  O   UNL     1      60.102  64.405  69.670  0.00  0.00    +0.000 OA
ATOM     13  N   UNL     1      59.880  64.487  71.079  0.00  0.00    +0.000 NA
ATOM     14  C   UNL     1      59.710  65.291  71.006  0.00  0.00    +0.000 A 
ATOM     15  N   UNL     1      59.713  65.724  70.305  0.00  0.00    +0.000 NA
ATOM     16  C   UNL     1      59.512  66.504  70.487  0.00  0.00    +0.000 A 
ATOM     17  C   UNL     1      59.384  66.551  71.301  0.00  0.00    +0.000 A 
ATOM     18  S   UNL     1      59.506  65.801  71.622  0.00  0.00    +0.000 S 
ATOM     19  N   UNL     1      59.171  67.230  71.720  0.00  0.00    +0.000 N 
ATOM     20  O   UNL     1      59.068  67.944  71.321  0.00  0.00    +0.000 OA
ATOM     21  O   UNL     1      59.061  67.192  72.536  0.00  0.00    +0.000 OA
ENDROOT
TORSDOF 0
ENDMDL
MODEL 5
REMARK VINA RESULT:    -9.689      2.972      4.425
REMARK INTER + INTRA:          -9.689
REMARK INTER:                  -9.689
REMARK INTRA:                   0.000
REMARK UNBOUND:                 0.000
ROOT
REMARK  Name = nitazoxanide
REMARK                            x       y       z     vdW  Elec       q    Type
REMARK                         _______ _______ _______ _____ _____    ______ ____
ATOM      1  C   UNL     1      60.847  62.259  68.902  0.00  0.00    +0.000 C 
ATOM      2  C   UNL     1      60.846  62.357  69.721  0.00  0.00    +0.000 C 
ATOM      3  O   UNL     1      60.317  61.928  70.186  0.00  0.00    +0.000 OA
ATOM      4  O   UNL     1      61.374  62.883  70.075  0.00  0.00    +0.000 OA
ATOM      5  C   UNL     1      61.372  62.981  70.894  0.00  0.00    +0.000 A 
ATOM      6  C   UNL     1      61.900  63.507  71.248  0.00  0.00    +0.000 A 
ATOM      7  C   UNL     1      61.899  63.604  72.067  0.00  0.00    +0.000 A 
ATOM      8  C   UNL     1      61.369  63.176  72.532  0.00  0.00    +0.000 A 
ATOM      9  C   UNL     1      60.841  62.649  72.179  0.00  0.00    +0.000 A 
ATOM     10  C   UNL     1      60.843  62.552  71.359  0.00  0.00    +0.000 A 
ATOM     11  C   UNL     1      62.429  63.935  70.783  0.00  0.00    +0.000 C 
ATOM     12  O   UNL     1      62.431  63.838  69.963  0.00  0.00    +0.000 OA
ATOM     13  N   UNL     1      62.957  64.462  71.136  0.00  0.00    +0.000 NA
ATOM     14  C   UNL     1      63.487  64.890  70.670  0.00  0.00    +0.000 A 
ATOM     15  N   UNL     1      63.552  64.851  69.850  0.00  0.00    +0.000 NA
ATOM     16  C   UNL     1      64.149  65.370  69.616  0.00  0.00    +0.000 A 
ATOM     17  C   UNL     1      64.453  65.730  70.294  0.00  0.00    +0.000 A 
ATOM     18  S   UNL     1      64.043  65.433  70.946  0.00  0.00    +0.000 S 
ATOM     19  N   UNL     1      65.061  66.289  70.315  0.00  0.00    +0.000 N 
ATOM     20  O   UNL     1      65.420  66.533  69.614  0.00  0.00    +0.000 OA
ATOM     21  O   UNL     1      65.307  66.601  71.037  0.00  0.00    +0.000 OA
ENDROOT
TORSDOF 0
ENDMDL
MODEL 6
REMARK VINA RESULT:    -9.610      1.673      4.619
REMARK INTER + INTRA:          -9.610
REMARK INTER:                  -9.610
REMARK INTRA:                   0.000
REMARK UNBOUND:                 0.000
ROOT
REMARK  Name = nitazoxanide
REMARK                            x       y       z     vdW  Elec       q    Type
REMARK                         _______ _______ _______ _____ _____    ______ ____
ATOM      1  C   UNL     1      63.447  64.625  70.574  0.00  0.00    +0.000 C 
ATOM      2  C   UNL     1      62.770  64.279  70.891  0.00  0.00    +0.000 C 
ATOM      3  O   UNL     1      62.630  64.316  71.703  0.00  0.00    +0.000 OA
ATOM      4  O   UNL     1      62.231  63.895  70.397  0.00  0.00    +0.000 OA
ATOM      5  C   UNL     1      61.554  63.549  70.715  0.00  0.00    +0.000 A 
ATOM      6  C   UNL     1      61.015  63.166  70.221  0.00  0.00    +0.000 A 
ATOM      7  C   UNL     1      60.338  62.820  70.538  0.00  0.00    +0.000 A 
ATOM      8  C   UNL     1      60.198  62.856  71.350  0.00  0.00    +0.000 A 
ATOM      9  C   UNL     1      60.735  63.239  71.845  0.00  0.00    +0.000 A 
ATOM     10  C   UNL     1      61.414  63.586  71.527  0.00  0.00    +0.000 A 
ATOM     11  C   UNL     1      61.155  63.129  69.409  0.00  0.00    +0.000 C 
ATOM     12  O   UNL     1      61.834  63.475  69.090  0.00  0.00    +0.000 OA
ATOM     13  N   UNL     1      60.618  62.746  68.914  0.00  0.00    +0.000 NA
ATOM     14  C   UNL     1      60.758  62.709  68.102  0.00  0.00    +0.000 A 
ATOM     15  N   UNL     1      61.407  63.028  67.707  0.00  0.00    +0.000 NA
ATOM     16  C   UNL     1      61.324  62.863  66.903  0.00  0.00    +0.000 A 
ATOM     17  C   UNL     1      60.622  62.441  66.801  0.00  0.00    +0.000 A 
ATOM     18  S   UNL     1      60.272  62.346  67.543  0.00  0.00    +0.000 S 
ATOM     19  N   UNL     1      60.322  62.164  66.084  0.00  0.00    +0.000 N 
ATOM     20  O   UNL     1      60.736  62.302  65.384  0.00  0.00    +0.000 OA
ATOM     21  O   UNL     1      59.610  61.749  66.068  0.00  0.00    +0.000 OA
ENDROOT
TORSDOF 0
ENDMDL
MODEL 7
REMARK VINA RESULT:    -8.870      2.391      5.527
REMARK INTER + INTRA:          -8.870
REMARK INTER:                  -8.870
REMARK INTRA:                   0.000
REMARK UNBOUND:                 0.000
ROOT
REMARK  Name = nitazoxanide
REMARK                            x       y       z     vdW  Elec       q    Type
REMARK                         _______ _______ _______ _____ _____    ______ ____
ATOM      1  C   UNL     1      65.119  66.607  69.847  0.00  0.00    +0.000 C 
ATOM      2  C   UNL     1      64.620  66.565  70.502  0.00  0.00    +0.000 C 
ATOM      3  O   UNL     1      64.771  67.031  71.166  0.00  0.00    +0.000 OA
ATOM      4  O   UNL     1      63.970  66.056  70.494  0.00  0.00    +0.000 OA
ATOM      5  C   UNL     1      63.471  66.014  71.148  0.00  0.00    +0.000 A 
ATOM      6  C   UNL     1      62.821  65.506  71.140  0.00  0.00    +0.000 A 
ATOM      7  C   UNL     1      62.322  65.463  71.795  0.00  0.00    +0.000 A 
ATOM      8  C   UNL     1      62.472  65.929  72.459  0.00  0.00    +0.000 A 
ATOM      9  C   UNL     1      63.122  66.438  72.468  0.00  0.00    +0.000 A 
ATOM     10  C   UNL     1      63.621  66.480  71.812  0.00  0.00    +0.000 A 
ATOM     11  C   UNL     1      62.671  65.040  70.476  0.00  0.00    +0.000 C 
ATOM     12  O   UNL     1      63.171  65.082  69.820  0.00  0.00    +0.000 OA
ATOM     13  N   UNL     1      62.021  64.531  70.467  0.00  0.00    +0.000 NA
ATOM     14  C   UNL     1      61.871  64.065  69.803  0.00  0.00    +0.000 A 
ATOM     15  N   UNL     1      62.319  64.049  69.112  0.00  0.00    +0.000 NA
ATOM     16  C   UNL     1      61.971  63.507  68.595  0.00  0.00    +0.000 A 
ATOM     17  C   UNL     1      61.308  63.189  68.969  0.00  0.00    +0.000 A 
ATOM     18  S   UNL     1      61.246  63.535  69.716  0.00  0.00    +0.000 S 
ATOM     19  N   UNL     1      60.796  62.625  68.650  0.00  0.00    +0.000 N 
ATOM     20  O   UNL     1      60.929  62.329  67.892  0.00  0.00    +0.000 OA
ATOM     21  O   UNL     1      60.152  62.358  69.091  0.00  0.00    +0.000 OA
ENDROOT
TORSDOF 0
ENDMDL
MODEL 8
REMARK VINA RESULT:    -8.644     24.764     25.780
REMARK INTER + INTRA:          -8.644
REMARK INTER:                  -8.644
REMARK INTRA:                   0.000
REMARK UNBOUND:                 0.000
ROOT
REMARK  Name = nitazoxanide
REMARK                            x       y       z     vdW  Elec       q    Type
REMARK                         _______ _______ _______ _____ _____    ______ ____
ATOM      1  C   UNL     1      73.221  80.697  50.421  0.00  0.00    +0.000 C 
ATOM      2  C   UNL     1      72.780  80.137  50.008  0.00  0.00    +0.000 C 
ATOM      3  O   UNL     1      73.146  79.657  49.445  0.00  0.00    +0.000 OA
ATOM      4  O   UNL     1      71.973  80.055  50.157  0.00  0.00    +0.000 OA
ATOM      5  C   UNL     1      71.531  79.495  49.744  0.00  0.00    +0.000 A 
ATOM      6  C   UNL     1      70.724  79.413  49.892  0.00  0.00    +0.000 A 
ATOM      7  C   UNL     1      70.282  78.853  49.479  0.00  0.00    +0.000 A 
ATOM      8  C   UNL     1      70.648  78.373  48.916  0.00  0.00    +0.000 A 
ATOM      9  C   UNL     1      71.455  78.453  48.767  0.00  0.00    +0.000 A 
ATOM     10  C   UNL     1      71.897  79.015  49.181  0.00  0.00    +0.000 A 
ATOM     11  C   UNL     1      70.358  79.893  50.455  0.00  0.00    +0.000 C 
ATOM     12  O   UNL     1      70.800  80.454  50.869  0.00  0.00    +0.000 OA
ATOM     13  N   UNL     1      69.551  79.812  50.605  0.00  0.00    +0.000 NA
ATOM     14  C   UNL     1      69.185  80.292  51.167  0.00  0.00    +0.000 A 
ATOM     15  N   UNL     1      69.553  80.873  51.621  0.00  0.00    +0.000 NA
ATOM     16  C   UNL     1      68.982  81.215  52.109  0.00  0.00    +0.000 A 
ATOM     17  C   UNL     1      68.261  80.844  51.956  0.00  0.00    +0.000 A 
ATOM     18  S   UNL     1      68.386  80.273  51.374  0.00  0.00    +0.000 S 
ATOM     19  N   UNL     1      67.541  81.015  52.322  0.00  0.00    +0.000 N 
ATOM     20  O   UNL     1      67.501  81.604  52.898  0.00  0.00    +0.000 OA
ATOM     21  O   UNL     1      66.863  80.596  52.111  0.00  0.00    +0.000 OA
ENDROOT
TORSDOF 0
ENDMDL
MODEL 9
REMARK VINA RESULT:    -8.454      4.701      6.059
REMARK INTER + INTRA:          -8.454
REMARK INTER:                  -8.454
REMARK INTRA:                   0.000
REMARK UNBOUND:                 0.000
ROOT
REMARK  Name = nitazoxanide
REMARK                            x       y       z     vdW  Elec       q    Type
REMARK                         _______ _______ _______ _____ _____    ______ ____
ATOM      1  C   UNL     1      64.632  65.355  69.138  0.00  0.00    +0.000 C 
ATOM      2  C   UNL     1      64.696  65.871  69.777  0.00  0.00    +0.000 C 
ATOM      3  O   UNL     1      65.370  66.339  69.862  0.00  0.00    +0.000 OA
ATOM      4  O   UNL     1      64.087  65.921  70.332  0.00  0.00    +0.000 OA
ATOM      5  C   UNL     1      64.152  66.437  70.971  0.00  0.00    +0.000 A 
ATOM      6  C   UNL     1      63.543  66.486  71.526  0.00  0.00    +0.000 A 
ATOM      7  C   UNL     1      63.608  67.003  72.165  0.00  0.00    +0.000 A 
ATOM      8  C   UNL     1      64.282  67.471  72.250  0.00  0.00    +0.000 A 
ATOM      9  C   UNL     1      64.891  67.422  71.697  0.00  0.00    +0.000 A 
ATOM     10  C   UNL     1      64.826  66.905  71.056  0.00  0.00    +0.000 A 
ATOM     11  C   UNL     1      62.869  66.018  71.440  0.00  0.00    +0.000 C 
ATOM     12  O   UNL     1      62.804  65.501  70.800  0.00  0.00    +0.000 OA
ATOM     13  N   UNL     1      62.259  66.067  71.994  0.00  0.00    +0.000 NA
ATOM     14  C   UNL     1      61.585  65.599  71.908  0.00  0.00    +0.000 A 
ATOM     15  N   UNL     1      61.444  65.060  71.301  0.00  0.00    +0.000 NA
ATOM     16  C   UNL     1      60.706  64.716  71.432  0.00  0.00    +0.000 A 
ATOM     17  C   UNL     1      60.391  65.043  72.122  0.00  0.00    +0.000 A 
ATOM     18  S   UNL     1      60.936  65.589  72.416  0.00  0.00    +0.000 S 
ATOM     19  N   UNL     1      59.661  64.856  72.458  0.00  0.00    +0.000 N 
ATOM     20  O   UNL     1      59.174  64.296  72.099  0.00  0.00    +0.000 OA
ATOM     21  O   UNL     1      59.420  65.230  73.152  0.00  0.00    +0.000 OA
ENDROOT
TORSDOF 0
ENDMDL
