MODEL 1
REMARK VINA RESULT:   -11.857      0.000      0.000
REMARK INTER + INTRA:         -11.857
REMARK INTER:                 -11.857
REMARK INTRA:                   0.000
REMARK UNBOUND:                 0.000
ROOT
REMARK  Name = nitisinone
REMARK                            x       y       z     vdW  Elec       q    Type
REMARK                         _______ _______ _______ _____ _____    ______ ____
ATOM      1  O   UNL     1      58.619  62.006  66.905  0.00  0.00    +0.000 OA
ATOM      2  N   UNL     1      59.303  61.977  66.445  0.00  0.00    +0.000 N 
ATOM      3  O   UNL     1      59.295  61.587  65.718  0.00  0.00    +0.000 OA
ATOM      4  C   UNL     1      59.995  62.339  66.712  0.00  0.00    +0.000 A 
ATOM      5  C   UNL     1      60.679  62.311  66.251  0.00  0.00    +0.000 A 
ATOM      6  C   UNL     1      61.371  62.672  66.517  0.00  0.00    +0.000 A 
ATOM      7  C   UNL     1      61.379  63.063  67.245  0.00  0.00    +0.000 A 
ATOM      8  C   UNL     1      60.695  63.091  67.705  0.00  0.00    +0.000 A 
ATOM      9  C   UNL     1      60.003  62.729  67.438  0.00  0.00    +0.000 A 
ATOM     10  C   UNL     1      60.704  63.481  68.431  0.00  0.00    +0.000 C 
ATOM     11  F   UNL     1      60.711  63.871  69.158  0.00  0.00    +0.000 F 
ATOM     12  F   UNL     1      61.498  63.673  68.320  0.00  0.00    +0.000 F 
ATOM     13  F   UNL     1      59.909  63.288  68.543  0.00  0.00    +0.000 F 
ATOM     14  C   UNL     1      60.671  61.921  65.524  0.00  0.00    +0.000 C 
ATOM     15  O   UNL     1      59.979  61.559  65.257  0.00  0.00    +0.000 OA
ATOM     16  C   UNL     1      61.355  61.892  65.063  0.00  0.00    +0.000 C 
ATOM     17  C   UNL     1      61.348  61.502  64.337  0.00  0.00    +0.000 C 
ATOM     18  O   UNL     1      60.655  61.140  64.070  0.00  0.00    +0.000 OA
ATOM     19  C   UNL     1      62.031  61.474  63.876  0.00  0.00    +0.000 C 
ATOM     20  C   UNL     1      62.723  61.835  64.142  0.00  0.00    +0.000 C 
ATOM     21  C   UNL     1      62.732  62.225  64.870  0.00  0.00    +0.000 C 
ATOM     22  C   UNL     1      62.047  62.254  65.330  0.00  0.00    +0.000 C 
ATOM     23  O   UNL     1      62.055  62.644  66.057  0.00  0.00    +0.000 OA
ENDROOT
TORSDOF 0
ENDMDL
MODEL 2
REMARK VINA RESULT:   -11.790      2.050      3.492
REMARK INTER + INTRA:         -11.790
REMARK INTER:                 -11.790
REMARK INTRA:                   0.000
REMARK UNBOUND:                 0.000
ROOT
REMARK  Name = nitisinone
REMARK                            x       y       z     vdW  Elec       q    Type
REMARK                         _______ _______ _______ _____ _____    ______ ____
ATOM      1  O   UNL     1      59.967  60.666  64.299  0.00  0.00    +0.000 OA
ATOM      2  N   UNL     1      60.153  61.135  64.950  0.00  0.00    +0.000 N 
ATOM      3  O   UNL     1      59.636  61.177  65.591  0.00  0.00    +0.000 OA
ATOM      4  C   UNL     1      60.859  61.565  64.960  0.00  0.00    +0.000 A 
ATOM      5  C   UNL     1      61.046  62.035  65.612  0.00  0.00    +0.000 A 
ATOM      6  C   UNL     1      61.750  62.463  65.623  0.00  0.00    +0.000 A 
ATOM      7  C   UNL     1      62.269  62.422  64.981  0.00  0.00    +0.000 A 
ATOM      8  C   UNL     1      62.081  61.952  64.330  0.00  0.00    +0.000 A 
ATOM      9  C   UNL     1      61.376  61.523  64.320  0.00  0.00    +0.000 A 
ATOM     10  C   UNL     1      62.599  61.911  63.690  0.00  0.00    +0.000 C 
ATOM     11  F   UNL     1      63.116  61.869  63.048  0.00  0.00    +0.000 F 
ATOM     12  F   UNL     1      63.113  62.430  64.071  0.00  0.00    +0.000 F 
ATOM     13  F   UNL     1      62.083  61.392  63.307  0.00  0.00    +0.000 F 
ATOM     14  C   UNL     1      60.529  62.076  66.253  0.00  0.00    +0.000 C 
ATOM     15  O   UNL     1      59.823  61.647  66.243  0.00  0.00    +0.000 OA
ATOM     16  C   UNL     1      60.715  62.546  66.905  0.00  0.00    +0.000 C 
ATOM     17  C   UNL     1      60.198  62.587  67.546  0.00  0.00    +0.000 C 
ATOM     18  O   UNL     1      59.493  62.158  67.535  0.00  0.00    +0.000 OA
ATOM     19  C   UNL     1      60.385  63.057  68.198  0.00  0.00    +0.000 C 
ATOM     20  C   UNL     1      61.090  63.486  68.209  0.00  0.00    +0.000 C 
ATOM     21  C   UNL     1      61.608  63.445  67.567  0.00  0.00    +0.000 C 
ATOM     22  C   UNL     1      61.420  62.975  66.916  0.00  0.00    +0.000 C 
ATOM     23  O   UNL     1      61.938  62.933  66.274  0.00  0.00    +0.000 OA
ENDROOT
TORSDOF 0
ENDMDL
MODEL 3
REMARK VINA RESULT:   -11.453      3.525      4.824
REMARK INTER + INTRA:         -11.453
REMARK INTER:                 -11.453
REMARK INTRA:                   0.000
REMARK UNBOUND:                 0.000
ROOT
REMARK  Name = nitisinone
REMARK                            x       y       z     vdW  Elec       q    Type
REMARK                         _______ _______ _______ _____ _____    ______ ____
ATOM      1  O   UNL     1      60.720  64.765  72.103  0.00  0.00    +0.000 OA
ATOM      2  N   UNL     1      60.629  64.364  71.388  0.00  0.00    +0.000 N 
ATOM      3  O   UNL     1      60.307  64.752  70.735  0.00  0.00    +0.000 OA
ATOM      4  C   UNL     1      60.859  63.573  71.326  0.00  0.00    +0.000 A 
ATOM      5  C   UNL     1      60.768  63.172  70.611  0.00  0.00    +0.000 A 
ATOM      6  C   UNL     1      60.998  62.382  70.548  0.00  0.00    +0.000 A 
ATOM      7  C   UNL     1      61.320  61.994  71.202  0.00  0.00    +0.000 A 
ATOM      8  C   UNL     1      61.411  62.395  71.916  0.00  0.00    +0.000 A 
ATOM      9  C   UNL     1      61.181  63.185  71.978  0.00  0.00    +0.000 A 
ATOM     10  C   UNL     1      61.733  62.006  72.569  0.00  0.00    +0.000 C 
ATOM     11  F   UNL     1      62.055  61.618  73.222  0.00  0.00    +0.000 F 
ATOM     12  F   UNL     1      61.813  61.319  72.120  0.00  0.00    +0.000 F 
ATOM     13  F   UNL     1      61.653  62.695  73.018  0.00  0.00    +0.000 F 
ATOM     14  C   UNL     1      60.446  63.560  69.958  0.00  0.00    +0.000 C 
ATOM     15  O   UNL     1      60.215  64.351  70.020  0.00  0.00    +0.000 OA
ATOM     16  C   UNL     1      60.354  63.159  69.243  0.00  0.00    +0.000 C 
ATOM     17  C   UNL     1      60.033  63.547  68.590  0.00  0.00    +0.000 C 
ATOM     18  O   UNL     1      59.802  64.338  68.652  0.00  0.00    +0.000 OA
ATOM     19  C   UNL     1      59.941  63.146  67.875  0.00  0.00    +0.000 C 
ATOM     20  C   UNL     1      60.172  62.357  67.813  0.00  0.00    +0.000 C 
ATOM     21  C   UNL     1      60.494  61.968  68.466  0.00  0.00    +0.000 C 
ATOM     22  C   UNL     1      60.585  62.370  69.180  0.00  0.00    +0.000 C 
ATOM     23  O   UNL     1      60.907  61.981  69.834  0.00  0.00    +0.000 OA
ENDROOT
TORSDOF 0
ENDMDL
MODEL 4
REMARK VINA RESULT:   -11.112      6.566      7.592
REMARK INTER + INTRA:         -11.112
REMARK INTER:                 -11.112
REMARK INTRA:                   0.000
REMARK UNBOUND:                 0.000
ROOT
REMARK  Name = nitisinone
REMARK                            x       y       z     vdW  Elec       q    Type
REMARK                         _______ _______ _______ _____ _____    ______ ____
ATOM      1  O   UNL     1      64.945  65.020  69.048  0.00  0.00    +0.000 OA
ATOM      2  N   UNL     1      64.488  65.195  69.711  0.00  0.00    +0.000 N 
ATOM      3  O   UNL     1      63.883  64.684  69.944  0.00  0.00    +0.000 OA
ATOM      4  C   UNL     1      64.636  65.882  70.145  0.00  0.00    +0.000 A 
ATOM      5  C   UNL     1      64.179  66.057  70.809  0.00  0.00    +0.000 A 
ATOM      6  C   UNL     1      64.327  66.744  71.242  0.00  0.00    +0.000 A 
ATOM      7  C   UNL     1      64.932  67.256  71.010  0.00  0.00    +0.000 A 
ATOM      8  C   UNL     1      65.388  67.080  70.346  0.00  0.00    +0.000 A 
ATOM      9  C   UNL     1      65.240  66.393  69.913  0.00  0.00    +0.000 A 
ATOM     10  C   UNL     1      65.992  67.592  70.115  0.00  0.00    +0.000 C 
ATOM     11  F   UNL     1      66.597  68.103  69.882  0.00  0.00    +0.000 F 
ATOM     12  F   UNL     1      65.814  68.089  70.747  0.00  0.00    +0.000 F 
ATOM     13  F   UNL     1      66.171  67.094  69.481  0.00  0.00    +0.000 F 
ATOM     14  C   UNL     1      63.575  65.546  71.040  0.00  0.00    +0.000 C 
ATOM     15  O   UNL     1      63.427  64.859  70.607  0.00  0.00    +0.000 OA
ATOM     16  C   UNL     1      63.118  65.721  71.705  0.00  0.00    +0.000 C 
ATOM     17  C   UNL     1      62.513  65.210  71.936  0.00  0.00    +0.000 C 
ATOM     18  O   UNL     1      62.365  64.523  71.503  0.00  0.00    +0.000 OA
ATOM     19  C   UNL     1      62.056  65.385  72.601  0.00  0.00    +0.000 C 
ATOM     20  C   UNL     1      62.204  66.072  73.033  0.00  0.00    +0.000 C 
ATOM     21  C   UNL     1      62.809  66.584  72.802  0.00  0.00    +0.000 C 
ATOM     22  C   UNL     1      63.265  66.408  72.137  0.00  0.00    +0.000 C 
ATOM     23  O   UNL     1      63.870  66.920  71.906  0.00  0.00    +0.000 OA
ENDROOT
TORSDOF 0
ENDMDL
MODEL 5
REMARK VINA RESULT:   -11.100      3.454      5.420
REMARK INTER + INTRA:         -11.100
REMARK INTER:                 -11.100
REMARK INTRA:                   0.000
REMARK UNBOUND:                 0.000
ROOT
REMARK  Name = nitisinone
REMARK                            x       y       z     vdW  Elec       q    Type
REMARK                         _______ _______ _______ _____ _____    ______ ____
ATOM      1  O   UNL     1      59.798  64.988  69.279  0.00  0.00    +0.000 OA
ATOM      2  N   UNL     1      60.127  64.501  69.858  0.00  0.00    +0.000 N 
ATOM      3  O   UNL     1      60.285  64.802  70.610  0.00  0.00    +0.000 OA
ATOM      4  C   UNL     1      60.300  63.712  69.684  0.00  0.00    +0.000 A 
ATOM      5  C   UNL     1      60.629  63.226  70.263  0.00  0.00    +0.000 A 
ATOM      6  C   UNL     1      60.802  62.438  70.090  0.00  0.00    +0.000 A 
ATOM      7  C   UNL     1      60.644  62.137  69.337  0.00  0.00    +0.000 A 
ATOM      8  C   UNL     1      60.314  62.624  68.760  0.00  0.00    +0.000 A 
ATOM      9  C   UNL     1      60.142  63.412  68.933  0.00  0.00    +0.000 A 
ATOM     10  C   UNL     1      60.157  62.322  68.008  0.00  0.00    +0.000 C 
ATOM     11  F   UNL     1      59.999  62.022  67.256  0.00  0.00    +0.000 F 
ATOM     12  F   UNL     1      60.447  61.587  68.242  0.00  0.00    +0.000 F 
ATOM     13  F   UNL     1      59.867  63.059  67.774  0.00  0.00    +0.000 F 
ATOM     14  C   UNL     1      60.787  63.526  71.014  0.00  0.00    +0.000 C 
ATOM     15  O   UNL     1      60.614  64.315  71.188  0.00  0.00    +0.000 OA
ATOM     16  C   UNL     1      61.117  63.040  71.594  0.00  0.00    +0.000 C 
ATOM     17  C   UNL     1      61.274  63.340  72.345  0.00  0.00    +0.000 C 
ATOM     18  O   UNL     1      61.102  64.129  72.518  0.00  0.00    +0.000 OA
ATOM     19  C   UNL     1      61.604  62.854  72.924  0.00  0.00    +0.000 C 
ATOM     20  C   UNL     1      61.776  62.066  72.751  0.00  0.00    +0.000 C 
ATOM     21  C   UNL     1      61.619  61.764  71.998  0.00  0.00    +0.000 C 
ATOM     22  C   UNL     1      61.289  62.252  71.420  0.00  0.00    +0.000 C 
ATOM     23  O   UNL     1      61.131  61.950  70.668  0.00  0.00    +0.000 OA
ENDROOT
TORSDOF 0
ENDMDL
MODEL 6
REMARK VINA RESULT:   -11.076      6.044      7.511
REMARK INTER + INTRA:         -11.076
REMARK INTER:                 -11.076
REMARK INTRA:                   0.000
REMARK UNBOUND:                 0.000
ROOT
REMARK  Name = nitisinone
REMARK                            x       y       z     vdW  Elec       q    Type
REMARK                         _______ _______ _______ _____ _____    ______ ____
ATOM      1  O   UNL     1      64.391  68.008  72.431  0.00  0.00    +0.000 OA
ATOM      2  N   UNL     1      64.131  67.305  72.086  0.00  0.00    +0.000 N 
ATOM      3  O   UNL     1      63.518  66.876  72.433  0.00  0.00    +0.000 OA
ATOM      4  C   UNL     1      64.486  67.031  71.393  0.00  0.00    +0.000 A 
ATOM      5  C   UNL     1      64.226  66.328  71.048  0.00  0.00    +0.000 A 
ATOM      6  C   UNL     1      64.580  66.053  70.355  0.00  0.00    +0.000 A 
ATOM      7  C   UNL     1      65.194  66.482  70.007  0.00  0.00    +0.000 A 
ATOM      8  C   UNL     1      65.453  67.184  70.353  0.00  0.00    +0.000 A 
ATOM      9  C   UNL     1      65.099  67.459  71.045  0.00  0.00    +0.000 A 
ATOM     10  C   UNL     1      66.066  67.612  70.005  0.00  0.00    +0.000 C 
ATOM     11  F   UNL     1      66.680  68.041  69.658  0.00  0.00    +0.000 F 
ATOM     12  F   UNL     1      66.121  67.049  69.406  0.00  0.00    +0.000 F 
ATOM     13  F   UNL     1      66.012  68.177  70.605  0.00  0.00    +0.000 F 
ATOM     14  C   UNL     1      63.613  65.899  71.395  0.00  0.00    +0.000 C 
ATOM     15  O   UNL     1      63.258  66.174  72.088  0.00  0.00    +0.000 OA
ATOM     16  C   UNL     1      63.353  65.196  71.050  0.00  0.00    +0.000 C 
ATOM     17  C   UNL     1      62.740  64.768  71.397  0.00  0.00    +0.000 C 
ATOM     18  O   UNL     1      62.385  65.043  72.091  0.00  0.00    +0.000 OA
ATOM     19  C   UNL     1      62.480  64.065  71.052  0.00  0.00    +0.000 C 
ATOM     20  C   UNL     1      62.834  63.790  70.359  0.00  0.00    +0.000 C 
ATOM     21  C   UNL     1      63.448  64.219  70.011  0.00  0.00    +0.000 C 
ATOM     22  C   UNL     1      63.707  64.922  70.357  0.00  0.00    +0.000 C 
ATOM     23  O   UNL     1      64.321  65.350  70.009  0.00  0.00    +0.000 OA
ENDROOT
TORSDOF 0
ENDMDL
MODEL 7
REMARK VINA RESULT:   -10.933      2.207      3.309
REMARK INTER + INTRA:         -10.933
REMARK INTER:                 -10.933
REMARK INTRA:                   0.000
REMARK UNBOUND:                 0.000
ROOT
REMARK  Name = nitisinone
REMARK                            x       y       z     vdW  Elec       q    Type
REMARK                         _______ _______ _______ _____ _____    ______ ____
ATOM      1  O   UNL     1      62.485  63.974  69.570  0.00  0.00    +0.000 OA
ATOM      2  N   UNL     1      61.990  63.630  69.008  0.00  0.00    +0.000 N 
ATOM      3  O   UNL     1      62.061  63.837  68.213  0.00  0.00    +0.000 OA
ATOM      4  C   UNL     1      61.422  63.078  69.241  0.00  0.00    +0.000 A 
ATOM      5  C   UNL     1      60.926  62.733  68.678  0.00  0.00    +0.000 A 
ATOM      6  C   UNL     1      60.359  62.182  68.911  0.00  0.00    +0.000 A 
ATOM      7  C   UNL     1      60.287  61.974  69.707  0.00  0.00    +0.000 A 
ATOM      8  C   UNL     1      60.783  62.318  70.269  0.00  0.00    +0.000 A 
ATOM      9  C   UNL     1      61.350  62.870  70.036  0.00  0.00    +0.000 A 
ATOM     10  C   UNL     1      60.711  62.111  71.064  0.00  0.00    +0.000 C 
ATOM     11  F   UNL     1      60.639  61.904  71.859  0.00  0.00    +0.000 F 
ATOM     12  F   UNL     1      60.097  61.594  70.874  0.00  0.00    +0.000 F 
ATOM     13  F   UNL     1      61.325  62.628  71.254  0.00  0.00    +0.000 F 
ATOM     14  C   UNL     1      60.998  62.941  67.884  0.00  0.00    +0.000 C 
ATOM     15  O   UNL     1      61.566  63.493  67.651  0.00  0.00    +0.000 OA
ATOM     16  C   UNL     1      60.503  62.597  67.320  0.00  0.00    +0.000 C 
ATOM     17  C   UNL     1      60.574  62.804  66.526  0.00  0.00    +0.000 C 
ATOM     18  O   UNL     1      61.142  63.356  66.293  0.00  0.00    +0.000 OA
ATOM     19  C   UNL     1      60.079  62.460  65.963  0.00  0.00    +0.000 C 
ATOM     20  C   UNL     1      59.511  61.908  66.195  0.00  0.00    +0.000 C 
ATOM     21  C   UNL     1      59.439  61.700  66.991  0.00  0.00    +0.000 C 
ATOM     22  C   UNL     1      59.935  62.045  67.553  0.00  0.00    +0.000 C 
ATOM     23  O   UNL     1      59.863  61.837  68.349  0.00  0.00    +0.000 OA
ENDROOT
TORSDOF 0
ENDMDL
MODEL 8
REMARK VINA RESULT:   -10.765      4.858      5.920
REMARK INTER + INTRA:         -10.765
REMARK INTER:                 -10.765
REMARK INTRA:                   0.000
REMARK UNBOUND:                 0.000
ROOT
REMARK  Name = nitisinone
REMARK                            x       y       z     vdW  Elec       q    Type
REMARK                         _______ _______ _______ _____ _____    ______ ____
ATOM      1  O   UNL     1      60.502  63.885  72.950  0.00  0.00    +0.000 OA
ATOM      2  N   UNL     1      61.126  64.111  72.460  0.00  0.00    +0.000 N 
ATOM      3  O   UNL     1      61.599  64.756  72.665  0.00  0.00    +0.000 OA
ATOM      4  C   UNL     1      61.277  63.693  71.764  0.00  0.00    +0.000 A 
ATOM      5  C   UNL     1      61.901  63.920  71.275  0.00  0.00    +0.000 A 
ATOM      6  C   UNL     1      62.052  63.502  70.580  0.00  0.00    +0.000 A 
ATOM      7  C   UNL     1      61.579  62.857  70.374  0.00  0.00    +0.000 A 
ATOM      8  C   UNL     1      60.955  62.631  70.865  0.00  0.00    +0.000 A 
ATOM      9  C   UNL     1      60.804  63.049  71.560  0.00  0.00    +0.000 A 
ATOM     10  C   UNL     1      60.483  61.987  70.659  0.00  0.00    +0.000 C 
ATOM     11  F   UNL     1      60.010  61.343  70.455  0.00  0.00    +0.000 F 
ATOM     12  F   UNL     1      60.930  61.876  69.976  0.00  0.00    +0.000 F 
ATOM     13  F   UNL     1      60.035  62.098  71.344  0.00  0.00    +0.000 F 
ATOM     14  C   UNL     1      62.374  64.563  71.479  0.00  0.00    +0.000 C 
ATOM     15  O   UNL     1      62.222  64.982  72.175  0.00  0.00    +0.000 OA
ATOM     16  C   UNL     1      62.998  64.790  70.990  0.00  0.00    +0.000 C 
ATOM     17  C   UNL     1      63.471  65.434  71.194  0.00  0.00    +0.000 C 
ATOM     18  O   UNL     1      63.319  65.852  71.890  0.00  0.00    +0.000 OA
ATOM     19  C   UNL     1      64.095  65.661  70.704  0.00  0.00    +0.000 C 
ATOM     20  C   UNL     1      64.246  65.243  70.009  0.00  0.00    +0.000 C 
ATOM     21  C   UNL     1      63.773  64.598  69.804  0.00  0.00    +0.000 C 
ATOM     22  C   UNL     1      63.149  64.372  70.295  0.00  0.00    +0.000 C 
ATOM     23  O   UNL     1      62.676  63.727  70.089  0.00  0.00    +0.000 OA
ENDROOT
TORSDOF 0
ENDMDL
MODEL 9
REMARK VINA RESULT:   -10.575      5.342      6.514
REMARK INTER + INTRA:         -10.575
REMARK INTER:                 -10.575
REMARK INTRA:                   0.000
REMARK UNBOUND:                 0.000
ROOT
REMARK  Name = nitisinone
REMARK                            x       y       z     vdW  Elec       q    Type
REMARK                         _______ _______ _______ _____ _____    ______ ____
ATOM      1  O   UNL     1      62.301  63.611  69.717  0.00  0.00    +0.000 OA
ATOM      2  N   UNL     1      62.812  64.217  69.943  0.00  0.00    +0.000 N 
ATOM      3  O   UNL     1      63.391  64.486  69.421  0.00  0.00    +0.000 OA
ATOM      4  C   UNL     1      62.744  64.556  70.693  0.00  0.00    +0.000 A 
ATOM      5  C   UNL     1      63.255  65.163  70.920  0.00  0.00    +0.000 A 
ATOM      6  C   UNL     1      63.187  65.501  71.669  0.00  0.00    +0.000 A 
ATOM      7  C   UNL     1      62.608  65.232  72.192  0.00  0.00    +0.000 A 
ATOM      8  C   UNL     1      62.097  64.626  71.965  0.00  0.00    +0.000 A 
ATOM      9  C   UNL     1      62.165  64.287  71.216  0.00  0.00    +0.000 A 
ATOM     10  C   UNL     1      61.519  64.358  72.488  0.00  0.00    +0.000 C 
ATOM     11  F   UNL     1      60.939  64.089  73.011  0.00  0.00    +0.000 F 
ATOM     12  F   UNL     1      61.774  64.903  73.051  0.00  0.00    +0.000 F 
ATOM     13  F   UNL     1      61.262  63.812  71.924  0.00  0.00    +0.000 F 
ATOM     14  C   UNL     1      63.834  65.431  70.397  0.00  0.00    +0.000 C 
ATOM     15  O   UNL     1      63.902  65.092  69.647  0.00  0.00    +0.000 OA
ATOM     16  C   UNL     1      64.345  66.038  70.623  0.00  0.00    +0.000 C 
ATOM     17  C   UNL     1      64.924  66.306  70.101  0.00  0.00    +0.000 C 
ATOM     18  O   UNL     1      64.992  65.967  69.351  0.00  0.00    +0.000 OA
ATOM     19  C   UNL     1      65.435  66.913  70.327  0.00  0.00    +0.000 C 
ATOM     20  C   UNL     1      65.368  67.251  71.077  0.00  0.00    +0.000 C 
ATOM     21  C   UNL     1      64.788  66.983  71.600  0.00  0.00    +0.000 C 
ATOM     22  C   UNL     1      64.277  66.376  71.373  0.00  0.00    +0.000 C 
ATOM     23  O   UNL     1      63.698  66.107  71.896  0.00  0.00    +0.000 OA
ENDROOT
TORSDOF 0
ENDMDL
