MODEL 1
REMARK VINA RESULT:    -1.425      0.000      0.000
REMARK INTER + INTRA:          -1.425
REMARK INTER:                  -1.425
REMARK INTRA:                   0.000
REMARK UNBOUND:                 0.000
ROOT
REMARK  Name = nitric oxide
REMARK                            x       y       z     vdW  Elec       q    Type
REMARK                         _______ _______ _______ _____ _____    ______ ____
ATOM      1  N   UNL     1      72.577  67.784  52.966  0.00  0.00    +0.000 NA
ATOM      2  O   UNL     1      71.760  67.730  53.063  0.00  0.00    +0.000 OA
ENDROOT
TORSDOF 0
ENDMDL
MODEL 2
REMARK VINA RESULT:    -1.404     13.049     13.049
REMARK INTER + INTRA:          -1.404
REMARK INTER:                  -1.404
REMARK INTRA:                   0.000
REMARK UNBOUND:                 0.000
ROOT
REMARK  Name = nitric oxide
REMARK                            x       y       z     vdW  Elec       q    Type
REMARK                         _______ _______ _______ _____ _____    ______ ____
ATOM      1  N   UNL     1      65.894  76.906  60.188  0.00  0.00    +0.000 NA
ATOM      2  O   UNL     1      65.838  76.132  60.469  0.00  0.00    +0.000 OA
ENDROOT
TORSDOF 0
ENDMDL
MODEL 3
REMARK VINA RESULT:    -1.264     19.418     19.418
REMARK INTER + INTRA:          -1.264
REMARK INTER:                  -1.264
REMARK INTRA:                   0.000
REMARK UNBOUND:                 0.000
ROOT
REMARK  Name = nitric oxide
REMARK                            x       y       z     vdW  Elec       q    Type
REMARK                         _______ _______ _______ _____ _____    ______ ____
ATOM      1  N   UNL     1      57.128  70.695  64.582  0.00  0.00    +0.000 NA
ATOM      2  O   UNL     1      57.128  70.385  65.347  0.00  0.00    +0.000 OA
ENDROOT
TORSDOF 0
ENDMDL
MODEL 4
REMARK VINA RESULT:    -1.224     15.690     15.690
REMARK INTER + INTRA:          -1.224
REMARK INTER:                  -1.224
REMARK INTRA:                   0.000
REMARK UNBOUND:                 0.000
ROOT
REMARK  Name = nitric oxide
REMARK                            x       y       z     vdW  Elec       q    Type
REMARK                         _______ _______ _______ _____ _____    ______ ____
ATOM      1  N   UNL     1      62.404  62.070  64.163  0.00  0.00    +0.000 NA
ATOM      2  O   UNL     1      62.540  61.624  63.482  0.00  0.00    +0.000 OA
ENDROOT
TORSDOF 0
ENDMDL
MODEL 5
REMARK VINA RESULT:    -1.213     13.507     13.507
REMARK INTER + INTRA:          -1.213
REMARK INTER:                  -1.213
REMARK INTRA:                   0.000
REMARK UNBOUND:                 0.000
ROOT
REMARK  Name = nitric oxide
REMARK                            x       y       z     vdW  Elec       q    Type
REMARK                         _______ _______ _______ _____ _____    ______ ____
ATOM      1  N   UNL     1      66.499  77.942  60.036  0.00  0.00    +0.000 NA
ATOM      2  O   UNL     1      67.195  78.218  59.689  0.00  0.00    +0.000 OA
ENDROOT
TORSDOF 0
ENDMDL
MODEL 6
REMARK VINA RESULT:    -1.182     16.406     16.406
REMARK INTER + INTRA:          -1.182
REMARK INTER:                  -1.182
REMARK INTRA:                   0.000
REMARK UNBOUND:                 0.000
ROOT
REMARK  Name = nitric oxide
REMARK                            x       y       z     vdW  Elec       q    Type
REMARK                         _______ _______ _______ _____ _____    ______ ____
ATOM      1  N   UNL     1      62.201  62.555  65.411  0.00  0.00    +0.000 NA
ATOM      2  O   UNL     1      62.403  62.488  64.614  0.00  0.00    +0.000 OA
ENDROOT
TORSDOF 0
ENDMDL
MODEL 7
REMARK VINA RESULT:    -1.140     17.874     17.874
REMARK INTER + INTRA:          -1.140
REMARK INTER:                  -1.140
REMARK INTRA:                   0.000
REMARK UNBOUND:                 0.000
ROOT
REMARK  Name = nitric oxide
REMARK                            x       y       z     vdW  Elec       q    Type
REMARK                         _______ _______ _______ _____ _____    ______ ____
ATOM      1  N   UNL     1      66.008  67.420  70.047  0.00  0.00    +0.000 NA
ATOM      2  O   UNL     1      66.273  68.066  69.607  0.00  0.00    +0.000 OA
ENDROOT
TORSDOF 0
ENDMDL
MODEL 8
REMARK VINA RESULT:    -1.136     11.287     11.287
REMARK INTER + INTRA:          -1.136
REMARK INTER:                  -1.136
REMARK INTRA:                   0.000
REMARK UNBOUND:                 0.000
ROOT
REMARK  Name = nitric oxide
REMARK                            x       y       z     vdW  Elec       q    Type
REMARK                         _______ _______ _______ _____ _____    ______ ____
ATOM      1  N   UNL     1      70.236  78.512  49.612  0.00  0.00    +0.000 NA
ATOM      2  O   UNL     1      70.834  78.094  49.227  0.00  0.00    +0.000 OA
ENDROOT
TORSDOF 0
ENDMDL
MODEL 9
REMARK VINA RESULT:    -1.128     19.410     19.410
REMARK INTER + INTRA:          -1.128
REMARK INTER:                  -1.128
REMARK INTRA:                   0.000
REMARK UNBOUND:                 0.000
ROOT
REMARK  Name = nitric oxide
REMARK                            x       y       z     vdW  Elec       q    Type
REMARK                         _______ _______ _______ _____ _____    ______ ____
ATOM      1  N   UNL     1      59.405  61.931  65.991  0.00  0.00    +0.000 NA
ATOM      2  O   UNL     1      58.935  62.302  66.559  0.00  0.00    +0.000 OA
ENDROOT
TORSDOF 0
ENDMDL
