MODEL 1
REMARK VINA RESULT:   -10.116      0.000      0.000
REMARK INTER + INTRA:         -10.116
REMARK INTER:                 -10.116
REMARK INTRA:                   0.000
REMARK UNBOUND:                 0.000
ROOT
REMARK  Name = nitrazepam
REMARK                            x       y       z     vdW  Elec       q    Type
REMARK                         _______ _______ _______ _____ _____    ______ ____
ATOM      1  O   UNL     1      60.658  61.883  68.472  0.00  0.00    +0.000 OA
ATOM      2  N   UNL     1      60.704  62.249  69.209  0.00  0.00    +0.000 N 
ATOM      3  O   UNL     1      60.986  61.830  69.861  0.00  0.00    +0.000 OA
ATOM      4  C   UNL     1      60.467  63.035  69.296  0.00  0.00    +0.000 A 
ATOM      5  C   UNL     1      60.184  63.454  68.644  0.00  0.00    +0.000 A 
ATOM      6  C   UNL     1      59.947  64.239  68.729  0.00  0.00    +0.000 A 
ATOM      7  C   UNL     1      59.992  64.606  69.468  0.00  0.00    +0.000 A 
ATOM      8  N   UNL     1      59.729  65.387  69.433  0.00  0.00    +0.000 NA
ATOM      9  C   UNL     1      59.684  65.942  70.042  0.00  0.00    +0.000 C 
ATOM     10  O   UNL     1      59.394  66.684  69.828  0.00  0.00    +0.000 OA
ATOM     11  C   UNL     1      59.891  65.853  70.835  0.00  0.00    +0.000 C 
ATOM     12  N   UNL     1      60.193  65.187  71.216  0.00  0.00    +0.000 NA
ATOM     13  C   UNL     1      60.364  64.445  70.898  0.00  0.00    +0.000 C 
ATOM     14  C   UNL     1      60.664  63.888  71.427  0.00  0.00    +0.000 A 
ATOM     15  C   UNL     1      60.776  64.091  72.220  0.00  0.00    +0.000 A 
ATOM     16  C   UNL     1      61.076  63.534  72.749  0.00  0.00    +0.000 A 
ATOM     17  C   UNL     1      61.265  62.775  72.487  0.00  0.00    +0.000 A 
ATOM     18  C   UNL     1      61.154  62.573  71.695  0.00  0.00    +0.000 A 
ATOM     19  C   UNL     1      60.854  63.129  71.165  0.00  0.00    +0.000 A 
ATOM     20  C   UNL     1      60.275  64.187  70.120  0.00  0.00    +0.000 A 
ATOM     21  C   UNL     1      60.512  63.401  70.033  0.00  0.00    +0.000 A 
ENDROOT
TORSDOF 0
ENDMDL
MODEL 2
REMARK VINA RESULT:   -10.055      0.971      2.729
REMARK INTER + INTRA:         -10.055
REMARK INTER:                 -10.055
REMARK INTRA:                   0.000
REMARK UNBOUND:                 0.000
ROOT
REMARK  Name = nitrazepam
REMARK                            x       y       z     vdW  Elec       q    Type
REMARK                         _______ _______ _______ _____ _____    ______ ____
ATOM      1  O   UNL     1      60.013  66.168  71.138  0.00  0.00    +0.000 OA
ATOM      2  N   UNL     1      60.278  65.397  71.261  0.00  0.00    +0.000 N 
ATOM      3  O   UNL     1      60.576  65.175  71.997  0.00  0.00    +0.000 OA
ATOM      4  C   UNL     1      60.245  64.846  70.647  0.00  0.00    +0.000 A 
ATOM      5  C   UNL     1      59.947  65.067  69.910  0.00  0.00    +0.000 A 
ATOM      6  C   UNL     1      59.913  64.518  69.296  0.00  0.00    +0.000 A 
ATOM      7  C   UNL     1      60.179  63.746  69.419  0.00  0.00    +0.000 A 
ATOM      8  N   UNL     1      60.097  63.287  68.738  0.00  0.00    +0.000 NA
ATOM      9  C   UNL     1      60.294  62.494  68.626  0.00  0.00    +0.000 C 
ATOM     10  O   UNL     1      60.145  62.192  67.873  0.00  0.00    +0.000 OA
ATOM     11  C   UNL     1      60.621  61.964  69.166  0.00  0.00    +0.000 C 
ATOM     12  N   UNL     1      60.831  62.095  69.953  0.00  0.00    +0.000 NA
ATOM     13  C   UNL     1      60.767  62.790  70.394  0.00  0.00    +0.000 C 
ATOM     14  C   UNL     1      61.028  62.744  71.175  0.00  0.00    +0.000 A 
ATOM     15  C   UNL     1      61.329  62.034  71.469  0.00  0.00    +0.000 A 
ATOM     16  C   UNL     1      61.590  61.988  72.250  0.00  0.00    +0.000 A 
ATOM     17  C   UNL     1      61.550  62.652  72.738  0.00  0.00    +0.000 A 
ATOM     18  C   UNL     1      61.249  63.362  72.445  0.00  0.00    +0.000 A 
ATOM     19  C   UNL     1      60.988  63.408  71.663  0.00  0.00    +0.000 A 
ATOM     20  C   UNL     1      60.477  63.524  70.156  0.00  0.00    +0.000 A 
ATOM     21  C   UNL     1      60.510  64.075  70.770  0.00  0.00    +0.000 A 
ENDROOT
TORSDOF 0
ENDMDL
MODEL 3
REMARK VINA RESULT:    -9.918      1.265      2.602
REMARK INTER + INTRA:          -9.918
REMARK INTER:                  -9.918
REMARK INTRA:                   0.000
REMARK UNBOUND:                 0.000
ROOT
REMARK  Name = nitrazepam
REMARK                            x       y       z     vdW  Elec       q    Type
REMARK                         _______ _______ _______ _____ _____    ______ ____
ATOM      1  O   UNL     1      61.633  62.447  73.128  0.00  0.00    +0.000 OA
ATOM      2  N   UNL     1      61.372  62.543  72.352  0.00  0.00    +0.000 N 
ATOM      3  O   UNL     1      61.441  61.921  71.814  0.00  0.00    +0.000 OA
ATOM      4  C   UNL     1      61.043  63.261  72.111  0.00  0.00    +0.000 A 
ATOM      5  C   UNL     1      60.975  63.883  72.649  0.00  0.00    +0.000 A 
ATOM      6  C   UNL     1      60.646  64.601  72.410  0.00  0.00    +0.000 A 
ATOM      7  C   UNL     1      60.386  64.697  71.633  0.00  0.00    +0.000 A 
ATOM      8  N   UNL     1      60.077  65.452  71.510  0.00  0.00    +0.000 NA
ATOM      9  C   UNL     1      59.761  65.771  70.818  0.00  0.00    +0.000 C 
ATOM     10  O   UNL     1      59.496  66.550  70.873  0.00  0.00    +0.000 OA
ATOM     11  C   UNL     1      59.675  65.415  70.079  0.00  0.00    +0.000 C 
ATOM     12  N   UNL     1      59.884  64.651  69.850  0.00  0.00    +0.000 NA
ATOM     13  C   UNL     1      60.231  64.054  70.301  0.00  0.00    +0.000 C 
ATOM     14  C   UNL     1      60.373  63.343  69.908  0.00  0.00    +0.000 A 
ATOM     15  C   UNL     1      60.171  63.264  69.112  0.00  0.00    +0.000 A 
ATOM     16  C   UNL     1      60.313  62.553  68.719  0.00  0.00    +0.000 A 
ATOM     17  C   UNL     1      60.658  61.921  69.121  0.00  0.00    +0.000 A 
ATOM     18  C   UNL     1      60.861  62.000  69.917  0.00  0.00    +0.000 A 
ATOM     19  C   UNL     1      60.719  62.711  70.310  0.00  0.00    +0.000 A 
ATOM     20  C   UNL     1      60.454  64.075  71.095  0.00  0.00    +0.000 A 
ATOM     21  C   UNL     1      60.783  63.357  71.335  0.00  0.00    +0.000 A 
ENDROOT
TORSDOF 0
ENDMDL
MODEL 4
REMARK VINA RESULT:    -9.881      4.350      5.443
REMARK INTER + INTRA:          -9.881
REMARK INTER:                  -9.881
REMARK INTRA:                   0.000
REMARK UNBOUND:                 0.000
ROOT
REMARK  Name = nitrazepam
REMARK                            x       y       z     vdW  Elec       q    Type
REMARK                         _______ _______ _______ _____ _____    ______ ____
ATOM      1  O   UNL     1      62.680  67.704  73.203  0.00  0.00    +0.000 OA
ATOM      2  N   UNL     1      63.236  67.531  72.620  0.00  0.00    +0.000 N 
ATOM      3  O   UNL     1      63.856  68.055  72.474  0.00  0.00    +0.000 OA
ATOM      4  C   UNL     1      63.174  66.834  72.183  0.00  0.00    +0.000 A 
ATOM      5  C   UNL     1      62.553  66.310  72.329  0.00  0.00    +0.000 A 
ATOM      6  C   UNL     1      62.490  65.613  71.892  0.00  0.00    +0.000 A 
ATOM      7  C   UNL     1      63.047  65.440  71.309  0.00  0.00    +0.000 A 
ATOM      8  N   UNL     1      62.883  64.720  70.939  0.00  0.00    +0.000 NA
ATOM      9  C   UNL     1      63.300  64.348  70.333  0.00  0.00    +0.000 C 
ATOM     10  O   UNL     1      62.992  63.625  70.080  0.00  0.00    +0.000 OA
ATOM     11  C   UNL     1      63.982  64.602  69.945  0.00  0.00    +0.000 C 
ATOM     12  N   UNL     1      64.417  65.291  70.069  0.00  0.00    +0.000 NA
ATOM     13  C   UNL     1      64.277  65.898  70.610  0.00  0.00    +0.000 C 
ATOM     14  C   UNL     1      64.818  66.520  70.599  0.00  0.00    +0.000 A 
ATOM     15  C   UNL     1      65.450  66.509  70.067  0.00  0.00    +0.000 A 
ATOM     16  C   UNL     1      65.991  67.132  70.056  0.00  0.00    +0.000 A 
ATOM     17  C   UNL     1      65.901  67.766  70.576  0.00  0.00    +0.000 A 
ATOM     18  C   UNL     1      65.270  67.778  71.107  0.00  0.00    +0.000 A 
ATOM     19  C   UNL     1      64.729  67.155  71.118  0.00  0.00    +0.000 A 
ATOM     20  C   UNL     1      63.668  65.964  71.162  0.00  0.00    +0.000 A 
ATOM     21  C   UNL     1      63.730  66.661  71.600  0.00  0.00    +0.000 A 
ENDROOT
TORSDOF 0
ENDMDL
MODEL 5
REMARK VINA RESULT:    -9.815      2.950      3.437
REMARK INTER + INTRA:          -9.815
REMARK INTER:                  -9.815
REMARK INTRA:                   0.000
REMARK UNBOUND:                 0.000
ROOT
REMARK  Name = nitrazepam
REMARK                            x       y       z     vdW  Elec       q    Type
REMARK                         _______ _______ _______ _____ _____    ______ ____
ATOM      1  O   UNL     1      64.468  64.756  69.673  0.00  0.00    +0.000 OA
ATOM      2  N   UNL     1      63.859  64.614  70.210  0.00  0.00    +0.000 N 
ATOM      3  O   UNL     1      63.490  63.876  70.229  0.00  0.00    +0.000 OA
ATOM      4  C   UNL     1      63.617  65.209  70.728  0.00  0.00    +0.000 A 
ATOM      5  C   UNL     1      63.985  65.947  70.708  0.00  0.00    +0.000 A 
ATOM      6  C   UNL     1      63.744  66.543  71.225  0.00  0.00    +0.000 A 
ATOM      7  C   UNL     1      63.134  66.400  71.763  0.00  0.00    +0.000 A 
ATOM      8  N   UNL     1      62.980  67.065  72.227  0.00  0.00    +0.000 NA
ATOM      9  C   UNL     1      62.419  67.155  72.825  0.00  0.00    +0.000 C 
ATOM     10  O   UNL     1      62.401  67.895  73.189  0.00  0.00    +0.000 OA
ATOM     11  C   UNL     1      61.875  66.604  73.107  0.00  0.00    +0.000 C 
ATOM     12  N   UNL     1      61.756  65.826  72.860  0.00  0.00    +0.000 NA
ATOM     13  C   UNL     1      62.153  65.407  72.271  0.00  0.00    +0.000 C 
ATOM     14  C   UNL     1      61.903  64.629  72.155  0.00  0.00    +0.000 A 
ATOM     15  C   UNL     1      61.292  64.318  72.615  0.00  0.00    +0.000 A 
ATOM     16  C   UNL     1      61.043  63.541  72.498  0.00  0.00    +0.000 A 
ATOM     17  C   UNL     1      61.403  63.074  71.922  0.00  0.00    +0.000 A 
ATOM     18  C   UNL     1      62.014  63.384  71.462  0.00  0.00    +0.000 A 
ATOM     19  C   UNL     1      62.263  64.161  71.579  0.00  0.00    +0.000 A 
ATOM     20  C   UNL     1      62.766  65.662  71.783  0.00  0.00    +0.000 A 
ATOM     21  C   UNL     1      63.008  65.067  71.265  0.00  0.00    +0.000 A 
ENDROOT
TORSDOF 0
ENDMDL
MODEL 6
REMARK VINA RESULT:    -9.801      2.845      3.680
REMARK INTER + INTRA:          -9.801
REMARK INTER:                  -9.801
REMARK INTRA:                   0.000
REMARK UNBOUND:                 0.000
ROOT
REMARK  Name = nitrazepam
REMARK                            x       y       z     vdW  Elec       q    Type
REMARK                         _______ _______ _______ _____ _____    ______ ____
ATOM      1  O   UNL     1      57.820  65.453  72.751  0.00  0.00    +0.000 OA
ATOM      2  N   UNL     1      58.586  65.159  72.670  0.00  0.00    +0.000 N 
ATOM      3  O   UNL     1      58.705  64.364  72.487  0.00  0.00    +0.000 OA
ATOM      4  C   UNL     1      59.234  65.660  72.772  0.00  0.00    +0.000 A 
ATOM      5  C   UNL     1      59.115  66.456  72.955  0.00  0.00    +0.000 A 
ATOM      6  C   UNL     1      59.762  66.957  73.057  0.00  0.00    +0.000 A 
ATOM      7  C   UNL     1      60.529  66.662  72.976  0.00  0.00    +0.000 A 
ATOM      8  N   UNL     1      61.092  67.252  73.100  0.00  0.00    +0.000 NA
ATOM      9  C   UNL     1      61.915  67.191  73.072  0.00  0.00    +0.000 C 
ATOM     10  O   UNL     1      62.330  67.887  73.222  0.00  0.00    +0.000 OA
ATOM     11  C   UNL     1      62.376  66.526  72.912  0.00  0.00    +0.000 C 
ATOM     12  N   UNL     1      62.129  65.758  72.742  0.00  0.00    +0.000 NA
ATOM     13  C   UNL     1      61.360  65.464  72.689  0.00  0.00    +0.000 C 
ATOM     14  C   UNL     1      61.294  64.662  72.508  0.00  0.00    +0.000 A 
ATOM     15  C   UNL     1      61.974  64.208  72.393  0.00  0.00    +0.000 A 
ATOM     16  C   UNL     1      61.908  63.406  72.212  0.00  0.00    +0.000 A 
ATOM     17  C   UNL     1      61.163  63.057  72.146  0.00  0.00    +0.000 A 
ATOM     18  C   UNL     1      60.484  63.511  72.262  0.00  0.00    +0.000 A 
ATOM     19  C   UNL     1      60.550  64.313  72.443  0.00  0.00    +0.000 A 
ATOM     20  C   UNL     1      60.648  65.867  72.794  0.00  0.00    +0.000 A 
ATOM     21  C   UNL     1      60.000  65.366  72.692  0.00  0.00    +0.000 A 
ENDROOT
TORSDOF 0
ENDMDL
MODEL 7
REMARK VINA RESULT:    -9.766      4.071      4.529
REMARK INTER + INTRA:          -9.766
REMARK INTER:                  -9.766
REMARK INTRA:                   0.000
REMARK UNBOUND:                 0.000
ROOT
REMARK  Name = nitrazepam
REMARK                            x       y       z     vdW  Elec       q    Type
REMARK                         _______ _______ _______ _____ _____    ______ ____
ATOM      1  O   UNL     1      63.213  63.764  70.215  0.00  0.00    +0.000 OA
ATOM      2  N   UNL     1      63.594  64.469  70.406  0.00  0.00    +0.000 N 
ATOM      3  O   UNL     1      64.342  64.630  70.097  0.00  0.00    +0.000 OA
ATOM      4  C   UNL     1      63.229  65.014  70.907  0.00  0.00    +0.000 A 
ATOM      5  C   UNL     1      62.481  64.853  71.216  0.00  0.00    +0.000 A 
ATOM      6  C   UNL     1      62.115  65.397  71.716  0.00  0.00    +0.000 A 
ATOM      7  C   UNL     1      62.498  66.104  71.907  0.00  0.00    +0.000 A 
ATOM      8  N   UNL     1      62.038  66.568  72.412  0.00  0.00    +0.000 NA
ATOM      9  C   UNL     1      62.214  67.307  72.732  0.00  0.00    +0.000 C 
ATOM     10  O   UNL     1      61.636  67.631  73.222  0.00  0.00    +0.000 OA
ATOM     11  C   UNL     1      62.892  67.765  72.627  0.00  0.00    +0.000 C 
ATOM     12  N   UNL     1      63.561  67.597  72.176  0.00  0.00    +0.000 NA
ATOM     13  C   UNL     1      63.719  66.930  71.718  0.00  0.00    +0.000 C 
ATOM     14  C   UNL     1      64.446  66.925  71.327  0.00  0.00    +0.000 A 
ATOM     15  C   UNL     1      64.962  67.565  71.410  0.00  0.00    +0.000 A 
ATOM     16  C   UNL     1      65.689  67.561  71.020  0.00  0.00    +0.000 A 
ATOM     17  C   UNL     1      65.900  66.918  70.547  0.00  0.00    +0.000 A 
ATOM     18  C   UNL     1      65.384  66.279  70.465  0.00  0.00    +0.000 A 
ATOM     19  C   UNL     1      64.658  66.284  70.855  0.00  0.00    +0.000 A 
ATOM     20  C   UNL     1      63.246  66.265  71.598  0.00  0.00    +0.000 A 
ATOM     21  C   UNL     1      63.611  65.720  71.098  0.00  0.00    +0.000 A 
ENDROOT
TORSDOF 0
ENDMDL
MODEL 8
REMARK VINA RESULT:    -9.534      1.256      2.792
REMARK INTER + INTRA:          -9.534
REMARK INTER:                  -9.534
REMARK INTRA:                   0.000
REMARK UNBOUND:                 0.000
ROOT
REMARK  Name = nitrazepam
REMARK                            x       y       z     vdW  Elec       q    Type
REMARK                         _______ _______ _______ _____ _____    ______ ____
ATOM      1  O   UNL     1      60.173  61.996  68.174  0.00  0.00    +0.000 OA
ATOM      2  N   UNL     1      60.168  62.656  68.669  0.00  0.00    +0.000 N 
ATOM      3  O   UNL     1      59.891  63.380  68.387  0.00  0.00    +0.000 OA
ATOM      4  C   UNL     1      60.439  62.592  69.446  0.00  0.00    +0.000 A 
ATOM      5  C   UNL     1      60.715  61.868  69.728  0.00  0.00    +0.000 A 
ATOM      6  C   UNL     1      60.987  61.803  70.504  0.00  0.00    +0.000 A 
ATOM      7  C   UNL     1      60.981  62.464  70.999  0.00  0.00    +0.000 A 
ATOM      8  N   UNL     1      61.273  62.281  71.749  0.00  0.00    +0.000 NA
ATOM      9  C   UNL     1      61.361  62.777  72.401  0.00  0.00    +0.000 C 
ATOM     10  O   UNL     1      61.673  62.425  73.079  0.00  0.00    +0.000 OA
ATOM     11  C   UNL     1      61.178  63.579  72.466  0.00  0.00    +0.000 C 
ATOM     12  N   UNL     1      60.862  64.082  71.894  0.00  0.00    +0.000 NA
ATOM     13  C   UNL     1      60.651  63.908  71.116  0.00  0.00    +0.000 C 
ATOM     14  C   UNL     1      60.347  64.537  70.677  0.00  0.00    +0.000 A 
ATOM     15  C   UNL     1      60.271  65.283  71.024  0.00  0.00    +0.000 A 
ATOM     16  C   UNL     1      59.967  65.912  70.586  0.00  0.00    +0.000 A 
ATOM     17  C   UNL     1      59.739  65.797  69.801  0.00  0.00    +0.000 A 
ATOM     18  C   UNL     1      59.815  65.052  69.455  0.00  0.00    +0.000 A 
ATOM     19  C   UNL     1      60.119  64.423  69.893  0.00  0.00    +0.000 A 
ATOM     20  C   UNL     1      60.704  63.188  70.717  0.00  0.00    +0.000 A 
ATOM     21  C   UNL     1      60.433  63.252  69.940  0.00  0.00    +0.000 A 
ENDROOT
TORSDOF 0
ENDMDL
MODEL 9
REMARK VINA RESULT:    -9.414      3.860      4.626
REMARK INTER + INTRA:          -9.414
REMARK INTER:                  -9.414
REMARK INTRA:                   0.000
REMARK UNBOUND:                 0.000
ROOT
REMARK  Name = nitrazepam
REMARK                            x       y       z     vdW  Elec       q    Type
REMARK                         _______ _______ _______ _____ _____    ______ ____
ATOM      1  O   UNL     1      65.765  66.870  69.833  0.00  0.00    +0.000 OA
ATOM      2  N   UNL     1      65.144  66.823  70.373  0.00  0.00    +0.000 N 
ATOM      3  O   UNL     1      65.013  67.441  70.904  0.00  0.00    +0.000 OA
ATOM      4  C   UNL     1      64.654  66.159  70.384  0.00  0.00    +0.000 A 
ATOM      5  C   UNL     1      64.786  65.542  69.853  0.00  0.00    +0.000 A 
ATOM      6  C   UNL     1      64.297  64.878  69.863  0.00  0.00    +0.000 A 
ATOM      7  C   UNL     1      63.675  64.831  70.404  0.00  0.00    +0.000 A 
ATOM      8  N   UNL     1      63.256  64.125  70.321  0.00  0.00    +0.000 NA
ATOM      9  C   UNL     1      62.602  63.863  70.750  0.00  0.00    +0.000 C 
ATOM     10  O   UNL     1      62.305  63.125  70.533  0.00  0.00    +0.000 OA
ATOM     11  C   UNL     1      62.205  64.242  71.366  0.00  0.00    +0.000 C 
ATOM     12  N   UNL     1      62.365  64.976  71.706  0.00  0.00    +0.000 NA
ATOM     13  C   UNL     1      62.960  65.513  71.515  0.00  0.00    +0.000 C 
ATOM     14  C   UNL     1      62.975  66.206  71.961  0.00  0.00    +0.000 A 
ATOM     15  C   UNL     1      62.416  66.326  72.556  0.00  0.00    +0.000 A 
ATOM     16  C   UNL     1      62.430  67.020  73.003  0.00  0.00    +0.000 A 
ATOM     17  C   UNL     1      63.004  67.593  72.855  0.00  0.00    +0.000 A 
ATOM     18  C   UNL     1      63.564  67.474  72.261  0.00  0.00    +0.000 A 
ATOM     19  C   UNL     1      63.549  66.781  71.814  0.00  0.00    +0.000 A 
ATOM     20  C   UNL     1      63.544  65.449  70.935  0.00  0.00    +0.000 A 
ATOM     21  C   UNL     1      64.034  66.113  70.925  0.00  0.00    +0.000 A 
ENDROOT
TORSDOF 0
ENDMDL
