MODEL 1
REMARK VINA RESULT:    -7.367      0.000      0.000
REMARK INTER + INTRA:          -7.367
REMARK INTER:                  -7.367
REMARK INTRA:                   0.000
REMARK UNBOUND:                 0.000
ROOT
REMARK  Name = nitrofurazone
REMARK                            x       y       z     vdW  Elec       q    Type
REMARK                         _______ _______ _______ _____ _____    ______ ____
ATOM      1  N   UNL     1      60.759  63.459  68.825  0.00  0.00    +0.000 NA
ATOM      2  C   UNL     1      61.205  63.299  68.150  0.00  0.00    +0.000 C 
ATOM      3  O   UNL     1      61.988  63.554  68.105  0.00  0.00    +0.000 OA
ATOM      4  N   UNL     1      60.868  62.884  67.522  0.00  0.00    +0.000 NA
ATOM      5  N   UNL     1      61.315  62.724  66.847  0.00  0.00    +0.000 NA
ATOM      6  C   UNL     1      60.979  62.310  66.218  0.00  0.00    +0.000 C 
ATOM      7  C   UNL     1      61.425  62.150  65.543  0.00  0.00    +0.000 A 
ATOM      8  C   UNL     1      62.211  62.368  65.418  0.00  0.00    +0.000 A 
ATOM      9  C   UNL     1      62.435  62.097  64.673  0.00  0.00    +0.000 A 
ATOM     10  C   UNL     1      61.789  61.711  64.336  0.00  0.00    +0.000 A 
ATOM     11  O   UNL     1      61.164  61.743  64.874  0.00  0.00    +0.000 OA
ATOM     12  N   UNL     1      61.770  61.354  63.592  0.00  0.00    +0.000 N 
ATOM     13  O   UNL     1      62.441  61.366  63.113  0.00  0.00    +0.000 OA
ATOM     14  O   UNL     1      61.081  60.987  63.328  0.00  0.00    +0.000 OA
ENDROOT
TORSDOF 0
ENDMDL
MODEL 2
REMARK VINA RESULT:    -6.975      1.040      4.214
REMARK INTER + INTRA:          -6.975
REMARK INTER:                  -6.975
REMARK INTRA:                   0.000
REMARK UNBOUND:                 0.000
ROOT
REMARK  Name = nitrofurazone
REMARK                            x       y       z     vdW  Elec       q    Type
REMARK                         _______ _______ _______ _____ _____    ______ ____
ATOM      1  N   UNL     1      62.411  61.625  63.443  0.00  0.00    +0.000 NA
ATOM      2  C   UNL     1      61.958  61.658  64.132  0.00  0.00    +0.000 C 
ATOM      3  O   UNL     1      61.247  61.243  64.177  0.00  0.00    +0.000 OA
ATOM      4  N   UNL     1      62.218  62.105  64.775  0.00  0.00    +0.000 NA
ATOM      5  N   UNL     1      61.765  62.138  65.464  0.00  0.00    +0.000 NA
ATOM      6  C   UNL     1      62.024  62.585  66.107  0.00  0.00    +0.000 C 
ATOM      7  C   UNL     1      61.571  62.617  66.796  0.00  0.00    +0.000 A 
ATOM      8  C   UNL     1      60.852  62.234  66.922  0.00  0.00    +0.000 A 
ATOM      9  C   UNL     1      60.595  62.418  67.683  0.00  0.00    +0.000 A 
ATOM     10  C   UNL     1      61.155  62.916  68.028  0.00  0.00    +0.000 A 
ATOM     11  O   UNL     1      61.758  63.039  67.480  0.00  0.00    +0.000 OA
ATOM     12  N   UNL     1      61.118  63.235  68.789  0.00  0.00    +0.000 N 
ATOM     13  O   UNL     1      60.477  63.061  69.277  0.00  0.00    +0.000 OA
ATOM     14  O   UNL     1      61.722  63.726  69.060  0.00  0.00    +0.000 OA
ENDROOT
TORSDOF 0
ENDMDL
MODEL 3
REMARK VINA RESULT:    -6.360      1.938      2.614
REMARK INTER + INTRA:          -6.360
REMARK INTER:                  -6.360
REMARK INTRA:                   0.000
REMARK UNBOUND:                 0.000
ROOT
REMARK  Name = nitrofurazone
REMARK                            x       y       z     vdW  Elec       q    Type
REMARK                         _______ _______ _______ _____ _____    ______ ____
ATOM      1  N   UNL     1      62.489  64.862  70.269  0.00  0.00    +0.000 NA
ATOM      2  C   UNL     1      62.430  64.430  69.569  0.00  0.00    +0.000 C 
ATOM      3  O   UNL     1      63.109  64.247  69.139  0.00  0.00    +0.000 OA
ATOM      4  N   UNL     1      61.690  64.182  69.299  0.00  0.00    +0.000 NA
ATOM      5  N   UNL     1      61.631  63.750  68.598  0.00  0.00    +0.000 NA
ATOM      6  C   UNL     1      60.893  63.501  68.328  0.00  0.00    +0.000 C 
ATOM      7  C   UNL     1      60.834  63.069  67.627  0.00  0.00    +0.000 A 
ATOM      8  C   UNL     1      61.461  62.845  67.141  0.00  0.00    +0.000 A 
ATOM      9  C   UNL     1      61.152  62.423  66.504  0.00  0.00    +0.000 A 
ATOM     10  C   UNL     1      60.333  62.386  66.596  0.00  0.00    +0.000 A 
ATOM     11  O   UNL     1      60.136  62.785  67.290  0.00  0.00    +0.000 OA
ATOM     12  N   UNL     1      59.803  62.014  66.084  0.00  0.00    +0.000 N 
ATOM     13  O   UNL     1      60.083  61.635  65.407  0.00  0.00    +0.000 OA
ATOM     14  O   UNL     1      58.995  62.022  66.248  0.00  0.00    +0.000 OA
ENDROOT
TORSDOF 0
ENDMDL
MODEL 4
REMARK VINA RESULT:    -6.328      4.993      6.609
REMARK INTER + INTRA:          -6.328
REMARK INTER:                  -6.328
REMARK INTRA:                   0.000
REMARK UNBOUND:                 0.000
ROOT
REMARK  Name = nitrofurazone
REMARK                            x       y       z     vdW  Elec       q    Type
REMARK                         _______ _______ _______ _____ _____    ______ ____
ATOM      1  N   UNL     1      66.620  68.003  69.851  0.00  0.00    +0.000 NA
ATOM      2  C   UNL     1      66.126  67.434  70.184  0.00  0.00    +0.000 C 
ATOM      3  O   UNL     1      66.159  67.282  70.994  0.00  0.00    +0.000 OA
ATOM      4  N   UNL     1      65.598  67.016  69.707  0.00  0.00    +0.000 NA
ATOM      5  N   UNL     1      65.103  66.446  70.041  0.00  0.00    +0.000 NA
ATOM      6  C   UNL     1      64.575  66.028  69.564  0.00  0.00    +0.000 C 
ATOM      7  C   UNL     1      64.080  65.458  69.898  0.00  0.00    +0.000 A 
ATOM      8  C   UNL     1      64.051  65.247  70.695  0.00  0.00    +0.000 A 
ATOM      9  C   UNL     1      63.481  64.658  70.782  0.00  0.00    +0.000 A 
ATOM     10  C   UNL     1      63.157  64.505  70.039  0.00  0.00    +0.000 A 
ATOM     11  O   UNL     1      63.527  64.999  69.492  0.00  0.00    +0.000 OA
ATOM     12  N   UNL     1      62.566  63.953  69.872  0.00  0.00    +0.000 N 
ATOM     13  O   UNL     1      62.247  63.496  70.479  0.00  0.00    +0.000 OA
ATOM     14  O   UNL     1      62.295  63.860  69.099  0.00  0.00    +0.000 OA
ENDROOT
TORSDOF 0
ENDMDL
MODEL 5
REMARK VINA RESULT:    -6.211      5.885      6.842
REMARK INTER + INTRA:          -6.211
REMARK INTER:                  -6.211
REMARK INTRA:                   0.000
REMARK UNBOUND:                 0.000
ROOT
REMARK  Name = nitrofurazone
REMARK                            x       y       z     vdW  Elec       q    Type
REMARK                         _______ _______ _______ _____ _____    ______ ____
ATOM      1  N   UNL     1      58.569  67.175  72.585  0.00  0.00    +0.000 NA
ATOM      2  C   UNL     1      59.101  66.546  72.630  0.00  0.00    +0.000 C 
ATOM      3  O   UNL     1      59.730  66.576  73.163  0.00  0.00    +0.000 OA
ATOM      4  N   UNL     1      59.005  65.889  72.141  0.00  0.00    +0.000 NA
ATOM      5  N   UNL     1      59.537  65.260  72.186  0.00  0.00    +0.000 NA
ATOM      6  C   UNL     1      59.442  64.602  71.698  0.00  0.00    +0.000 C 
ATOM      7  C   UNL     1      59.975  63.974  71.743  0.00  0.00    +0.000 A 
ATOM      8  C   UNL     1      60.626  63.926  72.246  0.00  0.00    +0.000 A 
ATOM      9  C   UNL     1      61.003  63.206  72.107  0.00  0.00    +0.000 A 
ATOM     10  C   UNL     1      60.585  62.809  71.517  0.00  0.00    +0.000 A 
ATOM     11  O   UNL     1      59.949  63.283  71.292  0.00  0.00    +0.000 OA
ATOM     12  N   UNL     1      60.770  62.067  71.207  0.00  0.00    +0.000 N 
ATOM     13  O   UNL     1      61.427  61.655  71.488  0.00  0.00    +0.000 OA
ATOM     14  O   UNL     1      60.299  61.737  70.616  0.00  0.00    +0.000 OA
ENDROOT
TORSDOF 0
ENDMDL
MODEL 6
REMARK VINA RESULT:    -6.160     18.316     18.616
REMARK INTER + INTRA:          -6.160
REMARK INTER:                  -6.160
REMARK INTRA:                   0.000
REMARK UNBOUND:                 0.000
ROOT
REMARK  Name = nitrofurazone
REMARK                            x       y       z     vdW  Elec       q    Type
REMARK                         _______ _______ _______ _____ _____    ______ ____
ATOM      1  N   UNL     1      63.726  81.604  57.592  0.00  0.00    +0.000 NA
ATOM      2  C   UNL     1      64.341  81.106  57.823  0.00  0.00    +0.000 C 
ATOM      3  O   UNL     1      65.118  81.286  57.614  0.00  0.00    +0.000 OA
ATOM      4  N   UNL     1      64.179  80.428  58.264  0.00  0.00    +0.000 NA
ATOM      5  N   UNL     1      64.794  79.929  58.495  0.00  0.00    +0.000 NA
ATOM      6  C   UNL     1      64.633  79.251  58.936  0.00  0.00    +0.000 C 
ATOM      7  C   UNL     1      65.248  78.753  59.167  0.00  0.00    +0.000 A 
ATOM      8  C   UNL     1      66.049  78.861  59.000  0.00  0.00    +0.000 A 
ATOM      9  C   UNL     1      66.466  78.234  59.336  0.00  0.00    +0.000 A 
ATOM     10  C   UNL     1      65.923  77.738  59.711  0.00  0.00    +0.000 A 
ATOM     11  O   UNL     1      65.171  78.059  59.607  0.00  0.00    +0.000 OA
ATOM     12  N   UNL     1      66.103  77.043  60.119  0.00  0.00    +0.000 N 
ATOM     13  O   UNL     1      66.885  76.790  60.178  0.00  0.00    +0.000 OA
ATOM     14  O   UNL     1      65.500  76.603  60.468  0.00  0.00    +0.000 OA
ENDROOT
TORSDOF 0
ENDMDL
MODEL 7
REMARK VINA RESULT:    -6.132      2.100      5.231
REMARK INTER + INTRA:          -6.132
REMARK INTER:                  -6.132
REMARK INTRA:                   0.000
REMARK UNBOUND:                 0.000
ROOT
REMARK  Name = nitrofurazone
REMARK                            x       y       z     vdW  Elec       q    Type
REMARK                         _______ _______ _______ _____ _____    ______ ____
ATOM      1  N   UNL     1      61.657  61.703  66.074  0.00  0.00    +0.000 NA
ATOM      2  C   UNL     1      61.383  62.360  66.490  0.00  0.00    +0.000 C 
ATOM      3  O   UNL     1      61.269  63.077  66.099  0.00  0.00    +0.000 OA
ATOM      4  N   UNL     1      61.223  62.300  67.297  0.00  0.00    +0.000 NA
ATOM      5  N   UNL     1      60.948  62.957  67.713  0.00  0.00    +0.000 NA
ATOM      6  C   UNL     1      60.787  62.898  68.520  0.00  0.00    +0.000 C 
ATOM      7  C   UNL     1      60.513  63.555  68.936  0.00  0.00    +0.000 A 
ATOM      8  C   UNL     1      60.373  64.304  68.621  0.00  0.00    +0.000 A 
ATOM      9  C   UNL     1      60.103  64.791  69.230  0.00  0.00    +0.000 A 
ATOM     10  C   UNL     1      60.077  64.342  69.922  0.00  0.00    +0.000 A 
ATOM     11  O   UNL     1      60.330  63.578  69.741  0.00  0.00    +0.000 OA
ATOM     12  N   UNL     1      59.839  64.610  70.665  0.00  0.00    +0.000 N 
ATOM     13  O   UNL     1      59.599  65.393  70.763  0.00  0.00    +0.000 OA
ATOM     14  O   UNL     1      59.841  64.096  71.310  0.00  0.00    +0.000 OA
ENDROOT
TORSDOF 0
ENDMDL
MODEL 8
REMARK VINA RESULT:    -6.039     12.167     12.746
REMARK INTER + INTRA:          -6.039
REMARK INTER:                  -6.039
REMARK INTRA:                   0.000
REMARK UNBOUND:                 0.000
ROOT
REMARK  Name = nitrofurazone
REMARK                            x       y       z     vdW  Elec       q    Type
REMARK                         _______ _______ _______ _____ _____    ______ ____
ATOM      1  N   UNL     1      66.112  64.005  53.744  0.00  0.00    +0.000 NA
ATOM      2  C   UNL     1      65.767  63.320  53.441  0.00  0.00    +0.000 C 
ATOM      3  O   UNL     1      65.860  63.130  52.644  0.00  0.00    +0.000 OA
ATOM      4  N   UNL     1      65.327  62.826  53.935  0.00  0.00    +0.000 NA
ATOM      5  N   UNL     1      64.982  62.142  53.632  0.00  0.00    +0.000 NA
ATOM      6  C   UNL     1      64.542  61.647  54.125  0.00  0.00    +0.000 C 
ATOM      7  C   UNL     1      64.197  60.962  53.821  0.00  0.00    +0.000 A 
ATOM      8  C   UNL     1      64.242  60.701  53.040  0.00  0.00    +0.000 A 
ATOM      9  C   UNL     1      63.818  59.997  52.982  0.00  0.00    +0.000 A 
ATOM     10  C   UNL     1      63.511  59.822  53.727  0.00  0.00    +0.000 A 
ATOM     11  O   UNL     1      63.744  60.418  54.246  0.00  0.00    +0.000 OA
ATOM     12  N   UNL     1      63.050  59.164  53.920  0.00  0.00    +0.000 N 
ATOM     13  O   UNL     1      62.859  58.610  53.339  0.00  0.00    +0.000 OA
ATOM     14  O   UNL     1      62.780  59.061  54.692  0.00  0.00    +0.000 OA
ENDROOT
TORSDOF 0
ENDMDL
MODEL 9
REMARK VINA RESULT:    -5.911      4.633      5.344
REMARK INTER + INTRA:          -5.911
REMARK INTER:                  -5.911
REMARK INTRA:                   0.000
REMARK UNBOUND:                 0.000
ROOT
REMARK  Name = nitrofurazone
REMARK                            x       y       z     vdW  Elec       q    Type
REMARK                         _______ _______ _______ _____ _____    ______ ____
ATOM      1  N   UNL     1      63.967  66.331  70.011  0.00  0.00    +0.000 NA
ATOM      2  C   UNL     1      63.541  65.711  70.350  0.00  0.00    +0.000 C 
ATOM      3  O   UNL     1      63.579  65.582  71.163  0.00  0.00    +0.000 OA
ATOM      4  N   UNL     1      63.078  65.221  69.875  0.00  0.00    +0.000 NA
ATOM      5  N   UNL     1      62.652  64.602  70.213  0.00  0.00    +0.000 NA
ATOM      6  C   UNL     1      62.188  64.111  69.739  0.00  0.00    +0.000 C 
ATOM      7  C   UNL     1      61.762  63.491  70.078  0.00  0.00    +0.000 A 
ATOM      8  C   UNL     1      61.746  63.295  70.879  0.00  0.00    +0.000 A 
ATOM      9  C   UNL     1      61.252  62.641  70.971  0.00  0.00    +0.000 A 
ATOM     10  C   UNL     1      60.962  62.433  70.227  0.00  0.00    +0.000 A 
ATOM     11  O   UNL     1      61.277  62.958  69.675  0.00  0.00    +0.000 OA
ATOM     12  N   UNL     1      60.447  61.809  70.064  0.00  0.00    +0.000 N 
ATOM     13  O   UNL     1      60.176  61.328  70.676  0.00  0.00    +0.000 OA
ATOM     14  O   UNL     1      60.204  61.667  69.289  0.00  0.00    +0.000 OA
ENDROOT
TORSDOF 0
ENDMDL
