MODEL 1
REMARK VINA RESULT:   -13.012      0.000      0.000
REMARK INTER + INTRA:         -13.012
REMARK INTER:                 -13.012
REMARK INTRA:                   0.000
REMARK UNBOUND:                 0.000
ROOT
REMARK  Name = norgestrienone
REMARK                            x       y       z     vdW  Elec       q    Type
REMARK                         _______ _______ _______ _____ _____    ______ ____
ATOM      1  C   UNL     1      61.986  61.878  64.522  0.00  0.00    +0.000 C 
ATOM      2  C   UNL     1      61.311  61.809  64.990  0.00  0.00    +0.000 C 
ATOM      3  C   UNL     1      61.918  62.246  65.339  0.00  0.00    +0.000 C 
ATOM      4  C   UNL     1      61.815  62.567  66.092  0.00  0.00    +0.000 C 
ATOM      5  C   UNL     1      61.106  62.452  66.497  0.00  0.00    +0.000 C 
ATOM      6  C   UNL     1      61.002  62.773  67.250  0.00  0.00    +0.000 C 
ATOM      7  C   UNL     1      61.609  63.210  67.598  0.00  0.00    +0.000 C 
ATOM      8  C   UNL     1      61.507  63.532  68.351  0.00  0.00    +0.000 C 
ATOM      9  C   UNL     1      60.797  63.416  68.755  0.00  0.00    +0.000 C 
ATOM     10  O   UNL     1      60.694  63.737  69.508  0.00  0.00    +0.000 OA
ATOM     11  C   UNL     1      60.190  62.979  68.406  0.00  0.00    +0.000 C 
ATOM     12  C   UNL     1      60.292  62.657  67.654  0.00  0.00    +0.000 C 
ATOM     13  C   UNL     1      59.686  62.220  67.305  0.00  0.00    +0.000 C 
ATOM     14  C   UNL     1      59.789  61.899  66.552  0.00  0.00    +0.000 C 
ATOM     15  C   UNL     1      60.499  62.015  66.148  0.00  0.00    +0.000 C 
ATOM     16  C   UNL     1      60.602  61.694  65.395  0.00  0.00    +0.000 C 
ATOM     17  C   UNL     1      60.106  61.241  64.915  0.00  0.00    +0.000 C 
ATOM     18  C   UNL     1      60.509  61.078  64.215  0.00  0.00    +0.000 C 
ATOM     19  C   UNL     1      61.254  61.429  64.261  0.00  0.00    +0.000 C 
ATOM     20  O   UNL     1      61.520  61.185  63.519  0.00  0.00    +0.000 OA
ATOM     21  C   UNL     1      62.007  61.629  63.990  0.00  0.00    +0.000 C 
ATOM     22  C   UNL     1      62.760  61.829  63.720  0.00  0.00    +0.000 C 
ENDROOT
TORSDOF 0
ENDMDL
MODEL 2
REMARK VINA RESULT:   -12.803      0.544      3.815
REMARK INTER + INTRA:         -12.803
REMARK INTER:                 -12.803
REMARK INTRA:                   0.000
REMARK UNBOUND:                 0.000
ROOT
REMARK  Name = norgestrienone
REMARK                            x       y       z     vdW  Elec       q    Type
REMARK                         _______ _______ _______ _____ _____    ______ ____
ATOM      1  C   UNL     1      61.336  63.240  67.825  0.00  0.00    +0.000 C 
ATOM      2  C   UNL     1      60.891  62.795  67.293  0.00  0.00    +0.000 C 
ATOM      3  C   UNL     1      61.654  62.967  67.030  0.00  0.00    +0.000 C 
ATOM      4  C   UNL     1      61.907  62.697  66.293  0.00  0.00    +0.000 C 
ATOM      5  C   UNL     1      61.399  62.255  65.818  0.00  0.00    +0.000 C 
ATOM      6  C   UNL     1      61.651  61.985  65.080  0.00  0.00    +0.000 C 
ATOM      7  C   UNL     1      62.415  62.158  64.818  0.00  0.00    +0.000 C 
ATOM      8  C   UNL     1      62.668  61.888  64.081  0.00  0.00    +0.000 C 
ATOM      9  C   UNL     1      62.159  61.446  63.606  0.00  0.00    +0.000 C 
ATOM     10  O   UNL     1      62.412  61.177  62.869  0.00  0.00    +0.000 OA
ATOM     11  C   UNL     1      61.395  61.274  63.868  0.00  0.00    +0.000 C 
ATOM     12  C   UNL     1      61.142  61.543  64.605  0.00  0.00    +0.000 C 
ATOM     13  C   UNL     1      60.379  61.371  64.868  0.00  0.00    +0.000 C 
ATOM     14  C   UNL     1      60.126  61.641  65.605  0.00  0.00    +0.000 C 
ATOM     15  C   UNL     1      60.635  62.083  66.080  0.00  0.00    +0.000 C 
ATOM     16  C   UNL     1      60.382  62.353  66.817  0.00  0.00    +0.000 C 
ATOM     17  C   UNL     1      59.666  62.270  67.220  0.00  0.00    +0.000 C 
ATOM     18  C   UNL     1      59.734  62.660  67.943  0.00  0.00    +0.000 C 
ATOM     19  C   UNL     1      60.490  62.985  67.988  0.00  0.00    +0.000 C 
ATOM     20  O   UNL     1      60.403  63.325  68.734  0.00  0.00    +0.000 OA
ATOM     21  C   UNL     1      61.105  63.407  68.340  0.00  0.00    +0.000 C 
ATOM     22  C   UNL     1      61.721  63.829  68.691  0.00  0.00    +0.000 C 
ENDROOT
TORSDOF 0
ENDMDL
MODEL 3
REMARK VINA RESULT:   -11.930      2.823      5.912
REMARK INTER + INTRA:         -11.930
REMARK INTER:                 -11.930
REMARK INTRA:                   0.000
REMARK UNBOUND:                 0.000
ROOT
REMARK  Name = norgestrienone
REMARK                            x       y       z     vdW  Elec       q    Type
REMARK                         _______ _______ _______ _____ _____    ______ ____
ATOM      1  C   UNL     1      61.579  64.348  71.926  0.00  0.00    +0.000 C 
ATOM      2  C   UNL     1      61.368  63.586  71.693  0.00  0.00    +0.000 C 
ATOM      3  C   UNL     1      61.314  64.147  71.091  0.00  0.00    +0.000 C 
ATOM      4  C   UNL     1      61.067  63.920  70.337  0.00  0.00    +0.000 C 
ATOM      5  C   UNL     1      60.873  63.134  70.185  0.00  0.00    +0.000 C 
ATOM      6  C   UNL     1      60.626  62.907  69.431  0.00  0.00    +0.000 C 
ATOM      7  C   UNL     1      60.573  63.468  68.829  0.00  0.00    +0.000 C 
ATOM      8  C   UNL     1      60.325  63.242  68.075  0.00  0.00    +0.000 C 
ATOM      9  C   UNL     1      60.132  62.454  67.924  0.00  0.00    +0.000 C 
ATOM     10  O   UNL     1      59.885  62.228  67.170  0.00  0.00    +0.000 OA
ATOM     11  C   UNL     1      60.185  61.893  68.526  0.00  0.00    +0.000 C 
ATOM     12  C   UNL     1      60.432  62.119  69.280  0.00  0.00    +0.000 C 
ATOM     13  C   UNL     1      60.486  61.559  69.882  0.00  0.00    +0.000 C 
ATOM     14  C   UNL     1      60.733  61.785  70.636  0.00  0.00    +0.000 C 
ATOM     15  C   UNL     1      60.926  62.572  70.787  0.00  0.00    +0.000 C 
ATOM     16  C   UNL     1      61.174  62.798  71.541  0.00  0.00    +0.000 C 
ATOM     17  C   UNL     1      61.279  62.371  72.240  0.00  0.00    +0.000 C 
ATOM     18  C   UNL     1      61.537  62.895  72.822  0.00  0.00    +0.000 C 
ATOM     19  C   UNL     1      61.592  63.645  72.484  0.00  0.00    +0.000 C 
ATOM     20  O   UNL     1      61.851  64.036  73.163  0.00  0.00    +0.000 OA
ATOM     21  C   UNL     1      61.748  64.455  72.479  0.00  0.00    +0.000 C 
ATOM     22  C   UNL     1      61.904  65.265  72.472  0.00  0.00    +0.000 C 
ENDROOT
TORSDOF 0
ENDMDL
MODEL 4
REMARK VINA RESULT:   -11.812      3.094      5.257
REMARK INTER + INTRA:         -11.812
REMARK INTER:                 -11.812
REMARK INTRA:                   0.000
REMARK UNBOUND:                 0.000
ROOT
REMARK  Name = norgestrienone
REMARK                            x       y       z     vdW  Elec       q    Type
REMARK                         _______ _______ _______ _____ _____    ______ ____
ATOM      1  C   UNL     1      60.735  62.638  69.359  0.00  0.00    +0.000 C 
ATOM      2  C   UNL     1      60.782  62.615  70.182  0.00  0.00    +0.000 C 
ATOM      3  C   UNL     1      61.056  63.319  69.850  0.00  0.00    +0.000 C 
ATOM      4  C   UNL     1      61.343  63.919  70.337  0.00  0.00    +0.000 C 
ATOM      5  C   UNL     1      61.356  63.817  71.155  0.00  0.00    +0.000 C 
ATOM      6  C   UNL     1      61.644  64.418  71.643  0.00  0.00    +0.000 C 
ATOM      7  C   UNL     1      61.918  65.122  71.311  0.00  0.00    +0.000 C 
ATOM      8  C   UNL     1      62.205  65.723  71.798  0.00  0.00    +0.000 C 
ATOM      9  C   UNL     1      62.218  65.620  72.616  0.00  0.00    +0.000 C 
ATOM     10  O   UNL     1      62.505  66.220  73.103  0.00  0.00    +0.000 OA
ATOM     11  C   UNL     1      61.944  64.915  72.948  0.00  0.00    +0.000 C 
ATOM     12  C   UNL     1      61.656  64.315  72.461  0.00  0.00    +0.000 C 
ATOM     13  C   UNL     1      61.382  63.611  72.792  0.00  0.00    +0.000 C 
ATOM     14  C   UNL     1      61.095  63.010  72.306  0.00  0.00    +0.000 C 
ATOM     15  C   UNL     1      61.082  63.113  71.487  0.00  0.00    +0.000 C 
ATOM     16  C   UNL     1      60.795  62.512  71.001  0.00  0.00    +0.000 C 
ATOM     17  C   UNL     1      60.490  61.764  71.168  0.00  0.00    +0.000 C 
ATOM     18  C   UNL     1      60.289  61.405  70.453  0.00  0.00    +0.000 C 
ATOM     19  C   UNL     1      60.469  61.930  69.844  0.00  0.00    +0.000 C 
ATOM     20  O   UNL     1      60.222  61.446  69.224  0.00  0.00    +0.000 OA
ATOM     21  C   UNL     1      60.521  62.180  69.059  0.00  0.00    +0.000 C 
ATOM     22  C   UNL     1      60.572  62.430  68.275  0.00  0.00    +0.000 C 
ENDROOT
TORSDOF 0
ENDMDL
MODEL 5
REMARK VINA RESULT:   -11.729      4.677      6.391
REMARK INTER + INTRA:         -11.729
REMARK INTER:                 -11.729
REMARK INTRA:                   0.000
REMARK UNBOUND:                 0.000
ROOT
REMARK  Name = norgestrienone
REMARK                            x       y       z     vdW  Elec       q    Type
REMARK                         _______ _______ _______ _____ _____    ______ ____
ATOM      1  C   UNL     1      60.541  62.381  70.881  0.00  0.00    +0.000 C 
ATOM      2  C   UNL     1      60.732  62.865  71.521  0.00  0.00    +0.000 C 
ATOM      3  C   UNL     1      60.195  63.203  70.993  0.00  0.00    +0.000 C 
ATOM      4  C   UNL     1      59.902  63.961  71.133  0.00  0.00    +0.000 C 
ATOM      5  C   UNL     1      60.145  64.382  71.799  0.00  0.00    +0.000 C 
ATOM      6  C   UNL     1      59.851  65.141  71.939  0.00  0.00    +0.000 C 
ATOM      7  C   UNL     1      59.314  65.478  71.412  0.00  0.00    +0.000 C 
ATOM      8  C   UNL     1      59.021  66.237  71.551  0.00  0.00    +0.000 C 
ATOM      9  C   UNL     1      59.264  66.657  72.218  0.00  0.00    +0.000 C 
ATOM     10  O   UNL     1      58.971  67.415  72.357  0.00  0.00    +0.000 OA
ATOM     11  C   UNL     1      59.801  66.319  72.745  0.00  0.00    +0.000 C 
ATOM     12  C   UNL     1      60.095  65.561  72.606  0.00  0.00    +0.000 C 
ATOM     13  C   UNL     1      60.632  65.223  73.133  0.00  0.00    +0.000 C 
ATOM     14  C   UNL     1      60.925  64.464  72.994  0.00  0.00    +0.000 C 
ATOM     15  C   UNL     1      60.682  64.044  72.327  0.00  0.00    +0.000 C 
ATOM     16  C   UNL     1      60.975  63.286  72.188  0.00  0.00    +0.000 C 
ATOM     17  C   UNL     1      61.507  62.813  72.607  0.00  0.00    +0.000 C 
ATOM     18  C   UNL     1      61.591  62.102  72.199  0.00  0.00    +0.000 C 
ATOM     19  C   UNL     1      61.113  62.134  71.528  0.00  0.00    +0.000 C 
ATOM     20  O   UNL     1      61.301  61.383  71.241  0.00  0.00    +0.000 OA
ATOM     21  C   UNL     1      60.780  61.846  70.830  0.00  0.00    +0.000 C 
ATOM     22  C   UNL     1      60.446  61.559  70.132  0.00  0.00    +0.000 C 
ENDROOT
TORSDOF 0
ENDMDL
MODEL 6
REMARK VINA RESULT:   -11.540      4.593      7.201
REMARK INTER + INTRA:         -11.540
REMARK INTER:                 -11.540
REMARK INTRA:                   0.000
REMARK UNBOUND:                 0.000
ROOT
REMARK  Name = norgestrienone
REMARK                            x       y       z     vdW  Elec       q    Type
REMARK                         _______ _______ _______ _____ _____    ______ ____
ATOM      1  C   UNL     1      65.558  67.042  70.207  0.00  0.00    +0.000 C 
ATOM      2  C   UNL     1      64.995  66.711  70.712  0.00  0.00    +0.000 C 
ATOM      3  C   UNL     1      64.969  66.417  69.941  0.00  0.00    +0.000 C 
ATOM      4  C   UNL     1      64.411  65.844  69.738  0.00  0.00    +0.000 C 
ATOM      5  C   UNL     1      63.881  65.564  70.304  0.00  0.00    +0.000 C 
ATOM      6  C   UNL     1      63.324  64.990  70.101  0.00  0.00    +0.000 C 
ATOM      7  C   UNL     1      63.297  64.696  69.331  0.00  0.00    +0.000 C 
ATOM      8  C   UNL     1      62.741  64.123  69.127  0.00  0.00    +0.000 C 
ATOM      9  C   UNL     1      62.211  63.843  69.694  0.00  0.00    +0.000 C 
ATOM     10  O   UNL     1      61.654  63.270  69.490  0.00  0.00    +0.000 OA
ATOM     11  C   UNL     1      62.237  64.137  70.465  0.00  0.00    +0.000 C 
ATOM     12  C   UNL     1      62.794  64.711  70.668  0.00  0.00    +0.000 C 
ATOM     13  C   UNL     1      62.821  65.005  71.438  0.00  0.00    +0.000 C 
ATOM     14  C   UNL     1      63.378  65.578  71.642  0.00  0.00    +0.000 C 
ATOM     15  C   UNL     1      63.908  65.858  71.075  0.00  0.00    +0.000 C 
ATOM     16  C   UNL     1      64.465  66.431  71.278  0.00  0.00    +0.000 C 
ATOM     17  C   UNL     1      64.622  66.822  71.988  0.00  0.00    +0.000 C 
ATOM     18  C   UNL     1      65.249  67.342  71.860  0.00  0.00    +0.000 C 
ATOM     19  C   UNL     1      65.479  67.274  71.071  0.00  0.00    +0.000 C 
ATOM     20  O   UNL     1      66.086  67.832  71.101  0.00  0.00    +0.000 OA
ATOM     21  C   UNL     1      65.933  67.449  70.405  0.00  0.00    +0.000 C 
ATOM     22  C   UNL     1      66.386  67.624  69.738  0.00  0.00    +0.000 C 
ENDROOT
TORSDOF 0
ENDMDL
MODEL 7
REMARK VINA RESULT:   -11.103      4.704      6.757
REMARK INTER + INTRA:         -11.103
REMARK INTER:                 -11.103
REMARK INTRA:                   0.000
REMARK UNBOUND:                 0.000
ROOT
REMARK  Name = norgestrienone
REMARK                            x       y       z     vdW  Elec       q    Type
REMARK                         _______ _______ _______ _____ _____    ______ ____
ATOM      1  C   UNL     1      63.288  65.704  71.314  0.00  0.00    +0.000 C 
ATOM      2  C   UNL     1      62.688  65.370  71.772  0.00  0.00    +0.000 C 
ATOM      3  C   UNL     1      62.839  64.964  71.069  0.00  0.00    +0.000 C 
ATOM      4  C   UNL     1      62.405  64.289  70.881  0.00  0.00    +0.000 C 
ATOM      5  C   UNL     1      61.819  64.018  71.395  0.00  0.00    +0.000 C 
ATOM      6  C   UNL     1      61.384  63.342  71.207  0.00  0.00    +0.000 C 
ATOM      7  C   UNL     1      61.535  62.937  70.505  0.00  0.00    +0.000 C 
ATOM      8  C   UNL     1      61.101  62.261  70.316  0.00  0.00    +0.000 C 
ATOM      9  C   UNL     1      60.516  61.991  70.831  0.00  0.00    +0.000 C 
ATOM     10  O   UNL     1      60.082  61.316  70.643  0.00  0.00    +0.000 OA
ATOM     11  C   UNL     1      60.365  62.397  71.534  0.00  0.00    +0.000 C 
ATOM     12  C   UNL     1      60.799  63.072  71.722  0.00  0.00    +0.000 C 
ATOM     13  C   UNL     1      60.649  63.477  72.424  0.00  0.00    +0.000 C 
ATOM     14  C   UNL     1      61.083  64.153  72.613  0.00  0.00    +0.000 C 
ATOM     15  C   UNL     1      61.668  64.423  72.098  0.00  0.00    +0.000 C 
ATOM     16  C   UNL     1      62.103  65.099  72.286  0.00  0.00    +0.000 C 
ATOM     17  C   UNL     1      62.078  65.609  72.934  0.00  0.00    +0.000 C 
ATOM     18  C   UNL     1      62.647  66.194  72.820  0.00  0.00    +0.000 C 
ATOM     19  C   UNL     1      63.025  66.046  72.102  0.00  0.00    +0.000 C 
ATOM     20  O   UNL     1      63.542  66.689  72.132  0.00  0.00    +0.000 OA
ATOM     21  C   UNL     1      63.566  66.189  71.496  0.00  0.00    +0.000 C 
ATOM     22  C   UNL     1      64.108  66.330  70.890  0.00  0.00    +0.000 C 
ENDROOT
TORSDOF 0
ENDMDL
MODEL 8
REMARK VINA RESULT:   -11.018      1.905      3.261
REMARK INTER + INTRA:         -11.018
REMARK INTER:                 -11.018
REMARK INTRA:                   0.000
REMARK UNBOUND:                 0.000
ROOT
REMARK  Name = norgestrienone
REMARK                            x       y       z     vdW  Elec       q    Type
REMARK                         _______ _______ _______ _____ _____    ______ ____
ATOM      1  C   UNL     1      60.001  62.179  67.207  0.00  0.00    +0.000 C 
ATOM      2  C   UNL     1      60.588  62.601  67.604  0.00  0.00    +0.000 C 
ATOM      3  C   UNL     1      60.083  62.179  68.102  0.00  0.00    +0.000 C 
ATOM      4  C   UNL     1      60.193  62.206  68.919  0.00  0.00    +0.000 C 
ATOM      5  C   UNL     1      60.806  62.654  69.240  0.00  0.00    +0.000 C 
ATOM      6  C   UNL     1      60.916  62.681  70.057  0.00  0.00    +0.000 C 
ATOM      7  C   UNL     1      60.411  62.259  70.555  0.00  0.00    +0.000 C 
ATOM      8  C   UNL     1      60.520  62.286  71.372  0.00  0.00    +0.000 C 
ATOM      9  C   UNL     1      61.134  62.734  71.691  0.00  0.00    +0.000 C 
ATOM     10  O   UNL     1      61.243  62.761  72.508  0.00  0.00    +0.000 OA
ATOM     11  C   UNL     1      61.639  63.156  71.193  0.00  0.00    +0.000 C 
ATOM     12  C   UNL     1      61.530  63.130  70.376  0.00  0.00    +0.000 C 
ATOM     13  C   UNL     1      62.035  63.551  69.878  0.00  0.00    +0.000 C 
ATOM     14  C   UNL     1      61.926  63.524  69.061  0.00  0.00    +0.000 C 
ATOM     15  C   UNL     1      61.311  63.076  68.742  0.00  0.00    +0.000 C 
ATOM     16  C   UNL     1      61.202  63.049  67.925  0.00  0.00    +0.000 C 
ATOM     17  C   UNL     1      61.609  63.405  67.301  0.00  0.00    +0.000 C 
ATOM     18  C   UNL     1      61.247  63.176  66.597  0.00  0.00    +0.000 C 
ATOM     19  C   UNL     1      60.616  62.679  66.784  0.00  0.00    +0.000 C 
ATOM     20  O   UNL     1      60.368  62.544  66.009  0.00  0.00    +0.000 OA
ATOM     21  C   UNL     1      59.968  62.195  66.620  0.00  0.00    +0.000 C 
ATOM     22  C   UNL     1      59.321  61.710  66.457  0.00  0.00    +0.000 C 
ENDROOT
TORSDOF 0
ENDMDL
MODEL 9
REMARK VINA RESULT:   -10.603      5.352      6.565
REMARK INTER + INTRA:         -10.603
REMARK INTER:                 -10.603
REMARK INTRA:                   0.000
REMARK UNBOUND:                 0.000
ROOT
REMARK  Name = norgestrienone
REMARK                            x       y       z     vdW  Elec       q    Type
REMARK                         _______ _______ _______ _____ _____    ______ ____
ATOM      1  C   UNL     1      64.146  66.059  71.426  0.00  0.00    +0.000 C 
ATOM      2  C   UNL     1      63.769  65.402  71.099  0.00  0.00    +0.000 C 
ATOM      3  C   UNL     1      63.316  65.805  71.660  0.00  0.00    +0.000 C 
ATOM      4  C   UNL     1      62.558  65.538  71.845  0.00  0.00    +0.000 C 
ATOM      5  C   UNL     1      62.252  64.870  71.472  0.00  0.00    +0.000 C 
ATOM      6  C   UNL     1      61.493  64.603  71.658  0.00  0.00    +0.000 C 
ATOM      7  C   UNL     1      61.041  65.005  72.218  0.00  0.00    +0.000 C 
ATOM      8  C   UNL     1      60.283  64.739  72.405  0.00  0.00    +0.000 C 
ATOM      9  C   UNL     1      59.977  64.070  72.030  0.00  0.00    +0.000 C 
ATOM     10  O   UNL     1      59.219  63.804  72.217  0.00  0.00    +0.000 OA
ATOM     11  C   UNL     1      60.430  63.668  71.470  0.00  0.00    +0.000 C 
ATOM     12  C   UNL     1      61.188  63.934  71.284  0.00  0.00    +0.000 C 
ATOM     13  C   UNL     1      61.641  63.532  70.724  0.00  0.00    +0.000 C 
ATOM     14  C   UNL     1      62.399  63.798  70.537  0.00  0.00    +0.000 C 
ATOM     15  C   UNL     1      62.704  64.467  70.912  0.00  0.00    +0.000 C 
ATOM     16  C   UNL     1      63.463  64.733  70.725  0.00  0.00    +0.000 C 
ATOM     17  C   UNL     1      64.034  64.452  70.200  0.00  0.00    +0.000 C 
ATOM     18  C   UNL     1      64.691  64.947  70.249  0.00  0.00    +0.000 C 
ATOM     19  C   UNL     1      64.528  65.534  70.805  0.00  0.00    +0.000 C 
ATOM     20  O   UNL     1      65.249  65.929  70.741  0.00  0.00    +0.000 OA
ATOM     21  C   UNL     1      64.690  66.205  71.257  0.00  0.00    +0.000 C 
ATOM     22  C   UNL     1      64.851  66.876  71.709  0.00  0.00    +0.000 C 
ENDROOT
TORSDOF 0
ENDMDL
