MODEL 1
REMARK VINA RESULT:   -11.951      0.000      0.000
REMARK INTER + INTRA:         -11.951
REMARK INTER:                 -11.951
REMARK INTRA:                   0.000
REMARK UNBOUND:                 0.000
ROOT
REMARK  Name = nortriptyline
REMARK                            x       y       z     vdW  Elec       q    Type
REMARK                         _______ _______ _______ _____ _____    ______ ____
ATOM      1  C   UNL     1      61.996  64.223  68.946  0.00  0.00    +0.000 C 
ATOM      2  N   UNL     1      61.525  63.785  68.429  0.00  0.00    +0.000 NA
ATOM      3  C   UNL     1      61.843  63.495  67.725  0.00  0.00    +0.000 C 
ATOM      4  C   UNL     1      61.371  63.057  67.209  0.00  0.00    +0.000 C 
ATOM      5  C   UNL     1      61.690  62.767  66.505  0.00  0.00    +0.000 C 
ATOM      6  C   UNL     1      61.219  62.329  65.989  0.00  0.00    +0.000 C 
ATOM      7  C   UNL     1      61.591  62.066  65.301  0.00  0.00    +0.000 A 
ATOM      8  C   UNL     1      62.380  62.304  65.275  0.00  0.00    +0.000 A 
ATOM      9  C   UNL     1      62.852  62.098  64.631  0.00  0.00    +0.000 A 
ATOM     10  C   UNL     1      62.536  61.652  64.013  0.00  0.00    +0.000 A 
ATOM     11  C   UNL     1      61.746  61.414  64.040  0.00  0.00    +0.000 A 
ATOM     12  C   UNL     1      61.274  61.621  64.683  0.00  0.00    +0.000 A 
ATOM     13  C   UNL     1      60.506  61.329  64.601  0.00  0.00    +0.000 C 
ATOM     14  C   UNL     1      59.867  61.410  65.116  0.00  0.00    +0.000 C 
ATOM     15  C   UNL     1      59.837  61.803  65.840  0.00  0.00    +0.000 A 
ATOM     16  C   UNL     1      60.438  62.212  66.229  0.00  0.00    +0.000 A 
ATOM     17  C   UNL     1      60.290  62.570  66.957  0.00  0.00    +0.000 A 
ATOM     18  C   UNL     1      59.540  62.519  67.297  0.00  0.00    +0.000 A 
ATOM     19  C   UNL     1      58.938  62.110  66.908  0.00  0.00    +0.000 A 
ATOM     20  C   UNL     1      59.086  61.752  66.180  0.00  0.00    +0.000 A 
ENDROOT
TORSDOF 0
ENDMDL
MODEL 2
REMARK VINA RESULT:   -11.166      3.126      5.259
REMARK INTER + INTRA:         -11.166
REMARK INTER:                 -11.166
REMARK INTRA:                   0.000
REMARK UNBOUND:                 0.000
ROOT
REMARK  Name = nortriptyline
REMARK                            x       y       z     vdW  Elec       q    Type
REMARK                         _______ _______ _______ _____ _____    ______ ____
ATOM      1  C   UNL     1      59.655  66.520  69.179  0.00  0.00    +0.000 C 
ATOM      2  N   UNL     1      59.809  65.709  69.193  0.00  0.00    +0.000 NA
ATOM      3  C   UNL     1      60.089  65.354  69.883  0.00  0.00    +0.000 C 
ATOM      4  C   UNL     1      60.243  64.544  69.897  0.00  0.00    +0.000 C 
ATOM      5  C   UNL     1      60.523  64.190  70.588  0.00  0.00    +0.000 C 
ATOM      6  C   UNL     1      60.677  63.379  70.602  0.00  0.00    +0.000 C 
ATOM      7  C   UNL     1      60.955  63.080  71.319  0.00  0.00    +0.000 A 
ATOM      8  C   UNL     1      61.022  63.674  71.888  0.00  0.00    +0.000 A 
ATOM      9  C   UNL     1      61.291  63.491  72.645  0.00  0.00    +0.000 A 
ATOM     10  C   UNL     1      61.493  62.715  72.835  0.00  0.00    +0.000 A 
ATOM     11  C   UNL     1      61.426  62.121  72.266  0.00  0.00    +0.000 A 
ATOM     12  C   UNL     1      61.157  62.304  71.509  0.00  0.00    +0.000 A 
ATOM     13  C   UNL     1      61.132  61.634  71.027  0.00  0.00    +0.000 C 
ATOM     14  C   UNL     1      60.898  61.575  70.238  0.00  0.00    +0.000 C 
ATOM     15  C   UNL     1      60.631  62.172  69.736  0.00  0.00    +0.000 A 
ATOM     16  C   UNL     1      60.533  62.975  69.897  0.00  0.00    +0.000 A 
ATOM     17  C   UNL     1      60.257  63.483  69.309  0.00  0.00    +0.000 A 
ATOM     18  C   UNL     1      60.078  63.189  68.559  0.00  0.00    +0.000 A 
ATOM     19  C   UNL     1      60.176  62.386  68.398  0.00  0.00    +0.000 A 
ATOM     20  C   UNL     1      60.453  61.878  68.985  0.00  0.00    +0.000 A 
ENDROOT
TORSDOF 0
ENDMDL
MODEL 3
REMARK VINA RESULT:   -10.891      3.223      5.189
REMARK INTER + INTRA:         -10.891
REMARK INTER:                 -10.891
REMARK INTRA:                   0.000
REMARK UNBOUND:                 0.000
ROOT
REMARK  Name = nortriptyline
REMARK                            x       y       z     vdW  Elec       q    Type
REMARK                         _______ _______ _______ _____ _____    ______ ____
ATOM      1  C   UNL     1      59.453  66.923  71.003  0.00  0.00    +0.000 C 
ATOM      2  N   UNL     1      59.754  66.182  71.205  0.00  0.00    +0.000 NA
ATOM      3  C   UNL     1      59.797  65.585  70.638  0.00  0.00    +0.000 C 
ATOM      4  C   UNL     1      60.098  64.844  70.840  0.00  0.00    +0.000 C 
ATOM      5  C   UNL     1      60.140  64.248  70.272  0.00  0.00    +0.000 C 
ATOM      6  C   UNL     1      60.441  63.506  70.474  0.00  0.00    +0.000 C 
ATOM      7  C   UNL     1      60.459  62.950  69.866  0.00  0.00    +0.000 A 
ATOM      8  C   UNL     1      60.164  63.262  69.162  0.00  0.00    +0.000 A 
ATOM      9  C   UNL     1      60.133  62.794  68.483  0.00  0.00    +0.000 A 
ATOM     10  C   UNL     1      60.399  62.013  68.508  0.00  0.00    +0.000 A 
ATOM     11  C   UNL     1      60.695  61.701  69.212  0.00  0.00    +0.000 A 
ATOM     12  C   UNL     1      60.725  62.169  69.891  0.00  0.00    +0.000 A 
ATOM     13  C   UNL     1      61.038  61.753  70.531  0.00  0.00    +0.000 C 
ATOM     14  C   UNL     1      61.162  62.014  71.304  0.00  0.00    +0.000 C 
ATOM     15  C   UNL     1      61.004  62.756  71.627  0.00  0.00    +0.000 A 
ATOM     16  C   UNL     1      60.684  63.421  71.258  0.00  0.00    +0.000 A 
ATOM     17  C   UNL     1      60.570  64.116  71.686  0.00  0.00    +0.000 A 
ATOM     18  C   UNL     1      60.778  64.147  72.485  0.00  0.00    +0.000 A 
ATOM     19  C   UNL     1      61.098  63.483  72.853  0.00  0.00    +0.000 A 
ATOM     20  C   UNL     1      61.212  62.788  72.425  0.00  0.00    +0.000 A 
ENDROOT
TORSDOF 0
ENDMDL
MODEL 4
REMARK VINA RESULT:   -10.698      3.310      6.318
REMARK INTER + INTRA:         -10.698
REMARK INTER:                 -10.698
REMARK INTRA:                   0.000
REMARK UNBOUND:                 0.000
ROOT
REMARK  Name = nortriptyline
REMARK                            x       y       z     vdW  Elec       q    Type
REMARK                         _______ _______ _______ _____ _____    ______ ____
ATOM      1  C   UNL     1      60.251  62.003  67.861  0.00  0.00    +0.000 C 
ATOM      2  N   UNL     1      60.477  62.048  68.654  0.00  0.00    +0.000 NA
ATOM      3  C   UNL     1      60.260  62.701  69.109  0.00  0.00    +0.000 C 
ATOM      4  C   UNL     1      60.486  62.746  69.901  0.00  0.00    +0.000 C 
ATOM      5  C   UNL     1      60.268  63.399  70.355  0.00  0.00    +0.000 C 
ATOM      6  C   UNL     1      60.494  63.444  71.147  0.00  0.00    +0.000 C 
ATOM      7  C   UNL     1      60.249  64.120  71.551  0.00  0.00    +0.000 A 
ATOM      8  C   UNL     1      59.815  64.624  71.062  0.00  0.00    +0.000 A 
ATOM      9  C   UNL     1      59.518  65.333  71.360  0.00  0.00    +0.000 A 
ATOM     10  C   UNL     1      59.653  65.539  72.147  0.00  0.00    +0.000 A 
ATOM     11  C   UNL     1      60.086  65.035  72.636  0.00  0.00    +0.000 A 
ATOM     12  C   UNL     1      60.384  64.326  72.338  0.00  0.00    +0.000 A 
ATOM     13  C   UNL     1      60.799  63.907  72.916  0.00  0.00    +0.000 C 
ATOM     14  C   UNL     1      61.180  63.178  72.848  0.00  0.00    +0.000 C 
ATOM     15  C   UNL     1      61.241  62.689  72.187  0.00  0.00    +0.000 A 
ATOM     16  C   UNL     1      60.936  62.807  71.430  0.00  0.00    +0.000 A 
ATOM     17  C   UNL     1      61.062  62.243  70.842  0.00  0.00    +0.000 A 
ATOM     18  C   UNL     1      61.493  61.560  71.011  0.00  0.00    +0.000 A 
ATOM     19  C   UNL     1      61.798  61.442  71.768  0.00  0.00    +0.000 A 
ATOM     20  C   UNL     1      61.672  62.006  72.356  0.00  0.00    +0.000 A 
ENDROOT
TORSDOF 0
ENDMDL
MODEL 5
REMARK VINA RESULT:   -10.543      4.389      5.996
REMARK INTER + INTRA:         -10.543
REMARK INTER:                 -10.543
REMARK INTRA:                   0.000
REMARK UNBOUND:                 0.000
ROOT
REMARK  Name = nortriptyline
REMARK                            x       y       z     vdW  Elec       q    Type
REMARK                         _______ _______ _______ _____ _____    ______ ____
ATOM      1  C   UNL     1      64.627  65.147  69.480  0.00  0.00    +0.000 C 
ATOM      2  N   UNL     1      64.039  65.059  70.052  0.00  0.00    +0.000 NA
ATOM      3  C   UNL     1      63.484  64.452  69.983  0.00  0.00    +0.000 C 
ATOM      4  C   UNL     1      62.896  64.364  70.555  0.00  0.00    +0.000 C 
ATOM      5  C   UNL     1      62.341  63.757  70.485  0.00  0.00    +0.000 C 
ATOM      6  C   UNL     1      61.753  63.669  71.057  0.00  0.00    +0.000 C 
ATOM      7  C   UNL     1      61.227  63.045  70.936  0.00  0.00    +0.000 A 
ATOM      8  C   UNL     1      61.407  62.629  70.247  0.00  0.00    +0.000 A 
ATOM      9  C   UNL     1      60.946  61.982  70.024  0.00  0.00    +0.000 A 
ATOM     10  C   UNL     1      60.306  61.751  70.490  0.00  0.00    +0.000 A 
ATOM     11  C   UNL     1      60.126  62.168  71.179  0.00  0.00    +0.000 A 
ATOM     12  C   UNL     1      60.587  62.814  71.402  0.00  0.00    +0.000 A 
ATOM     13  C   UNL     1      60.315  63.151  72.104  0.00  0.00    +0.000 C 
ATOM     14  C   UNL     1      60.615  63.801  72.514  0.00  0.00    +0.000 C 
ATOM     15  C   UNL     1      61.263  64.275  72.322  0.00  0.00    +0.000 A 
ATOM     16  C   UNL     1      61.769  64.217  71.674  0.00  0.00    +0.000 A 
ATOM     17  C   UNL     1      62.389  64.752  71.586  0.00  0.00    +0.000 A 
ATOM     18  C   UNL     1      62.504  65.348  72.146  0.00  0.00    +0.000 A 
ATOM     19  C   UNL     1      61.997  65.406  72.794  0.00  0.00    +0.000 A 
ATOM     20  C   UNL     1      61.377  64.870  72.883  0.00  0.00    +0.000 A 
ENDROOT
TORSDOF 0
ENDMDL
MODEL 6
REMARK VINA RESULT:   -10.250      2.725      5.585
REMARK INTER + INTRA:         -10.250
REMARK INTER:                 -10.250
REMARK INTRA:                   0.000
REMARK UNBOUND:                 0.000
ROOT
REMARK  Name = nortriptyline
REMARK                            x       y       z     vdW  Elec       q    Type
REMARK                         _______ _______ _______ _____ _____    ______ ____
ATOM      1  C   UNL     1      61.365  62.821  67.008  0.00  0.00    +0.000 C 
ATOM      2  N   UNL     1      61.092  63.214  67.680  0.00  0.00    +0.000 NA
ATOM      3  C   UNL     1      61.257  62.913  68.430  0.00  0.00    +0.000 C 
ATOM      4  C   UNL     1      60.984  63.306  69.102  0.00  0.00    +0.000 C 
ATOM      5  C   UNL     1      61.149  63.004  69.852  0.00  0.00    +0.000 C 
ATOM      6  C   UNL     1      60.876  63.397  70.524  0.00  0.00    +0.000 C 
ATOM      7  C   UNL     1      61.072  63.050  71.246  0.00  0.00    +0.000 A 
ATOM      8  C   UNL     1      61.513  62.361  71.140  0.00  0.00    +0.000 A 
ATOM      9  C   UNL     1      61.765  61.928  71.794  0.00  0.00    +0.000 A 
ATOM     10  C   UNL     1      61.577  62.183  72.556  0.00  0.00    +0.000 A 
ATOM     11  C   UNL     1      61.136  62.872  72.662  0.00  0.00    +0.000 A 
ATOM     12  C   UNL     1      60.883  63.305  72.007  0.00  0.00    +0.000 A 
ATOM     13  C   UNL     1      60.452  63.971  72.234  0.00  0.00    +0.000 C 
ATOM     14  C   UNL     1      60.104  64.547  71.756  0.00  0.00    +0.000 C 
ATOM     15  C   UNL     1      60.100  64.597  70.933  0.00  0.00    +0.000 A 
ATOM     16  C   UNL     1      60.444  64.087  70.384  0.00  0.00    +0.000 A 
ATOM     17  C   UNL     1      60.374  64.240  69.577  0.00  0.00    +0.000 A 
ATOM     18  C   UNL     1      59.961  64.906  69.318  0.00  0.00    +0.000 A 
ATOM     19  C   UNL     1      59.617  65.417  69.867  0.00  0.00    +0.000 A 
ATOM     20  C   UNL     1      59.687  65.263  70.674  0.00  0.00    +0.000 A 
ENDROOT
TORSDOF 0
ENDMDL
MODEL 7
REMARK VINA RESULT:   -10.070      4.228      6.993
REMARK INTER + INTRA:         -10.070
REMARK INTER:                 -10.070
REMARK INTRA:                   0.000
REMARK UNBOUND:                 0.000
ROOT
REMARK  Name = nortriptyline
REMARK                            x       y       z     vdW  Elec       q    Type
REMARK                         _______ _______ _______ _____ _____    ______ ____
ATOM      1  C   UNL     1      61.283  62.969  69.790  0.00  0.00    +0.000 C 
ATOM      2  N   UNL     1      61.549  63.558  70.302  0.00  0.00    +0.000 NA
ATOM      3  C   UNL     1      62.205  64.016  70.099  0.00  0.00    +0.000 C 
ATOM      4  C   UNL     1      62.471  64.605  70.612  0.00  0.00    +0.000 C 
ATOM      5  C   UNL     1      63.127  65.063  70.407  0.00  0.00    +0.000 C 
ATOM      6  C   UNL     1      63.394  65.652  70.920  0.00  0.00    +0.000 C 
ATOM      7  C   UNL     1      64.052  66.077  70.664  0.00  0.00    +0.000 A 
ATOM      8  C   UNL     1      64.313  65.815  69.927  0.00  0.00    +0.000 A 
ATOM      9  C   UNL     1      64.967  66.169  69.571  0.00  0.00    +0.000 A 
ATOM     10  C   UNL     1      65.362  66.785  69.951  0.00  0.00    +0.000 A 
ATOM     11  C   UNL     1      65.101  67.047  70.689  0.00  0.00    +0.000 A 
ATOM     12  C   UNL     1      64.447  66.693  71.045  0.00  0.00    +0.000 A 
ATOM     13  C   UNL     1      64.279  67.036  71.777  0.00  0.00    +0.000 C 
ATOM     14  C   UNL     1      63.676  66.847  72.308  0.00  0.00    +0.000 C 
ATOM     15  C   UNL     1      63.092  66.269  72.238  0.00  0.00    +0.000 A 
ATOM     16  C   UNL     1      62.966  65.737  71.621  0.00  0.00    +0.000 A 
ATOM     17  C   UNL     1      62.343  65.198  71.661  0.00  0.00    +0.000 A 
ATOM     18  C   UNL     1      61.845  65.192  72.319  0.00  0.00    +0.000 A 
ATOM     19  C   UNL     1      61.971  65.724  72.936  0.00  0.00    +0.000 A 
ATOM     20  C   UNL     1      62.594  66.263  72.896  0.00  0.00    +0.000 A 
ENDROOT
TORSDOF 0
ENDMDL
MODEL 8
REMARK VINA RESULT:   -10.038      6.265      7.415
REMARK INTER + INTRA:         -10.038
REMARK INTER:                 -10.038
REMARK INTRA:                   0.000
REMARK UNBOUND:                 0.000
ROOT
REMARK  Name = nortriptyline
REMARK                            x       y       z     vdW  Elec       q    Type
REMARK                         _______ _______ _______ _____ _____    ______ ____
ATOM      1  C   UNL     1      65.214  66.432  70.877  0.00  0.00    +0.000 C 
ATOM      2  N   UNL     1      64.476  66.484  71.243  0.00  0.00    +0.000 NA
ATOM      3  C   UNL     1      64.013  65.807  71.336  0.00  0.00    +0.000 C 
ATOM      4  C   UNL     1      63.275  65.858  71.701  0.00  0.00    +0.000 C 
ATOM      5  C   UNL     1      62.813  65.181  71.794  0.00  0.00    +0.000 C 
ATOM      6  C   UNL     1      62.076  65.232  72.160  0.00  0.00    +0.000 C 
ATOM      7  C   UNL     1      61.658  64.524  72.225  0.00  0.00    +0.000 A 
ATOM      8  C   UNL     1      62.081  63.894  71.900  0.00  0.00    +0.000 A 
ATOM      9  C   UNL     1      61.761  63.134  71.909  0.00  0.00    +0.000 A 
ATOM     10  C   UNL     1      61.017  63.003  72.242  0.00  0.00    +0.000 A 
ATOM     11  C   UNL     1      60.595  63.633  72.566  0.00  0.00    +0.000 A 
ATOM     12  C   UNL     1      60.915  64.393  72.558  0.00  0.00    +0.000 A 
ATOM     13  C   UNL     1      60.406  64.939  72.908  0.00  0.00    +0.000 C 
ATOM     14  C   UNL     1      60.513  65.751  73.012  0.00  0.00    +0.000 C 
ATOM     15  C   UNL     1      61.158  66.216  72.791  0.00  0.00    +0.000 A 
ATOM     16  C   UNL     1      61.853  65.986  72.412  0.00  0.00    +0.000 A 
ATOM     17  C   UNL     1      62.433  66.545  72.239  0.00  0.00    +0.000 A 
ATOM     18  C   UNL     1      62.319  67.336  72.446  0.00  0.00    +0.000 A 
ATOM     19  C   UNL     1      61.624  67.566  72.825  0.00  0.00    +0.000 A 
ATOM     20  C   UNL     1      61.043  67.007  72.998  0.00  0.00    +0.000 A 
ENDROOT
TORSDOF 0
ENDMDL
MODEL 9
REMARK VINA RESULT:    -9.888      5.670      7.160
REMARK INTER + INTRA:          -9.888
REMARK INTER:                  -9.888
REMARK INTRA:                   0.000
REMARK UNBOUND:                 0.000
ROOT
REMARK  Name = nortriptyline
REMARK                            x       y       z     vdW  Elec       q    Type
REMARK                         _______ _______ _______ _____ _____    ______ ____
ATOM      1  C   UNL     1      64.604  64.626  69.896  0.00  0.00    +0.000 C 
ATOM      2  N   UNL     1      63.938  64.410  70.333  0.00  0.00    +0.000 NA
ATOM      3  C   UNL     1      63.503  64.984  70.734  0.00  0.00    +0.000 C 
ATOM      4  C   UNL     1      62.837  64.767  71.171  0.00  0.00    +0.000 C 
ATOM      5  C   UNL     1      62.402  65.343  71.572  0.00  0.00    +0.000 C 
ATOM      6  C   UNL     1      61.737  65.126  72.009  0.00  0.00    +0.000 C 
ATOM      7  C   UNL     1      61.342  65.743  72.388  0.00  0.00    +0.000 A 
ATOM      8  C   UNL     1      61.707  66.469  72.246  0.00  0.00    +0.000 A 
ATOM      9  C   UNL     1      61.399  67.158  72.576  0.00  0.00    +0.000 A 
ATOM     10  C   UNL     1      60.724  67.123  73.049  0.00  0.00    +0.000 A 
ATOM     11  C   UNL     1      60.358  66.397  73.191  0.00  0.00    +0.000 A 
ATOM     12  C   UNL     1      60.667  65.708  72.861  0.00  0.00    +0.000 A 
ATOM     13  C   UNL     1      60.220  65.046  73.071  0.00  0.00    +0.000 C 
ATOM     14  C   UNL     1      60.338  64.257  72.860  0.00  0.00    +0.000 C 
ATOM     15  C   UNL     1      60.932  63.935  72.387  0.00  0.00    +0.000 A 
ATOM     16  C   UNL     1      61.555  64.321  72.008  0.00  0.00    +0.000 A 
ATOM     17  C   UNL     1      62.094  63.891  71.557  0.00  0.00    +0.000 A 
ATOM     18  C   UNL     1      62.011  63.073  71.484  0.00  0.00    +0.000 A 
ATOM     19  C   UNL     1      61.388  62.687  71.863  0.00  0.00    +0.000 A 
ATOM     20  C   UNL     1      60.849  63.117  72.314  0.00  0.00    +0.000 A 
ENDROOT
TORSDOF 0
ENDMDL
