MODEL 1
REMARK VINA RESULT:   -13.093      0.000      0.000
REMARK INTER + INTRA:         -13.093
REMARK INTER:                 -13.093
REMARK INTRA:                   0.000
REMARK UNBOUND:                 0.000
ROOT
REMARK  Name = noscapine
REMARK                            x       y       z     vdW  Elec       q    Type
REMARK                         _______ _______ _______ _____ _____    ______ ____
ATOM      1  C   UNL     1      62.609  66.592  73.023  0.00  0.00    +0.000 C 
ATOM      2  O   UNL     1      62.214  65.893  73.216  0.00  0.00    +0.000 OA
ATOM      3  C   UNL     1      61.999  65.363  72.622  0.00  0.00    +0.000 A 
ATOM      4  C   UNL     1      61.605  64.665  72.814  0.00  0.00    +0.000 A 
ATOM      5  C   UNL     1      61.390  64.135  72.220  0.00  0.00    +0.000 A 
ATOM      6  C   UNL     1      61.570  64.303  71.433  0.00  0.00    +0.000 A 
ATOM      7  C   UNL     1      61.429  63.888  70.734  0.00  0.00    +0.000 C 
ATOM      8  O   UNL     1      61.738  64.330  70.108  0.00  0.00    +0.000 OA
ATOM      9  C   UNL     1      62.069  65.018  70.421  0.00  0.00    +0.000 C 
ATOM     10  O   UNL     1      62.438  65.617  69.992  0.00  0.00    +0.000 OA
ATOM     11  C   UNL     1      61.965  65.001  71.240  0.00  0.00    +0.000 A 
ATOM     12  C   UNL     1      62.180  65.531  71.834  0.00  0.00    +0.000 A 
ATOM     13  O   UNL     1      62.575  66.229  71.641  0.00  0.00    +0.000 OA
ATOM     14  C   UNL     1      62.789  66.759  72.236  0.00  0.00    +0.000 C 
ATOM     15  C   UNL     1      61.048  63.159  70.671  0.00  0.00    +0.000 C 
ATOM     16  N   UNL     1      60.768  62.781  71.347  0.00  0.00    +0.000 NA
ATOM     17  C   UNL     1      60.869  63.130  72.088  0.00  0.00    +0.000 C 
ATOM     18  C   UNL     1      60.386  62.052  71.284  0.00  0.00    +0.000 C 
ATOM     19  C   UNL     1      60.284  61.702  70.544  0.00  0.00    +0.000 C 
ATOM     20  C   UNL     1      60.565  62.081  69.867  0.00  0.00    +0.000 A 
ATOM     21  C   UNL     1      60.947  62.810  69.930  0.00  0.00    +0.000 A 
ATOM     22  C   UNL     1      61.227  63.188  69.253  0.00  0.00    +0.000 A 
ATOM     23  O   UNL     1      61.608  63.917  69.316  0.00  0.00    +0.000 OA
ATOM     24  C   UNL     1      61.889  64.296  68.639  0.00  0.00    +0.000 C 
ATOM     25  C   UNL     1      61.126  62.839  68.512  0.00  0.00    +0.000 A 
ATOM     26  O   UNL     1      61.341  63.079  67.754  0.00  0.00    +0.000 OA
ATOM     27  C   UNL     1      61.094  62.500  67.222  0.00  0.00    +0.000 C 
ATOM     28  O   UNL     1      60.724  61.901  67.652  0.00  0.00    +0.000 OA
ATOM     29  C   UNL     1      60.744  62.110  68.449  0.00  0.00    +0.000 A 
ATOM     30  C   UNL     1      60.463  61.731  69.127  0.00  0.00    +0.000 A 
ENDROOT
TORSDOF 0
ENDMDL
MODEL 2
REMARK VINA RESULT:   -13.038      0.540      4.160
REMARK INTER + INTRA:         -13.038
REMARK INTER:                 -13.038
REMARK INTRA:                   0.000
REMARK UNBOUND:                 0.000
ROOT
REMARK  Name = noscapine
REMARK                            x       y       z     vdW  Elec       q    Type
REMARK                         _______ _______ _______ _____ _____    ______ ____
ATOM      1  C   UNL     1      60.598  62.358  66.693  0.00  0.00    +0.000 C 
ATOM      2  O   UNL     1      60.470  61.961  67.405  0.00  0.00    +0.000 OA
ATOM      3  C   UNL     1      60.664  62.323  68.120  0.00  0.00    +0.000 A 
ATOM      4  C   UNL     1      60.536  61.926  68.831  0.00  0.00    +0.000 A 
ATOM      5  C   UNL     1      60.731  62.288  69.547  0.00  0.00    +0.000 A 
ATOM      6  C   UNL     1      61.053  63.047  69.551  0.00  0.00    +0.000 A 
ATOM      7  C   UNL     1      61.298  63.540  70.165  0.00  0.00    +0.000 C 
ATOM      8  O   UNL     1      61.577  64.242  69.833  0.00  0.00    +0.000 OA
ATOM      9  C   UNL     1      61.506  64.183  69.013  0.00  0.00    +0.000 C 
ATOM     10  O   UNL     1      61.720  64.761  68.465  0.00  0.00    +0.000 OA
ATOM     11  C   UNL     1      61.182  63.445  68.839  0.00  0.00    +0.000 A 
ATOM     12  C   UNL     1      60.987  63.082  68.123  0.00  0.00    +0.000 A 
ATOM     13  O   UNL     1      61.116  63.479  67.412  0.00  0.00    +0.000 OA
ATOM     14  C   UNL     1      60.921  63.117  66.697  0.00  0.00    +0.000 C 
ATOM     15  C   UNL     1      61.268  63.362  70.970  0.00  0.00    +0.000 C 
ATOM     16  N   UNL     1      60.973  62.635  71.221  0.00  0.00    +0.000 NA
ATOM     17  C   UNL     1      60.707  62.083  70.668  0.00  0.00    +0.000 C 
ATOM     18  C   UNL     1      60.943  62.457  72.026  0.00  0.00    +0.000 C 
ATOM     19  C   UNL     1      61.208  63.007  72.581  0.00  0.00    +0.000 C 
ATOM     20  C   UNL     1      61.504  63.736  72.329  0.00  0.00    +0.000 A 
ATOM     21  C   UNL     1      61.534  63.914  71.524  0.00  0.00    +0.000 A 
ATOM     22  C   UNL     1      61.829  64.641  71.273  0.00  0.00    +0.000 A 
ATOM     23  O   UNL     1      61.859  64.819  70.468  0.00  0.00    +0.000 OA
ATOM     24  C   UNL     1      62.154  65.548  70.216  0.00  0.00    +0.000 C 
ATOM     25  C   UNL     1      62.095  65.193  71.827  0.00  0.00    +0.000 A 
ATOM     26  O   UNL     1      62.411  65.949  71.745  0.00  0.00    +0.000 OA
ATOM     27  C   UNL     1      62.578  66.240  72.499  0.00  0.00    +0.000 C 
ATOM     28  O   UNL     1      62.363  65.662  73.047  0.00  0.00    +0.000 OA
ATOM     29  C   UNL     1      62.065  65.015  72.632  0.00  0.00    +0.000 A 
ATOM     30  C   UNL     1      61.769  64.286  72.883  0.00  0.00    +0.000 A 
ENDROOT
TORSDOF 0
ENDMDL
MODEL 3
REMARK VINA RESULT:   -12.672      1.581      2.532
REMARK INTER + INTRA:         -12.672
REMARK INTER:                 -12.672
REMARK INTRA:                   0.000
REMARK UNBOUND:                 0.000
ROOT
REMARK  Name = noscapine
REMARK                            x       y       z     vdW  Elec       q    Type
REMARK                         _______ _______ _______ _____ _____    ______ ____
ATOM      1  C   UNL     1      65.446  67.271  70.735  0.00  0.00    +0.000 C 
ATOM      2  O   UNL     1      64.915  67.227  71.365  0.00  0.00    +0.000 OA
ATOM      3  C   UNL     1      64.315  66.660  71.361  0.00  0.00    +0.000 A 
ATOM      4  C   UNL     1      63.785  66.616  71.991  0.00  0.00    +0.000 A 
ATOM      5  C   UNL     1      63.186  66.050  71.986  0.00  0.00    +0.000 A 
ATOM      6  C   UNL     1      63.116  65.527  71.352  0.00  0.00    +0.000 A 
ATOM      7  C   UNL     1      62.585  64.916  71.196  0.00  0.00    +0.000 C 
ATOM      8  O   UNL     1      62.787  64.582  70.468  0.00  0.00    +0.000 OA
ATOM      9  C   UNL     1      63.444  64.987  70.175  0.00  0.00    +0.000 C 
ATOM     10  O   UNL     1      63.829  64.835  69.462  0.00  0.00    +0.000 OA
ATOM     11  C   UNL     1      63.647  65.571  70.721  0.00  0.00    +0.000 A 
ATOM     12  C   UNL     1      64.246  66.138  70.726  0.00  0.00    +0.000 A 
ATOM     13  O   UNL     1      64.776  66.182  70.096  0.00  0.00    +0.000 OA
ATOM     14  C   UNL     1      65.376  66.748  70.100  0.00  0.00    +0.000 C 
ATOM     15  C   UNL     1      61.961  64.679  71.681  0.00  0.00    +0.000 C 
ATOM     16  N   UNL     1      61.825  65.067  72.396  0.00  0.00    +0.000 NA
ATOM     17  C   UNL     1      62.313  65.691  72.626  0.00  0.00    +0.000 C 
ATOM     18  C   UNL     1      61.202  64.831  72.881  0.00  0.00    +0.000 C 
ATOM     19  C   UNL     1      60.713  64.207  72.652  0.00  0.00    +0.000 C 
ATOM     20  C   UNL     1      60.850  63.819  71.936  0.00  0.00    +0.000 A 
ATOM     21  C   UNL     1      61.473  64.055  71.450  0.00  0.00    +0.000 A 
ATOM     22  C   UNL     1      61.609  63.667  70.736  0.00  0.00    +0.000 A 
ATOM     23  O   UNL     1      62.233  63.904  70.250  0.00  0.00    +0.000 OA
ATOM     24  C   UNL     1      62.369  63.516  69.534  0.00  0.00    +0.000 C 
ATOM     25  C   UNL     1      61.121  63.043  70.505  0.00  0.00    +0.000 A 
ATOM     26  O   UNL     1      61.120  62.560  69.837  0.00  0.00    +0.000 OA
ATOM     27  C   UNL     1      60.496  62.026  69.908  0.00  0.00    +0.000 C 
ATOM     28  O   UNL     1      60.111  62.178  70.622  0.00  0.00    +0.000 OA
ATOM     29  C   UNL     1      60.497  62.807  70.990  0.00  0.00    +0.000 A 
ATOM     30  C   UNL     1      60.361  63.195  71.706  0.00  0.00    +0.000 A 
ENDROOT
TORSDOF 0
ENDMDL
MODEL 4
REMARK VINA RESULT:   -12.604      1.653      4.377
REMARK INTER + INTRA:         -12.604
REMARK INTER:                 -12.604
REMARK INTRA:                   0.000
REMARK UNBOUND:                 0.000
ROOT
REMARK  Name = noscapine
REMARK                            x       y       z     vdW  Elec       q    Type
REMARK                         _______ _______ _______ _____ _____    ______ ____
ATOM      1  C   UNL     1      60.165  62.131  70.973  0.00  0.00    +0.000 C 
ATOM      2  O   UNL     1      60.158  62.708  71.563  0.00  0.00    +0.000 OA
ATOM      3  C   UNL     1      60.735  63.298  71.569  0.00  0.00    +0.000 A 
ATOM      4  C   UNL     1      60.728  63.875  72.158  0.00  0.00    +0.000 A 
ATOM      5  C   UNL     1      61.304  64.465  72.163  0.00  0.00    +0.000 A 
ATOM      6  C   UNL     1      61.888  64.478  71.580  0.00  0.00    +0.000 A 
ATOM      7  C   UNL     1      62.522  64.988  71.446  0.00  0.00    +0.000 C 
ATOM      8  O   UNL     1      62.921  64.726  70.772  0.00  0.00    +0.000 OA
ATOM      9  C   UNL     1      62.533  64.054  70.491  0.00  0.00    +0.000 C 
ATOM     10  O   UNL     1      62.746  63.612  69.828  0.00  0.00    +0.000 OA
ATOM     11  C   UNL     1      61.894  63.901  70.991  0.00  0.00    +0.000 A 
ATOM     12  C   UNL     1      61.318  63.311  70.985  0.00  0.00    +0.000 A 
ATOM     13  O   UNL     1      61.325  62.734  70.396  0.00  0.00    +0.000 OA
ATOM     14  C   UNL     1      60.748  62.144  70.390  0.00  0.00    +0.000 C 
ATOM     15  C   UNL     1      62.722  65.645  71.903  0.00  0.00    +0.000 C 
ATOM     16  N   UNL     1      62.270  65.840  72.563  0.00  0.00    +0.000 NA
ATOM     17  C   UNL     1      61.616  65.380  72.768  0.00  0.00    +0.000 C 
ATOM     18  C   UNL     1      62.470  66.497  73.021  0.00  0.00    +0.000 C 
ATOM     19  C   UNL     1      63.123  66.958  72.818  0.00  0.00    +0.000 C 
ATOM     20  C   UNL     1      63.577  66.762  72.156  0.00  0.00    +0.000 A 
ATOM     21  C   UNL     1      63.376  66.105  71.699  0.00  0.00    +0.000 A 
ATOM     22  C   UNL     1      63.829  65.909  71.038  0.00  0.00    +0.000 A 
ATOM     23  O   UNL     1      63.628  65.252  70.581  0.00  0.00    +0.000 OA
ATOM     24  C   UNL     1      64.082  65.056  69.919  0.00  0.00    +0.000 C 
ATOM     25  C   UNL     1      64.483  66.369  70.834  0.00  0.00    +0.000 A 
ATOM     26  O   UNL     1      65.028  66.312  70.219  0.00  0.00    +0.000 OA
ATOM     27  C   UNL     1      65.566  66.933  70.295  0.00  0.00    +0.000 C 
ATOM     28  O   UNL     1      65.352  67.374  70.958  0.00  0.00    +0.000 OA
ATOM     29  C   UNL     1      64.683  67.026  71.291  0.00  0.00    +0.000 A 
ATOM     30  C   UNL     1      64.230  67.222  71.953  0.00  0.00    +0.000 A 
ENDROOT
TORSDOF 0
ENDMDL
MODEL 5
REMARK VINA RESULT:   -12.364      2.291      3.701
REMARK INTER + INTRA:         -12.364
REMARK INTER:                 -12.364
REMARK INTRA:                   0.000
REMARK UNBOUND:                 0.000
ROOT
REMARK  Name = noscapine
REMARK                            x       y       z     vdW  Elec       q    Type
REMARK                         _______ _______ _______ _____ _____    ______ ____
ATOM      1  C   UNL     1      66.020  67.210  70.650  0.00  0.00    +0.000 C 
ATOM      2  O   UNL     1      65.749  66.486  70.360  0.00  0.00    +0.000 OA
ATOM      3  C   UNL     1      65.014  66.195  70.597  0.00  0.00    +0.000 A 
ATOM      4  C   UNL     1      64.745  65.472  70.307  0.00  0.00    +0.000 A 
ATOM      5  C   UNL     1      64.010  65.182  70.543  0.00  0.00    +0.000 A 
ATOM      6  C   UNL     1      63.545  65.614  71.070  0.00  0.00    +0.000 A 
ATOM      7  C   UNL     1      62.803  65.468  71.398  0.00  0.00    +0.000 C 
ATOM      8  O   UNL     1      62.614  66.102  71.892  0.00  0.00    +0.000 OA
ATOM      9  C   UNL     1      63.239  66.640  71.868  0.00  0.00    +0.000 C 
ATOM     10  O   UNL     1      63.282  67.353  72.279  0.00  0.00    +0.000 OA
ATOM     11  C   UNL     1      63.815  66.338  71.359  0.00  0.00    +0.000 A 
ATOM     12  C   UNL     1      64.550  66.629  71.123  0.00  0.00    +0.000 A 
ATOM     13  O   UNL     1      64.819  67.352  71.413  0.00  0.00    +0.000 OA
ATOM     14  C   UNL     1      65.554  67.643  71.176  0.00  0.00    +0.000 C 
ATOM     15  C   UNL     1      62.332  64.806  71.259  0.00  0.00    +0.000 C 
ATOM     16  N   UNL     1      62.594  64.213  70.749  0.00  0.00    +0.000 NA
ATOM     17  C   UNL     1      63.328  64.283  70.378  0.00  0.00    +0.000 C 
ATOM     18  C   UNL     1      62.124  63.551  70.610  0.00  0.00    +0.000 C 
ATOM     19  C   UNL     1      61.390  63.480  70.980  0.00  0.00    +0.000 C 
ATOM     20  C   UNL     1      61.127  64.073  71.490  0.00  0.00    +0.000 A 
ATOM     21  C   UNL     1      61.598  64.736  71.630  0.00  0.00    +0.000 A 
ATOM     22  C   UNL     1      61.335  65.328  72.139  0.00  0.00    +0.000 A 
ATOM     23  O   UNL     1      61.806  65.991  72.279  0.00  0.00    +0.000 OA
ATOM     24  C   UNL     1      61.543  66.585  72.789  0.00  0.00    +0.000 C 
ATOM     25  C   UNL     1      60.601  65.259  72.510  0.00  0.00    +0.000 A 
ATOM     26  O   UNL     1      60.199  65.750  73.036  0.00  0.00    +0.000 OA
ATOM     27  C   UNL     1      59.480  65.391  73.222  0.00  0.00    +0.000 C 
ATOM     28  O   UNL     1      59.438  64.678  72.811  0.00  0.00    +0.000 OA
ATOM     29  C   UNL     1      60.130  64.596  72.371  0.00  0.00    +0.000 A 
ATOM     30  C   UNL     1      60.393  64.003  71.860  0.00  0.00    +0.000 A 
ENDROOT
TORSDOF 0
ENDMDL
MODEL 6
REMARK VINA RESULT:   -11.815      1.740      4.773
REMARK INTER + INTRA:         -11.815
REMARK INTER:                 -11.815
REMARK INTRA:                   0.000
REMARK UNBOUND:                 0.000
ROOT
REMARK  Name = noscapine
REMARK                            x       y       z     vdW  Elec       q    Type
REMARK                         _______ _______ _______ _____ _____    ______ ____
ATOM      1  C   UNL     1      60.349  62.072  68.442  0.00  0.00    +0.000 C 
ATOM      2  O   UNL     1      60.008  62.809  68.295  0.00  0.00    +0.000 OA
ATOM      3  C   UNL     1      60.185  63.450  68.783  0.00  0.00    +0.000 A 
ATOM      4  C   UNL     1      59.844  64.186  68.636  0.00  0.00    +0.000 A 
ATOM      5  C   UNL     1      60.021  64.827  69.124  0.00  0.00    +0.000 A 
ATOM      6  C   UNL     1      60.539  64.732  69.759  0.00  0.00    +0.000 A 
ATOM      7  C   UNL     1      60.815  65.260  70.330  0.00  0.00    +0.000 C 
ATOM      8  O   UNL     1      61.327  64.849  70.830  0.00  0.00    +0.000 OA
ATOM      9  C   UNL     1      61.368  64.067  70.568  0.00  0.00    +0.000 C 
ATOM     10  O   UNL     1      61.816  63.464  70.908  0.00  0.00    +0.000 OA
ATOM     11  C   UNL     1      60.880  63.995  69.906  0.00  0.00    +0.000 A 
ATOM     12  C   UNL     1      60.703  63.354  69.418  0.00  0.00    +0.000 A 
ATOM     13  O   UNL     1      61.044  62.618  69.565  0.00  0.00    +0.000 OA
ATOM     14  C   UNL     1      60.867  61.977  69.077  0.00  0.00    +0.000 C 
ATOM     15  C   UNL     1      60.615  66.058  70.390  0.00  0.00    +0.000 C 
ATOM     16  N   UNL     1      60.093  66.394  69.848  0.00  0.00    +0.000 NA
ATOM     17  C   UNL     1      59.771  65.933  69.244  0.00  0.00    +0.000 C 
ATOM     18  C   UNL     1      59.893  67.192  69.908  0.00  0.00    +0.000 C 
ATOM     19  C   UNL     1      60.214  67.654  70.512  0.00  0.00    +0.000 C 
ATOM     20  C   UNL     1      60.736  67.317  71.055  0.00  0.00    +0.000 A 
ATOM     21  C   UNL     1      60.937  66.519  70.994  0.00  0.00    +0.000 A 
ATOM     22  C   UNL     1      61.458  66.182  71.537  0.00  0.00    +0.000 A 
ATOM     23  O   UNL     1      61.659  65.384  71.476  0.00  0.00    +0.000 OA
ATOM     24  C   UNL     1      62.181  65.047  72.020  0.00  0.00    +0.000 C 
ATOM     25  C   UNL     1      61.781  66.643  72.141  0.00  0.00    +0.000 A 
ATOM     26  O   UNL     1      62.305  66.466  72.751  0.00  0.00    +0.000 OA
ATOM     27  C   UNL     1      62.430  67.154  73.189  0.00  0.00    +0.000 C 
ATOM     28  O   UNL     1      61.981  67.756  72.849  0.00  0.00    +0.000 OA
ATOM     29  C   UNL     1      61.580  67.441  72.202  0.00  0.00    +0.000 A 
ATOM     30  C   UNL     1      61.058  67.778  71.658  0.00  0.00    +0.000 A 
ENDROOT
TORSDOF 0
ENDMDL
MODEL 7
REMARK VINA RESULT:   -11.445      2.291      4.142
REMARK INTER + INTRA:         -11.445
REMARK INTER:                 -11.445
REMARK INTRA:                   0.000
REMARK UNBOUND:                 0.000
ROOT
REMARK  Name = noscapine
REMARK                            x       y       z     vdW  Elec       q    Type
REMARK                         _______ _______ _______ _____ _____    ______ ____
ATOM      1  C   UNL     1      64.752  64.868  70.025  0.00  0.00    +0.000 C 
ATOM      2  O   UNL     1      64.580  65.521  70.500  0.00  0.00    +0.000 OA
ATOM      3  C   UNL     1      63.831  65.601  70.835  0.00  0.00    +0.000 A 
ATOM      4  C   UNL     1      63.659  66.253  71.310  0.00  0.00    +0.000 A 
ATOM      5  C   UNL     1      62.910  66.333  71.645  0.00  0.00    +0.000 A 
ATOM      6  C   UNL     1      62.332  65.761  71.507  0.00  0.00    +0.000 A 
ATOM      7  C   UNL     1      61.551  65.692  71.762  0.00  0.00    +0.000 C 
ATOM      8  O   UNL     1      61.239  64.997  71.444  0.00  0.00    +0.000 OA
ATOM      9  C   UNL     1      61.829  64.636  70.993  0.00  0.00    +0.000 C 
ATOM     10  O   UNL     1      61.755  63.928  70.577  0.00  0.00    +0.000 OA
ATOM     11  C   UNL     1      62.504  65.108  71.032  0.00  0.00    +0.000 A 
ATOM     12  C   UNL     1      63.253  65.028  70.696  0.00  0.00    +0.000 A 
ATOM     13  O   UNL     1      63.425  64.376  70.222  0.00  0.00    +0.000 OA
ATOM     14  C   UNL     1      64.174  64.296  69.886  0.00  0.00    +0.000 C 
ATOM     15  C   UNL     1      61.151  66.225  72.248  0.00  0.00    +0.000 C 
ATOM     16  N   UNL     1      61.536  66.899  72.525  0.00  0.00    +0.000 NA
ATOM     17  C   UNL     1      62.321  67.042  72.315  0.00  0.00    +0.000 C 
ATOM     18  C   UNL     1      61.135  67.432  73.011  0.00  0.00    +0.000 C 
ATOM     19  C   UNL     1      60.351  67.290  73.222  0.00  0.00    +0.000 C 
ATOM     20  C   UNL     1      59.965  66.614  72.944  0.00  0.00    +0.000 A 
ATOM     21  C   UNL     1      60.366  66.082  72.458  0.00  0.00    +0.000 A 
ATOM     22  C   UNL     1      59.981  65.407  72.181  0.00  0.00    +0.000 A 
ATOM     23  O   UNL     1      60.381  64.874  71.695  0.00  0.00    +0.000 OA
ATOM     24  C   UNL     1      59.996  64.199  71.418  0.00  0.00    +0.000 C 
ATOM     25  C   UNL     1      59.195  65.264  72.391  0.00  0.00    +0.000 A 
ATOM     26  O   UNL     1      58.677  64.651  72.204  0.00  0.00    +0.000 OA
ATOM     27  C   UNL     1      57.956  64.805  72.575  0.00  0.00    +0.000 C 
ATOM     28  O   UNL     1      58.030  65.513  72.991  0.00  0.00    +0.000 OA
ATOM     29  C   UNL     1      58.795  65.797  72.877  0.00  0.00    +0.000 A 
ATOM     30  C   UNL     1      59.181  66.472  73.155  0.00  0.00    +0.000 A 
ENDROOT
TORSDOF 0
ENDMDL
MODEL 8
REMARK VINA RESULT:   -10.585     16.892     19.550
REMARK INTER + INTRA:         -10.585
REMARK INTER:                 -10.585
REMARK INTRA:                   0.000
REMARK UNBOUND:                 0.000
ROOT
REMARK  Name = noscapine
REMARK                            x       y       z     vdW  Elec       q    Type
REMARK                         _______ _______ _______ _____ _____    ______ ____
ATOM      1  C   UNL     1      65.268  62.793  48.211  0.00  0.00    +0.000 C 
ATOM      2  O   UNL     1      65.444  63.151  48.934  0.00  0.00    +0.000 OA
ATOM      3  C   UNL     1      65.218  62.788  49.640  0.00  0.00    +0.000 A 
ATOM      4  C   UNL     1      65.393  63.145  50.361  0.00  0.00    +0.000 A 
ATOM      5  C   UNL     1      65.167  62.782  51.067  0.00  0.00    +0.000 A 
ATOM      6  C   UNL     1      64.766  62.062  51.050  0.00  0.00    +0.000 A 
ATOM      7  C   UNL     1      64.476  61.578  51.652  0.00  0.00    +0.000 C 
ATOM      8  O   UNL     1      64.120  60.920  51.301  0.00  0.00    +0.000 OA
ATOM      9  C   UNL     1      64.191  60.999  50.482  0.00  0.00    +0.000 C 
ATOM     10  O   UNL     1      63.912  60.465  49.919  0.00  0.00    +0.000 OA
ATOM     11  C   UNL     1      64.590  61.704  50.328  0.00  0.00    +0.000 A 
ATOM     12  C   UNL     1      64.816  62.067  49.622  0.00  0.00    +0.000 A 
ATOM     13  O   UNL     1      64.640  61.710  48.900  0.00  0.00    +0.000 OA
ATOM     14  C   UNL     1      64.866  62.073  48.195  0.00  0.00    +0.000 C 
ATOM     15  C   UNL     1      64.531  61.724  52.462  0.00  0.00    +0.000 C 
ATOM     16  N   UNL     1      64.903  62.408  52.732  0.00  0.00    +0.000 NA
ATOM     17  C   UNL     1      65.222  62.946  52.194  0.00  0.00    +0.000 C 
ATOM     18  C   UNL     1      64.959  62.555  53.542  0.00  0.00    +0.000 C 
ATOM     19  C   UNL     1      64.641  62.018  54.082  0.00  0.00    +0.000 C 
ATOM     20  C   UNL     1      64.268  61.333  53.811  0.00  0.00    +0.000 A 
ATOM     21  C   UNL     1      64.213  61.186  53.001  0.00  0.00    +0.000 A 
ATOM     22  C   UNL     1      63.840  60.502  52.730  0.00  0.00    +0.000 A 
ATOM     23  O   UNL     1      63.785  60.356  51.920  0.00  0.00    +0.000 OA
ATOM     24  C   UNL     1      63.411  59.671  51.649  0.00  0.00    +0.000 C 
ATOM     25  C   UNL     1      63.522  59.964  53.269  0.00  0.00    +0.000 A 
ATOM     26  O   UNL     1      63.126  59.249  53.167  0.00  0.00    +0.000 OA
ATOM     27  C   UNL     1      62.936  58.953  53.912  0.00  0.00    +0.000 C 
ATOM     28  O   UNL     1      63.215  59.486  54.476  0.00  0.00    +0.000 OA
ATOM     29  C   UNL     1      63.577  60.111  54.079  0.00  0.00    +0.000 A 
ATOM     30  C   UNL     1      63.950  60.796  54.350  0.00  0.00    +0.000 A 
ENDROOT
TORSDOF 0
ENDMDL
MODEL 9
REMARK VINA RESULT:   -10.554     16.932     18.688
REMARK INTER + INTRA:         -10.554
REMARK INTER:                 -10.554
REMARK INTRA:                   0.000
REMARK UNBOUND:                 0.000
ROOT
REMARK  Name = noscapine
REMARK                            x       y       z     vdW  Elec       q    Type
REMARK                         _______ _______ _______ _____ _____    ______ ____
ATOM      1  C   UNL     1      65.807  63.502  53.612  0.00  0.00    +0.000 C 
ATOM      2  O   UNL     1      65.385  62.970  54.080  0.00  0.00    +0.000 OA
ATOM      3  C   UNL     1      64.986  62.339  53.730  0.00  0.00    +0.000 A 
ATOM      4  C   UNL     1      64.564  61.807  54.198  0.00  0.00    +0.000 A 
ATOM      5  C   UNL     1      64.165  61.175  53.847  0.00  0.00    +0.000 A 
ATOM      6  C   UNL     1      64.187  61.076  53.029  0.00  0.00    +0.000 A 
ATOM      7  C   UNL     1      63.850  60.511  52.532  0.00  0.00    +0.000 C 
ATOM      8  O   UNL     1      64.064  60.694  51.755  0.00  0.00    +0.000 OA
ATOM      9  C   UNL     1      64.533  61.373  51.774  0.00  0.00    +0.000 C 
ATOM     10  O   UNL     1      64.867  61.749  51.120  0.00  0.00    +0.000 OA
ATOM     11  C   UNL     1      64.609  61.609  52.560  0.00  0.00    +0.000 A 
ATOM     12  C   UNL     1      65.009  62.240  52.911  0.00  0.00    +0.000 A 
ATOM     13  O   UNL     1      65.430  62.772  52.443  0.00  0.00    +0.000 OA
ATOM     14  C   UNL     1      65.829  63.403  52.793  0.00  0.00    +0.000 C 
ATOM     15  C   UNL     1      63.382  59.875  52.768  0.00  0.00    +0.000 C 
ATOM     16  N   UNL     1      63.214  59.761  53.567  0.00  0.00    +0.000 NA
ATOM     17  C   UNL     1      63.514  60.284  54.131  0.00  0.00    +0.000 C 
ATOM     18  C   UNL     1      62.746  59.124  53.804  0.00  0.00    +0.000 C 
ATOM     19  C   UNL     1      62.445  58.601  53.241  0.00  0.00    +0.000 C 
ATOM     20  C   UNL     1      62.613  58.715  52.441  0.00  0.00    +0.000 A 
ATOM     21  C   UNL     1      63.082  59.352  52.205  0.00  0.00    +0.000 A 
ATOM     22  C   UNL     1      63.250  59.465  51.405  0.00  0.00    +0.000 A 
ATOM     23  O   UNL     1      63.718  60.102  51.169  0.00  0.00    +0.000 OA
ATOM     24  C   UNL     1      63.886  60.216  50.369  0.00  0.00    +0.000 C 
ATOM     25  C   UNL     1      62.949  58.943  50.842  0.00  0.00    +0.000 A 
ATOM     26  O   UNL     1      63.021  58.914  50.021  0.00  0.00    +0.000 OA
ATOM     27  C   UNL     1      62.597  58.261  49.750  0.00  0.00    +0.000 C 
ATOM     28  O   UNL     1      62.264  57.885  50.404  0.00  0.00    +0.000 OA
ATOM     29  C   UNL     1      62.481  58.306  51.078  0.00  0.00    +0.000 A 
ATOM     30  C   UNL     1      62.313  58.192  51.879  0.00  0.00    +0.000 A 
ENDROOT
TORSDOF 0
ENDMDL
