MODEL 1
REMARK VINA RESULT:   -12.032      0.000      0.000
REMARK INTER + INTRA:         -12.032
REMARK INTER:                 -12.032
REMARK INTRA:                   0.000
REMARK UNBOUND:                 0.000
ROOT
REMARK  Name = noxiptiline
REMARK                            x       y       z     vdW  Elec       q    Type
REMARK                         _______ _______ _______ _____ _____    ______ ____
ATOM      1  C   UNL     1      61.847  64.489  69.939  0.00  0.00    +0.000 C 
ATOM      2  N   UNL     1      62.145  64.196  69.228  0.00  0.00    +0.000 NA
ATOM      3  C   UNL     1      62.942  64.299  69.041  0.00  0.00    +0.000 C 
ATOM      4  C   UNL     1      61.647  63.800  68.703  0.00  0.00    +0.000 C 
ATOM      5  C   UNL     1      61.945  63.508  67.991  0.00  0.00    +0.000 C 
ATOM      6  O   UNL     1      61.447  63.112  67.467  0.00  0.00    +0.000 OA
ATOM      7  N   UNL     1      61.745  62.819  66.755  0.00  0.00    +0.000 NA
ATOM      8  C   UNL     1      61.247  62.424  66.230  0.00  0.00    +0.000 C 
ATOM      9  C   UNL     1      61.600  62.153  65.536  0.00  0.00    +0.000 A 
ATOM     10  C   UNL     1      62.403  62.342  65.513  0.00  0.00    +0.000 A 
ATOM     11  C   UNL     1      62.861  62.121  64.863  0.00  0.00    +0.000 A 
ATOM     12  C   UNL     1      62.515  61.711  64.235  0.00  0.00    +0.000 A 
ATOM     13  C   UNL     1      61.712  61.522  64.259  0.00  0.00    +0.000 A 
ATOM     14  C   UNL     1      61.255  61.743  64.909  0.00  0.00    +0.000 A 
ATOM     15  C   UNL     1      60.470  61.502  64.821  0.00  0.00    +0.000 C 
ATOM     16  C   UNL     1      59.838  61.612  65.340  0.00  0.00    +0.000 C 
ATOM     17  C   UNL     1      59.834  61.990  66.073  0.00  0.00    +0.000 A 
ATOM     18  C   UNL     1      60.460  62.351  66.469  0.00  0.00    +0.000 A 
ATOM     19  C   UNL     1      60.336  62.700  67.207  0.00  0.00    +0.000 A 
ATOM     20  C   UNL     1      59.585  62.688  67.546  0.00  0.00    +0.000 A 
ATOM     21  C   UNL     1      58.957  62.327  67.150  0.00  0.00    +0.000 A 
ATOM     22  C   UNL     1      59.083  61.978  66.413  0.00  0.00    +0.000 A 
ENDROOT
TORSDOF 0
ENDMDL
MODEL 2
REMARK VINA RESULT:   -11.660      3.076      5.049
REMARK INTER + INTRA:         -11.660
REMARK INTER:                 -11.660
REMARK INTRA:                   0.000
REMARK UNBOUND:                 0.000
ROOT
REMARK  Name = noxiptiline
REMARK                            x       y       z     vdW  Elec       q    Type
REMARK                         _______ _______ _______ _____ _____    ______ ____
ATOM      1  C   UNL     1      59.374  67.038  68.836  0.00  0.00    +0.000 C 
ATOM      2  N   UNL     1      59.663  66.642  69.500  0.00  0.00    +0.000 NA
ATOM      3  C   UNL     1      59.791  67.056  70.202  0.00  0.00    +0.000 C 
ATOM      4  C   UNL     1      59.825  65.835  69.462  0.00  0.00    +0.000 C 
ATOM      5  C   UNL     1      60.115  65.440  70.125  0.00  0.00    +0.000 C 
ATOM      6  O   UNL     1      60.277  64.632  70.087  0.00  0.00    +0.000 OA
ATOM      7  N   UNL     1      60.566  64.237  70.751  0.00  0.00    +0.000 NA
ATOM      8  C   UNL     1      60.728  63.429  70.712  0.00  0.00    +0.000 C 
ATOM      9  C   UNL     1      61.016  63.088  71.406  0.00  0.00    +0.000 A 
ATOM     10  C   UNL     1      61.082  63.646  72.011  0.00  0.00    +0.000 A 
ATOM     11  C   UNL     1      61.360  63.418  72.754  0.00  0.00    +0.000 A 
ATOM     12  C   UNL     1      61.572  62.632  72.892  0.00  0.00    +0.000 A 
ATOM     13  C   UNL     1      61.505  62.074  72.287  0.00  0.00    +0.000 A 
ATOM     14  C   UNL     1      61.227  62.303  71.544  0.00  0.00    +0.000 A 
ATOM     15  C   UNL     1      61.204  61.664  71.022  0.00  0.00    +0.000 C 
ATOM     16  C   UNL     1      60.963  61.654  70.233  0.00  0.00    +0.000 C 
ATOM     17  C   UNL     1      60.686  62.279  69.772  0.00  0.00    +0.000 A 
ATOM     18  C   UNL     1      60.582  63.069  69.985  0.00  0.00    +0.000 A 
ATOM     19  C   UNL     1      60.295  63.611  69.433  0.00  0.00    +0.000 A 
ATOM     20  C   UNL     1      60.113  63.362  68.668  0.00  0.00    +0.000 A 
ATOM     21  C   UNL     1      60.217  62.572  68.454  0.00  0.00    +0.000 A 
ATOM     22  C   UNL     1      60.504  62.030  69.007  0.00  0.00    +0.000 A 
ENDROOT
TORSDOF 0
ENDMDL
MODEL 3
REMARK VINA RESULT:   -11.395      2.853      4.620
REMARK INTER + INTRA:         -11.395
REMARK INTER:                 -11.395
REMARK INTRA:                   0.000
REMARK UNBOUND:                 0.000
ROOT
REMARK  Name = noxiptiline
REMARK                            x       y       z     vdW  Elec       q    Type
REMARK                         _______ _______ _______ _____ _____    ______ ____
ATOM      1  C   UNL     1      59.745  67.638  71.015  0.00  0.00    +0.000 C 
ATOM      2  N   UNL     1      59.766  67.018  70.472  0.00  0.00    +0.000 NA
ATOM      3  C   UNL     1      59.586  67.159  69.679  0.00  0.00    +0.000 C 
ATOM      4  C   UNL     1      59.967  66.258  70.719  0.00  0.00    +0.000 C 
ATOM      5  C   UNL     1      59.988  65.638  70.175  0.00  0.00    +0.000 C 
ATOM      6  O   UNL     1      60.189  64.878  70.423  0.00  0.00    +0.000 OA
ATOM      7  N   UNL     1      60.210  64.257  69.879  0.00  0.00    +0.000 NA
ATOM      8  C   UNL     1      60.411  63.497  70.127  0.00  0.00    +0.000 C 
ATOM      9  C   UNL     1      60.416  62.918  69.540  0.00  0.00    +0.000 A 
ATOM     10  C   UNL     1      60.211  63.233  68.805  0.00  0.00    +0.000 A 
ATOM     11  C   UNL     1      60.182  62.745  68.141  0.00  0.00    +0.000 A 
ATOM     12  C   UNL     1      60.358  61.941  68.211  0.00  0.00    +0.000 A 
ATOM     13  C   UNL     1      60.562  61.627  68.946  0.00  0.00    +0.000 A 
ATOM     14  C   UNL     1      60.591  62.115  69.610  0.00  0.00    +0.000 A 
ATOM     15  C   UNL     1      60.806  61.692  70.286  0.00  0.00    +0.000 C 
ATOM     16  C   UNL     1      60.899  61.969  71.057  0.00  0.00    +0.000 C 
ATOM     17  C   UNL     1      60.799  62.736  71.344  0.00  0.00    +0.000 A 
ATOM     18  C   UNL     1      60.582  63.416  70.931  0.00  0.00    +0.000 A 
ATOM     19  C   UNL     1      60.513  64.136  71.327  0.00  0.00    +0.000 A 
ATOM     20  C   UNL     1      60.660  64.176  72.138  0.00  0.00    +0.000 A 
ATOM     21  C   UNL     1      60.877  63.495  72.552  0.00  0.00    +0.000 A 
ATOM     22  C   UNL     1      60.946  62.776  72.155  0.00  0.00    +0.000 A 
ENDROOT
TORSDOF 0
ENDMDL
MODEL 4
REMARK VINA RESULT:   -11.323      2.576      4.393
REMARK INTER + INTRA:         -11.323
REMARK INTER:                 -11.323
REMARK INTRA:                   0.000
REMARK UNBOUND:                 0.000
ROOT
REMARK  Name = noxiptiline
REMARK                            x       y       z     vdW  Elec       q    Type
REMARK                         _______ _______ _______ _____ _____    ______ ____
ATOM      1  C   UNL     1      64.339  66.367  71.310  0.00  0.00    +0.000 C 
ATOM      2  N   UNL     1      63.942  65.952  70.717  0.00  0.00    +0.000 NA
ATOM      3  C   UNL     1      64.069  66.143  69.925  0.00  0.00    +0.000 C 
ATOM      4  C   UNL     1      63.418  65.348  70.916  0.00  0.00    +0.000 C 
ATOM      5  C   UNL     1      63.021  64.933  70.324  0.00  0.00    +0.000 C 
ATOM      6  O   UNL     1      62.497  64.328  70.523  0.00  0.00    +0.000 OA
ATOM      7  N   UNL     1      62.100  63.913  69.931  0.00  0.00    +0.000 NA
ATOM      8  C   UNL     1      61.577  63.308  70.130  0.00  0.00    +0.000 C 
ATOM      9  C   UNL     1      61.209  62.929  69.496  0.00  0.00    +0.000 A 
ATOM     10  C   UNL     1      61.452  63.246  68.774  0.00  0.00    +0.000 A 
ATOM     11  C   UNL     1      61.148  62.944  68.068  0.00  0.00    +0.000 A 
ATOM     12  C   UNL     1      60.602  62.325  68.085  0.00  0.00    +0.000 A 
ATOM     13  C   UNL     1      60.360  62.009  68.808  0.00  0.00    +0.000 A 
ATOM     14  C   UNL     1      60.664  62.311  69.513  0.00  0.00    +0.000 A 
ATOM     15  C   UNL     1      60.350  61.918  70.168  0.00  0.00    +0.000 C 
ATOM     16  C   UNL     1      60.506  62.047  70.967  0.00  0.00    +0.000 C 
ATOM     17  C   UNL     1      61.013  62.601  71.310  0.00  0.00    +0.000 A 
ATOM     18  C   UNL     1      61.489  63.162  70.937  0.00  0.00    +0.000 A 
ATOM     19  C   UNL     1      61.960  63.668  71.388  0.00  0.00    +0.000 A 
ATOM     20  C   UNL     1      61.954  63.613  72.210  0.00  0.00    +0.000 A 
ATOM     21  C   UNL     1      61.477  63.052  72.584  0.00  0.00    +0.000 A 
ATOM     22  C   UNL     1      61.007  62.546  72.133  0.00  0.00    +0.000 A 
ENDROOT
TORSDOF 0
ENDMDL
MODEL 5
REMARK VINA RESULT:   -10.893      2.535      5.562
REMARK INTER + INTRA:         -10.893
REMARK INTER:                 -10.893
REMARK INTRA:                   0.000
REMARK UNBOUND:                 0.000
ROOT
REMARK  Name = noxiptiline
REMARK                            x       y       z     vdW  Elec       q    Type
REMARK                         _______ _______ _______ _____ _____    ______ ____
ATOM      1  C   UNL     1      60.174  62.787  66.830  0.00  0.00    +0.000 C 
ATOM      2  N   UNL     1      60.495  62.427  67.500  0.00  0.00    +0.000 NA
ATOM      3  C   UNL     1      60.862  61.691  67.437  0.00  0.00    +0.000 C 
ATOM      4  C   UNL     1      60.449  62.803  68.232  0.00  0.00    +0.000 C 
ATOM      5  C   UNL     1      60.770  62.444  68.902  0.00  0.00    +0.000 C 
ATOM      6  O   UNL     1      60.724  62.820  69.634  0.00  0.00    +0.000 OA
ATOM      7  N   UNL     1      61.045  62.460  70.304  0.00  0.00    +0.000 NA
ATOM      8  C   UNL     1      60.999  62.836  71.036  0.00  0.00    +0.000 C 
ATOM      9  C   UNL     1      61.336  62.430  71.670  0.00  0.00    +0.000 A 
ATOM     10  C   UNL     1      61.659  61.710  71.428  0.00  0.00    +0.000 A 
ATOM     11  C   UNL     1      62.025  61.216  71.978  0.00  0.00    +0.000 A 
ATOM     12  C   UNL     1      62.069  61.442  72.771  0.00  0.00    +0.000 A 
ATOM     13  C   UNL     1      61.746  62.163  73.012  0.00  0.00    +0.000 A 
ATOM     14  C   UNL     1      61.380  62.656  72.462  0.00  0.00    +0.000 A 
ATOM     15  C   UNL     1      61.096  63.345  72.817  0.00  0.00    +0.000 C 
ATOM     16  C   UNL     1      60.699  63.977  72.467  0.00  0.00    +0.000 C 
ATOM     17  C   UNL     1      60.487  64.077  71.675  0.00  0.00    +0.000 A 
ATOM     18  C   UNL     1      60.621  63.570  71.040  0.00  0.00    +0.000 A 
ATOM     19  C   UNL     1      60.361  63.777  70.284  0.00  0.00    +0.000 A 
ATOM     20  C   UNL     1      59.968  64.493  70.166  0.00  0.00    +0.000 A 
ATOM     21  C   UNL     1      59.834  65.001  70.803  0.00  0.00    +0.000 A 
ATOM     22  C   UNL     1      60.094  64.793  71.558  0.00  0.00    +0.000 A 
ENDROOT
TORSDOF 0
ENDMDL
MODEL 6
REMARK VINA RESULT:   -10.849      1.712      4.914
REMARK INTER + INTRA:         -10.849
REMARK INTER:                 -10.849
REMARK INTRA:                   0.000
REMARK UNBOUND:                 0.000
ROOT
REMARK  Name = noxiptiline
REMARK                            x       y       z     vdW  Elec       q    Type
REMARK                         _______ _______ _______ _____ _____    ______ ____
ATOM      1  C   UNL     1      60.382  62.003  66.213  0.00  0.00    +0.000 C 
ATOM      2  N   UNL     1      60.830  62.544  66.646  0.00  0.00    +0.000 NA
ATOM      3  C   UNL     1      61.266  63.125  66.254  0.00  0.00    +0.000 C 
ATOM      4  C   UNL     1      60.842  62.505  67.469  0.00  0.00    +0.000 C 
ATOM      5  C   UNL     1      61.290  63.046  67.902  0.00  0.00    +0.000 C 
ATOM      6  O   UNL     1      61.302  63.007  68.726  0.00  0.00    +0.000 OA
ATOM      7  N   UNL     1      61.750  63.548  69.159  0.00  0.00    +0.000 NA
ATOM      8  C   UNL     1      61.762  63.509  69.982  0.00  0.00    +0.000 C 
ATOM      9  C   UNL     1      62.227  64.075  70.362  0.00  0.00    +0.000 A 
ATOM     10  C   UNL     1      62.592  64.577  69.818  0.00  0.00    +0.000 A 
ATOM     11  C   UNL     1      63.083  65.185  70.083  0.00  0.00    +0.000 A 
ATOM     12  C   UNL     1      63.209  65.291  70.892  0.00  0.00    +0.000 A 
ATOM     13  C   UNL     1      62.843  64.788  71.435  0.00  0.00    +0.000 A 
ATOM     14  C   UNL     1      62.352  64.181  71.170  0.00  0.00    +0.000 A 
ATOM     15  C   UNL     1      62.044  63.746  71.800  0.00  0.00    +0.000 C 
ATOM     16  C   UNL     1      61.534  63.098  71.776  0.00  0.00    +0.000 C 
ATOM     17  C   UNL     1      61.206  62.725  71.117  0.00  0.00    +0.000 A 
ATOM     18  C   UNL     1      61.308  62.908  70.319  0.00  0.00    +0.000 A 
ATOM     19  C   UNL     1      60.926  62.459  69.741  0.00  0.00    +0.000 A 
ATOM     20  C   UNL     1      60.442  61.829  69.962  0.00  0.00    +0.000 A 
ATOM     21  C   UNL     1      60.340  61.646  70.760  0.00  0.00    +0.000 A 
ATOM     22  C   UNL     1      60.723  62.094  71.337  0.00  0.00    +0.000 A 
ENDROOT
TORSDOF 0
ENDMDL
MODEL 7
REMARK VINA RESULT:   -10.427      1.681      5.705
REMARK INTER + INTRA:         -10.427
REMARK INTER:                 -10.427
REMARK INTRA:                   0.000
REMARK UNBOUND:                 0.000
ROOT
REMARK  Name = noxiptiline
REMARK                            x       y       z     vdW  Elec       q    Type
REMARK                         _______ _______ _______ _____ _____    ______ ____
ATOM      1  C   UNL     1      61.618  62.759  66.393  0.00  0.00    +0.000 C 
ATOM      2  N   UNL     1      61.218  62.805  67.114  0.00  0.00    +0.000 NA
ATOM      3  C   UNL     1      60.453  62.504  67.180  0.00  0.00    +0.000 C 
ATOM      4  C   UNL     1      61.583  63.152  67.767  0.00  0.00    +0.000 C 
ATOM      5  C   UNL     1      61.183  63.198  68.487  0.00  0.00    +0.000 C 
ATOM      6  O   UNL     1      61.547  63.544  69.140  0.00  0.00    +0.000 OA
ATOM      7  N   UNL     1      61.147  63.590  69.861  0.00  0.00    +0.000 NA
ATOM      8  C   UNL     1      61.511  63.937  70.514  0.00  0.00    +0.000 C 
ATOM      9  C   UNL     1      61.064  63.954  71.207  0.00  0.00    +0.000 A 
ATOM     10  C   UNL     1      60.322  63.610  71.095  0.00  0.00    +0.000 A 
ATOM     11  C   UNL     1      59.787  63.571  71.721  0.00  0.00    +0.000 A 
ATOM     12  C   UNL     1      59.993  63.876  72.460  0.00  0.00    +0.000 A 
ATOM     13  C   UNL     1      60.734  64.221  72.571  0.00  0.00    +0.000 A 
ATOM     14  C   UNL     1      61.270  64.260  71.945  0.00  0.00    +0.000 A 
ATOM     15  C   UNL     1      61.975  64.623  72.173  0.00  0.00    +0.000 C 
ATOM     16  C   UNL     1      62.647  64.771  71.719  0.00  0.00    +0.000 C 
ATOM     17  C   UNL     1      62.781  64.592  70.925  0.00  0.00    +0.000 A 
ATOM     18  C   UNL     1      62.276  64.221  70.389  0.00  0.00    +0.000 A 
ATOM     19  C   UNL     1      62.521  64.093  69.611  0.00  0.00    +0.000 A 
ATOM     20  C   UNL     1      63.271  64.336  69.371  0.00  0.00    +0.000 A 
ATOM     21  C   UNL     1      63.777  64.708  69.907  0.00  0.00    +0.000 A 
ATOM     22  C   UNL     1      63.532  64.835  70.684  0.00  0.00    +0.000 A 
ENDROOT
TORSDOF 0
ENDMDL
MODEL 8
REMARK VINA RESULT:   -10.387      2.737      6.289
REMARK INTER + INTRA:         -10.387
REMARK INTER:                 -10.387
REMARK INTRA:                   0.000
REMARK UNBOUND:                 0.000
ROOT
REMARK  Name = noxiptiline
REMARK                            x       y       z     vdW  Elec       q    Type
REMARK                         _______ _______ _______ _____ _____    ______ ____
ATOM      1  C   UNL     1      60.590  63.018  68.766  0.00  0.00    +0.000 C 
ATOM      2  N   UNL     1      61.269  63.483  68.716  0.00  0.00    +0.000 NA
ATOM      3  C   UNL     1      61.698  63.512  68.011  0.00  0.00    +0.000 C 
ATOM      4  C   UNL     1      61.520  63.919  69.369  0.00  0.00    +0.000 C 
ATOM      5  C   UNL     1      62.200  64.384  69.318  0.00  0.00    +0.000 C 
ATOM      6  O   UNL     1      62.451  64.820  69.971  0.00  0.00    +0.000 OA
ATOM      7  N   UNL     1      63.131  65.286  69.921  0.00  0.00    +0.000 NA
ATOM      8  C   UNL     1      63.382  65.722  70.574  0.00  0.00    +0.000 C 
ATOM      9  C   UNL     1      64.067  66.168  70.466  0.00  0.00    +0.000 A 
ATOM     10  C   UNL     1      64.365  66.080  69.701  0.00  0.00    +0.000 A 
ATOM     11  C   UNL     1      65.051  66.481  69.477  0.00  0.00    +0.000 A 
ATOM     12  C   UNL     1      65.438  66.970  70.017  0.00  0.00    +0.000 A 
ATOM     13  C   UNL     1      65.139  67.058  70.782  0.00  0.00    +0.000 A 
ATOM     14  C   UNL     1      64.454  66.657  71.006  0.00  0.00    +0.000 A 
ATOM     15  C   UNL     1      64.252  66.820  71.789  0.00  0.00    +0.000 C 
ATOM     16  C   UNL     1      63.612  66.535  72.224  0.00  0.00    +0.000 C 
ATOM     17  C   UNL     1      63.017  66.016  71.985  0.00  0.00    +0.000 A 
ATOM     18  C   UNL     1      62.915  65.655  71.251  0.00  0.00    +0.000 A 
ATOM     19  C   UNL     1      62.275  65.148  71.126  0.00  0.00    +0.000 A 
ATOM     20  C   UNL     1      61.738  65.005  71.735  0.00  0.00    +0.000 A 
ATOM     21  C   UNL     1      61.840  65.367  72.470  0.00  0.00    +0.000 A 
ATOM     22  C   UNL     1      62.480  65.872  72.594  0.00  0.00    +0.000 A 
ENDROOT
TORSDOF 0
ENDMDL
MODEL 9
REMARK VINA RESULT:   -10.280      2.600      4.302
REMARK INTER + INTRA:         -10.280
REMARK INTER:                 -10.280
REMARK INTRA:                   0.000
REMARK UNBOUND:                 0.000
ROOT
REMARK  Name = noxiptiline
REMARK                            x       y       z     vdW  Elec       q    Type
REMARK                         _______ _______ _______ _____ _____    ______ ____
ATOM      1  C   UNL     1      64.278  66.319  69.426  0.00  0.00    +0.000 C 
ATOM      2  N   UNL     1      63.972  65.732  69.919  0.00  0.00    +0.000 NA
ATOM      3  C   UNL     1      64.252  65.656  70.692  0.00  0.00    +0.000 C 
ATOM      4  C   UNL     1      63.388  65.222  69.641  0.00  0.00    +0.000 C 
ATOM      5  C   UNL     1      63.082  64.635  70.134  0.00  0.00    +0.000 C 
ATOM      6  O   UNL     1      62.498  64.125  69.855  0.00  0.00    +0.000 OA
ATOM      7  N   UNL     1      62.192  63.538  70.348  0.00  0.00    +0.000 NA
ATOM      8  C   UNL     1      61.608  63.027  70.070  0.00  0.00    +0.000 C 
ATOM      9  C   UNL     1      61.340  62.461  70.606  0.00  0.00    +0.000 A 
ATOM     10  C   UNL     1      61.727  62.529  71.333  0.00  0.00    +0.000 A 
ATOM     11  C   UNL     1      61.540  62.012  71.949  0.00  0.00    +0.000 A 
ATOM     12  C   UNL     1      60.967  61.429  71.840  0.00  0.00    +0.000 A 
ATOM     13  C   UNL     1      60.580  61.362  71.113  0.00  0.00    +0.000 A 
ATOM     14  C   UNL     1      60.767  61.878  70.497  0.00  0.00    +0.000 A 
ATOM     15  C   UNL     1      60.319  61.717  69.823  0.00  0.00    +0.000 C 
ATOM     16  C   UNL     1      60.334  62.100  69.093  0.00  0.00    +0.000 C 
ATOM     17  C   UNL     1      60.801  62.738  68.855  0.00  0.00    +0.000 A 
ATOM     18  C   UNL     1      61.367  63.150  69.290  0.00  0.00    +0.000 A 
ATOM     19  C   UNL     1      61.776  63.778  68.944  0.00  0.00    +0.000 A 
ATOM     20  C   UNL     1      61.618  63.992  68.164  0.00  0.00    +0.000 A 
ATOM     21  C   UNL     1      61.050  63.579  67.728  0.00  0.00    +0.000 A 
ATOM     22  C   UNL     1      60.642  62.952  68.075  0.00  0.00    +0.000 A 
ENDROOT
TORSDOF 0
ENDMDL
