MODEL 1
REMARK VINA RESULT:    -6.041      0.000      0.000
REMARK INTER + INTRA:          -6.041
REMARK INTER:                  -6.041
REMARK INTRA:                   0.000
REMARK UNBOUND:                 0.000
ROOT
REMARK  Name = octodrine
REMARK                            x       y       z     vdW  Elec       q    Type
REMARK                         _______ _______ _______ _____ _____    ______ ____
ATOM      1  C   UNL     1      59.799  62.740  67.461  0.00  0.00    +0.000 C 
ATOM      2  C   UNL     1      59.917  62.398  66.719  0.00  0.00    +0.000 C 
ATOM      3  C   UNL     1      59.284  62.048  66.322  0.00  0.00    +0.000 C 
ATOM      4  C   UNL     1      60.666  62.406  66.375  0.00  0.00    +0.000 C 
ATOM      5  C   UNL     1      60.784  62.065  65.633  0.00  0.00    +0.000 C 
ATOM      6  C   UNL     1      61.533  62.073  65.289  0.00  0.00    +0.000 C 
ATOM      7  C   UNL     1      61.650  61.731  64.547  0.00  0.00    +0.000 C 
ATOM      8  C   UNL     1      62.399  61.739  64.203  0.00  0.00    +0.000 C 
ATOM      9  N   UNL     1      61.018  61.381  64.150  0.00  0.00    +0.000 NA
ENDROOT
TORSDOF 0
ENDMDL
MODEL 2
REMARK VINA RESULT:    -6.022      1.022      2.860
REMARK INTER + INTRA:          -6.022
REMARK INTER:                  -6.022
REMARK INTRA:                   0.000
REMARK UNBOUND:                 0.000
ROOT
REMARK  Name = octodrine
REMARK                            x       y       z     vdW  Elec       q    Type
REMARK                         _______ _______ _______ _____ _____    ______ ____
ATOM      1  C   UNL     1      62.336  61.673  64.258  0.00  0.00    +0.000 C 
ATOM      2  C   UNL     1      61.588  61.655  64.606  0.00  0.00    +0.000 C 
ATOM      3  C   UNL     1      60.965  61.274  64.223  0.00  0.00    +0.000 C 
ATOM      4  C   UNL     1      61.463  62.018  65.336  0.00  0.00    +0.000 C 
ATOM      5  C   UNL     1      60.715  62.000  65.684  0.00  0.00    +0.000 C 
ATOM      6  C   UNL     1      60.591  62.362  66.414  0.00  0.00    +0.000 C 
ATOM      7  C   UNL     1      59.843  62.344  66.762  0.00  0.00    +0.000 C 
ATOM      8  C   UNL     1      59.718  62.707  67.492  0.00  0.00    +0.000 C 
ATOM      9  N   UNL     1      59.219  61.963  66.379  0.00  0.00    +0.000 NA
ENDROOT
TORSDOF 0
ENDMDL
MODEL 3
REMARK VINA RESULT:    -5.819     18.217     18.725
REMARK INTER + INTRA:          -5.819
REMARK INTER:                  -5.819
REMARK INTRA:                   0.000
REMARK UNBOUND:                 0.000
ROOT
REMARK  Name = octodrine
REMARK                            x       y       z     vdW  Elec       q    Type
REMARK                         _______ _______ _______ _____ _____    ______ ____
ATOM      1  C   UNL     1      66.254  77.125  60.071  0.00  0.00    +0.000 C 
ATOM      2  C   UNL     1      66.172  77.836  59.661  0.00  0.00    +0.000 C 
ATOM      3  C   UNL     1      66.842  78.273  59.457  0.00  0.00    +0.000 C 
ATOM      4  C   UNL     1      65.423  78.111  59.455  0.00  0.00    +0.000 C 
ATOM      5  C   UNL     1      65.341  78.822  59.044  0.00  0.00    +0.000 C 
ATOM      6  C   UNL     1      64.592  79.096  58.838  0.00  0.00    +0.000 C 
ATOM      7  C   UNL     1      64.511  79.807  58.427  0.00  0.00    +0.000 C 
ATOM      8  C   UNL     1      63.761  80.082  58.221  0.00  0.00    +0.000 C 
ATOM      9  N   UNL     1      65.180  80.244  58.223  0.00  0.00    +0.000 NA
ENDROOT
TORSDOF 0
ENDMDL
MODEL 4
REMARK VINA RESULT:    -5.627      4.339      5.542
REMARK INTER + INTRA:          -5.627
REMARK INTER:                  -5.627
REMARK INTRA:                   0.000
REMARK UNBOUND:                 0.000
ROOT
REMARK  Name = octodrine
REMARK                            x       y       z     vdW  Elec       q    Type
REMARK                         _______ _______ _______ _____ _____    ______ ____
ATOM      1  C   UNL     1      61.643  62.447  73.009  0.00  0.00    +0.000 C 
ATOM      2  C   UNL     1      61.348  62.751  72.301  0.00  0.00    +0.000 C 
ATOM      3  C   UNL     1      61.160  63.552  72.243  0.00  0.00    +0.000 C 
ATOM      4  C   UNL     1      61.242  62.254  71.651  0.00  0.00    +0.000 C 
ATOM      5  C   UNL     1      60.947  62.558  70.943  0.00  0.00    +0.000 C 
ATOM      6  C   UNL     1      60.841  62.062  70.293  0.00  0.00    +0.000 C 
ATOM      7  C   UNL     1      60.546  62.366  69.585  0.00  0.00    +0.000 C 
ATOM      8  C   UNL     1      60.440  61.869  68.935  0.00  0.00    +0.000 C 
ATOM      9  N   UNL     1      60.358  63.167  69.527  0.00  0.00    +0.000 NA
ENDROOT
TORSDOF 0
ENDMDL
MODEL 5
REMARK VINA RESULT:    -5.587      7.253      7.834
REMARK INTER + INTRA:          -5.587
REMARK INTER:                  -5.587
REMARK INTRA:                   0.000
REMARK UNBOUND:                 0.000
ROOT
REMARK  Name = octodrine
REMARK                            x       y       z     vdW  Elec       q    Type
REMARK                         _______ _______ _______ _____ _____    ______ ____
ATOM      1  C   UNL     1      66.335  67.965  69.833  0.00  0.00    +0.000 C 
ATOM      2  C   UNL     1      65.922  67.358  70.210  0.00  0.00    +0.000 C 
ATOM      3  C   UNL     1      66.009  67.242  71.022  0.00  0.00    +0.000 C 
ATOM      4  C   UNL     1      65.422  66.867  69.776  0.00  0.00    +0.000 C 
ATOM      5  C   UNL     1      65.009  66.260  70.153  0.00  0.00    +0.000 C 
ATOM      6  C   UNL     1      64.509  65.769  69.718  0.00  0.00    +0.000 C 
ATOM      7  C   UNL     1      64.096  65.162  70.095  0.00  0.00    +0.000 C 
ATOM      8  C   UNL     1      63.596  64.672  69.661  0.00  0.00    +0.000 C 
ATOM      9  N   UNL     1      64.183  65.047  70.907  0.00  0.00    +0.000 NA
ENDROOT
TORSDOF 0
ENDMDL
MODEL 6
REMARK VINA RESULT:    -5.339      5.819      6.973
REMARK INTER + INTRA:          -5.339
REMARK INTER:                  -5.339
REMARK INTRA:                   0.000
REMARK UNBOUND:                 0.000
ROOT
REMARK  Name = octodrine
REMARK                            x       y       z     vdW  Elec       q    Type
REMARK                         _______ _______ _______ _____ _____    ______ ____
ATOM      1  C   UNL     1      62.021  60.906  71.913  0.00  0.00    +0.000 C 
ATOM      2  C   UNL     1      61.591  61.586  71.731  0.00  0.00    +0.000 C 
ATOM      3  C   UNL     1      61.141  61.616  71.040  0.00  0.00    +0.000 C 
ATOM      4  C   UNL     1      61.609  62.235  72.239  0.00  0.00    +0.000 C 
ATOM      5  C   UNL     1      61.179  62.915  72.057  0.00  0.00    +0.000 C 
ATOM      6  C   UNL     1      61.198  63.564  72.565  0.00  0.00    +0.000 C 
ATOM      7  C   UNL     1      60.767  64.244  72.383  0.00  0.00    +0.000 C 
ATOM      8  C   UNL     1      60.786  64.893  72.891  0.00  0.00    +0.000 C 
ATOM      9  N   UNL     1      60.317  64.274  71.692  0.00  0.00    +0.000 NA
ENDROOT
TORSDOF 0
ENDMDL
MODEL 7
REMARK VINA RESULT:    -5.128     24.621     25.355
REMARK INTER + INTRA:          -5.128
REMARK INTER:                  -5.128
REMARK INTRA:                   0.000
REMARK UNBOUND:                 0.000
ROOT
REMARK  Name = octodrine
REMARK                            x       y       z     vdW  Elec       q    Type
REMARK                         _______ _______ _______ _____ _____    ______ ____
ATOM      1  C   UNL     1      71.009  78.129  48.637  0.00  0.00    +0.000 C 
ATOM      2  C   UNL     1      70.982  78.758  49.171  0.00  0.00    +0.000 C 
ATOM      3  C   UNL     1      71.631  79.260  49.249  0.00  0.00    +0.000 C 
ATOM      4  C   UNL     1      70.306  78.884  49.626  0.00  0.00    +0.000 C 
ATOM      5  C   UNL     1      70.279  79.513  50.159  0.00  0.00    +0.000 C 
ATOM      6  C   UNL     1      69.603  79.640  50.614  0.00  0.00    +0.000 C 
ATOM      7  C   UNL     1      69.576  80.269  51.148  0.00  0.00    +0.000 C 
ATOM      8  C   UNL     1      68.900  80.395  51.603  0.00  0.00    +0.000 C 
ATOM      9  N   UNL     1      70.225  80.771  51.226  0.00  0.00    +0.000 NA
ENDROOT
TORSDOF 0
ENDMDL
MODEL 8
REMARK VINA RESULT:    -5.105     15.625     15.874
REMARK INTER + INTRA:          -5.105
REMARK INTER:                  -5.105
REMARK INTRA:                   0.000
REMARK UNBOUND:                 0.000
ROOT
REMARK  Name = octodrine
REMARK                            x       y       z     vdW  Elec       q    Type
REMARK                         _______ _______ _______ _____ _____    ______ ____
ATOM      1  C   UNL     1      57.508  75.472  72.674  0.00  0.00    +0.000 C 
ATOM      2  C   UNL     1      57.838  75.941  72.080  0.00  0.00    +0.000 C 
ATOM      3  C   UNL     1      58.628  76.176  72.133  0.00  0.00    +0.000 C 
ATOM      4  C   UNL     1      57.381  76.173  71.435  0.00  0.00    +0.000 C 
ATOM      5  C   UNL     1      57.712  76.642  70.842  0.00  0.00    +0.000 C 
ATOM      6  C   UNL     1      57.254  76.874  70.197  0.00  0.00    +0.000 C 
ATOM      7  C   UNL     1      57.585  77.342  69.603  0.00  0.00    +0.000 C 
ATOM      8  C   UNL     1      57.128  77.575  68.958  0.00  0.00    +0.000 C 
ATOM      9  N   UNL     1      58.374  77.578  69.655  0.00  0.00    +0.000 NA
ENDROOT
TORSDOF 0
ENDMDL
MODEL 9
REMARK VINA RESULT:    -4.933      5.287      5.774
REMARK INTER + INTRA:          -4.933
REMARK INTER:                  -4.933
REMARK INTRA:                   0.000
REMARK UNBOUND:                 0.000
ROOT
REMARK  Name = octodrine
REMARK                            x       y       z     vdW  Elec       q    Type
REMARK                         _______ _______ _______ _____ _____    ______ ____
ATOM      1  C   UNL     1      61.262  63.128  72.838  0.00  0.00    +0.000 C 
ATOM      2  C   UNL     1      61.362  63.227  72.025  0.00  0.00    +0.000 C 
ATOM      3  C   UNL     1      60.815  62.901  71.501  0.00  0.00    +0.000 C 
ATOM      4  C   UNL     1      62.007  63.651  71.737  0.00  0.00    +0.000 C 
ATOM      5  C   UNL     1      62.107  63.750  70.923  0.00  0.00    +0.000 C 
ATOM      6  C   UNL     1      62.752  64.174  70.635  0.00  0.00    +0.000 C 
ATOM      7  C   UNL     1      62.852  64.273  69.822  0.00  0.00    +0.000 C 
ATOM      8  C   UNL     1      63.497  64.697  69.533  0.00  0.00    +0.000 C 
ATOM      9  N   UNL     1      62.305  63.947  69.297  0.00  0.00    +0.000 NA
ENDROOT
TORSDOF 0
ENDMDL
