MODEL 1
REMARK VINA RESULT:    -9.678      0.000      0.000
REMARK INTER + INTRA:          -9.678
REMARK INTER:                  -9.678
REMARK INTRA:                   0.000
REMARK UNBOUND:                 0.000
ROOT
REMARK  Name = octyltriethoxysilane
REMARK                            x       y       z     vdW  Elec       q    Type
REMARK                         _______ _______ _______ _____ _____    ______ ____
ATOM      1  C   UNL     1      62.487  61.902  63.497  0.00  0.00    +0.000 C 
ATOM      2  C   UNL     1      62.308  61.612  64.248  0.00  0.00    +0.000 C 
ATOM      3  C   UNL     1      62.056  62.126  64.840  0.00  0.00    +0.000 C 
ATOM      4  C   UNL     1      61.877  61.836  65.592  0.00  0.00    +0.000 C 
ATOM      5  C   UNL     1      61.625  62.350  66.184  0.00  0.00    +0.000 C 
ATOM      6  C   UNL     1      61.446  62.060  66.936  0.00  0.00    +0.000 C 
ATOM      7  C   UNL     1      61.194  62.574  67.528  0.00  0.00    +0.000 C 
ATOM      8  C   UNL     1      61.015  62.284  68.280  0.00  0.00    +0.000 C 
ATOM      9 SI   UNL     1      60.763  62.798  68.872  0.00  0.00    +0.000 Si
ATOM     10  O   UNL     1      60.510  63.314  69.465  0.00  0.00    +0.000 OA
ATOM     11  C   UNL     1      60.332  63.022  70.216  0.00  0.00    +0.000 C 
ATOM     12  C   UNL     1      60.079  63.538  70.809  0.00  0.00    +0.000 C 
ATOM     13  O   UNL     1      60.703  62.165  69.398  0.00  0.00    +0.000 OA
ATOM     14  C   UNL     1      60.454  62.295  70.174  0.00  0.00    +0.000 C 
ATOM     15  C   UNL     1      60.394  61.660  70.698  0.00  0.00    +0.000 C 
ATOM     16  O   UNL     1      60.823  63.433  68.348  0.00  0.00    +0.000 OA
ATOM     17  C   UNL     1      60.634  64.195  68.598  0.00  0.00    +0.000 C 
ATOM     18  C   UNL     1      60.385  64.324  69.374  0.00  0.00    +0.000 C 
ENDROOT
TORSDOF 0
ENDMDL
MODEL 2
REMARK VINA RESULT:    -9.351      3.797      5.078
REMARK INTER + INTRA:          -9.351
REMARK INTER:                  -9.351
REMARK INTRA:                   0.000
REMARK UNBOUND:                 0.000
ROOT
REMARK  Name = octyltriethoxysilane
REMARK                            x       y       z     vdW  Elec       q    Type
REMARK                         _______ _______ _______ _____ _____    ______ ____
ATOM      1  C   UNL     1      66.514  67.965  69.788  0.00  0.00    +0.000 C 
ATOM      2  C   UNL     1      66.087  67.515  70.332  0.00  0.00    +0.000 C 
ATOM      3  C   UNL     1      65.496  67.004  70.071  0.00  0.00    +0.000 C 
ATOM      4  C   UNL     1      65.069  66.553  70.614  0.00  0.00    +0.000 C 
ATOM      5  C   UNL     1      64.477  66.042  70.353  0.00  0.00    +0.000 C 
ATOM      6  C   UNL     1      64.050  65.592  70.897  0.00  0.00    +0.000 C 
ATOM      7  C   UNL     1      63.458  65.081  70.636  0.00  0.00    +0.000 C 
ATOM      8  C   UNL     1      63.031  64.630  71.179  0.00  0.00    +0.000 C 
ATOM      9 SI   UNL     1      62.439  64.119  70.918  0.00  0.00    +0.000 Si
ATOM     10  O   UNL     1      61.846  63.608  70.656  0.00  0.00    +0.000 OA
ATOM     11  C   UNL     1      61.421  63.158  71.201  0.00  0.00    +0.000 C 
ATOM     12  C   UNL     1      60.828  62.646  70.939  0.00  0.00    +0.000 C 
ATOM     13  O   UNL     1      62.289  63.894  71.697  0.00  0.00    +0.000 OA
ATOM     14  C   UNL     1      61.700  63.339  71.860  0.00  0.00    +0.000 C 
ATOM     15  C   UNL     1      61.551  63.115  72.640  0.00  0.00    +0.000 C 
ATOM     16  O   UNL     1      62.589  64.344  70.138  0.00  0.00    +0.000 OA
ATOM     17  C   UNL     1      62.152  64.014  69.522  0.00  0.00    +0.000 C 
ATOM     18  C   UNL     1      61.564  63.459  69.685  0.00  0.00    +0.000 C 
ENDROOT
TORSDOF 0
ENDMDL
MODEL 3
REMARK VINA RESULT:    -9.314      1.483      4.737
REMARK INTER + INTRA:          -9.314
REMARK INTER:                  -9.314
REMARK INTRA:                   0.000
REMARK UNBOUND:                 0.000
ROOT
REMARK  Name = octyltriethoxysilane
REMARK                            x       y       z     vdW  Elec       q    Type
REMARK                         _______ _______ _______ _____ _____    ______ ____
ATOM      1  C   UNL     1      60.673  63.672  72.449  0.00  0.00    +0.000 C 
ATOM      2  C   UNL     1      61.105  63.469  71.776  0.00  0.00    +0.000 C 
ATOM      3  C   UNL     1      60.715  63.291  71.072  0.00  0.00    +0.000 C 
ATOM      4  C   UNL     1      61.147  63.088  70.399  0.00  0.00    +0.000 C 
ATOM      5  C   UNL     1      60.757  62.910  69.696  0.00  0.00    +0.000 C 
ATOM      6  C   UNL     1      61.189  62.707  69.023  0.00  0.00    +0.000 C 
ATOM      7  C   UNL     1      60.799  62.528  68.319  0.00  0.00    +0.000 C 
ATOM      8  C   UNL     1      61.232  62.325  67.646  0.00  0.00    +0.000 C 
ATOM      9 SI   UNL     1      60.841  62.147  66.943  0.00  0.00    +0.000 Si
ATOM     10  O   UNL     1      60.450  61.968  66.238  0.00  0.00    +0.000 OA
ATOM     11  C   UNL     1      60.883  61.766  65.566  0.00  0.00    +0.000 C 
ATOM     12  C   UNL     1      60.492  61.587  64.861  0.00  0.00    +0.000 C 
ATOM     13  O   UNL     1      61.566  62.016  66.572  0.00  0.00    +0.000 OA
ATOM     14  C   UNL     1      61.591  61.796  65.778  0.00  0.00    +0.000 C 
ATOM     15  C   UNL     1      62.317  61.665  65.408  0.00  0.00    +0.000 C 
ATOM     16  O   UNL     1      60.115  62.278  67.312  0.00  0.00    +0.000 OA
ATOM     17  C   UNL     1      59.414  62.189  66.887  0.00  0.00    +0.000 C 
ATOM     18  C   UNL     1      59.438  61.969  66.092  0.00  0.00    +0.000 C 
ENDROOT
TORSDOF 0
ENDMDL
MODEL 4
REMARK VINA RESULT:    -8.626      1.566      2.122
REMARK INTER + INTRA:          -8.626
REMARK INTER:                  -8.626
REMARK INTRA:                   0.000
REMARK UNBOUND:                 0.000
ROOT
REMARK  Name = octyltriethoxysilane
REMARK                            x       y       z     vdW  Elec       q    Type
REMARK                         _______ _______ _______ _____ _____    ______ ____
ATOM      1  C   UNL     1      60.033  61.778  65.170  0.00  0.00    +0.000 C 
ATOM      2  C   UNL     1      60.325  61.621  65.926  0.00  0.00    +0.000 C 
ATOM      3  C   UNL     1      60.200  62.159  66.537  0.00  0.00    +0.000 C 
ATOM      4  C   UNL     1      60.492  62.002  67.293  0.00  0.00    +0.000 C 
ATOM      5  C   UNL     1      60.366  62.540  67.904  0.00  0.00    +0.000 C 
ATOM      6  C   UNL     1      60.658  62.383  68.660  0.00  0.00    +0.000 C 
ATOM      7  C   UNL     1      60.532  62.921  69.271  0.00  0.00    +0.000 C 
ATOM      8  C   UNL     1      60.825  62.764  70.027  0.00  0.00    +0.000 C 
ATOM      9 SI   UNL     1      60.699  63.303  70.639  0.00  0.00    +0.000 Si
ATOM     10  O   UNL     1      60.572  63.842  71.251  0.00  0.00    +0.000 OA
ATOM     11  C   UNL     1      60.865  63.684  72.006  0.00  0.00    +0.000 C 
ATOM     12  C   UNL     1      60.739  64.223  72.618  0.00  0.00    +0.000 C 
ATOM     13  O   UNL     1      61.109  62.810  71.158  0.00  0.00    +0.000 OA
ATOM     14  C   UNL     1      61.205  63.030  71.947  0.00  0.00    +0.000 C 
ATOM     15  C   UNL     1      61.616  62.536  72.465  0.00  0.00    +0.000 C 
ATOM     16  O   UNL     1      60.288  63.796  70.120  0.00  0.00    +0.000 OA
ATOM     17  C   UNL     1      59.974  64.509  70.390  0.00  0.00    +0.000 C 
ATOM     18  C   UNL     1      60.070  64.729  71.180  0.00  0.00    +0.000 C 
ENDROOT
TORSDOF 0
ENDMDL
MODEL 5
REMARK VINA RESULT:    -8.221      5.815      6.663
REMARK INTER + INTRA:          -8.221
REMARK INTER:                  -8.221
REMARK INTRA:                   0.000
REMARK UNBOUND:                 0.000
ROOT
REMARK  Name = octyltriethoxysilane
REMARK                            x       y       z     vdW  Elec       q    Type
REMARK                         _______ _______ _______ _____ _____    ______ ____
ATOM      1  C   UNL     1      66.843  66.570  72.281  0.00  0.00    +0.000 C 
ATOM      2  C   UNL     1      66.178  66.631  71.797  0.00  0.00    +0.000 C 
ATOM      3  C   UNL     1      65.428  66.704  72.132  0.00  0.00    +0.000 C 
ATOM      4  C   UNL     1      64.763  66.765  71.648  0.00  0.00    +0.000 C 
ATOM      5  C   UNL     1      64.013  66.837  71.983  0.00  0.00    +0.000 C 
ATOM      6  C   UNL     1      63.348  66.898  71.499  0.00  0.00    +0.000 C 
ATOM      7  C   UNL     1      62.598  66.970  71.834  0.00  0.00    +0.000 C 
ATOM      8  C   UNL     1      61.933  67.031  71.350  0.00  0.00    +0.000 C 
ATOM      9 SI   UNL     1      61.183  67.103  71.686  0.00  0.00    +0.000 Si
ATOM     10  O   UNL     1      60.433  67.176  72.022  0.00  0.00    +0.000 OA
ATOM     11  C   UNL     1      59.768  67.237  71.537  0.00  0.00    +0.000 C 
ATOM     12  C   UNL     1      59.018  67.309  71.873  0.00  0.00    +0.000 C 
ATOM     13  O   UNL     1      60.848  67.132  70.932  0.00  0.00    +0.000 OA
ATOM     14  C   UNL     1      60.031  67.209  70.847  0.00  0.00    +0.000 C 
ATOM     15  C   UNL     1      59.697  67.238  70.093  0.00  0.00    +0.000 C 
ATOM     16  O   UNL     1      61.517  67.075  72.440  0.00  0.00    +0.000 OA
ATOM     17  C   UNL     1      61.035  67.123  73.107  0.00  0.00    +0.000 C 
ATOM     18  C   UNL     1      60.219  67.200  73.021  0.00  0.00    +0.000 C 
ENDROOT
TORSDOF 0
ENDMDL
MODEL 6
REMARK VINA RESULT:    -8.170      3.951      5.020
REMARK INTER + INTRA:          -8.170
REMARK INTER:                  -8.170
REMARK INTRA:                   0.000
REMARK UNBOUND:                 0.000
ROOT
REMARK  Name = octyltriethoxysilane
REMARK                            x       y       z     vdW  Elec       q    Type
REMARK                         _______ _______ _______ _____ _____    ______ ____
ATOM      1  C   UNL     1      60.171  61.992  68.538  0.00  0.00    +0.000 C 
ATOM      2  C   UNL     1      60.833  62.474  68.433  0.00  0.00    +0.000 C 
ATOM      3  C   UNL     1      61.087  62.965  69.044  0.00  0.00    +0.000 C 
ATOM      4  C   UNL     1      61.749  63.447  68.939  0.00  0.00    +0.000 C 
ATOM      5  C   UNL     1      62.003  63.939  69.550  0.00  0.00    +0.000 C 
ATOM      6  C   UNL     1      62.665  64.420  69.444  0.00  0.00    +0.000 C 
ATOM      7  C   UNL     1      62.919  64.912  70.055  0.00  0.00    +0.000 C 
ATOM      8  C   UNL     1      63.581  65.393  69.950  0.00  0.00    +0.000 C 
ATOM      9 SI   UNL     1      63.835  65.885  70.561  0.00  0.00    +0.000 Si
ATOM     10  O   UNL     1      64.090  66.378  71.173  0.00  0.00    +0.000 OA
ATOM     11  C   UNL     1      64.751  66.858  71.067  0.00  0.00    +0.000 C 
ATOM     12  C   UNL     1      65.006  67.351  71.679  0.00  0.00    +0.000 C 
ATOM     13  O   UNL     1      64.453  66.157  70.086  0.00  0.00    +0.000 OA
ATOM     14  C   UNL     1      64.981  66.719  70.378  0.00  0.00    +0.000 C 
ATOM     15  C   UNL     1      65.599  66.990  69.903  0.00  0.00    +0.000 C 
ATOM     16  O   UNL     1      63.218  65.614  71.037  0.00  0.00    +0.000 OA
ATOM     17  C   UNL     1      63.129  65.904  71.803  0.00  0.00    +0.000 C 
ATOM     18  C   UNL     1      63.658  66.466  72.095  0.00  0.00    +0.000 C 
ENDROOT
TORSDOF 0
ENDMDL
MODEL 7
REMARK VINA RESULT:    -8.166      2.464      4.722
REMARK INTER + INTRA:          -8.166
REMARK INTER:                  -8.166
REMARK INTRA:                   0.000
REMARK UNBOUND:                 0.000
ROOT
REMARK  Name = octyltriethoxysilane
REMARK                            x       y       z     vdW  Elec       q    Type
REMARK                         _______ _______ _______ _____ _____    ______ ____
ATOM      1  C   UNL     1      64.376  66.891  72.089  0.00  0.00    +0.000 C 
ATOM      2  C   UNL     1      64.204  66.620  71.328  0.00  0.00    +0.000 C 
ATOM      3  C   UNL     1      63.654  66.016  71.220  0.00  0.00    +0.000 C 
ATOM      4  C   UNL     1      63.482  65.745  70.460  0.00  0.00    +0.000 C 
ATOM      5  C   UNL     1      62.932  65.141  70.351  0.00  0.00    +0.000 C 
ATOM      6  C   UNL     1      62.760  64.870  69.591  0.00  0.00    +0.000 C 
ATOM      7  C   UNL     1      62.210  64.266  69.482  0.00  0.00    +0.000 C 
ATOM      8  C   UNL     1      62.038  63.995  68.722  0.00  0.00    +0.000 C 
ATOM      9 SI   UNL     1      61.488  63.391  68.614  0.00  0.00    +0.000 Si
ATOM     10  O   UNL     1      60.937  62.785  68.505  0.00  0.00    +0.000 OA
ATOM     11  C   UNL     1      60.766  62.515  67.745  0.00  0.00    +0.000 C 
ATOM     12  C   UNL     1      60.214  61.910  67.637  0.00  0.00    +0.000 C 
ATOM     13  O   UNL     1      61.608  63.427  67.798  0.00  0.00    +0.000 OA
ATOM     14  C   UNL     1      61.191  62.921  67.297  0.00  0.00    +0.000 C 
ATOM     15  C   UNL     1      61.311  62.959  66.481  0.00  0.00    +0.000 C 
ATOM     16  O   UNL     1      61.367  63.353  69.429  0.00  0.00    +0.000 OA
ATOM     17  C   UNL     1      60.830  62.812  69.743  0.00  0.00    +0.000 C 
ATOM     18  C   UNL     1      60.414  62.307  69.242  0.00  0.00    +0.000 C 
ENDROOT
TORSDOF 0
ENDMDL
MODEL 8
REMARK VINA RESULT:    -7.560     24.577     25.367
REMARK INTER + INTRA:          -7.560
REMARK INTER:                  -7.560
REMARK INTRA:                   0.000
REMARK UNBOUND:                 0.000
ROOT
REMARK  Name = octyltriethoxysilane
REMARK                            x       y       z     vdW  Elec       q    Type
REMARK                         _______ _______ _______ _____ _____    ______ ____
ATOM      1  C   UNL     1      71.379  78.495  48.098  0.00  0.00    +0.000 C 
ATOM      2  C   UNL     1      71.337  78.770  48.875  0.00  0.00    +0.000 C 
ATOM      3  C   UNL     1      70.626  79.066  49.170  0.00  0.00    +0.000 C 
ATOM      4  C   UNL     1      70.584  79.341  49.947  0.00  0.00    +0.000 C 
ATOM      5  C   UNL     1      69.874  79.638  50.242  0.00  0.00    +0.000 C 
ATOM      6  C   UNL     1      69.832  79.913  51.019  0.00  0.00    +0.000 C 
ATOM      7  C   UNL     1      69.122  80.209  51.314  0.00  0.00    +0.000 C 
ATOM      8  C   UNL     1      69.080  80.484  52.091  0.00  0.00    +0.000 C 
ATOM      9 SI   UNL     1      68.370  80.781  52.387  0.00  0.00    +0.000 Si
ATOM     10  O   UNL     1      67.658  81.078  52.682  0.00  0.00    +0.000 OA
ATOM     11  C   UNL     1      67.617  81.352  53.459  0.00  0.00    +0.000 C 
ATOM     12  C   UNL     1      66.906  81.649  53.754  0.00  0.00    +0.000 C 
ATOM     13  O   UNL     1      68.732  80.927  53.113  0.00  0.00    +0.000 OA
ATOM     14  C   UNL     1      68.297  81.257  53.732  0.00  0.00    +0.000 C 
ATOM     15  C   UNL     1      68.661  81.403  54.458  0.00  0.00    +0.000 C 
ATOM     16  O   UNL     1      68.006  80.635  51.660  0.00  0.00    +0.000 OA
ATOM     17  C   UNL     1      67.210  80.819  51.553  0.00  0.00    +0.000 C 
ATOM     18  C   UNL     1      66.776  81.149  52.172  0.00  0.00    +0.000 C 
ENDROOT
TORSDOF 0
ENDMDL
MODEL 9
REMARK VINA RESULT:    -7.435     13.645     16.158
REMARK INTER + INTRA:          -7.435
REMARK INTER:                  -7.435
REMARK INTRA:                   0.000
REMARK UNBOUND:                 0.000
ROOT
REMARK  Name = octyltriethoxysilane
REMARK                            x       y       z     vdW  Elec       q    Type
REMARK                         _______ _______ _______ _____ _____    ______ ____
ATOM      1  C   UNL     1      60.917  71.073  49.235  0.00  0.00    +0.000 C 
ATOM      2  C   UNL     1      61.293  70.461  49.640  0.00  0.00    +0.000 C 
ATOM      3  C   UNL     1      61.316  70.465  50.464  0.00  0.00    +0.000 C 
ATOM      4  C   UNL     1      61.693  69.853  50.870  0.00  0.00    +0.000 C 
ATOM      5  C   UNL     1      61.716  69.856  51.694  0.00  0.00    +0.000 C 
ATOM      6  C   UNL     1      62.093  69.244  52.099  0.00  0.00    +0.000 C 
ATOM      7  C   UNL     1      62.116  69.247  52.923  0.00  0.00    +0.000 C 
ATOM      8  C   UNL     1      62.493  68.635  53.329  0.00  0.00    +0.000 C 
ATOM      9 SI   UNL     1      62.516  68.639  54.153  0.00  0.00    +0.000 Si
ATOM     10  O   UNL     1      62.539  68.642  54.978  0.00  0.00    +0.000 OA
ATOM     11  C   UNL     1      62.916  68.030  55.382  0.00  0.00    +0.000 C 
ATOM     12  C   UNL     1      62.939  68.034  56.208  0.00  0.00    +0.000 C 
ATOM     13  O   UNL     1      62.938  67.930  54.145  0.00  0.00    +0.000 OA
ATOM     14  C   UNL     1      63.169  67.579  54.855  0.00  0.00    +0.000 C 
ATOM     15  C   UNL     1      63.591  66.870  54.845  0.00  0.00    +0.000 C 
ATOM     16  O   UNL     1      62.094  69.348  54.162  0.00  0.00    +0.000 OA
ATOM     17  C   UNL     1      61.903  69.705  54.880  0.00  0.00    +0.000 C 
ATOM     18  C   UNL     1      62.134  69.353  55.590  0.00  0.00    +0.000 C 
ENDROOT
TORSDOF 0
ENDMDL
