MODEL 1
REMARK VINA RESULT:   -10.219      0.000      0.000
REMARK INTER + INTRA:         -10.219
REMARK INTER:                 -10.219
REMARK INTRA:                   0.000
REMARK UNBOUND:                 0.000
ROOT
REMARK  Name = olaflur
REMARK                            x       y       z     vdW  Elec       q    Type
REMARK                         _______ _______ _______ _____ _____    ______ ____
ATOM      1  C   UNL     1      57.438  76.409  55.778  0.00  0.00    +0.000 C 
ATOM      2  C   UNL     1      57.760  75.878  55.233  0.00  0.00    +0.000 C 
ATOM      3  C   UNL     1      57.973  75.118  55.475  0.00  0.00    +0.000 C 
ATOM      4  C   UNL     1      58.296  74.588  54.930  0.00  0.00    +0.000 C 
ATOM      5  C   UNL     1      58.509  73.829  55.171  0.00  0.00    +0.000 C 
ATOM      6  C   UNL     1      58.831  73.299  54.627  0.00  0.00    +0.000 C 
ATOM      7  C   UNL     1      59.044  72.539  54.868  0.00  0.00    +0.000 C 
ATOM      8  C   UNL     1      59.367  72.009  54.324  0.00  0.00    +0.000 C 
ATOM      9  C   UNL     1      59.580  71.250  54.564  0.00  0.00    +0.000 C 
ATOM     10  C   UNL     1      59.902  70.720  54.021  0.00  0.00    +0.000 C 
ATOM     11  C   UNL     1      60.115  69.960  54.261  0.00  0.00    +0.000 C 
ATOM     12  C   UNL     1      60.437  69.430  53.717  0.00  0.00    +0.000 C 
ATOM     13  C   UNL     1      60.651  68.671  53.958  0.00  0.00    +0.000 C 
ATOM     14  C   UNL     1      60.973  68.141  53.415  0.00  0.00    +0.000 C 
ATOM     15  C   UNL     1      61.186  67.381  53.655  0.00  0.00    +0.000 C 
ATOM     16  C   UNL     1      61.508  66.851  53.111  0.00  0.00    +0.000 C 
ATOM     17  C   UNL     1      61.721  66.091  53.352  0.00  0.00    +0.000 C 
ATOM     18  C   UNL     1      62.044  65.562  52.808  0.00  0.00    +0.000 C 
ATOM     19  N   UNL     1      62.257  64.802  53.048  0.00  0.00    +0.000 NA
ATOM     20  C   UNL     1      62.148  64.572  53.833  0.00  0.00    +0.000 C 
ATOM     21  C   UNL     1      62.361  63.812  54.074  0.00  0.00    +0.000 C 
ATOM     22  O   UNL     1      62.252  63.582  54.859  0.00  0.00    +0.000 OA
ATOM     23  C   UNL     1      62.579  64.272  52.504  0.00  0.00    +0.000 C 
ATOM     24  C   UNL     1      62.793  63.511  52.745  0.00  0.00    +0.000 C 
ATOM     25  C   UNL     1      63.115  62.982  52.201  0.00  0.00    +0.000 C 
ATOM     26  N   UNL     1      63.328  62.222  52.442  0.00  0.00    +0.000 NA
ATOM     27  C   UNL     1      63.651  61.692  51.898  0.00  0.00    +0.000 C 
ATOM     28  C   UNL     1      63.864  60.932  52.139  0.00  0.00    +0.000 C 
ATOM     29  O   UNL     1      64.186  60.403  51.595  0.00  0.00    +0.000 OA
ATOM     30  C   UNL     1      63.219  61.993  53.226  0.00  0.00    +0.000 C 
ATOM     31  C   UNL     1      63.432  61.233  53.468  0.00  0.00    +0.000 C 
ATOM     32  O   UNL     1      63.323  61.003  54.252  0.00  0.00    +0.000 OA
ENDROOT
TORSDOF 0
ENDMDL
MODEL 2
REMARK VINA RESULT:    -9.705      1.813      2.431
REMARK INTER + INTRA:          -9.705
REMARK INTER:                  -9.705
REMARK INTRA:                   0.000
REMARK UNBOUND:                 0.000
ROOT
REMARK  Name = olaflur
REMARK                            x       y       z     vdW  Elec       q    Type
REMARK                         _______ _______ _______ _____ _____    ______ ____
ATOM      1  C   UNL     1      58.000  75.080  52.359  0.00  0.00    +0.000 C 
ATOM      2  C   UNL     1      58.524  74.537  52.694  0.00  0.00    +0.000 C 
ATOM      3  C   UNL     1      58.482  73.740  52.486  0.00  0.00    +0.000 C 
ATOM      4  C   UNL     1      59.006  73.198  52.821  0.00  0.00    +0.000 C 
ATOM      5  C   UNL     1      58.964  72.401  52.613  0.00  0.00    +0.000 C 
ATOM      6  C   UNL     1      59.488  71.859  52.948  0.00  0.00    +0.000 C 
ATOM      7  C   UNL     1      59.446  71.062  52.740  0.00  0.00    +0.000 C 
ATOM      8  C   UNL     1      59.970  70.520  53.075  0.00  0.00    +0.000 C 
ATOM      9  C   UNL     1      59.928  69.723  52.867  0.00  0.00    +0.000 C 
ATOM     10  C   UNL     1      60.452  69.181  53.201  0.00  0.00    +0.000 C 
ATOM     11  C   UNL     1      60.410  68.383  52.994  0.00  0.00    +0.000 C 
ATOM     12  C   UNL     1      60.934  67.842  53.329  0.00  0.00    +0.000 C 
ATOM     13  C   UNL     1      60.892  67.045  53.121  0.00  0.00    +0.000 C 
ATOM     14  C   UNL     1      61.416  66.503  53.455  0.00  0.00    +0.000 C 
ATOM     15  C   UNL     1      61.374  65.705  53.248  0.00  0.00    +0.000 C 
ATOM     16  C   UNL     1      61.898  65.164  53.583  0.00  0.00    +0.000 C 
ATOM     17  C   UNL     1      61.856  64.366  53.374  0.00  0.00    +0.000 C 
ATOM     18  C   UNL     1      62.380  63.824  53.709  0.00  0.00    +0.000 C 
ATOM     19  N   UNL     1      62.338  63.027  53.501  0.00  0.00    +0.000 NA
ATOM     20  C   UNL     1      61.772  62.772  52.959  0.00  0.00    +0.000 C 
ATOM     21  C   UNL     1      61.729  61.974  52.750  0.00  0.00    +0.000 C 
ATOM     22  O   UNL     1      61.163  61.719  52.208  0.00  0.00    +0.000 OA
ATOM     23  C   UNL     1      62.862  62.485  53.836  0.00  0.00    +0.000 C 
ATOM     24  C   UNL     1      62.820  61.687  53.628  0.00  0.00    +0.000 C 
ATOM     25  C   UNL     1      63.344  61.145  53.963  0.00  0.00    +0.000 C 
ATOM     26  N   UNL     1      63.302  60.348  53.755  0.00  0.00    +0.000 NA
ATOM     27  C   UNL     1      63.827  59.806  54.090  0.00  0.00    +0.000 C 
ATOM     28  C   UNL     1      63.784  59.009  53.882  0.00  0.00    +0.000 C 
ATOM     29  O   UNL     1      64.308  58.467  54.217  0.00  0.00    +0.000 OA
ATOM     30  C   UNL     1      62.736  60.094  53.213  0.00  0.00    +0.000 C 
ATOM     31  C   UNL     1      62.693  59.296  53.004  0.00  0.00    +0.000 C 
ATOM     32  O   UNL     1      62.127  59.041  52.462  0.00  0.00    +0.000 OA
ENDROOT
TORSDOF 0
ENDMDL
MODEL 3
REMARK VINA RESULT:    -9.650     21.007     23.163
REMARK INTER + INTRA:          -9.650
REMARK INTER:                  -9.650
REMARK INTRA:                   0.000
REMARK UNBOUND:                 0.000
ROOT
REMARK  Name = olaflur
REMARK                            x       y       z     vdW  Elec       q    Type
REMARK                         _______ _______ _______ _____ _____    ______ ____
ATOM      1  C   UNL     1      81.610  62.851  55.077  0.00  0.00    +0.000 C 
ATOM      2  C   UNL     1      81.552  63.423  54.484  0.00  0.00    +0.000 C 
ATOM      3  C   UNL     1      81.547  64.224  54.684  0.00  0.00    +0.000 C 
ATOM      4  C   UNL     1      81.490  64.796  54.092  0.00  0.00    +0.000 C 
ATOM      5  C   UNL     1      81.484  65.596  54.290  0.00  0.00    +0.000 C 
ATOM      6  C   UNL     1      81.427  66.168  53.698  0.00  0.00    +0.000 C 
ATOM      7  C   UNL     1      81.422  66.968  53.898  0.00  0.00    +0.000 C 
ATOM      8  C   UNL     1      81.364  67.540  53.305  0.00  0.00    +0.000 C 
ATOM      9  C   UNL     1      81.359  68.341  53.504  0.00  0.00    +0.000 C 
ATOM     10  C   UNL     1      81.302  68.912  52.913  0.00  0.00    +0.000 C 
ATOM     11  C   UNL     1      81.296  69.713  53.111  0.00  0.00    +0.000 C 
ATOM     12  C   UNL     1      81.239  70.285  52.519  0.00  0.00    +0.000 C 
ATOM     13  C   UNL     1      81.234  71.085  52.718  0.00  0.00    +0.000 C 
ATOM     14  C   UNL     1      81.176  71.657  52.126  0.00  0.00    +0.000 C 
ATOM     15  C   UNL     1      81.171  72.457  52.325  0.00  0.00    +0.000 C 
ATOM     16  C   UNL     1      81.113  73.029  51.733  0.00  0.00    +0.000 C 
ATOM     17  C   UNL     1      81.108  73.830  51.932  0.00  0.00    +0.000 C 
ATOM     18  C   UNL     1      81.051  74.401  51.340  0.00  0.00    +0.000 C 
ATOM     19  N   UNL     1      81.045  75.202  51.539  0.00  0.00    +0.000 NA
ATOM     20  C   UNL     1      81.098  75.431  52.329  0.00  0.00    +0.000 C 
ATOM     21  C   UNL     1      81.093  76.232  52.529  0.00  0.00    +0.000 C 
ATOM     22  O   UNL     1      81.145  76.461  53.319  0.00  0.00    +0.000 OA
ATOM     23  C   UNL     1      80.988  75.774  50.946  0.00  0.00    +0.000 C 
ATOM     24  C   UNL     1      80.983  76.575  51.146  0.00  0.00    +0.000 C 
ATOM     25  C   UNL     1      80.925  77.147  50.554  0.00  0.00    +0.000 C 
ATOM     26  N   UNL     1      80.920  77.947  50.752  0.00  0.00    +0.000 NA
ATOM     27  C   UNL     1      80.862  78.519  50.160  0.00  0.00    +0.000 C 
ATOM     28  C   UNL     1      80.857  79.320  50.359  0.00  0.00    +0.000 C 
ATOM     29  O   UNL     1      80.800  79.891  49.767  0.00  0.00    +0.000 OA
ATOM     30  C   UNL     1      80.972  78.176  51.543  0.00  0.00    +0.000 C 
ATOM     31  C   UNL     1      80.967  78.976  51.742  0.00  0.00    +0.000 C 
ATOM     32  O   UNL     1      81.020  79.205  52.533  0.00  0.00    +0.000 OA
ENDROOT
TORSDOF 0
ENDMDL
MODEL 4
REMARK VINA RESULT:    -9.580     20.426     20.636
REMARK INTER + INTRA:          -9.580
REMARK INTER:                  -9.580
REMARK INTRA:                   0.000
REMARK UNBOUND:                 0.000
ROOT
REMARK  Name = olaflur
REMARK                            x       y       z     vdW  Elec       q    Type
REMARK                         _______ _______ _______ _____ _____    ______ ____
ATOM      1  C   UNL     1      80.955  80.245  50.152  0.00  0.00    +0.000 C 
ATOM      2  C   UNL     1      81.004  79.446  49.950  0.00  0.00    +0.000 C 
ATOM      3  C   UNL     1      81.003  78.870  50.541  0.00  0.00    +0.000 C 
ATOM      4  C   UNL     1      81.053  78.072  50.339  0.00  0.00    +0.000 C 
ATOM      5  C   UNL     1      81.051  77.496  50.929  0.00  0.00    +0.000 C 
ATOM      6  C   UNL     1      81.101  76.697  50.727  0.00  0.00    +0.000 C 
ATOM      7  C   UNL     1      81.099  76.122  51.318  0.00  0.00    +0.000 C 
ATOM      8  C   UNL     1      81.149  75.323  51.115  0.00  0.00    +0.000 C 
ATOM      9  C   UNL     1      81.147  74.747  51.706  0.00  0.00    +0.000 C 
ATOM     10  C   UNL     1      81.197  73.949  51.504  0.00  0.00    +0.000 C 
ATOM     11  C   UNL     1      81.195  73.373  52.094  0.00  0.00    +0.000 C 
ATOM     12  C   UNL     1      81.245  72.575  51.892  0.00  0.00    +0.000 C 
ATOM     13  C   UNL     1      81.243  71.999  52.482  0.00  0.00    +0.000 C 
ATOM     14  C   UNL     1      81.293  71.201  52.281  0.00  0.00    +0.000 C 
ATOM     15  C   UNL     1      81.292  70.625  52.871  0.00  0.00    +0.000 C 
ATOM     16  C   UNL     1      81.341  69.827  52.669  0.00  0.00    +0.000 C 
ATOM     17  C   UNL     1      81.340  69.251  53.260  0.00  0.00    +0.000 C 
ATOM     18  C   UNL     1      81.389  68.453  53.057  0.00  0.00    +0.000 C 
ATOM     19  N   UNL     1      81.388  67.876  53.648  0.00  0.00    +0.000 NA
ATOM     20  C   UNL     1      81.336  68.098  54.440  0.00  0.00    +0.000 C 
ATOM     21  C   UNL     1      81.335  67.523  55.032  0.00  0.00    +0.000 C 
ATOM     22  O   UNL     1      81.283  67.745  55.824  0.00  0.00    +0.000 OA
ATOM     23  C   UNL     1      81.438  67.078  53.445  0.00  0.00    +0.000 C 
ATOM     24  C   UNL     1      81.436  66.501  54.037  0.00  0.00    +0.000 C 
ATOM     25  C   UNL     1      81.486  65.703  53.834  0.00  0.00    +0.000 C 
ATOM     26  N   UNL     1      81.484  65.127  54.425  0.00  0.00    +0.000 NA
ATOM     27  C   UNL     1      81.534  64.329  54.222  0.00  0.00    +0.000 C 
ATOM     28  C   UNL     1      81.532  63.753  54.814  0.00  0.00    +0.000 C 
ATOM     29  O   UNL     1      81.582  62.955  54.611  0.00  0.00    +0.000 OA
ATOM     30  C   UNL     1      81.433  65.350  55.217  0.00  0.00    +0.000 C 
ATOM     31  C   UNL     1      81.431  64.774  55.808  0.00  0.00    +0.000 C 
ATOM     32  O   UNL     1      81.380  64.996  56.601  0.00  0.00    +0.000 OA
ENDROOT
TORSDOF 0
ENDMDL
MODEL 5
REMARK VINA RESULT:    -9.430      4.548     11.076
REMARK INTER + INTRA:          -9.430
REMARK INTER:                  -9.430
REMARK INTRA:                   0.000
REMARK UNBOUND:                 0.000
ROOT
REMARK  Name = olaflur
REMARK                            x       y       z     vdW  Elec       q    Type
REMARK                         _______ _______ _______ _____ _____    ______ ____
ATOM      1  C   UNL     1      64.500  60.447  52.940  0.00  0.00    +0.000 C 
ATOM      2  C   UNL     1      64.371  61.113  53.411  0.00  0.00    +0.000 C 
ATOM      3  C   UNL     1      63.928  61.745  53.120  0.00  0.00    +0.000 C 
ATOM      4  C   UNL     1      63.799  62.410  53.591  0.00  0.00    +0.000 C 
ATOM      5  C   UNL     1      63.356  63.042  53.300  0.00  0.00    +0.000 C 
ATOM      6  C   UNL     1      63.228  63.707  53.772  0.00  0.00    +0.000 C 
ATOM      7  C   UNL     1      62.784  64.339  53.480  0.00  0.00    +0.000 C 
ATOM      8  C   UNL     1      62.656  65.004  53.951  0.00  0.00    +0.000 C 
ATOM      9  C   UNL     1      62.213  65.636  53.661  0.00  0.00    +0.000 C 
ATOM     10  C   UNL     1      62.084  66.301  54.131  0.00  0.00    +0.000 C 
ATOM     11  C   UNL     1      61.641  66.933  53.841  0.00  0.00    +0.000 C 
ATOM     12  C   UNL     1      61.512  67.598  54.312  0.00  0.00    +0.000 C 
ATOM     13  C   UNL     1      61.069  68.230  54.021  0.00  0.00    +0.000 C 
ATOM     14  C   UNL     1      60.940  68.895  54.492  0.00  0.00    +0.000 C 
ATOM     15  C   UNL     1      60.497  69.527  54.201  0.00  0.00    +0.000 C 
ATOM     16  C   UNL     1      60.369  70.192  54.672  0.00  0.00    +0.000 C 
ATOM     17  C   UNL     1      59.925  70.824  54.381  0.00  0.00    +0.000 C 
ATOM     18  C   UNL     1      59.797  71.489  54.852  0.00  0.00    +0.000 C 
ATOM     19  N   UNL     1      59.354  72.121  54.562  0.00  0.00    +0.000 NA
ATOM     20  C   UNL     1      59.040  72.089  53.800  0.00  0.00    +0.000 C 
ATOM     21  C   UNL     1      58.596  72.721  53.508  0.00  0.00    +0.000 C 
ATOM     22  O   UNL     1      58.282  72.688  52.746  0.00  0.00    +0.000 OA
ATOM     23  C   UNL     1      59.225  72.786  55.033  0.00  0.00    +0.000 C 
ATOM     24  C   UNL     1      58.781  73.419  54.741  0.00  0.00    +0.000 C 
ATOM     25  C   UNL     1      58.653  74.084  55.213  0.00  0.00    +0.000 C 
ATOM     26  N   UNL     1      58.210  74.716  54.922  0.00  0.00    +0.000 NA
ATOM     27  C   UNL     1      58.081  75.381  55.393  0.00  0.00    +0.000 C 
ATOM     28  C   UNL     1      57.638  76.013  55.102  0.00  0.00    +0.000 C 
ATOM     29  O   UNL     1      57.509  76.678  55.573  0.00  0.00    +0.000 OA
ATOM     30  C   UNL     1      57.896  74.683  54.160  0.00  0.00    +0.000 C 
ATOM     31  C   UNL     1      57.453  75.315  53.869  0.00  0.00    +0.000 C 
ATOM     32  O   UNL     1      57.138  75.282  53.107  0.00  0.00    +0.000 OA
ENDROOT
TORSDOF 0
ENDMDL
MODEL 6
REMARK VINA RESULT:    -9.317      4.038     10.762
REMARK INTER + INTRA:          -9.317
REMARK INTER:                  -9.317
REMARK INTRA:                   0.000
REMARK UNBOUND:                 0.000
ROOT
REMARK  Name = olaflur
REMARK                            x       y       z     vdW  Elec       q    Type
REMARK                         _______ _______ _______ _____ _____    ______ ____
ATOM      1  C   UNL     1      64.154  58.632  53.977  0.00  0.00    +0.000 C 
ATOM      2  C   UNL     1      63.973  59.301  53.527  0.00  0.00    +0.000 C 
ATOM      3  C   UNL     1      63.660  59.971  53.893  0.00  0.00    +0.000 C 
ATOM      4  C   UNL     1      63.479  60.639  53.443  0.00  0.00    +0.000 C 
ATOM      5  C   UNL     1      63.167  61.309  53.807  0.00  0.00    +0.000 C 
ATOM      6  C   UNL     1      62.986  61.977  53.358  0.00  0.00    +0.000 C 
ATOM      7  C   UNL     1      62.673  62.648  53.723  0.00  0.00    +0.000 C 
ATOM      8  C   UNL     1      62.492  63.315  53.273  0.00  0.00    +0.000 C 
ATOM      9  C   UNL     1      62.179  63.986  53.638  0.00  0.00    +0.000 C 
ATOM     10  C   UNL     1      61.998  64.653  53.189  0.00  0.00    +0.000 C 
ATOM     11  C   UNL     1      61.685  65.324  53.554  0.00  0.00    +0.000 C 
ATOM     12  C   UNL     1      61.504  65.991  53.104  0.00  0.00    +0.000 C 
ATOM     13  C   UNL     1      61.192  66.662  53.468  0.00  0.00    +0.000 C 
ATOM     14  C   UNL     1      61.011  67.329  53.020  0.00  0.00    +0.000 C 
ATOM     15  C   UNL     1      60.698  68.000  53.384  0.00  0.00    +0.000 C 
ATOM     16  C   UNL     1      60.517  68.668  52.934  0.00  0.00    +0.000 C 
ATOM     17  C   UNL     1      60.204  69.338  53.300  0.00  0.00    +0.000 C 
ATOM     18  C   UNL     1      60.023  70.006  52.850  0.00  0.00    +0.000 C 
ATOM     19  N   UNL     1      59.711  70.677  53.215  0.00  0.00    +0.000 NA
ATOM     20  C   UNL     1      59.579  70.680  54.029  0.00  0.00    +0.000 C 
ATOM     21  C   UNL     1      59.266  71.350  54.394  0.00  0.00    +0.000 C 
ATOM     22  O   UNL     1      59.135  71.354  55.209  0.00  0.00    +0.000 OA
ATOM     23  C   UNL     1      59.530  71.344  52.765  0.00  0.00    +0.000 C 
ATOM     24  C   UNL     1      59.217  72.016  53.130  0.00  0.00    +0.000 C 
ATOM     25  C   UNL     1      59.036  72.683  52.681  0.00  0.00    +0.000 C 
ATOM     26  N   UNL     1      58.723  73.354  53.045  0.00  0.00    +0.000 NA
ATOM     27  C   UNL     1      58.542  74.021  52.595  0.00  0.00    +0.000 C 
ATOM     28  C   UNL     1      58.229  74.692  52.961  0.00  0.00    +0.000 C 
ATOM     29  O   UNL     1      58.048  75.359  52.511  0.00  0.00    +0.000 OA
ATOM     30  C   UNL     1      58.592  73.356  53.859  0.00  0.00    +0.000 C 
ATOM     31  C   UNL     1      58.279  74.027  54.225  0.00  0.00    +0.000 C 
ATOM     32  O   UNL     1      58.147  74.030  55.039  0.00  0.00    +0.000 OA
ENDROOT
TORSDOF 0
ENDMDL
MODEL 7
REMARK VINA RESULT:    -9.236     20.655     22.820
REMARK INTER + INTRA:          -9.236
REMARK INTER:                  -9.236
REMARK INTRA:                   0.000
REMARK UNBOUND:                 0.000
ROOT
REMARK  Name = olaflur
REMARK                            x       y       z     vdW  Elec       q    Type
REMARK                         _______ _______ _______ _____ _____    ______ ____
ATOM      1  C   UNL     1      81.106  60.512  54.695  0.00  0.00    +0.000 C 
ATOM      2  C   UNL     1      81.112  61.267  55.030  0.00  0.00    +0.000 C 
ATOM      3  C   UNL     1      81.119  61.934  54.544  0.00  0.00    +0.000 C 
ATOM      4  C   UNL     1      81.126  62.688  54.879  0.00  0.00    +0.000 C 
ATOM      5  C   UNL     1      81.132  63.354  54.393  0.00  0.00    +0.000 C 
ATOM      6  C   UNL     1      81.139  64.108  54.728  0.00  0.00    +0.000 C 
ATOM      7  C   UNL     1      81.146  64.775  54.242  0.00  0.00    +0.000 C 
ATOM      8  C   UNL     1      81.152  65.529  54.577  0.00  0.00    +0.000 C 
ATOM      9  C   UNL     1      81.159  66.196  54.092  0.00  0.00    +0.000 C 
ATOM     10  C   UNL     1      81.166  66.950  54.426  0.00  0.00    +0.000 C 
ATOM     11  C   UNL     1      81.172  67.617  53.940  0.00  0.00    +0.000 C 
ATOM     12  C   UNL     1      81.179  68.371  54.275  0.00  0.00    +0.000 C 
ATOM     13  C   UNL     1      81.186  69.038  53.790  0.00  0.00    +0.000 C 
ATOM     14  C   UNL     1      81.192  69.791  54.124  0.00  0.00    +0.000 C 
ATOM     15  C   UNL     1      81.199  70.458  53.639  0.00  0.00    +0.000 C 
ATOM     16  C   UNL     1      81.206  71.212  53.974  0.00  0.00    +0.000 C 
ATOM     17  C   UNL     1      81.212  71.879  53.487  0.00  0.00    +0.000 C 
ATOM     18  C   UNL     1      81.219  72.633  53.822  0.00  0.00    +0.000 C 
ATOM     19  N   UNL     1      81.226  73.300  53.337  0.00  0.00    +0.000 NA
ATOM     20  C   UNL     1      81.226  73.213  52.517  0.00  0.00    +0.000 C 
ATOM     21  C   UNL     1      81.232  73.880  52.030  0.00  0.00    +0.000 C 
ATOM     22  O   UNL     1      81.232  73.793  51.210  0.00  0.00    +0.000 OA
ATOM     23  C   UNL     1      81.233  74.054  53.672  0.00  0.00    +0.000 C 
ATOM     24  C   UNL     1      81.239  74.722  53.185  0.00  0.00    +0.000 C 
ATOM     25  C   UNL     1      81.246  75.476  53.520  0.00  0.00    +0.000 C 
ATOM     26  N   UNL     1      81.253  76.142  53.035  0.00  0.00    +0.000 NA
ATOM     27  C   UNL     1      81.259  76.896  53.370  0.00  0.00    +0.000 C 
ATOM     28  C   UNL     1      81.266  77.563  52.884  0.00  0.00    +0.000 C 
ATOM     29  O   UNL     1      81.273  78.317  53.219  0.00  0.00    +0.000 OA
ATOM     30  C   UNL     1      81.252  76.055  52.215  0.00  0.00    +0.000 C 
ATOM     31  C   UNL     1      81.259  76.721  51.729  0.00  0.00    +0.000 C 
ATOM     32  O   UNL     1      81.259  76.634  50.909  0.00  0.00    +0.000 OA
ENDROOT
TORSDOF 0
ENDMDL
MODEL 8
REMARK VINA RESULT:    -8.634     20.424     20.479
REMARK INTER + INTRA:          -8.634
REMARK INTER:                  -8.634
REMARK INTRA:                   0.000
REMARK UNBOUND:                 0.000
ROOT
REMARK  Name = olaflur
REMARK                            x       y       z     vdW  Elec       q    Type
REMARK                         _______ _______ _______ _____ _____    ______ ____
ATOM      1  C   UNL     1      81.123  77.170  50.739  0.00  0.00    +0.000 C 
ATOM      2  C   UNL     1      81.137  76.591  51.327  0.00  0.00    +0.000 C 
ATOM      3  C   UNL     1      81.167  75.792  51.119  0.00  0.00    +0.000 C 
ATOM      4  C   UNL     1      81.180  75.214  51.707  0.00  0.00    +0.000 C 
ATOM      5  C   UNL     1      81.211  74.416  51.500  0.00  0.00    +0.000 C 
ATOM      6  C   UNL     1      81.224  73.838  52.088  0.00  0.00    +0.000 C 
ATOM      7  C   UNL     1      81.254  73.039  51.880  0.00  0.00    +0.000 C 
ATOM      8  C   UNL     1      81.267  72.461  52.468  0.00  0.00    +0.000 C 
ATOM      9  C   UNL     1      81.298  71.663  52.262  0.00  0.00    +0.000 C 
ATOM     10  C   UNL     1      81.311  71.084  52.849  0.00  0.00    +0.000 C 
ATOM     11  C   UNL     1      81.341  70.286  52.642  0.00  0.00    +0.000 C 
ATOM     12  C   UNL     1      81.354  69.708  53.230  0.00  0.00    +0.000 C 
ATOM     13  C   UNL     1      81.385  68.910  53.023  0.00  0.00    +0.000 C 
ATOM     14  C   UNL     1      81.398  68.331  53.610  0.00  0.00    +0.000 C 
ATOM     15  C   UNL     1      81.428  67.533  53.403  0.00  0.00    +0.000 C 
ATOM     16  C   UNL     1      81.442  66.955  53.991  0.00  0.00    +0.000 C 
ATOM     17  C   UNL     1      81.472  66.157  53.783  0.00  0.00    +0.000 C 
ATOM     18  C   UNL     1      81.485  65.578  54.371  0.00  0.00    +0.000 C 
ATOM     19  N   UNL     1      81.516  64.780  54.165  0.00  0.00    +0.000 NA
ATOM     20  C   UNL     1      81.533  64.561  53.370  0.00  0.00    +0.000 C 
ATOM     21  C   UNL     1      81.563  63.763  53.162  0.00  0.00    +0.000 C 
ATOM     22  O   UNL     1      81.581  63.543  52.367  0.00  0.00    +0.000 OA
ATOM     23  C   UNL     1      81.529  64.202  54.753  0.00  0.00    +0.000 C 
ATOM     24  C   UNL     1      81.559  63.403  54.545  0.00  0.00    +0.000 C 
ATOM     25  C   UNL     1      81.572  62.824  55.133  0.00  0.00    +0.000 C 
ATOM     26  N   UNL     1      81.603  62.027  54.926  0.00  0.00    +0.000 NA
ATOM     27  C   UNL     1      81.616  61.448  55.514  0.00  0.00    +0.000 C 
ATOM     28  C   UNL     1      81.646  60.650  55.306  0.00  0.00    +0.000 C 
ATOM     29  O   UNL     1      81.659  60.071  55.894  0.00  0.00    +0.000 OA
ATOM     30  C   UNL     1      81.620  61.808  54.131  0.00  0.00    +0.000 C 
ATOM     31  C   UNL     1      81.651  61.010  53.923  0.00  0.00    +0.000 C 
ATOM     32  O   UNL     1      81.668  60.790  53.128  0.00  0.00    +0.000 OA
ENDROOT
TORSDOF 0
ENDMDL
MODEL 9
REMARK VINA RESULT:    -8.577      4.237     10.813
REMARK INTER + INTRA:          -8.577
REMARK INTER:                  -8.577
REMARK INTRA:                   0.000
REMARK UNBOUND:                 0.000
ROOT
REMARK  Name = olaflur
REMARK                            x       y       z     vdW  Elec       q    Type
REMARK                         _______ _______ _______ _____ _____    ______ ____
ATOM      1  C   UNL     1      63.894  58.606  53.492  0.00  0.00    +0.000 C 
ATOM      2  C   UNL     1      63.649  59.296  53.872  0.00  0.00    +0.000 C 
ATOM      3  C   UNL     1      63.429  59.956  53.429  0.00  0.00    +0.000 C 
ATOM      4  C   UNL     1      63.185  60.646  53.809  0.00  0.00    +0.000 C 
ATOM      5  C   UNL     1      62.965  61.306  53.367  0.00  0.00    +0.000 C 
ATOM      6  C   UNL     1      62.720  61.996  53.747  0.00  0.00    +0.000 C 
ATOM      7  C   UNL     1      62.500  62.656  53.304  0.00  0.00    +0.000 C 
ATOM      8  C   UNL     1      62.256  63.346  53.684  0.00  0.00    +0.000 C 
ATOM      9  C   UNL     1      62.036  64.006  53.242  0.00  0.00    +0.000 C 
ATOM     10  C   UNL     1      61.792  64.696  53.622  0.00  0.00    +0.000 C 
ATOM     11  C   UNL     1      61.572  65.356  53.179  0.00  0.00    +0.000 C 
ATOM     12  C   UNL     1      61.327  66.045  53.560  0.00  0.00    +0.000 C 
ATOM     13  C   UNL     1      61.107  66.706  53.117  0.00  0.00    +0.000 C 
ATOM     14  C   UNL     1      60.863  67.395  53.497  0.00  0.00    +0.000 C 
ATOM     15  C   UNL     1      60.643  68.055  53.054  0.00  0.00    +0.000 C 
ATOM     16  C   UNL     1      60.399  68.745  53.435  0.00  0.00    +0.000 C 
ATOM     17  C   UNL     1      60.179  69.405  52.991  0.00  0.00    +0.000 C 
ATOM     18  C   UNL     1      59.934  70.095  53.372  0.00  0.00    +0.000 C 
ATOM     19  N   UNL     1      59.714  70.755  52.929  0.00  0.00    +0.000 NA
ATOM     20  C   UNL     1      59.739  70.725  52.105  0.00  0.00    +0.000 C 
ATOM     21  C   UNL     1      59.519  71.386  51.661  0.00  0.00    +0.000 C 
ATOM     22  O   UNL     1      59.543  71.356  50.837  0.00  0.00    +0.000 OA
ATOM     23  C   UNL     1      59.470  71.445  53.310  0.00  0.00    +0.000 C 
ATOM     24  C   UNL     1      59.250  72.106  52.865  0.00  0.00    +0.000 C 
ATOM     25  C   UNL     1      59.005  72.796  53.246  0.00  0.00    +0.000 C 
ATOM     26  N   UNL     1      58.785  73.456  52.803  0.00  0.00    +0.000 NA
ATOM     27  C   UNL     1      58.541  74.145  53.184  0.00  0.00    +0.000 C 
ATOM     28  C   UNL     1      58.321  74.805  52.740  0.00  0.00    +0.000 C 
ATOM     29  O   UNL     1      58.077  75.495  53.121  0.00  0.00    +0.000 OA
ATOM     30  C   UNL     1      58.810  73.425  51.980  0.00  0.00    +0.000 C 
ATOM     31  C   UNL     1      58.590  74.085  51.536  0.00  0.00    +0.000 C 
ATOM     32  O   UNL     1      58.614  74.056  50.712  0.00  0.00    +0.000 OA
ENDROOT
TORSDOF 0
ENDMDL
