MODEL 1
REMARK VINA RESULT:   -17.825      0.000      0.000
REMARK INTER + INTRA:         -17.825
REMARK INTER:                 -17.825
REMARK INTRA:                   0.000
REMARK UNBOUND:                 0.000
ROOT
REMARK  Name = oleandomycin
REMARK                            x       y       z     vdW  Elec       q    Type
REMARK                         _______ _______ _______ _____ _____    ______ ____
ATOM      1  C   UNL     1      63.912  66.653  72.119  0.00  0.00    +0.000 C 
ATOM      2  O   UNL     1      63.440  66.116  71.707  0.00  0.00    +0.000 OA
ATOM      3  C   UNL     1      63.604  65.946  70.916  0.00  0.00    +0.000 C 
ATOM      4  C   UNL     1      63.132  65.409  70.503  0.00  0.00    +0.000 C 
ATOM      5  C   UNL     1      63.296  65.239  69.712  0.00  0.00    +0.000 C 
ATOM      6  O   UNL     1      62.825  64.702  69.299  0.00  0.00    +0.000 OA
ATOM      7  C   UNL     1      62.190  64.336  69.678  0.00  0.00    +0.000 C 
ATOM      8  C   UNL     1      62.354  64.166  68.887  0.00  0.00    +0.000 C 
ATOM      9  C   UNL     1      62.989  64.533  68.510  0.00  0.00    +0.000 C 
ATOM     10  C   UNL     1      61.882  63.629  68.474  0.00  0.00    +0.000 C 
ATOM     11  O   UNL     1      62.046  63.459  67.683  0.00  0.00    +0.000 OA
ATOM     12  C   UNL     1      61.575  62.923  67.270  0.00  0.00    +0.000 C 
ATOM     13  O   UNL     1      60.939  62.556  67.649  0.00  0.00    +0.000 OA
ATOM     14  C   UNL     1      60.468  62.019  67.235  0.00  0.00    +0.000 C 
ATOM     15  C   UNL     1      59.833  61.652  67.613  0.00  0.00    +0.000 C 
ATOM     16  C   UNL     1      60.632  61.849  66.445  0.00  0.00    +0.000 C 
ATOM     17  C   UNL     1      61.267  62.216  66.067  0.00  0.00    +0.000 C 
ATOM     18  C   UNL     1      61.739  62.753  66.480  0.00  0.00    +0.000 C 
ATOM     19  O   UNL     1      62.373  63.120  66.102  0.00  0.00    +0.000 OA
ATOM     20  N   UNL     1      61.431  62.047  65.277  0.00  0.00    +0.000 NA
ATOM     21  C   UNL     1      60.960  61.510  64.863  0.00  0.00    +0.000 C 
ATOM     22  C   UNL     1      62.066  62.414  64.899  0.00  0.00    +0.000 C 
ATOM     23  C   UNL     1      61.248  63.263  68.851  0.00  0.00    +0.000 C 
ATOM     24  C   UNL     1      60.776  62.726  68.439  0.00  0.00    +0.000 C 
ATOM     25  C   UNL     1      61.083  63.432  69.642  0.00  0.00    +0.000 C 
ATOM     26  C   UNL     1      60.449  63.066  70.020  0.00  0.00    +0.000 C 
ATOM     27  C   UNL     1      60.123  62.581  69.436  0.00  0.00    +0.000 C 
ATOM     28  O   UNL     1      59.789  62.600  70.190  0.00  0.00    +0.000 OA
ATOM     29  C   UNL     1      60.284  63.235  70.810  0.00  0.00    +0.000 C 
ATOM     30  O   UNL     1      59.649  62.868  71.189  0.00  0.00    +0.000 OA
ATOM     31  C   UNL     1      60.756  63.772  71.223  0.00  0.00    +0.000 C 
ATOM     32  C   UNL     1      61.391  64.139  70.846  0.00  0.00    +0.000 C 
ATOM     33  C   UNL     1      60.592  63.942  72.014  0.00  0.00    +0.000 C 
ATOM     34  O   UNL     1      59.957  63.575  72.391  0.00  0.00    +0.000 OA
ATOM     35  C   UNL     1      61.064  64.478  72.427  0.00  0.00    +0.000 C 
ATOM     36  C   UNL     1      60.900  64.648  73.218  0.00  0.00    +0.000 C 
ATOM     37  C   UNL     1      61.699  64.845  72.049  0.00  0.00    +0.000 C 
ATOM     38  C   UNL     1      62.170  65.382  72.462  0.00  0.00    +0.000 C 
ATOM     39  O   UNL     1      61.862  64.675  71.258  0.00  0.00    +0.000 OA
ATOM     40  C   UNL     1      62.498  65.042  70.880  0.00  0.00    +0.000 C 
ATOM     41  O   UNL     1      62.969  65.579  71.294  0.00  0.00    +0.000 OA
ATOM     42  C   UNL     1      62.661  64.872  70.090  0.00  0.00    +0.000 C 
ATOM     43  C   UNL     1      63.279  65.409  70.193  0.00  0.00    +0.000 C 
ATOM     44  O   UNL     1      63.931  65.606  69.335  0.00  0.00    +0.000 OA
ATOM     45  C   UNL     1      64.403  66.143  69.747  0.00  0.00    +0.000 C 
ATOM     46  C   UNL     1      65.038  66.510  69.370  0.00  0.00    +0.000 C 
ATOM     47  C   UNL     1      64.239  66.313  70.538  0.00  0.00    +0.000 C 
ATOM     48  O   UNL     1      64.710  66.850  70.951  0.00  0.00    +0.000 OA
ENDROOT
TORSDOF 0
ENDMDL
