MODEL 1
REMARK VINA RESULT:   -12.974      0.000      0.000
REMARK INTER + INTRA:         -12.974
REMARK INTER:                 -12.974
REMARK INTRA:                   0.000
REMARK UNBOUND:                 0.000
ROOT
REMARK  Name = omarigliptin
REMARK                            x       y       z     vdW  Elec       q    Type
REMARK                         _______ _______ _______ _____ _____    ______ ____
ATOM      1  C   UNL     1      60.401  64.617  72.330  0.00  0.00    +0.000 C 
ATOM      2  S   UNL     1      60.527  64.338  71.564  0.00  0.00    +0.000 S 
ATOM      3  O   UNL     1      59.793  63.962  71.580  0.00  0.00    +0.000 OA
ATOM      4  O   UNL     1      61.261  64.714  71.548  0.00  0.00    +0.000 OA
ATOM      5  N   UNL     1      60.653  64.059  70.798  0.00  0.00    +0.000 N 
ATOM      6  C   UNL     1      61.320  64.199  70.334  0.00  0.00    +0.000 A 
ATOM      7  C   UNL     1      61.214  63.818  69.611  0.00  0.00    +0.000 A 
ATOM      8  C   UNL     1      61.560  63.668  68.877  0.00  0.00    +0.000 C 
ATOM      9  N   UNL     1      61.040  63.200  68.440  0.00  0.00    +0.000 NA
ATOM     10  C   UNL     1      60.373  63.060  68.903  0.00  0.00    +0.000 C 
ATOM     11  C   UNL     1      60.480  63.442  69.627  0.00  0.00    +0.000 A 
ATOM     12  N   UNL     1      60.133  63.591  70.360  0.00  0.00    +0.000 NA
ATOM     13  C   UNL     1      61.166  62.921  67.674  0.00  0.00    +0.000 C 
ATOM     14  C   UNL     1      61.865  63.108  67.277  0.00  0.00    +0.000 C 
ATOM     15  O   UNL     1      61.991  62.829  66.511  0.00  0.00    +0.000 OA
ATOM     16  C   UNL     1      61.418  62.363  66.141  0.00  0.00    +0.000 C 
ATOM     17  C   UNL     1      60.719  62.178  66.539  0.00  0.00    +0.000 C 
ATOM     18  N   UNL     1      60.146  61.712  66.170  0.00  0.00    +0.000 NA
ATOM     19  C   UNL     1      60.593  62.457  67.305  0.00  0.00    +0.000 C 
ATOM     20  C   UNL     1      61.544  62.084  65.375  0.00  0.00    +0.000 A 
ATOM     21  C   UNL     1      62.243  62.271  64.979  0.00  0.00    +0.000 A 
ATOM     22  F   UNL     1      62.815  62.735  65.347  0.00  0.00    +0.000 F 
ATOM     23  C   UNL     1      62.369  61.992  64.212  0.00  0.00    +0.000 A 
ATOM     24  C   UNL     1      61.795  61.526  63.843  0.00  0.00    +0.000 A 
ATOM     25  C   UNL     1      61.097  61.341  64.241  0.00  0.00    +0.000 A 
ATOM     26  F   UNL     1      60.524  60.875  63.871  0.00  0.00    +0.000 F 
ATOM     27  C   UNL     1      60.971  61.620  65.007  0.00  0.00    +0.000 A 
ENDROOT
TORSDOF 0
ENDMDL
MODEL 2
REMARK VINA RESULT:   -12.516      2.706      5.850
REMARK INTER + INTRA:         -12.516
REMARK INTER:                 -12.516
REMARK INTRA:                   0.000
REMARK UNBOUND:                 0.000
ROOT
REMARK  Name = omarigliptin
REMARK                            x       y       z     vdW  Elec       q    Type
REMARK                         _______ _______ _______ _____ _____    ______ ____
ATOM      1  C   UNL     1      62.215  61.613  63.482  0.00  0.00    +0.000 C 
ATOM      2  S   UNL     1      62.042  61.809  64.264  0.00  0.00    +0.000 S 
ATOM      3  O   UNL     1      62.413  62.539  64.163  0.00  0.00    +0.000 OA
ATOM      4  O   UNL     1      61.671  61.080  64.365  0.00  0.00    +0.000 OA
ATOM      5  N   UNL     1      61.869  62.006  65.047  0.00  0.00    +0.000 N 
ATOM      6  C   UNL     1      61.467  61.531  65.588  0.00  0.00    +0.000 A 
ATOM      7  C   UNL     1      61.417  61.942  66.301  0.00  0.00    +0.000 A 
ATOM      8  C   UNL     1      61.138  61.904  67.076  0.00  0.00    +0.000 C 
ATOM      9  N   UNL     1      61.337  62.610  67.455  0.00  0.00    +0.000 NA
ATOM     10  C   UNL     1      61.739  63.084  66.913  0.00  0.00    +0.000 C 
ATOM     11  C   UNL     1      61.789  62.672  66.200  0.00  0.00    +0.000 A 
ATOM     12  N   UNL     1      62.068  62.711  65.425  0.00  0.00    +0.000 NA
ATOM     13  C   UNL     1      61.164  62.806  68.237  0.00  0.00    +0.000 C 
ATOM     14  C   UNL     1      60.756  62.272  68.715  0.00  0.00    +0.000 C 
ATOM     15  O   UNL     1      60.583  62.468  69.498  0.00  0.00    +0.000 OA
ATOM     16  C   UNL     1      60.818  63.199  69.802  0.00  0.00    +0.000 C 
ATOM     17  C   UNL     1      61.226  63.732  69.323  0.00  0.00    +0.000 C 
ATOM     18  N   UNL     1      61.461  64.463  69.627  0.00  0.00    +0.000 NA
ATOM     19  C   UNL     1      61.399  63.536  68.540  0.00  0.00    +0.000 C 
ATOM     20  C   UNL     1      60.645  63.395  70.584  0.00  0.00    +0.000 A 
ATOM     21  C   UNL     1      60.237  62.860  71.063  0.00  0.00    +0.000 A 
ATOM     22  F   UNL     1      60.002  62.131  70.759  0.00  0.00    +0.000 F 
ATOM     23  C   UNL     1      60.064  63.057  71.845  0.00  0.00    +0.000 A 
ATOM     24  C   UNL     1      60.299  63.787  72.149  0.00  0.00    +0.000 A 
ATOM     25  C   UNL     1      60.707  64.321  71.670  0.00  0.00    +0.000 A 
ATOM     26  F   UNL     1      60.942  65.051  71.974  0.00  0.00    +0.000 F 
ATOM     27  C   UNL     1      60.880  64.124  70.888  0.00  0.00    +0.000 A 
ENDROOT
TORSDOF 0
ENDMDL
MODEL 3
REMARK VINA RESULT:   -12.006      3.749      5.213
REMARK INTER + INTRA:         -12.006
REMARK INTER:                 -12.006
REMARK INTRA:                   0.000
REMARK UNBOUND:                 0.000
ROOT
REMARK  Name = omarigliptin
REMARK                            x       y       z     vdW  Elec       q    Type
REMARK                         _______ _______ _______ _____ _____    ______ ____
ATOM      1  C   UNL     1      66.677  68.007  70.292  0.00  0.00    +0.000 C 
ATOM      2  S   UNL     1      66.089  67.429  70.286  0.00  0.00    +0.000 S 
ATOM      3  O   UNL     1      66.007  67.520  69.470  0.00  0.00    +0.000 OA
ATOM      4  O   UNL     1      66.171  67.337  71.102  0.00  0.00    +0.000 OA
ATOM      5  N   UNL     1      65.500  66.850  70.280  0.00  0.00    +0.000 N 
ATOM      6  C   UNL     1      65.220  66.436  70.936  0.00  0.00    +0.000 A 
ATOM      7  C   UNL     1      64.636  65.915  70.679  0.00  0.00    +0.000 A 
ATOM      8  C   UNL     1      64.101  65.337  70.924  0.00  0.00    +0.000 C 
ATOM      9  N   UNL     1      63.689  65.071  70.261  0.00  0.00    +0.000 NA
ATOM     10  C   UNL     1      63.969  65.485  69.605  0.00  0.00    +0.000 C 
ATOM     11  C   UNL     1      64.554  66.007  69.863  0.00  0.00    +0.000 A 
ATOM     12  N   UNL     1      65.088  66.585  69.617  0.00  0.00    +0.000 NA
ATOM     13  C   UNL     1      63.101  64.493  70.255  0.00  0.00    +0.000 C 
ATOM     14  C   UNL     1      62.878  64.125  70.959  0.00  0.00    +0.000 C 
ATOM     15  O   UNL     1      62.289  63.547  70.953  0.00  0.00    +0.000 OA
ATOM     16  C   UNL     1      61.924  63.337  70.243  0.00  0.00    +0.000 C 
ATOM     17  C   UNL     1      62.148  63.706  69.540  0.00  0.00    +0.000 C 
ATOM     18  N   UNL     1      61.782  63.496  68.830  0.00  0.00    +0.000 NA
ATOM     19  C   UNL     1      62.736  64.284  69.546  0.00  0.00    +0.000 C 
ATOM     20  C   UNL     1      61.335  62.759  70.237  0.00  0.00    +0.000 A 
ATOM     21  C   UNL     1      61.112  62.390  70.941  0.00  0.00    +0.000 A 
ATOM     22  F   UNL     1      61.477  62.600  71.650  0.00  0.00    +0.000 F 
ATOM     23  C   UNL     1      60.524  61.812  70.935  0.00  0.00    +0.000 A 
ATOM     24  C   UNL     1      60.158  61.602  70.225  0.00  0.00    +0.000 A 
ATOM     25  C   UNL     1      60.382  61.971  69.522  0.00  0.00    +0.000 A 
ATOM     26  F   UNL     1      60.017  61.761  68.812  0.00  0.00    +0.000 F 
ATOM     27  C   UNL     1      60.971  62.549  69.528  0.00  0.00    +0.000 A 
ENDROOT
TORSDOF 0
ENDMDL
MODEL 4
REMARK VINA RESULT:   -11.436      3.264      5.919
REMARK INTER + INTRA:         -11.436
REMARK INTER:                 -11.436
REMARK INTRA:                   0.000
REMARK UNBOUND:                 0.000
ROOT
REMARK  Name = omarigliptin
REMARK                            x       y       z     vdW  Elec       q    Type
REMARK                         _______ _______ _______ _____ _____    ______ ____
ATOM      1  C   UNL     1      59.360  61.945  66.377  0.00  0.00    +0.000 C 
ATOM      2  S   UNL     1      59.854  62.379  66.876  0.00  0.00    +0.000 S 
ATOM      3  O   UNL     1      60.510  61.984  66.570  0.00  0.00    +0.000 OA
ATOM      4  O   UNL     1      59.198  62.775  67.182  0.00  0.00    +0.000 OA
ATOM      5  N   UNL     1      60.348  62.814  67.374  0.00  0.00    +0.000 N 
ATOM      6  C   UNL     1      60.108  63.388  67.914  0.00  0.00    +0.000 A 
ATOM      7  C   UNL     1      60.779  63.679  68.293  0.00  0.00    +0.000 A 
ATOM      8  C   UNL     1      61.047  64.214  68.862  0.00  0.00    +0.000 C 
ATOM      9  N   UNL     1      61.868  64.150  68.907  0.00  0.00    +0.000 NA
ATOM     10  C   UNL     1      62.108  63.575  68.367  0.00  0.00    +0.000 C 
ATOM     11  C   UNL     1      61.435  63.284  67.987  0.00  0.00    +0.000 A 
ATOM     12  N   UNL     1      61.169  62.749  67.419  0.00  0.00    +0.000 NA
ATOM     13  C   UNL     1      62.362  64.584  69.405  0.00  0.00    +0.000 C 
ATOM     14  C   UNL     1      62.039  65.144  69.919  0.00  0.00    +0.000 C 
ATOM     15  O   UNL     1      62.533  65.578  70.418  0.00  0.00    +0.000 OA
ATOM     16  C   UNL     1      63.349  65.453  70.402  0.00  0.00    +0.000 C 
ATOM     17  C   UNL     1      63.670  64.893  69.888  0.00  0.00    +0.000 C 
ATOM     18  N   UNL     1      64.486  64.768  69.872  0.00  0.00    +0.000 NA
ATOM     19  C   UNL     1      63.176  64.459  69.389  0.00  0.00    +0.000 C 
ATOM     20  C   UNL     1      63.843  65.887  70.900  0.00  0.00    +0.000 A 
ATOM     21  C   UNL     1      63.521  66.446  71.414  0.00  0.00    +0.000 A 
ATOM     22  F   UNL     1      62.706  66.571  71.430  0.00  0.00    +0.000 F 
ATOM     23  C   UNL     1      64.015  66.880  71.912  0.00  0.00    +0.000 A 
ATOM     24  C   UNL     1      64.831  66.755  71.897  0.00  0.00    +0.000 A 
ATOM     25  C   UNL     1      65.152  66.196  71.382  0.00  0.00    +0.000 A 
ATOM     26  F   UNL     1      65.968  66.070  71.366  0.00  0.00    +0.000 F 
ATOM     27  C   UNL     1      64.658  65.761  70.884  0.00  0.00    +0.000 A 
ENDROOT
TORSDOF 0
ENDMDL
MODEL 5
REMARK VINA RESULT:   -10.877      2.764      6.068
REMARK INTER + INTRA:         -10.877
REMARK INTER:                 -10.877
REMARK INTRA:                   0.000
REMARK UNBOUND:                 0.000
ROOT
REMARK  Name = omarigliptin
REMARK                            x       y       z     vdW  Elec       q    Type
REMARK                         _______ _______ _______ _____ _____    ______ ____
ATOM      1  C   UNL     1      60.880  61.618  65.253  0.00  0.00    +0.000 C 
ATOM      2  S   UNL     1      60.882  62.060  65.950  0.00  0.00    +0.000 S 
ATOM      3  O   UNL     1      60.066  61.956  66.018  0.00  0.00    +0.000 OA
ATOM      4  O   UNL     1      61.697  62.164  65.881  0.00  0.00    +0.000 OA
ATOM      5  N   UNL     1      60.883  62.502  66.646  0.00  0.00    +0.000 N 
ATOM      6  C   UNL     1      61.544  62.846  67.000  0.00  0.00    +0.000 A 
ATOM      7  C   UNL     1      61.294  63.234  67.683  0.00  0.00    +0.000 A 
ATOM      8  C   UNL     1      61.547  63.687  68.325  0.00  0.00    +0.000 C 
ATOM      9  N   UNL     1      60.889  63.862  68.790  0.00  0.00    +0.000 NA
ATOM     10  C   UNL     1      60.229  63.518  68.435  0.00  0.00    +0.000 C 
ATOM     11  C   UNL     1      60.479  63.130  67.752  0.00  0.00    +0.000 A 
ATOM     12  N   UNL     1      60.225  62.677  67.111  0.00  0.00    +0.000 NA
ATOM     13  C   UNL     1      60.891  64.304  69.486  0.00  0.00    +0.000 C 
ATOM     14  C   UNL     1      61.599  64.615  69.775  0.00  0.00    +0.000 C 
ATOM     15  O   UNL     1      61.600  65.057  70.472  0.00  0.00    +0.000 OA
ATOM     16  C   UNL     1      60.894  65.188  70.879  0.00  0.00    +0.000 C 
ATOM     17  C   UNL     1      60.188  64.877  70.590  0.00  0.00    +0.000 C 
ATOM     18  N   UNL     1      59.482  65.008  70.997  0.00  0.00    +0.000 NA
ATOM     19  C   UNL     1      60.186  64.435  69.893  0.00  0.00    +0.000 C 
ATOM     20  C   UNL     1      60.896  65.631  71.576  0.00  0.00    +0.000 A 
ATOM     21  C   UNL     1      61.604  65.942  71.865  0.00  0.00    +0.000 A 
ATOM     22  F   UNL     1      62.309  65.811  71.458  0.00  0.00    +0.000 F 
ATOM     23  C   UNL     1      61.606  66.384  72.561  0.00  0.00    +0.000 A 
ATOM     24  C   UNL     1      60.900  66.515  72.969  0.00  0.00    +0.000 A 
ATOM     25  C   UNL     1      60.193  66.203  72.679  0.00  0.00    +0.000 A 
ATOM     26  F   UNL     1      59.487  66.334  73.087  0.00  0.00    +0.000 F 
ATOM     27  C   UNL     1      60.191  65.761  71.983  0.00  0.00    +0.000 A 
ENDROOT
TORSDOF 0
ENDMDL
MODEL 6
REMARK VINA RESULT:   -10.597      5.063      6.369
REMARK INTER + INTRA:         -10.597
REMARK INTER:                 -10.597
REMARK INTRA:                   0.000
REMARK UNBOUND:                 0.000
ROOT
REMARK  Name = omarigliptin
REMARK                            x       y       z     vdW  Elec       q    Type
REMARK                         _______ _______ _______ _____ _____    ______ ____
ATOM      1  C   UNL     1      59.140  63.502  71.801  0.00  0.00    +0.000 C 
ATOM      2  S   UNL     1      59.868  63.876  71.690  0.00  0.00    +0.000 S 
ATOM      3  O   UNL     1      59.642  64.089  70.926  0.00  0.00    +0.000 OA
ATOM      4  O   UNL     1      60.094  63.663  72.455  0.00  0.00    +0.000 OA
ATOM      5  N   UNL     1      60.595  64.249  71.579  0.00  0.00    +0.000 N 
ATOM      6  C   UNL     1      61.205  64.297  72.132  0.00  0.00    +0.000 A 
ATOM      7  C   UNL     1      61.826  64.718  71.791  0.00  0.00    +0.000 A 
ATOM      8  C   UNL     1      62.588  65.008  71.921  0.00  0.00    +0.000 C 
ATOM      9  N   UNL     1      62.833  65.399  71.238  0.00  0.00    +0.000 NA
ATOM     10  C   UNL     1      62.222  65.352  70.685  0.00  0.00    +0.000 C 
ATOM     11  C   UNL     1      61.600  64.930  71.027  0.00  0.00    +0.000 A 
ATOM     12  N   UNL     1      60.839  64.641  70.896  0.00  0.00    +0.000 NA
ATOM     13  C   UNL     1      63.560  65.773  71.127  0.00  0.00    +0.000 C 
ATOM     14  C   UNL     1      64.119  65.775  71.734  0.00  0.00    +0.000 C 
ATOM     15  O   UNL     1      64.846  66.149  71.623  0.00  0.00    +0.000 OA
ATOM     16  C   UNL     1      65.014  66.520  70.905  0.00  0.00    +0.000 C 
ATOM     17  C   UNL     1      64.454  66.517  70.299  0.00  0.00    +0.000 C 
ATOM     18  N   UNL     1      64.622  66.889  69.581  0.00  0.00    +0.000 NA
ATOM     19  C   UNL     1      63.727  66.144  70.410  0.00  0.00    +0.000 C 
ATOM     20  C   UNL     1      65.741  66.894  70.794  0.00  0.00    +0.000 A 
ATOM     21  C   UNL     1      66.300  66.896  71.401  0.00  0.00    +0.000 A 
ATOM     22  F   UNL     1      66.133  66.525  72.118  0.00  0.00    +0.000 F 
ATOM     23  C   UNL     1      67.027  67.270  71.290  0.00  0.00    +0.000 A 
ATOM     24  C   UNL     1      67.195  67.641  70.572  0.00  0.00    +0.000 A 
ATOM     25  C   UNL     1      66.636  67.638  69.966  0.00  0.00    +0.000 A 
ATOM     26  F   UNL     1      66.804  68.009  69.248  0.00  0.00    +0.000 F 
ATOM     27  C   UNL     1      65.909  67.264  70.077  0.00  0.00    +0.000 A 
ENDROOT
TORSDOF 0
ENDMDL
