MODEL 1
REMARK VINA RESULT:   -11.386      0.000      0.000
REMARK INTER + INTRA:         -11.386
REMARK INTER:                 -11.386
REMARK INTRA:                   0.000
REMARK UNBOUND:                 0.000
ROOT
REMARK  Name = ondansetron
REMARK                            x       y       z     vdW  Elec       q    Type
REMARK                         _______ _______ _______ _____ _____    ______ ____
ATOM      1  C   UNL     1      59.766  61.198  64.797  0.00  0.00    +0.000 C 
ATOM      2  N   UNL     1      60.289  61.625  65.273  0.00  0.00    +0.000 N 
ATOM      3  C   UNL     1      60.111  61.969  66.001  0.00  0.00    +0.000 A 
ATOM      4  C   UNL     1      60.793  62.339  66.282  0.00  0.00    +0.000 A 
ATOM      5  C   UNL     1      61.393  62.223  65.727  0.00  0.00    +0.000 A 
ATOM      6  C   UNL     1      62.182  62.462  65.709  0.00  0.00    +0.000 A 
ATOM      7  C   UNL     1      62.660  62.260  65.068  0.00  0.00    +0.000 A 
ATOM      8  C   UNL     1      62.348  61.819  64.444  0.00  0.00    +0.000 A 
ATOM      9  C   UNL     1      61.558  61.580  64.462  0.00  0.00    +0.000 A 
ATOM     10  C   UNL     1      61.081  61.781  65.103  0.00  0.00    +0.000 A 
ATOM     11  C   UNL     1      60.780  62.733  67.006  0.00  0.00    +0.000 C 
ATOM     12  O   UNL     1      61.463  63.103  67.287  0.00  0.00    +0.000 OA
ATOM     13  C   UNL     1      60.086  62.758  67.450  0.00  0.00    +0.000 C 
ATOM     14  C   UNL     1      60.072  63.153  68.175  0.00  0.00    +0.000 C 
ATOM     15  N   UNL     1      60.754  63.522  68.456  0.00  0.00    +0.000 N 
ATOM     16  C   UNL     1      61.486  63.544  68.075  0.00  0.00    +0.000 A 
ATOM     17  C   UNL     1      62.008  63.970  68.550  0.00  0.00    +0.000 A 
ATOM     18  N   UNL     1      61.599  64.212  69.225  0.00  0.00    +0.000 NA
ATOM     19  C   UNL     1      60.825  63.935  69.166  0.00  0.00    +0.000 A 
ATOM     20  C   UNL     1      60.225  64.051  69.721  0.00  0.00    +0.000 C 
ATOM     21  C   UNL     1      59.403  62.388  67.169  0.00  0.00    +0.000 C 
ATOM     22  C   UNL     1      59.416  61.994  66.445  0.00  0.00    +0.000 C 
ENDROOT
TORSDOF 0
ENDMDL
MODEL 2
REMARK VINA RESULT:   -10.509      2.519      4.054
REMARK INTER + INTRA:         -10.509
REMARK INTER:                 -10.509
REMARK INTRA:                   0.000
REMARK UNBOUND:                 0.000
ROOT
REMARK  Name = ondansetron
REMARK                            x       y       z     vdW  Elec       q    Type
REMARK                         _______ _______ _______ _____ _____    ______ ____
ATOM      1  C   UNL     1      60.592  61.716  70.601  0.00  0.00    +0.000 C 
ATOM      2  N   UNL     1      60.453  62.409  70.173  0.00  0.00    +0.000 N 
ATOM      3  C   UNL     1      60.284  63.150  70.493  0.00  0.00    +0.000 A 
ATOM      4  C   UNL     1      60.185  63.680  69.868  0.00  0.00    +0.000 A 
ATOM      5  C   UNL     1      60.294  63.266  69.163  0.00  0.00    +0.000 A 
ATOM      6  C   UNL     1      60.263  63.503  68.373  0.00  0.00    +0.000 A 
ATOM      7  C   UNL     1      60.398  62.955  67.772  0.00  0.00    +0.000 A 
ATOM      8  C   UNL     1      60.564  62.169  67.961  0.00  0.00    +0.000 A 
ATOM      9  C   UNL     1      60.594  61.932  68.751  0.00  0.00    +0.000 A 
ATOM     10  C   UNL     1      60.459  62.480  69.351  0.00  0.00    +0.000 A 
ATOM     11  C   UNL     1      60.010  64.471  70.022  0.00  0.00    +0.000 C 
ATOM     12  O   UNL     1      59.911  65.002  69.398  0.00  0.00    +0.000 OA
ATOM     13  C   UNL     1      59.932  64.733  70.801  0.00  0.00    +0.000 C 
ATOM     14  C   UNL     1      59.757  65.524  70.956  0.00  0.00    +0.000 C 
ATOM     15  N   UNL     1      59.658  66.054  70.332  0.00  0.00    +0.000 N 
ATOM     16  C   UNL     1      59.719  65.874  69.529  0.00  0.00    +0.000 A 
ATOM     17  C   UNL     1      59.580  66.566  69.101  0.00  0.00    +0.000 A 
ATOM     18  N   UNL     1      59.434  67.173  69.640  0.00  0.00    +0.000 NA
ATOM     19  C   UNL     1      59.482  66.857  70.400  0.00  0.00    +0.000 A 
ATOM     20  C   UNL     1      59.374  67.271  71.105  0.00  0.00    +0.000 C 
ATOM     21  C   UNL     1      60.031  64.202  71.426  0.00  0.00    +0.000 C 
ATOM     22  C   UNL     1      60.206  63.411  71.271  0.00  0.00    +0.000 C 
ENDROOT
TORSDOF 0
ENDMDL
MODEL 3
REMARK VINA RESULT:   -10.273      2.062      5.242
REMARK INTER + INTRA:         -10.273
REMARK INTER:                 -10.273
REMARK INTRA:                   0.000
REMARK UNBOUND:                 0.000
ROOT
REMARK  Name = ondansetron
REMARK                            x       y       z     vdW  Elec       q    Type
REMARK                         _______ _______ _______ _____ _____    ______ ____
ATOM      1  C   UNL     1      62.790  65.325  71.726  0.00  0.00    +0.000 C 
ATOM      2  N   UNL     1      62.372  64.696  71.392  0.00  0.00    +0.000 N 
ATOM      3  C   UNL     1      62.276  64.553  70.586  0.00  0.00    +0.000 A 
ATOM      4  C   UNL     1      61.822  63.869  70.501  0.00  0.00    +0.000 A 
ATOM      5  C   UNL     1      61.639  63.589  71.255  0.00  0.00    +0.000 A 
ATOM      6  C   UNL     1      61.206  62.936  71.511  0.00  0.00    +0.000 A 
ATOM      7  C   UNL     1      61.112  62.793  72.318  0.00  0.00    +0.000 A 
ATOM      8  C   UNL     1      61.453  63.304  72.868  0.00  0.00    +0.000 A 
ATOM      9  C   UNL     1      61.886  63.958  72.612  0.00  0.00    +0.000 A 
ATOM     10  C   UNL     1      61.979  64.101  71.806  0.00  0.00    +0.000 A 
ATOM     11  C   UNL     1      61.635  63.589  69.748  0.00  0.00    +0.000 C 
ATOM     12  O   UNL     1      61.182  62.905  69.663  0.00  0.00    +0.000 OA
ATOM     13  C   UNL     1      61.901  63.993  69.079  0.00  0.00    +0.000 C 
ATOM     14  C   UNL     1      61.715  63.713  68.325  0.00  0.00    +0.000 C 
ATOM     15  N   UNL     1      61.261  63.029  68.241  0.00  0.00    +0.000 N 
ATOM     16  C   UNL     1      60.958  62.569  68.855  0.00  0.00    +0.000 A 
ATOM     17  C   UNL     1      60.541  61.941  68.520  0.00  0.00    +0.000 A 
ATOM     18  N   UNL     1      60.586  62.013  67.699  0.00  0.00    +0.000 NA
ATOM     19  C   UNL     1      61.032  62.685  67.527  0.00  0.00    +0.000 A 
ATOM     20  C   UNL     1      61.215  62.964  66.773  0.00  0.00    +0.000 C 
ATOM     21  C   UNL     1      62.355  64.677  69.164  0.00  0.00    +0.000 C 
ATOM     22  C   UNL     1      62.542  64.957  69.917  0.00  0.00    +0.000 C 
ENDROOT
TORSDOF 0
ENDMDL
MODEL 4
REMARK VINA RESULT:   -10.263      4.351      6.278
REMARK INTER + INTRA:         -10.263
REMARK INTER:                 -10.263
REMARK INTRA:                   0.000
REMARK UNBOUND:                 0.000
ROOT
REMARK  Name = ondansetron
REMARK                            x       y       z     vdW  Elec       q    Type
REMARK                         _______ _______ _______ _____ _____    ______ ____
ATOM      1  C   UNL     1      61.906  63.129  70.292  0.00  0.00    +0.000 C 
ATOM      2  N   UNL     1      62.202  63.775  70.712  0.00  0.00    +0.000 N 
ATOM      3  C   UNL     1      62.828  64.258  70.480  0.00  0.00    +0.000 A 
ATOM      4  C   UNL     1      62.937  64.832  71.063  0.00  0.00    +0.000 A 
ATOM      5  C   UNL     1      62.377  64.703  71.655  0.00  0.00    +0.000 A 
ATOM      6  C   UNL     1      62.223  65.096  72.364  0.00  0.00    +0.000 A 
ATOM      7  C   UNL     1      61.614  64.836  72.856  0.00  0.00    +0.000 A 
ATOM      8  C   UNL     1      61.160  64.183  72.639  0.00  0.00    +0.000 A 
ATOM      9  C   UNL     1      61.315  63.789  71.930  0.00  0.00    +0.000 A 
ATOM     10  C   UNL     1      61.923  64.049  71.439  0.00  0.00    +0.000 A 
ATOM     11  C   UNL     1      63.531  65.398  70.979  0.00  0.00    +0.000 C 
ATOM     12  O   UNL     1      63.640  65.972  71.562  0.00  0.00    +0.000 OA
ATOM     13  C   UNL     1      64.017  65.390  70.312  0.00  0.00    +0.000 C 
ATOM     14  C   UNL     1      64.613  65.956  70.228  0.00  0.00    +0.000 C 
ATOM     15  N   UNL     1      64.721  66.529  70.810  0.00  0.00    +0.000 N 
ATOM     16  C   UNL     1      64.280  66.606  71.504  0.00  0.00    +0.000 A 
ATOM     17  C   UNL     1      64.576  67.251  71.924  0.00  0.00    +0.000 A 
ATOM     18  N   UNL     1      65.200  67.574  71.490  0.00  0.00    +0.000 NA
ATOM     19  C   UNL     1      65.289  67.127  70.803  0.00  0.00    +0.000 A 
ATOM     20  C   UNL     1      65.849  67.256  70.211  0.00  0.00    +0.000 C 
ATOM     21  C   UNL     1      63.909  64.816  69.730  0.00  0.00    +0.000 C 
ATOM     22  C   UNL     1      63.314  64.250  69.814  0.00  0.00    +0.000 C 
ENDROOT
TORSDOF 0
ENDMDL
MODEL 5
REMARK VINA RESULT:   -10.253      3.859      5.557
REMARK INTER + INTRA:         -10.253
REMARK INTER:                 -10.253
REMARK INTRA:                   0.000
REMARK UNBOUND:                 0.000
ROOT
REMARK  Name = ondansetron
REMARK                            x       y       z     vdW  Elec       q    Type
REMARK                         _______ _______ _______ _____ _____    ______ ____
ATOM      1  C   UNL     1      60.868  62.453  69.868  0.00  0.00    +0.000 C 
ATOM      2  N   UNL     1      60.811  62.940  70.533  0.00  0.00    +0.000 N 
ATOM      3  C   UNL     1      60.468  63.688  70.557  0.00  0.00    +0.000 A 
ATOM      4  C   UNL     1      60.532  63.974  71.328  0.00  0.00    +0.000 A 
ATOM      5  C   UNL     1      60.916  63.401  71.781  0.00  0.00    +0.000 A 
ATOM      6  C   UNL     1      61.131  63.379  72.577  0.00  0.00    +0.000 A 
ATOM      7  C   UNL     1      61.518  62.718  72.882  0.00  0.00    +0.000 A 
ATOM      8  C   UNL     1      61.691  62.079  72.390  0.00  0.00    +0.000 A 
ATOM      9  C   UNL     1      61.476  62.101  71.594  0.00  0.00    +0.000 A 
ATOM     10  C   UNL     1      61.089  62.761  71.289  0.00  0.00    +0.000 A 
ATOM     11  C   UNL     1      60.233  64.719  71.519  0.00  0.00    +0.000 C 
ATOM     12  O   UNL     1      60.297  65.004  72.291  0.00  0.00    +0.000 OA
ATOM     13  C   UNL     1      59.869  65.178  70.939  0.00  0.00    +0.000 C 
ATOM     14  C   UNL     1      59.569  65.924  71.129  0.00  0.00    +0.000 C 
ATOM     15  N   UNL     1      59.634  66.209  71.899  0.00  0.00    +0.000 N 
ATOM     16  C   UNL     1      59.982  65.814  72.535  0.00  0.00    +0.000 A 
ATOM     17  C   UNL     1      59.925  66.300  73.199  0.00  0.00    +0.000 A 
ATOM     18  N   UNL     1      59.542  66.996  72.974  0.00  0.00    +0.000 NA
ATOM     19  C   UNL     1      59.363  66.939  72.171  0.00  0.00    +0.000 A 
ATOM     20  C   UNL     1      58.979  67.512  71.719  0.00  0.00    +0.000 C 
ATOM     21  C   UNL     1      59.805  64.893  70.167  0.00  0.00    +0.000 C 
ATOM     22  C   UNL     1      60.104  64.148  69.976  0.00  0.00    +0.000 C 
ENDROOT
TORSDOF 0
ENDMDL
MODEL 6
REMARK VINA RESULT:   -10.052      2.678      4.283
REMARK INTER + INTRA:         -10.052
REMARK INTER:                 -10.052
REMARK INTRA:                   0.000
REMARK UNBOUND:                 0.000
ROOT
REMARK  Name = ondansetron
REMARK                            x       y       z     vdW  Elec       q    Type
REMARK                         _______ _______ _______ _____ _____    ______ ____
ATOM      1  C   UNL     1      60.262  61.367  70.707  0.00  0.00    +0.000 C 
ATOM      2  N   UNL     1      60.623  62.058  70.434  0.00  0.00    +0.000 N 
ATOM      3  C   UNL     1      60.945  62.653  70.904  0.00  0.00    +0.000 A 
ATOM      4  C   UNL     1      61.246  63.237  70.404  0.00  0.00    +0.000 A 
ATOM      5  C   UNL     1      61.109  63.001  69.626  0.00  0.00    +0.000 A 
ATOM      6  C   UNL     1      61.285  63.357  68.902  0.00  0.00    +0.000 A 
ATOM      7  C   UNL     1      61.077  62.983  68.197  0.00  0.00    +0.000 A 
ATOM      8  C   UNL     1      60.692  62.253  68.216  0.00  0.00    +0.000 A 
ATOM      9  C   UNL     1      60.515  61.898  68.940  0.00  0.00    +0.000 A 
ATOM     10  C   UNL     1      60.724  62.272  69.644  0.00  0.00    +0.000 A 
ATOM     11  C   UNL     1      61.605  63.908  70.723  0.00  0.00    +0.000 C 
ATOM     12  O   UNL     1      61.906  64.492  70.223  0.00  0.00    +0.000 OA
ATOM     13  C   UNL     1      61.664  63.996  71.541  0.00  0.00    +0.000 C 
ATOM     14  C   UNL     1      62.024  64.667  71.861  0.00  0.00    +0.000 C 
ATOM     15  N   UNL     1      62.324  65.250  71.361  0.00  0.00    +0.000 N 
ATOM     16  C   UNL     1      62.305  65.239  70.536  0.00  0.00    +0.000 A 
ATOM     17  C   UNL     1      62.666  65.929  70.264  0.00  0.00    +0.000 A 
ATOM     18  N   UNL     1      62.907  66.367  70.920  0.00  0.00    +0.000 NA
ATOM     19  C   UNL     1      62.696  65.947  71.597  0.00  0.00    +0.000 A 
ATOM     20  C   UNL     1      62.833  66.183  72.376  0.00  0.00    +0.000 C 
ATOM     21  C   UNL     1      61.363  63.412  72.041  0.00  0.00    +0.000 C 
ATOM     22  C   UNL     1      61.004  62.741  71.722  0.00  0.00    +0.000 C 
ENDROOT
TORSDOF 0
ENDMDL
MODEL 7
REMARK VINA RESULT:   -10.046      4.628      6.463
REMARK INTER + INTRA:         -10.046
REMARK INTER:                 -10.046
REMARK INTRA:                   0.000
REMARK UNBOUND:                 0.000
ROOT
REMARK  Name = ondansetron
REMARK                            x       y       z     vdW  Elec       q    Type
REMARK                         _______ _______ _______ _____ _____    ______ ____
ATOM      1  C   UNL     1      64.389  67.669  72.097  0.00  0.00    +0.000 C 
ATOM      2  N   UNL     1      64.135  66.980  71.717  0.00  0.00    +0.000 N 
ATOM      3  C   UNL     1      63.522  66.489  71.965  0.00  0.00    +0.000 A 
ATOM      4  C   UNL     1      63.458  65.868  71.425  0.00  0.00    +0.000 A 
ATOM      5  C   UNL     1      64.033  65.977  70.843  0.00  0.00    +0.000 A 
ATOM      6  C   UNL     1      64.229  65.539  70.172  0.00  0.00    +0.000 A 
ATOM      7  C   UNL     1      64.844  65.788  69.681  0.00  0.00    +0.000 A 
ATOM      8  C   UNL     1      65.262  66.476  69.863  0.00  0.00    +0.000 A 
ATOM      9  C   UNL     1      65.066  66.914  70.534  0.00  0.00    +0.000 A 
ATOM     10  C   UNL     1      64.452  66.665  71.024  0.00  0.00    +0.000 A 
ATOM     11  C   UNL     1      62.885  65.285  71.532  0.00  0.00    +0.000 C 
ATOM     12  O   UNL     1      62.822  64.664  70.992  0.00  0.00    +0.000 OA
ATOM     13  C   UNL     1      62.376  65.321  72.180  0.00  0.00    +0.000 C 
ATOM     14  C   UNL     1      61.802  64.737  72.288  0.00  0.00    +0.000 C 
ATOM     15  N   UNL     1      61.739  64.117  71.748  0.00  0.00    +0.000 N 
ATOM     16  C   UNL     1      62.207  64.008  71.078  0.00  0.00    +0.000 A 
ATOM     17  C   UNL     1      61.954  63.321  70.699  0.00  0.00    +0.000 A 
ATOM     18  N   UNL     1      61.329  63.005  71.135  0.00  0.00    +0.000 NA
ATOM     19  C   UNL     1      61.197  63.497  71.783  0.00  0.00    +0.000 A 
ATOM     20  C   UNL     1      60.622  63.388  72.365  0.00  0.00    +0.000 C 
ATOM     21  C   UNL     1      62.439  65.941  72.721  0.00  0.00    +0.000 C 
ATOM     22  C   UNL     1      63.012  66.525  72.613  0.00  0.00    +0.000 C 
ENDROOT
TORSDOF 0
ENDMDL
MODEL 8
REMARK VINA RESULT:    -9.956      2.366      5.597
REMARK INTER + INTRA:          -9.956
REMARK INTER:                  -9.956
REMARK INTRA:                   0.000
REMARK UNBOUND:                 0.000
ROOT
REMARK  Name = ondansetron
REMARK                            x       y       z     vdW  Elec       q    Type
REMARK                         _______ _______ _______ _____ _____    ______ ____
ATOM      1  C   UNL     1      59.429  66.962  70.962  0.00  0.00    +0.000 C 
ATOM      2  N   UNL     1      59.616  66.159  71.008  0.00  0.00    +0.000 N 
ATOM      3  C   UNL     1      59.741  65.654  70.370  0.00  0.00    +0.000 A 
ATOM      4  C   UNL     1      59.914  64.904  70.668  0.00  0.00    +0.000 A 
ATOM      5  C   UNL     1      59.895  64.947  71.492  0.00  0.00    +0.000 A 
ATOM      6  C   UNL     1      60.021  64.380  72.077  0.00  0.00    +0.000 A 
ATOM      7  C   UNL     1      59.964  64.588  72.873  0.00  0.00    +0.000 A 
ATOM      8  C   UNL     1      59.780  65.365  73.083  0.00  0.00    +0.000 A 
ATOM      9  C   UNL     1      59.654  65.932  72.497  0.00  0.00    +0.000 A 
ATOM     10  C   UNL     1      59.711  65.724  71.702  0.00  0.00    +0.000 A 
ATOM     11  C   UNL     1      60.065  64.279  70.152  0.00  0.00    +0.000 C 
ATOM     12  O   UNL     1      60.238  63.529  70.450  0.00  0.00    +0.000 OA
ATOM     13  C   UNL     1      60.045  64.403  69.336  0.00  0.00    +0.000 C 
ATOM     14  C   UNL     1      60.197  63.778  68.819  0.00  0.00    +0.000 C 
ATOM     15  N   UNL     1      60.369  63.029  69.117  0.00  0.00    +0.000 N 
ATOM     16  C   UNL     1      60.409  62.822  69.915  0.00  0.00    +0.000 A 
ATOM     17  C   UNL     1      60.596  62.020  69.961  0.00  0.00    +0.000 A 
ATOM     18  N   UNL     1      60.672  61.731  69.192  0.00  0.00    +0.000 NA
ATOM     19  C   UNL     1      60.531  62.354  68.671  0.00  0.00    +0.000 A 
ATOM     20  C   UNL     1      60.550  62.311  67.848  0.00  0.00    +0.000 C 
ATOM     21  C   UNL     1      59.873  65.153  69.038  0.00  0.00    +0.000 C 
ATOM     22  C   UNL     1      59.721  65.778  69.554  0.00  0.00    +0.000 C 
ENDROOT
TORSDOF 0
ENDMDL
MODEL 9
REMARK VINA RESULT:    -9.816      4.748      6.091
REMARK INTER + INTRA:          -9.816
REMARK INTER:                  -9.816
REMARK INTRA:                   0.000
REMARK UNBOUND:                 0.000
ROOT
REMARK  Name = ondansetron
REMARK                            x       y       z     vdW  Elec       q    Type
REMARK                         _______ _______ _______ _____ _____    ______ ____
ATOM      1  C   UNL     1      64.994  65.164  69.469  0.00  0.00    +0.000 C 
ATOM      2  N   UNL     1      64.471  65.337  70.084  0.00  0.00    +0.000 N 
ATOM      3  C   UNL     1      63.782  64.922  70.265  0.00  0.00    +0.000 A 
ATOM      4  C   UNL     1      63.431  65.283  70.919  0.00  0.00    +0.000 A 
ATOM      5  C   UNL     1      63.904  65.922  71.141  0.00  0.00    +0.000 A 
ATOM      6  C   UNL     1      63.832  66.478  71.746  0.00  0.00    +0.000 A 
ATOM      7  C   UNL     1      64.402  67.067  71.837  0.00  0.00    +0.000 A 
ATOM      8  C   UNL     1      65.045  67.099  71.320  0.00  0.00    +0.000 A 
ATOM      9  C   UNL     1      65.117  66.543  70.715  0.00  0.00    +0.000 A 
ATOM     10  C   UNL     1      64.547  65.955  70.625  0.00  0.00    +0.000 A 
ATOM     11  C   UNL     1      62.727  64.984  71.227  0.00  0.00    +0.000 C 
ATOM     12  O   UNL     1      62.376  65.346  71.880  0.00  0.00    +0.000 OA
ATOM     13  C   UNL     1      62.373  64.324  70.882  0.00  0.00    +0.000 C 
ATOM     14  C   UNL     1      61.668  64.024  71.190  0.00  0.00    +0.000 C 
ATOM     15  N   UNL     1      61.317  64.386  71.842  0.00  0.00    +0.000 N 
ATOM     16  C   UNL     1      61.606  65.047  72.244  0.00  0.00    +0.000 A 
ATOM     17  C   UNL     1      61.083  65.219  72.859  0.00  0.00    +0.000 A 
ATOM     18  N   UNL     1      60.472  64.665  72.837  0.00  0.00    +0.000 NA
ATOM     19  C   UNL     1      60.617  64.151  72.210  0.00  0.00    +0.000 A 
ATOM     20  C   UNL     1      60.145  63.512  71.987  0.00  0.00    +0.000 C 
ATOM     21  C   UNL     1      62.724  63.962  70.228  0.00  0.00    +0.000 C 
ATOM     22  C   UNL     1      63.428  64.261  69.920  0.00  0.00    +0.000 C 
ENDROOT
TORSDOF 0
ENDMDL
