MODEL 1
REMARK VINA RESULT:   -12.843      0.000      0.000
REMARK INTER + INTRA:         -12.843
REMARK INTER:                 -12.843
REMARK INTRA:                   0.000
REMARK UNBOUND:                 0.000
ROOT
REMARK  Name = opipramol
REMARK                            x       y       z     vdW  Elec       q    Type
REMARK                         _______ _______ _______ _____ _____    ______ ____
ATOM      1  O   UNL     1      65.890  67.227  72.299  0.00  0.00    +0.000 OA
ATOM      2  C   UNL     1      65.366  66.730  71.898  0.00  0.00    +0.000 C 
ATOM      3  C   UNL     1      65.395  66.680  71.075  0.00  0.00    +0.000 C 
ATOM      4  N   UNL     1      64.871  66.183  70.674  0.00  0.00    +0.000 NA
ATOM      5  C   UNL     1      64.900  66.133  69.851  0.00  0.00    +0.000 C 
ATOM      6  C   UNL     1      64.377  65.636  69.450  0.00  0.00    +0.000 C 
ATOM      7  N   UNL     1      63.825  65.190  69.872  0.00  0.00    +0.000 NA
ATOM      8  C   UNL     1      63.302  64.694  69.472  0.00  0.00    +0.000 C 
ATOM      9  C   UNL     1      62.751  64.248  69.894  0.00  0.00    +0.000 C 
ATOM     10  C   UNL     1      62.228  63.752  69.492  0.00  0.00    +0.000 C 
ATOM     11  N   UNL     1      61.676  63.306  69.915  0.00  0.00    +0.000 N 
ATOM     12  C   UNL     1      61.180  62.829  69.461  0.00  0.00    +0.000 A 
ATOM     13  C   UNL     1      61.345  62.900  68.656  0.00  0.00    +0.000 A 
ATOM     14  C   UNL     1      60.910  62.467  68.106  0.00  0.00    +0.000 A 
ATOM     15  C   UNL     1      60.309  61.962  68.359  0.00  0.00    +0.000 A 
ATOM     16  C   UNL     1      60.144  61.891  69.164  0.00  0.00    +0.000 A 
ATOM     17  C   UNL     1      60.579  62.324  69.715  0.00  0.00    +0.000 A 
ATOM     18  C   UNL     1      60.326  62.173  70.486  0.00  0.00    +0.000 C 
ATOM     19  C   UNL     1      60.612  62.489  71.193  0.00  0.00    +0.000 C 
ATOM     20  C   UNL     1      61.221  63.034  71.303  0.00  0.00    +0.000 A 
ATOM     21  C   UNL     1      61.695  63.398  70.735  0.00  0.00    +0.000 A 
ATOM     22  C   UNL     1      62.279  63.932  70.965  0.00  0.00    +0.000 A 
ATOM     23  C   UNL     1      62.390  64.103  71.765  0.00  0.00    +0.000 A 
ATOM     24  C   UNL     1      61.916  63.739  72.333  0.00  0.00    +0.000 A 
ATOM     25  C   UNL     1      61.332  63.205  72.103  0.00  0.00    +0.000 A 
ATOM     26  C   UNL     1      63.797  65.241  70.696  0.00  0.00    +0.000 C 
ATOM     27  C   UNL     1      64.320  65.737  71.096  0.00  0.00    +0.000 C 
ENDROOT
TORSDOF 0
ENDMDL
MODEL 2
REMARK VINA RESULT:   -12.619      2.573      4.656
REMARK INTER + INTRA:         -12.619
REMARK INTER:                 -12.619
REMARK INTRA:                   0.000
REMARK UNBOUND:                 0.000
ROOT
REMARK  Name = opipramol
REMARK                            x       y       z     vdW  Elec       q    Type
REMARK                         _______ _______ _______ _____ _____    ______ ____
ATOM      1  O   UNL     1      62.346  62.250  64.882  0.00  0.00    +0.000 OA
ATOM      2  C   UNL     1      62.079  62.472  65.631  0.00  0.00    +0.000 C 
ATOM      3  C   UNL     1      61.285  62.374  65.830  0.00  0.00    +0.000 C 
ATOM      4  N   UNL     1      61.017  62.596  66.579  0.00  0.00    +0.000 NA
ATOM      5  C   UNL     1      60.223  62.497  66.779  0.00  0.00    +0.000 C 
ATOM      6  C   UNL     1      59.956  62.719  67.528  0.00  0.00    +0.000 C 
ATOM      7  N   UNL     1      60.483  63.039  68.076  0.00  0.00    +0.000 NA
ATOM      8  C   UNL     1      60.216  63.261  68.824  0.00  0.00    +0.000 C 
ATOM      9  C   UNL     1      60.743  63.582  69.372  0.00  0.00    +0.000 C 
ATOM     10  C   UNL     1      60.475  63.804  70.120  0.00  0.00    +0.000 C 
ATOM     11  N   UNL     1      61.002  64.124  70.668  0.00  0.00    +0.000 N 
ATOM     12  C   UNL     1      60.678  64.327  71.399  0.00  0.00    +0.000 A 
ATOM     13  C   UNL     1      59.870  64.162  71.428  0.00  0.00    +0.000 A 
ATOM     14  C   UNL     1      59.440  64.324  72.113  0.00  0.00    +0.000 A 
ATOM     15  C   UNL     1      59.817  64.652  72.769  0.00  0.00    +0.000 A 
ATOM     16  C   UNL     1      60.625  64.818  72.740  0.00  0.00    +0.000 A 
ATOM     17  C   UNL     1      61.055  64.656  72.056  0.00  0.00    +0.000 A 
ATOM     18  C   UNL     1      61.849  64.862  72.142  0.00  0.00    +0.000 C 
ATOM     19  C   UNL     1      62.462  64.791  71.595  0.00  0.00    +0.000 C 
ATOM     20  C   UNL     1      62.432  64.496  70.825  0.00  0.00    +0.000 A 
ATOM     21  C   UNL     1      61.783  64.199  70.412  0.00  0.00    +0.000 A 
ATOM     22  C   UNL     1      61.873  63.929  69.639  0.00  0.00    +0.000 A 
ATOM     23  C   UNL     1      62.615  63.955  69.276  0.00  0.00    +0.000 A 
ATOM     24  C   UNL     1      63.264  64.252  69.689  0.00  0.00    +0.000 A 
ATOM     25  C   UNL     1      63.174  64.522  70.463  0.00  0.00    +0.000 A 
ATOM     26  C   UNL     1      61.278  63.138  67.875  0.00  0.00    +0.000 C 
ATOM     27  C   UNL     1      61.544  62.916  67.127  0.00  0.00    +0.000 C 
ENDROOT
TORSDOF 0
ENDMDL
MODEL 3
REMARK VINA RESULT:   -12.115      2.774      5.224
REMARK INTER + INTRA:         -12.115
REMARK INTER:                 -12.115
REMARK INTRA:                   0.000
REMARK UNBOUND:                 0.000
ROOT
REMARK  Name = opipramol
REMARK                            x       y       z     vdW  Elec       q    Type
REMARK                         _______ _______ _______ _____ _____    ______ ____
ATOM      1  O   UNL     1      57.688  64.985  72.852  0.00  0.00    +0.000 OA
ATOM      2  C   UNL     1      58.467  65.219  72.710  0.00  0.00    +0.000 C 
ATOM      3  C   UNL     1      58.750  65.923  73.032  0.00  0.00    +0.000 C 
ATOM      4  N   UNL     1      59.529  66.158  72.890  0.00  0.00    +0.000 NA
ATOM      5  C   UNL     1      59.813  66.862  73.212  0.00  0.00    +0.000 C 
ATOM      6  C   UNL     1      60.591  67.096  73.069  0.00  0.00    +0.000 C 
ATOM      7  N   UNL     1      61.085  66.626  72.605  0.00  0.00    +0.000 NA
ATOM      8  C   UNL     1      61.864  66.860  72.462  0.00  0.00    +0.000 C 
ATOM      9  C   UNL     1      62.358  66.390  71.998  0.00  0.00    +0.000 C 
ATOM     10  C   UNL     1      63.136  66.625  71.856  0.00  0.00    +0.000 C 
ATOM     11  N   UNL     1      63.630  66.155  71.392  0.00  0.00    +0.000 N 
ATOM     12  C   UNL     1      64.396  66.439  71.284  0.00  0.00    +0.000 A 
ATOM     13  C   UNL     1      64.510  67.156  71.676  0.00  0.00    +0.000 A 
ATOM     14  C   UNL     1      65.242  67.535  71.638  0.00  0.00    +0.000 A 
ATOM     15  C   UNL     1      65.860  67.198  71.209  0.00  0.00    +0.000 A 
ATOM     16  C   UNL     1      65.746  66.481  70.817  0.00  0.00    +0.000 A 
ATOM     17  C   UNL     1      65.015  66.101  70.855  0.00  0.00    +0.000 A 
ATOM     18  C   UNL     1      65.018  65.396  70.427  0.00  0.00    +0.000 C 
ATOM     19  C   UNL     1      64.405  64.854  70.323  0.00  0.00    +0.000 C 
ATOM     20  C   UNL     1      63.636  64.884  70.621  0.00  0.00    +0.000 A 
ATOM     21  C   UNL     1      63.291  65.462  71.097  0.00  0.00    +0.000 A 
ATOM     22  C   UNL     1      62.506  65.385  71.337  0.00  0.00    +0.000 A 
ATOM     23  C   UNL     1      62.065  64.728  71.101  0.00  0.00    +0.000 A 
ATOM     24  C   UNL     1      62.411  64.150  70.625  0.00  0.00    +0.000 A 
ATOM     25  C   UNL     1      63.195  64.227  70.385  0.00  0.00    +0.000 A 
ATOM     26  C   UNL     1      60.801  65.921  72.283  0.00  0.00    +0.000 C 
ATOM     27  C   UNL     1      60.023  65.688  72.425  0.00  0.00    +0.000 C 
ENDROOT
TORSDOF 0
ENDMDL
MODEL 4
REMARK VINA RESULT:   -11.728      1.730      2.650
REMARK INTER + INTRA:         -11.728
REMARK INTER:                 -11.728
REMARK INTRA:                   0.000
REMARK UNBOUND:                 0.000
ROOT
REMARK  Name = opipramol
REMARK                            x       y       z     vdW  Elec       q    Type
REMARK                         _______ _______ _______ _____ _____    ______ ____
ATOM      1  O   UNL     1      66.711  68.391  69.412  0.00  0.00    +0.000 OA
ATOM      2  C   UNL     1      66.124  67.886  69.701  0.00  0.00    +0.000 C 
ATOM      3  C   UNL     1      66.257  67.453  70.391  0.00  0.00    +0.000 C 
ATOM      4  N   UNL     1      65.671  66.948  70.679  0.00  0.00    +0.000 NA
ATOM      5  C   UNL     1      65.803  66.516  71.369  0.00  0.00    +0.000 C 
ATOM      6  C   UNL     1      65.217  66.011  71.658  0.00  0.00    +0.000 C 
ATOM      7  N   UNL     1      64.500  65.939  71.256  0.00  0.00    +0.000 NA
ATOM      8  C   UNL     1      63.914  65.435  71.544  0.00  0.00    +0.000 C 
ATOM      9  C   UNL     1      63.196  65.363  71.143  0.00  0.00    +0.000 C 
ATOM     10  C   UNL     1      62.611  64.859  71.432  0.00  0.00    +0.000 C 
ATOM     11  N   UNL     1      61.894  64.787  71.031  0.00  0.00    +0.000 N 
ATOM     12  C   UNL     1      61.347  64.268  71.365  0.00  0.00    +0.000 A 
ATOM     13  C   UNL     1      61.642  63.920  72.053  0.00  0.00    +0.000 A 
ATOM     14  C   UNL     1      61.181  63.382  72.474  0.00  0.00    +0.000 A 
ATOM     15  C   UNL     1      60.423  63.192  72.209  0.00  0.00    +0.000 A 
ATOM     16  C   UNL     1      60.128  63.540  71.522  0.00  0.00    +0.000 A 
ATOM     17  C   UNL     1      60.589  64.078  71.100  0.00  0.00    +0.000 A 
ATOM     18  C   UNL     1      60.192  64.360  70.434  0.00  0.00    +0.000 C 
ATOM     19  C   UNL     1      60.454  64.901  69.869  0.00  0.00    +0.000 C 
ATOM     20  C   UNL     1      61.178  65.294  69.831  0.00  0.00    +0.000 A 
ATOM     21  C   UNL     1      61.819  65.244  70.347  0.00  0.00    +0.000 A 
ATOM     22  C   UNL     1      62.499  65.689  70.207  0.00  0.00    +0.000 A 
ATOM     23  C   UNL     1      62.538  66.185  69.548  0.00  0.00    +0.000 A 
ATOM     24  C   UNL     1      61.897  66.236  69.032  0.00  0.00    +0.000 A 
ATOM     25  C   UNL     1      61.217  65.791  69.173  0.00  0.00    +0.000 A 
ATOM     26  C   UNL     1      64.368  66.372  70.566  0.00  0.00    +0.000 C 
ATOM     27  C   UNL     1      64.953  66.877  70.278  0.00  0.00    +0.000 C 
ENDROOT
TORSDOF 0
ENDMDL
MODEL 5
REMARK VINA RESULT:   -11.585      2.672      3.645
REMARK INTER + INTRA:         -11.585
REMARK INTER:                 -11.585
REMARK INTRA:                   0.000
REMARK UNBOUND:                 0.000
ROOT
REMARK  Name = opipramol
REMARK                            x       y       z     vdW  Elec       q    Type
REMARK                         _______ _______ _______ _____ _____    ______ ____
ATOM      1  O   UNL     1      66.317  66.848  71.423  0.00  0.00    +0.000 OA
ATOM      2  C   UNL     1      65.511  66.808  71.595  0.00  0.00    +0.000 C 
ATOM      3  C   UNL     1      65.122  67.467  71.903  0.00  0.00    +0.000 C 
ATOM      4  N   UNL     1      64.315  67.427  72.075  0.00  0.00    +0.000 NA
ATOM      5  C   UNL     1      63.927  68.086  72.383  0.00  0.00    +0.000 C 
ATOM      6  C   UNL     1      63.120  68.046  72.555  0.00  0.00    +0.000 C 
ATOM      7  N   UNL     1      62.704  67.347  72.418  0.00  0.00    +0.000 NA
ATOM      8  C   UNL     1      61.898  67.306  72.590  0.00  0.00    +0.000 C 
ATOM      9  C   UNL     1      61.481  66.608  72.453  0.00  0.00    +0.000 C 
ATOM     10  C   UNL     1      60.675  66.568  72.625  0.00  0.00    +0.000 C 
ATOM     11  N   UNL     1      60.258  65.870  72.488  0.00  0.00    +0.000 N 
ATOM     12  C   UNL     1      59.456  65.888  72.679  0.00  0.00    +0.000 A 
ATOM     13  C   UNL     1      59.233  66.625  72.975  0.00  0.00    +0.000 A 
ATOM     14  C   UNL     1      58.451  66.761  73.199  0.00  0.00    +0.000 A 
ATOM     15  C   UNL     1      57.891  66.160  73.128  0.00  0.00    +0.000 A 
ATOM     16  C   UNL     1      58.114  65.422  72.832  0.00  0.00    +0.000 A 
ATOM     17  C   UNL     1      58.896  65.287  72.607  0.00  0.00    +0.000 A 
ATOM     18  C   UNL     1      59.001  64.518  72.327  0.00  0.00    +0.000 C 
ATOM     19  C   UNL     1      59.691  64.160  72.050  0.00  0.00    +0.000 C 
ATOM     20  C   UNL     1      60.446  64.484  71.984  0.00  0.00    +0.000 A 
ATOM     21  C   UNL     1      60.699  65.244  72.179  0.00  0.00    +0.000 A 
ATOM     22  C   UNL     1      61.488  65.458  72.069  0.00  0.00    +0.000 A 
ATOM     23  C   UNL     1      62.025  64.910  71.764  0.00  0.00    +0.000 A 
ATOM     24  C   UNL     1      61.772  64.150  71.569  0.00  0.00    +0.000 A 
ATOM     25  C   UNL     1      60.983  63.936  71.679  0.00  0.00    +0.000 A 
ATOM     26  C   UNL     1      63.093  66.687  72.109  0.00  0.00    +0.000 C 
ATOM     27  C   UNL     1      63.899  66.728  71.938  0.00  0.00    +0.000 C 
ENDROOT
TORSDOF 0
ENDMDL
MODEL 6
REMARK VINA RESULT:   -11.287      2.194      3.045
REMARK INTER + INTRA:         -11.287
REMARK INTER:                 -11.287
REMARK INTRA:                   0.000
REMARK UNBOUND:                 0.000
ROOT
REMARK  Name = opipramol
REMARK                            x       y       z     vdW  Elec       q    Type
REMARK                         _______ _______ _______ _____ _____    ______ ____
ATOM      1  O   UNL     1      66.646  67.834  70.323  0.00  0.00    +0.000 OA
ATOM      2  C   UNL     1      65.930  67.454  70.478  0.00  0.00    +0.000 C 
ATOM      3  C   UNL     1      65.745  66.749  70.092  0.00  0.00    +0.000 C 
ATOM      4  N   UNL     1      65.029  66.369  70.247  0.00  0.00    +0.000 NA
ATOM      5  C   UNL     1      64.845  65.664  69.860  0.00  0.00    +0.000 C 
ATOM      6  C   UNL     1      64.128  65.284  70.015  0.00  0.00    +0.000 C 
ATOM      7  N   UNL     1      63.597  65.609  70.557  0.00  0.00    +0.000 NA
ATOM      8  C   UNL     1      62.881  65.230  70.712  0.00  0.00    +0.000 C 
ATOM      9  C   UNL     1      62.350  65.555  71.253  0.00  0.00    +0.000 C 
ATOM     10  C   UNL     1      61.635  65.175  71.408  0.00  0.00    +0.000 C 
ATOM     11  N   UNL     1      61.104  65.500  71.949  0.00  0.00    +0.000 N 
ATOM     12  C   UNL     1      60.405  65.077  72.063  0.00  0.00    +0.000 A 
ATOM     13  C   UNL     1      60.385  64.396  71.597  0.00  0.00    +0.000 A 
ATOM     14  C   UNL     1      59.732  63.894  71.629  0.00  0.00    +0.000 A 
ATOM     15  C   UNL     1      59.098  64.071  72.127  0.00  0.00    +0.000 A 
ATOM     16  C   UNL     1      59.119  64.752  72.593  0.00  0.00    +0.000 A 
ATOM     17  C   UNL     1      59.772  65.254  72.561  0.00  0.00    +0.000 A 
ATOM     18  C   UNL     1      59.681  65.900  73.067  0.00  0.00    +0.000 C 
ATOM     19  C   UNL     1      60.201  66.526  73.201  0.00  0.00    +0.000 C 
ATOM     20  C   UNL     1      60.940  66.662  72.861  0.00  0.00    +0.000 A 
ATOM     21  C   UNL     1      61.342  66.206  72.304  0.00  0.00    +0.000 A 
ATOM     22  C   UNL     1      62.084  66.444  72.034  0.00  0.00    +0.000 A 
ATOM     23  C   UNL     1      62.425  67.138  72.321  0.00  0.00    +0.000 A 
ATOM     24  C   UNL     1      62.023  67.594  72.878  0.00  0.00    +0.000 A 
ATOM     25  C   UNL     1      61.281  67.357  73.148  0.00  0.00    +0.000 A 
ATOM     26  C   UNL     1      63.782  66.315  70.943  0.00  0.00    +0.000 C 
ATOM     27  C   UNL     1      64.498  66.694  70.788  0.00  0.00    +0.000 C 
ENDROOT
TORSDOF 0
ENDMDL
MODEL 7
REMARK VINA RESULT:   -10.825      1.972      2.714
REMARK INTER + INTRA:         -10.825
REMARK INTER:                 -10.825
REMARK INTRA:                   0.000
REMARK UNBOUND:                 0.000
ROOT
REMARK  Name = opipramol
REMARK                            x       y       z     vdW  Elec       q    Type
REMARK                         _______ _______ _______ _____ _____    ______ ____
ATOM      1  O   UNL     1      62.910  69.128  72.594  0.00  0.00    +0.000 OA
ATOM      2  C   UNL     1      62.674  68.370  72.365  0.00  0.00    +0.000 C 
ATOM      3  C   UNL     1      62.706  67.748  72.906  0.00  0.00    +0.000 C 
ATOM      4  N   UNL     1      62.471  66.990  72.677  0.00  0.00    +0.000 NA
ATOM      5  C   UNL     1      62.503  66.368  73.218  0.00  0.00    +0.000 C 
ATOM      6  C   UNL     1      62.268  65.611  72.989  0.00  0.00    +0.000 C 
ATOM      7  N   UNL     1      62.000  65.476  72.221  0.00  0.00    +0.000 NA
ATOM      8  C   UNL     1      61.765  64.720  71.992  0.00  0.00    +0.000 C 
ATOM      9  C   UNL     1      61.497  64.585  71.223  0.00  0.00    +0.000 C 
ATOM     10  C   UNL     1      61.262  63.828  70.995  0.00  0.00    +0.000 C 
ATOM     11  N   UNL     1      60.995  63.693  70.226  0.00  0.00    +0.000 N 
ATOM     12  C   UNL     1      60.773  62.918  70.055  0.00  0.00    +0.000 A 
ATOM     13  C   UNL     1      60.869  62.425  70.710  0.00  0.00    +0.000 A 
ATOM     14  C   UNL     1      60.678  61.624  70.655  0.00  0.00    +0.000 A 
ATOM     15  C   UNL     1      60.391  61.316  69.946  0.00  0.00    +0.000 A 
ATOM     16  C   UNL     1      60.295  61.809  69.291  0.00  0.00    +0.000 A 
ATOM     17  C   UNL     1      60.486  62.609  69.346  0.00  0.00    +0.000 A 
ATOM     18  C   UNL     1      60.350  63.001  68.632  0.00  0.00    +0.000 C 
ATOM     19  C   UNL     1      60.467  63.798  68.452  0.00  0.00    +0.000 C 
ATOM     20  C   UNL     1      60.750  64.399  68.941  0.00  0.00    +0.000 A 
ATOM     21  C   UNL     1      60.984  64.353  69.730  0.00  0.00    +0.000 A 
ATOM     22  C   UNL     1      61.252  65.028  70.121  0.00  0.00    +0.000 A 
ATOM     23  C   UNL     1      61.285  65.750  69.722  0.00  0.00    +0.000 A 
ATOM     24  C   UNL     1      61.051  65.796  68.933  0.00  0.00    +0.000 A 
ATOM     25  C   UNL     1      60.783  65.121  68.542  0.00  0.00    +0.000 A 
ATOM     26  C   UNL     1      61.968  66.099  71.680  0.00  0.00    +0.000 C 
ATOM     27  C   UNL     1      62.203  66.856  71.909  0.00  0.00    +0.000 C 
ENDROOT
TORSDOF 0
ENDMDL
MODEL 8
REMARK VINA RESULT:   -10.274     24.778     27.039
REMARK INTER + INTRA:         -10.274
REMARK INTER:                 -10.274
REMARK INTRA:                   0.000
REMARK UNBOUND:                 0.000
ROOT
REMARK  Name = opipramol
REMARK                            x       y       z     vdW  Elec       q    Type
REMARK                         _______ _______ _______ _____ _____    ______ ____
ATOM      1  O   UNL     1      67.624  81.131  54.751  0.00  0.00    +0.000 OA
ATOM      2  C   UNL     1      68.176  81.111  54.137  0.00  0.00    +0.000 C 
ATOM      3  C   UNL     1      68.785  81.667  54.112  0.00  0.00    +0.000 C 
ATOM      4  N   UNL     1      69.336  81.647  53.498  0.00  0.00    +0.000 NA
ATOM      5  C   UNL     1      69.945  82.203  53.473  0.00  0.00    +0.000 C 
ATOM      6  C   UNL     1      70.496  82.183  52.859  0.00  0.00    +0.000 C 
ATOM      7  N   UNL     1      70.438  81.608  52.271  0.00  0.00    +0.000 NA
ATOM      8  C   UNL     1      70.989  81.588  51.657  0.00  0.00    +0.000 C 
ATOM      9  C   UNL     1      70.931  81.012  51.069  0.00  0.00    +0.000 C 
ATOM     10  C   UNL     1      71.482  80.993  50.455  0.00  0.00    +0.000 C 
ATOM     11  N   UNL     1      71.424  80.418  49.867  0.00  0.00    +0.000 N 
ATOM     12  C   UNL     1      72.002  80.447  49.279  0.00  0.00    +0.000 A 
ATOM     13  C   UNL     1      72.533  81.065  49.409  0.00  0.00    +0.000 A 
ATOM     14  C   UNL     1      73.156  81.191  48.883  0.00  0.00    +0.000 A 
ATOM     15  C   UNL     1      73.249  80.699  48.228  0.00  0.00    +0.000 A 
ATOM     16  C   UNL     1      72.718  80.081  48.098  0.00  0.00    +0.000 A 
ATOM     17  C   UNL     1      72.095  79.955  48.624  0.00  0.00    +0.000 A 
ATOM     18  C   UNL     1      71.632  79.312  48.394  0.00  0.00    +0.000 C 
ATOM     19  C   UNL     1      70.962  79.002  48.763  0.00  0.00    +0.000 C 
ATOM     20  C   UNL     1      70.590  79.259  49.453  0.00  0.00    +0.000 A 
ATOM     21  C   UNL     1      70.795  79.889  49.944  0.00  0.00    +0.000 A 
ATOM     22  C   UNL     1      70.344  80.054  50.614  0.00  0.00    +0.000 A 
ATOM     23  C   UNL     1      69.686  79.588  50.794  0.00  0.00    +0.000 A 
ATOM     24  C   UNL     1      69.481  78.959  50.303  0.00  0.00    +0.000 A 
ATOM     25  C   UNL     1      69.932  78.794  49.632  0.00  0.00    +0.000 A 
ATOM     26  C   UNL     1      69.829  81.052  52.296  0.00  0.00    +0.000 C 
ATOM     27  C   UNL     1      69.278  81.072  52.910  0.00  0.00    +0.000 C 
ENDROOT
TORSDOF 0
ENDMDL
MODEL 9
REMARK VINA RESULT:   -10.175     15.416     17.016
REMARK INTER + INTRA:         -10.175
REMARK INTER:                 -10.175
REMARK INTRA:                   0.000
REMARK UNBOUND:                 0.000
ROOT
REMARK  Name = opipramol
REMARK                            x       y       z     vdW  Elec       q    Type
REMARK                         _______ _______ _______ _____ _____    ______ ____
ATOM      1  O   UNL     1      63.190  62.380  54.167  0.00  0.00    +0.000 OA
ATOM      2  C   UNL     1      62.901  63.151  54.104  0.00  0.00    +0.000 C 
ATOM      3  C   UNL     1      62.363  63.341  53.509  0.00  0.00    +0.000 C 
ATOM      4  N   UNL     1      62.074  64.112  53.446  0.00  0.00    +0.000 NA
ATOM      5  C   UNL     1      61.535  64.302  52.851  0.00  0.00    +0.000 C 
ATOM      6  C   UNL     1      61.246  65.073  52.788  0.00  0.00    +0.000 C 
ATOM      7  N   UNL     1      61.496  65.653  53.319  0.00  0.00    +0.000 NA
ATOM      8  C   UNL     1      61.208  66.423  53.257  0.00  0.00    +0.000 C 
ATOM      9  C   UNL     1      61.458  67.002  53.788  0.00  0.00    +0.000 C 
ATOM     10  C   UNL     1      61.168  67.772  53.724  0.00  0.00    +0.000 C 
ATOM     11  N   UNL     1      61.418  68.352  54.256  0.00  0.00    +0.000 N 
ATOM     12  C   UNL     1      61.096  69.103  54.144  0.00  0.00    +0.000 A 
ATOM     13  C   UNL     1      60.576  69.116  53.504  0.00  0.00    +0.000 A 
ATOM     14  C   UNL     1      60.193  69.816  53.298  0.00  0.00    +0.000 A 
ATOM     15  C   UNL     1      60.330  70.505  53.731  0.00  0.00    +0.000 A 
ATOM     16  C   UNL     1      60.851  70.492  54.371  0.00  0.00    +0.000 A 
ATOM     17  C   UNL     1      61.233  69.791  54.578  0.00  0.00    +0.000 A 
ATOM     18  C   UNL     1      61.727  69.897  55.231  0.00  0.00    +0.000 C 
ATOM     19  C   UNL     1      62.205  69.343  55.611  0.00  0.00    +0.000 C 
ATOM     20  C   UNL     1      62.307  68.544  55.432  0.00  0.00    +0.000 A 
ATOM     21  C   UNL     1      61.958  68.103  54.829  0.00  0.00    +0.000 A 
ATOM     22  C   UNL     1      62.138  67.302  54.746  0.00  0.00    +0.000 A 
ATOM     23  C   UNL     1      62.668  66.942  55.266  0.00  0.00    +0.000 A 
ATOM     24  C   UNL     1      63.018  67.384  55.868  0.00  0.00    +0.000 A 
ATOM     25  C   UNL     1      62.838  68.184  55.952  0.00  0.00    +0.000 A 
ATOM     26  C   UNL     1      62.035  65.462  53.915  0.00  0.00    +0.000 C 
ATOM     27  C   UNL     1      62.324  64.691  53.978  0.00  0.00    +0.000 C 
ENDROOT
TORSDOF 0
ENDMDL
