MODEL 1
REMARK VINA RESULT:   -15.794      0.000      0.000
REMARK INTER + INTRA:         -15.794
REMARK INTER:                 -15.794
REMARK INTRA:                   0.000
REMARK UNBOUND:                 0.000
ROOT
REMARK  Name = orlistat
REMARK                            x       y       z     vdW  Elec       q    Type
REMARK                         _______ _______ _______ _____ _____    ______ ____
ATOM      1  C   UNL     1      67.212  66.948  72.185  0.00  0.00    +0.000 C 
ATOM      2  C   UNL     1      66.416  66.746  72.097  0.00  0.00    +0.000 C 
ATOM      3  C   UNL     1      66.170  66.315  71.438  0.00  0.00    +0.000 C 
ATOM      4  C   UNL     1      65.375  66.114  71.350  0.00  0.00    +0.000 C 
ATOM      5  C   UNL     1      65.129  65.683  70.691  0.00  0.00    +0.000 C 
ATOM      6  C   UNL     1      64.334  65.482  70.603  0.00  0.00    +0.000 C 
ATOM      7  C   UNL     1      64.088  65.051  69.944  0.00  0.00    +0.000 C 
ATOM      8  C   UNL     1      63.292  64.850  69.856  0.00  0.00    +0.000 C 
ATOM      9  C   UNL     1      63.046  64.419  69.197  0.00  0.00    +0.000 C 
ATOM     10  C   UNL     1      62.251  64.218  69.109  0.00  0.00    +0.000 C 
ATOM     11  C   UNL     1      62.006  63.787  68.450  0.00  0.00    +0.000 C 
ATOM     12  C   UNL     1      61.210  63.585  68.361  0.00  0.00    +0.000 C 
ATOM     13  C   UNL     1      60.661  63.815  68.933  0.00  0.00    +0.000 C 
ATOM     14  C   UNL     1      60.907  64.246  69.592  0.00  0.00    +0.000 C 
ATOM     15  O   UNL     1      61.630  64.540  69.861  0.00  0.00    +0.000 OA
ATOM     16  C   UNL     1      61.255  64.856  70.524  0.00  0.00    +0.000 C 
ATOM     17  O   UNL     1      61.501  65.287  71.183  0.00  0.00    +0.000 OA
ATOM     18  C   UNL     1      60.531  64.563  70.255  0.00  0.00    +0.000 C 
ATOM     19  C   UNL     1      59.756  64.579  70.534  0.00  0.00    +0.000 C 
ATOM     20  C   UNL     1      59.581  64.961  71.244  0.00  0.00    +0.000 C 
ATOM     21  C   UNL     1      58.805  64.977  71.524  0.00  0.00    +0.000 C 
ATOM     22  C   UNL     1      58.630  65.359  72.233  0.00  0.00    +0.000 C 
ATOM     23  C   UNL     1      57.853  65.375  72.513  0.00  0.00    +0.000 C 
ATOM     24  C   UNL     1      57.678  65.757  73.222  0.00  0.00    +0.000 C 
ATOM     25  O   UNL     1      60.965  63.155  67.703  0.00  0.00    +0.000 OA
ATOM     26  C   UNL     1      61.513  62.925  67.132  0.00  0.00    +0.000 C 
ATOM     27  O   UNL     1      62.309  63.126  67.220  0.00  0.00    +0.000 OA
ATOM     28  C   UNL     1      61.268  62.494  66.472  0.00  0.00    +0.000 C 
ATOM     29  C   UNL     1      60.472  62.293  66.385  0.00  0.00    +0.000 C 
ATOM     30  C   UNL     1      59.923  62.523  66.956  0.00  0.00    +0.000 C 
ATOM     31  C   UNL     1      60.169  62.954  67.615  0.00  0.00    +0.000 C 
ATOM     32  C   UNL     1      59.128  62.322  66.868  0.00  0.00    +0.000 C 
ATOM     33  N   UNL     1      61.816  62.264  65.901  0.00  0.00    +0.000 NA
ATOM     34  C   UNL     1      61.570  61.833  65.242  0.00  0.00    +0.000 C 
ATOM     35  O   UNL     1      60.775  61.632  65.154  0.00  0.00    +0.000 OA
ENDROOT
TORSDOF 0
ENDMDL
MODEL 2
REMARK VINA RESULT:   -13.563      3.792      5.423
REMARK INTER + INTRA:         -13.563
REMARK INTER:                 -13.563
REMARK INTRA:                   0.000
REMARK UNBOUND:                 0.000
ROOT
REMARK  Name = orlistat
REMARK                            x       y       z     vdW  Elec       q    Type
REMARK                         _______ _______ _______ _____ _____    ______ ____
ATOM      1  C   UNL     1      67.509  67.906  69.851  0.00  0.00    +0.000 C 
ATOM      2  C   UNL     1      66.935  67.356  70.071  0.00  0.00    +0.000 C 
ATOM      3  C   UNL     1      66.184  67.612  70.297  0.00  0.00    +0.000 C 
ATOM      4  C   UNL     1      65.610  67.062  70.518  0.00  0.00    +0.000 C 
ATOM      5  C   UNL     1      64.859  67.318  70.744  0.00  0.00    +0.000 C 
ATOM      6  C   UNL     1      64.285  66.768  70.964  0.00  0.00    +0.000 C 
ATOM      7  C   UNL     1      63.534  67.024  71.190  0.00  0.00    +0.000 C 
ATOM      8  C   UNL     1      62.960  66.473  71.410  0.00  0.00    +0.000 C 
ATOM      9  C   UNL     1      62.208  66.729  71.636  0.00  0.00    +0.000 C 
ATOM     10  C   UNL     1      61.634  66.179  71.857  0.00  0.00    +0.000 C 
ATOM     11  C   UNL     1      60.884  66.435  72.082  0.00  0.00    +0.000 C 
ATOM     12  C   UNL     1      60.309  65.885  72.303  0.00  0.00    +0.000 C 
ATOM     13  C   UNL     1      60.486  65.079  72.298  0.00  0.00    +0.000 C 
ATOM     14  C   UNL     1      61.238  64.824  72.072  0.00  0.00    +0.000 C 
ATOM     15  O   UNL     1      61.931  65.196  71.824  0.00  0.00    +0.000 OA
ATOM     16  C   UNL     1      62.300  64.462  71.752  0.00  0.00    +0.000 C 
ATOM     17  O   UNL     1      63.052  64.206  71.526  0.00  0.00    +0.000 OA
ATOM     18  C   UNL     1      61.606  64.089  72.000  0.00  0.00    +0.000 C 
ATOM     19  C   UNL     1      61.377  63.307  72.124  0.00  0.00    +0.000 C 
ATOM     20  C   UNL     1      61.914  62.694  71.990  0.00  0.00    +0.000 C 
ATOM     21  C   UNL     1      61.685  61.911  72.114  0.00  0.00    +0.000 C 
ATOM     22  C   UNL     1      62.220  61.298  71.981  0.00  0.00    +0.000 C 
ATOM     23  C   UNL     1      61.991  60.515  72.105  0.00  0.00    +0.000 C 
ATOM     24  C   UNL     1      62.527  59.902  71.972  0.00  0.00    +0.000 C 
ATOM     25  O   UNL     1      59.559  66.141  72.529  0.00  0.00    +0.000 OA
ATOM     26  C   UNL     1      59.381  66.946  72.534  0.00  0.00    +0.000 C 
ATOM     27  O   UNL     1      59.955  67.496  72.314  0.00  0.00    +0.000 OA
ATOM     28  C   UNL     1      58.630  67.203  72.760  0.00  0.00    +0.000 C 
ATOM     29  C   UNL     1      58.056  66.652  72.980  0.00  0.00    +0.000 C 
ATOM     30  C   UNL     1      58.233  65.846  72.975  0.00  0.00    +0.000 C 
ATOM     31  C   UNL     1      58.985  65.590  72.749  0.00  0.00    +0.000 C 
ATOM     32  C   UNL     1      57.659  65.296  73.195  0.00  0.00    +0.000 C 
ATOM     33  N   UNL     1      58.453  68.008  72.765  0.00  0.00    +0.000 NA
ATOM     34  C   UNL     1      57.702  68.263  72.991  0.00  0.00    +0.000 C 
ATOM     35  O   UNL     1      57.128  67.714  73.212  0.00  0.00    +0.000 OA
ENDROOT
TORSDOF 0
ENDMDL
