MODEL 1
REMARK VINA RESULT:    -7.296      0.000      0.000
REMARK INTER + INTRA:          -7.296
REMARK INTER:                  -7.296
REMARK INTRA:                   0.000
REMARK UNBOUND:                 0.000
ROOT
REMARK  Name = ornidazole
REMARK                            x       y       z     vdW  Elec       q    Type
REMARK                         _______ _______ _______ _____ _____    ______ ____
ATOM      1  C   UNL     1      61.581  62.773  66.311  0.00  0.00    +0.000 C 
ATOM      2  C   UNL     1      61.794  62.427  65.593  0.00  0.00    +0.000 A 
ATOM      3  N   UNL     1      62.536  62.467  65.236  0.00  0.00    +0.000 NA
ATOM      4  C   UNL     1      62.502  62.045  64.528  0.00  0.00    +0.000 A 
ATOM      5  C   UNL     1      61.738  61.745  64.447  0.00  0.00    +0.000 A 
ATOM      6  N   UNL     1      61.300  61.981  65.105  0.00  0.00    +0.000 N 
ATOM      7  C   UNL     1      60.508  61.802  65.249  0.00  0.00    +0.000 C 
ATOM      8  C   UNL     1      60.141  62.078  65.935  0.00  0.00    +0.000 C 
ATOM      9  O   UNL     1      60.567  62.533  66.476  0.00  0.00    +0.000 OA
ATOM     10  C   UNL     1      59.348  61.899  66.080  0.00  0.00    +0.000 C 
ATOM     11 CL   UNL     1      58.982  62.176  66.765  0.00  0.00    +0.000 Cl
ATOM     12  N   UNL     1      61.460  61.288  63.818  0.00  0.00    +0.000 N 
ATOM     13  O   UNL     1      61.965  61.095  63.195  0.00  0.00    +0.000 OA
ATOM     14  O   UNL     1      60.679  61.026  63.812  0.00  0.00    +0.000 OA
ENDROOT
TORSDOF 0
ENDMDL
MODEL 2
REMARK VINA RESULT:    -6.259      4.438      5.356
REMARK INTER + INTRA:          -6.259
REMARK INTER:                  -6.259
REMARK INTRA:                   0.000
REMARK UNBOUND:                 0.000
ROOT
REMARK  Name = ornidazole
REMARK                            x       y       z     vdW  Elec       q    Type
REMARK                         _______ _______ _______ _____ _____    ______ ____
ATOM      1  C   UNL     1      62.173  64.057  70.475  0.00  0.00    +0.000 C 
ATOM      2  C   UNL     1      61.760  63.642  69.894  0.00  0.00    +0.000 A 
ATOM      3  N   UNL     1      61.752  63.815  69.088  0.00  0.00    +0.000 NA
ATOM      4  C   UNL     1      61.270  63.261  68.713  0.00  0.00    +0.000 A 
ATOM      5  C   UNL     1      60.979  62.746  69.288  0.00  0.00    +0.000 A 
ATOM      6  N   UNL     1      61.281  62.981  70.018  0.00  0.00    +0.000 N 
ATOM      7  C   UNL     1      61.132  62.620  70.744  0.00  0.00    +0.000 C 
ATOM      8  C   UNL     1      61.476  62.918  71.432  0.00  0.00    +0.000 C 
ATOM      9  O   UNL     1      61.969  63.579  71.394  0.00  0.00    +0.000 OA
ATOM     10  C   UNL     1      61.327  62.557  72.159  0.00  0.00    +0.000 C 
ATOM     11 CL   UNL     1      61.671  62.856  72.846  0.00  0.00    +0.000 Cl
ATOM     12  N   UNL     1      60.473  62.107  69.156  0.00  0.00    +0.000 N 
ATOM     13  O   UNL     1      60.214  61.938  68.391  0.00  0.00    +0.000 OA
ATOM     14  O   UNL     1      60.227  61.638  69.788  0.00  0.00    +0.000 OA
ENDROOT
TORSDOF 0
ENDMDL
MODEL 3
REMARK VINA RESULT:    -6.216      6.041      7.269
REMARK INTER + INTRA:          -6.216
REMARK INTER:                  -6.216
REMARK INTRA:                   0.000
REMARK UNBOUND:                 0.000
ROOT
REMARK  Name = ornidazole
REMARK                            x       y       z     vdW  Elec       q    Type
REMARK                         _______ _______ _______ _____ _____    ______ ____
ATOM      1  C   UNL     1      60.027  64.807  69.564  0.00  0.00    +0.000 C 
ATOM      2  C   UNL     1      59.797  65.543  69.858  0.00  0.00    +0.000 A 
ATOM      3  N   UNL     1      59.717  66.237  69.418  0.00  0.00    +0.000 NA
ATOM      4  C   UNL     1      59.477  66.836  69.931  0.00  0.00    +0.000 A 
ATOM      5  C   UNL     1      59.409  66.514  70.687  0.00  0.00    +0.000 A 
ATOM      6  N   UNL     1      59.606  65.715  70.642  0.00  0.00    +0.000 N 
ATOM      7  C   UNL     1      59.612  65.181  71.270  0.00  0.00    +0.000 C 
ATOM      8  C   UNL     1      59.823  64.393  71.141  0.00  0.00    +0.000 C 
ATOM      9  O   UNL     1      60.028  64.141  70.383  0.00  0.00    +0.000 OA
ATOM     10  C   UNL     1      59.829  63.859  71.770  0.00  0.00    +0.000 C 
ATOM     11 CL   UNL     1      60.040  63.072  71.640  0.00  0.00    +0.000 Cl
ATOM     12  N   UNL     1      59.182  66.920  71.369  0.00  0.00    +0.000 N 
ATOM     13  O   UNL     1      59.000  67.723  71.329  0.00  0.00    +0.000 OA
ATOM     14  O   UNL     1      59.138  66.523  72.090  0.00  0.00    +0.000 OA
ENDROOT
TORSDOF 0
ENDMDL
MODEL 4
REMARK VINA RESULT:    -6.098      6.888      7.837
REMARK INTER + INTRA:          -6.098
REMARK INTER:                  -6.098
REMARK INTRA:                   0.000
REMARK UNBOUND:                 0.000
ROOT
REMARK  Name = ornidazole
REMARK                            x       y       z     vdW  Elec       q    Type
REMARK                         _______ _______ _______ _____ _____    ______ ____
ATOM      1  C   UNL     1      64.070  66.933  71.754  0.00  0.00    +0.000 C 
ATOM      2  C   UNL     1      63.782  66.212  71.474  0.00  0.00    +0.000 A 
ATOM      3  N   UNL     1      63.170  65.772  71.808  0.00  0.00    +0.000 NA
ATOM      4  C   UNL     1      63.065  65.094  71.351  0.00  0.00    +0.000 A 
ATOM      5  C   UNL     1      63.611  65.115  70.734  0.00  0.00    +0.000 A 
ATOM      6  N   UNL     1      64.055  65.806  70.809  0.00  0.00    +0.000 N 
ATOM      7  C   UNL     1      64.663  66.048  70.309  0.00  0.00    +0.000 C 
ATOM      8  C   UNL     1      65.060  66.757  70.454  0.00  0.00    +0.000 C 
ATOM      9  O   UNL     1      64.847  67.224  71.100  0.00  0.00    +0.000 OA
ATOM     10  C   UNL     1      65.669  67.000  69.953  0.00  0.00    +0.000 C 
ATOM     11 CL   UNL     1      66.065  67.709  70.099  0.00  0.00    +0.000 Cl
ATOM     12  N   UNL     1      63.699  64.544  70.144  0.00  0.00    +0.000 N 
ATOM     13  O   UNL     1      63.212  63.878  70.140  0.00  0.00    +0.000 OA
ATOM     14  O   UNL     1      64.272  64.640  69.559  0.00  0.00    +0.000 OA
ENDROOT
TORSDOF 0
ENDMDL
MODEL 5
REMARK VINA RESULT:    -6.069      3.517      4.706
REMARK INTER + INTRA:          -6.069
REMARK INTER:                  -6.069
REMARK INTRA:                   0.000
REMARK UNBOUND:                 0.000
ROOT
REMARK  Name = ornidazole
REMARK                            x       y       z     vdW  Elec       q    Type
REMARK                         _______ _______ _______ _____ _____    ______ ____
ATOM      1  C   UNL     1      61.484  63.822  68.356  0.00  0.00    +0.000 C 
ATOM      2  C   UNL     1      61.430  63.483  69.106  0.00  0.00    +0.000 A 
ATOM      3  N   UNL     1      61.842  63.724  69.778  0.00  0.00    +0.000 NA
ATOM      4  C   UNL     1      61.620  63.233  70.402  0.00  0.00    +0.000 A 
ATOM      5  C   UNL     1      61.071  62.688  70.116  0.00  0.00    +0.000 A 
ATOM      6  N   UNL     1      60.953  62.842  69.315  0.00  0.00    +0.000 N 
ATOM      7  C   UNL     1      60.448  62.429  68.811  0.00  0.00    +0.000 C 
ATOM      8  C   UNL     1      60.387  62.647  68.017  0.00  0.00    +0.000 C 
ATOM      9  O   UNL     1      60.831  63.279  67.728  0.00  0.00    +0.000 OA
ATOM     10  C   UNL     1      59.881  62.234  67.513  0.00  0.00    +0.000 C 
ATOM     11 CL   UNL     1      59.821  62.453  66.720  0.00  0.00    +0.000 Cl
ATOM     12  N   UNL     1      60.705  62.093  70.555  0.00  0.00    +0.000 N 
ATOM     13  O   UNL     1      60.879  62.005  71.356  0.00  0.00    +0.000 OA
ATOM     14  O   UNL     1      60.164  61.586  70.192  0.00  0.00    +0.000 OA
ENDROOT
TORSDOF 0
ENDMDL
MODEL 6
REMARK VINA RESULT:    -5.808      4.665      5.498
REMARK INTER + INTRA:          -5.808
REMARK INTER:                  -5.808
REMARK INTRA:                   0.000
REMARK UNBOUND:                 0.000
ROOT
REMARK  Name = ornidazole
REMARK                            x       y       z     vdW  Elec       q    Type
REMARK                         _______ _______ _______ _____ _____    ______ ____
ATOM      1  C   UNL     1      61.920  63.455  71.439  0.00  0.00    +0.000 C 
ATOM      2  C   UNL     1      61.456  62.975  70.955  0.00  0.00    +0.000 A 
ATOM      3  N   UNL     1      60.939  62.384  71.209  0.00  0.00    +0.000 NA
ATOM      4  C   UNL     1      60.591  62.046  70.542  0.00  0.00    +0.000 A 
ATOM      5  C   UNL     1      60.893  62.427  69.876  0.00  0.00    +0.000 A 
ATOM      6  N   UNL     1      61.427  63.001  70.130  0.00  0.00    +0.000 N 
ATOM      7  C   UNL     1      61.857  63.512  69.646  0.00  0.00    +0.000 C 
ATOM      8  C   UNL     1      62.374  64.061  69.981  0.00  0.00    +0.000 C 
ATOM      9  O   UNL     1      62.460  64.099  70.801  0.00  0.00    +0.000 OA
ATOM     10  C   UNL     1      62.804  64.572  69.497  0.00  0.00    +0.000 C 
ATOM     11 CL   UNL     1      63.321  65.121  69.832  0.00  0.00    +0.000 Cl
ATOM     12  N   UNL     1      60.694  62.262  69.091  0.00  0.00    +0.000 N 
ATOM     13  O   UNL     1      60.148  61.669  68.921  0.00  0.00    +0.000 OA
ATOM     14  O   UNL     1      61.043  62.691  68.479  0.00  0.00    +0.000 OA
ENDROOT
TORSDOF 0
ENDMDL
MODEL 7
REMARK VINA RESULT:    -5.807     24.859     25.621
REMARK INTER + INTRA:          -5.807
REMARK INTER:                  -5.807
REMARK INTRA:                   0.000
REMARK UNBOUND:                 0.000
ROOT
REMARK  Name = ornidazole
REMARK                            x       y       z     vdW  Elec       q    Type
REMARK                         _______ _______ _______ _____ _____    ______ ____
ATOM      1  C   UNL     1      70.207  78.455  49.530  0.00  0.00    +0.000 C 
ATOM      2  C   UNL     1      70.908  78.767  49.228  0.00  0.00    +0.000 A 
ATOM      3  N   UNL     1      71.364  78.439  48.624  0.00  0.00    +0.000 NA
ATOM      4  C   UNL     1      72.014  78.932  48.499  0.00  0.00    +0.000 A 
ATOM      5  C   UNL     1      71.960  79.564  49.026  0.00  0.00    +0.000 A 
ATOM      6  N   UNL     1      71.277  79.463  49.477  0.00  0.00    +0.000 N 
ATOM      7  C   UNL     1      71.008  79.967  50.071  0.00  0.00    +0.000 C 
ATOM      8  C   UNL     1      70.311  79.794  50.477  0.00  0.00    +0.000 C 
ATOM      9  O   UNL     1      69.882  79.115  50.288  0.00  0.00    +0.000 OA
ATOM     10  C   UNL     1      70.043  80.299  51.072  0.00  0.00    +0.000 C 
ATOM     11 CL   UNL     1      69.346  80.125  51.477  0.00  0.00    +0.000 Cl
ATOM     12  N   UNL     1      72.496  80.189  49.091  0.00  0.00    +0.000 N 
ATOM     13  O   UNL     1      73.158  80.216  48.600  0.00  0.00    +0.000 OA
ATOM     14  O   UNL     1      72.369  80.785  49.646  0.00  0.00    +0.000 OA
ENDROOT
TORSDOF 0
ENDMDL
MODEL 8
REMARK VINA RESULT:    -5.803      5.454      6.180
REMARK INTER + INTRA:          -5.803
REMARK INTER:                  -5.803
REMARK INTRA:                   0.000
REMARK UNBOUND:                 0.000
ROOT
REMARK  Name = ornidazole
REMARK                            x       y       z     vdW  Elec       q    Type
REMARK                         _______ _______ _______ _____ _____    ______ ____
ATOM      1  C   UNL     1      59.470  64.918  71.685  0.00  0.00    +0.000 C 
ATOM      2  C   UNL     1      59.807  64.209  71.434  0.00  0.00    +0.000 A 
ATOM      3  N   UNL     1      59.921  63.535  71.897  0.00  0.00    +0.000 NA
ATOM      4  C   UNL     1      60.274  62.959  71.425  0.00  0.00    +0.000 A 
ATOM      5  C   UNL     1      60.378  63.275  70.670  0.00  0.00    +0.000 A 
ATOM      6  N   UNL     1      60.090  64.048  70.676  0.00  0.00    +0.000 N 
ATOM      7  C   UNL     1      60.085  64.568  70.036  0.00  0.00    +0.000 C 
ATOM      8  C   UNL     1      59.776  65.328  70.124  0.00  0.00    +0.000 C 
ATOM      9  O   UNL     1      59.473  65.568  70.853  0.00  0.00    +0.000 OA
ATOM     10  C   UNL     1      59.771  65.848  69.484  0.00  0.00    +0.000 C 
ATOM     11 CL   UNL     1      59.463  66.608  69.573  0.00  0.00    +0.000 Cl
ATOM     12  N   UNL     1      60.713  62.887  70.023  0.00  0.00    +0.000 N 
ATOM     13  O   UNL     1      60.978  62.110  70.102  0.00  0.00    +0.000 OA
ATOM     14  O   UNL     1      60.781  63.275  69.299  0.00  0.00    +0.000 OA
ENDROOT
TORSDOF 0
ENDMDL
MODEL 9
REMARK VINA RESULT:    -5.659      7.605      8.612
REMARK INTER + INTRA:          -5.659
REMARK INTER:                  -5.659
REMARK INTRA:                   0.000
REMARK UNBOUND:                 0.000
ROOT
REMARK  Name = ornidazole
REMARK                            x       y       z     vdW  Elec       q    Type
REMARK                         _______ _______ _______ _____ _____    ______ ____
ATOM      1  C   UNL     1      58.733  65.170  72.335  0.00  0.00    +0.000 C 
ATOM      2  C   UNL     1      59.256  65.766  72.563  0.00  0.00    +0.000 A 
ATOM      3  N   UNL     1      59.049  66.529  72.798  0.00  0.00    +0.000 NA
ATOM      4  C   UNL     1      59.743  66.938  72.976  0.00  0.00    +0.000 A 
ATOM      5  C   UNL     1      60.379  66.427  72.851  0.00  0.00    +0.000 A 
ATOM      6  N   UNL     1      60.078  65.703  72.596  0.00  0.00    +0.000 N 
ATOM      7  C   UNL     1      60.521  65.034  72.406  0.00  0.00    +0.000 C 
ATOM      8  C   UNL     1      60.142  64.345  72.157  0.00  0.00    +0.000 C 
ATOM      9  O   UNL     1      59.319  64.325  72.098  0.00  0.00    +0.000 OA
ATOM     10  C   UNL     1      60.585  63.675  71.968  0.00  0.00    +0.000 C 
ATOM     11 CL   UNL     1      60.206  62.986  71.719  0.00  0.00    +0.000 Cl
ATOM     12  N   UNL     1      61.176  66.610  72.962  0.00  0.00    +0.000 N 
ATOM     13  O   UNL     1      61.394  67.361  73.221  0.00  0.00    +0.000 OA
ATOM     14  O   UNL     1      61.754  66.040  72.814  0.00  0.00    +0.000 OA
ENDROOT
TORSDOF 0
ENDMDL
