MODEL 1
REMARK VINA RESULT:    -9.820      0.000      0.000
REMARK INTER + INTRA:          -9.820
REMARK INTER:                  -9.820
REMARK INTRA:                   0.000
REMARK UNBOUND:                 0.000
ROOT
REMARK  Name = osilodrostat
REMARK                            x       y       z     vdW  Elec       q    Type
REMARK                         _______ _______ _______ _____ _____    ______ ____
ATOM      1  F   UNL     1      59.953  61.477  65.329  0.00  0.00    +0.000 F 
ATOM      2  C   UNL     1      60.729  61.745  65.248  0.00  0.00    +0.000 A 
ATOM      3  C   UNL     1      61.077  62.187  65.851  0.00  0.00    +0.000 A 
ATOM      4  C   UNL     1      61.853  62.455  65.771  0.00  0.00    +0.000 A 
ATOM      5  C   UNL     1      62.281  62.281  65.087  0.00  0.00    +0.000 A 
ATOM      6  C   UNL     1      61.932  61.839  64.484  0.00  0.00    +0.000 A 
ATOM      7  C   UNL     1      61.156  61.571  64.565  0.00  0.00    +0.000 A 
ATOM      8  C   UNL     1      62.360  61.665  63.800  0.00  0.00    +0.000 C 
ATOM      9  N   UNL     1      62.788  61.491  63.116  0.00  0.00    +0.000 NA
ATOM     10  C   UNL     1      60.650  62.361  66.535  0.00  0.00    +0.000 C 
ATOM     11  C   UNL     1      59.874  62.132  66.693  0.00  0.00    +0.000 C 
ATOM     12  C   UNL     1      59.668  62.424  67.436  0.00  0.00    +0.000 C 
ATOM     13  C   UNL     1      60.316  62.834  67.738  0.00  0.00    +0.000 A 
ATOM     14  C   UNL     1      60.591  63.268  68.384  0.00  0.00    +0.000 A 
ATOM     15  N   UNL     1      61.367  63.498  68.226  0.00  0.00    +0.000 NA
ATOM     16  C   UNL     1      61.573  63.205  67.483  0.00  0.00    +0.000 A 
ATOM     17  N   UNL     1      60.923  62.795  67.181  0.00  0.00    +0.000 N 
ENDROOT
TORSDOF 0
ENDMDL
MODEL 2
REMARK VINA RESULT:    -9.412      0.890      3.436
REMARK INTER + INTRA:          -9.412
REMARK INTER:                  -9.412
REMARK INTRA:                   0.000
REMARK UNBOUND:                 0.000
ROOT
REMARK  Name = osilodrostat
REMARK                            x       y       z     vdW  Elec       q    Type
REMARK                         _______ _______ _______ _____ _____    ______ ____
ATOM      1  F   UNL     1      59.413  61.638  66.194  0.00  0.00    +0.000 F 
ATOM      2  C   UNL     1      59.957  62.162  66.527  0.00  0.00    +0.000 A 
ATOM      3  C   UNL     1      60.677  62.303  66.151  0.00  0.00    +0.000 A 
ATOM      4  C   UNL     1      61.221  62.826  66.484  0.00  0.00    +0.000 A 
ATOM      5  C   UNL     1      61.044  63.209  67.194  0.00  0.00    +0.000 A 
ATOM      6  C   UNL     1      60.323  63.067  67.569  0.00  0.00    +0.000 A 
ATOM      7  C   UNL     1      59.780  62.544  67.236  0.00  0.00    +0.000 A 
ATOM      8  C   UNL     1      60.147  63.450  68.279  0.00  0.00    +0.000 C 
ATOM      9  N   UNL     1      59.970  63.832  68.989  0.00  0.00    +0.000 NA
ATOM     10  C   UNL     1      60.854  61.920  65.441  0.00  0.00    +0.000 C 
ATOM     11  C   UNL     1      60.368  61.385  65.045  0.00  0.00    +0.000 C 
ATOM     12  C   UNL     1      60.761  61.141  64.363  0.00  0.00    +0.000 C 
ATOM     13  C   UNL     1      61.491  61.524  64.337  0.00  0.00    +0.000 A 
ATOM     14  C   UNL     1      62.186  61.610  63.901  0.00  0.00    +0.000 A 
ATOM     15  N   UNL     1      62.672  62.145  64.298  0.00  0.00    +0.000 NA
ATOM     16  C   UNL     1      62.278  62.390  64.979  0.00  0.00    +0.000 A 
ATOM     17  N   UNL     1      61.548  62.006  65.004  0.00  0.00    +0.000 N 
ENDROOT
TORSDOF 0
ENDMDL
MODEL 3
REMARK VINA RESULT:    -8.727      2.640      5.001
REMARK INTER + INTRA:          -8.727
REMARK INTER:                  -8.727
REMARK INTRA:                   0.000
REMARK UNBOUND:                 0.000
ROOT
REMARK  Name = osilodrostat
REMARK                            x       y       z     vdW  Elec       q    Type
REMARK                         _______ _______ _______ _____ _____    ______ ____
ATOM      1  F   UNL     1      60.061  61.406  70.278  0.00  0.00    +0.000 F 
ATOM      2  C   UNL     1      60.592  61.979  70.543  0.00  0.00    +0.000 A 
ATOM      3  C   UNL     1      60.957  62.484  70.002  0.00  0.00    +0.000 A 
ATOM      4  C   UNL     1      61.488  63.057  70.266  0.00  0.00    +0.000 A 
ATOM      5  C   UNL     1      61.655  63.125  71.071  0.00  0.00    +0.000 A 
ATOM      6  C   UNL     1      61.291  62.619  71.612  0.00  0.00    +0.000 A 
ATOM      7  C   UNL     1      60.759  62.046  71.347  0.00  0.00    +0.000 A 
ATOM      8  C   UNL     1      61.458  62.687  72.417  0.00  0.00    +0.000 C 
ATOM      9  N   UNL     1      61.626  62.754  73.222  0.00  0.00    +0.000 NA
ATOM     10  C   UNL     1      60.789  62.417  69.196  0.00  0.00    +0.000 C 
ATOM     11  C   UNL     1      60.273  61.873  68.853  0.00  0.00    +0.000 C 
ATOM     12  C   UNL     1      60.274  62.002  68.038  0.00  0.00    +0.000 C 
ATOM     13  C   UNL     1      60.790  62.623  67.878  0.00  0.00    +0.000 A 
ATOM     14  C   UNL     1      61.111  63.088  67.276  0.00  0.00    +0.000 A 
ATOM     15  N   UNL     1      61.628  63.631  67.620  0.00  0.00    +0.000 NA
ATOM     16  C   UNL     1      61.627  63.503  68.434  0.00  0.00    +0.000 A 
ATOM     17  N   UNL     1      61.109  62.880  68.594  0.00  0.00    +0.000 N 
ENDROOT
TORSDOF 0
ENDMDL
MODEL 4
REMARK VINA RESULT:    -8.533      2.426      3.729
REMARK INTER + INTRA:          -8.533
REMARK INTER:                  -8.533
REMARK INTRA:                   0.000
REMARK UNBOUND:                 0.000
ROOT
REMARK  Name = osilodrostat
REMARK                            x       y       z     vdW  Elec       q    Type
REMARK                         _______ _______ _______ _____ _____    ______ ____
ATOM      1  F   UNL     1      60.076  61.408  69.242  0.00  0.00    +0.000 F 
ATOM      2  C   UNL     1      60.524  62.032  68.941  0.00  0.00    +0.000 A 
ATOM      3  C   UNL     1      60.899  62.556  69.456  0.00  0.00    +0.000 A 
ATOM      4  C   UNL     1      61.347  63.180  69.156  0.00  0.00    +0.000 A 
ATOM      5  C   UNL     1      61.420  63.281  68.340  0.00  0.00    +0.000 A 
ATOM      6  C   UNL     1      61.045  62.756  67.825  0.00  0.00    +0.000 A 
ATOM      7  C   UNL     1      60.597  62.132  68.126  0.00  0.00    +0.000 A 
ATOM      8  C   UNL     1      61.118  62.856  67.009  0.00  0.00    +0.000 C 
ATOM      9  N   UNL     1      61.191  62.956  66.193  0.00  0.00    +0.000 NA
ATOM     10  C   UNL     1      60.826  62.456  70.272  0.00  0.00    +0.000 C 
ATOM     11  C   UNL     1      60.399  61.861  70.651  0.00  0.00    +0.000 C 
ATOM     12  C   UNL     1      60.477  61.971  71.465  0.00  0.00    +0.000 C 
ATOM     13  C   UNL     1      60.951  62.633  71.589  0.00  0.00    +0.000 A 
ATOM     14  C   UNL     1      61.293  63.112  72.168  0.00  0.00    +0.000 A 
ATOM     15  N   UNL     1      61.721  63.707  71.789  0.00  0.00    +0.000 NA
ATOM     16  C   UNL     1      61.643  63.597  70.976  0.00  0.00    +0.000 A 
ATOM     17  N   UNL     1      61.168  62.933  70.852  0.00  0.00    +0.000 N 
ENDROOT
TORSDOF 0
ENDMDL
MODEL 5
REMARK VINA RESULT:    -8.374      3.977      6.194
REMARK INTER + INTRA:          -8.374
REMARK INTER:                  -8.374
REMARK INTRA:                   0.000
REMARK UNBOUND:                 0.000
ROOT
REMARK  Name = osilodrostat
REMARK                            x       y       z     vdW  Elec       q    Type
REMARK                         _______ _______ _______ _____ _____    ______ ____
ATOM      1  F   UNL     1      61.077  62.726  72.658  0.00  0.00    +0.000 F 
ATOM      2  C   UNL     1      61.282  63.415  72.252  0.00  0.00    +0.000 A 
ATOM      3  C   UNL     1      61.208  63.446  71.431  0.00  0.00    +0.000 A 
ATOM      4  C   UNL     1      61.414  64.134  71.024  0.00  0.00    +0.000 A 
ATOM      5  C   UNL     1      61.693  64.791  71.439  0.00  0.00    +0.000 A 
ATOM      6  C   UNL     1      61.766  64.759  72.260  0.00  0.00    +0.000 A 
ATOM      7  C   UNL     1      61.561  64.071  72.666  0.00  0.00    +0.000 A 
ATOM      8  C   UNL     1      62.045  65.416  72.674  0.00  0.00    +0.000 C 
ATOM      9  N   UNL     1      62.324  66.073  73.089  0.00  0.00    +0.000 NA
ATOM     10  C   UNL     1      60.929  62.789  71.016  0.00  0.00    +0.000 C 
ATOM     11  C   UNL     1      60.704  62.068  71.346  0.00  0.00    +0.000 C 
ATOM     12  C   UNL     1      60.463  61.572  70.733  0.00  0.00    +0.000 C 
ATOM     13  C   UNL     1      60.538  61.986  70.024  0.00  0.00    +0.000 A 
ATOM     14  C   UNL     1      60.436  61.937  69.207  0.00  0.00    +0.000 A 
ATOM     15  N   UNL     1      60.662  62.659  68.877  0.00  0.00    +0.000 NA
ATOM     16  C   UNL     1      60.903  63.154  69.490  0.00  0.00    +0.000 A 
ATOM     17  N   UNL     1      60.827  62.739  70.199  0.00  0.00    +0.000 N 
ENDROOT
TORSDOF 0
ENDMDL
MODEL 6
REMARK VINA RESULT:    -8.374      4.847      6.534
REMARK INTER + INTRA:          -8.374
REMARK INTER:                  -8.374
REMARK INTRA:                   0.000
REMARK UNBOUND:                 0.000
ROOT
REMARK  Name = osilodrostat
REMARK                            x       y       z     vdW  Elec       q    Type
REMARK                         _______ _______ _______ _____ _____    ______ ____
ATOM      1  F   UNL     1      64.033  65.970  71.910  0.00  0.00    +0.000 F 
ATOM      2  C   UNL     1      64.275  66.058  71.126  0.00  0.00    +0.000 A 
ATOM      3  C   UNL     1      63.914  65.613  70.532  0.00  0.00    +0.000 A 
ATOM      4  C   UNL     1      64.154  65.701  69.747  0.00  0.00    +0.000 A 
ATOM      5  C   UNL     1      64.756  66.233  69.557  0.00  0.00    +0.000 A 
ATOM      6  C   UNL     1      65.116  66.677  70.152  0.00  0.00    +0.000 A 
ATOM      7  C   UNL     1      64.875  66.589  70.936  0.00  0.00    +0.000 A 
ATOM      8  C   UNL     1      65.718  67.209  69.962  0.00  0.00    +0.000 C 
ATOM      9  N   UNL     1      66.319  67.741  69.772  0.00  0.00    +0.000 NA
ATOM     10  C   UNL     1      63.312  65.081  70.722  0.00  0.00    +0.000 C 
ATOM     11  C   UNL     1      63.015  64.935  71.477  0.00  0.00    +0.000 C 
ATOM     12  C   UNL     1      62.422  64.366  71.411  0.00  0.00    +0.000 C 
ATOM     13  C   UNL     1      62.352  64.160  70.616  0.00  0.00    +0.000 A 
ATOM     14  C   UNL     1      61.943  63.681  70.083  0.00  0.00    +0.000 A 
ATOM     15  N   UNL     1      62.241  63.826  69.328  0.00  0.00    +0.000 NA
ATOM     16  C   UNL     1      62.834  64.396  69.394  0.00  0.00    +0.000 A 
ATOM     17  N   UNL     1      62.903  64.602  70.190  0.00  0.00    +0.000 N 
ENDROOT
TORSDOF 0
ENDMDL
MODEL 7
REMARK VINA RESULT:    -8.223      5.478      7.078
REMARK INTER + INTRA:          -8.223
REMARK INTER:                  -8.223
REMARK INTRA:                   0.000
REMARK UNBOUND:                 0.000
ROOT
REMARK  Name = osilodrostat
REMARK                            x       y       z     vdW  Elec       q    Type
REMARK                         _______ _______ _______ _____ _____    ______ ____
ATOM      1  F   UNL     1      61.085  64.442  73.222  0.00  0.00    +0.000 F 
ATOM      2  C   UNL     1      60.432  64.547  72.728  0.00  0.00    +0.000 A 
ATOM      3  C   UNL     1      60.252  63.979  72.157  0.00  0.00    +0.000 A 
ATOM      4  C   UNL     1      59.600  64.084  71.662  0.00  0.00    +0.000 A 
ATOM      5  C   UNL     1      59.128  64.757  71.739  0.00  0.00    +0.000 A 
ATOM      6  C   UNL     1      59.309  65.324  72.310  0.00  0.00    +0.000 A 
ATOM      7  C   UNL     1      59.961  65.219  72.804  0.00  0.00    +0.000 A 
ATOM      8  C   UNL     1      58.837  65.997  72.386  0.00  0.00    +0.000 C 
ATOM      9  N   UNL     1      58.365  66.670  72.463  0.00  0.00    +0.000 NA
ATOM     10  C   UNL     1      60.724  63.307  72.080  0.00  0.00    +0.000 C 
ATOM     11  C   UNL     1      61.390  63.128  72.533  0.00  0.00    +0.000 C 
ATOM     12  C   UNL     1      61.690  62.406  72.270  0.00  0.00    +0.000 C 
ATOM     13  C   UNL     1      61.210  62.139  71.656  0.00  0.00    +0.000 A 
ATOM     14  C   UNL     1      61.098  61.528  71.113  0.00  0.00    +0.000 A 
ATOM     15  N   UNL     1      60.432  61.706  70.660  0.00  0.00    +0.000 NA
ATOM     16  C   UNL     1      60.132  62.428  70.923  0.00  0.00    +0.000 A 
ATOM     17  N   UNL     1      60.613  62.696  71.538  0.00  0.00    +0.000 N 
ENDROOT
TORSDOF 0
ENDMDL
MODEL 8
REMARK VINA RESULT:    -8.121      5.985      6.744
REMARK INTER + INTRA:          -8.121
REMARK INTER:                  -8.121
REMARK INTRA:                   0.000
REMARK UNBOUND:                 0.000
ROOT
REMARK  Name = osilodrostat
REMARK                            x       y       z     vdW  Elec       q    Type
REMARK                         _______ _______ _______ _____ _____    ______ ____
ATOM      1  F   UNL     1      59.211  63.579  71.663  0.00  0.00    +0.000 F 
ATOM      2  C   UNL     1      60.009  63.484  71.853  0.00  0.00    +0.000 A 
ATOM      3  C   UNL     1      60.434  64.114  72.172  0.00  0.00    +0.000 A 
ATOM      4  C   UNL     1      61.231  64.020  72.362  0.00  0.00    +0.000 A 
ATOM      5  C   UNL     1      61.604  63.295  72.232  0.00  0.00    +0.000 A 
ATOM      6  C   UNL     1      61.178  62.665  71.912  0.00  0.00    +0.000 A 
ATOM      7  C   UNL     1      60.381  62.759  71.722  0.00  0.00    +0.000 A 
ATOM      8  C   UNL     1      61.550  61.940  71.781  0.00  0.00    +0.000 C 
ATOM      9  N   UNL     1      61.923  61.215  71.651  0.00  0.00    +0.000 NA
ATOM     10  C   UNL     1      60.062  64.839  72.303  0.00  0.00    +0.000 C 
ATOM     11  C   UNL     1      59.272  65.015  72.141  0.00  0.00    +0.000 C 
ATOM     12  C   UNL     1      59.137  65.799  72.356  0.00  0.00    +0.000 C 
ATOM     13  C   UNL     1      59.842  66.109  72.650  0.00  0.00    +0.000 A 
ATOM     14  C   UNL     1      60.195  66.785  72.965  0.00  0.00    +0.000 A 
ATOM     15  N   UNL     1      60.985  66.610  73.126  0.00  0.00    +0.000 NA
ATOM     16  C   UNL     1      61.120  65.825  72.911  0.00  0.00    +0.000 A 
ATOM     17  N   UNL     1      60.414  65.515  72.617  0.00  0.00    +0.000 N 
ENDROOT
TORSDOF 0
ENDMDL
MODEL 9
REMARK VINA RESULT:    -7.926      1.872      4.116
REMARK INTER + INTRA:          -7.926
REMARK INTER:                  -7.926
REMARK INTRA:                   0.000
REMARK UNBOUND:                 0.000
ROOT
REMARK  Name = osilodrostat
REMARK                            x       y       z     vdW  Elec       q    Type
REMARK                         _______ _______ _______ _____ _____    ______ ____
ATOM      1  F   UNL     1      62.309  63.447  67.931  0.00  0.00    +0.000 F 
ATOM      2  C   UNL     1      61.584  63.517  68.318  0.00  0.00    +0.000 A 
ATOM      3  C   UNL     1      60.901  63.209  67.973  0.00  0.00    +0.000 A 
ATOM      4  C   UNL     1      60.176  63.279  68.360  0.00  0.00    +0.000 A 
ATOM      5  C   UNL     1      60.133  63.658  69.092  0.00  0.00    +0.000 A 
ATOM      6  C   UNL     1      60.817  63.966  69.437  0.00  0.00    +0.000 A 
ATOM      7  C   UNL     1      61.542  63.896  69.050  0.00  0.00    +0.000 A 
ATOM      8  C   UNL     1      60.775  64.344  70.169  0.00  0.00    +0.000 C 
ATOM      9  N   UNL     1      60.732  64.723  70.901  0.00  0.00    +0.000 NA
ATOM     10  C   UNL     1      60.943  62.830  67.241  0.00  0.00    +0.000 C 
ATOM     11  C   UNL     1      61.625  62.719  66.792  0.00  0.00    +0.000 C 
ATOM     12  C   UNL     1      61.414  62.317  66.103  0.00  0.00    +0.000 C 
ATOM     13  C   UNL     1      60.602  62.179  66.127  0.00  0.00    +0.000 A 
ATOM     14  C   UNL     1      59.968  61.845  65.718  0.00  0.00    +0.000 A 
ATOM     15  N   UNL     1      59.285  61.956  66.167  0.00  0.00    +0.000 NA
ATOM     16  C   UNL     1      59.497  62.359  66.855  0.00  0.00    +0.000 A 
ATOM     17  N   UNL     1      60.310  62.496  66.831  0.00  0.00    +0.000 N 
ENDROOT
TORSDOF 0
ENDMDL
