MODEL 1
REMARK VINA RESULT:    -5.671      0.000      0.000
REMARK INTER + INTRA:          -5.671
REMARK INTER:                  -5.671
REMARK INTRA:                   0.000
REMARK UNBOUND:                 0.000
ROOT
REMARK  Name = oteracil
REMARK                            x       y       z     vdW  Elec       q    Type
REMARK                         _______ _______ _______ _____ _____    ______ ____
ATOM      1  O   UNL     1      61.959  62.918  66.766  0.00  0.00    +0.000 OA
ATOM      2  C   UNL     1      61.431  62.345  66.493  0.00  0.00    +0.000 C 
ATOM      3  O   UNL     1      60.858  62.038  67.001  0.00  0.00    +0.000 OA
ATOM      4  C   UNL     1      61.477  62.081  65.714  0.00  0.00    +0.000 A 
ATOM      5  N   UNL     1      60.950  61.508  65.441  0.00  0.00    +0.000 NA
ATOM      6  C   UNL     1      60.996  61.243  64.661  0.00  0.00    +0.000 A 
ATOM      7  O   UNL     1      60.469  60.671  64.388  0.00  0.00    +0.000 OA
ATOM      8  N   UNL     1      61.569  61.551  64.154  0.00  0.00    +0.000 NA
ATOM      9  C   UNL     1      62.097  62.123  64.427  0.00  0.00    +0.000 A 
ATOM     10  O   UNL     1      62.671  62.432  63.920  0.00  0.00    +0.000 OA
ATOM     11  N   UNL     1      62.051  62.388  65.207  0.00  0.00    +0.000 NA
ENDROOT
TORSDOF 0
ENDMDL
MODEL 2
REMARK VINA RESULT:    -5.537      1.027      2.705
REMARK INTER + INTRA:          -5.537
REMARK INTER:                  -5.537
REMARK INTRA:                   0.000
REMARK UNBOUND:                 0.000
ROOT
REMARK  Name = oteracil
REMARK                            x       y       z     vdW  Elec       q    Type
REMARK                         _______ _______ _______ _____ _____    ______ ____
ATOM      1  O   UNL     1      61.130  61.256  63.998  0.00  0.00    +0.000 OA
ATOM      2  C   UNL     1      61.586  61.627  64.578  0.00  0.00    +0.000 C 
ATOM      3  O   UNL     1      62.396  61.729  64.462  0.00  0.00    +0.000 OA
ATOM      4  C   UNL     1      61.231  61.896  65.271  0.00  0.00    +0.000 A 
ATOM      5  N   UNL     1      61.685  62.267  65.851  0.00  0.00    +0.000 NA
ATOM      6  C   UNL     1      61.330  62.536  66.545  0.00  0.00    +0.000 A 
ATOM      7  O   UNL     1      61.785  62.907  67.124  0.00  0.00    +0.000 OA
ATOM      8  N   UNL     1      60.520  62.433  66.660  0.00  0.00    +0.000 NA
ATOM      9  C   UNL     1      60.064  62.062  66.081  0.00  0.00    +0.000 A 
ATOM     10  O   UNL     1      59.254  61.959  66.195  0.00  0.00    +0.000 OA
ATOM     11  N   UNL     1      60.420  61.793  65.387  0.00  0.00    +0.000 NA
ENDROOT
TORSDOF 0
ENDMDL
MODEL 3
REMARK VINA RESULT:    -5.221      1.327      1.549
REMARK INTER + INTRA:          -5.221
REMARK INTER:                  -5.221
REMARK INTRA:                   0.000
REMARK UNBOUND:                 0.000
ROOT
REMARK  Name = oteracil
REMARK                            x       y       z     vdW  Elec       q    Type
REMARK                         _______ _______ _______ _____ _____    ______ ____
ATOM      1  O   UNL     1      61.701  63.335  68.103  0.00  0.00    +0.000 OA
ATOM      2  C   UNL     1      61.020  62.995  67.785  0.00  0.00    +0.000 C 
ATOM      3  O   UNL     1      60.327  62.965  68.232  0.00  0.00    +0.000 OA
ATOM      4  C   UNL     1      61.031  62.684  67.022  0.00  0.00    +0.000 A 
ATOM      5  N   UNL     1      60.351  62.343  66.704  0.00  0.00    +0.000 NA
ATOM      6  C   UNL     1      60.362  62.032  65.940  0.00  0.00    +0.000 A 
ATOM      7  O   UNL     1      59.682  61.692  65.623  0.00  0.00    +0.000 OA
ATOM      8  N   UNL     1      61.055  62.062  65.494  0.00  0.00    +0.000 NA
ATOM      9  C   UNL     1      61.737  62.403  65.810  0.00  0.00    +0.000 A 
ATOM     10  O   UNL     1      62.430  62.433  65.364  0.00  0.00    +0.000 OA
ATOM     11  N   UNL     1      61.725  62.714  66.575  0.00  0.00    +0.000 NA
ENDROOT
TORSDOF 0
ENDMDL
MODEL 4
REMARK VINA RESULT:    -5.138      2.014      3.650
REMARK INTER + INTRA:          -5.138
REMARK INTER:                  -5.138
REMARK INTRA:                   0.000
REMARK UNBOUND:                 0.000
ROOT
REMARK  Name = oteracil
REMARK                            x       y       z     vdW  Elec       q    Type
REMARK                         _______ _______ _______ _____ _____    ______ ____
ATOM      1  O   UNL     1      61.016  61.646  66.082  0.00  0.00    +0.000 OA
ATOM      2  C   UNL     1      61.391  62.306  66.407  0.00  0.00    +0.000 C 
ATOM      3  O   UNL     1      61.880  62.774  65.936  0.00  0.00    +0.000 OA
ATOM      4  C   UNL     1      61.277  62.496  67.200  0.00  0.00    +0.000 A 
ATOM      5  N   UNL     1      61.652  63.155  67.525  0.00  0.00    +0.000 NA
ATOM      6  C   UNL     1      61.538  63.345  68.320  0.00  0.00    +0.000 A 
ATOM      7  O   UNL     1      61.913  64.004  68.643  0.00  0.00    +0.000 OA
ATOM      8  N   UNL     1      61.050  62.876  68.790  0.00  0.00    +0.000 NA
ATOM      9  C   UNL     1      60.674  62.216  68.466  0.00  0.00    +0.000 A 
ATOM     10  O   UNL     1      60.185  61.747  68.936  0.00  0.00    +0.000 OA
ATOM     11  N   UNL     1      60.788  62.026  67.672  0.00  0.00    +0.000 NA
ENDROOT
TORSDOF 0
ENDMDL
MODEL 5
REMARK VINA RESULT:    -4.892      7.034      7.888
REMARK INTER + INTRA:          -4.892
REMARK INTER:                  -4.892
REMARK INTRA:                   0.000
REMARK UNBOUND:                 0.000
ROOT
REMARK  Name = oteracil
REMARK                            x       y       z     vdW  Elec       q    Type
REMARK                         _______ _______ _______ _____ _____    ______ ____
ATOM      1  O   UNL     1      60.438  67.615  68.780  0.00  0.00    +0.000 OA
ATOM      2  C   UNL     1      59.844  67.237  69.213  0.00  0.00    +0.000 C 
ATOM      3  O   UNL     1      59.220  66.868  68.820  0.00  0.00    +0.000 OA
ATOM      4  C   UNL     1      59.876  67.229  70.036  0.00  0.00    +0.000 A 
ATOM      5  N   UNL     1      59.283  66.852  70.469  0.00  0.00    +0.000 NA
ATOM      6  C   UNL     1      59.315  66.844  71.293  0.00  0.00    +0.000 A 
ATOM      7  O   UNL     1      58.723  66.467  71.725  0.00  0.00    +0.000 OA
ATOM      8  N   UNL     1      59.940  67.214  71.685  0.00  0.00    +0.000 NA
ATOM      9  C   UNL     1      60.533  67.591  71.254  0.00  0.00    +0.000 A 
ATOM     10  O   UNL     1      61.158  67.961  71.645  0.00  0.00    +0.000 OA
ATOM     11  N   UNL     1      60.501  67.599  70.429  0.00  0.00    +0.000 NA
ENDROOT
TORSDOF 0
ENDMDL
MODEL 6
REMARK VINA RESULT:    -4.876      2.701      3.594
REMARK INTER + INTRA:          -4.876
REMARK INTER:                  -4.876
REMARK INTRA:                   0.000
REMARK UNBOUND:                 0.000
ROOT
REMARK  Name = oteracil
REMARK                            x       y       z     vdW  Elec       q    Type
REMARK                         _______ _______ _______ _____ _____    ______ ____
ATOM      1  O   UNL     1      62.264  64.604  69.068  0.00  0.00    +0.000 OA
ATOM      2  C   UNL     1      61.772  64.005  69.353  0.00  0.00    +0.000 C 
ATOM      3  O   UNL     1      61.579  63.978  70.155  0.00  0.00    +0.000 OA
ATOM      4  C   UNL     1      61.473  63.436  68.837  0.00  0.00    +0.000 A 
ATOM      5  N   UNL     1      60.981  62.838  69.121  0.00  0.00    +0.000 NA
ATOM      6  C   UNL     1      60.683  62.269  68.605  0.00  0.00    +0.000 A 
ATOM      7  O   UNL     1      60.191  61.672  68.890  0.00  0.00    +0.000 OA
ATOM      8  N   UNL     1      60.876  62.297  67.804  0.00  0.00    +0.000 NA
ATOM      9  C   UNL     1      61.368  62.895  67.518  0.00  0.00    +0.000 A 
ATOM     10  O   UNL     1      61.562  62.923  66.717  0.00  0.00    +0.000 OA
ATOM     11  N   UNL     1      61.667  63.464  68.035  0.00  0.00    +0.000 NA
ENDROOT
TORSDOF 0
ENDMDL
MODEL 7
REMARK VINA RESULT:    -4.776      7.949      8.625
REMARK INTER + INTRA:          -4.776
REMARK INTER:                  -4.776
REMARK INTRA:                   0.000
REMARK UNBOUND:                 0.000
ROOT
REMARK  Name = oteracil
REMARK                            x       y       z     vdW  Elec       q    Type
REMARK                         _______ _______ _______ _____ _____    ______ ____
ATOM      1  O   UNL     1      62.173  67.526  72.070  0.00  0.00    +0.000 OA
ATOM      2  C   UNL     1      61.425  67.436  72.409  0.00  0.00    +0.000 C 
ATOM      3  O   UNL     1      61.353  67.320  73.222  0.00  0.00    +0.000 OA
ATOM      4  C   UNL     1      60.752  67.463  71.934  0.00  0.00    +0.000 A 
ATOM      5  N   UNL     1      60.005  67.373  72.272  0.00  0.00    +0.000 NA
ATOM      6  C   UNL     1      59.331  67.400  71.798  0.00  0.00    +0.000 A 
ATOM      7  O   UNL     1      58.585  67.311  72.136  0.00  0.00    +0.000 OA
ATOM      8  N   UNL     1      59.404  67.516  70.985  0.00  0.00    +0.000 NA
ATOM      9  C   UNL     1      60.151  67.605  70.645  0.00  0.00    +0.000 A 
ATOM     10  O   UNL     1      60.224  67.721  69.832  0.00  0.00    +0.000 OA
ATOM     11  N   UNL     1      60.825  67.578  71.120  0.00  0.00    +0.000 NA
ENDROOT
TORSDOF 0
ENDMDL
MODEL 8
REMARK VINA RESULT:    -4.740     16.157     17.107
REMARK INTER + INTRA:          -4.740
REMARK INTER:                  -4.740
REMARK INTRA:                   0.000
REMARK UNBOUND:                 0.000
ROOT
REMARK  Name = oteracil
REMARK                            x       y       z     vdW  Elec       q    Type
REMARK                         _______ _______ _______ _____ _____    ______ ____
ATOM      1  O   UNL     1      58.692  75.082  72.415  0.00  0.00    +0.000 OA
ATOM      2  C   UNL     1      58.117  75.671  72.473  0.00  0.00    +0.000 C 
ATOM      3  O   UNL     1      57.328  75.494  72.314  0.00  0.00    +0.000 OA
ATOM      4  C   UNL     1      58.332  76.437  72.689  0.00  0.00    +0.000 A 
ATOM      5  N   UNL     1      57.758  77.026  72.747  0.00  0.00    +0.000 NA
ATOM      6  C   UNL     1      57.974  77.793  72.964  0.00  0.00    +0.000 A 
ATOM      7  O   UNL     1      57.399  78.381  73.022  0.00  0.00    +0.000 OA
ATOM      8  N   UNL     1      58.763  77.970  73.122  0.00  0.00    +0.000 NA
ATOM      9  C   UNL     1      59.338  77.381  73.064  0.00  0.00    +0.000 A 
ATOM     10  O   UNL     1      60.129  77.558  73.222  0.00  0.00    +0.000 OA
ATOM     11  N   UNL     1      59.123  76.615  72.848  0.00  0.00    +0.000 NA
ENDROOT
TORSDOF 0
ENDMDL
MODEL 9
REMARK VINA RESULT:    -4.680     11.504     12.364
REMARK INTER + INTRA:          -4.680
REMARK INTER:                  -4.680
REMARK INTRA:                   0.000
REMARK UNBOUND:                 0.000
ROOT
REMARK  Name = oteracil
REMARK                            x       y       z     vdW  Elec       q    Type
REMARK                         _______ _______ _______ _____ _____    ______ ____
ATOM      1  O   UNL     1      63.293  59.401  54.476  0.00  0.00    +0.000 OA
ATOM      2  C   UNL     1      63.604  59.536  53.723  0.00  0.00    +0.000 C 
ATOM      3  O   UNL     1      63.601  58.932  53.161  0.00  0.00    +0.000 OA
ATOM      4  C   UNL     1      63.917  60.274  53.532  0.00  0.00    +0.000 A 
ATOM      5  N   UNL     1      64.228  60.410  52.780  0.00  0.00    +0.000 NA
ATOM      6  C   UNL     1      64.541  61.148  52.590  0.00  0.00    +0.000 A 
ATOM      7  O   UNL     1      64.852  61.283  51.838  0.00  0.00    +0.000 OA
ATOM      8  N   UNL     1      64.544  61.752  53.151  0.00  0.00    +0.000 NA
ATOM      9  C   UNL     1      64.234  61.618  53.904  0.00  0.00    +0.000 A 
ATOM     10  O   UNL     1      64.237  62.222  54.467  0.00  0.00    +0.000 OA
ATOM     11  N   UNL     1      63.920  60.879  54.095  0.00  0.00    +0.000 NA
ENDROOT
TORSDOF 0
ENDMDL
