MODEL 1
REMARK VINA RESULT:   -17.274      0.000      0.000
REMARK INTER + INTRA:         -17.274
REMARK INTER:                 -17.274
REMARK INTRA:                   0.000
REMARK UNBOUND:                 0.000
ROOT
REMARK  Name = oteseconazole
REMARK                            x       y       z     vdW  Elec       q    Type
REMARK                         _______ _______ _______ _____ _____    ______ ____
ATOM      1  O   UNL     1      62.272  62.599  65.622  0.00  0.00    +0.000 OA
ATOM      2  C   UNL     1      61.495  62.320  65.616  0.00  0.00    +0.000 C 
ATOM      3  C   UNL     1      60.719  62.042  65.611  0.00  0.00    +0.000 C 
ATOM      4  N   UNL     1      60.211  62.225  66.236  0.00  0.00    +0.000 N 
ATOM      5  C   UNL     1      59.425  61.986  66.306  0.00  0.00    +0.000 A 
ATOM      6  N   UNL     1      59.128  62.292  67.014  0.00  0.00    +0.000 NA
ATOM      7  N   UNL     1      59.732  62.718  67.380  0.00  0.00    +0.000 NA
ATOM      8  N   UNL     1      60.402  62.676  66.899  0.00  0.00    +0.000 NA
ATOM      9  C   UNL     1      61.634  61.950  64.892  0.00  0.00    +0.000 A 
ATOM     10  C   UNL     1      62.374  62.005  64.535  0.00  0.00    +0.000 A 
ATOM     11  F   UNL     1      62.978  62.431  64.901  0.00  0.00    +0.000 F 
ATOM     12  C   UNL     1      62.512  61.634  63.811  0.00  0.00    +0.000 A 
ATOM     13  C   UNL     1      61.908  61.208  63.445  0.00  0.00    +0.000 A 
ATOM     14  F   UNL     1      62.046  60.837  62.720  0.00  0.00    +0.000 F 
ATOM     15  C   UNL     1      61.167  61.152  63.802  0.00  0.00    +0.000 A 
ATOM     16  C   UNL     1      61.030  61.523  64.526  0.00  0.00    +0.000 A 
ATOM     17  C   UNL     1      61.358  62.692  66.340  0.00  0.00    +0.000 C 
ATOM     18  F   UNL     1      62.134  62.970  66.345  0.00  0.00    +0.000 F 
ATOM     19  F   UNL     1      60.581  62.413  66.335  0.00  0.00    +0.000 F 
ATOM     20  C   UNL     1      61.220  63.062  67.064  0.00  0.00    +0.000 A 
ATOM     21  C   UNL     1      60.479  63.007  67.422  0.00  0.00    +0.000 A 
ATOM     22  C   UNL     1      60.341  63.378  68.146  0.00  0.00    +0.000 A 
ATOM     23  C   UNL     1      60.945  63.804  68.512  0.00  0.00    +0.000 A 
ATOM     24  C   UNL     1      61.687  63.860  68.155  0.00  0.00    +0.000 A 
ATOM     25  N   UNL     1      61.824  63.489  67.431  0.00  0.00    +0.000 NA
ATOM     26  C   UNL     1      60.808  64.175  69.236  0.00  0.00    +0.000 A 
ATOM     27  C   UNL     1      60.066  64.120  69.594  0.00  0.00    +0.000 A 
ATOM     28  C   UNL     1      59.929  64.491  70.318  0.00  0.00    +0.000 A 
ATOM     29  C   UNL     1      60.533  64.917  70.684  0.00  0.00    +0.000 A 
ATOM     30  O   UNL     1      60.395  65.288  71.408  0.00  0.00    +0.000 OA
ATOM     31  C   UNL     1      60.999  65.714  71.775  0.00  0.00    +0.000 C 
ATOM     32  C   UNL     1      60.862  66.085  72.498  0.00  0.00    +0.000 C 
ATOM     33  F   UNL     1      60.724  66.456  73.222  0.00  0.00    +0.000 F 
ATOM     34  F   UNL     1      61.638  66.364  72.504  0.00  0.00    +0.000 F 
ATOM     35  F   UNL     1      60.084  65.807  72.493  0.00  0.00    +0.000 F 
ATOM     36  C   UNL     1      61.274  64.972  70.327  0.00  0.00    +0.000 A 
ATOM     37  C   UNL     1      61.412  64.602  69.602  0.00  0.00    +0.000 A 
ENDROOT
TORSDOF 0
ENDMDL
MODEL 2
REMARK VINA RESULT:   -17.137      1.616      6.548
REMARK INTER + INTRA:         -17.137
REMARK INTER:                 -17.137
REMARK INTRA:                   0.000
REMARK UNBOUND:                 0.000
ROOT
REMARK  Name = oteseconazole
REMARK                            x       y       z     vdW  Elec       q    Type
REMARK                         _______ _______ _______ _____ _____    ______ ____
ATOM      1  O   UNL     1      60.150  65.051  70.061  0.00  0.00    +0.000 OA
ATOM      2  C   UNL     1      60.106  64.306  70.413  0.00  0.00    +0.000 C 
ATOM      3  C   UNL     1      60.062  63.561  70.764  0.00  0.00    +0.000 C 
ATOM      4  N   UNL     1      60.267  62.888  70.331  0.00  0.00    +0.000 N 
ATOM      5  C   UNL     1      60.250  62.111  70.608  0.00  0.00    +0.000 A 
ATOM      6  N   UNL     1      60.497  61.617  69.994  0.00  0.00    +0.000 NA
ATOM      7  N   UNL     1      60.665  62.090  69.339  0.00  0.00    +0.000 NA
ATOM      8  N   UNL     1      60.523  62.875  69.548  0.00  0.00    +0.000 NA
ATOM      9  C   UNL     1      59.845  64.652  71.114  0.00  0.00    +0.000 A 
ATOM     10  C   UNL     1      59.752  65.470  71.161  0.00  0.00    +0.000 A 
ATOM     11  F   UNL     1      59.921  65.943  70.507  0.00  0.00    +0.000 F 
ATOM     12  C   UNL     1      59.491  65.816  71.863  0.00  0.00    +0.000 A 
ATOM     13  C   UNL     1      59.322  65.344  72.517  0.00  0.00    +0.000 A 
ATOM     14  F   UNL     1      59.060  65.690  73.220  0.00  0.00    +0.000 F 
ATOM     15  C   UNL     1      59.414  64.525  72.471  0.00  0.00    +0.000 A 
ATOM     16  C   UNL     1      59.676  64.180  71.769  0.00  0.00    +0.000 A 
ATOM     17  C   UNL     1      60.368  63.960  69.711  0.00  0.00    +0.000 C 
ATOM     18  F   UNL     1      60.412  64.705  69.360  0.00  0.00    +0.000 F 
ATOM     19  F   UNL     1      60.324  63.214  70.062  0.00  0.00    +0.000 F 
ATOM     20  C   UNL     1      60.629  63.614  69.009  0.00  0.00    +0.000 A 
ATOM     21  C   UNL     1      60.722  62.796  68.962  0.00  0.00    +0.000 A 
ATOM     22  C   UNL     1      60.983  62.449  68.260  0.00  0.00    +0.000 A 
ATOM     23  C   UNL     1      61.152  62.921  67.606  0.00  0.00    +0.000 A 
ATOM     24  C   UNL     1      61.060  63.741  67.652  0.00  0.00    +0.000 A 
ATOM     25  N   UNL     1      60.798  64.086  68.354  0.00  0.00    +0.000 NA
ATOM     26  C   UNL     1      61.414  62.576  66.904  0.00  0.00    +0.000 A 
ATOM     27  C   UNL     1      61.506  61.757  66.857  0.00  0.00    +0.000 A 
ATOM     28  C   UNL     1      61.768  61.412  66.155  0.00  0.00    +0.000 A 
ATOM     29  C   UNL     1      61.937  61.884  65.500  0.00  0.00    +0.000 A 
ATOM     30  O   UNL     1      62.198  61.537  64.798  0.00  0.00    +0.000 OA
ATOM     31  C   UNL     1      62.367  62.010  64.143  0.00  0.00    +0.000 C 
ATOM     32  C   UNL     1      62.629  61.664  63.441  0.00  0.00    +0.000 C 
ATOM     33  F   UNL     1      62.890  61.317  62.740  0.00  0.00    +0.000 F 
ATOM     34  F   UNL     1      62.673  62.409  63.091  0.00  0.00    +0.000 F 
ATOM     35  F   UNL     1      62.584  60.918  63.793  0.00  0.00    +0.000 F 
ATOM     36  C   UNL     1      61.844  62.702  65.547  0.00  0.00    +0.000 A 
ATOM     37  C   UNL     1      61.583  63.048  66.249  0.00  0.00    +0.000 A 
ENDROOT
TORSDOF 0
ENDMDL
MODEL 3
REMARK VINA RESULT:   -16.096      1.748      6.519
REMARK INTER + INTRA:         -16.096
REMARK INTER:                 -16.096
REMARK INTRA:                   0.000
REMARK UNBOUND:                 0.000
ROOT
REMARK  Name = oteseconazole
REMARK                            x       y       z     vdW  Elec       q    Type
REMARK                         _______ _______ _______ _____ _____    ______ ____
ATOM      1  O   UNL     1      62.739  65.213  70.129  0.00  0.00    +0.000 OA
ATOM      2  C   UNL     1      62.133  64.843  70.550  0.00  0.00    +0.000 C 
ATOM      3  C   UNL     1      61.528  64.474  70.970  0.00  0.00    +0.000 C 
ATOM      4  N   UNL     1      61.058  63.903  70.601  0.00  0.00    +0.000 N 
ATOM      5  C   UNL     1      60.435  63.489  70.950  0.00  0.00    +0.000 A 
ATOM      6  N   UNL     1      60.122  62.977  70.384  0.00  0.00    +0.000 NA
ATOM      7  N   UNL     1      60.551  63.075  69.686  0.00  0.00    +0.000 NA
ATOM      8  N   UNL     1      61.130  63.648  69.821  0.00  0.00    +0.000 NA
ATOM      9  C   UNL     1      62.325  65.288  71.218  0.00  0.00    +0.000 A 
ATOM     10  C   UNL     1      62.946  65.830  71.188  0.00  0.00    +0.000 A 
ATOM     11  F   UNL     1      63.375  65.928  70.491  0.00  0.00    +0.000 F 
ATOM     12  C   UNL     1      63.137  66.275  71.856  0.00  0.00    +0.000 A 
ATOM     13  C   UNL     1      62.708  66.176  72.554  0.00  0.00    +0.000 A 
ATOM     14  F   UNL     1      62.900  66.621  73.222  0.00  0.00    +0.000 F 
ATOM     15  C   UNL     1      62.088  65.634  72.584  0.00  0.00    +0.000 A 
ATOM     16  C   UNL     1      61.896  65.190  71.916  0.00  0.00    +0.000 A 
ATOM     17  C   UNL     1      61.942  64.399  69.882  0.00  0.00    +0.000 C 
ATOM     18  F   UNL     1      62.547  64.769  69.462  0.00  0.00    +0.000 F 
ATOM     19  F   UNL     1      61.335  64.029  70.302  0.00  0.00    +0.000 F 
ATOM     20  C   UNL     1      61.750  63.954  69.214  0.00  0.00    +0.000 A 
ATOM     21  C   UNL     1      61.129  63.412  69.244  0.00  0.00    +0.000 A 
ATOM     22  C   UNL     1      60.937  62.967  68.576  0.00  0.00    +0.000 A 
ATOM     23  C   UNL     1      61.366  63.065  67.878  0.00  0.00    +0.000 A 
ATOM     24  C   UNL     1      61.987  63.608  67.848  0.00  0.00    +0.000 A 
ATOM     25  N   UNL     1      62.179  64.052  68.516  0.00  0.00    +0.000 NA
ATOM     26  C   UNL     1      61.175  62.621  67.210  0.00  0.00    +0.000 A 
ATOM     27  C   UNL     1      60.554  62.078  67.240  0.00  0.00    +0.000 A 
ATOM     28  C   UNL     1      60.362  61.634  66.571  0.00  0.00    +0.000 A 
ATOM     29  C   UNL     1      60.791  61.732  65.873  0.00  0.00    +0.000 A 
ATOM     30  O   UNL     1      60.599  61.287  65.206  0.00  0.00    +0.000 OA
ATOM     31  C   UNL     1      61.028  61.385  64.508  0.00  0.00    +0.000 C 
ATOM     32  C   UNL     1      60.837  60.941  63.840  0.00  0.00    +0.000 C 
ATOM     33  F   UNL     1      60.645  60.496  63.172  0.00  0.00    +0.000 F 
ATOM     34  F   UNL     1      61.442  61.311  63.420  0.00  0.00    +0.000 F 
ATOM     35  F   UNL     1      60.230  60.571  64.260  0.00  0.00    +0.000 F 
ATOM     36  C   UNL     1      61.412  62.274  65.844  0.00  0.00    +0.000 A 
ATOM     37  C   UNL     1      61.604  62.719  66.512  0.00  0.00    +0.000 A 
ENDROOT
TORSDOF 0
ENDMDL
MODEL 4
REMARK VINA RESULT:   -15.423      3.202      6.541
REMARK INTER + INTRA:         -15.423
REMARK INTER:                 -15.423
REMARK INTRA:                   0.000
REMARK UNBOUND:                 0.000
ROOT
REMARK  Name = oteseconazole
REMARK                            x       y       z     vdW  Elec       q    Type
REMARK                         _______ _______ _______ _____ _____    ______ ____
ATOM      1  O   UNL     1      64.845  65.979  69.811  0.00  0.00    +0.000 OA
ATOM      2  C   UNL     1      64.487  65.834  70.540  0.00  0.00    +0.000 C 
ATOM      3  C   UNL     1      64.130  65.689  71.269  0.00  0.00    +0.000 C 
ATOM      4  N   UNL     1      63.436  65.242  71.306  0.00  0.00    +0.000 N 
ATOM      5  C   UNL     1      63.019  65.052  71.992  0.00  0.00    +0.000 A 
ATOM      6  N   UNL     1      62.364  64.600  71.775  0.00  0.00    +0.000 NA
ATOM      7  N   UNL     1      62.377  64.511  70.955  0.00  0.00    +0.000 NA
ATOM      8  N   UNL     1      63.040  64.908  70.665  0.00  0.00    +0.000 NA
ATOM      9  C   UNL     1      65.081  66.265  70.917  0.00  0.00    +0.000 A 
ATOM     10  C   UNL     1      65.687  66.607  70.475  0.00  0.00    +0.000 A 
ATOM     11  F   UNL     1      65.700  66.518  69.655  0.00  0.00    +0.000 F 
ATOM     12  C   UNL     1      66.280  67.038  70.852  0.00  0.00    +0.000 A 
ATOM     13  C   UNL     1      66.267  67.127  71.672  0.00  0.00    +0.000 A 
ATOM     14  F   UNL     1      66.861  67.559  72.050  0.00  0.00    +0.000 F 
ATOM     15  C   UNL     1      65.661  66.786  72.115  0.00  0.00    +0.000 A 
ATOM     16  C   UNL     1      65.068  66.355  71.737  0.00  0.00    +0.000 A 
ATOM     17  C   UNL     1      63.894  65.403  70.162  0.00  0.00    +0.000 C 
ATOM     18  F   UNL     1      64.252  65.548  69.434  0.00  0.00    +0.000 F 
ATOM     19  F   UNL     1      63.536  65.257  70.892  0.00  0.00    +0.000 F 
ATOM     20  C   UNL     1      63.300  64.971  69.785  0.00  0.00    +0.000 A 
ATOM     21  C   UNL     1      62.694  64.630  70.227  0.00  0.00    +0.000 A 
ATOM     22  C   UNL     1      62.100  64.198  69.850  0.00  0.00    +0.000 A 
ATOM     23  C   UNL     1      62.113  64.109  69.030  0.00  0.00    +0.000 A 
ATOM     24  C   UNL     1      62.720  64.451  68.587  0.00  0.00    +0.000 A 
ATOM     25  N   UNL     1      63.313  64.882  68.965  0.00  0.00    +0.000 NA
ATOM     26  C   UNL     1      61.520  63.678  68.652  0.00  0.00    +0.000 A 
ATOM     27  C   UNL     1      60.913  63.336  69.095  0.00  0.00    +0.000 A 
ATOM     28  C   UNL     1      60.320  62.905  68.717  0.00  0.00    +0.000 A 
ATOM     29  C   UNL     1      60.333  62.815  67.897  0.00  0.00    +0.000 A 
ATOM     30  O   UNL     1      59.739  62.384  67.521  0.00  0.00    +0.000 OA
ATOM     31  C   UNL     1      59.753  62.294  66.701  0.00  0.00    +0.000 C 
ATOM     32  C   UNL     1      59.160  61.863  66.323  0.00  0.00    +0.000 C 
ATOM     33  F   UNL     1      58.566  61.432  65.946  0.00  0.00    +0.000 F 
ATOM     34  F   UNL     1      59.517  62.009  65.594  0.00  0.00    +0.000 F 
ATOM     35  F   UNL     1      58.801  61.717  67.052  0.00  0.00    +0.000 F 
ATOM     36  C   UNL     1      60.940  63.157  67.455  0.00  0.00    +0.000 A 
ATOM     37  C   UNL     1      61.533  63.588  67.832  0.00  0.00    +0.000 A 
ENDROOT
TORSDOF 0
ENDMDL
