MODEL 1
REMARK VINA RESULT:   -12.299      0.000      0.000
REMARK INTER + INTRA:         -12.299
REMARK INTER:                 -12.299
REMARK INTRA:                   0.000
REMARK UNBOUND:                 0.000
ROOT
REMARK  Name = oxabolone
REMARK                            x       y       z     vdW  Elec       q    Type
REMARK                         _______ _______ _______ _____ _____    ______ ____
ATOM      1  C   UNL     1      62.544  61.771  63.955  0.00  0.00    +0.000 C 
ATOM      2  C   UNL     1      61.802  61.667  64.301  0.00  0.00    +0.000 C 
ATOM      3  C   UNL     1      62.319  62.131  64.747  0.00  0.00    +0.000 C 
ATOM      4  C   UNL     1      62.073  62.442  65.470  0.00  0.00    +0.000 C 
ATOM      5  C   UNL     1      61.311  62.291  65.747  0.00  0.00    +0.000 C 
ATOM      6  C   UNL     1      60.794  61.827  65.300  0.00  0.00    +0.000 C 
ATOM      7  C   UNL     1      60.031  61.676  65.578  0.00  0.00    +0.000 C 
ATOM      8  C   UNL     1      59.786  61.988  66.301  0.00  0.00    +0.000 C 
ATOM      9  C   UNL     1      60.303  62.451  66.746  0.00  0.00    +0.000 C 
ATOM     10  C   UNL     1      60.056  62.763  67.470  0.00  0.00    +0.000 C 
ATOM     11  O   UNL     1      59.294  62.612  67.747  0.00  0.00    +0.000 OA
ATOM     12  C   UNL     1      60.573  63.226  67.916  0.00  0.00    +0.000 C 
ATOM     13  O   UNL     1      60.327  63.538  68.639  0.00  0.00    +0.000 OA
ATOM     14  C   UNL     1      61.335  63.378  67.639  0.00  0.00    +0.000 C 
ATOM     15  C   UNL     1      61.581  63.066  66.916  0.00  0.00    +0.000 C 
ATOM     16  C   UNL     1      61.065  62.603  66.470  0.00  0.00    +0.000 C 
ATOM     17  C   UNL     1      61.040  61.515  64.577  0.00  0.00    +0.000 C 
ATOM     18  C   UNL     1      60.656  61.043  64.021  0.00  0.00    +0.000 C 
ATOM     19  C   UNL     1      61.181  60.903  63.400  0.00  0.00    +0.000 C 
ATOM     20  C   UNL     1      61.890  61.288  63.573  0.00  0.00    +0.000 C 
ATOM     21  O   UNL     1      62.566  61.294  63.101  0.00  0.00    +0.000 OA
ENDROOT
TORSDOF 0
ENDMDL
MODEL 2
REMARK VINA RESULT:   -12.075      0.645      3.705
REMARK INTER + INTRA:         -12.075
REMARK INTER:                 -12.075
REMARK INTRA:                   0.000
REMARK UNBOUND:                 0.000
ROOT
REMARK  Name = oxabolone
REMARK                            x       y       z     vdW  Elec       q    Type
REMARK                         _______ _______ _______ _____ _____    ______ ____
ATOM      1  C   UNL     1      61.324  63.261  67.906  0.00  0.00    +0.000 C 
ATOM      2  C   UNL     1      60.888  62.810  67.368  0.00  0.00    +0.000 C 
ATOM      3  C   UNL     1      61.647  63.002  67.108  0.00  0.00    +0.000 C 
ATOM      4  C   UNL     1      61.907  62.744  66.368  0.00  0.00    +0.000 C 
ATOM      5  C   UNL     1      61.407  62.296  65.889  0.00  0.00    +0.000 C 
ATOM      6  C   UNL     1      60.648  62.105  66.149  0.00  0.00    +0.000 C 
ATOM      7  C   UNL     1      60.148  61.656  65.669  0.00  0.00    +0.000 C 
ATOM      8  C   UNL     1      60.408  61.399  64.930  0.00  0.00    +0.000 C 
ATOM      9  C   UNL     1      61.167  61.590  64.671  0.00  0.00    +0.000 C 
ATOM     10  C   UNL     1      61.426  61.333  63.930  0.00  0.00    +0.000 C 
ATOM     11  O   UNL     1      60.927  60.885  63.451  0.00  0.00    +0.000 OA
ATOM     12  C   UNL     1      62.185  61.524  63.671  0.00  0.00    +0.000 C 
ATOM     13  O   UNL     1      62.445  61.267  62.931  0.00  0.00    +0.000 OA
ATOM     14  C   UNL     1      62.685  61.972  64.150  0.00  0.00    +0.000 C 
ATOM     15  C   UNL     1      62.426  62.230  64.889  0.00  0.00    +0.000 C 
ATOM     16  C   UNL     1      61.667  62.039  65.150  0.00  0.00    +0.000 C 
ATOM     17  C   UNL     1      60.388  62.362  66.889  0.00  0.00    +0.000 C 
ATOM     18  C   UNL     1      59.675  62.260  67.290  0.00  0.00    +0.000 C 
ATOM     19  C   UNL     1      59.733  62.645  68.017  0.00  0.00    +0.000 C 
ATOM     20  C   UNL     1      60.483  62.986  68.066  0.00  0.00    +0.000 C 
ATOM     21  O   UNL     1      60.777  63.424  68.700  0.00  0.00    +0.000 OA
ENDROOT
TORSDOF 0
ENDMDL
MODEL 3
REMARK VINA RESULT:   -11.254      3.195      5.971
REMARK INTER + INTRA:         -11.254
REMARK INTER:                 -11.254
REMARK INTRA:                   0.000
REMARK UNBOUND:                 0.000
ROOT
REMARK  Name = oxabolone
REMARK                            x       y       z     vdW  Elec       q    Type
REMARK                         _______ _______ _______ _____ _____    ______ ____
ATOM      1  C   UNL     1      61.639  61.808  72.313  0.00  0.00    +0.000 C 
ATOM      2  C   UNL     1      61.431  62.497  71.908  0.00  0.00    +0.000 C 
ATOM      3  C   UNL     1      61.359  61.808  71.459  0.00  0.00    +0.000 C 
ATOM      4  C   UNL     1      61.098  61.851  70.678  0.00  0.00    +0.000 C 
ATOM      5  C   UNL     1      60.908  62.582  70.346  0.00  0.00    +0.000 C 
ATOM      6  C   UNL     1      60.980  63.271  70.795  0.00  0.00    +0.000 C 
ATOM      7  C   UNL     1      60.791  64.002  70.462  0.00  0.00    +0.000 C 
ATOM      8  C   UNL     1      60.530  64.044  69.681  0.00  0.00    +0.000 C 
ATOM      9  C   UNL     1      60.458  63.356  69.233  0.00  0.00    +0.000 C 
ATOM     10  C   UNL     1      60.197  63.399  68.450  0.00  0.00    +0.000 C 
ATOM     11  O   UNL     1      60.008  64.129  68.118  0.00  0.00    +0.000 OA
ATOM     12  C   UNL     1      60.125  62.711  68.002  0.00  0.00    +0.000 C 
ATOM     13  O   UNL     1      59.864  62.753  67.220  0.00  0.00    +0.000 OA
ATOM     14  C   UNL     1      60.315  61.980  68.334  0.00  0.00    +0.000 C 
ATOM     15  C   UNL     1      60.576  61.937  69.115  0.00  0.00    +0.000 C 
ATOM     16  C   UNL     1      60.647  62.625  69.564  0.00  0.00    +0.000 C 
ATOM     17  C   UNL     1      61.241  63.228  71.576  0.00  0.00    +0.000 C 
ATOM     18  C   UNL     1      61.365  63.808  72.149  0.00  0.00    +0.000 C 
ATOM     19  C   UNL     1      61.632  63.436  72.836  0.00  0.00    +0.000 C 
ATOM     20  C   UNL     1      61.672  62.625  72.687  0.00  0.00    +0.000 C 
ATOM     21  O   UNL     1      61.911  62.045  73.222  0.00  0.00    +0.000 OA
ENDROOT
TORSDOF 0
ENDMDL
MODEL 4
REMARK VINA RESULT:   -11.118      5.693      6.771
REMARK INTER + INTRA:         -11.118
REMARK INTER:                 -11.118
REMARK INTRA:                   0.000
REMARK UNBOUND:                 0.000
ROOT
REMARK  Name = oxabolone
REMARK                            x       y       z     vdW  Elec       q    Type
REMARK                         _______ _______ _______ _____ _____    ______ ____
ATOM      1  C   UNL     1      61.835  61.943  72.177  0.00  0.00    +0.000 C 
ATOM      2  C   UNL     1      61.219  62.358  71.816  0.00  0.00    +0.000 C 
ATOM      3  C   UNL     1      61.590  62.771  72.427  0.00  0.00    +0.000 C 
ATOM      4  C   UNL     1      61.334  63.530  72.626  0.00  0.00    +0.000 C 
ATOM      5  C   UNL     1      60.708  63.875  72.214  0.00  0.00    +0.000 C 
ATOM      6  C   UNL     1      60.337  63.462  71.604  0.00  0.00    +0.000 C 
ATOM      7  C   UNL     1      59.711  63.808  71.192  0.00  0.00    +0.000 C 
ATOM      8  C   UNL     1      59.456  64.567  71.391  0.00  0.00    +0.000 C 
ATOM      9  C   UNL     1      59.827  64.979  72.001  0.00  0.00    +0.000 C 
ATOM     10  C   UNL     1      59.570  65.739  72.200  0.00  0.00    +0.000 C 
ATOM     11  O   UNL     1      58.945  66.084  71.789  0.00  0.00    +0.000 OA
ATOM     12  C   UNL     1      59.942  66.152  72.810  0.00  0.00    +0.000 C 
ATOM     13  O   UNL     1      59.686  66.910  73.009  0.00  0.00    +0.000 OA
ATOM     14  C   UNL     1      60.568  65.806  73.222  0.00  0.00    +0.000 C 
ATOM     15  C   UNL     1      60.823  65.048  73.023  0.00  0.00    +0.000 C 
ATOM     16  C   UNL     1      60.453  64.634  72.413  0.00  0.00    +0.000 C 
ATOM     17  C   UNL     1      60.592  62.703  71.405  0.00  0.00    +0.000 C 
ATOM     18  C   UNL     1      60.336  62.166  70.834  0.00  0.00    +0.000 C 
ATOM     19  C   UNL     1      60.803  61.489  70.892  0.00  0.00    +0.000 C 
ATOM     20  C   UNL     1      61.350  61.607  71.500  0.00  0.00    +0.000 C 
ATOM     21  O   UNL     1      61.924  61.070  71.746  0.00  0.00    +0.000 OA
ENDROOT
TORSDOF 0
ENDMDL
MODEL 5
REMARK VINA RESULT:   -10.950      5.818      7.678
REMARK INTER + INTRA:         -10.950
REMARK INTER:                 -10.950
REMARK INTRA:                   0.000
REMARK UNBOUND:                 0.000
ROOT
REMARK  Name = oxabolone
REMARK                            x       y       z     vdW  Elec       q    Type
REMARK                         _______ _______ _______ _____ _____    ______ ____
ATOM      1  C   UNL     1      66.204  66.858  71.768  0.00  0.00    +0.000 C 
ATOM      2  C   UNL     1      65.748  66.837  71.080  0.00  0.00    +0.000 C 
ATOM      3  C   UNL     1      65.410  66.439  71.720  0.00  0.00    +0.000 C 
ATOM      4  C   UNL     1      64.679  66.067  71.634  0.00  0.00    +0.000 C 
ATOM      5  C   UNL     1      64.286  66.093  70.909  0.00  0.00    +0.000 C 
ATOM      6  C   UNL     1      64.624  66.490  70.270  0.00  0.00    +0.000 C 
ATOM      7  C   UNL     1      64.230  66.515  69.545  0.00  0.00    +0.000 C 
ATOM      8  C   UNL     1      63.499  66.143  69.460  0.00  0.00    +0.000 C 
ATOM      9  C   UNL     1      63.162  65.746  70.099  0.00  0.00    +0.000 C 
ATOM     10  C   UNL     1      62.430  65.373  70.013  0.00  0.00    +0.000 C 
ATOM     11  O   UNL     1      62.037  65.399  69.289  0.00  0.00    +0.000 OA
ATOM     12  C   UNL     1      62.092  64.976  70.652  0.00  0.00    +0.000 C 
ATOM     13  O   UNL     1      61.361  64.604  70.567  0.00  0.00    +0.000 OA
ATOM     14  C   UNL     1      62.485  64.951  71.377  0.00  0.00    +0.000 C 
ATOM     15  C   UNL     1      63.217  65.323  71.462  0.00  0.00    +0.000 C 
ATOM     16  C   UNL     1      63.555  65.720  70.824  0.00  0.00    +0.000 C 
ATOM     17  C   UNL     1      65.355  66.862  70.355  0.00  0.00    +0.000 C 
ATOM     18  C   UNL     1      65.821  67.292  69.828  0.00  0.00    +0.000 C 
ATOM     19  C   UNL     1      66.502  67.533  70.226  0.00  0.00    +0.000 C 
ATOM     20  C   UNL     1      66.458  67.252  71.001  0.00  0.00    +0.000 C 
ATOM     21  O   UNL     1      67.022  67.365  71.591  0.00  0.00    +0.000 OA
ENDROOT
TORSDOF 0
ENDMDL
MODEL 6
REMARK VINA RESULT:   -10.534      5.724      7.391
REMARK INTER + INTRA:         -10.534
REMARK INTER:                 -10.534
REMARK INTRA:                   0.000
REMARK UNBOUND:                 0.000
ROOT
REMARK  Name = oxabolone
REMARK                            x       y       z     vdW  Elec       q    Type
REMARK                         _______ _______ _______ _____ _____    ______ ____
ATOM      1  C   UNL     1      65.412  66.623  69.854  0.00  0.00    +0.000 C 
ATOM      2  C   UNL     1      64.932  66.603  70.526  0.00  0.00    +0.000 C 
ATOM      3  C   UNL     1      64.763  66.012  69.974  0.00  0.00    +0.000 C 
ATOM      4  C   UNL     1      64.160  65.470  70.122  0.00  0.00    +0.000 C 
ATOM      5  C   UNL     1      63.724  65.518  70.821  0.00  0.00    +0.000 C 
ATOM      6  C   UNL     1      63.893  66.109  71.373  0.00  0.00    +0.000 C 
ATOM      7  C   UNL     1      63.457  66.156  72.072  0.00  0.00    +0.000 C 
ATOM      8  C   UNL     1      62.853  65.614  72.220  0.00  0.00    +0.000 C 
ATOM      9  C   UNL     1      62.686  65.024  71.668  0.00  0.00    +0.000 C 
ATOM     10  C   UNL     1      62.081  64.481  71.817  0.00  0.00    +0.000 C 
ATOM     11  O   UNL     1      61.646  64.529  72.515  0.00  0.00    +0.000 OA
ATOM     12  C   UNL     1      61.913  63.892  71.266  0.00  0.00    +0.000 C 
ATOM     13  O   UNL     1      61.309  63.349  71.414  0.00  0.00    +0.000 OA
ATOM     14  C   UNL     1      62.348  63.843  70.566  0.00  0.00    +0.000 C 
ATOM     15  C   UNL     1      62.952  64.386  70.419  0.00  0.00    +0.000 C 
ATOM     16  C   UNL     1      63.121  64.976  70.969  0.00  0.00    +0.000 C 
ATOM     17  C   UNL     1      64.497  66.651  71.225  0.00  0.00    +0.000 C 
ATOM     18  C   UNL     1      64.786  67.288  71.662  0.00  0.00    +0.000 C 
ATOM     19  C   UNL     1      65.400  67.633  71.233  0.00  0.00    +0.000 C 
ATOM     20  C   UNL     1      65.491  67.210  70.530  0.00  0.00    +0.000 C 
ATOM     21  O   UNL     1      66.042  67.366  69.937  0.00  0.00    +0.000 OA
ENDROOT
TORSDOF 0
ENDMDL
MODEL 7
REMARK VINA RESULT:   -10.061     24.501     25.402
REMARK INTER + INTRA:         -10.061
REMARK INTER:                 -10.061
REMARK INTRA:                   0.000
REMARK UNBOUND:                 0.000
ROOT
REMARK  Name = oxabolone
REMARK                            x       y       z     vdW  Elec       q    Type
REMARK                         _______ _______ _______ _____ _____    ______ ____
ATOM      1  C   UNL     1      72.615  79.420  48.909  0.00  0.00    +0.000 C 
ATOM      2  C   UNL     1      71.823  79.320  49.122  0.00  0.00    +0.000 C 
ATOM      3  C   UNL     1      72.248  79.814  49.629  0.00  0.00    +0.000 C 
ATOM      4  C   UNL     1      71.875  80.157  50.280  0.00  0.00    +0.000 C 
ATOM      5  C   UNL     1      71.077  80.006  50.424  0.00  0.00    +0.000 C 
ATOM      6  C   UNL     1      70.652  79.513  49.917  0.00  0.00    +0.000 C 
ATOM      7  C   UNL     1      69.853  79.363  50.062  0.00  0.00    +0.000 C 
ATOM      8  C   UNL     1      69.480  79.705  50.712  0.00  0.00    +0.000 C 
ATOM      9  C   UNL     1      69.905  80.199  51.218  0.00  0.00    +0.000 C 
ATOM     10  C   UNL     1      69.531  80.542  51.870  0.00  0.00    +0.000 C 
ATOM     11  O   UNL     1      68.733  80.391  52.014  0.00  0.00    +0.000 OA
ATOM     12  C   UNL     1      69.956  81.035  52.376  0.00  0.00    +0.000 C 
ATOM     13  O   UNL     1      69.583  81.378  53.027  0.00  0.00    +0.000 OA
ATOM     14  C   UNL     1      70.754  81.185  52.232  0.00  0.00    +0.000 C 
ATOM     15  C   UNL     1      71.127  80.842  51.581  0.00  0.00    +0.000 C 
ATOM     16  C   UNL     1      70.703  80.349  51.075  0.00  0.00    +0.000 C 
ATOM     17  C   UNL     1      71.025  79.170  49.266  0.00  0.00    +0.000 C 
ATOM     18  C   UNL     1      70.750  78.664  48.675  0.00  0.00    +0.000 C 
ATOM     19  C   UNL     1      71.379  78.502  48.166  0.00  0.00    +0.000 C 
ATOM     20  C   UNL     1      72.043  78.908  48.442  0.00  0.00    +0.000 C 
ATOM     21  O   UNL     1      72.792  78.902  48.099  0.00  0.00    +0.000 OA
ENDROOT
TORSDOF 0
ENDMDL
MODEL 8
REMARK VINA RESULT:    -9.934      4.094      6.752
REMARK INTER + INTRA:          -9.934
REMARK INTER:                  -9.934
REMARK INTRA:                   0.000
REMARK UNBOUND:                 0.000
ROOT
REMARK  Name = oxabolone
REMARK                            x       y       z     vdW  Elec       q    Type
REMARK                         _______ _______ _______ _____ _____    ______ ____
ATOM      1  C   UNL     1      59.385  66.685  70.829  0.00  0.00    +0.000 C 
ATOM      2  C   UNL     1      59.454  65.965  71.228  0.00  0.00    +0.000 C 
ATOM      3  C   UNL     1      59.644  65.924  70.426  0.00  0.00    +0.000 C 
ATOM      4  C   UNL     1      59.878  65.206  70.094  0.00  0.00    +0.000 C 
ATOM      5  C   UNL     1      59.921  64.529  70.564  0.00  0.00    +0.000 C 
ATOM      6  C   UNL     1      59.730  64.571  71.366  0.00  0.00    +0.000 C 
ATOM      7  C   UNL     1      59.773  63.893  71.835  0.00  0.00    +0.000 C 
ATOM      8  C   UNL     1      60.006  63.175  71.503  0.00  0.00    +0.000 C 
ATOM      9  C   UNL     1      60.197  63.134  70.702  0.00  0.00    +0.000 C 
ATOM     10  C   UNL     1      60.431  62.415  70.370  0.00  0.00    +0.000 C 
ATOM     11  O   UNL     1      60.474  61.739  70.839  0.00  0.00    +0.000 OA
ATOM     12  C   UNL     1      60.621  62.375  69.569  0.00  0.00    +0.000 C 
ATOM     13  O   UNL     1      60.855  61.657  69.237  0.00  0.00    +0.000 OA
ATOM     14  C   UNL     1      60.578  63.051  69.099  0.00  0.00    +0.000 C 
ATOM     15  C   UNL     1      60.345  63.769  69.431  0.00  0.00    +0.000 C 
ATOM     16  C   UNL     1      60.154  63.811  70.232  0.00  0.00    +0.000 C 
ATOM     17  C   UNL     1      59.496  65.289  71.698  0.00  0.00    +0.000 C 
ATOM     18  C   UNL     1      59.277  65.496  72.465  0.00  0.00    +0.000 C 
ATOM     19  C   UNL     1      59.098  66.302  72.470  0.00  0.00    +0.000 C 
ATOM     20  C   UNL     1      59.207  66.592  71.705  0.00  0.00    +0.000 C 
ATOM     21  O   UNL     1      59.091  67.371  71.461  0.00  0.00    +0.000 OA
ENDROOT
TORSDOF 0
ENDMDL
MODEL 9
REMARK VINA RESULT:    -9.760     24.221     25.573
REMARK INTER + INTRA:          -9.760
REMARK INTER:                  -9.760
REMARK INTRA:                   0.000
REMARK UNBOUND:                 0.000
ROOT
REMARK  Name = oxabolone
REMARK                            x       y       z     vdW  Elec       q    Type
REMARK                         _______ _______ _______ _____ _____    ______ ____
ATOM      1  C   UNL     1      69.973  81.164  52.139  0.00  0.00    +0.000 C 
ATOM      2  C   UNL     1      69.801  80.606  51.556  0.00  0.00    +0.000 C 
ATOM      3  C   UNL     1      70.583  80.870  51.548  0.00  0.00    +0.000 C 
ATOM      4  C   UNL     1      71.112  80.576  50.988  0.00  0.00    +0.000 C 
ATOM      5  C   UNL     1      70.860  80.016  50.436  0.00  0.00    +0.000 C 
ATOM      6  C   UNL     1      70.078  79.752  50.445  0.00  0.00    +0.000 C 
ATOM      7  C   UNL     1      69.826  79.192  49.893  0.00  0.00    +0.000 C 
ATOM      8  C   UNL     1      70.355  78.898  49.333  0.00  0.00    +0.000 C 
ATOM      9  C   UNL     1      71.136  79.163  49.325  0.00  0.00    +0.000 C 
ATOM     10  C   UNL     1      71.666  78.867  48.764  0.00  0.00    +0.000 C 
ATOM     11  O   UNL     1      71.414  78.309  48.213  0.00  0.00    +0.000 OA
ATOM     12  C   UNL     1      72.447  79.132  48.756  0.00  0.00    +0.000 C 
ATOM     13  O   UNL     1      72.976  78.838  48.196  0.00  0.00    +0.000 OA
ATOM     14  C   UNL     1      72.699  79.691  49.307  0.00  0.00    +0.000 C 
ATOM     15  C   UNL     1      72.170  79.986  49.867  0.00  0.00    +0.000 C 
ATOM     16  C   UNL     1      71.389  79.722  49.876  0.00  0.00    +0.000 C 
ATOM     17  C   UNL     1      69.549  80.046  51.005  0.00  0.00    +0.000 C 
ATOM     18  C   UNL     1      68.752  79.890  51.147  0.00  0.00    +0.000 C 
ATOM     19  C   UNL     1      68.511  80.353  51.786  0.00  0.00    +0.000 C 
ATOM     20  C   UNL     1      69.160  80.796  52.040  0.00  0.00    +0.000 C 
ATOM     21  O   UNL     1      69.166  81.332  52.665  0.00  0.00    +0.000 OA
ENDROOT
TORSDOF 0
ENDMDL
