MODEL 1
REMARK VINA RESULT:   -15.181      0.000      0.000
REMARK INTER + INTRA:         -15.181
REMARK INTER:                 -15.181
REMARK INTRA:                   0.000
REMARK UNBOUND:                 0.000
ROOT
REMARK  Name = oxatomide
REMARK                            x       y       z     vdW  Elec       q    Type
REMARK                         _______ _______ _______ _____ _____    ______ ____
ATOM      1  O   UNL     1      58.926  61.611  66.034  0.00  0.00    +0.000 OA
ATOM      2  C   UNL     1      59.723  61.810  65.961  0.00  0.00    +0.000 A 
ATOM      3  N   UNL     1      60.199  61.672  65.301  0.00  0.00    +0.000 NA
ATOM      4  C   UNL     1      60.954  61.959  65.467  0.00  0.00    +0.000 A 
ATOM      5  C   UNL     1      60.945  62.275  66.230  0.00  0.00    +0.000 A 
ATOM      6  C   UNL     1      61.632  62.605  66.547  0.00  0.00    +0.000 A 
ATOM      7  C   UNL     1      62.326  62.620  66.102  0.00  0.00    +0.000 A 
ATOM      8  C   UNL     1      62.335  62.305  65.340  0.00  0.00    +0.000 A 
ATOM      9  C   UNL     1      61.649  61.974  65.022  0.00  0.00    +0.000 A 
ATOM     10  N   UNL     1      60.185  62.183  66.535  0.00  0.00    +0.000 N 
ATOM     11  C   UNL     1      59.931  62.421  67.282  0.00  0.00    +0.000 C 
ATOM     12  C   UNL     1      60.457  62.788  67.799  0.00  0.00    +0.000 C 
ATOM     13  C   UNL     1      60.203  63.027  68.547  0.00  0.00    +0.000 C 
ATOM     14  N   UNL     1      60.730  63.394  69.065  0.00  0.00    +0.000 NA
ATOM     15  C   UNL     1      60.475  63.633  69.813  0.00  0.00    +0.000 C 
ATOM     16  C   UNL     1      61.002  64.000  70.330  0.00  0.00    +0.000 C 
ATOM     17  N   UNL     1      61.784  64.130  70.099  0.00  0.00    +0.000 NA
ATOM     18  C   UNL     1      62.038  63.892  69.352  0.00  0.00    +0.000 C 
ATOM     19  C   UNL     1      61.511  63.524  68.834  0.00  0.00    +0.000 C 
ATOM     20  C   UNL     1      62.311  64.497  70.617  0.00  0.00    +0.000 C 
ATOM     21  C   UNL     1      63.092  64.627  70.387  0.00  0.00    +0.000 A 
ATOM     22  C   UNL     1      63.619  64.995  70.904  0.00  0.00    +0.000 A 
ATOM     23  C   UNL     1      64.401  65.124  70.673  0.00  0.00    +0.000 A 
ATOM     24  C   UNL     1      64.655  64.886  69.926  0.00  0.00    +0.000 A 
ATOM     25  C   UNL     1      64.128  64.518  69.409  0.00  0.00    +0.000 A 
ATOM     26  C   UNL     1      63.347  64.389  69.639  0.00  0.00    +0.000 A 
ATOM     27  C   UNL     1      62.056  64.736  71.365  0.00  0.00    +0.000 A 
ATOM     28  C   UNL     1      61.274  64.606  71.595  0.00  0.00    +0.000 A 
ATOM     29  C   UNL     1      61.020  64.845  72.343  0.00  0.00    +0.000 A 
ATOM     30  C   UNL     1      61.547  65.212  72.860  0.00  0.00    +0.000 A 
ATOM     31  C   UNL     1      62.328  65.342  72.630  0.00  0.00    +0.000 A 
ATOM     32  C   UNL     1      62.583  65.104  71.882  0.00  0.00    +0.000 A 
ENDROOT
TORSDOF 0
ENDMDL
MODEL 2
REMARK VINA RESULT:   -14.206      2.737      5.851
REMARK INTER + INTRA:         -14.206
REMARK INTER:                 -14.206
REMARK INTRA:                   0.000
REMARK UNBOUND:                 0.000
ROOT
REMARK  Name = oxatomide
REMARK                            x       y       z     vdW  Elec       q    Type
REMARK                         _______ _______ _______ _____ _____    ______ ____
ATOM      1  O   UNL     1      66.159  67.696  69.114  0.00  0.00    +0.000 OA
ATOM      2  C   UNL     1      65.970  67.427  69.871  0.00  0.00    +0.000 A 
ATOM      3  N   UNL     1      66.311  67.684  70.576  0.00  0.00    +0.000 NA
ATOM      4  C   UNL     1      65.958  67.270  71.196  0.00  0.00    +0.000 A 
ATOM      5  C   UNL     1      65.398  66.756  70.873  0.00  0.00    +0.000 A 
ATOM      6  C   UNL     1      64.955  66.267  71.368  0.00  0.00    +0.000 A 
ATOM      7  C   UNL     1      65.070  66.290  72.183  0.00  0.00    +0.000 A 
ATOM      8  C   UNL     1      65.630  66.804  72.506  0.00  0.00    +0.000 A 
ATOM      9  C   UNL     1      66.074  67.293  72.013  0.00  0.00    +0.000 A 
ATOM     10  N   UNL     1      65.405  66.853  70.054  0.00  0.00    +0.000 N 
ATOM     11  C   UNL     1      64.932  66.449  69.514  0.00  0.00    +0.000 C 
ATOM     12  C   UNL     1      64.390  65.887  69.780  0.00  0.00    +0.000 C 
ATOM     13  C   UNL     1      63.916  65.482  69.240  0.00  0.00    +0.000 C 
ATOM     14  N   UNL     1      63.373  64.921  69.506  0.00  0.00    +0.000 NA
ATOM     15  C   UNL     1      62.899  64.516  68.965  0.00  0.00    +0.000 C 
ATOM     16  C   UNL     1      62.357  63.954  69.232  0.00  0.00    +0.000 C 
ATOM     17  N   UNL     1      62.288  63.798  70.039  0.00  0.00    +0.000 NA
ATOM     18  C   UNL     1      62.761  64.203  70.579  0.00  0.00    +0.000 C 
ATOM     19  C   UNL     1      63.304  64.765  70.313  0.00  0.00    +0.000 C 
ATOM     20  C   UNL     1      61.745  63.237  70.306  0.00  0.00    +0.000 C 
ATOM     21  C   UNL     1      61.676  63.080  71.113  0.00  0.00    +0.000 A 
ATOM     22  C   UNL     1      61.133  62.519  71.379  0.00  0.00    +0.000 A 
ATOM     23  C   UNL     1      61.065  62.363  72.186  0.00  0.00    +0.000 A 
ATOM     24  C   UNL     1      61.538  62.767  72.727  0.00  0.00    +0.000 A 
ATOM     25  C   UNL     1      62.081  63.329  72.460  0.00  0.00    +0.000 A 
ATOM     26  C   UNL     1      62.150  63.485  71.653  0.00  0.00    +0.000 A 
ATOM     27  C   UNL     1      61.271  62.832  69.765  0.00  0.00    +0.000 A 
ATOM     28  C   UNL     1      61.341  62.989  68.958  0.00  0.00    +0.000 A 
ATOM     29  C   UNL     1      60.867  62.583  68.417  0.00  0.00    +0.000 A 
ATOM     30  C   UNL     1      60.324  62.022  68.684  0.00  0.00    +0.000 A 
ATOM     31  C   UNL     1      60.255  61.865  69.491  0.00  0.00    +0.000 A 
ATOM     32  C   UNL     1      60.729  62.271  70.031  0.00  0.00    +0.000 A 
ENDROOT
TORSDOF 0
ENDMDL
MODEL 3
REMARK VINA RESULT:   -14.026      1.121      2.562
REMARK INTER + INTRA:         -14.026
REMARK INTER:                 -14.026
REMARK INTRA:                   0.000
REMARK UNBOUND:                 0.000
ROOT
REMARK  Name = oxatomide
REMARK                            x       y       z     vdW  Elec       q    Type
REMARK                         _______ _______ _______ _____ _____    ______ ____
ATOM      1  O   UNL     1      62.175  62.491  65.285  0.00  0.00    +0.000 OA
ATOM      2  C   UNL     1      61.476  62.433  65.719  0.00  0.00    +0.000 A 
ATOM      3  N   UNL     1      60.781  62.063  65.472  0.00  0.00    +0.000 NA
ATOM      4  C   UNL     1      60.225  62.137  66.076  0.00  0.00    +0.000 A 
ATOM      5  C   UNL     1      60.575  62.554  66.696  0.00  0.00    +0.000 A 
ATOM      6  C   UNL     1      60.143  62.712  67.381  0.00  0.00    +0.000 A 
ATOM      7  C   UNL     1      59.363  62.454  67.447  0.00  0.00    +0.000 A 
ATOM      8  C   UNL     1      59.013  62.038  66.827  0.00  0.00    +0.000 A 
ATOM      9  C   UNL     1      59.443  61.879  66.141  0.00  0.00    +0.000 A 
ATOM     10  N   UNL     1      61.348  62.737  66.476  0.00  0.00    +0.000 N 
ATOM     11  C   UNL     1      61.897  63.150  66.931  0.00  0.00    +0.000 C 
ATOM     12  C   UNL     1      61.689  63.421  67.682  0.00  0.00    +0.000 C 
ATOM     13  C   UNL     1      62.238  63.835  68.138  0.00  0.00    +0.000 C 
ATOM     14  N   UNL     1      62.030  64.107  68.889  0.00  0.00    +0.000 NA
ATOM     15  C   UNL     1      62.579  64.521  69.345  0.00  0.00    +0.000 C 
ATOM     16  C   UNL     1      62.371  64.792  70.096  0.00  0.00    +0.000 C 
ATOM     17  N   UNL     1      61.614  64.649  70.391  0.00  0.00    +0.000 NA
ATOM     18  C   UNL     1      61.065  64.235  69.935  0.00  0.00    +0.000 C 
ATOM     19  C   UNL     1      61.273  63.964  69.184  0.00  0.00    +0.000 C 
ATOM     20  C   UNL     1      61.406  64.920  71.141  0.00  0.00    +0.000 C 
ATOM     21  C   UNL     1      60.649  64.777  71.437  0.00  0.00    +0.000 A 
ATOM     22  C   UNL     1      60.441  65.049  72.188  0.00  0.00    +0.000 A 
ATOM     23  C   UNL     1      59.684  64.906  72.482  0.00  0.00    +0.000 A 
ATOM     24  C   UNL     1      59.135  64.492  72.027  0.00  0.00    +0.000 A 
ATOM     25  C   UNL     1      59.343  64.221  71.276  0.00  0.00    +0.000 A 
ATOM     26  C   UNL     1      60.100  64.364  70.981  0.00  0.00    +0.000 A 
ATOM     27  C   UNL     1      61.955  65.334  71.598  0.00  0.00    +0.000 A 
ATOM     28  C   UNL     1      62.712  65.476  71.302  0.00  0.00    +0.000 A 
ATOM     29  C   UNL     1      63.262  65.890  71.758  0.00  0.00    +0.000 A 
ATOM     30  C   UNL     1      63.054  66.161  72.509  0.00  0.00    +0.000 A 
ATOM     31  C   UNL     1      62.297  66.019  72.805  0.00  0.00    +0.000 A 
ATOM     32  C   UNL     1      61.747  65.605  72.348  0.00  0.00    +0.000 A 
ENDROOT
TORSDOF 0
ENDMDL
MODEL 4
REMARK VINA RESULT:   -13.678      1.793      6.020
REMARK INTER + INTRA:         -13.678
REMARK INTER:                 -13.678
REMARK INTRA:                   0.000
REMARK UNBOUND:                 0.000
ROOT
REMARK  Name = oxatomide
REMARK                            x       y       z     vdW  Elec       q    Type
REMARK                         _______ _______ _______ _____ _____    ______ ____
ATOM      1  O   UNL     1      62.805  65.402  71.878  0.00  0.00    +0.000 OA
ATOM      2  C   UNL     1      62.037  65.135  71.739  0.00  0.00    +0.000 A 
ATOM      3  N   UNL     1      61.401  65.196  72.261  0.00  0.00    +0.000 NA
ATOM      4  C   UNL     1      60.741  64.860  71.899  0.00  0.00    +0.000 A 
ATOM      5  C   UNL     1      60.968  64.591  71.153  0.00  0.00    +0.000 A 
ATOM      6  C   UNL     1      60.416  64.227  70.660  0.00  0.00    +0.000 A 
ATOM      7  C   UNL     1      59.637  64.130  70.913  0.00  0.00    +0.000 A 
ATOM      8  C   UNL     1      59.410  64.399  71.659  0.00  0.00    +0.000 A 
ATOM      9  C   UNL     1      59.961  64.764  72.152  0.00  0.00    +0.000 A 
ATOM     10  N   UNL     1      61.769  64.761  71.054  0.00  0.00    +0.000 N 
ATOM     11  C   UNL     1      62.223  64.589  70.388  0.00  0.00    +0.000 C 
ATOM     12  C   UNL     1      61.878  64.211  69.740  0.00  0.00    +0.000 C 
ATOM     13  C   UNL     1      62.332  64.038  69.073  0.00  0.00    +0.000 C 
ATOM     14  N   UNL     1      61.987  63.660  68.426  0.00  0.00    +0.000 NA
ATOM     15  C   UNL     1      62.441  63.487  67.759  0.00  0.00    +0.000 C 
ATOM     16  C   UNL     1      62.096  63.109  67.112  0.00  0.00    +0.000 C 
ATOM     17  N   UNL     1      61.297  62.905  67.132  0.00  0.00    +0.000 NA
ATOM     18  C   UNL     1      60.843  63.078  67.798  0.00  0.00    +0.000 C 
ATOM     19  C   UNL     1      61.188  63.456  68.446  0.00  0.00    +0.000 C 
ATOM     20  C   UNL     1      60.952  62.527  66.485  0.00  0.00    +0.000 C 
ATOM     21  C   UNL     1      60.153  62.322  66.504  0.00  0.00    +0.000 A 
ATOM     22  C   UNL     1      59.808  61.945  65.857  0.00  0.00    +0.000 A 
ATOM     23  C   UNL     1      59.009  61.740  65.877  0.00  0.00    +0.000 A 
ATOM     24  C   UNL     1      58.555  61.913  66.543  0.00  0.00    +0.000 A 
ATOM     25  C   UNL     1      58.900  62.291  67.190  0.00  0.00    +0.000 A 
ATOM     26  C   UNL     1      59.699  62.495  67.171  0.00  0.00    +0.000 A 
ATOM     27  C   UNL     1      61.406  62.354  65.818  0.00  0.00    +0.000 A 
ATOM     28  C   UNL     1      62.205  62.559  65.799  0.00  0.00    +0.000 A 
ATOM     29  C   UNL     1      62.659  62.385  65.132  0.00  0.00    +0.000 A 
ATOM     30  C   UNL     1      62.314  62.008  64.484  0.00  0.00    +0.000 A 
ATOM     31  C   UNL     1      61.515  61.803  64.503  0.00  0.00    +0.000 A 
ATOM     32  C   UNL     1      61.061  61.976  65.171  0.00  0.00    +0.000 A 
ENDROOT
TORSDOF 0
ENDMDL
MODEL 5
REMARK VINA RESULT:   -13.567      2.547      4.382
REMARK INTER + INTRA:         -13.567
REMARK INTER:                 -13.567
REMARK INTRA:                   0.000
REMARK UNBOUND:                 0.000
ROOT
REMARK  Name = oxatomide
REMARK                            x       y       z     vdW  Elec       q    Type
REMARK                         _______ _______ _______ _____ _____    ______ ____
ATOM      1  O   UNL     1      60.998  61.626  69.181  0.00  0.00    +0.000 OA
ATOM      2  C   UNL     1      60.773  62.113  69.807  0.00  0.00    +0.000 A 
ATOM      3  N   UNL     1      60.104  62.017  70.280  0.00  0.00    +0.000 NA
ATOM      4  C   UNL     1      60.094  62.626  70.835  0.00  0.00    +0.000 A 
ATOM      5  C   UNL     1      60.757  63.100  70.706  0.00  0.00    +0.000 A 
ATOM      6  C   UNL     1      60.893  63.758  71.184  0.00  0.00    +0.000 A 
ATOM      7  C   UNL     1      60.366  63.944  71.791  0.00  0.00    +0.000 A 
ATOM      8  C   UNL     1      59.703  63.470  71.920  0.00  0.00    +0.000 A 
ATOM      9  C   UNL     1      59.566  62.812  71.443  0.00  0.00    +0.000 A 
ATOM     10  N   UNL     1      61.177  62.783  70.071  0.00  0.00    +0.000 N 
ATOM     11  C   UNL     1      61.877  63.082  69.755  0.00  0.00    +0.000 C 
ATOM     12  C   UNL     1      62.218  63.760  70.078  0.00  0.00    +0.000 C 
ATOM     13  C   UNL     1      62.919  64.060  69.761  0.00  0.00    +0.000 C 
ATOM     14  N   UNL     1      63.261  64.738  70.084  0.00  0.00    +0.000 NA
ATOM     15  C   UNL     1      63.962  65.038  69.768  0.00  0.00    +0.000 C 
ATOM     16  C   UNL     1      64.303  65.716  70.091  0.00  0.00    +0.000 C 
ATOM     17  N   UNL     1      63.944  66.093  70.730  0.00  0.00    +0.000 NA
ATOM     18  C   UNL     1      63.244  65.794  71.047  0.00  0.00    +0.000 C 
ATOM     19  C   UNL     1      62.902  65.116  70.724  0.00  0.00    +0.000 C 
ATOM     20  C   UNL     1      64.286  66.771  71.053  0.00  0.00    +0.000 C 
ATOM     21  C   UNL     1      63.928  67.150  71.693  0.00  0.00    +0.000 A 
ATOM     22  C   UNL     1      64.269  67.828  72.016  0.00  0.00    +0.000 A 
ATOM     23  C   UNL     1      63.910  68.205  72.655  0.00  0.00    +0.000 A 
ATOM     24  C   UNL     1      63.210  67.906  72.972  0.00  0.00    +0.000 A 
ATOM     25  C   UNL     1      62.869  67.228  72.649  0.00  0.00    +0.000 A 
ATOM     26  C   UNL     1      63.227  66.850  72.009  0.00  0.00    +0.000 A 
ATOM     27  C   UNL     1      64.987  67.071  70.737  0.00  0.00    +0.000 A 
ATOM     28  C   UNL     1      65.345  66.693  70.097  0.00  0.00    +0.000 A 
ATOM     29  C   UNL     1      66.046  66.993  69.781  0.00  0.00    +0.000 A 
ATOM     30  C   UNL     1      66.387  67.670  70.104  0.00  0.00    +0.000 A 
ATOM     31  C   UNL     1      66.029  68.049  70.743  0.00  0.00    +0.000 A 
ATOM     32  C   UNL     1      65.328  67.749  71.060  0.00  0.00    +0.000 A 
ENDROOT
TORSDOF 0
ENDMDL
