MODEL 1
REMARK VINA RESULT:    -9.053      0.000      0.000
REMARK INTER + INTRA:          -9.053
REMARK INTER:                  -9.053
REMARK INTRA:                   0.000
REMARK UNBOUND:                 0.000
ROOT
REMARK  Name = oxibendazole
REMARK                            x       y       z     vdW  Elec       q    Type
REMARK                         _______ _______ _______ _____ _____    ______ ____
ATOM      1  C   UNL     1      60.068  62.044  71.284  0.00  0.00    +0.000 C 
ATOM      2  C   UNL     1      60.353  61.680  70.601  0.00  0.00    +0.000 C 
ATOM      3  C   UNL     1      60.465  62.122  69.913  0.00  0.00    +0.000 C 
ATOM      4  O   UNL     1      60.750  61.758  69.230  0.00  0.00    +0.000 OA
ATOM      5  C   UNL     1      60.861  62.200  68.543  0.00  0.00    +0.000 A 
ATOM      6  C   UNL     1      61.146  61.836  67.860  0.00  0.00    +0.000 A 
ATOM      7  C   UNL     1      61.258  62.277  67.172  0.00  0.00    +0.000 A 
ATOM      8  C   UNL     1      61.084  63.084  67.167  0.00  0.00    +0.000 A 
ATOM      9  N   UNL     1      61.248  63.376  66.414  0.00  0.00    +0.000 NA
ATOM     10  C   UNL     1      61.523  62.750  65.952  0.00  0.00    +0.000 A 
ATOM     11  N   UNL     1      61.752  62.795  65.161  0.00  0.00    +0.000 NA
ATOM     12  C   UNL     1      62.017  62.118  64.769  0.00  0.00    +0.000 C 
ATOM     13  O   UNL     1      62.052  61.398  65.169  0.00  0.00    +0.000 OA
ATOM     14  O   UNL     1      62.246  62.163  63.978  0.00  0.00    +0.000 OA
ATOM     15  C   UNL     1      62.510  61.487  63.586  0.00  0.00    +0.000 C 
ATOM     16  N   UNL     1      61.529  62.071  66.421  0.00  0.00    +0.000 NA
ATOM     17  C   UNL     1      60.799  63.449  67.851  0.00  0.00    +0.000 A 
ATOM     18  C   UNL     1      60.688  63.006  68.538  0.00  0.00    +0.000 A 
ENDROOT
TORSDOF 0
ENDMDL
MODEL 2
REMARK VINA RESULT:    -8.839      1.672      4.618
REMARK INTER + INTRA:          -8.839
REMARK INTER:                  -8.839
REMARK INTRA:                   0.000
REMARK UNBOUND:                 0.000
ROOT
REMARK  Name = oxibendazole
REMARK                            x       y       z     vdW  Elec       q    Type
REMARK                         _______ _______ _______ _____ _____    ______ ____
ATOM      1  C   UNL     1      62.183  61.622  63.624  0.00  0.00    +0.000 C 
ATOM      2  C   UNL     1      62.386  62.001  64.329  0.00  0.00    +0.000 C 
ATOM      3  C   UNL     1      61.820  62.104  64.920  0.00  0.00    +0.000 C 
ATOM      4  O   UNL     1      62.023  62.483  65.624  0.00  0.00    +0.000 OA
ATOM      5  C   UNL     1      61.457  62.586  66.215  0.00  0.00    +0.000 A 
ATOM      6  C   UNL     1      61.660  62.964  66.919  0.00  0.00    +0.000 A 
ATOM      7  C   UNL     1      61.094  63.067  67.511  0.00  0.00    +0.000 A 
ATOM      8  C   UNL     1      60.325  62.791  67.398  0.00  0.00    +0.000 A 
ATOM      9  N   UNL     1      59.888  62.969  68.074  0.00  0.00    +0.000 NA
ATOM     10  C   UNL     1      60.387  63.357  68.605  0.00  0.00    +0.000 A 
ATOM     11  N   UNL     1      60.177  63.635  69.353  0.00  0.00    +0.000 NA
ATOM     12  C   UNL     1      60.739  64.013  69.825  0.00  0.00    +0.000 C 
ATOM     13  O   UNL     1      61.509  64.114  69.548  0.00  0.00    +0.000 OA
ATOM     14  O   UNL     1      60.529  64.291  70.573  0.00  0.00    +0.000 OA
ATOM     15  C   UNL     1      61.090  64.670  71.044  0.00  0.00    +0.000 C 
ATOM     16  N   UNL     1      61.132  63.417  68.256  0.00  0.00    +0.000 NA
ATOM     17  C   UNL     1      60.122  62.411  66.693  0.00  0.00    +0.000 A 
ATOM     18  C   UNL     1      60.688  62.309  66.102  0.00  0.00    +0.000 A 
ENDROOT
TORSDOF 0
ENDMDL
MODEL 3
REMARK VINA RESULT:    -8.631      2.411      5.143
REMARK INTER + INTRA:          -8.631
REMARK INTER:                  -8.631
REMARK INTRA:                   0.000
REMARK UNBOUND:                 0.000
ROOT
REMARK  Name = oxibendazole
REMARK                            x       y       z     vdW  Elec       q    Type
REMARK                         _______ _______ _______ _____ _____    ______ ____
ATOM      1  C   UNL     1      61.830  62.216  65.204  0.00  0.00    +0.000 C 
ATOM      2  C   UNL     1      61.861  62.726  65.852  0.00  0.00    +0.000 C 
ATOM      3  C   UNL     1      61.523  62.502  66.570  0.00  0.00    +0.000 C 
ATOM      4  O   UNL     1      61.554  63.012  67.218  0.00  0.00    +0.000 OA
ATOM      5  C   UNL     1      61.215  62.789  67.936  0.00  0.00    +0.000 A 
ATOM      6  C   UNL     1      61.247  63.298  68.583  0.00  0.00    +0.000 A 
ATOM      7  C   UNL     1      60.908  63.075  69.302  0.00  0.00    +0.000 A 
ATOM      8  C   UNL     1      60.538  62.341  69.372  0.00  0.00    +0.000 A 
ATOM      9  N   UNL     1      60.255  62.271  70.143  0.00  0.00    +0.000 NA
ATOM     10  C   UNL     1      60.450  62.962  70.550  0.00  0.00    +0.000 A 
ATOM     11  N   UNL     1      60.272  63.127  71.338  0.00  0.00    +0.000 NA
ATOM     12  C   UNL     1      60.504  63.846  71.672  0.00  0.00    +0.000 C 
ATOM     13  O   UNL     1      60.913  64.399  71.216  0.00  0.00    +0.000 OA
ATOM     14  O   UNL     1      60.327  64.011  72.460  0.00  0.00    +0.000 OA
ATOM     15  C   UNL     1      60.558  64.729  72.793  0.00  0.00    +0.000 C 
ATOM     16  N   UNL     1      60.853  63.458  70.029  0.00  0.00    +0.000 NA
ATOM     17  C   UNL     1      60.507  61.830  68.724  0.00  0.00    +0.000 A 
ATOM     18  C   UNL     1      60.846  62.055  68.006  0.00  0.00    +0.000 A 
ENDROOT
TORSDOF 0
ENDMDL
MODEL 4
REMARK VINA RESULT:    -8.621      2.631      4.931
REMARK INTER + INTRA:          -8.621
REMARK INTER:                  -8.621
REMARK INTRA:                   0.000
REMARK UNBOUND:                 0.000
ROOT
REMARK  Name = oxibendazole
REMARK                            x       y       z     vdW  Elec       q    Type
REMARK                         _______ _______ _______ _____ _____    ______ ____
ATOM      1  C   UNL     1      62.011  61.437  65.354  0.00  0.00    +0.000 C 
ATOM      2  C   UNL     1      61.795  62.173  65.660  0.00  0.00    +0.000 C 
ATOM      3  C   UNL     1      61.532  62.234  66.439  0.00  0.00    +0.000 C 
ATOM      4  O   UNL     1      61.316  62.969  66.745  0.00  0.00    +0.000 OA
ATOM      5  C   UNL     1      61.053  63.031  67.524  0.00  0.00    +0.000 A 
ATOM      6  C   UNL     1      60.837  63.766  67.830  0.00  0.00    +0.000 A 
ATOM      7  C   UNL     1      60.574  63.828  68.609  0.00  0.00    +0.000 A 
ATOM      8  C   UNL     1      60.527  63.154  69.083  0.00  0.00    +0.000 A 
ATOM      9  N   UNL     1      60.250  63.383  69.825  0.00  0.00    +0.000 NA
ATOM     10  C   UNL     1      60.125  64.198  69.810  0.00  0.00    +0.000 A 
ATOM     11  N   UNL     1      59.849  64.658  70.437  0.00  0.00    +0.000 NA
ATOM     12  C   UNL     1      59.751  65.472  70.340  0.00  0.00    +0.000 C 
ATOM     13  O   UNL     1      59.930  65.825  69.616  0.00  0.00    +0.000 OA
ATOM     14  O   UNL     1      59.475  65.932  70.966  0.00  0.00    +0.000 OA
ATOM     15  C   UNL     1      59.377  66.745  70.869  0.00  0.00    +0.000 C 
ATOM     16  N   UNL     1      60.326  64.472  69.059  0.00  0.00    +0.000 NA
ATOM     17  C   UNL     1      60.744  62.418  68.778  0.00  0.00    +0.000 A 
ATOM     18  C   UNL     1      61.006  62.357  67.998  0.00  0.00    +0.000 A 
ENDROOT
TORSDOF 0
ENDMDL
MODEL 5
REMARK VINA RESULT:    -8.467      4.249      5.297
REMARK INTER + INTRA:          -8.467
REMARK INTER:                  -8.467
REMARK INTRA:                   0.000
REMARK UNBOUND:                 0.000
ROOT
REMARK  Name = oxibendazole
REMARK                            x       y       z     vdW  Elec       q    Type
REMARK                         _______ _______ _______ _____ _____    ______ ____
ATOM      1  C   UNL     1      66.233  67.650  70.341  0.00  0.00    +0.000 C 
ATOM      2  C   UNL     1      65.751  67.203  69.843  0.00  0.00    +0.000 C 
ATOM      3  C   UNL     1      65.198  66.681  70.162  0.00  0.00    +0.000 C 
ATOM      4  O   UNL     1      64.716  66.234  69.663  0.00  0.00    +0.000 OA
ATOM      5  C   UNL     1      64.163  65.713  69.982  0.00  0.00    +0.000 A 
ATOM      6  C   UNL     1      63.682  65.266  69.484  0.00  0.00    +0.000 A 
ATOM      7  C   UNL     1      63.128  64.744  69.803  0.00  0.00    +0.000 A 
ATOM      8  C   UNL     1      63.057  64.668  70.622  0.00  0.00    +0.000 A 
ATOM      9  N   UNL     1      62.467  64.114  70.776  0.00  0.00    +0.000 NA
ATOM     10  C   UNL     1      62.173  63.846  70.054  0.00  0.00    +0.000 A 
ATOM     11  N   UNL     1      61.576  63.286  69.950  0.00  0.00    +0.000 NA
ATOM     12  C   UNL     1      61.339  63.072  69.189  0.00  0.00    +0.000 C 
ATOM     13  O   UNL     1      61.700  63.417  68.532  0.00  0.00    +0.000 OA
ATOM     14  O   UNL     1      60.741  62.512  69.085  0.00  0.00    +0.000 OA
ATOM     15  C   UNL     1      60.504  62.298  68.325  0.00  0.00    +0.000 C 
ATOM     16  N   UNL     1      62.582  64.235  69.453  0.00  0.00    +0.000 NA
ATOM     17  C   UNL     1      63.539  65.116  71.121  0.00  0.00    +0.000 A 
ATOM     18  C   UNL     1      64.092  65.637  70.801  0.00  0.00    +0.000 A 
ENDROOT
TORSDOF 0
ENDMDL
MODEL 6
REMARK VINA RESULT:    -8.040      2.090      2.590
REMARK INTER + INTRA:          -8.040
REMARK INTER:                  -8.040
REMARK INTRA:                   0.000
REMARK UNBOUND:                 0.000
ROOT
REMARK  Name = oxibendazole
REMARK                            x       y       z     vdW  Elec       q    Type
REMARK                         _______ _______ _______ _____ _____    ______ ____
ATOM      1  C   UNL     1      59.361  66.317  71.379  0.00  0.00    +0.000 C 
ATOM      2  C   UNL     1      59.654  66.187  70.618  0.00  0.00    +0.000 C 
ATOM      3  C   UNL     1      59.833  65.422  70.370  0.00  0.00    +0.000 C 
ATOM      4  O   UNL     1      60.126  65.292  69.609  0.00  0.00    +0.000 OA
ATOM      5  C   UNL     1      60.305  64.527  69.361  0.00  0.00    +0.000 A 
ATOM      6  C   UNL     1      60.597  64.398  68.601  0.00  0.00    +0.000 A 
ATOM      7  C   UNL     1      60.777  63.632  68.352  0.00  0.00    +0.000 A 
ATOM      8  C   UNL     1      60.663  62.995  68.863  0.00  0.00    +0.000 A 
ATOM      9  N   UNL     1      60.887  62.307  68.468  0.00  0.00    +0.000 NA
ATOM     10  C   UNL     1      61.139  62.518  67.712  0.00  0.00    +0.000 A 
ATOM     11  N   UNL     1      61.411  62.001  67.129  0.00  0.00    +0.000 NA
ATOM     12  C   UNL     1      61.647  62.295  66.394  0.00  0.00    +0.000 C 
ATOM     13  O   UNL     1      61.609  63.105  66.243  0.00  0.00    +0.000 OA
ATOM     14  O   UNL     1      61.919  61.778  65.812  0.00  0.00    +0.000 OA
ATOM     15  C   UNL     1      62.154  62.071  65.078  0.00  0.00    +0.000 C 
ATOM     16  N   UNL     1      61.071  63.337  67.641  0.00  0.00    +0.000 NA
ATOM     17  C   UNL     1      60.370  63.124  69.625  0.00  0.00    +0.000 A 
ATOM     18  C   UNL     1      60.191  63.890  69.872  0.00  0.00    +0.000 A 
ENDROOT
TORSDOF 0
ENDMDL
MODEL 7
REMARK VINA RESULT:    -7.731      4.838      6.141
REMARK INTER + INTRA:          -7.731
REMARK INTER:                  -7.731
REMARK INTRA:                   0.000
REMARK UNBOUND:                 0.000
ROOT
REMARK  Name = oxibendazole
REMARK                            x       y       z     vdW  Elec       q    Type
REMARK                         _______ _______ _______ _____ _____    ______ ____
ATOM      1  C   UNL     1      63.256  69.039  73.219  0.00  0.00    +0.000 C 
ATOM      2  C   UNL     1      62.717  68.421  73.121  0.00  0.00    +0.000 C 
ATOM      3  C   UNL     1      62.929  67.752  72.689  0.00  0.00    +0.000 C 
ATOM      4  O   UNL     1      62.390  67.135  72.591  0.00  0.00    +0.000 OA
ATOM      5  C   UNL     1      62.603  66.466  72.158  0.00  0.00    +0.000 A 
ATOM      6  C   UNL     1      62.064  65.850  72.061  0.00  0.00    +0.000 A 
ATOM      7  C   UNL     1      62.276  65.180  71.628  0.00  0.00    +0.000 A 
ATOM      8  C   UNL     1      63.028  65.127  71.293  0.00  0.00    +0.000 A 
ATOM      9  N   UNL     1      63.082  64.405  70.899  0.00  0.00    +0.000 NA
ATOM     10  C   UNL     1      62.363  64.012  70.989  0.00  0.00    +0.000 A 
ATOM     11  N   UNL     1      62.174  63.269  70.683  0.00  0.00    +0.000 NA
ATOM     12  C   UNL     1      61.428  62.943  70.820  0.00  0.00    +0.000 C 
ATOM     13  O   UNL     1      60.871  63.361  71.263  0.00  0.00    +0.000 OA
ATOM     14  O   UNL     1      61.240  62.201  70.514  0.00  0.00    +0.000 OA
ATOM     15  C   UNL     1      60.494  61.876  70.651  0.00  0.00    +0.000 C 
ATOM     16  N   UNL     1      61.865  64.491  71.440  0.00  0.00    +0.000 NA
ATOM     17  C   UNL     1      63.568  65.744  71.391  0.00  0.00    +0.000 A 
ATOM     18  C   UNL     1      63.355  66.413  71.823  0.00  0.00    +0.000 A 
ENDROOT
TORSDOF 0
ENDMDL
MODEL 8
REMARK VINA RESULT:    -7.662      5.171      6.663
REMARK INTER + INTRA:          -7.662
REMARK INTER:                  -7.662
REMARK INTRA:                   0.000
REMARK UNBOUND:                 0.000
ROOT
REMARK  Name = oxibendazole
REMARK                            x       y       z     vdW  Elec       q    Type
REMARK                         _______ _______ _______ _____ _____    ______ ____
ATOM      1  C   UNL     1      66.696  67.055  71.360  0.00  0.00    +0.000 C 
ATOM      2  C   UNL     1      65.921  67.064  71.645  0.00  0.00    +0.000 C 
ATOM      3  C   UNL     1      65.379  66.500  71.386  0.00  0.00    +0.000 C 
ATOM      4  O   UNL     1      64.605  66.508  71.672  0.00  0.00    +0.000 OA
ATOM      5  C   UNL     1      64.063  65.945  71.412  0.00  0.00    +0.000 A 
ATOM      6  C   UNL     1      63.289  65.953  71.698  0.00  0.00    +0.000 A 
ATOM      7  C   UNL     1      62.746  65.389  71.438  0.00  0.00    +0.000 A 
ATOM      8  C   UNL     1      62.977  64.816  70.892  0.00  0.00    +0.000 A 
ATOM      9  N   UNL     1      62.326  64.334  70.737  0.00  0.00    +0.000 NA
ATOM     10  C   UNL     1      61.693  64.609  71.188  0.00  0.00    +0.000 A 
ATOM     11  N   UNL     1      60.933  64.289  71.203  0.00  0.00    +0.000 NA
ATOM     12  C   UNL     1      60.352  64.625  71.684  0.00  0.00    +0.000 C 
ATOM     13  O   UNL     1      60.533  65.282  72.149  0.00  0.00    +0.000 OA
ATOM     14  O   UNL     1      59.592  64.304  71.699  0.00  0.00    +0.000 OA
ATOM     15  C   UNL     1      59.013  64.641  72.179  0.00  0.00    +0.000 C 
ATOM     16  N   UNL     1      61.953  65.261  71.620  0.00  0.00    +0.000 NA
ATOM     17  C   UNL     1      63.752  64.807  70.605  0.00  0.00    +0.000 A 
ATOM     18  C   UNL     1      64.294  65.371  70.865  0.00  0.00    +0.000 A 
ENDROOT
TORSDOF 0
ENDMDL
MODEL 9
REMARK VINA RESULT:    -7.275      3.180      3.876
REMARK INTER + INTRA:          -7.275
REMARK INTER:                  -7.275
REMARK INTRA:                   0.000
REMARK UNBOUND:                 0.000
ROOT
REMARK  Name = oxibendazole
REMARK                            x       y       z     vdW  Elec       q    Type
REMARK                         _______ _______ _______ _____ _____    ______ ____
ATOM      1  C   UNL     1      63.055  67.193  72.218  0.00  0.00    +0.000 C 
ATOM      2  C   UNL     1      62.422  66.864  71.802  0.00  0.00    +0.000 C 
ATOM      3  C   UNL     1      62.560  66.287  71.229  0.00  0.00    +0.000 C 
ATOM      4  O   UNL     1      61.927  65.959  70.814  0.00  0.00    +0.000 OA
ATOM      5  C   UNL     1      62.064  65.382  70.241  0.00  0.00    +0.000 A 
ATOM      6  C   UNL     1      61.432  65.054  69.826  0.00  0.00    +0.000 A 
ATOM      7  C   UNL     1      61.569  64.476  69.253  0.00  0.00    +0.000 A 
ATOM      8  C   UNL     1      62.339  64.227  69.095  0.00  0.00    +0.000 A 
ATOM      9  N   UNL     1      62.306  63.653  68.504  0.00  0.00    +0.000 NA
ATOM     10  C   UNL     1      61.515  63.547  68.296  0.00  0.00    +0.000 A 
ATOM     11  N   UNL     1      61.229  63.025  67.726  0.00  0.00    +0.000 NA
ATOM     12  C   UNL     1      60.418  62.979  67.576  0.00  0.00    +0.000 C 
ATOM     13  O   UNL     1      59.894  63.457  67.999  0.00  0.00    +0.000 OA
ATOM     14  O   UNL     1      60.132  62.456  67.006  0.00  0.00    +0.000 OA
ATOM     15  C   UNL     1      59.323  62.411  66.857  0.00  0.00    +0.000 C 
ATOM     16  N   UNL     1      61.060  64.056  68.759  0.00  0.00    +0.000 NA
ATOM     17  C   UNL     1      62.973  64.555  69.511  0.00  0.00    +0.000 A 
ATOM     18  C   UNL     1      62.835  65.132  70.084  0.00  0.00    +0.000 A 
ENDROOT
TORSDOF 0
ENDMDL
