MODEL 1
REMARK VINA RESULT:   -13.050      0.000      0.000
REMARK INTER + INTRA:         -13.050
REMARK INTER:                 -13.050
REMARK INTRA:                   0.000
REMARK UNBOUND:                 0.000
ROOT
REMARK  Name = oxiconazole
REMARK                            x       y       z     vdW  Elec       q    Type
REMARK                         _______ _______ _______ _____ _____    ______ ____
ATOM      1 CL   UNL     1      62.444  62.055  63.457  0.00  0.00    +0.000 Cl
ATOM      2  C   UNL     1      62.125  61.996  64.216  0.00  0.00    +0.000 A 
ATOM      3  C   UNL     1      61.558  61.422  64.382  0.00  0.00    +0.000 A 
ATOM      4  C   UNL     1      61.239  61.363  65.141  0.00  0.00    +0.000 A 
ATOM      5 CL   UNL     1      60.671  60.789  65.308  0.00  0.00    +0.000 Cl
ATOM      6  C   UNL     1      61.489  61.880  65.734  0.00  0.00    +0.000 A 
ATOM      7  C   UNL     1      61.171  61.822  66.493  0.00  0.00    +0.000 C 
ATOM      8  O   UNL     1      61.422  62.339  67.086  0.00  0.00    +0.000 OA
ATOM      9  N   UNL     1      61.103  62.280  67.845  0.00  0.00    +0.000 NA
ATOM     10  C   UNL     1      61.353  62.796  68.438  0.00  0.00    +0.000 C 
ATOM     11  C   UNL     1      61.922  63.372  68.271  0.00  0.00    +0.000 C 
ATOM     12  N   UNL     1      62.172  63.888  68.864  0.00  0.00    +0.000 N 
ATOM     13  C   UNL     1      61.905  63.896  69.645  0.00  0.00    +0.000 A 
ATOM     14  C   UNL     1      62.300  64.500  70.043  0.00  0.00    +0.000 A 
ATOM     15  N   UNL     1      62.812  64.865  69.509  0.00  0.00    +0.000 NA
ATOM     16  C   UNL     1      62.733  64.487  68.781  0.00  0.00    +0.000 A 
ATOM     17  C   UNL     1      61.035  62.739  69.197  0.00  0.00    +0.000 A 
ATOM     18  C   UNL     1      60.467  62.164  69.363  0.00  0.00    +0.000 A 
ATOM     19 CL   UNL     1      60.217  61.647  68.770  0.00  0.00    +0.000 Cl
ATOM     20  C   UNL     1      60.149  62.106  70.122  0.00  0.00    +0.000 A 
ATOM     21  C   UNL     1      60.399  62.623  70.715  0.00  0.00    +0.000 A 
ATOM     22 CL   UNL     1      60.081  62.564  71.474  0.00  0.00    +0.000 Cl
ATOM     23  C   UNL     1      60.967  63.197  70.548  0.00  0.00    +0.000 A 
ATOM     24  C   UNL     1      61.286  63.255  69.790  0.00  0.00    +0.000 A 
ATOM     25  C   UNL     1      62.058  62.455  65.568  0.00  0.00    +0.000 A 
ATOM     26  C   UNL     1      62.375  62.513  64.809  0.00  0.00    +0.000 A 
ENDROOT
TORSDOF 0
ENDMDL
MODEL 2
REMARK VINA RESULT:   -12.434      3.236      5.385
REMARK INTER + INTRA:         -12.434
REMARK INTER:                 -12.434
REMARK INTRA:                   0.000
REMARK UNBOUND:                 0.000
ROOT
REMARK  Name = oxiconazole
REMARK                            x       y       z     vdW  Elec       q    Type
REMARK                         _______ _______ _______ _____ _____    ______ ____
ATOM      1 CL   UNL     1      66.363  67.713  69.859  0.00  0.00    +0.000 Cl
ATOM      2  C   UNL     1      65.753  67.263  70.186  0.00  0.00    +0.000 A 
ATOM      3  C   UNL     1      65.600  67.300  70.995  0.00  0.00    +0.000 A 
ATOM      4  C   UNL     1      64.990  66.849  71.321  0.00  0.00    +0.000 A 
ATOM      5 CL   UNL     1      64.837  66.887  72.130  0.00  0.00    +0.000 Cl
ATOM      6  C   UNL     1      64.534  66.362  70.837  0.00  0.00    +0.000 A 
ATOM      7  C   UNL     1      63.924  65.911  71.162  0.00  0.00    +0.000 C 
ATOM      8  O   UNL     1      63.468  65.423  70.677  0.00  0.00    +0.000 OA
ATOM      9  N   UNL     1      62.858  64.973  71.004  0.00  0.00    +0.000 NA
ATOM     10  C   UNL     1      62.401  64.485  70.519  0.00  0.00    +0.000 C 
ATOM     11  C   UNL     1      62.555  64.448  69.709  0.00  0.00    +0.000 C 
ATOM     12  N   UNL     1      62.098  63.960  69.225  0.00  0.00    +0.000 N 
ATOM     13  C   UNL     1      61.473  63.480  69.471  0.00  0.00    +0.000 A 
ATOM     14  C   UNL     1      61.176  63.091  68.808  0.00  0.00    +0.000 A 
ATOM     15  N   UNL     1      61.616  63.329  68.152  0.00  0.00    +0.000 NA
ATOM     16  C   UNL     1      62.186  63.866  68.410  0.00  0.00    +0.000 A 
ATOM     17  C   UNL     1      61.792  64.035  70.844  0.00  0.00    +0.000 A 
ATOM     18  C   UNL     1      61.638  64.072  71.655  0.00  0.00    +0.000 A 
ATOM     19 CL   UNL     1      62.095  64.560  72.139  0.00  0.00    +0.000 Cl
ATOM     20  C   UNL     1      61.029  63.621  71.979  0.00  0.00    +0.000 A 
ATOM     21  C   UNL     1      60.572  63.134  71.495  0.00  0.00    +0.000 A 
ATOM     22 CL   UNL     1      59.963  62.683  71.821  0.00  0.00    +0.000 Cl
ATOM     23  C   UNL     1      60.726  63.097  70.686  0.00  0.00    +0.000 A 
ATOM     24  C   UNL     1      61.335  63.547  70.360  0.00  0.00    +0.000 A 
ATOM     25  C   UNL     1      64.687  66.324  70.026  0.00  0.00    +0.000 A 
ATOM     26  C   UNL     1      65.297  66.775  69.701  0.00  0.00    +0.000 A 
ENDROOT
TORSDOF 0
ENDMDL
MODEL 3
REMARK VINA RESULT:   -12.018      1.936      2.906
REMARK INTER + INTRA:         -12.018
REMARK INTER:                 -12.018
REMARK INTRA:                   0.000
REMARK UNBOUND:                 0.000
ROOT
REMARK  Name = oxiconazole
REMARK                            x       y       z     vdW  Elec       q    Type
REMARK                         _______ _______ _______ _____ _____    ______ ____
ATOM      1 CL   UNL     1      59.346  61.680  65.720  0.00  0.00    +0.000 Cl
ATOM      2  C   UNL     1      59.901  62.051  66.205  0.00  0.00    +0.000 A 
ATOM      3  C   UNL     1      60.673  62.164  65.939  0.00  0.00    +0.000 A 
ATOM      4  C   UNL     1      61.227  62.535  66.424  0.00  0.00    +0.000 A 
ATOM      5 CL   UNL     1      61.999  62.647  66.158  0.00  0.00    +0.000 Cl
ATOM      6  C   UNL     1      61.009  62.793  67.177  0.00  0.00    +0.000 A 
ATOM      7  C   UNL     1      61.563  63.164  67.663  0.00  0.00    +0.000 C 
ATOM      8  O   UNL     1      61.344  63.423  68.415  0.00  0.00    +0.000 OA
ATOM      9  N   UNL     1      61.899  63.794  68.900  0.00  0.00    +0.000 NA
ATOM     10  C   UNL     1      61.681  64.053  69.652  0.00  0.00    +0.000 C 
ATOM     11  C   UNL     1      60.908  63.940  69.920  0.00  0.00    +0.000 C 
ATOM     12  N   UNL     1      60.689  64.199  70.672  0.00  0.00    +0.000 N 
ATOM     13  C   UNL     1      61.181  64.577  71.217  0.00  0.00    +0.000 A 
ATOM     14  C   UNL     1      60.737  64.737  71.893  0.00  0.00    +0.000 A 
ATOM     15  N   UNL     1      59.971  64.457  71.766  0.00  0.00    +0.000 NA
ATOM     16  C   UNL     1      59.942  64.125  71.012  0.00  0.00    +0.000 A 
ATOM     17  C   UNL     1      62.235  64.424  70.138  0.00  0.00    +0.000 A 
ATOM     18  C   UNL     1      63.008  64.536  69.871  0.00  0.00    +0.000 A 
ATOM     19 CL   UNL     1      63.226  64.278  69.119  0.00  0.00    +0.000 Cl
ATOM     20  C   UNL     1      63.561  64.908  70.357  0.00  0.00    +0.000 A 
ATOM     21  C   UNL     1      63.343  65.166  71.110  0.00  0.00    +0.000 A 
ATOM     22 CL   UNL     1      63.898  65.537  71.595  0.00  0.00    +0.000 Cl
ATOM     23  C   UNL     1      62.571  65.054  71.376  0.00  0.00    +0.000 A 
ATOM     24  C   UNL     1      62.016  64.683  70.891  0.00  0.00    +0.000 A 
ATOM     25  C   UNL     1      60.236  62.681  67.444  0.00  0.00    +0.000 A 
ATOM     26  C   UNL     1      59.682  62.310  66.958  0.00  0.00    +0.000 A 
ENDROOT
TORSDOF 0
ENDMDL
MODEL 4
REMARK VINA RESULT:   -11.934      3.056      5.271
REMARK INTER + INTRA:         -11.934
REMARK INTER:                 -11.934
REMARK INTRA:                   0.000
REMARK UNBOUND:                 0.000
ROOT
REMARK  Name = oxiconazole
REMARK                            x       y       z     vdW  Elec       q    Type
REMARK                         _______ _______ _______ _____ _____    ______ ____
ATOM      1 CL   UNL     1      66.044  67.381  71.521  0.00  0.00    +0.000 Cl
ATOM      2  C   UNL     1      65.515  66.888  71.123  0.00  0.00    +0.000 A 
ATOM      3  C   UNL     1      65.511  66.866  70.299  0.00  0.00    +0.000 A 
ATOM      4  C   UNL     1      64.982  66.372  69.902  0.00  0.00    +0.000 A 
ATOM      5 CL   UNL     1      64.977  66.350  69.078  0.00  0.00    +0.000 Cl
ATOM      6  C   UNL     1      64.457  65.901  70.331  0.00  0.00    +0.000 A 
ATOM      7  C   UNL     1      63.928  65.408  69.935  0.00  0.00    +0.000 C 
ATOM      8  O   UNL     1      63.403  64.937  70.363  0.00  0.00    +0.000 OA
ATOM      9  N   UNL     1      62.874  64.443  69.966  0.00  0.00    +0.000 NA
ATOM     10  C   UNL     1      62.349  63.972  70.394  0.00  0.00    +0.000 C 
ATOM     11  C   UNL     1      62.354  63.994  71.219  0.00  0.00    +0.000 C 
ATOM     12  N   UNL     1      61.829  63.523  71.648  0.00  0.00    +0.000 N 
ATOM     13  C   UNL     1      61.271  63.005  71.329  0.00  0.00    +0.000 A 
ATOM     14  C   UNL     1      60.868  62.650  71.953  0.00  0.00    +0.000 A 
ATOM     15  N   UNL     1      61.176  62.947  72.658  0.00  0.00    +0.000 NA
ATOM     16  C   UNL     1      61.770  63.487  72.469  0.00  0.00    +0.000 A 
ATOM     17  C   UNL     1      61.820  63.479  69.998  0.00  0.00    +0.000 A 
ATOM     18  C   UNL     1      61.816  63.456  69.173  0.00  0.00    +0.000 A 
ATOM     19 CL   UNL     1      62.340  63.928  68.745  0.00  0.00    +0.000 Cl
ATOM     20  C   UNL     1      61.286  62.963  68.777  0.00  0.00    +0.000 A 
ATOM     21  C   UNL     1      60.762  62.492  69.205  0.00  0.00    +0.000 A 
ATOM     22 CL   UNL     1      60.233  61.999  68.808  0.00  0.00    +0.000 Cl
ATOM     23  C   UNL     1      60.766  62.514  70.029  0.00  0.00    +0.000 A 
ATOM     24  C   UNL     1      61.295  63.008  70.427  0.00  0.00    +0.000 A 
ATOM     25  C   UNL     1      64.461  65.923  71.156  0.00  0.00    +0.000 A 
ATOM     26  C   UNL     1      64.991  66.417  71.552  0.00  0.00    +0.000 A 
ENDROOT
TORSDOF 0
ENDMDL
MODEL 5
REMARK VINA RESULT:   -11.081      2.942      5.738
REMARK INTER + INTRA:         -11.081
REMARK INTER:                 -11.081
REMARK INTRA:                   0.000
REMARK UNBOUND:                 0.000
ROOT
REMARK  Name = oxiconazole
REMARK                            x       y       z     vdW  Elec       q    Type
REMARK                         _______ _______ _______ _____ _____    ______ ____
ATOM      1 CL   UNL     1      58.739  67.430  73.026  0.00  0.00    +0.000 Cl
ATOM      2  C   UNL     1      58.983  67.021  72.352  0.00  0.00    +0.000 A 
ATOM      3  C   UNL     1      59.087  67.423  71.640  0.00  0.00    +0.000 A 
ATOM      4  C   UNL     1      59.331  67.015  70.966  0.00  0.00    +0.000 A 
ATOM      5 CL   UNL     1      59.435  67.417  70.254  0.00  0.00    +0.000 Cl
ATOM      6  C   UNL     1      59.471  66.203  71.005  0.00  0.00    +0.000 A 
ATOM      7  C   UNL     1      59.715  65.793  70.332  0.00  0.00    +0.000 C 
ATOM      8  O   UNL     1      59.856  64.981  70.371  0.00  0.00    +0.000 OA
ATOM      9  N   UNL     1      60.100  64.572  69.697  0.00  0.00    +0.000 NA
ATOM     10  C   UNL     1      60.240  63.760  69.736  0.00  0.00    +0.000 C 
ATOM     11  C   UNL     1      60.136  63.357  70.449  0.00  0.00    +0.000 C 
ATOM     12  N   UNL     1      60.276  62.544  70.488  0.00  0.00    +0.000 N 
ATOM     13  C   UNL     1      60.521  62.064  69.863  0.00  0.00    +0.000 A 
ATOM     14  C   UNL     1      60.593  61.293  70.147  0.00  0.00    +0.000 A 
ATOM     15  N   UNL     1      60.392  61.297  70.948  0.00  0.00    +0.000 NA
ATOM     16  C   UNL     1      60.196  62.070  71.158  0.00  0.00    +0.000 A 
ATOM     17  C   UNL     1      60.484  63.350  69.063  0.00  0.00    +0.000 A 
ATOM     18  C   UNL     1      60.588  63.753  68.350  0.00  0.00    +0.000 A 
ATOM     19 CL   UNL     1      60.448  64.565  68.311  0.00  0.00    +0.000 Cl
ATOM     20  C   UNL     1      60.832  63.343  67.677  0.00  0.00    +0.000 A 
ATOM     21  C   UNL     1      60.972  62.531  67.716  0.00  0.00    +0.000 A 
ATOM     22 CL   UNL     1      61.216  62.122  67.042  0.00  0.00    +0.000 Cl
ATOM     23  C   UNL     1      60.868  62.129  68.428  0.00  0.00    +0.000 A 
ATOM     24  C   UNL     1      60.624  62.538  69.102  0.00  0.00    +0.000 A 
ATOM     25  C   UNL     1      59.368  65.799  71.718  0.00  0.00    +0.000 A 
ATOM     26  C   UNL     1      59.124  66.209  72.391  0.00  0.00    +0.000 A 
ENDROOT
TORSDOF 0
ENDMDL
MODEL 6
REMARK VINA RESULT:   -10.618      3.283      5.029
REMARK INTER + INTRA:         -10.618
REMARK INTER:                 -10.618
REMARK INTRA:                   0.000
REMARK UNBOUND:                 0.000
ROOT
REMARK  Name = oxiconazole
REMARK                            x       y       z     vdW  Elec       q    Type
REMARK                         _______ _______ _______ _____ _____    ______ ____
ATOM      1 CL   UNL     1      59.431  63.763  68.158  0.00  0.00    +0.000 Cl
ATOM      2  C   UNL     1      60.164  63.980  68.470  0.00  0.00    +0.000 A 
ATOM      3  C   UNL     1      60.852  63.612  68.203  0.00  0.00    +0.000 A 
ATOM      4  C   UNL     1      61.584  63.829  68.515  0.00  0.00    +0.000 A 
ATOM      5 CL   UNL     1      62.272  63.462  68.249  0.00  0.00    +0.000 Cl
ATOM      6  C   UNL     1      61.628  64.415  69.094  0.00  0.00    +0.000 A 
ATOM      7  C   UNL     1      62.359  64.633  69.407  0.00  0.00    +0.000 C 
ATOM      8  O   UNL     1      62.403  65.219  69.987  0.00  0.00    +0.000 OA
ATOM      9  N   UNL     1      63.135  65.436  70.299  0.00  0.00    +0.000 NA
ATOM     10  C   UNL     1      63.179  66.022  70.878  0.00  0.00    +0.000 C 
ATOM     11  C   UNL     1      62.490  66.390  71.145  0.00  0.00    +0.000 C 
ATOM     12  N   UNL     1      62.533  66.976  71.725  0.00  0.00    +0.000 N 
ATOM     13  C   UNL     1      63.223  67.250  72.086  0.00  0.00    +0.000 A 
ATOM     14  C   UNL     1      63.011  67.834  72.629  0.00  0.00    +0.000 A 
ATOM     15  N   UNL     1      62.191  67.920  72.603  0.00  0.00    +0.000 NA
ATOM     16  C   UNL     1      61.896  67.391  72.044  0.00  0.00    +0.000 A 
ATOM     17  C   UNL     1      63.910  66.240  71.191  0.00  0.00    +0.000 A 
ATOM     18  C   UNL     1      64.599  65.871  70.923  0.00  0.00    +0.000 A 
ATOM     19 CL   UNL     1      64.555  65.286  70.344  0.00  0.00    +0.000 Cl
ATOM     20  C   UNL     1      65.330  66.089  71.236  0.00  0.00    +0.000 A 
ATOM     21  C   UNL     1      65.374  66.675  71.816  0.00  0.00    +0.000 A 
ATOM     22 CL   UNL     1      66.106  66.892  72.128  0.00  0.00    +0.000 Cl
ATOM     23  C   UNL     1      64.686  67.043  72.082  0.00  0.00    +0.000 A 
ATOM     24  C   UNL     1      63.954  66.826  71.770  0.00  0.00    +0.000 A 
ATOM     25  C   UNL     1      60.939  64.784  69.362  0.00  0.00    +0.000 A 
ATOM     26  C   UNL     1      60.207  64.566  69.049  0.00  0.00    +0.000 A 
ENDROOT
TORSDOF 0
ENDMDL
