MODEL 1
REMARK VINA RESULT:   -12.830      0.000      0.000
REMARK INTER + INTRA:         -12.830
REMARK INTER:                 -12.830
REMARK INTRA:                   0.000
REMARK UNBOUND:                 0.000
ROOT
REMARK  Name = oxitropium
REMARK                            x       y       z     vdW  Elec       q    Type
REMARK                         _______ _______ _______ _____ _____    ______ ____
ATOM      1  C   UNL     1      60.679  60.885  64.561  0.00  0.00    +0.000 C 
ATOM      2  C   UNL     1      61.278  61.523  64.893  0.00  0.00    +0.000 C 
ATOM      3  N   UNL     1      61.931  61.917  64.505  0.00  0.00    +0.000 N 
ATOM      4  C   UNL     1      61.875  62.182  65.284  0.00  0.00    +0.000 C 
ATOM      5  C   UNL     1      62.463  62.554  64.977  0.00  0.00    +0.000 C 
ATOM      6  C   UNL     1      62.013  62.449  65.660  0.00  0.00    +0.000 C 
ATOM      7  C   UNL     1      61.365  61.952  65.779  0.00  0.00    +0.000 C 
ATOM      8  C   UNL     1      61.009  61.436  65.241  0.00  0.00    +0.000 C 
ATOM      9  C   UNL     1      61.211  61.291  64.455  0.00  0.00    +0.000 C 
ATOM     10  C   UNL     1      61.820  61.625  64.010  0.00  0.00    +0.000 C 
ATOM     11  O   UNL     1      62.389  61.889  63.474  0.00  0.00    +0.000 OA
ATOM     12  C   UNL     1      62.377  62.188  64.243  0.00  0.00    +0.000 C 
ATOM     13  O   UNL     1      61.023  61.994  66.604  0.00  0.00    +0.000 OA
ATOM     14  C   UNL     1      61.081  62.356  67.385  0.00  0.00    +0.000 C 
ATOM     15  O   UNL     1      61.675  62.663  66.903  0.00  0.00    +0.000 OA
ATOM     16  C   UNL     1      61.010  62.612  68.172  0.00  0.00    +0.000 C 
ATOM     17  C   UNL     1      60.331  62.109  68.344  0.00  0.00    +0.000 C 
ATOM     18  O   UNL     1      59.989  62.122  69.094  0.00  0.00    +0.000 OA
ATOM     19  C   UNL     1      61.318  63.106  68.758  0.00  0.00    +0.000 A 
ATOM     20  C   UNL     1      60.975  63.118  69.508  0.00  0.00    +0.000 A 
ATOM     21  C   UNL     1      61.281  63.611  70.094  0.00  0.00    +0.000 A 
ATOM     22  C   UNL     1      61.931  64.093  69.930  0.00  0.00    +0.000 A 
ATOM     23  C   UNL     1      62.274  64.081  69.179  0.00  0.00    +0.000 A 
ATOM     24  C   UNL     1      61.967  63.587  68.593  0.00  0.00    +0.000 A 
ENDROOT
TORSDOF 0
ENDMDL
MODEL 2
REMARK VINA RESULT:   -12.295      1.514      4.568
REMARK INTER + INTRA:         -12.295
REMARK INTER:                 -12.295
REMARK INTRA:                   0.000
REMARK UNBOUND:                 0.000
ROOT
REMARK  Name = oxitropium
REMARK                            x       y       z     vdW  Elec       q    Type
REMARK                         _______ _______ _______ _____ _____    ______ ____
ATOM      1  C   UNL     1      60.140  63.777  69.923  0.00  0.00    +0.000 C 
ATOM      2  C   UNL     1      60.918  63.762  69.404  0.00  0.00    +0.000 C 
ATOM      3  N   UNL     1      61.698  64.070  69.576  0.00  0.00    +0.000 N 
ATOM      4  C   UNL     1      61.700  63.721  68.829  0.00  0.00    +0.000 C 
ATOM      5  C   UNL     1      62.406  63.981  68.942  0.00  0.00    +0.000 C 
ATOM      6  C   UNL     1      61.907  63.589  68.415  0.00  0.00    +0.000 C 
ATOM      7  C   UNL     1      61.109  63.398  68.506  0.00  0.00    +0.000 C 
ATOM      8  C   UNL     1      60.614  63.553  69.149  0.00  0.00    +0.000 C 
ATOM      9  C   UNL     1      60.795  63.937  69.856  0.00  0.00    +0.000 C 
ATOM     10  C   UNL     1      61.514  64.260  70.097  0.00  0.00    +0.000 C 
ATOM     11  O   UNL     1      62.174  64.615  70.442  0.00  0.00    +0.000 OA
ATOM     12  C   UNL     1      62.231  64.280  69.690  0.00  0.00    +0.000 C 
ATOM     13  O   UNL     1      60.758  62.967  67.805  0.00  0.00    +0.000 OA
ATOM     14  C   UNL     1      60.902  62.642  67.020  0.00  0.00    +0.000 C 
ATOM     15  O   UNL     1      61.600  62.979  67.302  0.00  0.00    +0.000 OA
ATOM     16  C   UNL     1      60.887  62.287  66.269  0.00  0.00    +0.000 C 
ATOM     17  C   UNL     1      60.055  62.066  66.318  0.00  0.00    +0.000 C 
ATOM     18  O   UNL     1      59.696  61.668  65.691  0.00  0.00    +0.000 OA
ATOM     19  C   UNL     1      61.325  62.099  65.594  0.00  0.00    +0.000 A 
ATOM     20  C   UNL     1      60.966  61.701  64.967  0.00  0.00    +0.000 A 
ATOM     21  C   UNL     1      61.403  61.514  64.293  0.00  0.00    +0.000 A 
ATOM     22  C   UNL     1      62.200  61.725  64.246  0.00  0.00    +0.000 A 
ATOM     23  C   UNL     1      62.559  62.123  64.873  0.00  0.00    +0.000 A 
ATOM     24  C   UNL     1      62.121  62.310  65.548  0.00  0.00    +0.000 A 
ENDROOT
TORSDOF 0
ENDMDL
MODEL 3
REMARK VINA RESULT:   -11.570      4.647      6.625
REMARK INTER + INTRA:         -11.570
REMARK INTER:                 -11.570
REMARK INTRA:                   0.000
REMARK UNBOUND:                 0.000
ROOT
REMARK  Name = oxitropium
REMARK                            x       y       z     vdW  Elec       q    Type
REMARK                         _______ _______ _______ _____ _____    ______ ____
ATOM      1  C   UNL     1      65.342  66.705  69.466  0.00  0.00    +0.000 C 
ATOM      2  C   UNL     1      65.036  66.537  70.334  0.00  0.00    +0.000 C 
ATOM      3  N   UNL     1      65.284  66.878  71.079  0.00  0.00    +0.000 N 
ATOM      4  C   UNL     1      64.685  66.328  71.216  0.00  0.00    +0.000 C 
ATOM      5  C   UNL     1      64.876  66.605  71.897  0.00  0.00    +0.000 C 
ATOM      6  C   UNL     1      64.383  66.080  71.496  0.00  0.00    +0.000 C 
ATOM      7  C   UNL     1      64.343  65.927  70.686  0.00  0.00    +0.000 C 
ATOM      8  C   UNL     1      64.788  66.265  70.078  0.00  0.00    +0.000 C 
ATOM      9  C   UNL     1      65.380  66.836  70.129  0.00  0.00    +0.000 C 
ATOM     10  C   UNL     1      65.676  67.212  70.802  0.00  0.00    +0.000 C 
ATOM     11  O   UNL     1      66.045  67.647  71.397  0.00  0.00    +0.000 OA
ATOM     12  C   UNL     1      65.451  67.109  71.589  0.00  0.00    +0.000 C 
ATOM     13  O   UNL     1      63.731  65.314  70.463  0.00  0.00    +0.000 OA
ATOM     14  C   UNL     1      63.122  64.775  70.748  0.00  0.00    +0.000 C 
ATOM     15  O   UNL     1      63.447  65.175  71.391  0.00  0.00    +0.000 OA
ATOM     16  C   UNL     1      62.518  64.217  70.868  0.00  0.00    +0.000 C 
ATOM     17  C   UNL     1      62.439  64.024  70.032  0.00  0.00    +0.000 C 
ATOM     18  O   UNL     1      61.886  63.463  69.788  0.00  0.00    +0.000 OA
ATOM     19  C   UNL     1      62.039  63.840  71.426  0.00  0.00    +0.000 A 
ATOM     20  C   UNL     1      61.485  63.279  71.182  0.00  0.00    +0.000 A 
ATOM     21  C   UNL     1      61.007  62.903  71.738  0.00  0.00    +0.000 A 
ATOM     22  C   UNL     1      61.082  63.087  72.539  0.00  0.00    +0.000 A 
ATOM     23  C   UNL     1      61.635  63.648  72.783  0.00  0.00    +0.000 A 
ATOM     24  C   UNL     1      62.114  64.025  72.226  0.00  0.00    +0.000 A 
ENDROOT
TORSDOF 0
ENDMDL
MODEL 4
REMARK VINA RESULT:   -11.560      4.956      6.496
REMARK INTER + INTRA:         -11.560
REMARK INTER:                 -11.560
REMARK INTRA:                   0.000
REMARK UNBOUND:                 0.000
ROOT
REMARK  Name = oxitropium
REMARK                            x       y       z     vdW  Elec       q    Type
REMARK                         _______ _______ _______ _____ _____    ______ ____
ATOM      1  C   UNL     1      61.462  62.847  70.831  0.00  0.00    +0.000 C 
ATOM      2  C   UNL     1      61.743  63.547  71.384  0.00  0.00    +0.000 C 
ATOM      3  N   UNL     1      61.459  63.785  72.156  0.00  0.00    +0.000 N 
ATOM      4  C   UNL     1      62.070  64.287  71.922  0.00  0.00    +0.000 C 
ATOM      5  C   UNL     1      61.847  64.530  72.608  0.00  0.00    +0.000 C 
ATOM      6  C   UNL     1      62.370  64.659  71.983  0.00  0.00    +0.000 C 
ATOM      7  C   UNL     1      62.442  64.237  71.277  0.00  0.00    +0.000 C 
ATOM      8  C   UNL     1      62.008  63.582  71.024  0.00  0.00    +0.000 C 
ATOM      9  C   UNL     1      61.397  63.188  71.412  0.00  0.00    +0.000 C 
ATOM     10  C   UNL     1      61.067  63.351  72.151  0.00  0.00    +0.000 C 
ATOM     11  O   UNL     1      60.664  63.418  72.867  0.00  0.00    +0.000 OA
ATOM     12  C   UNL     1      61.268  63.949  72.683  0.00  0.00    +0.000 C 
ATOM     13  O   UNL     1      63.080  64.549  70.733  0.00  0.00    +0.000 OA
ATOM     14  C   UNL     1      63.695  65.142  70.618  0.00  0.00    +0.000 C 
ATOM     15  O   UNL     1      63.336  65.267  71.349  0.00  0.00    +0.000 OA
ATOM     16  C   UNL     1      64.312  65.640  70.368  0.00  0.00    +0.000 C 
ATOM     17  C   UNL     1      64.425  65.231  69.617  0.00  0.00    +0.000 C 
ATOM     18  O   UNL     1      65.004  65.490  69.090  0.00  0.00    +0.000 OA
ATOM     19  C   UNL     1      64.783  66.291  70.559  0.00  0.00    +0.000 A 
ATOM     20  C   UNL     1      65.361  66.550  70.031  0.00  0.00    +0.000 A 
ATOM     21  C   UNL     1      65.832  67.200  70.221  0.00  0.00    +0.000 A 
ATOM     22  C   UNL     1      65.724  67.592  70.939  0.00  0.00    +0.000 A 
ATOM     23  C   UNL     1      65.145  67.333  71.467  0.00  0.00    +0.000 A 
ATOM     24  C   UNL     1      64.674  66.682  71.276  0.00  0.00    +0.000 A 
ENDROOT
TORSDOF 0
ENDMDL
MODEL 5
REMARK VINA RESULT:   -11.138      4.447      6.208
REMARK INTER + INTRA:         -11.138
REMARK INTER:                 -11.138
REMARK INTRA:                   0.000
REMARK UNBOUND:                 0.000
ROOT
REMARK  Name = oxitropium
REMARK                            x       y       z     vdW  Elec       q    Type
REMARK                         _______ _______ _______ _____ _____    ______ ____
ATOM      1  C   UNL     1      59.385  66.673  69.450  0.00  0.00    +0.000 C 
ATOM      2  C   UNL     1      59.697  66.450  70.302  0.00  0.00    +0.000 C 
ATOM      3  N   UNL     1      59.754  66.930  71.009  0.00  0.00    +0.000 N 
ATOM      4  C   UNL     1      60.031  66.170  71.171  0.00  0.00    +0.000 C 
ATOM      5  C   UNL     1      60.098  66.562  71.820  0.00  0.00    +0.000 C 
ATOM      6  C   UNL     1      60.216  65.831  71.457  0.00  0.00    +0.000 C 
ATOM      7  C   UNL     1      60.060  65.611  70.677  0.00  0.00    +0.000 C 
ATOM      8  C   UNL     1      59.745  66.071  70.067  0.00  0.00    +0.000 C 
ATOM      9  C   UNL     1      59.511  66.861  70.088  0.00  0.00    +0.000 C 
ATOM     10  C   UNL     1      59.532  67.388  70.722  0.00  0.00    +0.000 C 
ATOM     11  O   UNL     1      59.506  67.997  71.278  0.00  0.00    +0.000 OA
ATOM     12  C   UNL     1      59.793  67.255  71.493  0.00  0.00    +0.000 C 
ATOM     13  O   UNL     1      60.266  64.760  70.493  0.00  0.00    +0.000 OA
ATOM     14  C   UNL     1      60.579  64.017  70.798  0.00  0.00    +0.000 C 
ATOM     15  O   UNL     1      60.582  64.578  71.402  0.00  0.00    +0.000 OA
ATOM     16  C   UNL     1      60.855  63.248  70.945  0.00  0.00    +0.000 C 
ATOM     17  C   UNL     1      60.709  62.972  70.141  0.00  0.00    +0.000 C 
ATOM     18  O   UNL     1      60.886  62.193  69.933  0.00  0.00    +0.000 OA
ATOM     19  C   UNL     1      61.173  62.733  71.507  0.00  0.00    +0.000 A 
ATOM     20  C   UNL     1      61.350  61.954  71.299  0.00  0.00    +0.000 A 
ATOM     21  C   UNL     1      61.667  61.440  71.860  0.00  0.00    +0.000 A 
ATOM     22  C   UNL     1      61.808  61.703  72.630  0.00  0.00    +0.000 A 
ATOM     23  C   UNL     1      61.630  62.482  72.837  0.00  0.00    +0.000 A 
ATOM     24  C   UNL     1      61.313  62.997  72.275  0.00  0.00    +0.000 A 
ENDROOT
TORSDOF 0
ENDMDL
MODEL 6
REMARK VINA RESULT:   -10.936      3.881      6.697
REMARK INTER + INTRA:         -10.936
REMARK INTER:                 -10.936
REMARK INTRA:                   0.000
REMARK UNBOUND:                 0.000
ROOT
REMARK  Name = oxitropium
REMARK                            x       y       z     vdW  Elec       q    Type
REMARK                         _______ _______ _______ _____ _____    ______ ____
ATOM      1  C   UNL     1      59.191  66.230  73.182  0.00  0.00    +0.000 C 
ATOM      2  C   UNL     1      59.299  66.211  72.253  0.00  0.00    +0.000 C 
ATOM      3  N   UNL     1      59.217  66.840  71.678  0.00  0.00    +0.000 N 
ATOM      4  C   UNL     1      59.422  66.141  71.291  0.00  0.00    +0.000 C 
ATOM      5  C   UNL     1      59.360  66.671  70.749  0.00  0.00    +0.000 C 
ATOM      6  C   UNL     1      59.527  65.878  70.902  0.00  0.00    +0.000 C 
ATOM      7  C   UNL     1      59.537  65.485  71.627  0.00  0.00    +0.000 C 
ATOM      8  C   UNL     1      59.383  65.789  72.380  0.00  0.00    +0.000 C 
ATOM      9  C   UNL     1      59.180  66.560  72.590  0.00  0.00    +0.000 C 
ATOM     10  C   UNL     1      59.082  67.218  72.103  0.00  0.00    +0.000 C 
ATOM     11  O   UNL     1      58.958  67.938  71.718  0.00  0.00    +0.000 OA
ATOM     12  C   UNL     1      59.162  67.268  71.283  0.00  0.00    +0.000 C 
ATOM     13  O   UNL     1      59.745  64.617  71.565  0.00  0.00    +0.000 OA
ATOM     14  C   UNL     1      59.955  63.967  71.038  0.00  0.00    +0.000 C 
ATOM     15  O   UNL     1      59.846  64.651  70.591  0.00  0.00    +0.000 OA
ATOM     16  C   UNL     1      60.162  63.255  70.664  0.00  0.00    +0.000 C 
ATOM     17  C   UNL     1      60.185  62.801  71.397  0.00  0.00    +0.000 C 
ATOM     18  O   UNL     1      60.373  61.998  71.379  0.00  0.00    +0.000 OA
ATOM     19  C   UNL     1      60.327  62.886  69.945  0.00  0.00    +0.000 A 
ATOM     20  C   UNL     1      60.516  62.083  69.927  0.00  0.00    +0.000 A 
ATOM     21  C   UNL     1      60.681  61.713  69.208  0.00  0.00    +0.000 A 
ATOM     22  C   UNL     1      60.659  62.148  68.506  0.00  0.00    +0.000 A 
ATOM     23  C   UNL     1      60.471  62.951  68.524  0.00  0.00    +0.000 A 
ATOM     24  C   UNL     1      60.305  63.320  69.244  0.00  0.00    +0.000 A 
ENDROOT
TORSDOF 0
ENDMDL
MODEL 7
REMARK VINA RESULT:   -10.682      2.816      5.848
REMARK INTER + INTRA:         -10.682
REMARK INTER:                 -10.682
REMARK INTRA:                   0.000
REMARK UNBOUND:                 0.000
ROOT
REMARK  Name = oxitropium
REMARK                            x       y       z     vdW  Elec       q    Type
REMARK                         _______ _______ _______ _____ _____    ______ ____
ATOM      1  C   UNL     1      61.699  64.669  72.875  0.00  0.00    +0.000 C 
ATOM      2  C   UNL     1      61.937  64.887  71.998  0.00  0.00    +0.000 C 
ATOM      3  N   UNL     1      62.385  65.553  71.700  0.00  0.00    +0.000 N 
ATOM      4  C   UNL     1      62.159  65.071  71.070  0.00  0.00    +0.000 C 
ATOM      5  C   UNL     1      62.551  65.647  70.765  0.00  0.00    +0.000 C 
ATOM      6  C   UNL     1      62.139  64.951  70.604  0.00  0.00    +0.000 C 
ATOM      7  C   UNL     1      61.761  64.442  71.133  0.00  0.00    +0.000 C 
ATOM      8  C   UNL     1      61.705  64.505  71.955  0.00  0.00    +0.000 C 
ATOM      9  C   UNL     1      62.011  65.091  72.448  0.00  0.00    +0.000 C 
ATOM     10  C   UNL     1      62.449  65.759  72.243  0.00  0.00    +0.000 C 
ATOM     11  O   UNL     1      62.889  66.452  72.158  0.00  0.00    +0.000 OA
ATOM     12  C   UNL     1      62.690  66.007  71.494  0.00  0.00    +0.000 C 
ATOM     13  O   UNL     1      61.370  63.739  70.742  0.00  0.00    +0.000 OA
ATOM     14  C   UNL     1      61.205  63.334  69.999  0.00  0.00    +0.000 C 
ATOM     15  O   UNL     1      61.645  64.013  69.842  0.00  0.00    +0.000 OA
ATOM     16  C   UNL     1      60.970  62.837  69.376  0.00  0.00    +0.000 C 
ATOM     17  C   UNL     1      60.562  62.277  69.889  0.00  0.00    +0.000 C 
ATOM     18  O   UNL     1      60.190  61.616  69.565  0.00  0.00    +0.000 OA
ATOM     19  C   UNL     1      60.987  62.713  68.560  0.00  0.00    +0.000 A 
ATOM     20  C   UNL     1      60.615  62.052  68.236  0.00  0.00    +0.000 A 
ATOM     21  C   UNL     1      60.632  61.927  67.420  0.00  0.00    +0.000 A 
ATOM     22  C   UNL     1      61.022  62.464  66.929  0.00  0.00    +0.000 A 
ATOM     23  C   UNL     1      61.395  63.125  67.253  0.00  0.00    +0.000 A 
ATOM     24  C   UNL     1      61.377  63.249  68.069  0.00  0.00    +0.000 A 
ENDROOT
TORSDOF 0
ENDMDL
MODEL 8
REMARK VINA RESULT:   -10.552      5.678      6.955
REMARK INTER + INTRA:         -10.552
REMARK INTER:                 -10.552
REMARK INTRA:                   0.000
REMARK UNBOUND:                 0.000
ROOT
REMARK  Name = oxitropium
REMARK                            x       y       z     vdW  Elec       q    Type
REMARK                         _______ _______ _______ _____ _____    ______ ____
ATOM      1  C   UNL     1      59.722  66.459  69.615  0.00  0.00    +0.000 C 
ATOM      2  C   UNL     1      60.222  66.828  70.314  0.00  0.00    +0.000 C 
ATOM      3  N   UNL     1      59.966  67.294  70.985  0.00  0.00    +0.000 N 
ATOM      4  C   UNL     1      60.783  67.192  71.019  0.00  0.00    +0.000 C 
ATOM      5  C   UNL     1      60.597  67.607  71.628  0.00  0.00    +0.000 C 
ATOM      6  C   UNL     1      61.218  67.252  71.217  0.00  0.00    +0.000 C 
ATOM      7  C   UNL     1      61.188  66.812  70.519  0.00  0.00    +0.000 C 
ATOM      8  C   UNL     1      60.528  66.620  70.061  0.00  0.00    +0.000 C 
ATOM      9  C   UNL     1      59.738  66.820  70.187  0.00  0.00    +0.000 C 
ATOM     10  C   UNL     1      59.411  67.261  70.802  0.00  0.00    +0.000 C 
ATOM     11  O   UNL     1      58.976  67.683  71.362  0.00  0.00    +0.000 OA
ATOM     12  C   UNL     1      59.793  67.612  71.444  0.00  0.00    +0.000 C 
ATOM     13  O   UNL     1      61.986  66.517  70.244  0.00  0.00    +0.000 OA
ATOM     14  C   UNL     1      62.833  66.490  70.403  0.00  0.00    +0.000 C 
ATOM     15  O   UNL     1      62.462  66.924  70.998  0.00  0.00    +0.000 OA
ATOM     16  C   UNL     1      63.656  66.377  70.422  0.00  0.00    +0.000 C 
ATOM     17  C   UNL     1      63.675  65.913  69.696  0.00  0.00    +0.000 C 
ATOM     18  O   UNL     1      64.393  65.623  69.411  0.00  0.00    +0.000 OA
ATOM     19  C   UNL     1      64.356  66.532  70.832  0.00  0.00    +0.000 A 
ATOM     20  C   UNL     1      65.074  66.243  70.547  0.00  0.00    +0.000 A 
ATOM     21  C   UNL     1      65.773  66.397  70.957  0.00  0.00    +0.000 A 
ATOM     22  C   UNL     1      65.754  66.842  71.652  0.00  0.00    +0.000 A 
ATOM     23  C   UNL     1      65.037  67.132  71.937  0.00  0.00    +0.000 A 
ATOM     24  C   UNL     1      64.337  66.977  71.527  0.00  0.00    +0.000 A 
ENDROOT
TORSDOF 0
ENDMDL
MODEL 9
REMARK VINA RESULT:   -10.175      2.905      6.325
REMARK INTER + INTRA:         -10.175
REMARK INTER:                 -10.175
REMARK INTRA:                   0.000
REMARK UNBOUND:                 0.000
ROOT
REMARK  Name = oxitropium
REMARK                            x       y       z     vdW  Elec       q    Type
REMARK                         _______ _______ _______ _____ _____    ______ ____
ATOM      1  C   UNL     1      61.242  65.706  72.565  0.00  0.00    +0.000 C 
ATOM      2  C   UNL     1      60.590  65.204  72.120  0.00  0.00    +0.000 C 
ATOM      3  N   UNL     1      59.782  65.031  72.346  0.00  0.00    +0.000 N 
ATOM      4  C   UNL     1      59.946  64.674  71.621  0.00  0.00    +0.000 C 
ATOM      5  C   UNL     1      59.225  64.498  71.785  0.00  0.00    +0.000 C 
ATOM      6  C   UNL     1      59.834  64.409  71.236  0.00  0.00    +0.000 C 
ATOM      7  C   UNL     1      60.601  64.713  71.263  0.00  0.00    +0.000 C 
ATOM      8  C   UNL     1      60.947  65.182  71.849  0.00  0.00    +0.000 C 
ATOM      9  C   UNL     1      60.612  65.460  72.549  0.00  0.00    +0.000 C 
ATOM     10  C   UNL     1      59.849  65.340  72.838  0.00  0.00    +0.000 C 
ATOM     11  O   UNL     1      59.120  65.289  73.222  0.00  0.00    +0.000 OA
ATOM     12  C   UNL     1      59.231  64.912  72.498  0.00  0.00    +0.000 C 
ATOM     13  O   UNL     1      61.103  64.494  70.556  0.00  0.00    +0.000 OA
ATOM     14  C   UNL     1      61.135  64.072  69.805  0.00  0.00    +0.000 C 
ATOM     15  O   UNL     1      60.384  63.979  70.133  0.00  0.00    +0.000 OA
ATOM     16  C   UNL     1      61.317  63.719  69.075  0.00  0.00    +0.000 C 
ATOM     17  C   UNL     1      62.127  64.014  69.060  0.00  0.00    +0.000 C 
ATOM     18  O   UNL     1      62.620  63.832  68.424  0.00  0.00    +0.000 OA
ATOM     19  C   UNL     1      61.034  63.254  68.454  0.00  0.00    +0.000 A 
ATOM     20  C   UNL     1      61.528  63.072  67.818  0.00  0.00    +0.000 A 
ATOM     21  C   UNL     1      61.246  62.608  67.197  0.00  0.00    +0.000 A 
ATOM     22  C   UNL     1      60.471  62.325  67.212  0.00  0.00    +0.000 A 
ATOM     23  C   UNL     1      59.977  62.507  67.848  0.00  0.00    +0.000 A 
ATOM     24  C   UNL     1      60.260  62.972  68.469  0.00  0.00    +0.000 A 
ENDROOT
TORSDOF 0
ENDMDL
