MODEL 1
REMARK VINA RESULT:   -10.700      0.000      0.000
REMARK INTER + INTRA:         -10.700
REMARK INTER:                 -10.700
REMARK INTRA:                   0.000
REMARK UNBOUND:                 0.000
ROOT
REMARK  Name = oxycodone
REMARK                            x       y       z     vdW  Elec       q    Type
REMARK                         _______ _______ _______ _____ _____    ______ ____
ATOM      1  C   UNL     1      60.209  62.081  68.046  0.00  0.00    +0.000 C 
ATOM      2  O   UNL     1      60.521  61.915  68.791  0.00  0.00    +0.000 OA
ATOM      3  C   UNL     1      60.504  62.488  69.384  0.00  0.00    +0.000 A 
ATOM      4  C   UNL     1      60.167  63.236  69.213  0.00  0.00    +0.000 A 
ATOM      5  C   UNL     1      60.147  63.816  69.801  0.00  0.00    +0.000 A 
ATOM      6  C   UNL     1      60.465  63.631  70.545  0.00  0.00    +0.000 A 
ATOM      7  C   UNL     1      60.443  64.199  71.115  0.00  0.00    +0.000 C 
ATOM      8  C   UNL     1      60.773  63.947  71.821  0.00  0.00    +0.000 C 
ATOM      9  N   UNL     1      60.881  64.295  72.534  0.00  0.00    +0.000 NA
ATOM     10  C   UNL     1      60.670  65.061  72.758  0.00  0.00    +0.000 C 
ATOM     11  C   UNL     1      61.248  63.725  72.991  0.00  0.00    +0.000 C 
ATOM     12  C   UNL     1      61.360  62.983  72.495  0.00  0.00    +0.000 C 
ATOM     13  C   UNL     1      61.131  62.722  71.520  0.00  0.00    +0.000 C 
ATOM     14  C   UNL     1      61.378  61.916  71.354  0.00  0.00    +0.000 C 
ATOM     15  O   UNL     1      61.204  61.682  70.572  0.00  0.00    +0.000 OA
ATOM     16  C   UNL     1      60.830  62.303  70.150  0.00  0.00    +0.000 A 
ATOM     17  C   UNL     1      60.801  62.891  70.721  0.00  0.00    +0.000 A 
ATOM     18  C   UNL     1      61.743  61.511  71.995  0.00  0.00    +0.000 C 
ATOM     19  O   UNL     1      61.997  60.734  71.883  0.00  0.00    +0.000 OA
ATOM     20  C   UNL     1      61.855  61.866  72.726  0.00  0.00    +0.000 C 
ATOM     21  C   UNL     1      61.586  62.623  72.770  0.00  0.00    +0.000 C 
ATOM     22  C   UNL     1      61.163  63.063  71.997  0.00  0.00    +0.000 C 
ATOM     23  O   UNL     1      61.199  63.556  72.656  0.00  0.00    +0.000 OA
ENDROOT
TORSDOF 0
ENDMDL
MODEL 2
REMARK VINA RESULT:   -10.617      1.607      2.210
REMARK INTER + INTRA:         -10.617
REMARK INTER:                 -10.617
REMARK INTRA:                   0.000
REMARK UNBOUND:                 0.000
ROOT
REMARK  Name = oxycodone
REMARK                            x       y       z     vdW  Elec       q    Type
REMARK                         _______ _______ _______ _____ _____    ______ ____
ATOM      1  C   UNL     1      59.482  62.110  66.495  0.00  0.00    +0.000 C 
ATOM      2  O   UNL     1      59.648  62.010  67.297  0.00  0.00    +0.000 OA
ATOM      3  C   UNL     1      60.218  62.481  67.662  0.00  0.00    +0.000 A 
ATOM      4  C   UNL     1      60.622  63.056  67.205  0.00  0.00    +0.000 A 
ATOM      5  C   UNL     1      61.195  63.531  67.565  0.00  0.00    +0.000 A 
ATOM      6  C   UNL     1      61.347  63.417  68.372  0.00  0.00    +0.000 A 
ATOM      7  C   UNL     1      61.907  63.882  68.718  0.00  0.00    +0.000 C 
ATOM      8  C   UNL     1      62.005  63.715  69.514  0.00  0.00    +0.000 C 
ATOM      9  N   UNL     1      62.478  64.015  70.086  0.00  0.00    +0.000 NA
ATOM     10  C   UNL     1      63.035  64.620  70.013  0.00  0.00    +0.000 C 
ATOM     11  C   UNL     1      62.288  63.590  70.757  0.00  0.00    +0.000 C 
ATOM     12  C   UNL     1      61.648  62.992  70.552  0.00  0.00    +0.000 C 
ATOM     13  C   UNL     1      61.134  62.749  69.687  0.00  0.00    +0.000 C 
ATOM     14  C   UNL     1      60.573  62.116  69.834  0.00  0.00    +0.000 C 
ATOM     15  O   UNL     1      60.146  61.902  69.149  0.00  0.00    +0.000 OA
ATOM     16  C   UNL     1      60.379  62.367  68.492  0.00  0.00    +0.000 A 
ATOM     17  C   UNL     1      60.951  62.849  68.831  0.00  0.00    +0.000 A 
ATOM     18  C   UNL     1      60.553  61.827  70.623  0.00  0.00    +0.000 C 
ATOM     19  O   UNL     1      60.029  61.217  70.812  0.00  0.00    +0.000 OA
ATOM     20  C   UNL     1      61.037  62.132  71.211  0.00  0.00    +0.000 C 
ATOM     21  C   UNL     1      61.524  62.723  70.962  0.00  0.00    +0.000 C 
ATOM     22  C   UNL     1      61.518  63.034  70.028  0.00  0.00    +0.000 C 
ATOM     23  O   UNL     1      62.063  63.445  70.490  0.00  0.00    +0.000 OA
ENDROOT
TORSDOF 0
ENDMDL
MODEL 3
REMARK VINA RESULT:   -10.534      1.630      3.242
REMARK INTER + INTRA:         -10.534
REMARK INTER:                 -10.534
REMARK INTRA:                   0.000
REMARK UNBOUND:                 0.000
ROOT
REMARK  Name = oxycodone
REMARK                            x       y       z     vdW  Elec       q    Type
REMARK                         _______ _______ _______ _____ _____    ______ ____
ATOM      1  C   UNL     1      59.478  66.841  70.774  0.00  0.00    +0.000 C 
ATOM      2  O   UNL     1      59.677  66.060  70.946  0.00  0.00    +0.000 OA
ATOM      3  C   UNL     1      59.793  65.518  70.334  0.00  0.00    +0.000 A 
ATOM      4  C   UNL     1      59.703  65.778  69.543  0.00  0.00    +0.000 A 
ATOM      5  C   UNL     1      59.817  65.241  68.924  0.00  0.00    +0.000 A 
ATOM      6  C   UNL     1      60.018  64.459  69.117  0.00  0.00    +0.000 A 
ATOM      7  C   UNL     1      60.128  63.940  68.511  0.00  0.00    +0.000 C 
ATOM      8  C   UNL     1      60.323  63.189  68.774  0.00  0.00    +0.000 C 
ATOM      9  N   UNL     1      60.483  62.498  68.401  0.00  0.00    +0.000 NA
ATOM     10  C   UNL     1      60.493  62.356  67.588  0.00  0.00    +0.000 C 
ATOM     11  C   UNL     1      60.634  61.967  69.003  0.00  0.00    +0.000 C 
ATOM     12  C   UNL     1      60.553  62.390  69.792  0.00  0.00    +0.000 C 
ATOM     13  C   UNL     1      60.321  63.359  70.075  0.00  0.00    +0.000 C 
ATOM     14  C   UNL     1      60.329  63.437  70.929  0.00  0.00    +0.000 C 
ATOM     15  O   UNL     1      60.144  64.211  71.182  0.00  0.00    +0.000 OA
ATOM     16  C   UNL     1      59.999  64.713  70.527  0.00  0.00    +0.000 A 
ATOM     17  C   UNL     1      60.108  64.195  69.900  0.00  0.00    +0.000 A 
ATOM     18  C   UNL     1      60.516  62.736  71.355  0.00  0.00    +0.000 C 
ATOM     19  O   UNL     1      60.535  62.762  72.180  0.00  0.00    +0.000 OA
ATOM     20  C   UNL     1      60.680  62.028  70.975  0.00  0.00    +0.000 C 
ATOM     21  C   UNL     1      60.645  62.068  70.172  0.00  0.00    +0.000 C 
ATOM     22  C   UNL     1      60.422  62.909  69.710  0.00  0.00    +0.000 C 
ATOM     23  O   UNL     1      60.559  62.291  69.183  0.00  0.00    +0.000 OA
ENDROOT
TORSDOF 0
ENDMDL
MODEL 4
REMARK VINA RESULT:   -10.477      1.101      2.273
REMARK INTER + INTRA:         -10.477
REMARK INTER:                 -10.477
REMARK INTRA:                   0.000
REMARK UNBOUND:                 0.000
ROOT
REMARK  Name = oxycodone
REMARK                            x       y       z     vdW  Elec       q    Type
REMARK                         _______ _______ _______ _____ _____    ______ ____
ATOM      1  C   UNL     1      59.914  62.611  67.611  0.00  0.00    +0.000 C 
ATOM      2  O   UNL     1      59.903  63.133  68.250  0.00  0.00    +0.000 OA
ATOM      3  C   UNL     1      60.204  62.897  68.981  0.00  0.00    +0.000 A 
ATOM      4  C   UNL     1      60.518  62.124  69.058  0.00  0.00    +0.000 A 
ATOM      5  C   UNL     1      60.822  61.880  69.788  0.00  0.00    +0.000 A 
ATOM      6  C   UNL     1      60.802  62.418  70.419  0.00  0.00    +0.000 A 
ATOM      7  C   UNL     1      61.099  62.176  71.128  0.00  0.00    +0.000 C 
ATOM      8  C   UNL     1      61.046  62.756  71.704  0.00  0.00    +0.000 C 
ATOM      9  N   UNL     1      61.258  62.788  72.475  0.00  0.00    +0.000 NA
ATOM     10  C   UNL     1      61.613  62.193  72.925  0.00  0.00    +0.000 C 
ATOM     11  C   UNL     1      61.046  63.538  72.719  0.00  0.00    +0.000 C 
ATOM     12  C   UNL     1      60.679  63.976  72.025  0.00  0.00    +0.000 C 
ATOM     13  C   UNL     1      60.483  63.736  71.037  0.00  0.00    +0.000 C 
ATOM     14  C   UNL     1      60.116  64.396  70.630  0.00  0.00    +0.000 C 
ATOM     15  O   UNL     1      59.948  64.225  69.830  0.00  0.00    +0.000 OA
ATOM     16  C   UNL     1      60.186  63.446  69.634  0.00  0.00    +0.000 A 
ATOM     17  C   UNL     1      60.492  63.186  70.350  0.00  0.00    +0.000 A 
ATOM     18  C   UNL     1      59.991  65.085  71.097  0.00  0.00    +0.000 C 
ATOM     19  O   UNL     1      59.640  65.745  70.748  0.00  0.00    +0.000 OA
ATOM     20  C   UNL     1      60.207  65.119  71.887  0.00  0.00    +0.000 C 
ATOM     21  C   UNL     1      60.543  64.443  72.166  0.00  0.00    +0.000 C 
ATOM     22  C   UNL     1      60.672  63.657  71.588  0.00  0.00    +0.000 C 
ATOM     23  O   UNL     1      60.944  63.528  72.355  0.00  0.00    +0.000 OA
ENDROOT
TORSDOF 0
ENDMDL
MODEL 5
REMARK VINA RESULT:   -10.277      2.152      3.059
REMARK INTER + INTRA:         -10.277
REMARK INTER:                 -10.277
REMARK INTRA:                   0.000
REMARK UNBOUND:                 0.000
ROOT
REMARK  Name = oxycodone
REMARK                            x       y       z     vdW  Elec       q    Type
REMARK                         _______ _______ _______ _____ _____    ______ ____
ATOM      1  C   UNL     1      61.315  61.279  71.621  0.00  0.00    +0.000 C 
ATOM      2  O   UNL     1      61.715  61.915  71.280  0.00  0.00    +0.000 OA
ATOM      3  C   UNL     1      61.704  62.654  71.645  0.00  0.00    +0.000 A 
ATOM      4  C   UNL     1      61.283  62.744  72.364  0.00  0.00    +0.000 A 
ATOM      5  C   UNL     1      61.267  63.482  72.736  0.00  0.00    +0.000 A 
ATOM      6  C   UNL     1      61.674  64.109  72.378  0.00  0.00    +0.000 A 
ATOM      7  C   UNL     1      61.657  64.827  72.744  0.00  0.00    +0.000 C 
ATOM      8  C   UNL     1      62.079  65.397  72.336  0.00  0.00    +0.000 C 
ATOM      9  N   UNL     1      62.225  66.174  72.467  0.00  0.00    +0.000 NA
ATOM     10  C   UNL     1      61.966  66.635  73.100  0.00  0.00    +0.000 C 
ATOM     11  C   UNL     1      62.687  66.408  71.835  0.00  0.00    +0.000 C 
ATOM     12  C   UNL     1      62.818  65.702  71.293  0.00  0.00    +0.000 C 
ATOM     13  C   UNL     1      62.518  64.712  71.308  0.00  0.00    +0.000 C 
ATOM     14  C   UNL     1      62.822  64.292  70.623  0.00  0.00    +0.000 C 
ATOM     15  O   UNL     1      62.593  63.489  70.613  0.00  0.00    +0.000 OA
ATOM     16  C   UNL     1      62.122  63.303  71.281  0.00  0.00    +0.000 A 
ATOM     17  C   UNL     1      62.095  64.028  71.666  0.00  0.00    +0.000 A 
ATOM     18  C   UNL     1      63.287  64.751  70.094  0.00  0.00    +0.000 C 
ATOM     19  O   UNL     1      63.600  64.390  69.421  0.00  0.00    +0.000 OA
ATOM     20  C   UNL     1      63.438  65.546  70.226  0.00  0.00    +0.000 C 
ATOM     21  C   UNL     1      63.104  65.838  70.898  0.00  0.00    +0.000 C 
ATOM     22  C   UNL     1      62.566  65.267  71.493  0.00  0.00    +0.000 C 
ATOM     23  O   UNL     1      62.621  66.042  71.769  0.00  0.00    +0.000 OA
ENDROOT
TORSDOF 0
ENDMDL
MODEL 6
REMARK VINA RESULT:   -10.259      2.219      3.576
REMARK INTER + INTRA:         -10.259
REMARK INTER:                 -10.259
REMARK INTRA:                   0.000
REMARK UNBOUND:                 0.000
ROOT
REMARK  Name = oxycodone
REMARK                            x       y       z     vdW  Elec       q    Type
REMARK                         _______ _______ _______ _____ _____    ______ ____
ATOM      1  C   UNL     1      60.711  62.103  70.244  0.00  0.00    +0.000 C 
ATOM      2  O   UNL     1      60.550  62.890  70.056  0.00  0.00    +0.000 OA
ATOM      3  C   UNL     1      60.267  63.404  70.636  0.00  0.00    +0.000 A 
ATOM      4  C   UNL     1      60.148  63.111  71.412  0.00  0.00    +0.000 A 
ATOM      5  C   UNL     1      59.864  63.620  71.999  0.00  0.00    +0.000 A 
ATOM      6  C   UNL     1      59.708  64.408  71.792  0.00  0.00    +0.000 A 
ATOM      7  C   UNL     1      59.432  64.900  72.367  0.00  0.00    +0.000 C 
ATOM      8  C   UNL     1      59.300  65.660  72.091  0.00  0.00    +0.000 C 
ATOM      9  N   UNL     1      59.034  66.332  72.436  0.00  0.00    +0.000 NA
ATOM     10  C   UNL     1      58.807  66.440  73.222  0.00  0.00    +0.000 C 
ATOM     11  C   UNL     1      59.038  66.888  71.837  0.00  0.00    +0.000 C 
ATOM     12  C   UNL     1      59.333  66.500  71.081  0.00  0.00    +0.000 C 
ATOM     13  C   UNL     1      59.649  65.546  70.832  0.00  0.00    +0.000 C 
ATOM     14  C   UNL     1      59.869  65.505  70.004  0.00  0.00    +0.000 C 
ATOM     15  O   UNL     1      60.128  64.744  69.779  0.00  0.00    +0.000 OA
ATOM     16  C   UNL     1      60.104  64.215  70.428  0.00  0.00    +0.000 A 
ATOM     17  C   UNL     1      59.823  64.705  71.024  0.00  0.00    +0.000 A 
ATOM     18  C   UNL     1      59.788  66.223  69.572  0.00  0.00    +0.000 C 
ATOM     19  O   UNL     1      59.988  66.232  68.771  0.00  0.00    +0.000 OA
ATOM     20  C   UNL     1      59.516  66.913  69.922  0.00  0.00    +0.000 C 
ATOM     21  C   UNL     1      59.339  66.837  70.704  0.00  0.00    +0.000 C 
ATOM     22  C   UNL     1      59.447  65.979  71.175  0.00  0.00    +0.000 C 
ATOM     23  O   UNL     1      59.164  66.573  71.670  0.00  0.00    +0.000 OA
ENDROOT
TORSDOF 0
ENDMDL
MODEL 7
REMARK VINA RESULT:   -10.173      4.261      4.999
REMARK INTER + INTRA:         -10.173
REMARK INTER:                 -10.173
REMARK INTRA:                   0.000
REMARK UNBOUND:                 0.000
ROOT
REMARK  Name = oxycodone
REMARK                            x       y       z     vdW  Elec       q    Type
REMARK                         _______ _______ _______ _____ _____    ______ ____
ATOM      1  C   UNL     1      62.158  63.690  69.761  0.00  0.00    +0.000 C 
ATOM      2  O   UNL     1      62.317  64.298  70.295  0.00  0.00    +0.000 OA
ATOM      3  C   UNL     1      62.995  64.760  70.206  0.00  0.00    +0.000 A 
ATOM      4  C   UNL     1      63.512  64.599  69.567  0.00  0.00    +0.000 A 
ATOM      5  C   UNL     1      64.194  65.057  69.471  0.00  0.00    +0.000 A 
ATOM      6  C   UNL     1      64.337  65.664  70.018  0.00  0.00    +0.000 A 
ATOM      7  C   UNL     1      65.002  66.108  69.921  0.00  0.00    +0.000 C 
ATOM      8  C   UNL     1      65.079  66.687  70.496  0.00  0.00    +0.000 C 
ATOM      9  N   UNL     1      65.628  67.253  70.637  0.00  0.00    +0.000 NA
ATOM     10  C   UNL     1      66.313  67.411  70.204  0.00  0.00    +0.000 C 
ATOM     11  C   UNL     1      65.360  67.639  71.306  0.00  0.00    +0.000 C 
ATOM     12  C   UNL     1      64.588  67.261  71.571  0.00  0.00    +0.000 C 
ATOM     13  C   UNL     1      64.006  66.480  71.220  0.00  0.00    +0.000 C 
ATOM     14  C   UNL     1      63.313  66.371  71.715  0.00  0.00    +0.000 C 
ATOM     15  O   UNL     1      62.827  65.745  71.452  0.00  0.00    +0.000 OA
ATOM     16  C   UNL     1      63.147  65.385  70.766  0.00  0.00    +0.000 A 
ATOM     17  C   UNL     1      63.829  65.829  70.654  0.00  0.00    +0.000 A 
ATOM     18  C   UNL     1      63.246  66.901  72.365  0.00  0.00    +0.000 C 
ATOM     19  O   UNL     1      62.595  66.834  72.869  0.00  0.00    +0.000 OA
ATOM     20  C   UNL     1      63.806  67.481  72.513  0.00  0.00    +0.000 C 
ATOM     21  C   UNL     1      64.414  67.494  71.985  0.00  0.00    +0.000 C 
ATOM     22  C   UNL     1      64.457  66.855  71.237  0.00  0.00    +0.000 C 
ATOM     23  O   UNL     1      65.098  67.373  71.243  0.00  0.00    +0.000 OA
ENDROOT
TORSDOF 0
ENDMDL
MODEL 8
REMARK VINA RESULT:    -9.827      1.960      3.476
REMARK INTER + INTRA:          -9.827
REMARK INTER:                  -9.827
REMARK INTRA:                   0.000
REMARK UNBOUND:                 0.000
ROOT
REMARK  Name = oxycodone
REMARK                            x       y       z     vdW  Elec       q    Type
REMARK                         _______ _______ _______ _____ _____    ______ ____
ATOM      1  C   UNL     1      64.273  66.352  71.403  0.00  0.00    +0.000 C 
ATOM      2  O   UNL     1      63.524  66.158  71.689  0.00  0.00    +0.000 OA
ATOM      3  C   UNL     1      63.140  65.481  71.416  0.00  0.00    +0.000 A 
ATOM      4  C   UNL     1      63.524  65.000  70.848  0.00  0.00    +0.000 A 
ATOM      5  C   UNL     1      63.146  64.319  70.570  0.00  0.00    +0.000 A 
ATOM      6  C   UNL     1      62.393  64.140  70.869  0.00  0.00    +0.000 A 
ATOM      7  C   UNL     1      62.028  63.477  70.595  0.00  0.00    +0.000 C 
ATOM      8  C   UNL     1      61.290  63.363  70.933  0.00  0.00    +0.000 C 
ATOM      9  N   UNL     1      60.725  62.801  70.847  0.00  0.00    +0.000 NA
ATOM     10  C   UNL     1      60.745  62.139  70.355  0.00  0.00    +0.000 C 
ATOM     11  C   UNL     1      60.127  63.030  71.354  0.00  0.00    +0.000 C 
ATOM     12  C   UNL     1      60.370  63.791  71.767  0.00  0.00    +0.000 C 
ATOM     13  C   UNL     1      61.206  64.399  71.733  0.00  0.00    +0.000 C 
ATOM     14  C   UNL     1      61.120  65.066  72.266  0.00  0.00    +0.000 C 
ATOM     15  O   UNL     1      61.784  65.572  72.255  0.00  0.00    +0.000 OA
ATOM     16  C   UNL     1      62.366  65.293  71.721  0.00  0.00    +0.000 A 
ATOM     17  C   UNL     1      62.006  64.613  71.432  0.00  0.00    +0.000 A 
ATOM     18  C   UNL     1      60.398  65.094  72.697  0.00  0.00    +0.000 C 
ATOM     19  O   UNL     1      60.270  65.717  73.222  0.00  0.00    +0.000 OA
ATOM     20  C   UNL     1      59.818  64.520  72.611  0.00  0.00    +0.000 C 
ATOM     21  C   UNL     1      60.004  63.940  72.084  0.00  0.00    +0.000 C 
ATOM     22  C   UNL     1      60.861  63.943  71.598  0.00  0.00    +0.000 C 
ATOM     23  O   UNL     1      60.390  63.297  71.398  0.00  0.00    +0.000 OA
ENDROOT
TORSDOF 0
ENDMDL
