MODEL 1
REMARK VINA RESULT:   -14.653      0.000      0.000
REMARK INTER + INTRA:         -14.653
REMARK INTER:                 -14.653
REMARK INTRA:                   0.000
REMARK UNBOUND:                 0.000
ROOT
REMARK  Name = ozanimod
REMARK                            x       y       z     vdW  Elec       q    Type
REMARK                         _______ _______ _______ _____ _____    ______ ____
ATOM      1  C   UNL     1      66.296  67.711  70.213  0.00  0.00    +0.000 C 
ATOM      2  C   UNL     1      65.745  67.123  70.389  0.00  0.00    +0.000 C 
ATOM      3  C   UNL     1      65.671  66.844  71.161  0.00  0.00    +0.000 C 
ATOM      4  O   UNL     1      65.268  66.813  69.790  0.00  0.00    +0.000 OA
ATOM      5  C   UNL     1      64.717  66.225  69.965  0.00  0.00    +0.000 A 
ATOM      6  C   UNL     1      64.240  65.916  69.368  0.00  0.00    +0.000 A 
ATOM      7  C   UNL     1      63.688  65.327  69.543  0.00  0.00    +0.000 A 
ATOM      8  C   UNL     1      63.615  65.048  70.315  0.00  0.00    +0.000 A 
ATOM      9  C   UNL     1      64.091  65.357  70.913  0.00  0.00    +0.000 A 
ATOM     10  C   UNL     1      64.643  65.946  70.738  0.00  0.00    +0.000 A 
ATOM     11  C   UNL     1      65.119  66.255  71.336  0.00  0.00    +0.000 C 
ATOM     12  N   UNL     1      65.597  66.564  71.934  0.00  0.00    +0.000 NA
ATOM     13  C   UNL     1      63.063  64.460  70.490  0.00  0.00    +0.000 A 
ATOM     14  N   UNL     1      62.551  64.099  69.952  0.00  0.00    +0.000 NA
ATOM     15  C   UNL     1      62.099  63.545  70.364  0.00  0.00    +0.000 A 
ATOM     16  N   UNL     1      62.331  63.562  71.155  0.00  0.00    +0.000 NA
ATOM     17  O   UNL     1      62.927  64.128  71.233  0.00  0.00    +0.000 OA
ATOM     18  C   UNL     1      61.516  63.059  70.040  0.00  0.00    +0.000 A 
ATOM     19  C   UNL     1      61.343  63.103  69.234  0.00  0.00    +0.000 A 
ATOM     20  C   UNL     1      61.652  63.569  68.627  0.00  0.00    +0.000 C 
ATOM     21  C   UNL     1      61.261  63.371  67.929  0.00  0.00    +0.000 C 
ATOM     22  C   UNL     1      60.709  62.782  68.104  0.00  0.00    +0.000 C 
ATOM     23  N   UNL     1      60.197  62.422  67.566  0.00  0.00    +0.000 NA
ATOM     24  C   UNL     1      60.209  62.646  66.772  0.00  0.00    +0.000 C 
ATOM     25  C   UNL     1      59.697  62.286  66.235  0.00  0.00    +0.000 C 
ATOM     26  O   UNL     1      59.173  61.702  66.492  0.00  0.00    +0.000 OA
ATOM     27  C   UNL     1      60.760  62.617  68.911  0.00  0.00    +0.000 A 
ATOM     28  C   UNL     1      60.351  62.086  69.393  0.00  0.00    +0.000 A 
ATOM     29  C   UNL     1      60.525  62.042  70.198  0.00  0.00    +0.000 A 
ATOM     30  C   UNL     1      61.107  62.529  70.521  0.00  0.00    +0.000 A 
ENDROOT
TORSDOF 0
ENDMDL
MODEL 2
REMARK VINA RESULT:   -14.257      1.988      3.348
REMARK INTER + INTRA:         -14.257
REMARK INTER:                 -14.257
REMARK INTRA:                   0.000
REMARK UNBOUND:                 0.000
ROOT
REMARK  Name = ozanimod
REMARK                            x       y       z     vdW  Elec       q    Type
REMARK                         _______ _______ _______ _____ _____    ______ ____
ATOM      1  C   UNL     1      63.479  65.767  71.888  0.00  0.00    +0.000 C 
ATOM      2  C   UNL     1      62.926  65.385  71.411  0.00  0.00    +0.000 C 
ATOM      3  C   UNL     1      62.150  65.289  71.675  0.00  0.00    +0.000 C 
ATOM      4  O   UNL     1      63.148  65.100  70.669  0.00  0.00    +0.000 OA
ATOM      5  C   UNL     1      62.594  64.718  70.190  0.00  0.00    +0.000 A 
ATOM      6  C   UNL     1      62.816  64.434  69.449  0.00  0.00    +0.000 A 
ATOM      7  C   UNL     1      62.262  64.052  68.971  0.00  0.00    +0.000 A 
ATOM      8  C   UNL     1      61.487  63.955  69.236  0.00  0.00    +0.000 A 
ATOM      9  C   UNL     1      61.264  64.240  69.977  0.00  0.00    +0.000 A 
ATOM     10  C   UNL     1      61.818  64.622  70.455  0.00  0.00    +0.000 A 
ATOM     11  C   UNL     1      61.597  64.907  71.196  0.00  0.00    +0.000 C 
ATOM     12  N   UNL     1      61.374  65.192  71.938  0.00  0.00    +0.000 NA
ATOM     13  C   UNL     1      60.933  63.573  68.757  0.00  0.00    +0.000 A 
ATOM     14  N   UNL     1      61.073  63.261  68.006  0.00  0.00    +0.000 NA
ATOM     15  C   UNL     1      60.368  62.932  67.732  0.00  0.00    +0.000 A 
ATOM     16  N   UNL     1      59.793  63.040  68.312  0.00  0.00    +0.000 NA
ATOM     17  O   UNL     1      60.141  63.437  68.946  0.00  0.00    +0.000 OA
ATOM     18  C   UNL     1      60.259  62.559  67.004  0.00  0.00    +0.000 A 
ATOM     19  C   UNL     1      60.890  62.491  66.476  0.00  0.00    +0.000 A 
ATOM     20  C   UNL     1      61.677  62.736  66.522  0.00  0.00    +0.000 C 
ATOM     21  C   UNL     1      62.054  62.515  65.822  0.00  0.00    +0.000 C 
ATOM     22  C   UNL     1      61.500  62.133  65.344  0.00  0.00    +0.000 C 
ATOM     23  N   UNL     1      61.640  61.821  64.593  0.00  0.00    +0.000 NA
ATOM     24  C   UNL     1      62.392  61.877  64.257  0.00  0.00    +0.000 C 
ATOM     25  C   UNL     1      62.532  61.564  63.506  0.00  0.00    +0.000 C 
ATOM     26  O   UNL     1      61.920  61.196  63.092  0.00  0.00    +0.000 OA
ATOM     27  C   UNL     1      60.780  62.118  65.749  0.00  0.00    +0.000 A 
ATOM     28  C   UNL     1      60.040  61.813  65.548  0.00  0.00    +0.000 A 
ATOM     29  C   UNL     1      59.410  61.882  66.076  0.00  0.00    +0.000 A 
ATOM     30  C   UNL     1      59.519  62.255  66.804  0.00  0.00    +0.000 A 
ENDROOT
TORSDOF 0
ENDMDL
