MODEL 1
REMARK VINA RESULT:   -18.778      0.000      0.000
REMARK INTER + INTRA:         -18.778
REMARK INTER:                 -18.778
REMARK INTRA:                   0.000
REMARK UNBOUND:                 0.000
ROOT
REMARK  Name = paclitaxel
REMARK                            x       y       z     vdW  Elec       q    Type
REMARK                         _______ _______ _______ _____ _____    ______ ____
ATOM      1  C   UNL     1      63.037  68.436  57.157  0.00  0.00    +0.000 C 
ATOM      2  C   UNL     1      62.705  68.257  56.423  0.00  0.00    +0.000 C 
ATOM      3  O   UNL     1      62.758  67.490  56.122  0.00  0.00    +0.000 OA
ATOM      4  O   UNL     1      62.321  68.844  55.990  0.00  0.00    +0.000 OA
ATOM      5  C   UNL     1      61.990  68.665  55.256  0.00  0.00    +0.000 C 
ATOM      6  C   UNL     1      62.120  67.823  55.065  0.00  0.00    +0.000 C 
ATOM      7  C   UNL     1      62.372  66.995  55.116  0.00  0.00    +0.000 C 
ATOM      8  C   UNL     1      62.785  66.760  55.790  0.00  0.00    +0.000 C 
ATOM      9  C   UNL     1      62.223  66.411  54.523  0.00  0.00    +0.000 C 
ATOM     10  C   UNL     1      61.798  66.675  53.842  0.00  0.00    +0.000 C 
ATOM     11  C   UNL     1      61.516  67.485  53.722  0.00  0.00    +0.000 C 
ATOM     12  O   UNL     1      61.243  67.150  53.020  0.00  0.00    +0.000 OA
ATOM     13  C   UNL     1      61.141  68.192  53.371  0.00  0.00    +0.000 C 
ATOM     14  O   UNL     1      60.813  68.003  52.638  0.00  0.00    +0.000 OA
ATOM     15  C   UNL     1      60.871  67.235  52.345  0.00  0.00    +0.000 C 
ATOM     16  O   UNL     1      61.257  66.654  52.786  0.00  0.00    +0.000 OA
ATOM     17  C   UNL     1      60.542  67.046  51.613  0.00  0.00    +0.000 A 
ATOM     18  C   UNL     1      60.156  67.626  51.172  0.00  0.00    +0.000 A 
ATOM     19  C   UNL     1      59.827  67.437  50.439  0.00  0.00    +0.000 A 
ATOM     20  C   UNL     1      59.885  66.668  50.146  0.00  0.00    +0.000 A 
ATOM     21  C   UNL     1      60.272  66.088  50.587  0.00  0.00    +0.000 A 
ATOM     22  C   UNL     1      60.600  66.276  51.320  0.00  0.00    +0.000 A 
ATOM     23  C   UNL     1      61.008  69.019  53.549  0.00  0.00    +0.000 C 
ATOM     24  C   UNL     1      60.592  69.334  52.910  0.00  0.00    +0.000 C 
ATOM     25  C   UNL     1      60.235  69.239  52.172  0.00  0.00    +0.000 C 
ATOM     26  O   UNL     1      60.019  70.035  52.174  0.00  0.00    +0.000 OA
ATOM     27  C   UNL     1      60.375  70.130  52.911  0.00  0.00    +0.000 C 
ATOM     28  C   UNL     1      60.576  70.611  53.551  0.00  0.00    +0.000 C 
ATOM     29  C   UNL     1      60.993  70.295  54.190  0.00  0.00    +0.000 C 
ATOM     30  O   UNL     1      61.193  70.776  54.829  0.00  0.00    +0.000 OA
ATOM     31  C   UNL     1      61.209  69.499  54.188  0.00  0.00    +0.000 C 
ATOM     32  C   UNL     1      61.365  70.053  54.780  0.00  0.00    +0.000 C 
ATOM     33  C   UNL     1      61.625  69.363  54.919  0.00  0.00    +0.000 C 
ATOM     34  O   UNL     1      61.690  70.033  55.396  0.00  0.00    +0.000 OA
ATOM     35  O   UNL     1      60.708  68.540  52.718  0.00  0.00    +0.000 OA
ATOM     36  C   UNL     1      60.420  68.242  52.005  0.00  0.00    +0.000 C 
ATOM     37  C   UNL     1      60.015  68.738  51.484  0.00  0.00    +0.000 C 
ATOM     38  O   UNL     1      60.536  67.448  51.812  0.00  0.00    +0.000 OA
ATOM     39  C   UNL     1      61.797  67.718  54.387  0.00  0.00    +0.000 C 
ATOM     40  C   UNL     1      61.437  68.371  54.035  0.00  0.00    +0.000 C 
ATOM     41  C   UNL     1      61.686  68.509  54.589  0.00  0.00    +0.000 C 
ATOM     42  O   UNL     1      62.478  65.631  54.604  0.00  0.00    +0.000 OA
ATOM     43  C   UNL     1      62.320  65.081  54.010  0.00  0.00    +0.000 C 
ATOM     44  O   UNL     1      61.906  65.312  53.334  0.00  0.00    +0.000 OA
ATOM     45  C   UNL     1      62.574  64.300  54.091  0.00  0.00    +0.000 C 
ATOM     46  O   UNL     1      62.987  64.070  54.766  0.00  0.00    +0.000 OA
ATOM     47  C   UNL     1      62.416  63.751  53.496  0.00  0.00    +0.000 C 
ATOM     48  N   UNL     1      62.670  62.970  53.578  0.00  0.00    +0.000 NA
ATOM     49  C   UNL     1      62.512  62.421  52.983  0.00  0.00    +0.000 C 
ATOM     50  O   UNL     1      62.099  62.651  52.307  0.00  0.00    +0.000 OA
ATOM     51  C   UNL     1      62.767  61.640  53.064  0.00  0.00    +0.000 A 
ATOM     52  C   UNL     1      62.608  61.091  52.470  0.00  0.00    +0.000 A 
ATOM     53  C   UNL     1      62.863  60.310  52.551  0.00  0.00    +0.000 A 
ATOM     54  C   UNL     1      63.276  60.079  53.227  0.00  0.00    +0.000 A 
ATOM     55  C   UNL     1      63.434  60.629  53.821  0.00  0.00    +0.000 A 
ATOM     56  C   UNL     1      63.180  61.409  53.740  0.00  0.00    +0.000 A 
ATOM     57  C   UNL     1      62.003  63.982  52.821  0.00  0.00    +0.000 A 
ATOM     58  C   UNL     1      61.748  64.762  52.739  0.00  0.00    +0.000 A 
ATOM     59  C   UNL     1      61.335  64.993  52.064  0.00  0.00    +0.000 A 
ATOM     60  C   UNL     1      61.176  64.444  51.469  0.00  0.00    +0.000 A 
ATOM     61  C   UNL     1      61.431  63.663  51.550  0.00  0.00    +0.000 A 
ATOM     62  C   UNL     1      61.844  63.432  52.226  0.00  0.00    +0.000 A 
ENDROOT
TORSDOF 0
ENDMDL
MODEL 2
REMARK VINA RESULT:   -18.376      1.417      3.584
REMARK INTER + INTRA:         -18.376
REMARK INTER:                 -18.376
REMARK INTRA:                   0.000
REMARK UNBOUND:                 0.000
ROOT
REMARK  Name = paclitaxel
REMARK                            x       y       z     vdW  Elec       q    Type
REMARK                         _______ _______ _______ _____ _____    ______ ____
ATOM      1  C   UNL     1      61.504  67.662  48.105  0.00  0.00    +0.000 C 
ATOM      2  C   UNL     1      61.568  67.524  48.916  0.00  0.00    +0.000 C 
ATOM      3  O   UNL     1      61.606  66.751  49.202  0.00  0.00    +0.000 OA
ATOM      4  O   UNL     1      61.593  68.160  49.442  0.00  0.00    +0.000 OA
ATOM      5  C   UNL     1      61.657  68.021  50.252  0.00  0.00    +0.000 C 
ATOM      6  C   UNL     1      61.687  67.163  50.409  0.00  0.00    +0.000 C 
ATOM      7  C   UNL     1      61.698  66.304  50.297  0.00  0.00    +0.000 C 
ATOM      8  C   UNL     1      61.646  66.018  49.525  0.00  0.00    +0.000 C 
ATOM      9  C   UNL     1      61.757  65.738  50.922  0.00  0.00    +0.000 C 
ATOM     10  C   UNL     1      61.808  66.055  51.704  0.00  0.00    +0.000 C 
ATOM     11  C   UNL     1      61.804  66.900  51.893  0.00  0.00    +0.000 C 
ATOM     12  O   UNL     1      61.868  66.598  52.657  0.00  0.00    +0.000 OA
ATOM     13  C   UNL     1      61.820  67.653  52.334  0.00  0.00    +0.000 C 
ATOM     14  O   UNL     1      61.884  67.505  53.143  0.00  0.00    +0.000 OA
ATOM     15  C   UNL     1      61.922  66.729  53.420  0.00  0.00    +0.000 C 
ATOM     16  O   UNL     1      61.896  66.100  52.886  0.00  0.00    +0.000 OA
ATOM     17  C   UNL     1      61.985  66.581  54.229  0.00  0.00    +0.000 A 
ATOM     18  C   UNL     1      62.012  67.209  54.763  0.00  0.00    +0.000 A 
ATOM     19  C   UNL     1      62.075  67.061  55.572  0.00  0.00    +0.000 A 
ATOM     20  C   UNL     1      62.113  66.284  55.847  0.00  0.00    +0.000 A 
ATOM     21  C   UNL     1      62.087  65.656  55.313  0.00  0.00    +0.000 A 
ATOM     22  C   UNL     1      62.023  65.804  54.504  0.00  0.00    +0.000 A 
ATOM     23  C   UNL     1      61.791  68.497  52.191  0.00  0.00    +0.000 C 
ATOM     24  C   UNL     1      61.838  68.864  52.929  0.00  0.00    +0.000 C 
ATOM     25  C   UNL     1      61.901  68.813  53.750  0.00  0.00    +0.000 C 
ATOM     26  O   UNL     1      61.887  69.636  53.802  0.00  0.00    +0.000 OA
ATOM     27  C   UNL     1      61.824  69.687  52.982  0.00  0.00    +0.000 C 
ATOM     28  C   UNL     1      61.763  70.144  52.296  0.00  0.00    +0.000 C 
ATOM     29  C   UNL     1      61.716  69.776  51.559  0.00  0.00    +0.000 C 
ATOM     30  O   UNL     1      61.655  70.231  50.875  0.00  0.00    +0.000 OA
ATOM     31  C   UNL     1      61.730  68.953  51.507  0.00  0.00    +0.000 C 
ATOM     32  C   UNL     1      61.672  69.487  50.881  0.00  0.00    +0.000 C 
ATOM     33  C   UNL     1      61.672  68.765  50.678  0.00  0.00    +0.000 C 
ATOM     34  O   UNL     1      61.621  69.427  50.188  0.00  0.00    +0.000 OA
ATOM     35  O   UNL     1      61.868  68.055  53.091  0.00  0.00    +0.000 OA
ATOM     36  C   UNL     1      61.932  67.793  53.870  0.00  0.00    +0.000 C 
ATOM     37  C   UNL     1      61.966  68.339  54.488  0.00  0.00    +0.000 C 
ATOM     38  O   UNL     1      61.962  66.984  54.032  0.00  0.00    +0.000 OA
ATOM     39  C   UNL     1      61.745  67.098  51.163  0.00  0.00    +0.000 C 
ATOM     40  C   UNL     1      61.763  67.795  51.602  0.00  0.00    +0.000 C 
ATOM     41  C   UNL     1      61.715  67.903  50.990  0.00  0.00    +0.000 C 
ATOM     42  O   UNL     1      61.764  64.926  50.777  0.00  0.00    +0.000 OA
ATOM     43  C   UNL     1      61.822  64.396  51.407  0.00  0.00    +0.000 C 
ATOM     44  O   UNL     1      61.874  64.677  52.181  0.00  0.00    +0.000 OA
ATOM     45  C   UNL     1      61.829  63.583  51.263  0.00  0.00    +0.000 C 
ATOM     46  O   UNL     1      61.778  63.301  50.490  0.00  0.00    +0.000 OA
ATOM     47  C   UNL     1      61.888  63.053  51.893  0.00  0.00    +0.000 C 
ATOM     48  N   UNL     1      61.895  62.241  51.748  0.00  0.00    +0.000 NA
ATOM     49  C   UNL     1      61.953  61.711  52.378  0.00  0.00    +0.000 C 
ATOM     50  O   UNL     1      62.005  61.992  53.152  0.00  0.00    +0.000 OA
ATOM     51  C   UNL     1      61.960  60.898  52.233  0.00  0.00    +0.000 A 
ATOM     52  C   UNL     1      62.019  60.369  52.863  0.00  0.00    +0.000 A 
ATOM     53  C   UNL     1      62.026  59.556  52.719  0.00  0.00    +0.000 A 
ATOM     54  C   UNL     1      61.974  59.274  51.945  0.00  0.00    +0.000 A 
ATOM     55  C   UNL     1      61.916  59.804  51.316  0.00  0.00    +0.000 A 
ATOM     56  C   UNL     1      61.909  60.616  51.460  0.00  0.00    +0.000 A 
ATOM     57  C   UNL     1      61.939  63.335  52.666  0.00  0.00    +0.000 A 
ATOM     58  C   UNL     1      61.933  64.148  52.810  0.00  0.00    +0.000 A 
ATOM     59  C   UNL     1      61.984  64.430  53.583  0.00  0.00    +0.000 A 
ATOM     60  C   UNL     1      62.043  63.900  54.213  0.00  0.00    +0.000 A 
ATOM     61  C   UNL     1      62.050  63.087  54.069  0.00  0.00    +0.000 A 
ATOM     62  C   UNL     1      61.998  62.805  53.295  0.00  0.00    +0.000 A 
ENDROOT
TORSDOF 0
ENDMDL
MODEL 3
REMARK VINA RESULT:   -18.273      2.258      7.649
REMARK INTER + INTRA:         -18.273
REMARK INTER:                 -18.273
REMARK INTRA:                   0.000
REMARK UNBOUND:                 0.000
ROOT
REMARK  Name = paclitaxel
REMARK                            x       y       z     vdW  Elec       q    Type
REMARK                         _______ _______ _______ _____ _____    ______ ____
ATOM      1  C   UNL     1      63.597  58.584  54.772  0.00  0.00    +0.000 C 
ATOM      2  C   UNL     1      63.455  59.051  54.107  0.00  0.00    +0.000 C 
ATOM      3  O   UNL     1      63.310  59.859  54.193  0.00  0.00    +0.000 OA
ATOM      4  O   UNL     1      63.459  58.710  53.356  0.00  0.00    +0.000 OA
ATOM      5  C   UNL     1      63.317  59.177  52.691  0.00  0.00    +0.000 C 
ATOM      6  C   UNL     1      63.180  60.006  52.930  0.00  0.00    +0.000 C 
ATOM      7  C   UNL     1      63.084  60.721  53.410  0.00  0.00    +0.000 C 
ATOM      8  C   UNL     1      63.164  60.647  54.227  0.00  0.00    +0.000 C 
ATOM      9  C   UNL     1      62.915  61.489  53.099  0.00  0.00    +0.000 C 
ATOM     10  C   UNL     1      62.837  61.539  52.260  0.00  0.00    +0.000 C 
ATOM     11  C   UNL     1      62.920  60.869  51.717  0.00  0.00    +0.000 C 
ATOM     12  O   UNL     1      62.763  61.462  51.166  0.00  0.00    +0.000 OA
ATOM     13  C   UNL     1      62.952  60.388  50.989  0.00  0.00    +0.000 C 
ATOM     14  O   UNL     1      62.809  60.863  50.330  0.00  0.00    +0.000 OA
ATOM     15  C   UNL     1      62.665  61.669  50.425  0.00  0.00    +0.000 C 
ATOM     16  O   UNL     1      62.663  62.001  51.180  0.00  0.00    +0.000 OA
ATOM     17  C   UNL     1      62.522  62.144  49.766  0.00  0.00    +0.000 A 
ATOM     18  C   UNL     1      62.523  61.813  49.010  0.00  0.00    +0.000 A 
ATOM     19  C   UNL     1      62.380  62.288  48.351  0.00  0.00    +0.000 A 
ATOM     20  C   UNL     1      62.236  63.095  48.447  0.00  0.00    +0.000 A 
ATOM     21  C   UNL     1      62.235  63.426  49.203  0.00  0.00    +0.000 A 
ATOM     22  C   UNL     1      62.378  62.951  49.862  0.00  0.00    +0.000 A 
ATOM     23  C   UNL     1      63.085  59.578  50.744  0.00  0.00    +0.000 C 
ATOM     24  C   UNL     1      63.020  59.566  49.922  0.00  0.00    +0.000 C 
ATOM     25  C   UNL     1      62.889  59.959  49.209  0.00  0.00    +0.000 C 
ATOM     26  O   UNL     1      62.989  59.251  48.799  0.00  0.00    +0.000 OA
ATOM     27  C   UNL     1      63.121  58.857  49.511  0.00  0.00    +0.000 C 
ATOM     28  C   UNL     1      63.285  58.161  49.923  0.00  0.00    +0.000 C 
ATOM     29  C   UNL     1      63.349  58.175  50.746  0.00  0.00    +0.000 C 
ATOM     30  O   UNL     1      63.514  57.479  51.158  0.00  0.00    +0.000 OA
ATOM     31  C   UNL     1      63.249  58.883  51.156  0.00  0.00    +0.000 C 
ATOM     32  C   UNL     1      63.415  58.143  51.481  0.00  0.00    +0.000 C 
ATOM     33  C   UNL     1      63.350  58.698  51.982  0.00  0.00    +0.000 C 
ATOM     34  O   UNL     1      63.512  57.902  52.128  0.00  0.00    +0.000 OA
ATOM     35  O   UNL     1      62.889  60.353  50.134  0.00  0.00    +0.000 OA
ATOM     36  C   UNL     1      62.736  60.916  49.552  0.00  0.00    +0.000 C 
ATOM     37  C   UNL     1      62.714  60.694  48.757  0.00  0.00    +0.000 C 
ATOM     38  O   UNL     1      62.605  61.703  49.764  0.00  0.00    +0.000 OA
ATOM     39  C   UNL     1      63.057  60.384  52.283  0.00  0.00    +0.000 C 
ATOM     40  C   UNL     1      63.082  59.951  51.582  0.00  0.00    +0.000 C 
ATOM     41  C   UNL     1      63.189  59.595  52.082  0.00  0.00    +0.000 C 
ATOM     42  O   UNL     1      62.830  62.149  53.588  0.00  0.00    +0.000 OA
ATOM     43  C   UNL     1      62.664  62.886  53.258  0.00  0.00    +0.000 C 
ATOM     44  O   UNL     1      62.583  62.965  52.440  0.00  0.00    +0.000 OA
ATOM     45  C   UNL     1      62.579  63.547  53.745  0.00  0.00    +0.000 C 
ATOM     46  O   UNL     1      62.660  63.469  54.563  0.00  0.00    +0.000 OA
ATOM     47  C   UNL     1      62.413  64.285  53.415  0.00  0.00    +0.000 C 
ATOM     48  N   UNL     1      62.328  64.945  53.904  0.00  0.00    +0.000 NA
ATOM     49  C   UNL     1      62.162  65.682  53.574  0.00  0.00    +0.000 C 
ATOM     50  O   UNL     1      62.082  65.761  52.756  0.00  0.00    +0.000 OA
ATOM     51  C   UNL     1      62.077  66.342  54.062  0.00  0.00    +0.000 A 
ATOM     52  C   UNL     1      61.912  67.080  53.732  0.00  0.00    +0.000 A 
ATOM     53  C   UNL     1      61.827  67.741  54.220  0.00  0.00    +0.000 A 
ATOM     54  C   UNL     1      61.907  67.662  55.037  0.00  0.00    +0.000 A 
ATOM     55  C   UNL     1      62.073  66.924  55.367  0.00  0.00    +0.000 A 
ATOM     56  C   UNL     1      62.158  66.265  54.879  0.00  0.00    +0.000 A 
ATOM     57  C   UNL     1      62.332  64.362  52.599  0.00  0.00    +0.000 A 
ATOM     58  C   UNL     1      62.417  63.702  52.110  0.00  0.00    +0.000 A 
ATOM     59  C   UNL     1      62.337  63.780  51.294  0.00  0.00    +0.000 A 
ATOM     60  C   UNL     1      62.171  64.518  50.964  0.00  0.00    +0.000 A 
ATOM     61  C   UNL     1      62.086  65.178  51.451  0.00  0.00    +0.000 A 
ATOM     62  C   UNL     1      62.167  65.100  52.269  0.00  0.00    +0.000 A 
ENDROOT
TORSDOF 0
ENDMDL
MODEL 4
REMARK VINA RESULT:   -17.435      2.095      7.120
REMARK INTER + INTRA:         -17.435
REMARK INTER:                 -17.435
REMARK INTRA:                   0.000
REMARK UNBOUND:                 0.000
ROOT
REMARK  Name = paclitaxel
REMARK                            x       y       z     vdW  Elec       q    Type
REMARK                         _______ _______ _______ _____ _____    ______ ____
ATOM      1  C   UNL     1      63.977  59.168  54.419  0.00  0.00    +0.000 C 
ATOM      2  C   UNL     1      63.438  59.606  53.975  0.00  0.00    +0.000 C 
ATOM      3  O   UNL     1      63.414  60.428  54.049  0.00  0.00    +0.000 OA
ATOM      4  O   UNL     1      62.922  59.223  53.458  0.00  0.00    +0.000 OA
ATOM      5  C   UNL     1      62.382  59.662  53.015  0.00  0.00    +0.000 C 
ATOM      6  C   UNL     1      62.468  60.512  53.192  0.00  0.00    +0.000 C 
ATOM      7  C   UNL     1      62.745  61.260  53.532  0.00  0.00    +0.000 C 
ATOM      8  C   UNL     1      63.354  61.227  54.086  0.00  0.00    +0.000 C 
ATOM      9  C   UNL     1      62.434  62.021  53.335  0.00  0.00    +0.000 C 
ATOM     10  C   UNL     1      61.810  62.029  52.764  0.00  0.00    +0.000 C 
ATOM     11  C   UNL     1      61.483  61.324  52.383  0.00  0.00    +0.000 C 
ATOM     12  O   UNL     1      61.014  61.895  52.019  0.00  0.00    +0.000 OA
ATOM     13  C   UNL     1      60.999  60.800  51.879  0.00  0.00    +0.000 C 
ATOM     14  O   UNL     1      60.463  61.247  51.439  0.00  0.00    +0.000 OA
ATOM     15  C   UNL     1      60.446  62.067  51.519  0.00  0.00    +0.000 C 
ATOM     16  O   UNL     1      60.966  62.442  52.039  0.00  0.00    +0.000 OA
ATOM     17  C   UNL     1      59.910  62.514  51.079  0.00  0.00    +0.000 A 
ATOM     18  C   UNL     1      59.390  62.141  50.559  0.00  0.00    +0.000 A 
ATOM     19  C   UNL     1      58.854  62.588  50.120  0.00  0.00    +0.000 A 
ATOM     20  C   UNL     1      58.838  63.409  50.200  0.00  0.00    +0.000 A 
ATOM     21  C   UNL     1      59.358  63.782  50.720  0.00  0.00    +0.000 A 
ATOM     22  C   UNL     1      59.894  63.335  51.160  0.00  0.00    +0.000 A 
ATOM     23  C   UNL     1      60.907  59.968  51.698  0.00  0.00    +0.000 C 
ATOM     24  C   UNL     1      60.303  59.913  51.138  0.00  0.00    +0.000 C 
ATOM     25  C   UNL     1      59.736  60.275  50.661  0.00  0.00    +0.000 C 
ATOM     26  O   UNL     1      59.511  59.538  50.369  0.00  0.00    +0.000 OA
ATOM     27  C   UNL     1      60.077  59.176  50.846  0.00  0.00    +0.000 C 
ATOM     28  C   UNL     1      60.455  58.492  51.113  0.00  0.00    +0.000 C 
ATOM     29  C   UNL     1      61.059  58.548  51.673  0.00  0.00    +0.000 C 
ATOM     30  O   UNL     1      61.437  57.866  51.941  0.00  0.00    +0.000 OA
ATOM     31  C   UNL     1      61.285  59.285  51.965  0.00  0.00    +0.000 C 
ATOM     32  C   UNL     1      61.603  58.553  52.172  0.00  0.00    +0.000 C 
ATOM     33  C   UNL     1      61.912  59.141  52.523  0.00  0.00    +0.000 C 
ATOM     34  O   UNL     1      62.105  58.343  52.608  0.00  0.00    +0.000 OA
ATOM     35  O   UNL     1      60.374  60.720  51.297  0.00  0.00    +0.000 OA
ATOM     36  C   UNL     1      59.885  61.260  50.911  0.00  0.00    +0.000 C 
ATOM     37  C   UNL     1      59.325  60.995  50.367  0.00  0.00    +0.000 C 
ATOM     38  O   UNL     1      59.956  62.067  51.070  0.00  0.00    +0.000 OA
ATOM     39  C   UNL     1      61.952  60.862  52.759  0.00  0.00    +0.000 C 
ATOM     40  C   UNL     1      61.483  60.388  52.275  0.00  0.00    +0.000 C 
ATOM     41  C   UNL     1      61.889  60.053  52.608  0.00  0.00    +0.000 C 
ATOM     42  O   UNL     1      62.722  62.714  53.679  0.00  0.00    +0.000 OA
ATOM     43  C   UNL     1      62.399  63.443  53.468  0.00  0.00    +0.000 C 
ATOM     44  O   UNL     1      61.790  63.481  52.914  0.00  0.00    +0.000 OA
ATOM     45  C   UNL     1      62.687  64.136  53.812  0.00  0.00    +0.000 C 
ATOM     46  O   UNL     1      63.297  64.099  54.366  0.00  0.00    +0.000 OA
ATOM     47  C   UNL     1      62.365  64.866  53.601  0.00  0.00    +0.000 C 
ATOM     48  N   UNL     1      62.653  65.558  53.945  0.00  0.00    +0.000 NA
ATOM     49  C   UNL     1      62.330  66.288  53.734  0.00  0.00    +0.000 C 
ATOM     50  O   UNL     1      61.721  66.326  53.180  0.00  0.00    +0.000 OA
ATOM     51  C   UNL     1      62.618  66.980  54.078  0.00  0.00    +0.000 A 
ATOM     52  C   UNL     1      62.296  67.710  53.867  0.00  0.00    +0.000 A 
ATOM     53  C   UNL     1      62.584  68.403  54.211  0.00  0.00    +0.000 A 
ATOM     54  C   UNL     1      63.194  68.366  54.766  0.00  0.00    +0.000 A 
ATOM     55  C   UNL     1      63.516  67.636  54.977  0.00  0.00    +0.000 A 
ATOM     56  C   UNL     1      63.228  66.944  54.632  0.00  0.00    +0.000 A 
ATOM     57  C   UNL     1      61.755  64.903  53.047  0.00  0.00    +0.000 A 
ATOM     58  C   UNL     1      61.467  64.210  52.703  0.00  0.00    +0.000 A 
ATOM     59  C   UNL     1      60.858  64.247  52.148  0.00  0.00    +0.000 A 
ATOM     60  C   UNL     1      60.536  64.977  51.938  0.00  0.00    +0.000 A 
ATOM     61  C   UNL     1      60.823  65.670  52.281  0.00  0.00    +0.000 A 
ATOM     62  C   UNL     1      61.433  65.632  52.836  0.00  0.00    +0.000 A 
ENDROOT
TORSDOF 0
ENDMDL
MODEL 5
REMARK VINA RESULT:   -17.293      2.122      6.937
REMARK INTER + INTRA:         -17.293
REMARK INTER:                 -17.293
REMARK INTRA:                   0.000
REMARK UNBOUND:                 0.000
ROOT
REMARK  Name = paclitaxel
REMARK                            x       y       z     vdW  Elec       q    Type
REMARK                         _______ _______ _______ _____ _____    ______ ____
ATOM      1  C   UNL     1      63.287  62.152  48.203  0.00  0.00    +0.000 C 
ATOM      2  C   UNL     1      63.134  62.512  48.929  0.00  0.00    +0.000 C 
ATOM      3  O   UNL     1      62.932  63.312  48.959  0.00  0.00    +0.000 OA
ATOM      4  O   UNL     1      63.182  62.073  49.626  0.00  0.00    +0.000 OA
ATOM      5  C   UNL     1      63.029  62.433  50.351  0.00  0.00    +0.000 C 
ATOM      6  C   UNL     1      62.830  63.275  50.233  0.00  0.00    +0.000 C 
ATOM      7  C   UNL     1      62.672  64.040  49.859  0.00  0.00    +0.000 C 
ATOM      8  C   UNL     1      62.732  64.085  49.037  0.00  0.00    +0.000 C 
ATOM      9  C   UNL     1      62.460  64.744  50.276  0.00  0.00    +0.000 C 
ATOM     10  C   UNL     1      62.404  64.674  51.116  0.00  0.00    +0.000 C 
ATOM     11  C   UNL     1      62.548  63.943  51.559  0.00  0.00    +0.000 C 
ATOM     12  O   UNL     1      62.368  64.442  52.190  0.00  0.00    +0.000 OA
ATOM     13  C   UNL     1      62.634  63.370  52.212  0.00  0.00    +0.000 C 
ATOM     14  O   UNL     1      62.479  63.739  52.933  0.00  0.00    +0.000 OA
ATOM     15  C   UNL     1      62.278  64.539  52.954  0.00  0.00    +0.000 C 
ATOM     16  O   UNL     1      62.232  64.970  52.252  0.00  0.00    +0.000 OA
ATOM     17  C   UNL     1      62.123  64.907  53.675  0.00  0.00    +0.000 A 
ATOM     18  C   UNL     1      62.169  64.477  54.378  0.00  0.00    +0.000 A 
ATOM     19  C   UNL     1      62.014  64.846  55.099  0.00  0.00    +0.000 A 
ATOM     20  C   UNL     1      61.813  65.646  55.118  0.00  0.00    +0.000 A 
ATOM     21  C   UNL     1      61.767  66.076  54.416  0.00  0.00    +0.000 A 
ATOM     22  C   UNL     1      61.922  65.708  53.695  0.00  0.00    +0.000 A 
ATOM     23  C   UNL     1      62.828  62.546  52.339  0.00  0.00    +0.000 C 
ATOM     24  C   UNL     1      62.789  62.417  53.153  0.00  0.00    +0.000 C 
ATOM     25  C   UNL     1      62.652  62.698  53.916  0.00  0.00    +0.000 C 
ATOM     26  O   UNL     1      62.812  61.950  54.222  0.00  0.00    +0.000 OA
ATOM     27  C   UNL     1      62.949  61.667  53.460  0.00  0.00    +0.000 C 
ATOM     28  C   UNL     1      63.148  61.048  52.952  0.00  0.00    +0.000 C 
ATOM     29  C   UNL     1      63.186  61.178  52.138  0.00  0.00    +0.000 C 
ATOM     30  O   UNL     1      63.385  60.559  51.630  0.00  0.00    +0.000 OA
ATOM     31  C   UNL     1      63.026  61.927  51.832  0.00  0.00    +0.000 C 
ATOM     32  C   UNL     1      63.232  61.252  51.404  0.00  0.00    +0.000 C 
ATOM     33  C   UNL     1      63.116  61.865  50.986  0.00  0.00    +0.000 C 
ATOM     34  O   UNL     1      63.326  61.110  50.728  0.00  0.00    +0.000 OA
ATOM     35  O   UNL     1      62.599  63.214  53.055  0.00  0.00    +0.000 OA
ATOM     36  C   UNL     1      62.426  63.680  53.712  0.00  0.00    +0.000 C 
ATOM     37  C   UNL     1      62.442  63.350  54.469  0.00  0.00    +0.000 C 
ATOM     38  O   UNL     1      62.236  64.477  53.614  0.00  0.00    +0.000 OA
ATOM     39  C   UNL     1      62.701  63.551  50.928  0.00  0.00    +0.000 C 
ATOM     40  C   UNL     1      62.775  63.029  51.561  0.00  0.00    +0.000 C 
ATOM     41  C   UNL     1      62.892  62.754  51.015  0.00  0.00    +0.000 C 
ATOM     42  O   UNL     1      62.317  65.457  49.886  0.00  0.00    +0.000 OA
ATOM     43  C   UNL     1      62.111  66.129  50.318  0.00  0.00    +0.000 C 
ATOM     44  O   UNL     1      62.050  66.089  51.140  0.00  0.00    +0.000 OA
ATOM     45  C   UNL     1      61.968  66.843  49.928  0.00  0.00    +0.000 C 
ATOM     46  O   UNL     1      62.029  66.883  49.107  0.00  0.00    +0.000 OA
ATOM     47  C   UNL     1      61.762  67.515  50.361  0.00  0.00    +0.000 C 
ATOM     48  N   UNL     1      61.619  68.228  49.971  0.00  0.00    +0.000 NA
ATOM     49  C   UNL     1      61.414  68.900  50.403  0.00  0.00    +0.000 C 
ATOM     50  O   UNL     1      61.352  68.859  51.225  0.00  0.00    +0.000 OA
ATOM     51  C   UNL     1      61.270  69.612  50.013  0.00  0.00    +0.000 A 
ATOM     52  C   UNL     1      61.065  70.284  50.445  0.00  0.00    +0.000 A 
ATOM     53  C   UNL     1      60.921  70.998  50.056  0.00  0.00    +0.000 A 
ATOM     54  C   UNL     1      60.983  71.038  49.234  0.00  0.00    +0.000 A 
ATOM     55  C   UNL     1      61.188  70.366  48.802  0.00  0.00    +0.000 A 
ATOM     56  C   UNL     1      61.332  69.653  49.192  0.00  0.00    +0.000 A 
ATOM     57  C   UNL     1      61.701  67.474  51.182  0.00  0.00    +0.000 A 
ATOM     58  C   UNL     1      61.845  66.761  51.572  0.00  0.00    +0.000 A 
ATOM     59  C   UNL     1      61.783  66.720  52.393  0.00  0.00    +0.000 A 
ATOM     60  C   UNL     1      61.578  67.392  52.826  0.00  0.00    +0.000 A 
ATOM     61  C   UNL     1      61.434  68.106  52.436  0.00  0.00    +0.000 A 
ATOM     62  C   UNL     1      61.496  68.146  51.614  0.00  0.00    +0.000 A 
ENDROOT
TORSDOF 0
ENDMDL
MODEL 6
REMARK VINA RESULT:   -17.126      1.676      2.818
REMARK INTER + INTRA:         -17.126
REMARK INTER:                 -17.126
REMARK INTRA:                   0.000
REMARK UNBOUND:                 0.000
ROOT
REMARK  Name = paclitaxel
REMARK                            x       y       z     vdW  Elec       q    Type
REMARK                         _______ _______ _______ _____ _____    ______ ____
ATOM      1  C   UNL     1      61.713  66.016  55.966  0.00  0.00    +0.000 C 
ATOM      2  C   UNL     1      61.768  65.901  55.151  0.00  0.00    +0.000 C 
ATOM      3  O   UNL     1      61.906  65.146  54.849  0.00  0.00    +0.000 OA
ATOM      4  O   UNL     1      61.686  66.542  54.637  0.00  0.00    +0.000 OA
ATOM      5  C   UNL     1      61.741  66.426  53.823  0.00  0.00    +0.000 C 
ATOM      6  C   UNL     1      61.887  65.583  53.648  0.00  0.00    +0.000 C 
ATOM      7  C   UNL     1      62.023  64.733  53.743  0.00  0.00    +0.000 C 
ATOM      8  C   UNL     1      62.038  64.431  54.510  0.00  0.00    +0.000 C 
ATOM      9  C   UNL     1      62.140  64.191  53.105  0.00  0.00    +0.000 C 
ATOM     10  C   UNL     1      62.120  64.524  52.329  0.00  0.00    +0.000 C 
ATOM     11  C   UNL     1      61.990  65.362  52.156  0.00  0.00    +0.000 C 
ATOM     12  O   UNL     1      62.070  65.084  51.384  0.00  0.00    +0.000 OA
ATOM     13  C   UNL     1      61.885  66.117  51.730  0.00  0.00    +0.000 C 
ATOM     14  O   UNL     1      61.942  65.992  50.916  0.00  0.00    +0.000 OA
ATOM     15  C   UNL     1      62.079  65.233  50.624  0.00  0.00    +0.000 C 
ATOM     16  O   UNL     1      62.160  64.599  51.145  0.00  0.00    +0.000 OA
ATOM     17  C   UNL     1      62.136  65.108  49.810  0.00  0.00    +0.000 A 
ATOM     18  C   UNL     1      62.055  65.742  49.288  0.00  0.00    +0.000 A 
ATOM     19  C   UNL     1      62.112  65.617  48.475  0.00  0.00    +0.000 A 
ATOM     20  C   UNL     1      62.249  64.858  48.183  0.00  0.00    +0.000 A 
ATOM     21  C   UNL     1      62.330  64.224  48.705  0.00  0.00    +0.000 A 
ATOM     22  C   UNL     1      62.274  64.349  49.518  0.00  0.00    +0.000 A 
ATOM     23  C   UNL     1      61.742  66.946  51.890  0.00  0.00    +0.000 C 
ATOM     24  C   UNL     1      61.712  67.327  51.159  0.00  0.00    +0.000 C 
ATOM     25  C   UNL     1      61.753  67.298  50.336  0.00  0.00    +0.000 C 
ATOM     26  O   UNL     1      61.621  68.111  50.300  0.00  0.00    +0.000 OA
ATOM     27  C   UNL     1      61.580  68.141  51.123  0.00  0.00    +0.000 C 
ATOM     28  C   UNL     1      61.478  68.573  51.819  0.00  0.00    +0.000 C 
ATOM     29  C   UNL     1      61.508  68.191  52.550  0.00  0.00    +0.000 C 
ATOM     30  O   UNL     1      61.406  68.623  53.245  0.00  0.00    +0.000 OA
ATOM     31  C   UNL     1      61.640  67.378  52.585  0.00  0.00    +0.000 C 
ATOM     32  C   UNL     1      61.528  67.889  53.223  0.00  0.00    +0.000 C 
ATOM     33  C   UNL     1      61.637  67.171  53.412  0.00  0.00    +0.000 C 
ATOM     34  O   UNL     1      61.510  67.812  53.916  0.00  0.00    +0.000 OA
ATOM     35  O   UNL     1      61.850  66.533  50.980  0.00  0.00    +0.000 OA
ATOM     36  C   UNL     1      61.924  66.295  50.195  0.00  0.00    +0.000 C 
ATOM     37  C   UNL     1      61.860  66.849  49.586  0.00  0.00    +0.000 C 
ATOM     38  O   UNL     1      62.062  65.501  50.016  0.00  0.00    +0.000 OA
ATOM     39  C   UNL     1      61.928  65.539  52.892  0.00  0.00    +0.000 C 
ATOM     40  C   UNL     1      61.832  66.238  52.467  0.00  0.00    +0.000 C 
ATOM     41  C   UNL     1      61.790  66.329  53.081  0.00  0.00    +0.000 C 
ATOM     42  O   UNL     1      62.266  63.385  53.233  0.00  0.00    +0.000 OA
ATOM     43  C   UNL     1      62.378  62.879  52.591  0.00  0.00    +0.000 C 
ATOM     44  O   UNL     1      62.363  63.177  51.822  0.00  0.00    +0.000 OA
ATOM     45  C   UNL     1      62.505  62.073  52.719  0.00  0.00    +0.000 C 
ATOM     46  O   UNL     1      62.519  61.775  53.488  0.00  0.00    +0.000 OA
ATOM     47  C   UNL     1      62.616  61.567  52.077  0.00  0.00    +0.000 C 
ATOM     48  N   UNL     1      62.743  60.761  52.205  0.00  0.00    +0.000 NA
ATOM     49  C   UNL     1      62.854  60.255  51.564  0.00  0.00    +0.000 C 
ATOM     50  O   UNL     1      62.840  60.553  50.794  0.00  0.00    +0.000 OA
ATOM     51  C   UNL     1      62.981  59.450  51.692  0.00  0.00    +0.000 A 
ATOM     52  C   UNL     1      63.093  58.943  51.050  0.00  0.00    +0.000 A 
ATOM     53  C   UNL     1      63.219  58.137  51.177  0.00  0.00    +0.000 A 
ATOM     54  C   UNL     1      63.234  57.839  51.946  0.00  0.00    +0.000 A 
ATOM     55  C   UNL     1      63.122  58.346  52.588  0.00  0.00    +0.000 A 
ATOM     56  C   UNL     1      62.996  59.151  52.460  0.00  0.00    +0.000 A 
ATOM     57  C   UNL     1      62.602  61.865  51.309  0.00  0.00    +0.000 A 
ATOM     58  C   UNL     1      62.475  62.670  51.181  0.00  0.00    +0.000 A 
ATOM     59  C   UNL     1      62.460  62.969  50.412  0.00  0.00    +0.000 A 
ATOM     60  C   UNL     1      62.572  62.463  49.771  0.00  0.00    +0.000 A 
ATOM     61  C   UNL     1      62.698  61.657  49.898  0.00  0.00    +0.000 A 
ATOM     62  C   UNL     1      62.713  61.359  50.667  0.00  0.00    +0.000 A 
ENDROOT
TORSDOF 0
ENDMDL
MODEL 7
REMARK VINA RESULT:   -16.873      2.897      7.067
REMARK INTER + INTRA:         -16.873
REMARK INTER:                 -16.873
REMARK INTRA:                   0.000
REMARK UNBOUND:                 0.000
ROOT
REMARK  Name = paclitaxel
REMARK                            x       y       z     vdW  Elec       q    Type
REMARK                         _______ _______ _______ _____ _____    ______ ____
ATOM      1  C   UNL     1      65.268  62.699  54.456  0.00  0.00    +0.000 C 
ATOM      2  C   UNL     1      64.580  62.488  54.052  0.00  0.00    +0.000 C 
ATOM      3  O   UNL     1      64.108  63.071  53.709  0.00  0.00    +0.000 OA
ATOM      4  O   UNL     1      64.365  61.694  53.990  0.00  0.00    +0.000 OA
ATOM      5  C   UNL     1      63.678  61.484  53.586  0.00  0.00    +0.000 C 
ATOM      6  C   UNL     1      63.280  62.197  53.277  0.00  0.00    +0.000 C 
ATOM      7  C   UNL     1      63.097  63.024  53.090  0.00  0.00    +0.000 C 
ATOM      8  C   UNL     1      63.618  63.603  53.360  0.00  0.00    +0.000 C 
ATOM      9  C   UNL     1      62.420  63.278  52.651  0.00  0.00    +0.000 C 
ATOM     10  C   UNL     1      61.901  62.666  52.386  0.00  0.00    +0.000 C 
ATOM     11  C   UNL     1      62.019  61.821  52.534  0.00  0.00    +0.000 C 
ATOM     12  O   UNL     1      61.316  61.778  52.106  0.00  0.00    +0.000 OA
ATOM     13  C   UNL     1      61.908  60.955  52.544  0.00  0.00    +0.000 C 
ATOM     14  O   UNL     1      61.219  60.754  52.137  0.00  0.00    +0.000 OA
ATOM     15  C   UNL     1      60.753  61.344  51.798  0.00  0.00    +0.000 C 
ATOM     16  O   UNL     1      60.977  62.135  51.864  0.00  0.00    +0.000 OA
ATOM     17  C   UNL     1      60.064  61.143  51.391  0.00  0.00    +0.000 A 
ATOM     18  C   UNL     1      59.840  60.352  51.324  0.00  0.00    +0.000 A 
ATOM     19  C   UNL     1      59.151  60.151  50.918  0.00  0.00    +0.000 A 
ATOM     20  C   UNL     1      58.685  60.741  50.578  0.00  0.00    +0.000 A 
ATOM     21  C   UNL     1      58.909  61.532  50.645  0.00  0.00    +0.000 A 
ATOM     22  C   UNL     1      59.598  61.733  51.052  0.00  0.00    +0.000 A 
ATOM     23  C   UNL     1      62.290  60.249  52.842  0.00  0.00    +0.000 C 
ATOM     24  C   UNL     1      61.822  59.611  52.610  0.00  0.00    +0.000 C 
ATOM     25  C   UNL     1      61.154  59.317  52.225  0.00  0.00    +0.000 C 
ATOM     26  O   UNL     1      61.374  58.549  52.429  0.00  0.00    +0.000 OA
ATOM     27  C   UNL     1      62.041  58.842  52.814  0.00  0.00    +0.000 C 
ATOM     28  C   UNL     1      62.730  58.712  53.250  0.00  0.00    +0.000 C 
ATOM     29  C   UNL     1      63.198  59.351  53.481  0.00  0.00    +0.000 C 
ATOM     30  O   UNL     1      63.887  59.221  53.917  0.00  0.00    +0.000 OA
ATOM     31  C   UNL     1      62.978  60.119  53.277  0.00  0.00    +0.000 C 
ATOM     32  C   UNL     1      63.645  59.894  53.708  0.00  0.00    +0.000 C 
ATOM     33  C   UNL     1      63.577  60.633  53.600  0.00  0.00    +0.000 C 
ATOM     34  O   UNL     1      64.176  60.235  54.004  0.00  0.00    +0.000 OA
ATOM     35  O   UNL     1      61.436  60.277  52.313  0.00  0.00    +0.000 OA
ATOM     36  C   UNL     1      60.734  60.192  51.889  0.00  0.00    +0.000 C 
ATOM     37  C   UNL     1      60.417  59.441  51.761  0.00  0.00    +0.000 C 
ATOM     38  O   UNL     1      60.348  60.859  51.592  0.00  0.00    +0.000 OA
ATOM     39  C   UNL     1      62.662  61.944  52.919  0.00  0.00    +0.000 C 
ATOM     40  C   UNL     1      62.535  61.130  52.914  0.00  0.00    +0.000 C 
ATOM     41  C   UNL     1      63.055  61.285  53.220  0.00  0.00    +0.000 C 
ATOM     42  O   UNL     1      62.277  64.074  52.492  0.00  0.00    +0.000 OA
ATOM     43  C   UNL     1      61.609  64.294  52.061  0.00  0.00    +0.000 C 
ATOM     44  O   UNL     1      61.084  63.718  51.789  0.00  0.00    +0.000 OA
ATOM     45  C   UNL     1      61.464  65.091  51.901  0.00  0.00    +0.000 C 
ATOM     46  O   UNL     1      61.989  65.667  52.172  0.00  0.00    +0.000 OA
ATOM     47  C   UNL     1      60.796  65.311  51.470  0.00  0.00    +0.000 C 
ATOM     48  N   UNL     1      60.653  66.108  51.310  0.00  0.00    +0.000 NA
ATOM     49  C   UNL     1      59.984  66.327  50.879  0.00  0.00    +0.000 C 
ATOM     50  O   UNL     1      59.460  65.751  50.607  0.00  0.00    +0.000 OA
ATOM     51  C   UNL     1      59.841  67.124  50.719  0.00  0.00    +0.000 A 
ATOM     52  C   UNL     1      59.173  67.344  50.288  0.00  0.00    +0.000 A 
ATOM     53  C   UNL     1      59.028  68.141  50.128  0.00  0.00    +0.000 A 
ATOM     54  C   UNL     1      59.553  68.717  50.400  0.00  0.00    +0.000 A 
ATOM     55  C   UNL     1      60.221  68.497  50.831  0.00  0.00    +0.000 A 
ATOM     56  C   UNL     1      60.364  67.700  50.990  0.00  0.00    +0.000 A 
ATOM     57  C   UNL     1      60.272  64.734  51.199  0.00  0.00    +0.000 A 
ATOM     58  C   UNL     1      60.416  63.938  51.358  0.00  0.00    +0.000 A 
ATOM     59  C   UNL     1      59.892  63.361  51.087  0.00  0.00    +0.000 A 
ATOM     60  C   UNL     1      59.224  63.581  50.656  0.00  0.00    +0.000 A 
ATOM     61  C   UNL     1      59.080  64.378  50.496  0.00  0.00    +0.000 A 
ATOM     62  C   UNL     1      59.604  64.954  50.768  0.00  0.00    +0.000 A 
ENDROOT
TORSDOF 0
ENDMDL
MODEL 8
REMARK VINA RESULT:   -16.820      1.674      6.496
REMARK INTER + INTRA:         -16.820
REMARK INTER:                 -16.820
REMARK INTRA:                   0.000
REMARK UNBOUND:                 0.000
ROOT
REMARK  Name = paclitaxel
REMARK                            x       y       z     vdW  Elec       q    Type
REMARK                         _______ _______ _______ _____ _____    ______ ____
ATOM      1  C   UNL     1      63.856  60.159  54.272  0.00  0.00    +0.000 C 
ATOM      2  C   UNL     1      63.522  60.685  53.731  0.00  0.00    +0.000 C 
ATOM      3  O   UNL     1      63.413  61.477  53.939  0.00  0.00    +0.000 OA
ATOM      4  O   UNL     1      63.296  60.420  52.983  0.00  0.00    +0.000 OA
ATOM      5  C   UNL     1      62.962  60.946  52.444  0.00  0.00    +0.000 C 
ATOM      6  C   UNL     1      62.907  61.743  52.795  0.00  0.00    +0.000 C 
ATOM      7  C   UNL     1      62.964  62.405  53.352  0.00  0.00    +0.000 C 
ATOM      8  C   UNL     1      63.288  62.253  54.095  0.00  0.00    +0.000 C 
ATOM      9  C   UNL     1      62.712  63.195  53.187  0.00  0.00    +0.000 C 
ATOM     10  C   UNL     1      62.384  63.325  52.419  0.00  0.00    +0.000 C 
ATOM     11  C   UNL     1      62.295  62.714  51.812  0.00  0.00    +0.000 C 
ATOM     12  O   UNL     1      61.982  63.354  51.396  0.00  0.00    +0.000 OA
ATOM     13  C   UNL     1      62.103  62.308  51.063  0.00  0.00    +0.000 C 
ATOM     14  O   UNL     1      61.770  62.841  50.530  0.00  0.00    +0.000 OA
ATOM     15  C   UNL     1      61.665  63.630  50.745  0.00  0.00    +0.000 C 
ATOM     16  O   UNL     1      61.893  63.886  51.495  0.00  0.00    +0.000 OA
ATOM     17  C   UNL     1      61.331  64.163  50.212  0.00  0.00    +0.000 A 
ATOM     18  C   UNL     1      61.102  63.908  49.461  0.00  0.00    +0.000 A 
ATOM     19  C   UNL     1      60.768  64.442  48.928  0.00  0.00    +0.000 A 
ATOM     20  C   UNL     1      60.664  65.231  49.144  0.00  0.00    +0.000 A 
ATOM     21  C   UNL     1      60.893  65.486  49.895  0.00  0.00    +0.000 A 
ATOM     22  C   UNL     1      61.226  64.953  50.428  0.00  0.00    +0.000 A 
ATOM     23  C   UNL     1      62.152  61.530  50.709  0.00  0.00    +0.000 C 
ATOM     24  C   UNL     1      61.842  61.596  49.948  0.00  0.00    +0.000 C 
ATOM     25  C   UNL     1      61.502  62.054  49.352  0.00  0.00    +0.000 C 
ATOM     26  O   UNL     1      61.470  61.393  48.861  0.00  0.00    +0.000 OA
ATOM     27  C   UNL     1      61.810  60.934  49.456  0.00  0.00    +0.000 C 
ATOM     28  C   UNL     1      62.088  60.206  49.726  0.00  0.00    +0.000 C 
ATOM     29  C   UNL     1      62.399  60.140  50.488  0.00  0.00    +0.000 C 
ATOM     30  O   UNL     1      62.677  59.412  50.759  0.00  0.00    +0.000 OA
ATOM     31  C   UNL     1      62.430  60.802  50.979  0.00  0.00    +0.000 C 
ATOM     32  C   UNL     1      62.683  60.038  51.162  0.00  0.00    +0.000 C 
ATOM     33  C   UNL     1      62.776  60.540  51.713  0.00  0.00    +0.000 C 
ATOM     34  O   UNL     1      62.971  59.738  51.721  0.00  0.00    +0.000 OA
ATOM     35  O   UNL     1      61.785  62.355  50.268  0.00  0.00    +0.000 OA
ATOM     36  C   UNL     1      61.465  62.968  49.820  0.00  0.00    +0.000 C 
ATOM     37  C   UNL     1      61.202  62.825  49.051  0.00  0.00    +0.000 C 
ATOM     38  O   UNL     1      61.408  63.727  50.140  0.00  0.00    +0.000 OA
ATOM     39  C   UNL     1      62.596  62.179  52.258  0.00  0.00    +0.000 C 
ATOM     40  C   UNL     1      62.405  61.818  51.542  0.00  0.00    +0.000 C 
ATOM     41  C   UNL     1      62.657  61.418  51.947  0.00  0.00    +0.000 C 
ATOM     42  O   UNL     1      62.782  63.801  53.742  0.00  0.00    +0.000 OA
ATOM     43  C   UNL     1      62.527  64.563  53.554  0.00  0.00    +0.000 C 
ATOM     44  O   UNL     1      62.203  64.719  52.812  0.00  0.00    +0.000 OA
ATOM     45  C   UNL     1      62.597  65.170  54.109  0.00  0.00    +0.000 C 
ATOM     46  O   UNL     1      62.921  65.014  54.852  0.00  0.00    +0.000 OA
ATOM     47  C   UNL     1      62.343  65.932  53.921  0.00  0.00    +0.000 C 
ATOM     48  N   UNL     1      62.412  66.538  54.477  0.00  0.00    +0.000 NA
ATOM     49  C   UNL     1      62.158  67.300  54.289  0.00  0.00    +0.000 C 
ATOM     50  O   UNL     1      61.834  67.456  53.546  0.00  0.00    +0.000 OA
ATOM     51  C   UNL     1      62.228  67.907  54.844  0.00  0.00    +0.000 A 
ATOM     52  C   UNL     1      61.973  68.669  54.656  0.00  0.00    +0.000 A 
ATOM     53  C   UNL     1      62.043  69.276  55.211  0.00  0.00    +0.000 A 
ATOM     54  C   UNL     1      62.367  69.120  55.954  0.00  0.00    +0.000 A 
ATOM     55  C   UNL     1      62.622  68.358  56.142  0.00  0.00    +0.000 A 
ATOM     56  C   UNL     1      62.552  67.752  55.586  0.00  0.00    +0.000 A 
ATOM     57  C   UNL     1      62.019  66.087  53.179  0.00  0.00    +0.000 A 
ATOM     58  C   UNL     1      61.949  65.481  52.624  0.00  0.00    +0.000 A 
ATOM     59  C   UNL     1      61.625  65.636  51.882  0.00  0.00    +0.000 A 
ATOM     60  C   UNL     1      61.370  66.398  51.694  0.00  0.00    +0.000 A 
ATOM     61  C   UNL     1      61.440  67.005  52.249  0.00  0.00    +0.000 A 
ATOM     62  C   UNL     1      61.764  66.849  52.991  0.00  0.00    +0.000 A 
ENDROOT
TORSDOF 0
ENDMDL
MODEL 9
REMARK VINA RESULT:   -16.760      1.835      6.808
REMARK INTER + INTRA:         -16.760
REMARK INTER:                 -16.760
REMARK INTRA:                   0.000
REMARK UNBOUND:                 0.000
ROOT
REMARK  Name = paclitaxel
REMARK                            x       y       z     vdW  Elec       q    Type
REMARK                         _______ _______ _______ _____ _____    ______ ____
ATOM      1  C   UNL     1      59.797  65.692  49.146  0.00  0.00    +0.000 C 
ATOM      2  C   UNL     1      60.095  65.945  49.872  0.00  0.00    +0.000 C 
ATOM      3  O   UNL     1      59.897  66.691  50.162  0.00  0.00    +0.000 OA
ATOM      4  O   UNL     1      60.592  65.452  50.308  0.00  0.00    +0.000 OA
ATOM      5  C   UNL     1      60.891  65.705  51.034  0.00  0.00    +0.000 C 
ATOM      6  C   UNL     1      60.600  66.509  51.214  0.00  0.00    +0.000 C 
ATOM      7  C   UNL     1      60.191  67.270  51.155  0.00  0.00    +0.000 C 
ATOM      8  C   UNL     1      59.732  67.408  50.484  0.00  0.00    +0.000 C 
ATOM      9  C   UNL     1      60.229  67.882  51.737  0.00  0.00    +0.000 C 
ATOM     10  C   UNL     1      60.705  67.718  52.415  0.00  0.00    +0.000 C 
ATOM     11  C   UNL     1      61.142  66.982  52.543  0.00  0.00    +0.000 C 
ATOM     12  O   UNL     1      61.352  67.376  53.236  0.00  0.00    +0.000 OA
ATOM     13  C   UNL     1      61.652  66.368  52.899  0.00  0.00    +0.000 C 
ATOM     14  O   UNL     1      61.945  66.630  53.624  0.00  0.00    +0.000 OA
ATOM     15  C   UNL     1      61.742  67.378  53.906  0.00  0.00    +0.000 C 
ATOM     16  O   UNL     1      61.244  67.864  53.463  0.00  0.00    +0.000 OA
ATOM     17  C   UNL     1      62.035  67.640  54.631  0.00  0.00    +0.000 A 
ATOM     18  C   UNL     1      62.533  67.155  55.075  0.00  0.00    +0.000 A 
ATOM     19  C   UNL     1      62.826  67.417  55.800  0.00  0.00    +0.000 A 
ATOM     20  C   UNL     1      62.622  68.165  56.081  0.00  0.00    +0.000 A 
ATOM     21  C   UNL     1      62.124  68.651  55.637  0.00  0.00    +0.000 A 
ATOM     22  C   UNL     1      61.831  68.388  54.913  0.00  0.00    +0.000 A 
ATOM     23  C   UNL     1      61.942  65.580  52.732  0.00  0.00    +0.000 C 
ATOM     24  C   UNL     1      62.420  65.364  53.369  0.00  0.00    +0.000 C 
ATOM     25  C   UNL     1      62.759  65.540  54.100  0.00  0.00    +0.000 C 
ATOM     26  O   UNL     1      63.127  64.802  54.107  0.00  0.00    +0.000 OA
ATOM     27  C   UNL     1      62.788  64.626  53.376  0.00  0.00    +0.000 C 
ATOM     28  C   UNL     1      62.678  64.103  52.746  0.00  0.00    +0.000 C 
ATOM     29  C   UNL     1      62.200  64.321  52.110  0.00  0.00    +0.000 C 
ATOM     30  O   UNL     1      62.090  63.799  51.481  0.00  0.00    +0.000 OA
ATOM     31  C   UNL     1      61.832  65.058  52.103  0.00  0.00    +0.000 C 
ATOM     32  C   UNL     1      61.781  64.475  51.522  0.00  0.00    +0.000 C 
ATOM     33  C   UNL     1      61.389  65.098  51.376  0.00  0.00    +0.000 C 
ATOM     34  O   UNL     1      61.451  64.420  50.910  0.00  0.00    +0.000 OA
ATOM     35  O   UNL     1      62.152  66.123  53.551  0.00  0.00    +0.000 OA
ATOM     36  C   UNL     1      62.385  66.484  54.255  0.00  0.00    +0.000 C 
ATOM     37  C   UNL     1      62.885  66.087  54.777  0.00  0.00    +0.000 C 
ATOM     38  O   UNL     1      62.118  67.243  54.437  0.00  0.00    +0.000 OA
ATOM     39  C   UNL     1      60.904  66.687  51.886  0.00  0.00    +0.000 C 
ATOM     40  C   UNL     1      61.389  66.123  52.242  0.00  0.00    +0.000 C 
ATOM     41  C   UNL     1      61.166  65.929  51.694  0.00  0.00    +0.000 C 
ATOM     42  O   UNL     1      59.825  68.596  51.647  0.00  0.00    +0.000 OA
ATOM     43  C   UNL     1      59.880  69.176  52.231  0.00  0.00    +0.000 C 
ATOM     44  O   UNL     1      60.338  69.043  52.904  0.00  0.00    +0.000 OA
ATOM     45  C   UNL     1      59.476  69.891  52.143  0.00  0.00    +0.000 C 
ATOM     46  O   UNL     1      59.018  70.024  51.469  0.00  0.00    +0.000 OA
ATOM     47  C   UNL     1      59.531  70.471  52.727  0.00  0.00    +0.000 C 
ATOM     48  N   UNL     1      59.127  71.185  52.637  0.00  0.00    +0.000 NA
ATOM     49  C   UNL     1      59.182  71.765  53.221  0.00  0.00    +0.000 C 
ATOM     50  O   UNL     1      59.640  71.632  53.894  0.00  0.00    +0.000 OA
ATOM     51  C   UNL     1      58.778  72.479  53.131  0.00  0.00    +0.000 A 
ATOM     52  C   UNL     1      58.833  73.060  53.715  0.00  0.00    +0.000 A 
ATOM     53  C   UNL     1      58.429  73.774  53.626  0.00  0.00    +0.000 A 
ATOM     54  C   UNL     1      57.971  73.907  52.953  0.00  0.00    +0.000 A 
ATOM     55  C   UNL     1      57.916  73.327  52.369  0.00  0.00    +0.000 A 
ATOM     56  C   UNL     1      58.320  72.613  52.459  0.00  0.00    +0.000 A 
ATOM     57  C   UNL     1      59.989  70.337  53.399  0.00  0.00    +0.000 A 
ATOM     58  C   UNL     1      60.393  69.623  53.488  0.00  0.00    +0.000 A 
ATOM     59  C   UNL     1      60.850  69.489  54.161  0.00  0.00    +0.000 A 
ATOM     60  C   UNL     1      60.905  70.070  54.745  0.00  0.00    +0.000 A 
ATOM     61  C   UNL     1      60.502  70.784  54.656  0.00  0.00    +0.000 A 
ATOM     62  C   UNL     1      60.044  70.918  53.983  0.00  0.00    +0.000 A 
ENDROOT
TORSDOF 0
ENDMDL
