MODEL 1
REMARK VINA RESULT:   -14.769      0.000      0.000
REMARK INTER + INTRA:         -14.769
REMARK INTER:                 -14.769
REMARK INTRA:                   0.000
REMARK UNBOUND:                 0.000
ROOT
REMARK  Name = palbociclib
REMARK                            x       y       z     vdW  Elec       q    Type
REMARK                         _______ _______ _______ _____ _____    ______ ____
ATOM      1  C   UNL     1      63.256  66.090  72.125  0.00  0.00    +0.000 C 
ATOM      2  C   UNL     1      63.396  65.831  71.355  0.00  0.00    +0.000 C 
ATOM      3  O   UNL     1      64.078  66.068  70.957  0.00  0.00    +0.000 OA
ATOM      4  C   UNL     1      62.853  65.335  70.982  0.00  0.00    +0.000 A 
ATOM      5  C   UNL     1      62.992  65.075  70.211  0.00  0.00    +0.000 A 
ATOM      6  C   UNL     1      63.674  65.313  69.813  0.00  0.00    +0.000 C 
ATOM      7  C   UNL     1      62.449  64.579  69.838  0.00  0.00    +0.000 A 
ATOM      8  C   UNL     1      61.765  64.342  70.236  0.00  0.00    +0.000 A 
ATOM      9  N   UNL     1      61.222  63.846  69.863  0.00  0.00    +0.000 NA
ATOM     10  C   UNL     1      61.361  63.587  69.093  0.00  0.00    +0.000 A 
ATOM     11  N   UNL     1      60.818  63.090  68.719  0.00  0.00    +0.000 NA
ATOM     12  C   UNL     1      60.957  62.831  67.949  0.00  0.00    +0.000 A 
ATOM     13  N   UNL     1      60.414  62.335  67.576  0.00  0.00    +0.000 NA
ATOM     14  C   UNL     1      60.553  62.076  66.806  0.00  0.00    +0.000 A 
ATOM     15  C   UNL     1      61.237  62.313  66.407  0.00  0.00    +0.000 A 
ATOM     16  C   UNL     1      61.780  62.809  66.780  0.00  0.00    +0.000 A 
ATOM     17  C   UNL     1      61.641  63.069  67.551  0.00  0.00    +0.000 A 
ATOM     18  N   UNL     1      61.376  62.053  65.636  0.00  0.00    +0.000 N 
ATOM     19  C   UNL     1      60.833  61.558  65.264  0.00  0.00    +0.000 C 
ATOM     20  C   UNL     1      60.972  61.298  64.493  0.00  0.00    +0.000 C 
ATOM     21  N   UNL     1      61.655  61.535  64.095  0.00  0.00    +0.000 NA
ATOM     22  C   UNL     1      62.199  62.032  64.468  0.00  0.00    +0.000 C 
ATOM     23  C   UNL     1      62.059  62.291  65.239  0.00  0.00    +0.000 C 
ATOM     24  N   UNL     1      62.045  63.824  68.695  0.00  0.00    +0.000 NA
ATOM     25  C   UNL     1      62.588  64.320  69.068  0.00  0.00    +0.000 A 
ATOM     26  N   UNL     1      61.626  64.601  71.007  0.00  0.00    +0.000 N 
ATOM     27  C   UNL     1      60.943  64.364  71.405  0.00  0.00    +0.000 C 
ATOM     28  C   UNL     1      60.731  64.577  72.172  0.00  0.00    +0.000 C 
ATOM     29  C   UNL     1      60.009  64.217  72.347  0.00  0.00    +0.000 C 
ATOM     30  C   UNL     1      59.776  63.781  71.687  0.00  0.00    +0.000 C 
ATOM     31  C   UNL     1      60.354  63.872  71.105  0.00  0.00    +0.000 C 
ATOM     32  C   UNL     1      62.169  65.098  71.380  0.00  0.00    +0.000 A 
ATOM     33  O   UNL     1      62.030  65.357  72.151  0.00  0.00    +0.000 OA
ENDROOT
TORSDOF 0
ENDMDL
MODEL 2
REMARK VINA RESULT:   -14.074      0.910      1.296
REMARK INTER + INTRA:         -14.074
REMARK INTER:                 -14.074
REMARK INTRA:                   0.000
REMARK UNBOUND:                 0.000
ROOT
REMARK  Name = palbociclib
REMARK                            x       y       z     vdW  Elec       q    Type
REMARK                         _______ _______ _______ _____ _____    ______ ____
ATOM      1  C   UNL     1      64.809  66.574  71.914  0.00  0.00    +0.000 C 
ATOM      2  C   UNL     1      64.731  66.212  71.177  0.00  0.00    +0.000 C 
ATOM      3  O   UNL     1      65.350  66.249  70.632  0.00  0.00    +0.000 OA
ATOM      4  C   UNL     1      64.036  65.814  70.984  0.00  0.00    +0.000 A 
ATOM      5  C   UNL     1      63.957  65.452  70.247  0.00  0.00    +0.000 A 
ATOM      6  C   UNL     1      64.575  65.489  69.702  0.00  0.00    +0.000 C 
ATOM      7  C   UNL     1      63.261  65.053  70.054  0.00  0.00    +0.000 A 
ATOM      8  C   UNL     1      62.642  65.016  70.600  0.00  0.00    +0.000 A 
ATOM      9  N   UNL     1      61.946  64.618  70.407  0.00  0.00    +0.000 NA
ATOM     10  C   UNL     1      61.868  64.256  69.670  0.00  0.00    +0.000 A 
ATOM     11  N   UNL     1      61.172  63.858  69.477  0.00  0.00    +0.000 NA
ATOM     12  C   UNL     1      61.094  63.496  68.741  0.00  0.00    +0.000 A 
ATOM     13  N   UNL     1      60.398  63.097  68.547  0.00  0.00    +0.000 NA
ATOM     14  C   UNL     1      60.319  62.736  67.811  0.00  0.00    +0.000 A 
ATOM     15  C   UNL     1      60.938  62.773  67.265  0.00  0.00    +0.000 A 
ATOM     16  C   UNL     1      61.634  63.171  67.457  0.00  0.00    +0.000 A 
ATOM     17  C   UNL     1      61.713  63.533  68.195  0.00  0.00    +0.000 A 
ATOM     18  N   UNL     1      60.860  62.411  66.528  0.00  0.00    +0.000 N 
ATOM     19  C   UNL     1      60.164  62.013  66.335  0.00  0.00    +0.000 C 
ATOM     20  C   UNL     1      60.085  61.651  65.598  0.00  0.00    +0.000 C 
ATOM     21  N   UNL     1      60.704  61.688  65.053  0.00  0.00    +0.000 NA
ATOM     22  C   UNL     1      61.401  62.087  65.245  0.00  0.00    +0.000 C 
ATOM     23  C   UNL     1      61.478  62.448  65.982  0.00  0.00    +0.000 C 
ATOM     24  N   UNL     1      62.487  64.294  69.125  0.00  0.00    +0.000 NA
ATOM     25  C   UNL     1      63.183  64.692  69.317  0.00  0.00    +0.000 A 
ATOM     26  N   UNL     1      62.721  65.378  71.337  0.00  0.00    +0.000 N 
ATOM     27  C   UNL     1      62.102  65.341  71.882  0.00  0.00    +0.000 C 
ATOM     28  C   UNL     1      62.100  65.674  72.636  0.00  0.00    +0.000 C 
ATOM     29  C   UNL     1      61.374  65.503  72.989  0.00  0.00    +0.000 C 
ATOM     30  C   UNL     1      60.927  65.065  72.453  0.00  0.00    +0.000 C 
ATOM     31  C   UNL     1      61.378  64.964  71.768  0.00  0.00    +0.000 C 
ATOM     32  C   UNL     1      63.417  65.777  71.530  0.00  0.00    +0.000 A 
ATOM     33  O   UNL     1      63.495  66.138  72.267  0.00  0.00    +0.000 OA
ENDROOT
TORSDOF 0
ENDMDL
MODEL 3
REMARK VINA RESULT:   -12.992      2.402      5.580
REMARK INTER + INTRA:         -12.992
REMARK INTER:                 -12.992
REMARK INTRA:                   0.000
REMARK UNBOUND:                 0.000
ROOT
REMARK  Name = palbociclib
REMARK                            x       y       z     vdW  Elec       q    Type
REMARK                         _______ _______ _______ _____ _____    ______ ____
ATOM      1  C   UNL     1      59.860  61.247  70.608  0.00  0.00    +0.000 C 
ATOM      2  C   UNL     1      60.452  61.674  70.990  0.00  0.00    +0.000 C 
ATOM      3  O   UNL     1      60.594  61.554  71.794  0.00  0.00    +0.000 OA
ATOM      4  C   UNL     1      60.903  62.222  70.570  0.00  0.00    +0.000 A 
ATOM      5  C   UNL     1      61.496  62.650  70.952  0.00  0.00    +0.000 A 
ATOM      6  C   UNL     1      61.638  62.529  71.756  0.00  0.00    +0.000 C 
ATOM      7  C   UNL     1      61.947  63.198  70.532  0.00  0.00    +0.000 A 
ATOM      8  C   UNL     1      61.804  63.319  69.727  0.00  0.00    +0.000 A 
ATOM      9  N   UNL     1      62.255  63.867  69.307  0.00  0.00    +0.000 NA
ATOM     10  C   UNL     1      62.847  64.294  69.689  0.00  0.00    +0.000 A 
ATOM     11  N   UNL     1      63.298  64.842  69.269  0.00  0.00    +0.000 NA
ATOM     12  C   UNL     1      63.890  65.270  69.651  0.00  0.00    +0.000 A 
ATOM     13  N   UNL     1      64.342  65.818  69.231  0.00  0.00    +0.000 NA
ATOM     14  C   UNL     1      64.934  66.246  69.613  0.00  0.00    +0.000 A 
ATOM     15  C   UNL     1      65.076  66.125  70.418  0.00  0.00    +0.000 A 
ATOM     16  C   UNL     1      64.626  65.577  70.838  0.00  0.00    +0.000 A 
ATOM     17  C   UNL     1      64.033  65.149  70.456  0.00  0.00    +0.000 A 
ATOM     18  N   UNL     1      65.669  66.553  70.800  0.00  0.00    +0.000 N 
ATOM     19  C   UNL     1      66.119  67.101  70.379  0.00  0.00    +0.000 C 
ATOM     20  C   UNL     1      66.712  67.529  70.762  0.00  0.00    +0.000 C 
ATOM     21  N   UNL     1      66.854  67.408  71.565  0.00  0.00    +0.000 NA
ATOM     22  C   UNL     1      66.404  66.859  71.987  0.00  0.00    +0.000 C 
ATOM     23  C   UNL     1      65.811  66.432  71.604  0.00  0.00    +0.000 C 
ATOM     24  N   UNL     1      62.989  64.173  70.494  0.00  0.00    +0.000 NA
ATOM     25  C   UNL     1      62.539  63.626  70.914  0.00  0.00    +0.000 A 
ATOM     26  N   UNL     1      61.212  62.891  69.345  0.00  0.00    +0.000 N 
ATOM     27  C   UNL     1      61.069  63.012  68.541  0.00  0.00    +0.000 C 
ATOM     28  C   UNL     1      60.499  62.627  68.086  0.00  0.00    +0.000 C 
ATOM     29  C   UNL     1      60.550  62.916  67.315  0.00  0.00    +0.000 C 
ATOM     30  C   UNL     1      61.152  63.478  67.293  0.00  0.00    +0.000 C 
ATOM     31  C   UNL     1      61.473  63.538  68.051  0.00  0.00    +0.000 C 
ATOM     32  C   UNL     1      60.760  62.343  69.765  0.00  0.00    +0.000 A 
ATOM     33  O   UNL     1      60.168  61.915  69.383  0.00  0.00    +0.000 OA
ENDROOT
TORSDOF 0
ENDMDL
