MODEL 1
REMARK VINA RESULT:    -9.966      0.000      0.000
REMARK INTER + INTRA:          -9.966
REMARK INTER:                  -9.966
REMARK INTRA:                   0.000
REMARK UNBOUND:                 0.000
ROOT
REMARK  Name = parethoxycaine
REMARK                            x       y       z     vdW  Elec       q    Type
REMARK                         _______ _______ _______ _____ _____    ______ ____
ATOM      1  C   UNL     1      61.583  63.850  72.847  0.00  0.00    +0.000 C 
ATOM      2  C   UNL     1      61.524  63.611  72.060  0.00  0.00    +0.000 C 
ATOM      3  O   UNL     1      60.969  63.041  71.843  0.00  0.00    +0.000 OA
ATOM      4  C   UNL     1      60.909  62.802  71.056  0.00  0.00    +0.000 A 
ATOM      5  C   UNL     1      60.354  62.231  70.838  0.00  0.00    +0.000 A 
ATOM      6  C   UNL     1      60.294  61.992  70.051  0.00  0.00    +0.000 A 
ATOM      7  C   UNL     1      60.791  62.324  69.481  0.00  0.00    +0.000 A 
ATOM      8  C   UNL     1      61.346  62.893  69.698  0.00  0.00    +0.000 A 
ATOM      9  C   UNL     1      61.405  63.133  70.485  0.00  0.00    +0.000 A 
ATOM     10  C   UNL     1      60.731  62.085  68.694  0.00  0.00    +0.000 C 
ATOM     11  O   UNL     1      60.176  61.514  68.476  0.00  0.00    +0.000 OA
ATOM     12  O   UNL     1      61.227  62.415  68.123  0.00  0.00    +0.000 OA
ATOM     13  C   UNL     1      61.168  62.176  67.336  0.00  0.00    +0.000 C 
ATOM     14  C   UNL     1      61.664  62.508  66.766  0.00  0.00    +0.000 C 
ATOM     15  N   UNL     1      61.605  62.269  65.979  0.00  0.00    +0.000 NA
ATOM     16  C   UNL     1      62.101  62.599  65.408  0.00  0.00    +0.000 C 
ATOM     17  C   UNL     1      62.041  62.360  64.621  0.00  0.00    +0.000 C 
ATOM     18  C   UNL     1      61.049  61.698  65.761  0.00  0.00    +0.000 C 
ATOM     19  C   UNL     1      60.990  61.459  64.974  0.00  0.00    +0.000 C 
ENDROOT
TORSDOF 0
ENDMDL
MODEL 2
REMARK VINA RESULT:    -9.620      1.499      5.155
REMARK INTER + INTRA:          -9.620
REMARK INTER:                  -9.620
REMARK INTRA:                   0.000
REMARK UNBOUND:                 0.000
ROOT
REMARK  Name = parethoxycaine
REMARK                            x       y       z     vdW  Elec       q    Type
REMARK                         _______ _______ _______ _____ _____    ______ ____
ATOM      1  C   UNL     1      62.376  61.639  63.723  0.00  0.00    +0.000 C 
ATOM      2  C   UNL     1      62.155  61.785  64.504  0.00  0.00    +0.000 C 
ATOM      3  O   UNL     1      61.359  61.767  64.717  0.00  0.00    +0.000 OA
ATOM      4  C   UNL     1      61.138  61.913  65.498  0.00  0.00    +0.000 A 
ATOM      5  C   UNL     1      60.340  61.895  65.712  0.00  0.00    +0.000 A 
ATOM      6  C   UNL     1      60.119  62.041  66.493  0.00  0.00    +0.000 A 
ATOM      7  C   UNL     1      60.695  62.204  67.061  0.00  0.00    +0.000 A 
ATOM      8  C   UNL     1      61.491  62.221  66.848  0.00  0.00    +0.000 A 
ATOM      9  C   UNL     1      61.713  62.076  66.067  0.00  0.00    +0.000 A 
ATOM     10  C   UNL     1      60.474  62.349  67.842  0.00  0.00    +0.000 C 
ATOM     11  O   UNL     1      59.677  62.331  68.056  0.00  0.00    +0.000 OA
ATOM     12  O   UNL     1      61.049  62.512  68.411  0.00  0.00    +0.000 OA
ATOM     13  C   UNL     1      60.828  62.658  69.192  0.00  0.00    +0.000 C 
ATOM     14  C   UNL     1      61.404  62.821  69.760  0.00  0.00    +0.000 C 
ATOM     15  N   UNL     1      61.183  62.967  70.541  0.00  0.00    +0.000 NA
ATOM     16  C   UNL     1      61.758  63.130  71.110  0.00  0.00    +0.000 C 
ATOM     17  C   UNL     1      61.536  63.275  71.891  0.00  0.00    +0.000 C 
ATOM     18  C   UNL     1      60.385  62.949  70.755  0.00  0.00    +0.000 C 
ATOM     19  C   UNL     1      60.164  63.094  71.536  0.00  0.00    +0.000 C 
ENDROOT
TORSDOF 0
ENDMDL
MODEL 3
REMARK VINA RESULT:    -9.112      3.499      4.825
REMARK INTER + INTRA:          -9.112
REMARK INTER:                  -9.112
REMARK INTRA:                   0.000
REMARK UNBOUND:                 0.000
ROOT
REMARK  Name = parethoxycaine
REMARK                            x       y       z     vdW  Elec       q    Type
REMARK                         _______ _______ _______ _____ _____    ______ ____
ATOM      1  C   UNL     1      66.447  67.168  71.660  0.00  0.00    +0.000 C 
ATOM      2  C   UNL     1      65.842  66.648  71.448  0.00  0.00    +0.000 C 
ATOM      3  O   UNL     1      65.640  66.553  70.655  0.00  0.00    +0.000 OA
ATOM      4  C   UNL     1      65.035  66.033  70.444  0.00  0.00    +0.000 A 
ATOM      5  C   UNL     1      64.831  65.937  69.649  0.00  0.00    +0.000 A 
ATOM      6  C   UNL     1      64.227  65.417  69.438  0.00  0.00    +0.000 A 
ATOM      7  C   UNL     1      63.825  64.993  70.021  0.00  0.00    +0.000 A 
ATOM      8  C   UNL     1      64.028  65.089  70.815  0.00  0.00    +0.000 A 
ATOM      9  C   UNL     1      64.633  65.609  71.026  0.00  0.00    +0.000 A 
ATOM     10  C   UNL     1      63.220  64.473  69.810  0.00  0.00    +0.000 C 
ATOM     11  O   UNL     1      63.017  64.377  69.016  0.00  0.00    +0.000 OA
ATOM     12  O   UNL     1      62.818  64.049  70.392  0.00  0.00    +0.000 OA
ATOM     13  C   UNL     1      62.213  63.530  70.181  0.00  0.00    +0.000 C 
ATOM     14  C   UNL     1      61.812  63.106  70.764  0.00  0.00    +0.000 C 
ATOM     15  N   UNL     1      61.207  62.586  70.553  0.00  0.00    +0.000 NA
ATOM     16  C   UNL     1      60.805  62.162  71.135  0.00  0.00    +0.000 C 
ATOM     17  C   UNL     1      60.200  61.642  70.924  0.00  0.00    +0.000 C 
ATOM     18  C   UNL     1      61.003  62.490  69.759  0.00  0.00    +0.000 C 
ATOM     19  C   UNL     1      60.399  61.970  69.547  0.00  0.00    +0.000 C 
ENDROOT
TORSDOF 0
ENDMDL
MODEL 4
REMARK VINA RESULT:    -7.392     18.582     20.116
REMARK INTER + INTRA:          -7.392
REMARK INTER:                  -7.392
REMARK INTRA:                   0.000
REMARK UNBOUND:                 0.000
ROOT
REMARK  Name = parethoxycaine
REMARK                            x       y       z     vdW  Elec       q    Type
REMARK                         _______ _______ _______ _____ _____    ______ ____
ATOM      1  C   UNL     1      66.168  75.849  60.845  0.00  0.00    +0.000 C 
ATOM      2  C   UNL     1      65.815  76.489  60.462  0.00  0.00    +0.000 C 
ATOM      3  O   UNL     1      66.283  77.057  60.091  0.00  0.00    +0.000 OA
ATOM      4  C   UNL     1      65.930  77.697  59.709  0.00  0.00    +0.000 A 
ATOM      5  C   UNL     1      66.399  78.266  59.337  0.00  0.00    +0.000 A 
ATOM      6  C   UNL     1      66.046  78.906  58.955  0.00  0.00    +0.000 A 
ATOM      7  C   UNL     1      65.224  78.978  58.945  0.00  0.00    +0.000 A 
ATOM      8  C   UNL     1      64.756  78.410  59.316  0.00  0.00    +0.000 A 
ATOM      9  C   UNL     1      65.109  77.770  59.698  0.00  0.00    +0.000 A 
ATOM     10  C   UNL     1      64.871  79.618  58.562  0.00  0.00    +0.000 C 
ATOM     11  O   UNL     1      65.340  80.187  58.190  0.00  0.00    +0.000 OA
ATOM     12  O   UNL     1      64.049  79.691  58.552  0.00  0.00    +0.000 OA
ATOM     13  C   UNL     1      63.696  80.331  58.170  0.00  0.00    +0.000 C 
ATOM     14  C   UNL     1      62.874  80.403  58.160  0.00  0.00    +0.000 C 
ATOM     15  N   UNL     1      62.521  81.043  57.778  0.00  0.00    +0.000 NA
ATOM     16  C   UNL     1      61.700  81.116  57.767  0.00  0.00    +0.000 C 
ATOM     17  C   UNL     1      61.347  81.756  57.385  0.00  0.00    +0.000 C 
ATOM     18  C   UNL     1      62.990  81.612  57.405  0.00  0.00    +0.000 C 
ATOM     19  C   UNL     1      62.637  82.252  57.023  0.00  0.00    +0.000 C 
ENDROOT
TORSDOF 0
ENDMDL
MODEL 5
REMARK VINA RESULT:    -7.314     15.057     15.550
REMARK INTER + INTRA:          -7.314
REMARK INTER:                  -7.314
REMARK INTRA:                   0.000
REMARK UNBOUND:                 0.000
ROOT
REMARK  Name = parethoxycaine
REMARK                            x       y       z     vdW  Elec       q    Type
REMARK                         _______ _______ _______ _____ _____    ______ ____
ATOM      1  C   UNL     1      64.273  61.558  53.990  0.00  0.00    +0.000 C 
ATOM      2  C   UNL     1      63.971  62.326  53.995  0.00  0.00    +0.000 C 
ATOM      3  O   UNL     1      63.156  62.448  53.973  0.00  0.00    +0.000 OA
ATOM      4  C   UNL     1      62.854  63.216  53.978  0.00  0.00    +0.000 A 
ATOM      5  C   UNL     1      62.038  63.338  53.956  0.00  0.00    +0.000 A 
ATOM      6  C   UNL     1      61.736  64.106  53.961  0.00  0.00    +0.000 A 
ATOM      7  C   UNL     1      62.250  64.751  53.987  0.00  0.00    +0.000 A 
ATOM      8  C   UNL     1      63.065  64.629  54.008  0.00  0.00    +0.000 A 
ATOM      9  C   UNL     1      63.367  63.861  54.004  0.00  0.00    +0.000 A 
ATOM     10  C   UNL     1      61.948  65.519  53.991  0.00  0.00    +0.000 C 
ATOM     11  O   UNL     1      61.132  65.642  53.970  0.00  0.00    +0.000 OA
ATOM     12  O   UNL     1      62.461  66.164  54.017  0.00  0.00    +0.000 OA
ATOM     13  C   UNL     1      62.159  66.932  54.022  0.00  0.00    +0.000 C 
ATOM     14  C   UNL     1      62.673  67.577  54.048  0.00  0.00    +0.000 C 
ATOM     15  N   UNL     1      62.371  68.344  54.052  0.00  0.00    +0.000 NA
ATOM     16  C   UNL     1      62.884  68.990  54.079  0.00  0.00    +0.000 C 
ATOM     17  C   UNL     1      62.582  69.758  54.083  0.00  0.00    +0.000 C 
ATOM     18  C   UNL     1      61.555  68.467  54.031  0.00  0.00    +0.000 C 
ATOM     19  C   UNL     1      61.253  69.235  54.035  0.00  0.00    +0.000 C 
ENDROOT
TORSDOF 0
ENDMDL
MODEL 6
REMARK VINA RESULT:    -7.276     14.880     15.092
REMARK INTER + INTRA:          -7.276
REMARK INTER:                  -7.276
REMARK INTRA:                   0.000
REMARK UNBOUND:                 0.000
ROOT
REMARK  Name = parethoxycaine
REMARK                            x       y       z     vdW  Elec       q    Type
REMARK                         _______ _______ _______ _____ _____    ______ ____
ATOM      1  C   UNL     1      62.352  69.216  55.326  0.00  0.00    +0.000 C 
ATOM      2  C   UNL     1      62.409  68.420  55.117  0.00  0.00    +0.000 C 
ATOM      3  O   UNL     1      61.806  68.064  54.681  0.00  0.00    +0.000 OA
ATOM      4  C   UNL     1      61.863  67.268  54.472  0.00  0.00    +0.000 A 
ATOM      5  C   UNL     1      61.260  66.912  54.035  0.00  0.00    +0.000 A 
ATOM      6  C   UNL     1      61.317  66.116  53.826  0.00  0.00    +0.000 A 
ATOM      7  C   UNL     1      61.976  65.676  54.055  0.00  0.00    +0.000 A 
ATOM      8  C   UNL     1      62.578  66.031  54.492  0.00  0.00    +0.000 A 
ATOM      9  C   UNL     1      62.522  66.827  54.700  0.00  0.00    +0.000 A 
ATOM     10  C   UNL     1      62.033  64.879  53.846  0.00  0.00    +0.000 C 
ATOM     11  O   UNL     1      61.430  64.523  53.409  0.00  0.00    +0.000 OA
ATOM     12  O   UNL     1      62.692  64.439  54.075  0.00  0.00    +0.000 OA
ATOM     13  C   UNL     1      62.748  63.642  53.866  0.00  0.00    +0.000 C 
ATOM     14  C   UNL     1      63.408  63.203  54.095  0.00  0.00    +0.000 C 
ATOM     15  N   UNL     1      63.465  62.406  53.887  0.00  0.00    +0.000 NA
ATOM     16  C   UNL     1      64.123  61.965  54.115  0.00  0.00    +0.000 C 
ATOM     17  C   UNL     1      64.180  61.169  53.906  0.00  0.00    +0.000 C 
ATOM     18  C   UNL     1      62.862  62.050  53.449  0.00  0.00    +0.000 C 
ATOM     19  C   UNL     1      62.918  61.254  53.241  0.00  0.00    +0.000 C 
ENDROOT
TORSDOF 0
ENDMDL
MODEL 7
REMARK VINA RESULT:    -7.227     13.959     16.798
REMARK INTER + INTRA:          -7.227
REMARK INTER:                  -7.227
REMARK INTRA:                   0.000
REMARK UNBOUND:                 0.000
ROOT
REMARK  Name = parethoxycaine
REMARK                            x       y       z     vdW  Elec       q    Type
REMARK                         _______ _______ _______ _____ _____    ______ ____
ATOM      1  C   UNL     1      62.940  68.442  57.514  0.00  0.00    +0.000 C 
ATOM      2  C   UNL     1      62.802  68.521  56.704  0.00  0.00    +0.000 C 
ATOM      3  O   UNL     1      62.672  67.851  56.242  0.00  0.00    +0.000 OA
ATOM      4  C   UNL     1      62.534  67.929  55.432  0.00  0.00    +0.000 A 
ATOM      5  C   UNL     1      62.404  67.258  54.969  0.00  0.00    +0.000 A 
ATOM      6  C   UNL     1      62.265  67.337  54.159  0.00  0.00    +0.000 A 
ATOM      7  C   UNL     1      62.256  68.086  53.813  0.00  0.00    +0.000 A 
ATOM      8  C   UNL     1      62.386  68.756  54.276  0.00  0.00    +0.000 A 
ATOM      9  C   UNL     1      62.524  68.677  55.085  0.00  0.00    +0.000 A 
ATOM     10  C   UNL     1      62.117  68.164  53.004  0.00  0.00    +0.000 C 
ATOM     11  O   UNL     1      61.988  67.493  52.540  0.00  0.00    +0.000 OA
ATOM     12  O   UNL     1      62.108  68.913  52.657  0.00  0.00    +0.000 OA
ATOM     13  C   UNL     1      61.970  68.991  51.848  0.00  0.00    +0.000 C 
ATOM     14  C   UNL     1      61.961  69.740  51.502  0.00  0.00    +0.000 C 
ATOM     15  N   UNL     1      61.822  69.819  50.692  0.00  0.00    +0.000 NA
ATOM     16  C   UNL     1      61.813  70.567  50.345  0.00  0.00    +0.000 C 
ATOM     17  C   UNL     1      61.674  70.645  49.536  0.00  0.00    +0.000 C 
ATOM     18  C   UNL     1      61.692  69.148  50.229  0.00  0.00    +0.000 C 
ATOM     19  C   UNL     1      61.554  69.226  49.419  0.00  0.00    +0.000 C 
ENDROOT
TORSDOF 0
ENDMDL
MODEL 8
REMARK VINA RESULT:    -7.218     15.305     16.740
REMARK INTER + INTRA:          -7.218
REMARK INTER:                  -7.218
REMARK INTRA:                   0.000
REMARK UNBOUND:                 0.000
ROOT
REMARK  Name = parethoxycaine
REMARK                            x       y       z     vdW  Elec       q    Type
REMARK                         _______ _______ _______ _____ _____    ______ ____
ATOM      1  C   UNL     1      66.170  63.944  53.728  0.00  0.00    +0.000 C 
ATOM      2  C   UNL     1      65.779  63.264  53.473  0.00  0.00    +0.000 C 
ATOM      3  O   UNL     1      65.192  62.926  53.943  0.00  0.00    +0.000 OA
ATOM      4  C   UNL     1      64.801  62.246  53.689  0.00  0.00    +0.000 A 
ATOM      5  C   UNL     1      64.213  61.907  54.159  0.00  0.00    +0.000 A 
ATOM      6  C   UNL     1      63.822  61.227  53.905  0.00  0.00    +0.000 A 
ATOM      7  C   UNL     1      64.019  60.884  53.180  0.00  0.00    +0.000 A 
ATOM      8  C   UNL     1      64.607  61.222  52.711  0.00  0.00    +0.000 A 
ATOM      9  C   UNL     1      64.997  61.902  52.965  0.00  0.00    +0.000 A 
ATOM     10  C   UNL     1      63.628  60.204  52.926  0.00  0.00    +0.000 C 
ATOM     11  O   UNL     1      63.040  59.866  53.396  0.00  0.00    +0.000 OA
ATOM     12  O   UNL     1      63.825  59.861  52.202  0.00  0.00    +0.000 OA
ATOM     13  C   UNL     1      63.434  59.180  51.948  0.00  0.00    +0.000 C 
ATOM     14  C   UNL     1      63.631  58.838  51.224  0.00  0.00    +0.000 C 
ATOM     15  N   UNL     1      63.240  58.157  50.969  0.00  0.00    +0.000 NA
ATOM     16  C   UNL     1      63.437  57.814  50.246  0.00  0.00    +0.000 C 
ATOM     17  C   UNL     1      63.046  57.134  49.991  0.00  0.00    +0.000 C 
ATOM     18  C   UNL     1      62.652  57.819  51.440  0.00  0.00    +0.000 C 
ATOM     19  C   UNL     1      62.261  57.139  51.185  0.00  0.00    +0.000 C 
ENDROOT
TORSDOF 0
ENDMDL
MODEL 9
REMARK VINA RESULT:    -7.082     15.069     15.440
REMARK INTER + INTRA:          -7.082
REMARK INTER:                  -7.082
REMARK INTRA:                   0.000
REMARK UNBOUND:                 0.000
ROOT
REMARK  Name = parethoxycaine
REMARK                            x       y       z     vdW  Elec       q    Type
REMARK                         _______ _______ _______ _____ _____    ______ ____
ATOM      1  C   UNL     1      60.444  70.919  54.495  0.00  0.00    +0.000 C 
ATOM      2  C   UNL     1      60.736  70.149  54.438  0.00  0.00    +0.000 C 
ATOM      3  O   UNL     1      61.515  69.987  54.656  0.00  0.00    +0.000 OA
ATOM      4  C   UNL     1      61.807  69.217  54.600  0.00  0.00    +0.000 A 
ATOM      5  C   UNL     1      62.586  69.054  54.818  0.00  0.00    +0.000 A 
ATOM      6  C   UNL     1      62.878  68.285  54.762  0.00  0.00    +0.000 A 
ATOM      7  C   UNL     1      62.391  67.678  54.487  0.00  0.00    +0.000 A 
ATOM      8  C   UNL     1      61.612  67.841  54.269  0.00  0.00    +0.000 A 
ATOM      9  C   UNL     1      61.320  68.610  54.325  0.00  0.00    +0.000 A 
ATOM     10  C   UNL     1      62.683  66.909  54.431  0.00  0.00    +0.000 C 
ATOM     11  O   UNL     1      63.462  66.746  54.649  0.00  0.00    +0.000 OA
ATOM     12  O   UNL     1      62.196  66.302  54.156  0.00  0.00    +0.000 OA
ATOM     13  C   UNL     1      62.489  65.532  54.100  0.00  0.00    +0.000 C 
ATOM     14  C   UNL     1      62.001  64.926  53.825  0.00  0.00    +0.000 C 
ATOM     15  N   UNL     1      62.293  64.156  53.769  0.00  0.00    +0.000 NA
ATOM     16  C   UNL     1      61.807  63.549  53.495  0.00  0.00    +0.000 C 
ATOM     17  C   UNL     1      62.099  62.779  53.438  0.00  0.00    +0.000 C 
ATOM     18  C   UNL     1      63.073  63.993  53.987  0.00  0.00    +0.000 C 
ATOM     19  C   UNL     1      63.365  63.224  53.931  0.00  0.00    +0.000 C 
ENDROOT
TORSDOF 0
ENDMDL
