MODEL 1
REMARK VINA RESULT:   -10.562      0.000      0.000
REMARK INTER + INTRA:         -10.562
REMARK INTER:                 -10.562
REMARK INTRA:                   0.000
REMARK UNBOUND:                 0.000
ROOT
REMARK  Name = pecazine
REMARK                            x       y       z     vdW  Elec       q    Type
REMARK                         _______ _______ _______ _____ _____    ______ ____
ATOM      1  C   UNL     1      60.544  61.763  70.078  0.00  0.00    +0.000 C 
ATOM      2  N   UNL     1      60.489  62.267  69.427  0.00  0.00    +0.000 NA
ATOM      3  C   UNL     1      60.603  61.971  68.665  0.00  0.00    +0.000 C 
ATOM      4  C   UNL     1      60.547  62.476  68.014  0.00  0.00    +0.000 C 
ATOM      5  C   UNL     1      60.377  63.275  68.125  0.00  0.00    +0.000 C 
ATOM      6  C   UNL     1      60.262  63.570  68.886  0.00  0.00    +0.000 C 
ATOM      7  C   UNL     1      60.091  64.370  68.998  0.00  0.00    +0.000 C 
ATOM      8  N   UNL     1      59.977  64.665  69.758  0.00  0.00    +0.000 N 
ATOM      9  C   UNL     1      59.806  65.465  69.869  0.00  0.00    +0.000 A 
ATOM     10  C   UNL     1      59.750  65.968  69.218  0.00  0.00    +0.000 A 
ATOM     11  C   UNL     1      59.579  66.768  69.329  0.00  0.00    +0.000 A 
ATOM     12  C   UNL     1      59.464  67.064  70.091  0.00  0.00    +0.000 A 
ATOM     13  C   UNL     1      59.520  66.560  70.741  0.00  0.00    +0.000 A 
ATOM     14  C   UNL     1      59.691  65.761  70.631  0.00  0.00    +0.000 A 
ATOM     15  S   UNL     1      59.747  65.256  71.282  0.00  0.00    +0.000 S 
ATOM     16  C   UNL     1      59.917  64.457  71.171  0.00  0.00    +0.000 A 
ATOM     17  C   UNL     1      59.973  63.954  71.821  0.00  0.00    +0.000 A 
ATOM     18  C   UNL     1      60.144  63.154  71.711  0.00  0.00    +0.000 A 
ATOM     19  C   UNL     1      60.259  62.858  70.950  0.00  0.00    +0.000 A 
ATOM     20  C   UNL     1      60.203  63.362  70.298  0.00  0.00    +0.000 A 
ATOM     21  C   UNL     1      60.032  64.162  70.410  0.00  0.00    +0.000 A 
ATOM     22  C   UNL     1      60.318  63.067  69.538  0.00  0.00    +0.000 C 
ENDROOT
TORSDOF 0
ENDMDL
MODEL 2
REMARK VINA RESULT:   -10.537      2.276      3.391
REMARK INTER + INTRA:         -10.537
REMARK INTER:                 -10.537
REMARK INTRA:                   0.000
REMARK UNBOUND:                 0.000
ROOT
REMARK  Name = pecazine
REMARK                            x       y       z     vdW  Elec       q    Type
REMARK                         _______ _______ _______ _____ _____    ______ ____
ATOM      1  C   UNL     1      62.024  63.798  72.123  0.00  0.00    +0.000 C 
ATOM      2  N   UNL     1      62.291  64.139  71.420  0.00  0.00    +0.000 NA
ATOM      3  C   UNL     1      62.821  64.771  71.444  0.00  0.00    +0.000 C 
ATOM      4  C   UNL     1      63.088  65.111  70.741  0.00  0.00    +0.000 C 
ATOM      5  C   UNL     1      62.825  64.821  70.016  0.00  0.00    +0.000 C 
ATOM      6  C   UNL     1      62.296  64.189  69.992  0.00  0.00    +0.000 C 
ATOM      7  C   UNL     1      62.032  63.897  69.267  0.00  0.00    +0.000 C 
ATOM      8  N   UNL     1      61.503  63.266  69.243  0.00  0.00    +0.000 N 
ATOM      9  C   UNL     1      61.240  62.975  68.517  0.00  0.00    +0.000 A 
ATOM     10  C   UNL     1      61.507  63.316  67.815  0.00  0.00    +0.000 A 
ATOM     11  C   UNL     1      61.244  63.025  67.089  0.00  0.00    +0.000 A 
ATOM     12  C   UNL     1      60.714  62.393  67.065  0.00  0.00    +0.000 A 
ATOM     13  C   UNL     1      60.448  62.052  67.768  0.00  0.00    +0.000 A 
ATOM     14  C   UNL     1      60.710  62.343  68.493  0.00  0.00    +0.000 A 
ATOM     15  S   UNL     1      60.443  62.002  69.196  0.00  0.00    +0.000 S 
ATOM     16  C   UNL     1      60.706  62.293  69.921  0.00  0.00    +0.000 A 
ATOM     17  C   UNL     1      60.439  61.953  70.623  0.00  0.00    +0.000 A 
ATOM     18  C   UNL     1      60.702  62.243  71.349  0.00  0.00    +0.000 A 
ATOM     19  C   UNL     1      61.232  62.875  71.373  0.00  0.00    +0.000 A 
ATOM     20  C   UNL     1      61.499  63.216  70.670  0.00  0.00    +0.000 A 
ATOM     21  C   UNL     1      61.236  62.925  69.945  0.00  0.00    +0.000 A 
ATOM     22  C   UNL     1      62.028  63.848  70.694  0.00  0.00    +0.000 C 
ENDROOT
TORSDOF 0
ENDMDL
MODEL 3
REMARK VINA RESULT:   -10.509      2.140      2.321
REMARK INTER + INTRA:         -10.509
REMARK INTER:                 -10.509
REMARK INTRA:                   0.000
REMARK UNBOUND:                 0.000
ROOT
REMARK  Name = pecazine
REMARK                            x       y       z     vdW  Elec       q    Type
REMARK                         _______ _______ _______ _____ _____    ______ ____
ATOM      1  C   UNL     1      60.376  61.718  70.673  0.00  0.00    +0.000 C 
ATOM      2  N   UNL     1      60.661  62.158  70.035  0.00  0.00    +0.000 NA
ATOM      3  C   UNL     1      60.469  61.938  69.264  0.00  0.00    +0.000 C 
ATOM      4  C   UNL     1      60.754  62.379  68.627  0.00  0.00    +0.000 C 
ATOM      5  C   UNL     1      61.230  63.038  68.761  0.00  0.00    +0.000 C 
ATOM      6  C   UNL     1      61.422  63.258  69.532  0.00  0.00    +0.000 C 
ATOM      7  C   UNL     1      61.898  63.918  69.667  0.00  0.00    +0.000 C 
ATOM      8  N   UNL     1      62.090  64.138  70.438  0.00  0.00    +0.000 N 
ATOM      9  C   UNL     1      62.567  64.798  70.572  0.00  0.00    +0.000 A 
ATOM     10  C   UNL     1      62.851  65.237  69.935  0.00  0.00    +0.000 A 
ATOM     11  C   UNL     1      63.328  65.898  70.069  0.00  0.00    +0.000 A 
ATOM     12  C   UNL     1      63.520  66.118  70.841  0.00  0.00    +0.000 A 
ATOM     13  C   UNL     1      63.235  65.678  71.478  0.00  0.00    +0.000 A 
ATOM     14  C   UNL     1      62.759  65.018  71.344  0.00  0.00    +0.000 A 
ATOM     15  S   UNL     1      62.474  64.578  71.981  0.00  0.00    +0.000 S 
ATOM     16  C   UNL     1      61.998  63.918  71.847  0.00  0.00    +0.000 A 
ATOM     17  C   UNL     1      61.714  63.478  72.484  0.00  0.00    +0.000 A 
ATOM     18  C   UNL     1      61.237  62.818  72.350  0.00  0.00    +0.000 A 
ATOM     19  C   UNL     1      61.045  62.598  71.578  0.00  0.00    +0.000 A 
ATOM     20  C   UNL     1      61.330  63.038  70.940  0.00  0.00    +0.000 A 
ATOM     21  C   UNL     1      61.806  63.698  71.075  0.00  0.00    +0.000 A 
ATOM     22  C   UNL     1      61.138  62.819  70.170  0.00  0.00    +0.000 C 
ENDROOT
TORSDOF 0
ENDMDL
MODEL 4
REMARK VINA RESULT:   -10.443      1.177      3.316
REMARK INTER + INTRA:         -10.443
REMARK INTER:                 -10.443
REMARK INTRA:                   0.000
REMARK UNBOUND:                 0.000
ROOT
REMARK  Name = pecazine
REMARK                            x       y       z     vdW  Elec       q    Type
REMARK                         _______ _______ _______ _____ _____    ______ ____
ATOM      1  C   UNL     1      60.749  64.786  72.486  0.00  0.00    +0.000 C 
ATOM      2  N   UNL     1      60.953  64.010  72.291  0.00  0.00    +0.000 NA
ATOM      3  C   UNL     1      61.273  63.510  72.864  0.00  0.00    +0.000 C 
ATOM      4  C   UNL     1      61.476  62.735  72.668  0.00  0.00    +0.000 C 
ATOM      5  C   UNL     1      61.361  62.460  71.900  0.00  0.00    +0.000 C 
ATOM      6  C   UNL     1      61.042  62.959  71.326  0.00  0.00    +0.000 C 
ATOM      7  C   UNL     1      60.926  62.685  70.557  0.00  0.00    +0.000 C 
ATOM      8  N   UNL     1      60.608  63.184  69.984  0.00  0.00    +0.000 N 
ATOM      9  C   UNL     1      60.492  62.908  69.214  0.00  0.00    +0.000 A 
ATOM     10  C   UNL     1      60.696  62.133  69.019  0.00  0.00    +0.000 A 
ATOM     11  C   UNL     1      60.581  61.858  68.250  0.00  0.00    +0.000 A 
ATOM     12  C   UNL     1      60.262  62.358  67.676  0.00  0.00    +0.000 A 
ATOM     13  C   UNL     1      60.058  63.133  67.872  0.00  0.00    +0.000 A 
ATOM     14  C   UNL     1      60.173  63.408  68.641  0.00  0.00    +0.000 A 
ATOM     15  S   UNL     1      59.969  64.183  68.837  0.00  0.00    +0.000 S 
ATOM     16  C   UNL     1      60.084  64.459  69.605  0.00  0.00    +0.000 A 
ATOM     17  C   UNL     1      59.880  65.233  69.801  0.00  0.00    +0.000 A 
ATOM     18  C   UNL     1      59.995  65.509  70.570  0.00  0.00    +0.000 A 
ATOM     19  C   UNL     1      60.315  65.009  71.144  0.00  0.00    +0.000 A 
ATOM     20  C   UNL     1      60.519  64.234  70.948  0.00  0.00    +0.000 A 
ATOM     21  C   UNL     1      60.403  63.959  70.179  0.00  0.00    +0.000 A 
ATOM     22  C   UNL     1      60.838  63.734  71.521  0.00  0.00    +0.000 C 
ENDROOT
TORSDOF 0
ENDMDL
MODEL 5
REMARK VINA RESULT:   -10.436      0.863      3.300
REMARK INTER + INTRA:         -10.436
REMARK INTER:                 -10.436
REMARK INTRA:                   0.000
REMARK UNBOUND:                 0.000
ROOT
REMARK  Name = pecazine
REMARK                            x       y       z     vdW  Elec       q    Type
REMARK                         _______ _______ _______ _____ _____    ______ ____
ATOM      1  C   UNL     1      59.266  66.935  71.272  0.00  0.00    +0.000 C 
ATOM      2  N   UNL     1      59.452  66.649  70.519  0.00  0.00    +0.000 NA
ATOM      3  C   UNL     1      59.436  67.157  69.870  0.00  0.00    +0.000 C 
ATOM      4  C   UNL     1      59.622  66.871  69.118  0.00  0.00    +0.000 C 
ATOM      5  C   UNL     1      59.824  66.079  69.017  0.00  0.00    +0.000 C 
ATOM      6  C   UNL     1      59.840  65.571  69.666  0.00  0.00    +0.000 C 
ATOM      7  C   UNL     1      60.042  64.777  69.565  0.00  0.00    +0.000 C 
ATOM      8  N   UNL     1      60.058  64.270  70.214  0.00  0.00    +0.000 N 
ATOM      9  C   UNL     1      60.261  63.476  70.113  0.00  0.00    +0.000 A 
ATOM     10  C   UNL     1      60.447  63.191  69.361  0.00  0.00    +0.000 A 
ATOM     11  C   UNL     1      60.649  62.397  69.260  0.00  0.00    +0.000 A 
ATOM     12  C   UNL     1      60.665  61.889  69.910  0.00  0.00    +0.000 A 
ATOM     13  C   UNL     1      60.479  62.175  70.661  0.00  0.00    +0.000 A 
ATOM     14  C   UNL     1      60.277  62.968  70.763  0.00  0.00    +0.000 A 
ATOM     15  S   UNL     1      60.091  63.254  71.514  0.00  0.00    +0.000 S 
ATOM     16  C   UNL     1      59.889  64.046  71.616  0.00  0.00    +0.000 A 
ATOM     17  C   UNL     1      59.703  64.332  72.366  0.00  0.00    +0.000 A 
ATOM     18  C   UNL     1      59.500  65.125  72.469  0.00  0.00    +0.000 A 
ATOM     19  C   UNL     1      59.484  65.633  71.819  0.00  0.00    +0.000 A 
ATOM     20  C   UNL     1      59.670  65.348  71.067  0.00  0.00    +0.000 A 
ATOM     21  C   UNL     1      59.872  64.555  70.966  0.00  0.00    +0.000 A 
ATOM     22  C   UNL     1      59.654  65.855  70.418  0.00  0.00    +0.000 C 
ENDROOT
TORSDOF 0
ENDMDL
MODEL 6
REMARK VINA RESULT:   -10.403      1.128      3.868
REMARK INTER + INTRA:         -10.403
REMARK INTER:                 -10.403
REMARK INTRA:                   0.000
REMARK UNBOUND:                 0.000
ROOT
REMARK  Name = pecazine
REMARK                            x       y       z     vdW  Elec       q    Type
REMARK                         _______ _______ _______ _____ _____    ______ ____
ATOM      1  C   UNL     1      59.368  66.846  70.833  0.00  0.00    +0.000 C 
ATOM      2  N   UNL     1      59.347  66.244  71.398  0.00  0.00    +0.000 NA
ATOM      3  C   UNL     1      59.110  66.411  72.170  0.00  0.00    +0.000 C 
ATOM      4  C   UNL     1      59.089  65.809  72.734  0.00  0.00    +0.000 C 
ATOM      5  C   UNL     1      59.303  65.041  72.527  0.00  0.00    +0.000 C 
ATOM      6  C   UNL     1      59.540  64.874  71.754  0.00  0.00    +0.000 C 
ATOM      7  C   UNL     1      59.755  64.105  71.546  0.00  0.00    +0.000 C 
ATOM      8  N   UNL     1      59.991  63.938  70.774  0.00  0.00    +0.000 N 
ATOM      9  C   UNL     1      60.206  63.168  70.566  0.00  0.00    +0.000 A 
ATOM     10  C   UNL     1      60.185  62.567  71.130  0.00  0.00    +0.000 A 
ATOM     11  C   UNL     1      60.400  61.798  70.922  0.00  0.00    +0.000 A 
ATOM     12  C   UNL     1      60.636  61.631  70.150  0.00  0.00    +0.000 A 
ATOM     13  C   UNL     1      60.658  62.232  69.586  0.00  0.00    +0.000 A 
ATOM     14  C   UNL     1      60.443  63.001  69.793  0.00  0.00    +0.000 A 
ATOM     15  S   UNL     1      60.464  63.603  69.229  0.00  0.00    +0.000 S 
ATOM     16  C   UNL     1      60.249  64.371  69.437  0.00  0.00    +0.000 A 
ATOM     17  C   UNL     1      60.271  64.972  68.873  0.00  0.00    +0.000 A 
ATOM     18  C   UNL     1      60.056  65.741  69.081  0.00  0.00    +0.000 A 
ATOM     19  C   UNL     1      59.820  65.909  69.853  0.00  0.00    +0.000 A 
ATOM     20  C   UNL     1      59.798  65.307  70.418  0.00  0.00    +0.000 A 
ATOM     21  C   UNL     1      60.013  64.539  70.209  0.00  0.00    +0.000 A 
ATOM     22  C   UNL     1      59.562  65.474  71.189  0.00  0.00    +0.000 C 
ENDROOT
TORSDOF 0
ENDMDL
MODEL 7
REMARK VINA RESULT:   -10.386      4.143      4.786
REMARK INTER + INTRA:         -10.386
REMARK INTER:                 -10.386
REMARK INTRA:                   0.000
REMARK UNBOUND:                 0.000
ROOT
REMARK  Name = pecazine
REMARK                            x       y       z     vdW  Elec       q    Type
REMARK                         _______ _______ _______ _____ _____    ______ ____
ATOM      1  C   UNL     1      61.684  64.054  71.144  0.00  0.00    +0.000 C 
ATOM      2  N   UNL     1      61.890  64.663  71.661  0.00  0.00    +0.000 NA
ATOM      3  C   UNL     1      61.438  64.801  72.338  0.00  0.00    +0.000 C 
ATOM      4  C   UNL     1      61.645  65.410  72.854  0.00  0.00    +0.000 C 
ATOM      5  C   UNL     1      62.303  65.881  72.695  0.00  0.00    +0.000 C 
ATOM      6  C   UNL     1      62.754  65.744  72.018  0.00  0.00    +0.000 C 
ATOM      7  C   UNL     1      63.412  66.215  71.858  0.00  0.00    +0.000 C 
ATOM      8  N   UNL     1      63.863  66.078  71.183  0.00  0.00    +0.000 N 
ATOM      9  C   UNL     1      64.521  66.550  71.023  0.00  0.00    +0.000 A 
ATOM     10  C   UNL     1      64.727  67.158  71.540  0.00  0.00    +0.000 A 
ATOM     11  C   UNL     1      65.386  67.630  71.380  0.00  0.00    +0.000 A 
ATOM     12  C   UNL     1      65.837  67.493  70.703  0.00  0.00    +0.000 A 
ATOM     13  C   UNL     1      65.630  66.883  70.187  0.00  0.00    +0.000 A 
ATOM     14  C   UNL     1      64.973  66.412  70.346  0.00  0.00    +0.000 A 
ATOM     15  S   UNL     1      64.766  65.803  69.829  0.00  0.00    +0.000 S 
ATOM     16  C   UNL     1      64.109  65.332  69.989  0.00  0.00    +0.000 A 
ATOM     17  C   UNL     1      63.903  64.723  69.472  0.00  0.00    +0.000 A 
ATOM     18  C   UNL     1      63.245  64.251  69.631  0.00  0.00    +0.000 A 
ATOM     19  C   UNL     1      62.793  64.389  70.308  0.00  0.00    +0.000 A 
ATOM     20  C   UNL     1      62.999  64.998  70.825  0.00  0.00    +0.000 A 
ATOM     21  C   UNL     1      63.657  65.469  70.665  0.00  0.00    +0.000 A 
ATOM     22  C   UNL     1      62.548  65.135  71.501  0.00  0.00    +0.000 C 
ENDROOT
TORSDOF 0
ENDMDL
MODEL 8
REMARK VINA RESULT:   -10.381      3.332      4.287
REMARK INTER + INTRA:         -10.381
REMARK INTER:                 -10.381
REMARK INTRA:                   0.000
REMARK UNBOUND:                 0.000
ROOT
REMARK  Name = pecazine
REMARK                            x       y       z     vdW  Elec       q    Type
REMARK                         _______ _______ _______ _____ _____    ______ ____
ATOM      1  C   UNL     1      64.307  66.872  71.065  0.00  0.00    +0.000 C 
ATOM      2  N   UNL     1      64.254  66.169  70.634  0.00  0.00    +0.000 NA
ATOM      3  C   UNL     1      64.742  66.049  69.980  0.00  0.00    +0.000 C 
ATOM      4  C   UNL     1      64.688  65.346  69.550  0.00  0.00    +0.000 C 
ATOM      5  C   UNL     1      64.148  64.766  69.773  0.00  0.00    +0.000 C 
ATOM      6  C   UNL     1      63.659  64.886  70.427  0.00  0.00    +0.000 C 
ATOM      7  C   UNL     1      63.118  64.306  70.651  0.00  0.00    +0.000 C 
ATOM      8  N   UNL     1      62.630  64.426  71.304  0.00  0.00    +0.000 N 
ATOM      9  C   UNL     1      62.088  63.845  71.528  0.00  0.00    +0.000 A 
ATOM     10  C   UNL     1      62.036  63.143  71.097  0.00  0.00    +0.000 A 
ATOM     11  C   UNL     1      61.494  62.562  71.321  0.00  0.00    +0.000 A 
ATOM     12  C   UNL     1      61.006  62.683  71.975  0.00  0.00    +0.000 A 
ATOM     13  C   UNL     1      61.059  63.385  72.405  0.00  0.00    +0.000 A 
ATOM     14  C   UNL     1      61.600  63.966  72.182  0.00  0.00    +0.000 A 
ATOM     15  S   UNL     1      61.654  64.668  72.612  0.00  0.00    +0.000 S 
ATOM     16  C   UNL     1      62.194  65.248  72.389  0.00  0.00    +0.000 A 
ATOM     17  C   UNL     1      62.248  65.950  72.819  0.00  0.00    +0.000 A 
ATOM     18  C   UNL     1      62.789  66.531  72.596  0.00  0.00    +0.000 A 
ATOM     19  C   UNL     1      63.277  66.411  71.942  0.00  0.00    +0.000 A 
ATOM     20  C   UNL     1      63.224  65.708  71.511  0.00  0.00    +0.000 A 
ATOM     21  C   UNL     1      62.683  65.128  71.735  0.00  0.00    +0.000 A 
ATOM     22  C   UNL     1      63.712  65.588  70.858  0.00  0.00    +0.000 C 
ENDROOT
TORSDOF 0
ENDMDL
MODEL 9
REMARK VINA RESULT:   -10.261      3.999      5.012
REMARK INTER + INTRA:         -10.261
REMARK INTER:                 -10.261
REMARK INTRA:                   0.000
REMARK UNBOUND:                 0.000
ROOT
REMARK  Name = pecazine
REMARK                            x       y       z     vdW  Elec       q    Type
REMARK                         _______ _______ _______ _____ _____    ______ ____
ATOM      1  C   UNL     1      65.380  66.491  70.042  0.00  0.00    +0.000 C 
ATOM      2  N   UNL     1      65.001  66.733  70.735  0.00  0.00    +0.000 NA
ATOM      3  C   UNL     1      65.266  67.401  71.139  0.00  0.00    +0.000 C 
ATOM      4  C   UNL     1      64.886  67.642  71.831  0.00  0.00    +0.000 C 
ATOM      5  C   UNL     1      64.243  67.215  72.118  0.00  0.00    +0.000 C 
ATOM      6  C   UNL     1      63.978  66.546  71.714  0.00  0.00    +0.000 C 
ATOM      7  C   UNL     1      63.334  66.118  72.002  0.00  0.00    +0.000 C 
ATOM      8  N   UNL     1      63.069  65.450  71.598  0.00  0.00    +0.000 N 
ATOM      9  C   UNL     1      62.424  65.022  71.886  0.00  0.00    +0.000 A 
ATOM     10  C   UNL     1      62.045  65.264  72.578  0.00  0.00    +0.000 A 
ATOM     11  C   UNL     1      61.401  64.836  72.866  0.00  0.00    +0.000 A 
ATOM     12  C   UNL     1      61.136  64.167  72.462  0.00  0.00    +0.000 A 
ATOM     13  C   UNL     1      61.515  63.927  71.769  0.00  0.00    +0.000 A 
ATOM     14  C   UNL     1      62.159  64.354  71.482  0.00  0.00    +0.000 A 
ATOM     15  S   UNL     1      62.539  64.113  70.790  0.00  0.00    +0.000 S 
ATOM     16  C   UNL     1      63.182  64.540  70.502  0.00  0.00    +0.000 A 
ATOM     17  C   UNL     1      63.561  64.300  69.811  0.00  0.00    +0.000 A 
ATOM     18  C   UNL     1      64.206  64.727  69.522  0.00  0.00    +0.000 A 
ATOM     19  C   UNL     1      64.471  65.395  69.926  0.00  0.00    +0.000 A 
ATOM     20  C   UNL     1      64.091  65.637  70.619  0.00  0.00    +0.000 A 
ATOM     21  C   UNL     1      63.447  65.209  70.906  0.00  0.00    +0.000 A 
ATOM     22  C   UNL     1      64.356  66.305  71.022  0.00  0.00    +0.000 C 
ENDROOT
TORSDOF 0
ENDMDL
