MODEL 1
REMARK VINA RESULT:    -9.377      0.000      0.000
REMARK INTER + INTRA:          -9.377
REMARK INTER:                  -9.377
REMARK INTRA:                   0.000
REMARK UNBOUND:                 0.000
ROOT
REMARK  Name = pentoxifylline
REMARK                            x       y       z     vdW  Elec       q    Type
REMARK                         _______ _______ _______ _____ _____    ______ ____
ATOM      1  C   UNL     1      62.531  64.693  69.111  0.00  0.00    +0.000 C 
ATOM      2  N   UNL     1      62.011  64.230  69.555  0.00  0.00    +0.000 N 
ATOM      3  C   UNL     1      61.821  64.343  70.349  0.00  0.00    +0.000 A 
ATOM      4  N   UNL     1      61.283  63.757  70.568  0.00  0.00    +0.000 NA
ATOM      5  C   UNL     1      61.141  63.282  69.909  0.00  0.00    +0.000 A 
ATOM      6  C   UNL     1      61.591  63.574  69.283  0.00  0.00    +0.000 A 
ATOM      7  C   UNL     1      61.561  63.206  68.545  0.00  0.00    +0.000 A 
ATOM      8  O   UNL     1      62.011  63.499  67.918  0.00  0.00    +0.000 OA
ATOM      9  N   UNL     1      61.080  62.545  68.434  0.00  0.00    +0.000 N 
ATOM     10  C   UNL     1      61.049  62.176  67.696  0.00  0.00    +0.000 C 
ATOM     11  C   UNL     1      61.500  62.470  67.070  0.00  0.00    +0.000 C 
ATOM     12  C   UNL     1      61.469  62.101  66.333  0.00  0.00    +0.000 C 
ATOM     13  C   UNL     1      61.919  62.394  65.706  0.00  0.00    +0.000 C 
ATOM     14  C   UNL     1      61.888  62.025  64.969  0.00  0.00    +0.000 C 
ATOM     15  C   UNL     1      62.339  62.318  64.342  0.00  0.00    +0.000 C 
ATOM     16  O   UNL     1      61.408  61.365  64.858  0.00  0.00    +0.000 OA
ATOM     17  C   UNL     1      60.629  62.252  69.060  0.00  0.00    +0.000 A 
ATOM     18  O   UNL     1      60.149  61.592  68.949  0.00  0.00    +0.000 OA
ATOM     19  N   UNL     1      60.660  62.621  69.797  0.00  0.00    +0.000 N 
ATOM     20  C   UNL     1      60.210  62.328  70.423  0.00  0.00    +0.000 C 
ENDROOT
TORSDOF 0
ENDMDL
MODEL 2
REMARK VINA RESULT:    -9.113      1.163      1.987
REMARK INTER + INTRA:          -9.113
REMARK INTER:                  -9.113
REMARK INTRA:                   0.000
REMARK UNBOUND:                 0.000
ROOT
REMARK  Name = pentoxifylline
REMARK                            x       y       z     vdW  Elec       q    Type
REMARK                         _______ _______ _______ _____ _____    ______ ____
ATOM      1  C   UNL     1      60.501  61.592  70.532  0.00  0.00    +0.000 C 
ATOM      2  N   UNL     1      60.393  62.404  70.643  0.00  0.00    +0.000 N 
ATOM      3  C   UNL     1      60.156  62.769  71.343  0.00  0.00    +0.000 A 
ATOM      4  N   UNL     1      60.120  63.582  71.207  0.00  0.00    +0.000 NA
ATOM      5  C   UNL     1      60.335  63.718  70.422  0.00  0.00    +0.000 A 
ATOM      6  C   UNL     1      60.504  62.990  70.074  0.00  0.00    +0.000 A 
ATOM      7  C   UNL     1      60.737  62.955  69.283  0.00  0.00    +0.000 A 
ATOM      8  O   UNL     1      60.907  62.226  68.934  0.00  0.00    +0.000 OA
ATOM      9  N   UNL     1      60.801  63.648  68.841  0.00  0.00    +0.000 N 
ATOM     10  C   UNL     1      61.034  63.613  68.049  0.00  0.00    +0.000 C 
ATOM     11  C   UNL     1      61.203  62.884  67.702  0.00  0.00    +0.000 C 
ATOM     12  C   UNL     1      61.436  62.850  66.911  0.00  0.00    +0.000 C 
ATOM     13  C   UNL     1      61.605  62.120  66.563  0.00  0.00    +0.000 C 
ATOM     14  C   UNL     1      61.838  62.086  65.773  0.00  0.00    +0.000 C 
ATOM     15  C   UNL     1      62.008  61.357  65.424  0.00  0.00    +0.000 C 
ATOM     16  O   UNL     1      61.902  62.778  65.331  0.00  0.00    +0.000 OA
ATOM     17  C   UNL     1      60.632  64.377  69.189  0.00  0.00    +0.000 A 
ATOM     18  O   UNL     1      60.696  65.070  68.747  0.00  0.00    +0.000 OA
ATOM     19  N   UNL     1      60.399  64.412  69.980  0.00  0.00    +0.000 N 
ATOM     20  C   UNL     1      60.230  65.140  70.327  0.00  0.00    +0.000 C 
ENDROOT
TORSDOF 0
ENDMDL
MODEL 3
REMARK VINA RESULT:    -8.964      1.716      4.057
REMARK INTER + INTRA:          -8.964
REMARK INTER:                  -8.964
REMARK INTRA:                   0.000
REMARK UNBOUND:                 0.000
ROOT
REMARK  Name = pentoxifylline
REMARK                            x       y       z     vdW  Elec       q    Type
REMARK                         _______ _______ _______ _____ _____    ______ ____
ATOM      1  C   UNL     1      62.452  62.127  65.346  0.00  0.00    +0.000 C 
ATOM      2  N   UNL     1      61.638  62.005  65.399  0.00  0.00    +0.000 N 
ATOM      3  C   UNL     1      61.169  61.622  64.840  0.00  0.00    +0.000 A 
ATOM      4  N   UNL     1      60.390  61.625  65.115  0.00  0.00    +0.000 NA
ATOM      5  C   UNL     1      60.379  62.010  65.844  0.00  0.00    +0.000 A 
ATOM      6  C   UNL     1      61.150  62.246  66.020  0.00  0.00    +0.000 A 
ATOM      7  C   UNL     1      61.309  62.648  66.722  0.00  0.00    +0.000 A 
ATOM      8  O   UNL     1      62.080  62.884  66.898  0.00  0.00    +0.000 OA
ATOM      9  N   UNL     1      60.697  62.816  67.249  0.00  0.00    +0.000 N 
ATOM     10  C   UNL     1      60.856  63.219  67.952  0.00  0.00    +0.000 C 
ATOM     11  C   UNL     1      61.627  63.454  68.127  0.00  0.00    +0.000 C 
ATOM     12  C   UNL     1      61.785  63.856  68.829  0.00  0.00    +0.000 C 
ATOM     13  C   UNL     1      62.557  64.091  69.005  0.00  0.00    +0.000 C 
ATOM     14  C   UNL     1      62.715  64.494  69.707  0.00  0.00    +0.000 C 
ATOM     15  C   UNL     1      63.487  64.729  69.883  0.00  0.00    +0.000 C 
ATOM     16  O   UNL     1      62.103  64.661  70.234  0.00  0.00    +0.000 OA
ATOM     17  C   UNL     1      59.925  62.580  67.074  0.00  0.00    +0.000 A 
ATOM     18  O   UNL     1      59.314  62.748  67.600  0.00  0.00    +0.000 OA
ATOM     19  N   UNL     1      59.767  62.178  66.371  0.00  0.00    +0.000 N 
ATOM     20  C   UNL     1      58.996  61.943  66.196  0.00  0.00    +0.000 C 
ENDROOT
TORSDOF 0
ENDMDL
MODEL 4
REMARK VINA RESULT:    -8.761      1.885      3.914
REMARK INTER + INTRA:          -8.761
REMARK INTER:                  -8.761
REMARK INTRA:                   0.000
REMARK UNBOUND:                 0.000
ROOT
REMARK  Name = pentoxifylline
REMARK                            x       y       z     vdW  Elec       q    Type
REMARK                         _______ _______ _______ _____ _____    ______ ____
ATOM      1  C   UNL     1      61.241  63.379  67.526  0.00  0.00    +0.000 C 
ATOM      2  N   UNL     1      60.952  62.948  68.168  0.00  0.00    +0.000 N 
ATOM      3  C   UNL     1      60.341  62.395  68.143  0.00  0.00    +0.000 A 
ATOM      4  N   UNL     1      60.234  62.100  68.907  0.00  0.00    +0.000 NA
ATOM      5  C   UNL     1      60.779  62.471  69.402  0.00  0.00    +0.000 A 
ATOM      6  C   UNL     1      61.222  62.995  68.946  0.00  0.00    +0.000 A 
ATOM      7  C   UNL     1      61.816  63.448  69.296  0.00  0.00    +0.000 A 
ATOM      8  O   UNL     1      62.261  63.973  68.840  0.00  0.00    +0.000 OA
ATOM      9  N   UNL     1      61.966  63.376  70.105  0.00  0.00    +0.000 N 
ATOM     10  C   UNL     1      62.560  63.829  70.456  0.00  0.00    +0.000 C 
ATOM     11  C   UNL     1      63.004  64.353  69.999  0.00  0.00    +0.000 C 
ATOM     12  C   UNL     1      63.597  64.805  70.351  0.00  0.00    +0.000 C 
ATOM     13  C   UNL     1      64.041  65.330  69.893  0.00  0.00    +0.000 C 
ATOM     14  C   UNL     1      64.634  65.782  70.245  0.00  0.00    +0.000 C 
ATOM     15  C   UNL     1      65.078  66.307  69.788  0.00  0.00    +0.000 C 
ATOM     16  O   UNL     1      64.784  65.711  71.052  0.00  0.00    +0.000 OA
ATOM     17  C   UNL     1      61.522  62.851  70.562  0.00  0.00    +0.000 A 
ATOM     18  O   UNL     1      61.672  62.779  71.369  0.00  0.00    +0.000 OA
ATOM     19  N   UNL     1      60.929  62.399  70.210  0.00  0.00    +0.000 N 
ATOM     20  C   UNL     1      60.486  61.875  70.667  0.00  0.00    +0.000 C 
ENDROOT
TORSDOF 0
ENDMDL
MODEL 5
REMARK VINA RESULT:    -8.543      2.404      4.434
REMARK INTER + INTRA:          -8.543
REMARK INTER:                  -8.543
REMARK INTRA:                   0.000
REMARK UNBOUND:                 0.000
ROOT
REMARK  Name = pentoxifylline
REMARK                            x       y       z     vdW  Elec       q    Type
REMARK                         _______ _______ _______ _____ _____    ______ ____
ATOM      1  C   UNL     1      61.623  63.648  72.565  0.00  0.00    +0.000 C 
ATOM      2  N   UNL     1      61.337  63.379  71.839  0.00  0.00    +0.000 N 
ATOM      3  C   UNL     1      60.703  62.863  71.730  0.00  0.00    +0.000 A 
ATOM      4  N   UNL     1      60.608  62.744  70.918  0.00  0.00    +0.000 NA
ATOM      5  C   UNL     1      61.184  63.186  70.527  0.00  0.00    +0.000 A 
ATOM      6  C   UNL     1      61.634  63.578  71.096  0.00  0.00    +0.000 A 
ATOM      7  C   UNL     1      62.258  64.067  70.864  0.00  0.00    +0.000 A 
ATOM      8  O   UNL     1      62.709  64.460  71.433  0.00  0.00    +0.000 OA
ATOM      9  N   UNL     1      62.431  64.163  70.064  0.00  0.00    +0.000 N 
ATOM     10  C   UNL     1      63.055  64.651  69.831  0.00  0.00    +0.000 C 
ATOM     11  C   UNL     1      63.504  65.043  70.401  0.00  0.00    +0.000 C 
ATOM     12  C   UNL     1      64.127  65.532  70.169  0.00  0.00    +0.000 C 
ATOM     13  C   UNL     1      64.578  65.924  70.738  0.00  0.00    +0.000 C 
ATOM     14  C   UNL     1      65.201  66.412  70.506  0.00  0.00    +0.000 C 
ATOM     15  C   UNL     1      65.651  66.805  71.076  0.00  0.00    +0.000 C 
ATOM     16  O   UNL     1      65.374  66.508  69.706  0.00  0.00    +0.000 OA
ATOM     17  C   UNL     1      61.980  63.770  69.494  0.00  0.00    +0.000 A 
ATOM     18  O   UNL     1      62.153  63.866  68.694  0.00  0.00    +0.000 OA
ATOM     19  N   UNL     1      61.357  63.282  69.726  0.00  0.00    +0.000 N 
ATOM     20  C   UNL     1      60.908  62.890  69.157  0.00  0.00    +0.000 C 
ENDROOT
TORSDOF 0
ENDMDL
MODEL 6
REMARK VINA RESULT:    -8.537      2.908      5.082
REMARK INTER + INTRA:          -8.537
REMARK INTER:                  -8.537
REMARK INTRA:                   0.000
REMARK UNBOUND:                 0.000
ROOT
REMARK  Name = pentoxifylline
REMARK                            x       y       z     vdW  Elec       q    Type
REMARK                         _______ _______ _______ _____ _____    ______ ____
ATOM      1  C   UNL     1      62.294  63.890  69.023  0.00  0.00    +0.000 C 
ATOM      2  N   UNL     1      61.924  63.840  69.759  0.00  0.00    +0.000 N 
ATOM      3  C   UNL     1      61.282  63.358  69.946  0.00  0.00    +0.000 A 
ATOM      4  N   UNL     1      61.092  63.483  70.740  0.00  0.00    +0.000 NA
ATOM      5  C   UNL     1      61.618  64.042  71.042  0.00  0.00    +0.000 A 
ATOM      6  C   UNL     1      62.132  64.263  70.437  0.00  0.00    +0.000 A 
ATOM      7  C   UNL     1      62.723  64.820  70.579  0.00  0.00    +0.000 A 
ATOM      8  O   UNL     1      63.238  65.042  69.973  0.00  0.00    +0.000 OA
ATOM      9  N   UNL     1      62.800  65.157  71.328  0.00  0.00    +0.000 N 
ATOM     10  C   UNL     1      63.391  65.715  71.472  0.00  0.00    +0.000 C 
ATOM     11  C   UNL     1      63.905  65.936  70.865  0.00  0.00    +0.000 C 
ATOM     12  C   UNL     1      64.496  66.493  71.009  0.00  0.00    +0.000 C 
ATOM     13  C   UNL     1      65.010  66.714  70.402  0.00  0.00    +0.000 C 
ATOM     14  C   UNL     1      65.601  67.271  70.546  0.00  0.00    +0.000 C 
ATOM     15  C   UNL     1      66.116  67.492  69.939  0.00  0.00    +0.000 C 
ATOM     16  O   UNL     1      65.678  67.608  71.294  0.00  0.00    +0.000 OA
ATOM     17  C   UNL     1      62.285  64.936  71.935  0.00  0.00    +0.000 A 
ATOM     18  O   UNL     1      62.362  65.273  72.683  0.00  0.00    +0.000 OA
ATOM     19  N   UNL     1      61.694  64.379  71.791  0.00  0.00    +0.000 N 
ATOM     20  C   UNL     1      61.180  64.158  72.398  0.00  0.00    +0.000 C 
ENDROOT
TORSDOF 0
ENDMDL
MODEL 7
REMARK VINA RESULT:    -8.377      4.058      5.379
REMARK INTER + INTRA:          -8.377
REMARK INTER:                  -8.377
REMARK INTRA:                   0.000
REMARK UNBOUND:                 0.000
ROOT
REMARK  Name = pentoxifylline
REMARK                            x       y       z     vdW  Elec       q    Type
REMARK                         _______ _______ _______ _____ _____    ______ ____
ATOM      1  C   UNL     1      64.469  65.711  71.096  0.00  0.00    +0.000 C 
ATOM      2  N   UNL     1      64.117  66.318  71.531  0.00  0.00    +0.000 N 
ATOM      3  C   UNL     1      64.470  67.036  71.732  0.00  0.00    +0.000 A 
ATOM      4  N   UNL     1      63.922  67.476  72.166  0.00  0.00    +0.000 NA
ATOM      5  C   UNL     1      63.233  67.028  72.234  0.00  0.00    +0.000 A 
ATOM      6  C   UNL     1      63.353  66.314  71.841  0.00  0.00    +0.000 A 
ATOM      7  C   UNL     1      62.751  65.749  71.816  0.00  0.00    +0.000 A 
ATOM      8  O   UNL     1      62.871  65.034  71.423  0.00  0.00    +0.000 OA
ATOM      9  N   UNL     1      62.029  65.901  72.185  0.00  0.00    +0.000 N 
ATOM     10  C   UNL     1      61.426  65.337  72.160  0.00  0.00    +0.000 C 
ATOM     11  C   UNL     1      61.547  64.622  71.767  0.00  0.00    +0.000 C 
ATOM     12  C   UNL     1      60.945  64.059  71.743  0.00  0.00    +0.000 C 
ATOM     13  C   UNL     1      61.066  63.343  71.349  0.00  0.00    +0.000 C 
ATOM     14  C   UNL     1      60.464  62.780  71.325  0.00  0.00    +0.000 C 
ATOM     15  C   UNL     1      60.585  62.064  70.932  0.00  0.00    +0.000 C 
ATOM     16  O   UNL     1      59.742  62.931  71.693  0.00  0.00    +0.000 OA
ATOM     17  C   UNL     1      61.908  66.617  72.578  0.00  0.00    +0.000 A 
ATOM     18  O   UNL     1      61.186  66.768  72.946  0.00  0.00    +0.000 OA
ATOM     19  N   UNL     1      62.510  67.180  72.602  0.00  0.00    +0.000 N 
ATOM     20  C   UNL     1      62.389  67.895  72.995  0.00  0.00    +0.000 C 
ENDROOT
TORSDOF 0
ENDMDL
MODEL 8
REMARK VINA RESULT:    -8.263      2.593      4.831
REMARK INTER + INTRA:          -8.263
REMARK INTER:                  -8.263
REMARK INTRA:                   0.000
REMARK UNBOUND:                 0.000
ROOT
REMARK  Name = pentoxifylline
REMARK                            x       y       z     vdW  Elec       q    Type
REMARK                         _______ _______ _______ _____ _____    ______ ____
ATOM      1  C   UNL     1      60.437  63.875  68.107  0.00  0.00    +0.000 C 
ATOM      2  N   UNL     1      60.526  63.228  68.613  0.00  0.00    +0.000 N 
ATOM      3  C   UNL     1      60.743  62.465  68.388  0.00  0.00    +0.000 A 
ATOM      4  N   UNL     1      60.764  61.996  69.067  0.00  0.00    +0.000 NA
ATOM      5  C   UNL     1      60.560  62.470  69.711  0.00  0.00    +0.000 A 
ATOM      6  C   UNL     1      60.413  63.231  69.430  0.00  0.00    +0.000 A 
ATOM      7  C   UNL     1      60.195  63.830  69.954  0.00  0.00    +0.000 A 
ATOM      8  O   UNL     1      60.047  64.592  69.674  0.00  0.00    +0.000 OA
ATOM      9  N   UNL     1      60.124  63.667  70.760  0.00  0.00    +0.000 N 
ATOM     10  C   UNL     1      59.906  64.265  71.285  0.00  0.00    +0.000 C 
ATOM     11  C   UNL     1      59.759  65.027  71.004  0.00  0.00    +0.000 C 
ATOM     12  C   UNL     1      59.541  65.624  71.529  0.00  0.00    +0.000 C 
ATOM     13  C   UNL     1      59.393  66.386  71.247  0.00  0.00    +0.000 C 
ATOM     14  C   UNL     1      59.176  66.984  71.772  0.00  0.00    +0.000 C 
ATOM     15  C   UNL     1      59.028  67.746  71.491  0.00  0.00    +0.000 C 
ATOM     16  O   UNL     1      59.105  66.821  72.577  0.00  0.00    +0.000 OA
ATOM     17  C   UNL     1      60.272  62.905  71.041  0.00  0.00    +0.000 A 
ATOM     18  O   UNL     1      60.201  62.741  71.846  0.00  0.00    +0.000 OA
ATOM     19  N   UNL     1      60.490  62.307  70.516  0.00  0.00    +0.000 N 
ATOM     20  C   UNL     1      60.637  61.546  70.798  0.00  0.00    +0.000 C 
ENDROOT
TORSDOF 0
ENDMDL
MODEL 9
REMARK VINA RESULT:    -8.201      4.470      5.264
REMARK INTER + INTRA:          -8.201
REMARK INTER:                  -8.201
REMARK INTRA:                   0.000
REMARK UNBOUND:                 0.000
ROOT
REMARK  Name = pentoxifylline
REMARK                            x       y       z     vdW  Elec       q    Type
REMARK                         _______ _______ _______ _____ _____    ______ ____
ATOM      1  C   UNL     1      60.729  66.888  73.027  0.00  0.00    +0.000 C 
ATOM      2  N   UNL     1      60.569  66.083  72.934  0.00  0.00    +0.000 N 
ATOM      3  C   UNL     1      59.894  65.691  73.198  0.00  0.00    +0.000 A 
ATOM      4  N   UNL     1      59.963  64.895  72.989  0.00  0.00    +0.000 NA
ATOM      5  C   UNL     1      60.681  64.797  72.596  0.00  0.00    +0.000 A 
ATOM      6  C   UNL     1      61.056  65.531  72.562  0.00  0.00    +0.000 A 
ATOM      7  C   UNL     1      61.792  65.602  72.196  0.00  0.00    +0.000 A 
ATOM      8  O   UNL     1      62.168  66.336  72.162  0.00  0.00    +0.000 OA
ATOM      9  N   UNL     1      62.154  64.939  71.865  0.00  0.00    +0.000 N 
ATOM     10  C   UNL     1      62.891  65.010  71.499  0.00  0.00    +0.000 C 
ATOM     11  C   UNL     1      63.265  65.744  71.465  0.00  0.00    +0.000 C 
ATOM     12  C   UNL     1      64.001  65.815  71.099  0.00  0.00    +0.000 C 
ATOM     13  C   UNL     1      64.375  66.550  71.066  0.00  0.00    +0.000 C 
ATOM     14  C   UNL     1      65.111  66.620  70.700  0.00  0.00    +0.000 C 
ATOM     15  C   UNL     1      65.486  67.355  70.666  0.00  0.00    +0.000 C 
ATOM     16  O   UNL     1      65.472  65.958  70.369  0.00  0.00    +0.000 OA
ATOM     17  C   UNL     1      61.779  64.204  71.898  0.00  0.00    +0.000 A 
ATOM     18  O   UNL     1      62.140  63.542  71.567  0.00  0.00    +0.000 OA
ATOM     19  N   UNL     1      61.043  64.134  72.264  0.00  0.00    +0.000 N 
ATOM     20  C   UNL     1      60.669  63.399  72.298  0.00  0.00    +0.000 C 
ENDROOT
TORSDOF 0
ENDMDL
