MODEL 1
REMARK VINA RESULT:   -12.353      0.000      0.000
REMARK INTER + INTRA:         -12.353
REMARK INTER:                 -12.353
REMARK INTRA:                   0.000
REMARK UNBOUND:                 0.000
ROOT
REMARK  Name = pentazocine
REMARK                            x       y       z     vdW  Elec       q    Type
REMARK                         _______ _______ _______ _____ _____    ______ ____
ATOM      1  C   UNL     1      61.266  61.691  64.863  0.00  0.00    +0.000 C 
ATOM      2  C   UNL     1      60.879  61.894  65.563  0.00  0.00    +0.000 C 
ATOM      3  C   UNL     1      59.891  61.775  66.057  0.00  0.00    +0.000 C 
ATOM      4  C   UNL     1      60.107  61.488  65.314  0.00  0.00    +0.000 C 
ATOM      5  C   UNL     1      60.792  61.514  64.855  0.00  0.00    +0.000 A 
ATOM      6  C   UNL     1      60.603  61.104  64.165  0.00  0.00    +0.000 A 
ATOM      7  C   UNL     1      61.166  61.017  63.569  0.00  0.00    +0.000 A 
ATOM      8  C   UNL     1      61.920  61.340  63.663  0.00  0.00    +0.000 A 
ATOM      9  O   UNL     1      62.484  61.253  63.068  0.00  0.00    +0.000 OA
ATOM     10  C   UNL     1      62.110  61.750  64.354  0.00  0.00    +0.000 A 
ATOM     11  C   UNL     1      61.546  61.836  64.950  0.00  0.00    +0.000 A 
ATOM     12  C   UNL     1      61.926  62.268  65.542  0.00  0.00    +0.000 C 
ATOM     13  C   UNL     1      62.704  62.456  65.345  0.00  0.00    +0.000 C 
ATOM     14  C   UNL     1      61.710  62.554  66.285  0.00  0.00    +0.000 C 
ATOM     15  C   UNL     1      61.024  62.529  66.743  0.00  0.00    +0.000 C 
ATOM     16  N   UNL     1      60.270  62.206  66.649  0.00  0.00    +0.000 NA
ATOM     17  C   UNL     1      59.783  62.347  67.299  0.00  0.00    +0.000 C 
ATOM     18  C   UNL     1      60.070  62.771  67.946  0.00  0.00    +0.000 C 
ATOM     19  C   UNL     1      60.845  63.054  67.942  0.00  0.00    +0.000 C 
ATOM     20  C   UNL     1      61.132  63.478  68.589  0.00  0.00    +0.000 C 
ATOM     21  C   UNL     1      61.333  62.913  67.293  0.00  0.00    +0.000 C 
ENDROOT
TORSDOF 0
ENDMDL
MODEL 2
REMARK VINA RESULT:   -11.756      1.514      3.681
REMARK INTER + INTRA:         -11.756
REMARK INTER:                 -11.756
REMARK INTRA:                   0.000
REMARK UNBOUND:                 0.000
ROOT
REMARK  Name = pentazocine
REMARK                            x       y       z     vdW  Elec       q    Type
REMARK                         _______ _______ _______ _____ _____    ______ ____
ATOM      1  C   UNL     1      60.902  62.537  66.578  0.00  0.00    +0.000 C 
ATOM      2  C   UNL     1      61.272  62.281  65.887  0.00  0.00    +0.000 C 
ATOM      3  C   UNL     1      62.260  62.331  65.379  0.00  0.00    +0.000 C 
ATOM      4  C   UNL     1      62.064  62.666  66.107  0.00  0.00    +0.000 C 
ATOM      5  C   UNL     1      61.382  62.695  66.572  0.00  0.00    +0.000 A 
ATOM      6  C   UNL     1      61.596  63.132  67.238  0.00  0.00    +0.000 A 
ATOM      7  C   UNL     1      61.043  63.275  67.833  0.00  0.00    +0.000 A 
ATOM      8  C   UNL     1      60.276  62.980  67.762  0.00  0.00    +0.000 A 
ATOM      9  O   UNL     1      59.722  63.122  68.357  0.00  0.00    +0.000 OA
ATOM     10  C   UNL     1      60.061  62.542  67.096  0.00  0.00    +0.000 A 
ATOM     11  C   UNL     1      60.615  62.399  66.501  0.00  0.00    +0.000 A 
ATOM     12  C   UNL     1      60.211  61.954  65.936  0.00  0.00    +0.000 C 
ATOM     13  C   UNL     1      59.427  61.809  66.149  0.00  0.00    +0.000 C 
ATOM     14  C   UNL     1      60.407  61.619  65.208  0.00  0.00    +0.000 C 
ATOM     15  C   UNL     1      61.089  61.590  64.744  0.00  0.00    +0.000 C 
ATOM     16  N   UNL     1      61.856  61.885  64.814  0.00  0.00    +0.000 NA
ATOM     17  C   UNL     1      62.330  61.689  64.169  0.00  0.00    +0.000 C 
ATOM     18  C   UNL     1      62.019  61.243  63.549  0.00  0.00    +0.000 C 
ATOM     19  C   UNL     1      61.233  60.995  63.574  0.00  0.00    +0.000 C 
ATOM     20  C   UNL     1      60.921  60.549  62.953  0.00  0.00    +0.000 C 
ATOM     21  C   UNL     1      60.758  61.191  64.219  0.00  0.00    +0.000 C 
ENDROOT
TORSDOF 0
ENDMDL
MODEL 3
REMARK VINA RESULT:   -11.137      5.481      6.589
REMARK INTER + INTRA:         -11.137
REMARK INTER:                 -11.137
REMARK INTRA:                   0.000
REMARK UNBOUND:                 0.000
ROOT
REMARK  Name = pentazocine
REMARK                            x       y       z     vdW  Elec       q    Type
REMARK                         _______ _______ _______ _____ _____    ______ ____
ATOM      1  C   UNL     1      60.913  62.681  71.633  0.00  0.00    +0.000 C 
ATOM      2  C   UNL     1      60.508  63.400  71.614  0.00  0.00    +0.000 C 
ATOM      3  C   UNL     1      59.793  63.958  70.972  0.00  0.00    +0.000 C 
ATOM      4  C   UNL     1      60.106  63.210  70.822  0.00  0.00    +0.000 C 
ATOM      5  C   UNL     1      60.631  62.708  71.214  0.00  0.00    +0.000 A 
ATOM      6  C   UNL     1      60.688  62.041  70.733  0.00  0.00    +0.000 A 
ATOM      7  C   UNL     1      61.173  61.412  70.955  0.00  0.00    +0.000 A 
ATOM      8  C   UNL     1      61.602  61.450  71.658  0.00  0.00    +0.000 A 
ATOM      9  O   UNL     1      62.088  60.821  71.881  0.00  0.00    +0.000 OA
ATOM     10  C   UNL     1      61.546  62.117  72.141  0.00  0.00    +0.000 A 
ATOM     11  C   UNL     1      61.060  62.746  71.918  0.00  0.00    +0.000 A 
ATOM     12  C   UNL     1      61.141  63.303  72.522  0.00  0.00    +0.000 C 
ATOM     13  C   UNL     1      61.657  63.052  73.115  0.00  0.00    +0.000 C 
ATOM     14  C   UNL     1      60.828  64.051  72.672  0.00  0.00    +0.000 C 
ATOM     15  C   UNL     1      60.303  64.553  72.280  0.00  0.00    +0.000 C 
ATOM     16  N   UNL     1      59.875  64.515  71.576  0.00  0.00    +0.000 NA
ATOM     17  C   UNL     1      59.422  65.191  71.445  0.00  0.00    +0.000 C 
ATOM     18  C   UNL     1      59.434  65.808  71.992  0.00  0.00    +0.000 C 
ATOM     19  C   UNL     1      59.900  65.749  72.670  0.00  0.00    +0.000 C 
ATOM     20  C   UNL     1      59.912  66.366  73.217  0.00  0.00    +0.000 C 
ATOM     21  C   UNL     1      60.353  65.073  72.802  0.00  0.00    +0.000 C 
ENDROOT
TORSDOF 0
ENDMDL
MODEL 4
REMARK VINA RESULT:   -11.111      3.302      5.787
REMARK INTER + INTRA:         -11.111
REMARK INTER:                 -11.111
REMARK INTRA:                   0.000
REMARK UNBOUND:                 0.000
ROOT
REMARK  Name = pentazocine
REMARK                            x       y       z     vdW  Elec       q    Type
REMARK                         _______ _______ _______ _____ _____    ______ ____
ATOM      1  C   UNL     1      60.987  63.015  71.203  0.00  0.00    +0.000 C 
ATOM      2  C   UNL     1      60.754  63.172  70.427  0.00  0.00    +0.000 C 
ATOM      3  C   UNL     1      60.451  64.026  69.785  0.00  0.00    +0.000 C 
ATOM      4  C   UNL     1      60.661  64.062  70.582  0.00  0.00    +0.000 C 
ATOM      5  C   UNL     1      60.898  63.509  71.147  0.00  0.00    +0.000 A 
ATOM      6  C   UNL     1      61.018  63.947  71.836  0.00  0.00    +0.000 A 
ATOM      7  C   UNL     1      61.261  63.570  72.528  0.00  0.00    +0.000 A 
ATOM      8  C   UNL     1      61.386  62.754  72.531  0.00  0.00    +0.000 A 
ATOM      9  O   UNL     1      61.630  62.377  73.222  0.00  0.00    +0.000 OA
ATOM     10  C   UNL     1      61.266  62.316  71.842  0.00  0.00    +0.000 A 
ATOM     11  C   UNL     1      61.022  62.694  71.151  0.00  0.00    +0.000 A 
ATOM     12  C   UNL     1      60.961  62.092  70.589  0.00  0.00    +0.000 C 
ATOM     13  C   UNL     1      61.156  61.352  70.896  0.00  0.00    +0.000 C 
ATOM     14  C   UNL     1      60.751  62.057  69.792  0.00  0.00    +0.000 C 
ATOM     15  C   UNL     1      60.514  62.609  69.226  0.00  0.00    +0.000 C 
ATOM     16  N   UNL     1      60.390  63.425  69.223  0.00  0.00    +0.000 NA
ATOM     17  C   UNL     1      60.149  63.704  68.486  0.00  0.00    +0.000 C 
ATOM     18  C   UNL     1      60.058  63.180  67.855  0.00  0.00    +0.000 C 
ATOM     19  C   UNL     1      60.208  62.377  67.962  0.00  0.00    +0.000 C 
ATOM     20  C   UNL     1      60.117  61.852  67.332  0.00  0.00    +0.000 C 
ATOM     21  C   UNL     1      60.450  62.096  68.699  0.00  0.00    +0.000 C 
ENDROOT
TORSDOF 0
ENDMDL
MODEL 5
REMARK VINA RESULT:   -10.978      5.806      7.376
REMARK INTER + INTRA:         -10.978
REMARK INTER:                 -10.978
REMARK INTRA:                   0.000
REMARK UNBOUND:                 0.000
ROOT
REMARK  Name = pentazocine
REMARK                            x       y       z     vdW  Elec       q    Type
REMARK                         _______ _______ _______ _____ _____    ______ ____
ATOM      1  C   UNL     1      63.368  65.083  70.951  0.00  0.00    +0.000 C 
ATOM      2  C   UNL     1      63.851  65.740  71.076  0.00  0.00    +0.000 C 
ATOM      3  C   UNL     1      64.006  66.555  71.816  0.00  0.00    +0.000 C 
ATOM      4  C   UNL     1      63.444  65.952  71.860  0.00  0.00    +0.000 C 
ATOM      5  C   UNL     1      63.240  65.310  71.384  0.00  0.00    +0.000 A 
ATOM      6  C   UNL     1      62.617  64.941  71.780  0.00  0.00    +0.000 A 
ATOM      7  C   UNL     1      62.267  64.266  71.460  0.00  0.00    +0.000 A 
ATOM      8  C   UNL     1      62.539  63.960  70.744  0.00  0.00    +0.000 A 
ATOM      9  O   UNL     1      62.189  63.285  70.423  0.00  0.00    +0.000 OA
ATOM     10  C   UNL     1      63.162  64.328  70.348  0.00  0.00    +0.000 A 
ATOM     11  C   UNL     1      63.512  65.003  70.668  0.00  0.00    +0.000 A 
ATOM     12  C   UNL     1      64.103  65.213  70.131  0.00  0.00    +0.000 C 
ATOM     13  C   UNL     1      64.140  64.700  69.486  0.00  0.00    +0.000 C 
ATOM     14  C   UNL     1      64.665  65.816  70.087  0.00  0.00    +0.000 C 
ATOM     15  C   UNL     1      64.869  66.459  70.563  0.00  0.00    +0.000 C 
ATOM     16  N   UNL     1      64.596  66.765  71.279  0.00  0.00    +0.000 NA
ATOM     17  C   UNL     1      65.011  67.438  71.513  0.00  0.00    +0.000 C 
ATOM     18  C   UNL     1      65.623  67.730  71.042  0.00  0.00    +0.000 C 
ATOM     19  C   UNL     1      65.819  67.348  70.338  0.00  0.00    +0.000 C 
ATOM     20  C   UNL     1      66.431  67.640  69.868  0.00  0.00    +0.000 C 
ATOM     21  C   UNL     1      65.405  66.674  70.104  0.00  0.00    +0.000 C 
ENDROOT
TORSDOF 0
ENDMDL
MODEL 6
REMARK VINA RESULT:   -10.817      5.951      7.525
REMARK INTER + INTRA:         -10.817
REMARK INTER:                 -10.817
REMARK INTRA:                   0.000
REMARK UNBOUND:                 0.000
ROOT
REMARK  Name = pentazocine
REMARK                            x       y       z     vdW  Elec       q    Type
REMARK                         _______ _______ _______ _____ _____    ______ ____
ATOM      1  C   UNL     1      64.721  66.546  70.815  0.00  0.00    +0.000 C 
ATOM      2  C   UNL     1      64.100  66.128  71.161  0.00  0.00    +0.000 C 
ATOM      3  C   UNL     1      63.450  66.159  72.062  0.00  0.00    +0.000 C 
ATOM      4  C   UNL     1      64.051  66.691  71.872  0.00  0.00    +0.000 C 
ATOM      5  C   UNL     1      64.586  66.768  71.248  0.00  0.00    +0.000 A 
ATOM      6  C   UNL     1      65.030  67.440  71.429  0.00  0.00    +0.000 A 
ATOM      7  C   UNL     1      65.628  67.689  70.920  0.00  0.00    +0.000 A 
ATOM      8  C   UNL     1      65.783  67.266  70.228  0.00  0.00    +0.000 A 
ATOM      9  O   UNL     1      66.382  67.515  69.718  0.00  0.00    +0.000 OA
ATOM     10  C   UNL     1      65.340  66.594  70.047  0.00  0.00    +0.000 A 
ATOM     11  C   UNL     1      64.742  66.345  70.557  0.00  0.00    +0.000 A 
ATOM     12  C   UNL     1      64.426  65.670  70.203  0.00  0.00    +0.000 C 
ATOM     13  C   UNL     1      64.799  65.483  69.491  0.00  0.00    +0.000 C 
ATOM     14  C   UNL     1      63.824  65.139  70.393  0.00  0.00    +0.000 C 
ATOM     15  C   UNL     1      63.289  65.062  71.016  0.00  0.00    +0.000 C 
ATOM     16  N   UNL     1      63.134  65.484  71.708  0.00  0.00    +0.000 NA
ATOM     17  C   UNL     1      62.519  65.155  72.147  0.00  0.00    +0.000 C 
ATOM     18  C   UNL     1      62.137  64.476  71.877  0.00  0.00    +0.000 C 
ATOM     19  C   UNL     1      62.369  64.127  71.168  0.00  0.00    +0.000 C 
ATOM     20  C   UNL     1      61.986  63.447  70.898  0.00  0.00    +0.000 C 
ATOM     21  C   UNL     1      62.984  64.455  70.727  0.00  0.00    +0.000 C 
ENDROOT
TORSDOF 0
ENDMDL
MODEL 7
REMARK VINA RESULT:   -10.420      4.590      6.303
REMARK INTER + INTRA:         -10.420
REMARK INTER:                 -10.420
REMARK INTRA:                   0.000
REMARK UNBOUND:                 0.000
ROOT
REMARK  Name = pentazocine
REMARK                            x       y       z     vdW  Elec       q    Type
REMARK                         _______ _______ _______ _____ _____    ______ ____
ATOM      1  C   UNL     1      59.745  65.384  70.514  0.00  0.00    +0.000 C 
ATOM      2  C   UNL     1      59.976  64.650  70.218  0.00  0.00    +0.000 C 
ATOM      3  C   UNL     1      60.265  64.171  69.258  0.00  0.00    +0.000 C 
ATOM      4  C   UNL     1      60.054  64.961  69.369  0.00  0.00    +0.000 C 
ATOM      5  C   UNL     1      59.827  65.418  70.017  0.00  0.00    +0.000 A 
ATOM      6  C   UNL     1      59.700  66.174  69.711  0.00  0.00    +0.000 A 
ATOM      7  C   UNL     1      59.462  66.786  70.209  0.00  0.00    +0.000 A 
ATOM      8  C   UNL     1      59.351  66.643  71.014  0.00  0.00    +0.000 A 
ATOM      9  O   UNL     1      59.113  67.256  71.513  0.00  0.00    +0.000 OA
ATOM     10  C   UNL     1      59.477  65.888  71.321  0.00  0.00    +0.000 A 
ATOM     11  C   UNL     1      59.715  65.275  70.822  0.00  0.00    +0.000 A 
ATOM     12  C   UNL     1      59.786  64.615  71.312  0.00  0.00    +0.000 C 
ATOM     13  C   UNL     1      59.602  64.785  72.098  0.00  0.00    +0.000 C 
ATOM     14  C   UNL     1      59.996  63.825  71.201  0.00  0.00    +0.000 C 
ATOM     15  C   UNL     1      60.224  63.368  70.553  0.00  0.00    +0.000 C 
ATOM     16  N   UNL     1      60.335  63.511  69.748  0.00  0.00    +0.000 NA
ATOM     17  C   UNL     1      60.572  62.837  69.338  0.00  0.00    +0.000 C 
ATOM     18  C   UNL     1      60.671  62.123  69.739  0.00  0.00    +0.000 C 
ATOM     19  C   UNL     1      60.534  62.084  70.551  0.00  0.00    +0.000 C 
ATOM     20  C   UNL     1      60.633  61.370  70.953  0.00  0.00    +0.000 C 
ATOM     21  C   UNL     1      60.296  62.759  70.962  0.00  0.00    +0.000 C 
ENDROOT
TORSDOF 0
ENDMDL
MODEL 8
REMARK VINA RESULT:    -9.956     24.479     25.406
REMARK INTER + INTRA:          -9.956
REMARK INTER:                  -9.956
REMARK INTRA:                   0.000
REMARK UNBOUND:                 0.000
ROOT
REMARK  Name = pentazocine
REMARK                            x       y       z     vdW  Elec       q    Type
REMARK                         _______ _______ _______ _____ _____    ______ ____
ATOM      1  C   UNL     1      71.092  79.326  49.507  0.00  0.00    +0.000 C 
ATOM      2  C   UNL     1      70.522  79.551  50.059  0.00  0.00    +0.000 C 
ATOM      3  C   UNL     1      69.467  79.332  50.331  0.00  0.00    +0.000 C 
ATOM      4  C   UNL     1      69.896  78.991  49.714  0.00  0.00    +0.000 C 
ATOM      5  C   UNL     1      70.663  79.072  49.423  0.00  0.00    +0.000 A 
ATOM      6  C   UNL     1      70.706  78.551  48.785  0.00  0.00    +0.000 A 
ATOM      7  C   UNL     1      71.405  78.483  48.353  0.00  0.00    +0.000 A 
ATOM      8  C   UNL     1      72.063  78.938  48.559  0.00  0.00    +0.000 A 
ATOM      9  O   UNL     1      72.763  78.871  48.127  0.00  0.00    +0.000 OA
ATOM     10  C   UNL     1      72.021  79.460  49.197  0.00  0.00    +0.000 A 
ATOM     11  C   UNL     1      71.321  79.527  49.628  0.00  0.00    +0.000 A 
ATOM     12  C   UNL     1      71.482  80.089  50.211  0.00  0.00    +0.000 C 
ATOM     13  C   UNL     1      72.253  80.379  50.165  0.00  0.00    +0.000 C 
ATOM     14  C   UNL     1      71.054  80.429  50.828  0.00  0.00    +0.000 C 
ATOM     15  C   UNL     1      70.286  80.348  51.119  0.00  0.00    +0.000 C 
ATOM     16  N   UNL     1      69.628  79.894  50.914  0.00  0.00    +0.000 NA
ATOM     17  C   UNL     1      68.982  80.034  51.405  0.00  0.00    +0.000 C 
ATOM     18  C   UNL     1      69.042  80.580  52.020  0.00  0.00    +0.000 C 
ATOM     19  C   UNL     1      69.749  80.986  52.144  0.00  0.00    +0.000 C 
ATOM     20  C   UNL     1      69.809  81.533  52.759  0.00  0.00    +0.000 C 
ATOM     21  C   UNL     1      70.396  80.846  51.652  0.00  0.00    +0.000 C 
ENDROOT
TORSDOF 0
ENDMDL
MODEL 9
REMARK VINA RESULT:    -9.737     24.452     25.544
REMARK INTER + INTRA:          -9.737
REMARK INTER:                  -9.737
REMARK INTRA:                   0.000
REMARK UNBOUND:                 0.000
ROOT
REMARK  Name = pentazocine
REMARK                            x       y       z     vdW  Elec       q    Type
REMARK                         _______ _______ _______ _____ _____    ______ ____
ATOM      1  C   UNL     1      69.947  80.245  51.034  0.00  0.00    +0.000 C 
ATOM      2  C   UNL     1      70.241  79.775  50.423  0.00  0.00    +0.000 C 
ATOM      3  C   UNL     1      69.919  78.953  49.748  0.00  0.00    +0.000 C 
ATOM      4  C   UNL     1      69.462  79.319  50.330  0.00  0.00    +0.000 C 
ATOM      5  C   UNL     1      69.590  79.923  50.878  0.00  0.00    +0.000 A 
ATOM      6  C   UNL     1      68.877  79.995  51.286  0.00  0.00    +0.000 A 
ATOM      7  C   UNL     1      68.799  80.555  51.886  0.00  0.00    +0.000 A 
ATOM      8  C   UNL     1      69.436  81.044  52.079  0.00  0.00    +0.000 A 
ATOM      9  O   UNL     1      69.359  81.605  52.679  0.00  0.00    +0.000 OA
ATOM     10  C   UNL     1      70.150  80.972  51.671  0.00  0.00    +0.000 A 
ATOM     11  C   UNL     1      70.226  80.411  51.070  0.00  0.00    +0.000 A 
ATOM     12  C   UNL     1      70.999  80.498  50.794  0.00  0.00    +0.000 C 
ATOM     13  C   UNL     1      71.413  81.089  51.195  0.00  0.00    +0.000 C 
ATOM     14  C   UNL     1      71.456  80.133  50.212  0.00  0.00    +0.000 C 
ATOM     15  C   UNL     1      71.328  79.529  49.664  0.00  0.00    +0.000 C 
ATOM     16  N   UNL     1      70.691  79.040  49.472  0.00  0.00    +0.000 NA
ATOM     17  C   UNL     1      70.869  78.516  48.861  0.00  0.00    +0.000 C 
ATOM     18  C   UNL     1      71.619  78.524  48.516  0.00  0.00    +0.000 C 
ATOM     19  C   UNL     1      72.190  79.056  48.783  0.00  0.00    +0.000 C 
ATOM     20  C   UNL     1      72.939  79.063  48.438  0.00  0.00    +0.000 C 
ATOM     21  C   UNL     1      72.013  79.580  49.394  0.00  0.00    +0.000 C 
ENDROOT
TORSDOF 0
ENDMDL
