MODEL 1
REMARK VINA RESULT:    -9.088      0.000      0.000
REMARK INTER + INTRA:          -9.088
REMARK INTER:                  -9.088
REMARK INTRA:                   0.000
REMARK UNBOUND:                 0.000
ROOT
REMARK  Name = pentaerithrityl tetranitrate
REMARK                            x       y       z     vdW  Elec       q    Type
REMARK                         _______ _______ _______ _____ _____    ______ ____
ATOM      1  O   UNL     1      60.603  63.759  68.710  0.00  0.00    +0.000 OA
ATOM      2  N   UNL     1      61.225  63.626  68.183  0.00  0.00    +0.000 N 
ATOM      3  O   UNL     1      61.974  63.933  68.343  0.00  0.00    +0.000 OA
ATOM      4  O   UNL     1      61.098  63.186  67.498  0.00  0.00    +0.000 OA
ATOM      5  C   UNL     1      61.719  63.053  66.971  0.00  0.00    +0.000 C 
ATOM      6  C   UNL     1      61.592  62.613  66.285  0.00  0.00    +0.000 C 
ATOM      7  C   UNL     1      61.465  62.173  65.599  0.00  0.00    +0.000 C 
ATOM      8  O   UNL     1      60.716  61.865  65.439  0.00  0.00    +0.000 OA
ATOM      9  N   UNL     1      60.589  61.425  64.753  0.00  0.00    +0.000 N 
ATOM     10  O   UNL     1      61.210  61.293  64.227  0.00  0.00    +0.000 OA
ATOM     11  O   UNL     1      59.840  61.118  64.593  0.00  0.00    +0.000 OA
ATOM     12  C   UNL     1      60.800  62.512  66.497  0.00  0.00    +0.000 C 
ATOM     13  O   UNL     1      60.295  62.081  66.008  0.00  0.00    +0.000 OA
ATOM     14  N   UNL     1      59.504  61.981  66.220  0.00  0.00    +0.000 N 
ATOM     15  O   UNL     1      59.219  62.311  66.919  0.00  0.00    +0.000 OA
ATOM     16  O   UNL     1      58.998  61.549  65.731  0.00  0.00    +0.000 OA
ATOM     17  C   UNL     1      62.384  62.714  66.074  0.00  0.00    +0.000 C 
ATOM     18  O   UNL     1      62.669  62.383  65.375  0.00  0.00    +0.000 OA
ATOM     19  N   UNL     1      62.163  61.951  64.886  0.00  0.00    +0.000 N 
ATOM     20  O   UNL     1      61.371  61.851  65.097  0.00  0.00    +0.000 OA
ATOM     21  O   UNL     1      62.448  61.621  64.186  0.00  0.00    +0.000 OA
ENDROOT
TORSDOF 0
ENDMDL
MODEL 2
REMARK VINA RESULT:    -8.730      2.979      4.481
REMARK INTER + INTRA:          -8.730
REMARK INTER:                  -8.730
REMARK INTRA:                   0.000
REMARK UNBOUND:                 0.000
ROOT
REMARK  Name = pentaerithrityl tetranitrate
REMARK                            x       y       z     vdW  Elec       q    Type
REMARK                         _______ _______ _______ _____ _____    ______ ____
ATOM      1  O   UNL     1      59.382  66.594  70.383  0.00  0.00    +0.000 OA
ATOM      2  N   UNL     1      59.562  66.143  69.716  0.00  0.00    +0.000 N 
ATOM      3  O   UNL     1      59.550  66.492  68.967  0.00  0.00    +0.000 OA
ATOM      4  O   UNL     1      59.755  65.346  69.796  0.00  0.00    +0.000 OA
ATOM      5  C   UNL     1      59.935  64.895  69.129  0.00  0.00    +0.000 C 
ATOM      6  C   UNL     1      60.127  64.097  69.209  0.00  0.00    +0.000 C 
ATOM      7  C   UNL     1      60.320  63.299  69.289  0.00  0.00    +0.000 C 
ATOM      8  O   UNL     1      60.332  62.951  70.037  0.00  0.00    +0.000 OA
ATOM      9  N   UNL     1      60.525  62.153  70.118  0.00  0.00    +0.000 N 
ATOM     10  O   UNL     1      60.705  61.703  69.451  0.00  0.00    +0.000 OA
ATOM     11  O   UNL     1      60.537  61.805  70.865  0.00  0.00    +0.000 OA
ATOM     12  C   UNL     1      60.030  64.157  70.027  0.00  0.00    +0.000 C 
ATOM     13  O   UNL     1      60.149  63.495  70.504  0.00  0.00    +0.000 OA
ATOM     14  N   UNL     1      60.052  63.554  71.321  0.00  0.00    +0.000 N 
ATOM     15  O   UNL     1      59.837  64.274  71.660  0.00  0.00    +0.000 OA
ATOM     16  O   UNL     1      60.170  62.892  71.800  0.00  0.00    +0.000 OA
ATOM     17  C   UNL     1      60.224  64.038  68.391  0.00  0.00    +0.000 C 
ATOM     18  O   UNL     1      60.439  63.318  68.052  0.00  0.00    +0.000 OA
ATOM     19  N   UNL     1      60.558  62.656  68.531  0.00  0.00    +0.000 N 
ATOM     20  O   UNL     1      60.461  62.715  69.349  0.00  0.00    +0.000 OA
ATOM     21  O   UNL     1      60.773  61.935  68.192  0.00  0.00    +0.000 OA
ENDROOT
TORSDOF 0
ENDMDL
MODEL 3
REMARK VINA RESULT:    -8.655      3.832      5.776
REMARK INTER + INTRA:          -8.655
REMARK INTER:                  -8.655
REMARK INTRA:                   0.000
REMARK UNBOUND:                 0.000
ROOT
REMARK  Name = pentaerithrityl tetranitrate
REMARK                            x       y       z     vdW  Elec       q    Type
REMARK                         _______ _______ _______ _____ _____    ______ ____
ATOM      1  O   UNL     1      60.536  61.863  70.425  0.00  0.00    +0.000 OA
ATOM      2  N   UNL     1      60.553  62.465  69.860  0.00  0.00    +0.000 N 
ATOM      3  O   UNL     1      60.829  62.307  69.097  0.00  0.00    +0.000 OA
ATOM      4  O   UNL     1      60.295  63.223  70.056  0.00  0.00    +0.000 OA
ATOM      5  C   UNL     1      60.311  63.824  69.491  0.00  0.00    +0.000 C 
ATOM      6  C   UNL     1      60.053  64.582  69.687  0.00  0.00    +0.000 C 
ATOM      7  C   UNL     1      59.795  65.341  69.883  0.00  0.00    +0.000 C 
ATOM      8  O   UNL     1      59.519  65.499  70.645  0.00  0.00    +0.000 OA
ATOM      9  N   UNL     1      59.261  66.257  70.842  0.00  0.00    +0.000 N 
ATOM     10  O   UNL     1      59.277  66.857  70.277  0.00  0.00    +0.000 OA
ATOM     11  O   UNL     1      58.985  66.414  71.603  0.00  0.00    +0.000 OA
ATOM     12  C   UNL     1      59.884  64.326  70.454  0.00  0.00    +0.000 C 
ATOM     13  O   UNL     1      59.576  64.855  71.006  0.00  0.00    +0.000 OA
ATOM     14  N   UNL     1      59.407  64.599  71.772  0.00  0.00    +0.000 N 
ATOM     15  O   UNL     1      59.547  63.815  71.984  0.00  0.00    +0.000 OA
ATOM     16  O   UNL     1      59.099  65.128  72.325  0.00  0.00    +0.000 OA
ATOM     17  C   UNL     1      60.222  64.838  68.921  0.00  0.00    +0.000 C 
ATOM     18  O   UNL     1      60.083  65.622  68.708  0.00  0.00    +0.000 OA
ATOM     19  N   UNL     1      59.774  66.152  69.261  0.00  0.00    +0.000 N 
ATOM     20  O   UNL     1      59.605  65.895  70.028  0.00  0.00    +0.000 OA
ATOM     21  O   UNL     1      59.635  66.936  69.049  0.00  0.00    +0.000 OA
ENDROOT
TORSDOF 0
ENDMDL
MODEL 4
REMARK VINA RESULT:    -8.642      2.391      4.962
REMARK INTER + INTRA:          -8.642
REMARK INTER:                  -8.642
REMARK INTRA:                   0.000
REMARK UNBOUND:                 0.000
ROOT
REMARK  Name = pentaerithrityl tetranitrate
REMARK                            x       y       z     vdW  Elec       q    Type
REMARK                         _______ _______ _______ _____ _____    ______ ____
ATOM      1  O   UNL     1      61.266  62.007  67.122  0.00  0.00    +0.000 OA
ATOM      2  N   UNL     1      61.031  62.778  67.301  0.00  0.00    +0.000 N 
ATOM      3  O   UNL     1      61.027  63.356  66.711  0.00  0.00    +0.000 OA
ATOM      4  O   UNL     1      60.801  62.971  68.069  0.00  0.00    +0.000 OA
ATOM      5  C   UNL     1      60.566  63.741  68.249  0.00  0.00    +0.000 C 
ATOM      6  C   UNL     1      60.336  63.935  69.016  0.00  0.00    +0.000 C 
ATOM      7  C   UNL     1      60.105  64.128  69.784  0.00  0.00    +0.000 C 
ATOM      8  O   UNL     1      60.109  63.550  70.374  0.00  0.00    +0.000 OA
ATOM      9  N   UNL     1      59.878  63.743  71.142  0.00  0.00    +0.000 N 
ATOM     10  O   UNL     1      59.644  64.513  71.321  0.00  0.00    +0.000 OA
ATOM     11  O   UNL     1      59.882  63.166  71.731  0.00  0.00    +0.000 OA
ATOM     12  C   UNL     1      60.473  63.156  69.253  0.00  0.00    +0.000 C 
ATOM     13  O   UNL     1      60.342  62.934  70.037  0.00  0.00    +0.000 OA
ATOM     14  N   UNL     1      60.480  62.156  70.273  0.00  0.00    +0.000 N 
ATOM     15  O   UNL     1      60.748  61.600  69.727  0.00  0.00    +0.000 OA
ATOM     16  O   UNL     1      60.348  61.934  71.057  0.00  0.00    +0.000 OA
ATOM     17  C   UNL     1      60.198  64.714  68.779  0.00  0.00    +0.000 C 
ATOM     18  O   UNL     1      59.930  65.269  69.326  0.00  0.00    +0.000 OA
ATOM     19  N   UNL     1      59.799  65.047  70.110  0.00  0.00    +0.000 N 
ATOM     20  O   UNL     1      59.937  64.268  70.347  0.00  0.00    +0.000 OA
ATOM     21  O   UNL     1      59.531  65.604  70.657  0.00  0.00    +0.000 OA
ENDROOT
TORSDOF 0
ENDMDL
MODEL 5
REMARK VINA RESULT:    -8.632      2.808      4.030
REMARK INTER + INTRA:          -8.632
REMARK INTER:                  -8.632
REMARK INTRA:                   0.000
REMARK UNBOUND:                 0.000
ROOT
REMARK  Name = pentaerithrityl tetranitrate
REMARK                            x       y       z     vdW  Elec       q    Type
REMARK                         _______ _______ _______ _____ _____    ______ ____
ATOM      1  O   UNL     1      62.148  64.626  72.474  0.00  0.00    +0.000 OA
ATOM      2  N   UNL     1      62.316  64.726  71.673  0.00  0.00    +0.000 N 
ATOM      3  O   UNL     1      62.804  65.346  71.427  0.00  0.00    +0.000 OA
ATOM      4  O   UNL     1      61.997  64.208  71.116  0.00  0.00    +0.000 OA
ATOM      5  C   UNL     1      62.164  64.308  70.314  0.00  0.00    +0.000 C 
ATOM      6  C   UNL     1      61.846  63.790  69.758  0.00  0.00    +0.000 C 
ATOM      7  C   UNL     1      61.526  63.272  69.201  0.00  0.00    +0.000 C 
ATOM      8  O   UNL     1      61.039  62.652  69.446  0.00  0.00    +0.000 OA
ATOM      9  N   UNL     1      60.720  62.134  68.890  0.00  0.00    +0.000 N 
ATOM     10  O   UNL     1      60.887  62.234  68.089  0.00  0.00    +0.000 OA
ATOM     11  O   UNL     1      60.233  61.515  69.135  0.00  0.00    +0.000 OA
ATOM     12  C   UNL     1      61.467  63.374  70.363  0.00  0.00    +0.000 C 
ATOM     13  O   UNL     1      61.002  62.717  70.182  0.00  0.00    +0.000 OA
ATOM     14  N   UNL     1      60.624  62.302  70.787  0.00  0.00    +0.000 N 
ATOM     15  O   UNL     1      60.711  62.543  71.570  0.00  0.00    +0.000 OA
ATOM     16  O   UNL     1      60.158  61.645  70.606  0.00  0.00    +0.000 OA
ATOM     17  C   UNL     1      62.224  64.206  69.153  0.00  0.00    +0.000 C 
ATOM     18  O   UNL     1      62.137  63.965  68.370  0.00  0.00    +0.000 OA
ATOM     19  N   UNL     1      61.671  63.307  68.190  0.00  0.00    +0.000 N 
ATOM     20  O   UNL     1      61.292  62.892  68.795  0.00  0.00    +0.000 OA
ATOM     21  O   UNL     1      61.583  63.066  67.406  0.00  0.00    +0.000 OA
ENDROOT
TORSDOF 0
ENDMDL
MODEL 6
REMARK VINA RESULT:    -8.563      3.003      5.789
REMARK INTER + INTRA:          -8.563
REMARK INTER:                  -8.563
REMARK INTRA:                   0.000
REMARK UNBOUND:                 0.000
ROOT
REMARK  Name = pentaerithrityl tetranitrate
REMARK                            x       y       z     vdW  Elec       q    Type
REMARK                         _______ _______ _______ _____ _____    ______ ____
ATOM      1  O   UNL     1      61.115  62.264  67.674  0.00  0.00    +0.000 OA
ATOM      2  N   UNL     1      60.766  62.178  68.417  0.00  0.00    +0.000 N 
ATOM      3  O   UNL     1      60.119  61.673  68.513  0.00  0.00    +0.000 OA
ATOM      4  O   UNL     1      61.061  62.596  69.063  0.00  0.00    +0.000 OA
ATOM      5  C   UNL     1      60.712  62.510  69.806  0.00  0.00    +0.000 C 
ATOM      6  C   UNL     1      61.008  62.928  70.452  0.00  0.00    +0.000 C 
ATOM      7  C   UNL     1      61.303  63.346  71.099  0.00  0.00    +0.000 C 
ATOM      8  O   UNL     1      61.950  63.851  71.003  0.00  0.00    +0.000 OA
ATOM      9  N   UNL     1      62.246  64.269  71.649  0.00  0.00    +0.000 N 
ATOM     10  O   UNL     1      61.896  64.183  72.391  0.00  0.00    +0.000 OA
ATOM     11  O   UNL     1      62.892  64.773  71.554  0.00  0.00    +0.000 OA
ATOM     12  C   UNL     1      61.583  63.269  69.968  0.00  0.00    +0.000 C 
ATOM     13  O   UNL     1      62.127  63.802  70.286  0.00  0.00    +0.000 OA
ATOM     14  N   UNL     1      62.701  64.142  69.802  0.00  0.00    +0.000 N 
ATOM     15  O   UNL     1      62.732  63.950  69.001  0.00  0.00    +0.000 OA
ATOM     16  O   UNL     1      63.245  64.675  70.121  0.00  0.00    +0.000 OA
ATOM     17  C   UNL     1      60.432  62.587  70.936  0.00  0.00    +0.000 C 
ATOM     18  O   UNL     1      60.401  62.779  71.737  0.00  0.00    +0.000 OA
ATOM     19  N   UNL     1      60.946  63.312  72.055  0.00  0.00    +0.000 N 
ATOM     20  O   UNL     1      61.521  63.653  71.571  0.00  0.00    +0.000 OA
ATOM     21  O   UNL     1      60.915  63.504  72.857  0.00  0.00    +0.000 OA
ENDROOT
TORSDOF 0
ENDMDL
MODEL 7
REMARK VINA RESULT:    -8.562      4.018      6.111
REMARK INTER + INTRA:          -8.562
REMARK INTER:                  -8.562
REMARK INTRA:                   0.000
REMARK UNBOUND:                 0.000
ROOT
REMARK  Name = pentaerithrityl tetranitrate
REMARK                            x       y       z     vdW  Elec       q    Type
REMARK                         _______ _______ _______ _____ _____    ______ ____
ATOM      1  O   UNL     1      60.631  62.007  69.045  0.00  0.00    +0.000 OA
ATOM      2  N   UNL     1      60.565  62.211  69.842  0.00  0.00    +0.000 N 
ATOM      3  O   UNL     1      60.726  61.650  70.426  0.00  0.00    +0.000 OA
ATOM      4  O   UNL     1      60.339  62.975  70.055  0.00  0.00    +0.000 OA
ATOM      5  C   UNL     1      60.273  63.178  70.852  0.00  0.00    +0.000 C 
ATOM      6  C   UNL     1      60.047  63.942  71.066  0.00  0.00    +0.000 C 
ATOM      7  C   UNL     1      59.820  64.706  71.281  0.00  0.00    +0.000 C 
ATOM      8  O   UNL     1      59.659  65.267  70.697  0.00  0.00    +0.000 OA
ATOM      9  N   UNL     1      59.433  66.031  70.910  0.00  0.00    +0.000 N 
ATOM     10  O   UNL     1      59.367  66.234  71.707  0.00  0.00    +0.000 OA
ATOM     11  O   UNL     1      59.273  66.592  70.327  0.00  0.00    +0.000 OA
ATOM     12  C   UNL     1      59.992  64.148  70.269  0.00  0.00    +0.000 C 
ATOM     13  O   UNL     1      59.768  64.913  70.056  0.00  0.00    +0.000 OA
ATOM     14  N   UNL     1      59.714  65.119  69.259  0.00  0.00    +0.000 N 
ATOM     15  O   UNL     1      59.882  64.562  68.676  0.00  0.00    +0.000 OA
ATOM     16  O   UNL     1      59.490  65.885  69.046  0.00  0.00    +0.000 OA
ATOM     17  C   UNL     1      60.101  63.735  71.864  0.00  0.00    +0.000 C 
ATOM     18  O   UNL     1      59.933  64.293  72.446  0.00  0.00    +0.000 OA
ATOM     19  N   UNL     1      59.709  65.058  72.233  0.00  0.00    +0.000 N 
ATOM     20  O   UNL     1      59.654  65.265  71.436  0.00  0.00    +0.000 OA
ATOM     21  O   UNL     1      59.540  65.617  72.817  0.00  0.00    +0.000 OA
ENDROOT
TORSDOF 0
ENDMDL
MODEL 8
REMARK VINA RESULT:    -8.391      5.824      7.310
REMARK INTER + INTRA:          -8.391
REMARK INTER:                  -8.391
REMARK INTRA:                   0.000
REMARK UNBOUND:                 0.000
ROOT
REMARK  Name = pentaerithrityl tetranitrate
REMARK                            x       y       z     vdW  Elec       q    Type
REMARK                         _______ _______ _______ _____ _____    ______ ____
ATOM      1  O   UNL     1      66.150  67.196  69.778  0.00  0.00    +0.000 OA
ATOM      2  N   UNL     1      65.655  67.347  70.421  0.00  0.00    +0.000 N 
ATOM      3  O   UNL     1      65.745  68.044  70.856  0.00  0.00    +0.000 OA
ATOM      4  O   UNL     1      65.071  66.804  70.630  0.00  0.00    +0.000 OA
ATOM      5  C   UNL     1      64.576  66.956  71.272  0.00  0.00    +0.000 C 
ATOM      6  C   UNL     1      63.992  66.413  71.481  0.00  0.00    +0.000 C 
ATOM      7  C   UNL     1      63.407  65.870  71.690  0.00  0.00    +0.000 C 
ATOM      8  O   UNL     1      63.317  65.173  71.256  0.00  0.00    +0.000 OA
ATOM      9  N   UNL     1      62.733  64.630  71.465  0.00  0.00    +0.000 N 
ATOM     10  O   UNL     1      62.239  64.782  72.107  0.00  0.00    +0.000 OA
ATOM     11  O   UNL     1      62.643  63.934  71.031  0.00  0.00    +0.000 OA
ATOM     12  C   UNL     1      64.226  65.923  70.859  0.00  0.00    +0.000 C 
ATOM     13  O   UNL     1      63.836  65.208  70.730  0.00  0.00    +0.000 OA
ATOM     14  N   UNL     1      64.070  64.719  70.108  0.00  0.00    +0.000 N 
ATOM     15  O   UNL     1      64.692  64.944  69.617  0.00  0.00    +0.000 OA
ATOM     16  O   UNL     1      63.680  64.002  69.978  0.00  0.00    +0.000 OA
ATOM     17  C   UNL     1      63.758  66.903  72.103  0.00  0.00    +0.000 C 
ATOM     18  O   UNL     1      63.136  66.677  72.594  0.00  0.00    +0.000 OA
ATOM     19  N   UNL     1      62.746  65.961  72.464  0.00  0.00    +0.000 N 
ATOM     20  O   UNL     1      62.980  65.471  71.842  0.00  0.00    +0.000 OA
ATOM     21  O   UNL     1      62.124  65.735  72.956  0.00  0.00    +0.000 OA
ENDROOT
TORSDOF 0
ENDMDL
MODEL 9
REMARK VINA RESULT:    -8.244      3.062      5.685
REMARK INTER + INTRA:          -8.244
REMARK INTER:                  -8.244
REMARK INTRA:                   0.000
REMARK UNBOUND:                 0.000
ROOT
REMARK  Name = pentaerithrityl tetranitrate
REMARK                            x       y       z     vdW  Elec       q    Type
REMARK                         _______ _______ _______ _____ _____    ______ ____
ATOM      1  O   UNL     1      60.184  62.081  68.712  0.00  0.00    +0.000 OA
ATOM      2  N   UNL     1      60.830  62.593  68.682  0.00  0.00    +0.000 N 
ATOM      3  O   UNL     1      61.237  62.703  67.971  0.00  0.00    +0.000 OA
ATOM      4  O   UNL     1      61.071  62.995  69.360  0.00  0.00    +0.000 OA
ATOM      5  C   UNL     1      61.718  63.506  69.330  0.00  0.00    +0.000 C 
ATOM      6  C   UNL     1      61.959  63.908  70.009  0.00  0.00    +0.000 C 
ATOM      7  C   UNL     1      62.200  64.310  70.688  0.00  0.00    +0.000 C 
ATOM      8  O   UNL     1      61.793  64.201  71.398  0.00  0.00    +0.000 OA
ATOM      9  N   UNL     1      62.034  64.602  72.077  0.00  0.00    +0.000 N 
ATOM     10  O   UNL     1      62.680  65.113  72.046  0.00  0.00    +0.000 OA
ATOM     11  O   UNL     1      61.628  64.493  72.786  0.00  0.00    +0.000 OA
ATOM     12  C   UNL     1      61.350  63.549  70.436  0.00  0.00    +0.000 C 
ATOM     13  O   UNL     1      61.255  63.718  71.238  0.00  0.00    +0.000 OA
ATOM     14  N   UNL     1      60.648  63.360  71.665  0.00  0.00    +0.000 N 
ATOM     15  O   UNL     1      60.136  62.833  71.291  0.00  0.00    +0.000 OA
ATOM     16  O   UNL     1      60.552  63.529  72.468  0.00  0.00    +0.000 OA
ATOM     17  C   UNL     1      62.567  64.267  69.581  0.00  0.00    +0.000 C 
ATOM     18  O   UNL     1      63.079  64.793  69.955  0.00  0.00    +0.000 OA
ATOM     19  N   UNL     1      62.983  64.962  70.757  0.00  0.00    +0.000 N 
ATOM     20  O   UNL     1      62.375  64.604  71.185  0.00  0.00    +0.000 OA
ATOM     21  O   UNL     1      63.496  65.490  71.132  0.00  0.00    +0.000 OA
ENDROOT
TORSDOF 0
ENDMDL
