MODEL 1
REMARK VINA RESULT:    -9.260      0.000      0.000
REMARK INTER + INTRA:          -9.260
REMARK INTER:                  -9.260
REMARK INTRA:                   0.000
REMARK UNBOUND:                 0.000
ROOT
REMARK  Name = pentolonium
REMARK                            x       y       z     vdW  Elec       q    Type
REMARK                         _______ _______ _______ _____ _____    ______ ____
ATOM      1  C   UNL     1      60.795  63.173  69.504  0.00  0.00    +0.000 C 
ATOM      2  N   UNL     1      60.556  62.558  70.000  0.00  0.00    +0.000 N 
ATOM      3  C   UNL     1      60.669  62.090  69.330  0.00  0.00    +0.000 C 
ATOM      4  C   UNL     1      60.923  62.433  68.625  0.00  0.00    +0.000 C 
ATOM      5  C   UNL     1      61.036  61.965  67.955  0.00  0.00    +0.000 C 
ATOM      6  C   UNL     1      61.290  62.308  67.249  0.00  0.00    +0.000 C 
ATOM      7  C   UNL     1      61.402  61.840  66.579  0.00  0.00    +0.000 C 
ATOM      8  N   UNL     1      61.657  62.183  65.874  0.00  0.00    +0.000 N 
ATOM      9  C   UNL     1      61.647  62.882  66.312  0.00  0.00    +0.000 C 
ATOM     10  C   UNL     1      61.614  61.412  65.583  0.00  0.00    +0.000 C 
ATOM     11  C   UNL     1      61.839  61.425  64.790  0.00  0.00    +0.000 C 
ATOM     12  C   UNL     1      62.021  62.204  64.590  0.00  0.00    +0.000 C 
ATOM     13  C   UNL     1      61.909  62.672  65.260  0.00  0.00    +0.000 C 
ATOM     14  C   UNL     1      60.493  63.155  70.566  0.00  0.00    +0.000 C 
ATOM     15  C   UNL     1      60.239  62.812  71.271  0.00  0.00    +0.000 C 
ATOM     16  C   UNL     1      60.145  62.002  71.142  0.00  0.00    +0.000 C 
ATOM     17  C   UNL     1      60.341  61.846  70.356  0.00  0.00    +0.000 C 
ENDROOT
TORSDOF 0
ENDMDL
MODEL 2
REMARK VINA RESULT:    -9.250      0.053      4.682
REMARK INTER + INTRA:          -9.250
REMARK INTER:                  -9.250
REMARK INTRA:                   0.000
REMARK UNBOUND:                 0.000
ROOT
REMARK  Name = pentolonium
REMARK                            x       y       z     vdW  Elec       q    Type
REMARK                         _______ _______ _______ _____ _____    ______ ____
ATOM      1  C   UNL     1      61.627  62.928  66.314  0.00  0.00    +0.000 C 
ATOM      2  N   UNL     1      61.646  62.236  65.864  0.00  0.00    +0.000 N 
ATOM      3  C   UNL     1      61.394  61.878  66.563  0.00  0.00    +0.000 C 
ATOM      4  C   UNL     1      61.274  62.333  67.240  0.00  0.00    +0.000 C 
ATOM      5  C   UNL     1      61.022  61.975  67.940  0.00  0.00    +0.000 C 
ATOM      6  C   UNL     1      60.903  62.430  68.617  0.00  0.00    +0.000 C 
ATOM      7  C   UNL     1      60.651  62.072  69.316  0.00  0.00    +0.000 C 
ATOM      8  N   UNL     1      60.532  62.527  69.993  0.00  0.00    +0.000 N 
ATOM      9  C   UNL     1      60.765  63.153  69.509  0.00  0.00    +0.000 C 
ATOM     10  C   UNL     1      60.323  61.807  70.337  0.00  0.00    +0.000 C 
ATOM     11  C   UNL     1      60.124  61.947  71.124  0.00  0.00    +0.000 C 
ATOM     12  C   UNL     1      60.209  62.755  71.269  0.00  0.00    +0.000 C 
ATOM     13  C   UNL     1      60.461  63.113  70.570  0.00  0.00    +0.000 C 
ATOM     14  C   UNL     1      61.894  62.739  65.259  0.00  0.00    +0.000 C 
ATOM     15  C   UNL     1      62.013  62.284  64.582  0.00  0.00    +0.000 C 
ATOM     16  C   UNL     1      61.839  61.500  64.768  0.00  0.00    +0.000 C 
ATOM     17  C   UNL     1      61.612  61.471  65.561  0.00  0.00    +0.000 C 
ENDROOT
TORSDOF 0
ENDMDL
MODEL 3
REMARK VINA RESULT:    -8.571      4.312      6.320
REMARK INTER + INTRA:          -8.571
REMARK INTER:                  -8.571
REMARK INTRA:                   0.000
REMARK UNBOUND:                 0.000
ROOT
REMARK  Name = pentolonium
REMARK                            x       y       z     vdW  Elec       q    Type
REMARK                         _______ _______ _______ _____ _____    ______ ____
ATOM      1  C   UNL     1      64.622  66.066  69.977  0.00  0.00    +0.000 C 
ATOM      2  N   UNL     1      65.001  66.594  70.485  0.00  0.00    +0.000 N 
ATOM      3  C   UNL     1      64.504  66.266  71.056  0.00  0.00    +0.000 C 
ATOM      4  C   UNL     1      63.972  65.672  70.848  0.00  0.00    +0.000 C 
ATOM      5  C   UNL     1      63.475  65.344  71.420  0.00  0.00    +0.000 C 
ATOM      6  C   UNL     1      62.942  64.750  71.212  0.00  0.00    +0.000 C 
ATOM      7  C   UNL     1      62.445  64.421  71.783  0.00  0.00    +0.000 C 
ATOM      8  N   UNL     1      61.913  63.828  71.575  0.00  0.00    +0.000 N 
ATOM      9  C   UNL     1      62.232  63.926  70.820  0.00  0.00    +0.000 C 
ATOM     10  C   UNL     1      61.704  63.854  72.373  0.00  0.00    +0.000 C 
ATOM     11  C   UNL     1      61.110  63.297  72.500  0.00  0.00    +0.000 C 
ATOM     12  C   UNL     1      60.950  62.926  71.781  0.00  0.00    +0.000 C 
ATOM     13  C   UNL     1      61.446  63.254  71.209  0.00  0.00    +0.000 C 
ATOM     14  C   UNL     1      65.418  66.812  69.807  0.00  0.00    +0.000 C 
ATOM     15  C   UNL     1      65.951  67.405  70.015  0.00  0.00    +0.000 C 
ATOM     16  C   UNL     1      65.864  67.555  70.822  0.00  0.00    +0.000 C 
ATOM     17  C   UNL     1      65.276  67.053  71.112  0.00  0.00    +0.000 C 
ENDROOT
TORSDOF 0
ENDMDL
MODEL 4
REMARK VINA RESULT:    -8.526      4.363      5.694
REMARK INTER + INTRA:          -8.526
REMARK INTER:                  -8.526
REMARK INTRA:                   0.000
REMARK UNBOUND:                 0.000
ROOT
REMARK  Name = pentolonium
REMARK                            x       y       z     vdW  Elec       q    Type
REMARK                         _______ _______ _______ _____ _____    ______ ____
ATOM      1  C   UNL     1      62.161  64.102  70.808  0.00  0.00    +0.000 C 
ATOM      2  N   UNL     1      61.833  64.013  71.560  0.00  0.00    +0.000 N 
ATOM      3  C   UNL     1      62.381  64.592  71.772  0.00  0.00    +0.000 C 
ATOM      4  C   UNL     1      62.891  64.906  71.205  0.00  0.00    +0.000 C 
ATOM      5  C   UNL     1      63.439  65.485  71.417  0.00  0.00    +0.000 C 
ATOM      6  C   UNL     1      63.948  65.799  70.850  0.00  0.00    +0.000 C 
ATOM      7  C   UNL     1      64.497  66.378  71.062  0.00  0.00    +0.000 C 
ATOM      8  N   UNL     1      65.006  66.692  70.495  0.00  0.00    +0.000 N 
ATOM      9  C   UNL     1      64.616  66.174  69.984  0.00  0.00    +0.000 C 
ATOM     10  C   UNL     1      65.289  67.144  71.124  0.00  0.00    +0.000 C 
ATOM     11  C   UNL     1      65.892  67.629  70.839  0.00  0.00    +0.000 C 
ATOM     12  C   UNL     1      65.983  67.477  70.033  0.00  0.00    +0.000 C 
ATOM     13  C   UNL     1      65.434  66.898  69.821  0.00  0.00    +0.000 C 
ATOM     14  C   UNL     1      61.354  63.453  71.190  0.00  0.00    +0.000 C 
ATOM     15  C   UNL     1      60.844  63.139  71.757  0.00  0.00    +0.000 C 
ATOM     16  C   UNL     1      61.008  63.505  72.478  0.00  0.00    +0.000 C 
ATOM     17  C   UNL     1      61.620  64.046  72.356  0.00  0.00    +0.000 C 
ENDROOT
TORSDOF 0
ENDMDL
MODEL 5
REMARK VINA RESULT:    -8.243      2.090      2.628
REMARK INTER + INTRA:          -8.243
REMARK INTER:                  -8.243
REMARK INTRA:                   0.000
REMARK UNBOUND:                 0.000
ROOT
REMARK  Name = pentolonium
REMARK                            x       y       z     vdW  Elec       q    Type
REMARK                         _______ _______ _______ _____ _____    ______ ____
ATOM      1  C   UNL     1      62.993  64.268  69.386  0.00  0.00    +0.000 C 
ATOM      2  N   UNL     1      62.722  64.443  70.146  0.00  0.00    +0.000 N 
ATOM      3  C   UNL     1      62.011  64.126  69.871  0.00  0.00    +0.000 C 
ATOM      4  C   UNL     1      61.956  63.844  69.098  0.00  0.00    +0.000 C 
ATOM      5  C   UNL     1      61.246  63.526  68.824  0.00  0.00    +0.000 C 
ATOM      6  C   UNL     1      61.191  63.244  68.051  0.00  0.00    +0.000 C 
ATOM      7  C   UNL     1      60.480  62.927  67.777  0.00  0.00    +0.000 C 
ATOM      8  N   UNL     1      60.425  62.644  67.004  0.00  0.00    +0.000 N 
ATOM      9  C   UNL     1      61.216  62.876  66.955  0.00  0.00    +0.000 C 
ATOM     10  C   UNL     1      59.647  62.472  67.214  0.00  0.00    +0.000 C 
ATOM     11  C   UNL     1      59.276  62.131  66.561  0.00  0.00    +0.000 C 
ATOM     12  C   UNL     1      59.825  62.093  65.946  0.00  0.00    +0.000 C 
ATOM     13  C   UNL     1      60.536  62.410  66.221  0.00  0.00    +0.000 C 
ATOM     14  C   UNL     1      63.489  64.724  70.261  0.00  0.00    +0.000 C 
ATOM     15  C   UNL     1      63.544  65.006  71.033  0.00  0.00    +0.000 C 
ATOM     16  C   UNL     1      62.811  64.900  71.396  0.00  0.00    +0.000 C 
ATOM     17  C   UNL     1      62.303  64.552  70.847  0.00  0.00    +0.000 C 
ENDROOT
TORSDOF 0
ENDMDL
MODEL 6
REMARK VINA RESULT:    -7.841      2.179      2.919
REMARK INTER + INTRA:          -7.841
REMARK INTER:                  -7.841
REMARK INTRA:                   0.000
REMARK UNBOUND:                 0.000
ROOT
REMARK  Name = pentolonium
REMARK                            x       y       z     vdW  Elec       q    Type
REMARK                         _______ _______ _______ _____ _____    ______ ____
ATOM      1  C   UNL     1      59.827  64.837  70.570  0.00  0.00    +0.000 C 
ATOM      2  N   UNL     1      59.700  65.643  70.447  0.00  0.00    +0.000 N 
ATOM      3  C   UNL     1      59.927  65.473  69.672  0.00  0.00    +0.000 C 
ATOM      4  C   UNL     1      60.130  64.702  69.462  0.00  0.00    +0.000 C 
ATOM      5  C   UNL     1      60.357  64.531  68.687  0.00  0.00    +0.000 C 
ATOM      6  C   UNL     1      60.560  63.761  68.477  0.00  0.00    +0.000 C 
ATOM      7  C   UNL     1      60.787  63.590  67.702  0.00  0.00    +0.000 C 
ATOM      8  N   UNL     1      60.990  62.819  67.491  0.00  0.00    +0.000 N 
ATOM      9  C   UNL     1      60.825  62.652  68.283  0.00  0.00    +0.000 C 
ATOM     10  C   UNL     1      61.113  63.147  66.745  0.00  0.00    +0.000 C 
ATOM     11  C   UNL     1      61.358  62.544  66.238  0.00  0.00    +0.000 C 
ATOM     12  C   UNL     1      61.386  61.842  66.672  0.00  0.00    +0.000 C 
ATOM     13  C   UNL     1      61.159  62.013  67.446  0.00  0.00    +0.000 C 
ATOM     14  C   UNL     1      59.499  65.645  71.247  0.00  0.00    +0.000 C 
ATOM     15  C   UNL     1      59.296  66.416  71.458  0.00  0.00    +0.000 C 
ATOM     16  C   UNL     1      59.370  66.891  70.788  0.00  0.00    +0.000 C 
ATOM     17  C   UNL     1      59.620  66.413  70.163  0.00  0.00    +0.000 C 
ENDROOT
TORSDOF 0
ENDMDL
MODEL 7
REMARK VINA RESULT:    -7.320     18.689     20.261
REMARK INTER + INTRA:          -7.320
REMARK INTER:                  -7.320
REMARK INTRA:                   0.000
REMARK UNBOUND:                 0.000
ROOT
REMARK  Name = pentolonium
REMARK                            x       y       z     vdW  Elec       q    Type
REMARK                         _______ _______ _______ _____ _____    ______ ____
ATOM      1  C   UNL     1      66.187  78.927  59.181  0.00  0.00    +0.000 C 
ATOM      2  N   UNL     1      65.931  78.199  59.474  0.00  0.00    +0.000 N 
ATOM      3  C   UNL     1      65.185  78.468  59.245  0.00  0.00    +0.000 C 
ATOM      4  C   UNL     1      65.103  79.210  58.897  0.00  0.00    +0.000 C 
ATOM      5  C   UNL     1      64.356  79.479  58.668  0.00  0.00    +0.000 C 
ATOM      6  C   UNL     1      64.274  80.221  58.319  0.00  0.00    +0.000 C 
ATOM      7  C   UNL     1      63.528  80.489  58.091  0.00  0.00    +0.000 C 
ATOM      8  N   UNL     1      63.445  81.232  57.742  0.00  0.00    +0.000 N 
ATOM      9  C   UNL     1      64.263  81.274  57.841  0.00  0.00    +0.000 C 
ATOM     10  C   UNL     1      62.644  81.036  57.716  0.00  0.00    +0.000 C 
ATOM     11  C   UNL     1      62.238  81.665  57.372  0.00  0.00    +0.000 C 
ATOM     12  C   UNL     1      62.787  82.252  57.185  0.00  0.00    +0.000 C 
ATOM     13  C   UNL     1      63.533  81.984  57.414  0.00  0.00    +0.000 C 
ATOM     14  C   UNL     1      66.731  78.084  59.641  0.00  0.00    +0.000 C 
ATOM     15  C   UNL     1      66.814  77.341  59.990  0.00  0.00    +0.000 C 
ATOM     16  C   UNL     1      66.065  76.997  60.038  0.00  0.00    +0.000 C 
ATOM     17  C   UNL     1      65.520  77.529  59.719  0.00  0.00    +0.000 C 
ENDROOT
TORSDOF 0
ENDMDL
MODEL 8
REMARK VINA RESULT:    -7.211      5.905      6.530
REMARK INTER + INTRA:          -7.211
REMARK INTER:                  -7.211
REMARK INTRA:                   0.000
REMARK UNBOUND:                 0.000
ROOT
REMARK  Name = pentolonium
REMARK                            x       y       z     vdW  Elec       q    Type
REMARK                         _______ _______ _______ _____ _____    ______ ____
ATOM      1  C   UNL     1      60.329  66.436  71.614  0.00  0.00    +0.000 C 
ATOM      2  N   UNL     1      59.999  66.643  72.343  0.00  0.00    +0.000 N 
ATOM      3  C   UNL     1      60.784  66.778  72.561  0.00  0.00    +0.000 C 
ATOM      4  C   UNL     1      61.391  66.653  72.017  0.00  0.00    +0.000 C 
ATOM      5  C   UNL     1      62.175  66.787  72.235  0.00  0.00    +0.000 C 
ATOM      6  C   UNL     1      62.782  66.662  71.692  0.00  0.00    +0.000 C 
ATOM      7  C   UNL     1      63.567  66.796  71.910  0.00  0.00    +0.000 C 
ATOM      8  N   UNL     1      64.174  66.671  71.366  0.00  0.00    +0.000 N 
ATOM      9  C   UNL     1      63.558  66.458  70.859  0.00  0.00    +0.000 C 
ATOM     10  C   UNL     1      64.662  66.911  71.986  0.00  0.00    +0.000 C 
ATOM     11  C   UNL     1      65.442  66.889  71.720  0.00  0.00    +0.000 C 
ATOM     12  C   UNL     1      65.437  66.636  70.935  0.00  0.00    +0.000 C 
ATOM     13  C   UNL     1      64.652  66.502  70.716  0.00  0.00    +0.000 C 
ATOM     14  C   UNL     1      59.284  66.466  71.972  0.00  0.00    +0.000 C 
ATOM     15  C   UNL     1      58.677  66.591  72.515  0.00  0.00    +0.000 C 
ATOM     16  C   UNL     1      59.017  66.846  73.222  0.00  0.00    +0.000 C 
ATOM     17  C   UNL     1      59.834  66.878  73.115  0.00  0.00    +0.000 C 
ENDROOT
TORSDOF 0
ENDMDL
MODEL 9
REMARK VINA RESULT:    -7.118     25.099     26.752
REMARK INTER + INTRA:          -7.118
REMARK INTER:                  -7.118
REMARK INTRA:                   0.000
REMARK UNBOUND:                 0.000
ROOT
REMARK  Name = pentolonium
REMARK                            x       y       z     vdW  Elec       q    Type
REMARK                         _______ _______ _______ _____ _____    ______ ____
ATOM      1  C   UNL     1      70.630  79.341  48.953  0.00  0.00    +0.000 C 
ATOM      2  N   UNL     1      71.446  79.322  49.078  0.00  0.00    +0.000 N 
ATOM      3  C   UNL     1      71.251  79.611  49.825  0.00  0.00    +0.000 C 
ATOM      4  C   UNL     1      70.462  79.746  50.023  0.00  0.00    +0.000 C 
ATOM      5  C   UNL     1      70.267  80.035  50.771  0.00  0.00    +0.000 C 
ATOM      6  C   UNL     1      69.478  80.169  50.969  0.00  0.00    +0.000 C 
ATOM      7  C   UNL     1      69.283  80.459  51.717  0.00  0.00    +0.000 C 
ATOM      8  N   UNL     1      68.494  80.593  51.915  0.00  0.00    +0.000 N 
ATOM      9  C   UNL     1      68.346  80.324  51.149  0.00  0.00    +0.000 C 
ATOM     10  C   UNL     1      68.806  80.834  52.639  0.00  0.00    +0.000 C 
ATOM     11  C   UNL     1      68.180  81.061  53.125  0.00  0.00    +0.000 C 
ATOM     12  C   UNL     1      67.479  80.961  52.701  0.00  0.00    +0.000 C 
ATOM     13  C   UNL     1      67.674  80.671  51.953  0.00  0.00    +0.000 C 
ATOM     14  C   UNL     1      71.470  79.037  48.304  0.00  0.00    +0.000 C 
ATOM     15  C   UNL     1      72.259  78.903  48.106  0.00  0.00    +0.000 C 
ATOM     16  C   UNL     1      72.723  79.104  48.757  0.00  0.00    +0.000 C 
ATOM     17  C   UNL     1      72.220  79.364  49.358  0.00  0.00    +0.000 C 
ENDROOT
TORSDOF 0
ENDMDL
