MODEL 1
REMARK VINA RESULT:    -7.563      0.000      0.000
REMARK INTER + INTRA:          -7.563
REMARK INTER:                  -7.563
REMARK INTRA:                   0.000
REMARK UNBOUND:                 0.000
ROOT
REMARK  Name = perflutren
REMARK                            x       y       z     vdW  Elec       q    Type
REMARK                         _______ _______ _______ _____ _____    ______ ____
ATOM      1  F   UNL     1      65.488  76.014  60.628  0.00  0.00    +0.000 F 
ATOM      2  C   UNL     1      65.817  76.707  60.324  0.00  0.00    +0.000 C 
ATOM      3  F   UNL     1      65.065  76.966  60.102  0.00  0.00    +0.000 F 
ATOM      4  F   UNL     1      66.568  76.449  60.546  0.00  0.00    +0.000 F 
ATOM      5  C   UNL     1      66.145  77.401  60.021  0.00  0.00    +0.000 C 
ATOM      6  F   UNL     1      65.394  77.659  59.799  0.00  0.00    +0.000 F 
ATOM      7  F   UNL     1      66.896  77.142  60.243  0.00  0.00    +0.000 F 
ATOM      8  C   UNL     1      66.473  78.094  59.717  0.00  0.00    +0.000 C 
ATOM      9  F   UNL     1      66.802  78.787  59.413  0.00  0.00    +0.000 F 
ATOM     10  F   UNL     1      65.722  78.352  59.495  0.00  0.00    +0.000 F 
ATOM     11  F   UNL     1      67.225  77.835  59.939  0.00  0.00    +0.000 F 
ENDROOT
TORSDOF 0
ENDMDL
MODEL 2
REMARK VINA RESULT:    -7.556      0.160      1.863
REMARK INTER + INTRA:          -7.556
REMARK INTER:                  -7.556
REMARK INTRA:                   0.000
REMARK UNBOUND:                 0.000
ROOT
REMARK  Name = perflutren
REMARK                            x       y       z     vdW  Elec       q    Type
REMARK                         _______ _______ _______ _____ _____    ______ ____
ATOM      1  F   UNL     1      66.878  78.757  59.166  0.00  0.00    +0.000 F 
ATOM      2  C   UNL     1      66.536  78.108  59.543  0.00  0.00    +0.000 C 
ATOM      3  F   UNL     1      65.787  78.376  59.323  0.00  0.00    +0.000 F 
ATOM      4  F   UNL     1      67.284  77.841  59.763  0.00  0.00    +0.000 F 
ATOM      5  C   UNL     1      66.193  77.459  59.920  0.00  0.00    +0.000 C 
ATOM      6  F   UNL     1      65.444  77.726  59.700  0.00  0.00    +0.000 F 
ATOM      7  F   UNL     1      66.942  77.192  60.140  0.00  0.00    +0.000 F 
ATOM      8  C   UNL     1      65.851  76.810  60.296  0.00  0.00    +0.000 C 
ATOM      9  F   UNL     1      65.508  76.161  60.673  0.00  0.00    +0.000 F 
ATOM     10  F   UNL     1      65.102  77.077  60.077  0.00  0.00    +0.000 F 
ATOM     11  F   UNL     1      66.600  76.542  60.516  0.00  0.00    +0.000 F 
ENDROOT
TORSDOF 0
ENDMDL
MODEL 3
REMARK VINA RESULT:    -7.117     16.302     17.072
REMARK INTER + INTRA:          -7.117
REMARK INTER:                  -7.117
REMARK INTRA:                   0.000
REMARK UNBOUND:                 0.000
ROOT
REMARK  Name = perflutren
REMARK                            x       y       z     vdW  Elec       q    Type
REMARK                         _______ _______ _______ _____ _____    ______ ____
ATOM      1  F   UNL     1      60.214  61.090  64.984  0.00  0.00    +0.000 F 
ATOM      2  C   UNL     1      60.903  61.300  64.582  0.00  0.00    +0.000 C 
ATOM      3  F   UNL     1      60.634  60.903  63.911  0.00  0.00    +0.000 F 
ATOM      4  F   UNL     1      61.173  61.697  65.254  0.00  0.00    +0.000 F 
ATOM      5  C   UNL     1      61.593  61.511  64.181  0.00  0.00    +0.000 C 
ATOM      6  F   UNL     1      61.323  61.114  63.510  0.00  0.00    +0.000 F 
ATOM      7  F   UNL     1      61.863  61.907  64.852  0.00  0.00    +0.000 F 
ATOM      8  C   UNL     1      62.282  61.721  63.780  0.00  0.00    +0.000 C 
ATOM      9  F   UNL     1      62.972  61.931  63.378  0.00  0.00    +0.000 F 
ATOM     10  F   UNL     1      62.013  61.324  63.109  0.00  0.00    +0.000 F 
ATOM     11  F   UNL     1      62.552  62.118  64.451  0.00  0.00    +0.000 F 
ENDROOT
TORSDOF 0
ENDMDL
MODEL 4
REMARK VINA RESULT:    -7.107     16.375     17.189
REMARK INTER + INTRA:          -7.107
REMARK INTER:                  -7.107
REMARK INTRA:                   0.000
REMARK UNBOUND:                 0.000
ROOT
REMARK  Name = perflutren
REMARK                            x       y       z     vdW  Elec       q    Type
REMARK                         _______ _______ _______ _____ _____    ______ ____
ATOM      1  F   UNL     1      62.936  61.853  63.354  0.00  0.00    +0.000 F 
ATOM      2  C   UNL     1      62.248  61.662  63.767  0.00  0.00    +0.000 C 
ATOM      3  F   UNL     1      61.950  61.286  63.096  0.00  0.00    +0.000 F 
ATOM      4  F   UNL     1      62.546  62.039  64.438  0.00  0.00    +0.000 F 
ATOM      5  C   UNL     1      61.560  61.471  64.180  0.00  0.00    +0.000 C 
ATOM      6  F   UNL     1      61.262  61.095  63.510  0.00  0.00    +0.000 F 
ATOM      7  F   UNL     1      61.858  61.848  64.851  0.00  0.00    +0.000 F 
ATOM      8  C   UNL     1      60.872  61.280  64.594  0.00  0.00    +0.000 C 
ATOM      9  F   UNL     1      60.184  61.089  65.007  0.00  0.00    +0.000 F 
ATOM     10  F   UNL     1      60.574  60.904  63.923  0.00  0.00    +0.000 F 
ATOM     11  F   UNL     1      61.170  61.657  65.264  0.00  0.00    +0.000 F 
ENDROOT
TORSDOF 0
ENDMDL
MODEL 5
REMARK VINA RESULT:    -6.385     13.955     14.549
REMARK INTER + INTRA:          -6.385
REMARK INTER:                  -6.385
REMARK INTRA:                   0.000
REMARK UNBOUND:                 0.000
ROOT
REMARK  Name = perflutren
REMARK                            x       y       z     vdW  Elec       q    Type
REMARK                         _______ _______ _______ _____ _____    ______ ____
ATOM      1  F   UNL     1      76.962  67.639  56.618  0.00  0.00    +0.000 F 
ATOM      2  C   UNL     1      76.247  67.265  56.792  0.00  0.00    +0.000 C 
ATOM      3  F   UNL     1      76.256  66.903  56.051  0.00  0.00    +0.000 F 
ATOM      4  F   UNL     1      76.238  67.627  57.534  0.00  0.00    +0.000 F 
ATOM      5  C   UNL     1      75.533  66.892  56.967  0.00  0.00    +0.000 C 
ATOM      6  F   UNL     1      75.541  66.529  56.225  0.00  0.00    +0.000 F 
ATOM      7  F   UNL     1      75.524  67.254  57.708  0.00  0.00    +0.000 F 
ATOM      8  C   UNL     1      74.818  66.518  57.141  0.00  0.00    +0.000 C 
ATOM      9  F   UNL     1      74.104  66.144  57.315  0.00  0.00    +0.000 F 
ATOM     10  F   UNL     1      74.827  66.156  56.400  0.00  0.00    +0.000 F 
ATOM     11  F   UNL     1      74.809  66.880  57.882  0.00  0.00    +0.000 F 
ENDROOT
TORSDOF 0
ENDMDL
MODEL 6
REMARK VINA RESULT:    -6.202     13.687     14.878
REMARK INTER + INTRA:          -6.202
REMARK INTER:                  -6.202
REMARK INTRA:                   0.000
REMARK UNBOUND:                 0.000
ROOT
REMARK  Name = perflutren
REMARK                            x       y       z     vdW  Elec       q    Type
REMARK                         _______ _______ _______ _____ _____    ______ ____
ATOM      1  F   UNL     1      66.125  66.616  72.360  0.00  0.00    +0.000 F 
ATOM      2  C   UNL     1      66.162  66.963  71.612  0.00  0.00    +0.000 C 
ATOM      3  F   UNL     1      66.986  66.978  71.660  0.00  0.00    +0.000 F 
ATOM      4  F   UNL     1      65.339  66.948  71.565  0.00  0.00    +0.000 F 
ATOM      5  C   UNL     1      66.199  67.311  70.865  0.00  0.00    +0.000 C 
ATOM      6  F   UNL     1      67.022  67.326  70.913  0.00  0.00    +0.000 F 
ATOM      7  F   UNL     1      65.375  67.296  70.818  0.00  0.00    +0.000 F 
ATOM      8  C   UNL     1      66.236  67.658  70.118  0.00  0.00    +0.000 C 
ATOM      9  F   UNL     1      66.272  68.005  69.370  0.00  0.00    +0.000 F 
ATOM     10  F   UNL     1      67.059  67.673  70.165  0.00  0.00    +0.000 F 
ATOM     11  F   UNL     1      65.412  67.643  70.070  0.00  0.00    +0.000 F 
ENDROOT
TORSDOF 0
ENDMDL
MODEL 7
REMARK VINA RESULT:    -6.188     10.967     11.754
REMARK INTER + INTRA:          -6.188
REMARK INTER:                  -6.188
REMARK INTRA:                   0.000
REMARK UNBOUND:                 0.000
ROOT
REMARK  Name = perflutren
REMARK                            x       y       z     vdW  Elec       q    Type
REMARK                         _______ _______ _______ _____ _____    ______ ____
ATOM      1  F   UNL     1      69.494  79.115  50.445  0.00  0.00    +0.000 F 
ATOM      2  C   UNL     1      70.064  78.913  49.883  0.00  0.00    +0.000 C 
ATOM      3  F   UNL     1      70.254  79.710  49.789  0.00  0.00    +0.000 F 
ATOM      4  F   UNL     1      69.874  78.116  49.977  0.00  0.00    +0.000 F 
ATOM      5  C   UNL     1      70.634  78.711  49.322  0.00  0.00    +0.000 C 
ATOM      6  F   UNL     1      70.823  79.508  49.228  0.00  0.00    +0.000 F 
ATOM      7  F   UNL     1      70.444  77.914  49.416  0.00  0.00    +0.000 F 
ATOM      8  C   UNL     1      71.203  78.509  48.760  0.00  0.00    +0.000 C 
ATOM      9  F   UNL     1      71.773  78.307  48.199  0.00  0.00    +0.000 F 
ATOM     10  F   UNL     1      71.393  79.307  48.666  0.00  0.00    +0.000 F 
ATOM     11  F   UNL     1      71.014  77.712  48.854  0.00  0.00    +0.000 F 
ENDROOT
TORSDOF 0
ENDMDL
MODEL 8
REMARK VINA RESULT:    -6.115     13.574     14.848
REMARK INTER + INTRA:          -6.115
REMARK INTER:                  -6.115
REMARK INTRA:                   0.000
REMARK UNBOUND:                 0.000
ROOT
REMARK  Name = perflutren
REMARK                            x       y       z     vdW  Elec       q    Type
REMARK                         _______ _______ _______ _____ _____    ______ ____
ATOM      1  F   UNL     1      66.303  68.060  69.348  0.00  0.00    +0.000 F 
ATOM      2  C   UNL     1      66.039  67.667  70.024  0.00  0.00    +0.000 C 
ATOM      3  F   UNL     1      65.972  68.389  70.417  0.00  0.00    +0.000 F 
ATOM      4  F   UNL     1      66.107  66.945  69.630  0.00  0.00    +0.000 F 
ATOM      5  C   UNL     1      65.776  67.274  70.700  0.00  0.00    +0.000 C 
ATOM      6  F   UNL     1      65.708  67.996  71.093  0.00  0.00    +0.000 F 
ATOM      7  F   UNL     1      65.844  66.552  70.306  0.00  0.00    +0.000 F 
ATOM      8  C   UNL     1      65.513  66.881  71.376  0.00  0.00    +0.000 C 
ATOM      9  F   UNL     1      65.250  66.488  72.052  0.00  0.00    +0.000 F 
ATOM     10  F   UNL     1      65.445  67.603  71.769  0.00  0.00    +0.000 F 
ATOM     11  F   UNL     1      65.581  66.159  70.982  0.00  0.00    +0.000 F 
ENDROOT
TORSDOF 0
ENDMDL
MODEL 9
REMARK VINA RESULT:    -6.067     18.176     19.152
REMARK INTER + INTRA:          -6.067
REMARK INTER:                  -6.067
REMARK INTRA:                   0.000
REMARK UNBOUND:                 0.000
ROOT
REMARK  Name = perflutren
REMARK                            x       y       z     vdW  Elec       q    Type
REMARK                         _______ _______ _______ _____ _____    ______ ____
ATOM      1  F   UNL     1      60.472  62.035  68.085  0.00  0.00    +0.000 F 
ATOM      2  C   UNL     1      60.457  62.022  68.910  0.00  0.00    +0.000 C 
ATOM      3  F   UNL     1      60.058  61.301  68.891  0.00  0.00    +0.000 F 
ATOM      4  F   UNL     1      60.857  62.744  68.928  0.00  0.00    +0.000 F 
ATOM      5  C   UNL     1      60.442  62.010  69.735  0.00  0.00    +0.000 C 
ATOM      6  F   UNL     1      60.043  61.288  69.716  0.00  0.00    +0.000 F 
ATOM      7  F   UNL     1      60.842  62.731  69.753  0.00  0.00    +0.000 F 
ATOM      8  C   UNL     1      60.427  61.997  70.559  0.00  0.00    +0.000 C 
ATOM      9  F   UNL     1      60.412  61.984  71.384  0.00  0.00    +0.000 F 
ATOM     10  F   UNL     1      60.027  61.275  70.541  0.00  0.00    +0.000 F 
ATOM     11  F   UNL     1      60.826  62.718  70.578  0.00  0.00    +0.000 F 
ENDROOT
TORSDOF 0
ENDMDL
