MODEL 1
REMARK VINA RESULT:   -15.354      0.000      0.000
REMARK INTER + INTRA:         -15.354
REMARK INTER:                 -15.354
REMARK INTRA:                   0.000
REMARK UNBOUND:                 0.000
ROOT
REMARK  Name = perfluamine
REMARK                            x       y       z     vdW  Elec       q    Type
REMARK                         _______ _______ _______ _____ _____    ______ ____
ATOM      1  F   UNL     1      60.217  61.993  67.661  0.00  0.00    +0.000 F 
ATOM      2  C   UNL     1      60.331  62.109  68.470  0.00  0.00    +0.000 C 
ATOM      3  F   UNL     1      60.814  61.441  68.498  0.00  0.00    +0.000 F 
ATOM      4  F   UNL     1      59.848  62.777  68.442  0.00  0.00    +0.000 F 
ATOM      5  C   UNL     1      60.445  62.226  69.279  0.00  0.00    +0.000 C 
ATOM      6  F   UNL     1      60.928  61.558  69.307  0.00  0.00    +0.000 F 
ATOM      7  F   UNL     1      59.962  62.894  69.250  0.00  0.00    +0.000 F 
ATOM      8  C   UNL     1      60.558  62.342  70.087  0.00  0.00    +0.000 C 
ATOM      9  F   UNL     1      61.042  61.674  70.116  0.00  0.00    +0.000 F 
ATOM     10  F   UNL     1      60.075  63.010  70.059  0.00  0.00    +0.000 F 
ATOM     11  N   UNL     1      60.672  62.459  70.896  0.00  0.00    +0.000 NA
ATOM     12  C   UNL     1      60.311  63.095  71.277  0.00  0.00    +0.000 C 
ATOM     13  F   UNL     1      60.651  62.863  71.991  0.00  0.00    +0.000 F 
ATOM     14  F   UNL     1      59.970  63.329  70.561  0.00  0.00    +0.000 F 
ATOM     15  C   UNL     1      59.949  63.733  71.656  0.00  0.00    +0.000 C 
ATOM     16  F   UNL     1      60.289  63.499  72.371  0.00  0.00    +0.000 F 
ATOM     17  F   UNL     1      59.609  63.965  70.941  0.00  0.00    +0.000 F 
ATOM     18  C   UNL     1      59.587  64.369  72.035  0.00  0.00    +0.000 C 
ATOM     19  F   UNL     1      59.226  65.006  72.416  0.00  0.00    +0.000 F 
ATOM     20  F   UNL     1      59.927  64.136  72.750  0.00  0.00    +0.000 F 
ATOM     21  F   UNL     1      59.247  64.603  71.321  0.00  0.00    +0.000 F 
ATOM     22  C   UNL     1      61.148  61.938  71.326  0.00  0.00    +0.000 C 
ATOM     23  F   UNL     1      61.291  61.504  70.639  0.00  0.00    +0.000 F 
ATOM     24  F   UNL     1      61.004  62.373  72.011  0.00  0.00    +0.000 F 
ATOM     25  C   UNL     1      61.623  61.418  71.754  0.00  0.00    +0.000 C 
ATOM     26  F   UNL     1      61.766  60.983  71.067  0.00  0.00    +0.000 F 
ATOM     27  F   UNL     1      61.479  61.854  72.441  0.00  0.00    +0.000 F 
ATOM     28  C   UNL     1      62.098  60.897  72.182  0.00  0.00    +0.000 C 
ATOM     29  F   UNL     1      62.241  60.463  71.497  0.00  0.00    +0.000 F 
ATOM     30  F   UNL     1      61.955  61.333  72.869  0.00  0.00    +0.000 F 
ATOM     31  F   UNL     1      62.573  60.377  72.612  0.00  0.00    +0.000 F 
ENDROOT
TORSDOF 0
ENDMDL
MODEL 2
REMARK VINA RESULT:   -15.333      0.038      2.904
REMARK INTER + INTRA:         -15.333
REMARK INTER:                 -15.333
REMARK INTRA:                   0.000
REMARK UNBOUND:                 0.000
ROOT
REMARK  Name = perfluamine
REMARK                            x       y       z     vdW  Elec       q    Type
REMARK                         _______ _______ _______ _____ _____    ______ ____
ATOM      1  F   UNL     1      62.563  60.376  72.650  0.00  0.00    +0.000 F 
ATOM      2  C   UNL     1      62.093  60.899  72.218  0.00  0.00    +0.000 C 
ATOM      3  F   UNL     1      62.228  60.457  71.535  0.00  0.00    +0.000 F 
ATOM      4  F   UNL     1      61.958  61.342  72.901  0.00  0.00    +0.000 F 
ATOM      5  C   UNL     1      61.623  61.422  71.786  0.00  0.00    +0.000 C 
ATOM      6  F   UNL     1      61.758  60.980  71.103  0.00  0.00    +0.000 F 
ATOM      7  F   UNL     1      61.489  61.865  72.469  0.00  0.00    +0.000 F 
ATOM      8  C   UNL     1      61.154  61.945  71.354  0.00  0.00    +0.000 C 
ATOM      9  F   UNL     1      61.288  61.503  70.671  0.00  0.00    +0.000 F 
ATOM     10  F   UNL     1      61.019  62.388  72.037  0.00  0.00    +0.000 F 
ATOM     11  N   UNL     1      60.684  62.468  70.923  0.00  0.00    +0.000 NA
ATOM     12  C   UNL     1      60.332  63.113  71.298  0.00  0.00    +0.000 C 
ATOM     13  F   UNL     1      59.993  63.345  70.583  0.00  0.00    +0.000 F 
ATOM     14  F   UNL     1      60.671  62.881  72.014  0.00  0.00    +0.000 F 
ATOM     15  C   UNL     1      59.980  63.758  71.674  0.00  0.00    +0.000 C 
ATOM     16  F   UNL     1      59.641  63.990  70.958  0.00  0.00    +0.000 F 
ATOM     17  F   UNL     1      60.320  63.526  72.389  0.00  0.00    +0.000 F 
ATOM     18  C   UNL     1      59.629  64.402  72.049  0.00  0.00    +0.000 C 
ATOM     19  F   UNL     1      59.277  65.048  72.425  0.00  0.00    +0.000 F 
ATOM     20  F   UNL     1      59.289  64.634  71.334  0.00  0.00    +0.000 F 
ATOM     21  F   UNL     1      59.968  64.171  72.765  0.00  0.00    +0.000 F 
ATOM     22  C   UNL     1      60.565  62.346  70.115  0.00  0.00    +0.000 C 
ATOM     23  F   UNL     1      61.040  61.672  70.148  0.00  0.00    +0.000 F 
ATOM     24  F   UNL     1      60.091  63.021  70.083  0.00  0.00    +0.000 F 
ATOM     25  C   UNL     1      60.448  62.224  69.308  0.00  0.00    +0.000 C 
ATOM     26  F   UNL     1      60.922  61.550  69.340  0.00  0.00    +0.000 F 
ATOM     27  F   UNL     1      59.973  62.899  69.276  0.00  0.00    +0.000 F 
ATOM     28  C   UNL     1      60.330  62.102  68.500  0.00  0.00    +0.000 C 
ATOM     29  F   UNL     1      60.804  61.428  68.533  0.00  0.00    +0.000 F 
ATOM     30  F   UNL     1      59.855  62.777  68.468  0.00  0.00    +0.000 F 
ATOM     31  F   UNL     1      60.211  61.981  67.693  0.00  0.00    +0.000 F 
ENDROOT
TORSDOF 0
ENDMDL
MODEL 3
REMARK VINA RESULT:   -15.323      0.043      3.559
REMARK INTER + INTRA:         -15.323
REMARK INTER:                 -15.323
REMARK INTRA:                   0.000
REMARK UNBOUND:                 0.000
ROOT
REMARK  Name = perfluamine
REMARK                            x       y       z     vdW  Elec       q    Type
REMARK                         _______ _______ _______ _____ _____    ______ ____
ATOM      1  F   UNL     1      62.545  60.401  72.642  0.00  0.00    +0.000 F 
ATOM      2  C   UNL     1      62.070  60.919  72.212  0.00  0.00    +0.000 C 
ATOM      3  F   UNL     1      61.925  61.355  72.897  0.00  0.00    +0.000 F 
ATOM      4  F   UNL     1      62.215  60.484  71.527  0.00  0.00    +0.000 F 
ATOM      5  C   UNL     1      61.594  61.438  71.782  0.00  0.00    +0.000 C 
ATOM      6  F   UNL     1      61.449  61.874  72.467  0.00  0.00    +0.000 F 
ATOM      7  F   UNL     1      61.739  61.002  71.096  0.00  0.00    +0.000 F 
ATOM      8  C   UNL     1      61.118  61.957  71.351  0.00  0.00    +0.000 C 
ATOM      9  F   UNL     1      60.973  62.392  72.037  0.00  0.00    +0.000 F 
ATOM     10  F   UNL     1      61.263  61.521  70.666  0.00  0.00    +0.000 F 
ATOM     11  N   UNL     1      60.642  62.475  70.921  0.00  0.00    +0.000 NA
ATOM     12  C   UNL     1      60.529  62.358  70.112  0.00  0.00    +0.000 C 
ATOM     13  F   UNL     1      60.045  63.024  70.082  0.00  0.00    +0.000 F 
ATOM     14  F   UNL     1      61.014  61.690  70.142  0.00  0.00    +0.000 F 
ATOM     15  C   UNL     1      60.417  62.239  69.303  0.00  0.00    +0.000 C 
ATOM     16  F   UNL     1      59.932  62.907  69.274  0.00  0.00    +0.000 F 
ATOM     17  F   UNL     1      60.902  61.572  69.334  0.00  0.00    +0.000 F 
ATOM     18  C   UNL     1      60.305  62.121  68.495  0.00  0.00    +0.000 C 
ATOM     19  F   UNL     1      60.192  62.003  67.686  0.00  0.00    +0.000 F 
ATOM     20  F   UNL     1      59.820  62.789  68.465  0.00  0.00    +0.000 F 
ATOM     21  F   UNL     1      60.789  61.454  68.525  0.00  0.00    +0.000 F 
ATOM     22  C   UNL     1      60.278  63.113  71.300  0.00  0.00    +0.000 C 
ATOM     23  F   UNL     1      60.618  62.881  72.015  0.00  0.00    +0.000 F 
ATOM     24  F   UNL     1      59.939  63.343  70.584  0.00  0.00    +0.000 F 
ATOM     25  C   UNL     1      59.915  63.749  71.678  0.00  0.00    +0.000 C 
ATOM     26  F   UNL     1      60.255  63.517  72.394  0.00  0.00    +0.000 F 
ATOM     27  F   UNL     1      59.575  63.980  70.962  0.00  0.00    +0.000 F 
ATOM     28  C   UNL     1      59.552  64.385  72.057  0.00  0.00    +0.000 C 
ATOM     29  F   UNL     1      59.891  64.154  72.772  0.00  0.00    +0.000 F 
ATOM     30  F   UNL     1      59.212  64.617  71.341  0.00  0.00    +0.000 F 
ATOM     31  F   UNL     1      59.188  65.022  72.435  0.00  0.00    +0.000 F 
ENDROOT
TORSDOF 0
ENDMDL
MODEL 4
REMARK VINA RESULT:   -15.323      0.083      2.905
REMARK INTER + INTRA:         -15.323
REMARK INTER:                 -15.323
REMARK INTRA:                   0.000
REMARK UNBOUND:                 0.000
ROOT
REMARK  Name = perfluamine
REMARK                            x       y       z     vdW  Elec       q    Type
REMARK                         _______ _______ _______ _____ _____    ______ ____
ATOM      1  F   UNL     1      60.245  61.976  67.732  0.00  0.00    +0.000 F 
ATOM      2  C   UNL     1      60.359  62.090  68.541  0.00  0.00    +0.000 C 
ATOM      3  F   UNL     1      59.871  62.755  68.516  0.00  0.00    +0.000 F 
ATOM      4  F   UNL     1      60.847  61.425  68.566  0.00  0.00    +0.000 F 
ATOM      5  C   UNL     1      60.472  62.204  69.350  0.00  0.00    +0.000 C 
ATOM      6  F   UNL     1      59.984  62.868  69.326  0.00  0.00    +0.000 F 
ATOM      7  F   UNL     1      60.960  61.539  69.375  0.00  0.00    +0.000 F 
ATOM      8  C   UNL     1      60.586  62.317  70.160  0.00  0.00    +0.000 C 
ATOM      9  F   UNL     1      60.098  62.982  70.135  0.00  0.00    +0.000 F 
ATOM     10  F   UNL     1      61.074  61.652  70.185  0.00  0.00    +0.000 F 
ATOM     11  N   UNL     1      60.699  62.431  70.969  0.00  0.00    +0.000 NA
ATOM     12  C   UNL     1      61.178  61.912  71.396  0.00  0.00    +0.000 C 
ATOM     13  F   UNL     1      61.033  62.343  72.083  0.00  0.00    +0.000 F 
ATOM     14  F   UNL     1      61.324  61.481  70.707  0.00  0.00    +0.000 F 
ATOM     15  C   UNL     1      61.658  61.393  71.821  0.00  0.00    +0.000 C 
ATOM     16  F   UNL     1      61.512  61.824  72.510  0.00  0.00    +0.000 F 
ATOM     17  F   UNL     1      61.803  60.963  71.132  0.00  0.00    +0.000 F 
ATOM     18  C   UNL     1      62.137  60.874  72.247  0.00  0.00    +0.000 C 
ATOM     19  F   UNL     1      62.617  60.355  72.674  0.00  0.00    +0.000 F 
ATOM     20  F   UNL     1      61.992  61.305  72.936  0.00  0.00    +0.000 F 
ATOM     21  F   UNL     1      62.283  60.443  71.559  0.00  0.00    +0.000 F 
ATOM     22  C   UNL     1      60.333  63.064  71.352  0.00  0.00    +0.000 C 
ATOM     23  F   UNL     1      59.991  63.297  70.639  0.00  0.00    +0.000 F 
ATOM     24  F   UNL     1      60.676  62.829  72.065  0.00  0.00    +0.000 F 
ATOM     25  C   UNL     1      59.968  63.696  71.735  0.00  0.00    +0.000 C 
ATOM     26  F   UNL     1      59.625  63.930  71.021  0.00  0.00    +0.000 F 
ATOM     27  F   UNL     1      60.310  63.461  72.449  0.00  0.00    +0.000 F 
ATOM     28  C   UNL     1      59.601  64.329  72.117  0.00  0.00    +0.000 C 
ATOM     29  F   UNL     1      59.259  64.562  71.405  0.00  0.00    +0.000 F 
ATOM     30  F   UNL     1      59.944  64.094  72.831  0.00  0.00    +0.000 F 
ATOM     31  F   UNL     1      59.236  64.961  72.501  0.00  0.00    +0.000 F 
ENDROOT
TORSDOF 0
ENDMDL
MODEL 5
REMARK VINA RESULT:   -14.861      0.496      3.379
REMARK INTER + INTRA:         -14.861
REMARK INTER:                 -14.861
REMARK INTRA:                   0.000
REMARK UNBOUND:                 0.000
ROOT
REMARK  Name = perfluamine
REMARK                            x       y       z     vdW  Elec       q    Type
REMARK                         _______ _______ _______ _____ _____    ______ ____
ATOM      1  F   UNL     1      59.218  65.634  71.914  0.00  0.00    +0.000 F 
ATOM      2  C   UNL     1      59.569  64.924  71.683  0.00  0.00    +0.000 C 
ATOM      3  F   UNL     1      59.277  65.028  70.919  0.00  0.00    +0.000 F 
ATOM      4  F   UNL     1      59.860  64.819  72.448  0.00  0.00    +0.000 F 
ATOM      5  C   UNL     1      59.919  64.213  71.452  0.00  0.00    +0.000 C 
ATOM      6  F   UNL     1      59.628  64.318  70.688  0.00  0.00    +0.000 F 
ATOM      7  F   UNL     1      60.211  64.109  72.217  0.00  0.00    +0.000 F 
ATOM      8  C   UNL     1      60.270  63.503  71.221  0.00  0.00    +0.000 C 
ATOM      9  F   UNL     1      59.978  63.608  70.457  0.00  0.00    +0.000 F 
ATOM     10  F   UNL     1      60.562  63.398  71.986  0.00  0.00    +0.000 F 
ATOM     11  N   UNL     1      60.621  62.793  70.990  0.00  0.00    +0.000 NA
ATOM     12  C   UNL     1      61.048  62.347  71.537  0.00  0.00    +0.000 C 
ATOM     13  F   UNL     1      61.206  61.785  70.955  0.00  0.00    +0.000 F 
ATOM     14  F   UNL     1      60.891  62.910  72.120  0.00  0.00    +0.000 F 
ATOM     15  C   UNL     1      61.476  61.901  72.084  0.00  0.00    +0.000 C 
ATOM     16  F   UNL     1      61.634  61.338  71.501  0.00  0.00    +0.000 F 
ATOM     17  F   UNL     1      61.318  62.465  72.666  0.00  0.00    +0.000 F 
ATOM     18  C   UNL     1      61.904  61.456  72.630  0.00  0.00    +0.000 C 
ATOM     19  F   UNL     1      62.332  61.010  73.177  0.00  0.00    +0.000 F 
ATOM     20  F   UNL     1      62.062  60.893  72.048  0.00  0.00    +0.000 F 
ATOM     21  F   UNL     1      61.746  62.018  73.213  0.00  0.00    +0.000 F 
ATOM     22  C   UNL     1      60.543  62.528  70.212  0.00  0.00    +0.000 C 
ATOM     23  F   UNL     1      60.094  63.196  70.030  0.00  0.00    +0.000 F 
ATOM     24  F   UNL     1      60.993  61.861  70.395  0.00  0.00    +0.000 F 
ATOM     25  C   UNL     1      60.466  62.264  69.435  0.00  0.00    +0.000 C 
ATOM     26  F   UNL     1      60.016  62.932  69.252  0.00  0.00    +0.000 F 
ATOM     27  F   UNL     1      60.916  61.596  69.618  0.00  0.00    +0.000 F 
ATOM     28  C   UNL     1      60.389  62.000  68.657  0.00  0.00    +0.000 C 
ATOM     29  F   UNL     1      59.940  62.667  68.475  0.00  0.00    +0.000 F 
ATOM     30  F   UNL     1      60.838  61.332  68.840  0.00  0.00    +0.000 F 
ATOM     31  F   UNL     1      60.312  61.736  67.880  0.00  0.00    +0.000 F 
ENDROOT
TORSDOF 0
ENDMDL
MODEL 6
REMARK VINA RESULT:   -14.716      0.644      2.942
REMARK INTER + INTRA:         -14.716
REMARK INTER:                 -14.716
REMARK INTRA:                   0.000
REMARK UNBOUND:                 0.000
ROOT
REMARK  Name = perfluamine
REMARK                            x       y       z     vdW  Elec       q    Type
REMARK                         _______ _______ _______ _____ _____    ______ ____
ATOM      1  F   UNL     1      59.246  65.884  71.576  0.00  0.00    +0.000 F 
ATOM      2  C   UNL     1      59.586  65.153  71.402  0.00  0.00    +0.000 C 
ATOM      3  F   UNL     1      59.859  65.096  72.178  0.00  0.00    +0.000 F 
ATOM      4  F   UNL     1      59.312  65.210  70.626  0.00  0.00    +0.000 F 
ATOM      5  C   UNL     1      59.926  64.422  71.228  0.00  0.00    +0.000 C 
ATOM      6  F   UNL     1      60.199  64.364  72.004  0.00  0.00    +0.000 F 
ATOM      7  F   UNL     1      59.652  64.479  70.452  0.00  0.00    +0.000 F 
ATOM      8  C   UNL     1      60.266  63.690  71.054  0.00  0.00    +0.000 C 
ATOM      9  F   UNL     1      60.539  63.633  71.830  0.00  0.00    +0.000 F 
ATOM     10  F   UNL     1      59.992  63.748  70.278  0.00  0.00    +0.000 F 
ATOM     11  N   UNL     1      60.606  62.959  70.880  0.00  0.00    +0.000 NA
ATOM     12  C   UNL     1      60.539  62.643  70.121  0.00  0.00    +0.000 C 
ATOM     13  F   UNL     1      60.970  61.981  70.358  0.00  0.00    +0.000 F 
ATOM     14  F   UNL     1      60.107  63.305  69.884  0.00  0.00    +0.000 F 
ATOM     15  C   UNL     1      60.471  62.327  69.362  0.00  0.00    +0.000 C 
ATOM     16  F   UNL     1      60.903  61.665  69.600  0.00  0.00    +0.000 F 
ATOM     17  F   UNL     1      60.040  62.990  69.125  0.00  0.00    +0.000 F 
ATOM     18  C   UNL     1      60.404  62.012  68.603  0.00  0.00    +0.000 C 
ATOM     19  F   UNL     1      60.337  61.695  67.843  0.00  0.00    +0.000 F 
ATOM     20  F   UNL     1      60.836  61.349  68.840  0.00  0.00    +0.000 F 
ATOM     21  F   UNL     1      59.973  62.673  68.365  0.00  0.00    +0.000 F 
ATOM     22  C   UNL     1      61.013  62.543  71.466  0.00  0.00    +0.000 C 
ATOM     23  F   UNL     1      60.855  63.148  72.004  0.00  0.00    +0.000 F 
ATOM     24  F   UNL     1      61.170  61.939  70.927  0.00  0.00    +0.000 F 
ATOM     25  C   UNL     1      61.419  62.128  72.051  0.00  0.00    +0.000 C 
ATOM     26  F   UNL     1      61.262  62.733  72.590  0.00  0.00    +0.000 F 
ATOM     27  F   UNL     1      61.577  61.523  71.511  0.00  0.00    +0.000 F 
ATOM     28  C   UNL     1      61.826  61.713  72.636  0.00  0.00    +0.000 C 
ATOM     29  F   UNL     1      61.669  62.317  73.175  0.00  0.00    +0.000 F 
ATOM     30  F   UNL     1      61.984  61.108  72.097  0.00  0.00    +0.000 F 
ATOM     31  F   UNL     1      62.233  61.297  73.221  0.00  0.00    +0.000 F 
ENDROOT
TORSDOF 0
ENDMDL
MODEL 7
REMARK VINA RESULT:   -13.928      1.697      2.477
REMARK INTER + INTRA:         -13.928
REMARK INTER:                 -13.928
REMARK INTRA:                   0.000
REMARK UNBOUND:                 0.000
ROOT
REMARK  Name = perfluamine
REMARK                            x       y       z     vdW  Elec       q    Type
REMARK                         _______ _______ _______ _____ _____    ______ ____
ATOM      1  F   UNL     1      61.701  62.528  65.921  0.00  0.00    +0.000 F 
ATOM      2  C   UNL     1      61.388  62.728  66.658  0.00  0.00    +0.000 C 
ATOM      3  F   UNL     1      61.505  61.954  66.917  0.00  0.00    +0.000 F 
ATOM      4  F   UNL     1      61.272  63.503  66.398  0.00  0.00    +0.000 F 
ATOM      5  C   UNL     1      61.076  62.928  67.395  0.00  0.00    +0.000 C 
ATOM      6  F   UNL     1      61.193  62.154  67.654  0.00  0.00    +0.000 F 
ATOM      7  F   UNL     1      60.960  63.703  67.135  0.00  0.00    +0.000 F 
ATOM      8  C   UNL     1      60.764  63.129  68.131  0.00  0.00    +0.000 C 
ATOM      9  F   UNL     1      60.881  62.354  68.391  0.00  0.00    +0.000 F 
ATOM     10  F   UNL     1      60.647  63.903  67.872  0.00  0.00    +0.000 F 
ATOM     11  N   UNL     1      60.452  63.329  68.868  0.00  0.00    +0.000 NA
ATOM     12  C   UNL     1      60.195  64.099  69.013  0.00  0.00    +0.000 C 
ATOM     13  F   UNL     1      59.983  63.886  69.780  0.00  0.00    +0.000 F 
ATOM     14  F   UNL     1      60.407  64.313  68.244  0.00  0.00    +0.000 F 
ATOM     15  C   UNL     1      59.938  64.870  69.156  0.00  0.00    +0.000 C 
ATOM     16  F   UNL     1      59.725  64.656  69.924  0.00  0.00    +0.000 F 
ATOM     17  F   UNL     1      60.150  65.083  68.387  0.00  0.00    +0.000 F 
ATOM     18  C   UNL     1      59.681  65.640  69.299  0.00  0.00    +0.000 C 
ATOM     19  F   UNL     1      59.423  66.411  69.443  0.00  0.00    +0.000 F 
ATOM     20  F   UNL     1      59.468  65.427  70.067  0.00  0.00    +0.000 F 
ATOM     21  F   UNL     1      59.893  65.855  68.531  0.00  0.00    +0.000 F 
ATOM     22  C   UNL     1      60.397  62.758  69.462  0.00  0.00    +0.000 C 
ATOM     23  F   UNL     1      60.725  62.198  68.953  0.00  0.00    +0.000 F 
ATOM     24  F   UNL     1      60.068  63.319  69.970  0.00  0.00    +0.000 F 
ATOM     25  C   UNL     1      60.341  62.188  70.055  0.00  0.00    +0.000 C 
ATOM     26  F   UNL     1      60.670  61.626  69.546  0.00  0.00    +0.000 F 
ATOM     27  F   UNL     1      60.013  62.749  70.564  0.00  0.00    +0.000 F 
ATOM     28  C   UNL     1      60.287  61.616  70.648  0.00  0.00    +0.000 C 
ATOM     29  F   UNL     1      60.615  61.056  70.140  0.00  0.00    +0.000 F 
ATOM     30  F   UNL     1      59.958  62.177  71.157  0.00  0.00    +0.000 F 
ATOM     31  F   UNL     1      60.231  61.046  71.242  0.00  0.00    +0.000 F 
ENDROOT
TORSDOF 0
ENDMDL
MODEL 8
REMARK VINA RESULT:   -13.917      1.693      4.377
REMARK INTER + INTRA:         -13.917
REMARK INTER:                 -13.917
REMARK INTRA:                   0.000
REMARK UNBOUND:                 0.000
ROOT
REMARK  Name = perfluamine
REMARK                            x       y       z     vdW  Elec       q    Type
REMARK                         _______ _______ _______ _____ _____    ______ ____
ATOM      1  F   UNL     1      60.383  61.003  71.224  0.00  0.00    +0.000 F 
ATOM      2  C   UNL     1      60.417  61.572  70.629  0.00  0.00    +0.000 C 
ATOM      3  F   UNL     1      60.058  62.119  71.131  0.00  0.00    +0.000 F 
ATOM      4  F   UNL     1      60.777  61.025  70.126  0.00  0.00    +0.000 F 
ATOM      5  C   UNL     1      60.451  62.142  70.033  0.00  0.00    +0.000 C 
ATOM      6  F   UNL     1      60.092  62.689  70.535  0.00  0.00    +0.000 F 
ATOM      7  F   UNL     1      60.810  61.595  69.530  0.00  0.00    +0.000 F 
ATOM      8  C   UNL     1      60.485  62.712  69.437  0.00  0.00    +0.000 C 
ATOM      9  F   UNL     1      60.126  63.258  69.939  0.00  0.00    +0.000 F 
ATOM     10  F   UNL     1      60.844  62.165  68.934  0.00  0.00    +0.000 F 
ATOM     11  N   UNL     1      60.519  63.281  68.841  0.00  0.00    +0.000 NA
ATOM     12  C   UNL     1      60.847  63.093  68.108  0.00  0.00    +0.000 C 
ATOM     13  F   UNL     1      60.697  63.859  67.843  0.00  0.00    +0.000 F 
ATOM     14  F   UNL     1      60.997  62.326  68.373  0.00  0.00    +0.000 F 
ATOM     15  C   UNL     1      61.175  62.904  67.375  0.00  0.00    +0.000 C 
ATOM     16  F   UNL     1      61.025  63.671  67.110  0.00  0.00    +0.000 F 
ATOM     17  F   UNL     1      61.325  62.137  67.641  0.00  0.00    +0.000 F 
ATOM     18  C   UNL     1      61.503  62.715  66.643  0.00  0.00    +0.000 C 
ATOM     19  F   UNL     1      61.832  62.526  65.909  0.00  0.00    +0.000 F 
ATOM     20  F   UNL     1      61.353  63.482  66.377  0.00  0.00    +0.000 F 
ATOM     21  F   UNL     1      61.654  61.948  66.907  0.00  0.00    +0.000 F 
ATOM     22  C   UNL     1      60.224  64.040  68.978  0.00  0.00    +0.000 C 
ATOM     23  F   UNL     1      60.015  63.820  69.745  0.00  0.00    +0.000 F 
ATOM     24  F   UNL     1      60.433  64.260  68.211  0.00  0.00    +0.000 F 
ATOM     25  C   UNL     1      59.930  64.798  69.115  0.00  0.00    +0.000 C 
ATOM     26  F   UNL     1      59.721  64.578  69.883  0.00  0.00    +0.000 F 
ATOM     27  F   UNL     1      60.139  65.018  68.348  0.00  0.00    +0.000 F 
ATOM     28  C   UNL     1      59.636  65.557  69.253  0.00  0.00    +0.000 C 
ATOM     29  F   UNL     1      59.427  65.337  70.020  0.00  0.00    +0.000 F 
ATOM     30  F   UNL     1      59.845  65.776  68.485  0.00  0.00    +0.000 F 
ATOM     31  F   UNL     1      59.342  66.315  69.390  0.00  0.00    +0.000 F 
ENDROOT
TORSDOF 0
ENDMDL
MODEL 9
REMARK VINA RESULT:   -13.913      1.728      3.842
REMARK INTER + INTRA:         -13.913
REMARK INTER:                 -13.913
REMARK INTRA:                   0.000
REMARK UNBOUND:                 0.000
ROOT
REMARK  Name = perfluamine
REMARK                            x       y       z     vdW  Elec       q    Type
REMARK                         _______ _______ _______ _____ _____    ______ ____
ATOM      1  F   UNL     1      60.506  60.946  71.406  0.00  0.00    +0.000 F 
ATOM      2  C   UNL     1      60.495  61.460  70.761  0.00  0.00    +0.000 C 
ATOM      3  F   UNL     1      60.115  60.884  70.308  0.00  0.00    +0.000 F 
ATOM      4  F   UNL     1      60.875  62.036  71.213  0.00  0.00    +0.000 F 
ATOM      5  C   UNL     1      60.484  61.974  70.116  0.00  0.00    +0.000 C 
ATOM      6  F   UNL     1      60.104  61.399  69.663  0.00  0.00    +0.000 F 
ATOM      7  F   UNL     1      60.864  62.550  70.568  0.00  0.00    +0.000 F 
ATOM      8  C   UNL     1      60.473  62.489  69.471  0.00  0.00    +0.000 C 
ATOM      9  F   UNL     1      60.093  61.913  69.018  0.00  0.00    +0.000 F 
ATOM     10  F   UNL     1      60.852  63.065  69.923  0.00  0.00    +0.000 F 
ATOM     11  N   UNL     1      60.461  63.003  68.826  0.00  0.00    +0.000 NA
ATOM     12  C   UNL     1      60.784  63.759  68.895  0.00  0.00    +0.000 C 
ATOM     13  F   UNL     1      60.585  63.916  68.110  0.00  0.00    +0.000 F 
ATOM     14  F   UNL     1      60.984  63.601  69.680  0.00  0.00    +0.000 F 
ATOM     15  C   UNL     1      61.108  64.515  68.965  0.00  0.00    +0.000 C 
ATOM     16  F   UNL     1      60.908  64.672  68.179  0.00  0.00    +0.000 F 
ATOM     17  F   UNL     1      61.307  64.357  69.750  0.00  0.00    +0.000 F 
ATOM     18  C   UNL     1      61.431  65.270  69.034  0.00  0.00    +0.000 C 
ATOM     19  F   UNL     1      61.754  66.027  69.104  0.00  0.00    +0.000 F 
ATOM     20  F   UNL     1      61.231  65.428  68.249  0.00  0.00    +0.000 F 
ATOM     21  F   UNL     1      61.631  65.113  69.819  0.00  0.00    +0.000 F 
ATOM     22  C   UNL     1      60.126  62.761  68.111  0.00  0.00    +0.000 C 
ATOM     23  F   UNL     1      59.947  62.028  68.444  0.00  0.00    +0.000 F 
ATOM     24  F   UNL     1      60.307  63.495  67.779  0.00  0.00    +0.000 F 
ATOM     25  C   UNL     1      59.792  62.520  67.397  0.00  0.00    +0.000 C 
ATOM     26  F   UNL     1      59.612  61.786  67.729  0.00  0.00    +0.000 F 
ATOM     27  F   UNL     1      59.972  63.254  67.065  0.00  0.00    +0.000 F 
ATOM     28  C   UNL     1      59.457  62.278  66.683  0.00  0.00    +0.000 C 
ATOM     29  F   UNL     1      59.278  61.545  67.015  0.00  0.00    +0.000 F 
ATOM     30  F   UNL     1      59.638  63.012  66.350  0.00  0.00    +0.000 F 
ATOM     31  F   UNL     1      59.123  62.037  65.968  0.00  0.00    +0.000 F 
ENDROOT
TORSDOF 0
ENDMDL
