MODEL 1
REMARK VINA RESULT:   -12.386      0.000      0.000
REMARK INTER + INTRA:         -12.386
REMARK INTER:                 -12.386
REMARK INTRA:                   0.000
REMARK UNBOUND:                 0.000
ROOT
REMARK  Name = periciazine
REMARK                            x       y       z     vdW  Elec       q    Type
REMARK                         _______ _______ _______ _____ _____    ______ ____
ATOM      1  O   UNL     1      61.871  61.169  65.512  0.00  0.00    +0.000 OA
ATOM      2  C   UNL     1      61.622  61.771  66.020  0.00  0.00    +0.000 C 
ATOM      3  C   UNL     1      61.472  61.605  66.814  0.00  0.00    +0.000 C 
ATOM      4  C   UNL     1      61.223  62.206  67.320  0.00  0.00    +0.000 C 
ATOM      5  N   UNL     1      61.124  62.973  67.034  0.00  0.00    +0.000 NA
ATOM      6  C   UNL     1      60.875  63.574  67.540  0.00  0.00    +0.000 C 
ATOM      7  C   UNL     1      60.725  63.409  68.335  0.00  0.00    +0.000 C 
ATOM      8  C   UNL     1      60.476  64.010  68.842  0.00  0.00    +0.000 C 
ATOM      9  N   UNL     1      60.326  63.845  69.635  0.00  0.00    +0.000 N 
ATOM     10  C   UNL     1      60.425  63.077  69.923  0.00  0.00    +0.000 A 
ATOM     11  C   UNL     1      60.674  62.476  69.415  0.00  0.00    +0.000 A 
ATOM     12  C   UNL     1      60.774  61.709  69.703  0.00  0.00    +0.000 A 
ATOM     13  C   UNL     1      60.624  61.543  70.497  0.00  0.00    +0.000 A 
ATOM     14  C   UNL     1      60.375  62.145  71.004  0.00  0.00    +0.000 A 
ATOM     15  C   UNL     1      60.275  62.911  70.717  0.00  0.00    +0.000 A 
ATOM     16  S   UNL     1      60.026  63.513  71.224  0.00  0.00    +0.000 S 
ATOM     17  C   UNL     1      59.927  64.280  70.937  0.00  0.00    +0.000 A 
ATOM     18  C   UNL     1      59.679  64.881  71.443  0.00  0.00    +0.000 A 
ATOM     19  C   UNL     1      59.579  65.648  71.157  0.00  0.00    +0.000 A 
ATOM     20  C   UNL     1      59.729  65.814  70.363  0.00  0.00    +0.000 A 
ATOM     21  C   UNL     1      59.978  65.212  69.855  0.00  0.00    +0.000 A 
ATOM     22  C   UNL     1      60.077  64.445  70.143  0.00  0.00    +0.000 A 
ATOM     23  C   UNL     1      59.630  66.581  70.075  0.00  0.00    +0.000 C 
ATOM     24  N   UNL     1      59.531  67.348  69.788  0.00  0.00    +0.000 NA
ATOM     25  C   UNL     1      61.274  63.139  66.240  0.00  0.00    +0.000 C 
ATOM     26  C   UNL     1      61.523  62.537  65.732  0.00  0.00    +0.000 C 
ENDROOT
TORSDOF 0
ENDMDL
MODEL 2
REMARK VINA RESULT:   -12.355      3.106      4.435
REMARK INTER + INTRA:         -12.355
REMARK INTER:                 -12.355
REMARK INTRA:                   0.000
REMARK UNBOUND:                 0.000
ROOT
REMARK  Name = periciazine
REMARK                            x       y       z     vdW  Elec       q    Type
REMARK                         _______ _______ _______ _____ _____    ______ ____
ATOM      1  O   UNL     1      65.144  67.013  71.554  0.00  0.00    +0.000 OA
ATOM      2  C   UNL     1      64.684  66.509  71.088  0.00  0.00    +0.000 C 
ATOM      3  C   UNL     1      64.142  65.999  71.444  0.00  0.00    +0.000 C 
ATOM      4  C   UNL     1      63.683  65.496  70.979  0.00  0.00    +0.000 C 
ATOM      5  N   UNL     1      63.765  65.503  70.158  0.00  0.00    +0.000 NA
ATOM      6  C   UNL     1      63.306  65.000  69.693  0.00  0.00    +0.000 C 
ATOM      7  C   UNL     1      62.764  64.490  70.049  0.00  0.00    +0.000 C 
ATOM      8  C   UNL     1      62.304  63.986  69.584  0.00  0.00    +0.000 C 
ATOM      9  N   UNL     1      61.763  63.477  69.939  0.00  0.00    +0.000 N 
ATOM     10  C   UNL     1      61.680  63.470  70.760  0.00  0.00    +0.000 A 
ATOM     11  C   UNL     1      62.140  63.973  71.225  0.00  0.00    +0.000 A 
ATOM     12  C   UNL     1      62.057  63.966  72.046  0.00  0.00    +0.000 A 
ATOM     13  C   UNL     1      61.514  63.456  72.402  0.00  0.00    +0.000 A 
ATOM     14  C   UNL     1      61.055  62.953  71.936  0.00  0.00    +0.000 A 
ATOM     15  C   UNL     1      61.138  62.960  71.116  0.00  0.00    +0.000 A 
ATOM     16  S   UNL     1      60.679  62.457  70.650  0.00  0.00    +0.000 S 
ATOM     17  C   UNL     1      60.761  62.463  69.830  0.00  0.00    +0.000 A 
ATOM     18  C   UNL     1      60.302  61.960  69.365  0.00  0.00    +0.000 A 
ATOM     19  C   UNL     1      60.384  61.967  68.544  0.00  0.00    +0.000 A 
ATOM     20  C   UNL     1      60.927  62.477  68.188  0.00  0.00    +0.000 A 
ATOM     21  C   UNL     1      61.386  62.981  68.654  0.00  0.00    +0.000 A 
ATOM     22  C   UNL     1      61.303  62.973  69.474  0.00  0.00    +0.000 A 
ATOM     23  C   UNL     1      61.010  62.484  67.367  0.00  0.00    +0.000 C 
ATOM     24  N   UNL     1      61.092  62.490  66.547  0.00  0.00    +0.000 NA
ATOM     25  C   UNL     1      64.308  66.013  69.802  0.00  0.00    +0.000 C 
ATOM     26  C   UNL     1      64.767  66.516  70.268  0.00  0.00    +0.000 C 
ENDROOT
TORSDOF 0
ENDMDL
MODEL 3
REMARK VINA RESULT:   -12.090      1.924      2.013
REMARK INTER + INTRA:         -12.090
REMARK INTER:                 -12.090
REMARK INTRA:                   0.000
REMARK UNBOUND:                 0.000
ROOT
REMARK  Name = periciazine
REMARK                            x       y       z     vdW  Elec       q    Type
REMARK                         _______ _______ _______ _____ _____    ______ ____
ATOM      1  O   UNL     1      59.875  61.571  65.566  0.00  0.00    +0.000 OA
ATOM      2  C   UNL     1      60.284  62.043  66.106  0.00  0.00    +0.000 C 
ATOM      3  C   UNL     1      60.209  61.905  66.916  0.00  0.00    +0.000 C 
ATOM      4  C   UNL     1      60.617  62.377  67.454  0.00  0.00    +0.000 C 
ATOM      5  N   UNL     1      61.101  62.988  67.184  0.00  0.00    +0.000 NA
ATOM      6  C   UNL     1      61.510  63.460  67.722  0.00  0.00    +0.000 C 
ATOM      7  C   UNL     1      61.434  63.322  68.532  0.00  0.00    +0.000 C 
ATOM      8  C   UNL     1      61.843  63.794  69.072  0.00  0.00    +0.000 C 
ATOM      9  N   UNL     1      61.768  63.656  69.881  0.00  0.00    +0.000 N 
ATOM     10  C   UNL     1      61.284  63.045  70.152  0.00  0.00    +0.000 A 
ATOM     11  C   UNL     1      60.875  62.573  69.612  0.00  0.00    +0.000 A 
ATOM     12  C   UNL     1      60.391  61.962  69.884  0.00  0.00    +0.000 A 
ATOM     13  C   UNL     1      60.315  61.824  70.693  0.00  0.00    +0.000 A 
ATOM     14  C   UNL     1      60.724  62.297  71.232  0.00  0.00    +0.000 A 
ATOM     15  C   UNL     1      61.208  62.907  70.962  0.00  0.00    +0.000 A 
ATOM     16  S   UNL     1      61.617  63.380  71.500  0.00  0.00    +0.000 S 
ATOM     17  C   UNL     1      62.101  63.990  71.230  0.00  0.00    +0.000 A 
ATOM     18  C   UNL     1      62.509  64.462  71.768  0.00  0.00    +0.000 A 
ATOM     19  C   UNL     1      62.994  65.073  71.498  0.00  0.00    +0.000 A 
ATOM     20  C   UNL     1      63.069  65.211  70.688  0.00  0.00    +0.000 A 
ATOM     21  C   UNL     1      62.660  64.739  70.149  0.00  0.00    +0.000 A 
ATOM     22  C   UNL     1      62.176  64.128  70.420  0.00  0.00    +0.000 A 
ATOM     23  C   UNL     1      63.554  65.822  70.417  0.00  0.00    +0.000 C 
ATOM     24  N   UNL     1      64.038  66.433  70.147  0.00  0.00    +0.000 NA
ATOM     25  C   UNL     1      61.177  63.126  66.374  0.00  0.00    +0.000 C 
ATOM     26  C   UNL     1      60.768  62.654  65.835  0.00  0.00    +0.000 C 
ENDROOT
TORSDOF 0
ENDMDL
MODEL 4
REMARK VINA RESULT:   -11.753      2.066      4.499
REMARK INTER + INTRA:         -11.753
REMARK INTER:                 -11.753
REMARK INTRA:                   0.000
REMARK UNBOUND:                 0.000
ROOT
REMARK  Name = periciazine
REMARK                            x       y       z     vdW  Elec       q    Type
REMARK                         _______ _______ _______ _____ _____    ______ ____
ATOM      1  O   UNL     1      59.289  67.997  71.723  0.00  0.00    +0.000 OA
ATOM      2  C   UNL     1      59.483  67.435  71.149  0.00  0.00    +0.000 C 
ATOM      3  C   UNL     1      59.581  66.644  71.363  0.00  0.00    +0.000 C 
ATOM      4  C   UNL     1      59.774  66.084  70.790  0.00  0.00    +0.000 C 
ATOM      5  N   UNL     1      59.870  66.313  70.003  0.00  0.00    +0.000 NA
ATOM      6  C   UNL     1      60.063  65.753  69.430  0.00  0.00    +0.000 C 
ATOM      7  C   UNL     1      60.161  64.962  69.643  0.00  0.00    +0.000 C 
ATOM      8  C   UNL     1      60.355  64.400  69.070  0.00  0.00    +0.000 C 
ATOM      9  N   UNL     1      60.453  63.611  69.283  0.00  0.00    +0.000 N 
ATOM     10  C   UNL     1      60.358  63.380  70.070  0.00  0.00    +0.000 A 
ATOM     11  C   UNL     1      60.164  63.942  70.642  0.00  0.00    +0.000 A 
ATOM     12  C   UNL     1      60.069  63.711  71.430  0.00  0.00    +0.000 A 
ATOM     13  C   UNL     1      60.167  62.920  71.643  0.00  0.00    +0.000 A 
ATOM     14  C   UNL     1      60.361  62.360  71.069  0.00  0.00    +0.000 A 
ATOM     15  C   UNL     1      60.456  62.589  70.283  0.00  0.00    +0.000 A 
ATOM     16  S   UNL     1      60.649  62.029  69.709  0.00  0.00    +0.000 S 
ATOM     17  C   UNL     1      60.744  62.258  68.923  0.00  0.00    +0.000 A 
ATOM     18  C   UNL     1      60.938  61.698  68.350  0.00  0.00    +0.000 A 
ATOM     19  C   UNL     1      61.033  61.927  67.563  0.00  0.00    +0.000 A 
ATOM     20  C   UNL     1      60.935  62.718  67.350  0.00  0.00    +0.000 A 
ATOM     21  C   UNL     1      60.741  63.280  67.924  0.00  0.00    +0.000 A 
ATOM     22  C   UNL     1      60.646  63.049  68.710  0.00  0.00    +0.000 A 
ATOM     23  C   UNL     1      61.030  62.949  66.563  0.00  0.00    +0.000 C 
ATOM     24  N   UNL     1      61.125  63.178  65.777  0.00  0.00    +0.000 NA
ATOM     25  C   UNL     1      59.771  67.104  69.789  0.00  0.00    +0.000 C 
ATOM     26  C   UNL     1      59.578  67.666  70.363  0.00  0.00    +0.000 C 
ENDROOT
TORSDOF 0
ENDMDL
MODEL 5
REMARK VINA RESULT:   -11.212      2.103      3.612
REMARK INTER + INTRA:         -11.212
REMARK INTER:                 -11.212
REMARK INTRA:                   0.000
REMARK UNBOUND:                 0.000
ROOT
REMARK  Name = periciazine
REMARK                            x       y       z     vdW  Elec       q    Type
REMARK                         _______ _______ _______ _____ _____    ______ ____
ATOM      1  O   UNL     1      62.309  60.334  72.468  0.00  0.00    +0.000 OA
ATOM      2  C   UNL     1      62.009  61.091  72.325  0.00  0.00    +0.000 C 
ATOM      3  C   UNL     1      61.769  61.302  71.565  0.00  0.00    +0.000 C 
ATOM      4  C   UNL     1      61.470  62.057  71.422  0.00  0.00    +0.000 C 
ATOM      5  N   UNL     1      61.411  62.602  72.040  0.00  0.00    +0.000 NA
ATOM      6  C   UNL     1      61.112  63.357  71.897  0.00  0.00    +0.000 C 
ATOM      7  C   UNL     1      60.872  63.568  71.137  0.00  0.00    +0.000 C 
ATOM      8  C   UNL     1      60.572  64.324  70.994  0.00  0.00    +0.000 C 
ATOM      9  N   UNL     1      60.332  64.536  70.235  0.00  0.00    +0.000 N 
ATOM     10  C   UNL     1      60.390  63.992  69.617  0.00  0.00    +0.000 A 
ATOM     11  C   UNL     1      60.690  63.237  69.760  0.00  0.00    +0.000 A 
ATOM     12  C   UNL     1      60.748  62.692  69.142  0.00  0.00    +0.000 A 
ATOM     13  C   UNL     1      60.508  62.904  68.382  0.00  0.00    +0.000 A 
ATOM     14  C   UNL     1      60.208  63.660  68.240  0.00  0.00    +0.000 A 
ATOM     15  C   UNL     1      60.150  64.203  68.857  0.00  0.00    +0.000 A 
ATOM     16  S   UNL     1      59.851  64.959  68.715  0.00  0.00    +0.000 S 
ATOM     17  C   UNL     1      59.792  65.503  69.332  0.00  0.00    +0.000 A 
ATOM     18  C   UNL     1      59.493  66.258  69.189  0.00  0.00    +0.000 A 
ATOM     19  C   UNL     1      59.434  66.802  69.807  0.00  0.00    +0.000 A 
ATOM     20  C   UNL     1      59.675  66.590  70.567  0.00  0.00    +0.000 A 
ATOM     21  C   UNL     1      59.974  65.834  70.710  0.00  0.00    +0.000 A 
ATOM     22  C   UNL     1      60.033  65.291  70.092  0.00  0.00    +0.000 A 
ATOM     23  C   UNL     1      59.616  67.135  71.185  0.00  0.00    +0.000 C 
ATOM     24  N   UNL     1      59.558  67.678  71.802  0.00  0.00    +0.000 NA
ATOM     25  C   UNL     1      61.652  62.390  72.800  0.00  0.00    +0.000 C 
ATOM     26  C   UNL     1      61.951  61.634  72.943  0.00  0.00    +0.000 C 
ENDROOT
TORSDOF 0
ENDMDL
MODEL 6
REMARK VINA RESULT:   -10.897      4.246      6.099
REMARK INTER + INTRA:         -10.897
REMARK INTER:                 -10.897
REMARK INTRA:                   0.000
REMARK UNBOUND:                 0.000
ROOT
REMARK  Name = periciazine
REMARK                            x       y       z     vdW  Elec       q    Type
REMARK                         _______ _______ _______ _____ _____    ______ ____
ATOM      1  O   UNL     1      57.957  65.689  73.222  0.00  0.00    +0.000 OA
ATOM      2  C   UNL     1      58.703  65.598  72.880  0.00  0.00    +0.000 C 
ATOM      3  C   UNL     1      59.291  66.161  73.017  0.00  0.00    +0.000 C 
ATOM      4  C   UNL     1      60.036  66.069  72.676  0.00  0.00    +0.000 C 
ATOM      5  N   UNL     1      60.194  65.416  72.198  0.00  0.00    +0.000 NA
ATOM      6  C   UNL     1      60.939  65.325  71.857  0.00  0.00    +0.000 C 
ATOM      7  C   UNL     1      61.527  65.887  71.994  0.00  0.00    +0.000 C 
ATOM      8  C   UNL     1      62.273  65.796  71.652  0.00  0.00    +0.000 C 
ATOM      9  N   UNL     1      62.860  66.358  71.789  0.00  0.00    +0.000 N 
ATOM     10  C   UNL     1      62.702  67.013  72.267  0.00  0.00    +0.000 A 
ATOM     11  C   UNL     1      61.956  67.103  72.607  0.00  0.00    +0.000 A 
ATOM     12  C   UNL     1      61.798  67.758  73.086  0.00  0.00    +0.000 A 
ATOM     13  C   UNL     1      62.386  68.320  73.222  0.00  0.00    +0.000 A 
ATOM     14  C   UNL     1      63.132  68.229  72.880  0.00  0.00    +0.000 A 
ATOM     15  C   UNL     1      63.290  67.575  72.403  0.00  0.00    +0.000 A 
ATOM     16  S   UNL     1      64.035  67.484  72.062  0.00  0.00    +0.000 S 
ATOM     17  C   UNL     1      64.193  66.831  71.584  0.00  0.00    +0.000 A 
ATOM     18  C   UNL     1      64.938  66.739  71.243  0.00  0.00    +0.000 A 
ATOM     19  C   UNL     1      65.097  66.086  70.765  0.00  0.00    +0.000 A 
ATOM     20  C   UNL     1      64.509  65.523  70.629  0.00  0.00    +0.000 A 
ATOM     21  C   UNL     1      63.763  65.614  70.970  0.00  0.00    +0.000 A 
ATOM     22  C   UNL     1      63.606  66.268  71.448  0.00  0.00    +0.000 A 
ATOM     23  C   UNL     1      64.667  64.869  70.151  0.00  0.00    +0.000 C 
ATOM     24  N   UNL     1      64.825  64.215  69.673  0.00  0.00    +0.000 NA
ATOM     25  C   UNL     1      59.607  64.853  72.061  0.00  0.00    +0.000 C 
ATOM     26  C   UNL     1      58.860  64.944  72.403  0.00  0.00    +0.000 C 
ENDROOT
TORSDOF 0
ENDMDL
MODEL 7
REMARK VINA RESULT:   -10.663      3.877      5.016
REMARK INTER + INTRA:         -10.663
REMARK INTER:                 -10.663
REMARK INTRA:                   0.000
REMARK UNBOUND:                 0.000
ROOT
REMARK  Name = periciazine
REMARK                            x       y       z     vdW  Elec       q    Type
REMARK                         _______ _______ _______ _____ _____    ______ ____
ATOM      1  O   UNL     1      66.628  67.669  70.691  0.00  0.00    +0.000 OA
ATOM      2  C   UNL     1      65.909  67.293  70.531  0.00  0.00    +0.000 C 
ATOM      3  C   UNL     1      65.302  67.312  71.089  0.00  0.00    +0.000 C 
ATOM      4  C   UNL     1      64.585  66.937  70.930  0.00  0.00    +0.000 C 
ATOM      5  N   UNL     1      64.474  66.544  70.213  0.00  0.00    +0.000 NA
ATOM      6  C   UNL     1      63.757  66.169  70.053  0.00  0.00    +0.000 C 
ATOM      7  C   UNL     1      63.150  66.188  70.611  0.00  0.00    +0.000 C 
ATOM      8  C   UNL     1      62.432  65.813  70.451  0.00  0.00    +0.000 C 
ATOM      9  N   UNL     1      61.825  65.831  71.008  0.00  0.00    +0.000 N 
ATOM     10  C   UNL     1      61.934  66.224  71.726  0.00  0.00    +0.000 A 
ATOM     11  C   UNL     1      62.652  66.599  71.885  0.00  0.00    +0.000 A 
ATOM     12  C   UNL     1      62.762  66.992  72.603  0.00  0.00    +0.000 A 
ATOM     13  C   UNL     1      62.154  67.010  73.160  0.00  0.00    +0.000 A 
ATOM     14  C   UNL     1      61.437  66.635  73.000  0.00  0.00    +0.000 A 
ATOM     15  C   UNL     1      61.327  66.243  72.284  0.00  0.00    +0.000 A 
ATOM     16  S   UNL     1      60.609  65.868  72.124  0.00  0.00    +0.000 S 
ATOM     17  C   UNL     1      60.499  65.475  71.407  0.00  0.00    +0.000 A 
ATOM     18  C   UNL     1      59.782  65.100  71.248  0.00  0.00    +0.000 A 
ATOM     19  C   UNL     1      59.672  64.707  70.531  0.00  0.00    +0.000 A 
ATOM     20  C   UNL     1      60.280  64.689  69.973  0.00  0.00    +0.000 A 
ATOM     21  C   UNL     1      60.998  65.064  70.133  0.00  0.00    +0.000 A 
ATOM     22  C   UNL     1      61.107  65.457  70.850  0.00  0.00    +0.000 A 
ATOM     23  C   UNL     1      60.170  64.295  69.256  0.00  0.00    +0.000 C 
ATOM     24  N   UNL     1      60.060  63.903  68.539  0.00  0.00    +0.000 NA
ATOM     25  C   UNL     1      65.082  66.526  69.655  0.00  0.00    +0.000 C 
ATOM     26  C   UNL     1      65.800  66.901  69.814  0.00  0.00    +0.000 C 
ENDROOT
TORSDOF 0
ENDMDL
MODEL 8
REMARK VINA RESULT:    -9.663     14.637     16.996
REMARK INTER + INTRA:          -9.663
REMARK INTER:                  -9.663
REMARK INTRA:                   0.000
REMARK UNBOUND:                 0.000
ROOT
REMARK  Name = periciazine
REMARK                            x       y       z     vdW  Elec       q    Type
REMARK                         _______ _______ _______ _____ _____    ______ ____
ATOM      1  O   UNL     1      61.761  70.832  49.502  0.00  0.00    +0.000 OA
ATOM      2  C   UNL     1      61.766  70.198  50.031  0.00  0.00    +0.000 C 
ATOM      3  C   UNL     1      61.901  70.331  50.834  0.00  0.00    +0.000 C 
ATOM      4  C   UNL     1      61.906  69.698  51.361  0.00  0.00    +0.000 C 
ATOM      5  N   UNL     1      61.777  68.931  51.087  0.00  0.00    +0.000 NA
ATOM      6  C   UNL     1      61.782  68.297  51.615  0.00  0.00    +0.000 C 
ATOM      7  C   UNL     1      61.917  68.431  52.418  0.00  0.00    +0.000 C 
ATOM      8  C   UNL     1      61.922  67.796  52.946  0.00  0.00    +0.000 C 
ATOM      9  N   UNL     1      62.057  67.930  53.748  0.00  0.00    +0.000 N 
ATOM     10  C   UNL     1      62.186  68.697  54.024  0.00  0.00    +0.000 A 
ATOM     11  C   UNL     1      62.181  69.330  53.495  0.00  0.00    +0.000 A 
ATOM     12  C   UNL     1      62.311  70.098  53.770  0.00  0.00    +0.000 A 
ATOM     13  C   UNL     1      62.446  70.231  54.573  0.00  0.00    +0.000 A 
ATOM     14  C   UNL     1      62.451  69.597  55.101  0.00  0.00    +0.000 A 
ATOM     15  C   UNL     1      62.321  68.830  54.826  0.00  0.00    +0.000 A 
ATOM     16  S   UNL     1      62.326  68.196  55.354  0.00  0.00    +0.000 S 
ATOM     17  C   UNL     1      62.197  67.430  55.080  0.00  0.00    +0.000 A 
ATOM     18  C   UNL     1      62.202  66.796  55.608  0.00  0.00    +0.000 A 
ATOM     19  C   UNL     1      62.072  66.029  55.333  0.00  0.00    +0.000 A 
ATOM     20  C   UNL     1      61.937  65.895  54.530  0.00  0.00    +0.000 A 
ATOM     21  C   UNL     1      61.932  66.530  54.002  0.00  0.00    +0.000 A 
ATOM     22  C   UNL     1      62.062  67.296  54.277  0.00  0.00    +0.000 A 
ATOM     23  C   UNL     1      61.808  65.128  54.255  0.00  0.00    +0.000 C 
ATOM     24  N   UNL     1      61.678  64.361  53.981  0.00  0.00    +0.000 NA
ATOM     25  C   UNL     1      61.642  68.797  50.284  0.00  0.00    +0.000 C 
ATOM     26  C   UNL     1      61.637  69.432  49.755  0.00  0.00    +0.000 C 
ENDROOT
TORSDOF 0
ENDMDL
MODEL 9
REMARK VINA RESULT:    -9.636     13.945     15.698
REMARK INTER + INTRA:          -9.636
REMARK INTER:                  -9.636
REMARK INTRA:                   0.000
REMARK UNBOUND:                 0.000
ROOT
REMARK  Name = periciazine
REMARK                            x       y       z     vdW  Elec       q    Type
REMARK                         _______ _______ _______ _____ _____    ______ ____
ATOM      1  O   UNL     1      61.761  62.628  52.700  0.00  0.00    +0.000 OA
ATOM      2  C   UNL     1      61.858  63.317  53.145  0.00  0.00    +0.000 C 
ATOM      3  C   UNL     1      61.799  64.055  52.780  0.00  0.00    +0.000 C 
ATOM      4  C   UNL     1      61.896  64.742  53.224  0.00  0.00    +0.000 C 
ATOM      5  N   UNL     1      62.054  64.694  54.032  0.00  0.00    +0.000 NA
ATOM      6  C   UNL     1      62.151  65.382  54.476  0.00  0.00    +0.000 C 
ATOM      7  C   UNL     1      62.092  66.120  54.111  0.00  0.00    +0.000 C 
ATOM      8  C   UNL     1      62.189  66.809  54.556  0.00  0.00    +0.000 C 
ATOM      9  N   UNL     1      62.130  67.546  54.192  0.00  0.00    +0.000 N 
ATOM     10  C   UNL     1      61.972  67.595  53.382  0.00  0.00    +0.000 A 
ATOM     11  C   UNL     1      61.874  66.906  52.939  0.00  0.00    +0.000 A 
ATOM     12  C   UNL     1      61.717  66.956  52.130  0.00  0.00    +0.000 A 
ATOM     13  C   UNL     1      61.657  67.693  51.766  0.00  0.00    +0.000 A 
ATOM     14  C   UNL     1      61.755  68.382  52.210  0.00  0.00    +0.000 A 
ATOM     15  C   UNL     1      61.912  68.333  53.018  0.00  0.00    +0.000 A 
ATOM     16  S   UNL     1      62.010  69.021  53.463  0.00  0.00    +0.000 S 
ATOM     17  C   UNL     1      62.167  68.972  54.270  0.00  0.00    +0.000 A 
ATOM     18  C   UNL     1      62.265  69.660  54.714  0.00  0.00    +0.000 A 
ATOM     19  C   UNL     1      62.423  69.611  55.522  0.00  0.00    +0.000 A 
ATOM     20  C   UNL     1      62.482  68.874  55.887  0.00  0.00    +0.000 A 
ATOM     21  C   UNL     1      62.385  68.185  55.443  0.00  0.00    +0.000 A 
ATOM     22  C   UNL     1      62.227  68.234  54.635  0.00  0.00    +0.000 A 
ATOM     23  C   UNL     1      62.640  68.824  56.696  0.00  0.00    +0.000 C 
ATOM     24  N   UNL     1      62.797  68.775  57.504  0.00  0.00    +0.000 NA
ATOM     25  C   UNL     1      62.114  63.956  54.397  0.00  0.00    +0.000 C 
ATOM     26  C   UNL     1      62.016  63.267  53.953  0.00  0.00    +0.000 C 
ENDROOT
TORSDOF 0
ENDMDL
