MODEL 1
REMARK VINA RESULT:   -11.674      0.000      0.000
REMARK INTER + INTRA:         -11.674
REMARK INTER:                 -11.674
REMARK INTRA:                   0.000
REMARK UNBOUND:                 0.000
ROOT
REMARK  Name = perlapine
REMARK                            x       y       z     vdW  Elec       q    Type
REMARK                         _______ _______ _______ _____ _____    ______ ____
ATOM      1  C   UNL     1      61.461  64.305  69.553  0.00  0.00    +0.000 C 
ATOM      2  N   UNL     1      61.362  63.904  68.839  0.00  0.00    +0.000 NA
ATOM      3  C   UNL     1      62.001  63.811  68.325  0.00  0.00    +0.000 C 
ATOM      4  C   UNL     1      61.902  63.410  67.611  0.00  0.00    +0.000 C 
ATOM      5  N   UNL     1      61.163  63.101  67.411  0.00  0.00    +0.000 N 
ATOM      6  C   UNL     1      60.525  63.193  67.924  0.00  0.00    +0.000 C 
ATOM      7  C   UNL     1      60.624  63.595  68.638  0.00  0.00    +0.000 C 
ATOM      8  C   UNL     1      61.064  62.700  66.697  0.00  0.00    +0.000 C 
ATOM      9  N   UNL     1      61.738  62.638  66.224  0.00  0.00    +0.000 NA
ATOM     10  C   UNL     1      61.818  62.275  65.488  0.00  0.00    +0.000 A 
ATOM     11  C   UNL     1      61.245  61.883  65.043  0.00  0.00    +0.000 A 
ATOM     12  C   UNL     1      60.450  61.758  65.223  0.00  0.00    +0.000 C 
ATOM     13  C   UNL     1      60.031  61.994  65.895  0.00  0.00    +0.000 A 
ATOM     14  C   UNL     1      59.243  61.756  65.857  0.00  0.00    +0.000 A 
ATOM     15  C   UNL     1      58.727  61.937  66.475  0.00  0.00    +0.000 A 
ATOM     16  C   UNL     1      59.001  62.356  67.130  0.00  0.00    +0.000 A 
ATOM     17  C   UNL     1      59.789  62.594  67.168  0.00  0.00    +0.000 A 
ATOM     18  C   UNL     1      60.305  62.413  66.550  0.00  0.00    +0.000 A 
ATOM     19  C   UNL     1      61.443  61.556  64.312  0.00  0.00    +0.000 A 
ATOM     20  C   UNL     1      62.215  61.620  64.027  0.00  0.00    +0.000 A 
ATOM     21  C   UNL     1      62.788  62.011  64.472  0.00  0.00    +0.000 A 
ATOM     22  C   UNL     1      62.590  62.339  65.202  0.00  0.00    +0.000 A 
ENDROOT
TORSDOF 0
ENDMDL
MODEL 2
REMARK VINA RESULT:   -11.314      2.969      4.862
REMARK INTER + INTRA:         -11.314
REMARK INTER:                 -11.314
REMARK INTRA:                   0.000
REMARK UNBOUND:                 0.000
ROOT
REMARK  Name = perlapine
REMARK                            x       y       z     vdW  Elec       q    Type
REMARK                         _______ _______ _______ _____ _____    ______ ____
ATOM      1  C   UNL     1      59.501  66.863  69.391  0.00  0.00    +0.000 C 
ATOM      2  N   UNL     1      59.753  66.115  69.628  0.00  0.00    +0.000 NA
ATOM      3  C   UNL     1      60.011  65.993  70.403  0.00  0.00    +0.000 C 
ATOM      4  C   UNL     1      60.263  65.244  70.641  0.00  0.00    +0.000 C 
ATOM      5  N   UNL     1      60.257  64.617  70.104  0.00  0.00    +0.000 N 
ATOM      6  C   UNL     1      59.999  64.739  69.331  0.00  0.00    +0.000 C 
ATOM      7  C   UNL     1      59.747  65.487  69.093  0.00  0.00    +0.000 C 
ATOM      8  C   UNL     1      60.509  63.868  70.342  0.00  0.00    +0.000 C 
ATOM      9  N   UNL     1      60.756  63.806  71.126  0.00  0.00    +0.000 NA
ATOM     10  C   UNL     1      61.036  63.141  71.527  0.00  0.00    +0.000 A 
ATOM     11  C   UNL     1      61.137  62.374  71.241  0.00  0.00    +0.000 A 
ATOM     12  C   UNL     1      60.985  62.083  70.485  0.00  0.00    +0.000 C 
ATOM     13  C   UNL     1      60.692  62.486  69.827  0.00  0.00    +0.000 A 
ATOM     14  C   UNL     1      60.621  61.987  69.174  0.00  0.00    +0.000 A 
ATOM     15  C   UNL     1      60.338  62.283  68.458  0.00  0.00    +0.000 A 
ATOM     16  C   UNL     1      60.126  63.077  68.395  0.00  0.00    +0.000 A 
ATOM     17  C   UNL     1      60.198  63.576  69.047  0.00  0.00    +0.000 A 
ATOM     18  C   UNL     1      60.481  63.281  69.764  0.00  0.00    +0.000 A 
ATOM     19  C   UNL     1      61.428  61.784  71.739  0.00  0.00    +0.000 A 
ATOM     20  C   UNL     1      61.616  61.961  72.522  0.00  0.00    +0.000 A 
ATOM     21  C   UNL     1      61.514  62.727  72.808  0.00  0.00    +0.000 A 
ATOM     22  C   UNL     1      61.224  63.318  72.310  0.00  0.00    +0.000 A 
ENDROOT
TORSDOF 0
ENDMDL
MODEL 3
REMARK VINA RESULT:   -11.121      1.901      3.640
REMARK INTER + INTRA:         -11.121
REMARK INTER:                 -11.121
REMARK INTRA:                   0.000
REMARK UNBOUND:                 0.000
ROOT
REMARK  Name = perlapine
REMARK                            x       y       z     vdW  Elec       q    Type
REMARK                         _______ _______ _______ _____ _____    ______ ____
ATOM      1  C   UNL     1      63.514  65.558  71.305  0.00  0.00    +0.000 C 
ATOM      2  N   UNL     1      63.031  65.018  70.911  0.00  0.00    +0.000 NA
ATOM      3  C   UNL     1      62.914  65.087  70.096  0.00  0.00    +0.000 C 
ATOM      4  C   UNL     1      62.430  64.547  69.702  0.00  0.00    +0.000 C 
ATOM      5  N   UNL     1      62.063  63.939  70.122  0.00  0.00    +0.000 N 
ATOM      6  C   UNL     1      62.180  63.870  70.936  0.00  0.00    +0.000 C 
ATOM      7  C   UNL     1      62.664  64.410  71.330  0.00  0.00    +0.000 C 
ATOM      8  C   UNL     1      61.580  63.399  69.728  0.00  0.00    +0.000 C 
ATOM      9  N   UNL     1      61.500  63.517  68.916  0.00  0.00    +0.000 NA
ATOM     10  C   UNL     1      61.060  63.077  68.373  0.00  0.00    +0.000 A 
ATOM     11  C   UNL     1      60.592  62.412  68.509  0.00  0.00    +0.000 A 
ATOM     12  C   UNL     1      60.448  62.021  69.221  0.00  0.00    +0.000 C 
ATOM     13  C   UNL     1      60.737  62.200  69.974  0.00  0.00    +0.000 A 
ATOM     14  C   UNL     1      60.456  61.667  70.537  0.00  0.00    +0.000 A 
ATOM     15  C   UNL     1      60.680  61.748  71.328  0.00  0.00    +0.000 A 
ATOM     16  C   UNL     1      61.183  62.361  71.553  0.00  0.00    +0.000 A 
ATOM     17  C   UNL     1      61.463  62.893  70.990  0.00  0.00    +0.000 A 
ATOM     18  C   UNL     1      61.240  62.813  70.199  0.00  0.00    +0.000 A 
ATOM     19  C   UNL     1      60.195  62.052  67.882  0.00  0.00    +0.000 A 
ATOM     20  C   UNL     1      60.265  62.358  67.119  0.00  0.00    +0.000 A 
ATOM     21  C   UNL     1      60.733  63.024  66.983  0.00  0.00    +0.000 A 
ATOM     22  C   UNL     1      61.130  63.383  67.610  0.00  0.00    +0.000 A 
ENDROOT
TORSDOF 0
ENDMDL
MODEL 4
REMARK VINA RESULT:   -11.059      2.684      4.681
REMARK INTER + INTRA:         -11.059
REMARK INTER:                 -11.059
REMARK INTRA:                   0.000
REMARK UNBOUND:                 0.000
ROOT
REMARK  Name = perlapine
REMARK                            x       y       z     vdW  Elec       q    Type
REMARK                         _______ _______ _______ _____ _____    ______ ____
ATOM      1  C   UNL     1      59.404  67.396  71.143  0.00  0.00    +0.000 C 
ATOM      2  N   UNL     1      59.604  66.617  70.960  0.00  0.00    +0.000 NA
ATOM      3  C   UNL     1      59.534  66.343  70.185  0.00  0.00    +0.000 C 
ATOM      4  C   UNL     1      59.733  65.564  70.002  0.00  0.00    +0.000 C 
ATOM      5  N   UNL     1      60.003  65.058  70.595  0.00  0.00    +0.000 N 
ATOM      6  C   UNL     1      60.073  65.331  71.370  0.00  0.00    +0.000 C 
ATOM      7  C   UNL     1      59.874  66.110  71.553  0.00  0.00    +0.000 C 
ATOM      8  C   UNL     1      60.203  64.279  70.413  0.00  0.00    +0.000 C 
ATOM      9  N   UNL     1      60.113  64.062  69.622  0.00  0.00    +0.000 NA
ATOM     10  C   UNL     1      60.264  63.332  69.268  0.00  0.00    +0.000 A 
ATOM     11  C   UNL     1      60.542  62.639  69.618  0.00  0.00    +0.000 A 
ATOM     12  C   UNL     1      60.739  62.504  70.407  0.00  0.00    +0.000 C 
ATOM     13  C   UNL     1      60.705  63.030  71.043  0.00  0.00    +0.000 A 
ATOM     14  C   UNL     1      60.951  62.671  71.744  0.00  0.00    +0.000 A 
ATOM     15  C   UNL     1      60.960  63.103  72.447  0.00  0.00    +0.000 A 
ATOM     16  C   UNL     1      60.721  63.892  72.449  0.00  0.00    +0.000 A 
ATOM     17  C   UNL     1      60.475  64.251  71.749  0.00  0.00    +0.000 A 
ATOM     18  C   UNL     1      60.466  63.819  71.045  0.00  0.00    +0.000 A 
ATOM     19  C   UNL     1      60.656  61.963  69.159  0.00  0.00    +0.000 A 
ATOM     20  C   UNL     1      60.492  61.980  68.351  0.00  0.00    +0.000 A 
ATOM     21  C   UNL     1      60.213  62.672  68.001  0.00  0.00    +0.000 A 
ATOM     22  C   UNL     1      60.099  63.349  68.460  0.00  0.00    +0.000 A 
ENDROOT
TORSDOF 0
ENDMDL
MODEL 5
REMARK VINA RESULT:   -10.853      2.547      5.848
REMARK INTER + INTRA:         -10.853
REMARK INTER:                 -10.853
REMARK INTRA:                   0.000
REMARK UNBOUND:                 0.000
ROOT
REMARK  Name = perlapine
REMARK                            x       y       z     vdW  Elec       q    Type
REMARK                         _______ _______ _______ _____ _____    ______ ____
ATOM      1  C   UNL     1      60.490  62.273  67.591  0.00  0.00    +0.000 C 
ATOM      2  N   UNL     1      60.480  62.580  68.357  0.00  0.00    +0.000 NA
ATOM      3  C   UNL     1      60.108  63.301  68.508  0.00  0.00    +0.000 C 
ATOM      4  C   UNL     1      60.098  63.608  69.273  0.00  0.00    +0.000 C 
ATOM      5  N   UNL     1      60.460  63.194  69.889  0.00  0.00    +0.000 N 
ATOM      6  C   UNL     1      60.831  62.473  69.738  0.00  0.00    +0.000 C 
ATOM      7  C   UNL     1      60.841  62.167  68.972  0.00  0.00    +0.000 C 
ATOM      8  C   UNL     1      60.450  63.501  70.654  0.00  0.00    +0.000 C 
ATOM      9  N   UNL     1      60.064  64.224  70.745  0.00  0.00    +0.000 NA
ATOM     10  C   UNL     1      59.960  64.670  71.432  0.00  0.00    +0.000 A 
ATOM     11  C   UNL     1      60.216  64.501  72.197  0.00  0.00    +0.000 A 
ATOM     12  C   UNL     1      60.639  63.845  72.466  0.00  0.00    +0.000 C 
ATOM     13  C   UNL     1      60.911  63.196  72.034  0.00  0.00    +0.000 A 
ATOM     14  C   UNL     1      61.312  62.661  72.516  0.00  0.00    +0.000 A 
ATOM     15  C   UNL     1      61.630  61.971  72.192  0.00  0.00    +0.000 A 
ATOM     16  C   UNL     1      61.545  61.819  71.386  0.00  0.00    +0.000 A 
ATOM     17  C   UNL     1      61.144  62.354  70.904  0.00  0.00    +0.000 A 
ATOM     18  C   UNL     1      60.827  63.044  71.228  0.00  0.00    +0.000 A 
ATOM     19  C   UNL     1      60.052  65.026  72.812  0.00  0.00    +0.000 A 
ATOM     20  C   UNL     1      59.633  65.720  72.661  0.00  0.00    +0.000 A 
ATOM     21  C   UNL     1      59.376  65.889  71.896  0.00  0.00    +0.000 A 
ATOM     22  C   UNL     1      59.540  65.363  71.281  0.00  0.00    +0.000 A 
ENDROOT
TORSDOF 0
ENDMDL
MODEL 6
REMARK VINA RESULT:   -10.799      1.791      4.677
REMARK INTER + INTRA:         -10.799
REMARK INTER:                 -10.799
REMARK INTRA:                   0.000
REMARK UNBOUND:                 0.000
ROOT
REMARK  Name = perlapine
REMARK                            x       y       z     vdW  Elec       q    Type
REMARK                         _______ _______ _______ _____ _____    ______ ____
ATOM      1  C   UNL     1      59.924  62.343  66.668  0.00  0.00    +0.000 C 
ATOM      2  N   UNL     1      60.286  62.565  67.375  0.00  0.00    +0.000 NA
ATOM      3  C   UNL     1      60.773  63.231  67.399  0.00  0.00    +0.000 C 
ATOM      4  C   UNL     1      61.134  63.452  68.107  0.00  0.00    +0.000 C 
ATOM      5  N   UNL     1      61.009  63.008  68.791  0.00  0.00    +0.000 N 
ATOM      6  C   UNL     1      60.522  62.343  68.767  0.00  0.00    +0.000 C 
ATOM      7  C   UNL     1      60.161  62.122  68.060  0.00  0.00    +0.000 C 
ATOM      8  C   UNL     1      61.370  63.230  69.499  0.00  0.00    +0.000 C 
ATOM      9  N   UNL     1      61.846  63.903  69.462  0.00  0.00    +0.000 NA
ATOM     10  C   UNL     1      62.277  64.262  70.067  0.00  0.00    +0.000 A 
ATOM     11  C   UNL     1      62.339  64.036  70.858  0.00  0.00    +0.000 A 
ATOM     12  C   UNL     1      61.986  63.396  71.239  0.00  0.00    +0.000 C 
ATOM     13  C   UNL     1      61.482  62.822  70.924  0.00  0.00    +0.000 A 
ATOM     14  C   UNL     1      61.251  62.276  71.496  0.00  0.00    +0.000 A 
ATOM     15  C   UNL     1      60.745  61.656  71.295  0.00  0.00    +0.000 A 
ATOM     16  C   UNL     1      60.472  61.583  70.520  0.00  0.00    +0.000 A 
ATOM     17  C   UNL     1      60.703  62.129  69.947  0.00  0.00    +0.000 A 
ATOM     18  C   UNL     1      61.209  62.749  70.149  0.00  0.00    +0.000 A 
ATOM     19  C   UNL     1      62.805  64.476  71.377  0.00  0.00    +0.000 A 
ATOM     20  C   UNL     1      63.208  65.142  71.106  0.00  0.00    +0.000 A 
ATOM     21  C   UNL     1      63.147  65.369  70.315  0.00  0.00    +0.000 A 
ATOM     22  C   UNL     1      62.681  64.928  69.796  0.00  0.00    +0.000 A 
ENDROOT
TORSDOF 0
ENDMDL
MODEL 7
REMARK VINA RESULT:   -10.740      2.120      5.134
REMARK INTER + INTRA:         -10.740
REMARK INTER:                 -10.740
REMARK INTRA:                   0.000
REMARK UNBOUND:                 0.000
ROOT
REMARK  Name = perlapine
REMARK                            x       y       z     vdW  Elec       q    Type
REMARK                         _______ _______ _______ _____ _____    ______ ____
ATOM      1  C   UNL     1      60.290  62.364  66.808  0.00  0.00    +0.000 C 
ATOM      2  N   UNL     1      60.379  62.561  67.603  0.00  0.00    +0.000 NA
ATOM      3  C   UNL     1      60.727  62.025  68.126  0.00  0.00    +0.000 C 
ATOM      4  C   UNL     1      60.816  62.223  68.921  0.00  0.00    +0.000 C 
ATOM      5  N   UNL     1      60.558  62.958  69.196  0.00  0.00    +0.000 N 
ATOM      6  C   UNL     1      60.211  63.493  68.674  0.00  0.00    +0.000 C 
ATOM      7  C   UNL     1      60.122  63.295  67.878  0.00  0.00    +0.000 C 
ATOM      8  C   UNL     1      60.648  63.155  69.991  0.00  0.00    +0.000 C 
ATOM      9  N   UNL     1      61.002  62.580  70.465  0.00  0.00    +0.000 NA
ATOM     10  C   UNL     1      61.167  62.610  71.273  0.00  0.00    +0.000 A 
ATOM     11  C   UNL     1      61.019  63.222  71.806  0.00  0.00    +0.000 A 
ATOM     12  C   UNL     1      60.670  63.955  71.663  0.00  0.00    +0.000 C 
ATOM     13  C   UNL     1      60.381  64.258  70.951  0.00  0.00    +0.000 A 
ATOM     14  C   UNL     1      60.074  65.017  71.050  0.00  0.00    +0.000 A 
ATOM     15  C   UNL     1      59.757  65.420  70.403  0.00  0.00    +0.000 A 
ATOM     16  C   UNL     1      59.747  65.064  69.660  0.00  0.00    +0.000 A 
ATOM     17  C   UNL     1      60.055  64.305  69.561  0.00  0.00    +0.000 A 
ATOM     18  C   UNL     1      60.372  63.902  70.208  0.00  0.00    +0.000 A 
ATOM     19  C   UNL     1      61.230  63.138  72.599  0.00  0.00    +0.000 A 
ATOM     20  C   UNL     1      61.589  62.442  72.859  0.00  0.00    +0.000 A 
ATOM     21  C   UNL     1      61.737  61.830  72.327  0.00  0.00    +0.000 A 
ATOM     22  C   UNL     1      61.526  61.914  71.534  0.00  0.00    +0.000 A 
ENDROOT
TORSDOF 0
ENDMDL
MODEL 8
REMARK VINA RESULT:   -10.646      4.007      5.569
REMARK INTER + INTRA:         -10.646
REMARK INTER:                 -10.646
REMARK INTRA:                   0.000
REMARK UNBOUND:                 0.000
ROOT
REMARK  Name = perlapine
REMARK                            x       y       z     vdW  Elec       q    Type
REMARK                         _______ _______ _______ _____ _____    ______ ____
ATOM      1  C   UNL     1      64.693  65.775  70.053  0.00  0.00    +0.000 C 
ATOM      2  N   UNL     1      64.045  65.328  70.300  0.00  0.00    +0.000 NA
ATOM      3  C   UNL     1      63.789  64.687  69.847  0.00  0.00    +0.000 C 
ATOM      4  C   UNL     1      63.141  64.240  70.094  0.00  0.00    +0.000 C 
ATOM      5  N   UNL     1      62.749  64.433  70.794  0.00  0.00    +0.000 N 
ATOM      6  C   UNL     1      63.005  65.073  71.246  0.00  0.00    +0.000 C 
ATOM      7  C   UNL     1      63.652  65.521  70.999  0.00  0.00    +0.000 C 
ATOM      8  C   UNL     1      62.101  63.986  71.040  0.00  0.00    +0.000 C 
ATOM      9  N   UNL     1      61.891  63.358  70.548  0.00  0.00    +0.000 NA
ATOM     10  C   UNL     1      61.277  62.815  70.640  0.00  0.00    +0.000 A 
ATOM     11  C   UNL     1      60.722  62.766  71.248  0.00  0.00    +0.000 A 
ATOM     12  C   UNL     1      60.643  63.247  71.913  0.00  0.00    +0.000 C 
ATOM     13  C   UNL     1      61.101  63.897  72.136  0.00  0.00    +0.000 A 
ATOM     14  C   UNL     1      60.834  64.225  72.844  0.00  0.00    +0.000 A 
ATOM     15  C   UNL     1      61.217  64.882  73.164  0.00  0.00    +0.000 A 
ATOM     16  C   UNL     1      61.866  65.211  72.775  0.00  0.00    +0.000 A 
ATOM     17  C   UNL     1      62.132  64.883  72.067  0.00  0.00    +0.000 A 
ATOM     18  C   UNL     1      61.749  64.226  71.747  0.00  0.00    +0.000 A 
ATOM     19  C   UNL     1      60.148  62.173  71.235  0.00  0.00    +0.000 A 
ATOM     20  C   UNL     1      60.129  61.631  70.614  0.00  0.00    +0.000 A 
ATOM     21  C   UNL     1      60.684  61.680  70.006  0.00  0.00    +0.000 A 
ATOM     22  C   UNL     1      61.258  62.272  70.019  0.00  0.00    +0.000 A 
ENDROOT
TORSDOF 0
ENDMDL
MODEL 9
REMARK VINA RESULT:   -10.225      5.847      7.236
REMARK INTER + INTRA:         -10.225
REMARK INTER:                 -10.225
REMARK INTRA:                   0.000
REMARK UNBOUND:                 0.000
ROOT
REMARK  Name = perlapine
REMARK                            x       y       z     vdW  Elec       q    Type
REMARK                         _______ _______ _______ _____ _____    ______ ____
ATOM      1  C   UNL     1      65.744  66.977  70.924  0.00  0.00    +0.000 C 
ATOM      2  N   UNL     1      65.023  66.689  71.200  0.00  0.00    +0.000 NA
ATOM      3  C   UNL     1      64.815  65.901  71.069  0.00  0.00    +0.000 C 
ATOM      4  C   UNL     1      64.093  65.613  71.346  0.00  0.00    +0.000 C 
ATOM      5  N   UNL     1      63.578  66.114  71.753  0.00  0.00    +0.000 N 
ATOM      6  C   UNL     1      63.786  66.901  71.883  0.00  0.00    +0.000 C 
ATOM      7  C   UNL     1      64.508  67.189  71.607  0.00  0.00    +0.000 C 
ATOM      8  C   UNL     1      62.856  65.826  72.029  0.00  0.00    +0.000 C 
ATOM      9  N   UNL     1      62.702  65.032  71.869  0.00  0.00    +0.000 NA
ATOM     10  C   UNL     1      62.038  64.585  72.070  0.00  0.00    +0.000 A 
ATOM     11  C   UNL     1      61.363  64.824  72.479  0.00  0.00    +0.000 A 
ATOM     12  C   UNL     1      61.185  65.567  72.790  0.00  0.00    +0.000 C 
ATOM     13  C   UNL     1      61.640  66.257  72.767  0.00  0.00    +0.000 A 
ATOM     14  C   UNL     1      61.257  66.881  73.145  0.00  0.00    +0.000 A 
ATOM     15  C   UNL     1      61.619  67.623  73.185  0.00  0.00    +0.000 A 
ATOM     16  C   UNL     1      62.362  67.737  72.846  0.00  0.00    +0.000 A 
ATOM     17  C   UNL     1      62.744  67.112  72.468  0.00  0.00    +0.000 A 
ATOM     18  C   UNL     1      62.383  66.371  72.429  0.00  0.00    +0.000 A 
ATOM     19  C   UNL     1      60.756  64.285  72.623  0.00  0.00    +0.000 A 
ATOM     20  C   UNL     1      60.823  63.507  72.357  0.00  0.00    +0.000 A 
ATOM     21  C   UNL     1      61.498  63.268  71.948  0.00  0.00    +0.000 A 
ATOM     22  C   UNL     1      62.105  63.807  71.804  0.00  0.00    +0.000 A 
ENDROOT
TORSDOF 0
ENDMDL
