MODEL 1
REMARK VINA RESULT:    -6.654      0.000      0.000
REMARK INTER + INTRA:          -6.654
REMARK INTER:                  -6.654
REMARK INTRA:                   0.000
REMARK UNBOUND:                 0.000
ROOT
REMARK  Name = phenylacetic acid
REMARK                            x       y       z     vdW  Elec       q    Type
REMARK                         _______ _______ _______ _____ _____    ______ ____
ATOM      1  O   UNL     1      61.627  62.957  67.251  0.00  0.00    +0.000 OA
ATOM      2  C   UNL     1      61.446  62.542  66.562  0.00  0.00    +0.000 C 
ATOM      3  O   UNL     1      60.725  62.146  66.496  0.00  0.00    +0.000 OA
ATOM      4  C   UNL     1      61.986  62.523  65.937  0.00  0.00    +0.000 C 
ATOM      5  C   UNL     1      61.804  62.108  65.248  0.00  0.00    +0.000 A 
ATOM      6  C   UNL     1      62.343  62.089  64.624  0.00  0.00    +0.000 A 
ATOM      7  C   UNL     1      62.162  61.674  63.935  0.00  0.00    +0.000 A 
ATOM      8  C   UNL     1      61.442  61.278  63.870  0.00  0.00    +0.000 A 
ATOM      9  C   UNL     1      60.902  61.297  64.493  0.00  0.00    +0.000 A 
ATOM     10  C   UNL     1      61.083  61.712  65.183  0.00  0.00    +0.000 A 
ENDROOT
TORSDOF 0
ENDMDL
MODEL 2
REMARK VINA RESULT:    -6.431      1.641      2.429
REMARK INTER + INTRA:          -6.431
REMARK INTER:                  -6.431
REMARK INTRA:                   0.000
REMARK UNBOUND:                 0.000
ROOT
REMARK  Name = phenylacetic acid
REMARK                            x       y       z     vdW  Elec       q    Type
REMARK                         _______ _______ _______ _____ _____    ______ ____
ATOM      1  O   UNL     1      62.776  61.590  63.105  0.00  0.00    +0.000 OA
ATOM      2  C   UNL     1      62.229  61.626  63.722  0.00  0.00    +0.000 C 
ATOM      3  O   UNL     1      61.494  61.258  63.644  0.00  0.00    +0.000 OA
ATOM      4  C   UNL     1      62.417  62.031  64.416  0.00  0.00    +0.000 C 
ATOM      5  C   UNL     1      61.872  62.067  65.033  0.00  0.00    +0.000 A 
ATOM      6  C   UNL     1      62.059  62.471  65.727  0.00  0.00    +0.000 A 
ATOM      7  C   UNL     1      61.513  62.508  66.344  0.00  0.00    +0.000 A 
ATOM      8  C   UNL     1      60.779  62.140  66.267  0.00  0.00    +0.000 A 
ATOM      9  C   UNL     1      60.590  61.736  65.573  0.00  0.00    +0.000 A 
ATOM     10  C   UNL     1      61.137  61.699  64.956  0.00  0.00    +0.000 A 
ENDROOT
TORSDOF 0
ENDMDL
MODEL 3
REMARK VINA RESULT:    -5.829      4.916      6.421
REMARK INTER + INTRA:          -5.829
REMARK INTER:                  -5.829
REMARK INTRA:                   0.000
REMARK UNBOUND:                 0.000
ROOT
REMARK  Name = phenylacetic acid
REMARK                            x       y       z     vdW  Elec       q    Type
REMARK                         _______ _______ _______ _____ _____    ______ ____
ATOM      1  O   UNL     1      60.367  61.700  69.355  0.00  0.00    +0.000 OA
ATOM      2  C   UNL     1      60.498  62.140  70.041  0.00  0.00    +0.000 C 
ATOM      3  O   UNL     1      60.184  62.901  70.110  0.00  0.00    +0.000 OA
ATOM      4  C   UNL     1      60.942  61.819  70.658  0.00  0.00    +0.000 C 
ATOM      5  C   UNL     1      61.073  62.258  71.343  0.00  0.00    +0.000 A 
ATOM      6  C   UNL     1      61.517  61.938  71.960  0.00  0.00    +0.000 A 
ATOM      7  C   UNL     1      61.648  62.378  72.646  0.00  0.00    +0.000 A 
ATOM      8  C   UNL     1      61.335  63.137  72.715  0.00  0.00    +0.000 A 
ATOM      9  C   UNL     1      60.890  63.459  72.098  0.00  0.00    +0.000 A 
ATOM     10  C   UNL     1      60.759  63.019  71.412  0.00  0.00    +0.000 A 
ENDROOT
TORSDOF 0
ENDMDL
MODEL 4
REMARK VINA RESULT:    -5.791     17.688     18.139
REMARK INTER + INTRA:          -5.791
REMARK INTER:                  -5.791
REMARK INTRA:                   0.000
REMARK UNBOUND:                 0.000
ROOT
REMARK  Name = phenylacetic acid
REMARK                            x       y       z     vdW  Elec       q    Type
REMARK                         _______ _______ _______ _____ _____    ______ ____
ATOM      1  O   UNL     1      64.136  79.625  58.263  0.00  0.00    +0.000 OA
ATOM      2  C   UNL     1      64.814  79.308  58.610  0.00  0.00    +0.000 C 
ATOM      3  O   UNL     1      65.522  79.732  58.597  0.00  0.00    +0.000 OA
ATOM      4  C   UNL     1      64.784  78.566  58.972  0.00  0.00    +0.000 C 
ATOM      5  C   UNL     1      65.461  78.250  59.319  0.00  0.00    +0.000 A 
ATOM      6  C   UNL     1      65.432  77.509  59.681  0.00  0.00    +0.000 A 
ATOM      7  C   UNL     1      66.110  77.192  60.029  0.00  0.00    +0.000 A 
ATOM      8  C   UNL     1      66.817  77.616  60.015  0.00  0.00    +0.000 A 
ATOM      9  C   UNL     1      66.847  78.358  59.653  0.00  0.00    +0.000 A 
ATOM     10  C   UNL     1      66.169  78.674  59.306  0.00  0.00    +0.000 A 
ENDROOT
TORSDOF 0
ENDMDL
MODEL 5
REMARK VINA RESULT:    -5.753      6.038      6.751
REMARK INTER + INTRA:          -5.753
REMARK INTER:                  -5.753
REMARK INTRA:                   0.000
REMARK UNBOUND:                 0.000
ROOT
REMARK  Name = phenylacetic acid
REMARK                            x       y       z     vdW  Elec       q    Type
REMARK                         _______ _______ _______ _____ _____    ______ ____
ATOM      1  O   UNL     1      60.402  64.814  73.040  0.00  0.00    +0.000 OA
ATOM      2  C   UNL     1      60.391  64.173  72.520  0.00  0.00    +0.000 C 
ATOM      3  O   UNL     1      59.781  64.100  71.968  0.00  0.00    +0.000 OA
ATOM      4  C   UNL     1      60.989  63.605  72.551  0.00  0.00    +0.000 C 
ATOM      5  C   UNL     1      60.978  62.966  72.032  0.00  0.00    +0.000 A 
ATOM      6  C   UNL     1      61.575  62.398  72.063  0.00  0.00    +0.000 A 
ATOM      7  C   UNL     1      61.564  61.758  71.543  0.00  0.00    +0.000 A 
ATOM      8  C   UNL     1      60.955  61.685  70.992  0.00  0.00    +0.000 A 
ATOM      9  C   UNL     1      60.356  62.252  70.960  0.00  0.00    +0.000 A 
ATOM     10  C   UNL     1      60.368  62.893  71.480  0.00  0.00    +0.000 A 
ENDROOT
TORSDOF 0
ENDMDL
MODEL 6
REMARK VINA RESULT:    -5.749      6.519      7.813
REMARK INTER + INTRA:          -5.749
REMARK INTER:                  -5.749
REMARK INTRA:                   0.000
REMARK UNBOUND:                 0.000
ROOT
REMARK  Name = phenylacetic acid
REMARK                            x       y       z     vdW  Elec       q    Type
REMARK                         _______ _______ _______ _____ _____    ______ ____
ATOM      1  O   UNL     1      64.009  64.492  70.175  0.00  0.00    +0.000 OA
ATOM      2  C   UNL     1      64.432  65.196  70.092  0.00  0.00    +0.000 C 
ATOM      3  O   UNL     1      64.511  65.545  69.348  0.00  0.00    +0.000 OA
ATOM      4  C   UNL     1      64.776  65.551  70.753  0.00  0.00    +0.000 C 
ATOM      5  C   UNL     1      65.199  66.253  70.670  0.00  0.00    +0.000 A 
ATOM      6  C   UNL     1      65.543  66.608  71.330  0.00  0.00    +0.000 A 
ATOM      7  C   UNL     1      65.966  67.312  71.247  0.00  0.00    +0.000 A 
ATOM      8  C   UNL     1      66.045  67.660  70.504  0.00  0.00    +0.000 A 
ATOM      9  C   UNL     1      65.701  67.306  69.843  0.00  0.00    +0.000 A 
ATOM     10  C   UNL     1      65.278  66.602  69.926  0.00  0.00    +0.000 A 
ENDROOT
TORSDOF 0
ENDMDL
MODEL 7
REMARK VINA RESULT:    -5.703      1.437      2.211
REMARK INTER + INTRA:          -5.703
REMARK INTER:                  -5.703
REMARK INTRA:                   0.000
REMARK UNBOUND:                 0.000
ROOT
REMARK  Name = phenylacetic acid
REMARK                            x       y       z     vdW  Elec       q    Type
REMARK                         _______ _______ _______ _____ _____    ______ ____
ATOM      1  O   UNL     1      60.059  63.436  68.578  0.00  0.00    +0.000 OA
ATOM      2  C   UNL     1      60.315  63.069  67.885  0.00  0.00    +0.000 C 
ATOM      3  O   UNL     1      61.119  63.054  67.697  0.00  0.00    +0.000 OA
ATOM      4  C   UNL     1      59.766  62.716  67.379  0.00  0.00    +0.000 C 
ATOM      5  C   UNL     1      60.021  62.349  66.687  0.00  0.00    +0.000 A 
ATOM      6  C   UNL     1      59.473  61.996  66.181  0.00  0.00    +0.000 A 
ATOM      7  C   UNL     1      59.728  61.628  65.487  0.00  0.00    +0.000 A 
ATOM      8  C   UNL     1      60.531  61.614  65.300  0.00  0.00    +0.000 A 
ATOM      9  C   UNL     1      61.080  61.966  65.806  0.00  0.00    +0.000 A 
ATOM     10  C   UNL     1      60.825  62.334  66.499  0.00  0.00    +0.000 A 
ENDROOT
TORSDOF 0
ENDMDL
MODEL 8
REMARK VINA RESULT:    -5.614     15.686     16.761
REMARK INTER + INTRA:          -5.614
REMARK INTER:                  -5.614
REMARK INTRA:                   0.000
REMARK UNBOUND:                 0.000
ROOT
REMARK  Name = phenylacetic acid
REMARK                            x       y       z     vdW  Elec       q    Type
REMARK                         _______ _______ _______ _____ _____    ______ ____
ATOM      1  O   UNL     1      59.117  78.709  73.118  0.00  0.00    +0.000 OA
ATOM      2  C   UNL     1      59.067  77.904  72.945  0.00  0.00    +0.000 C 
ATOM      3  O   UNL     1      59.756  77.459  72.845  0.00  0.00    +0.000 OA
ATOM      4  C   UNL     1      58.329  77.542  72.871  0.00  0.00    +0.000 C 
ATOM      5  C   UNL     1      58.279  76.738  72.698  0.00  0.00    +0.000 A 
ATOM      6  C   UNL     1      57.542  76.376  72.624  0.00  0.00    +0.000 A 
ATOM      7  C   UNL     1      57.492  75.571  72.450  0.00  0.00    +0.000 A 
ATOM      8  C   UNL     1      58.180  75.128  72.351  0.00  0.00    +0.000 A 
ATOM      9  C   UNL     1      58.918  75.488  72.425  0.00  0.00    +0.000 A 
ATOM     10  C   UNL     1      58.968  76.293  72.598  0.00  0.00    +0.000 A 
ENDROOT
TORSDOF 0
ENDMDL
MODEL 9
REMARK VINA RESULT:    -5.540     24.387     24.960
REMARK INTER + INTRA:          -5.540
REMARK INTER:                  -5.540
REMARK INTRA:                   0.000
REMARK UNBOUND:                 0.000
ROOT
REMARK  Name = phenylacetic acid
REMARK                            x       y       z     vdW  Elec       q    Type
REMARK                         _______ _______ _______ _____ _____    ______ ____
ATOM      1  O   UNL     1      69.246  80.047  51.291  0.00  0.00    +0.000 OA
ATOM      2  C   UNL     1      69.875  79.905  50.776  0.00  0.00    +0.000 C 
ATOM      3  O   UNL     1      70.504  80.439  50.736  0.00  0.00    +0.000 OA
ATOM      4  C   UNL     1      69.876  79.230  50.301  0.00  0.00    +0.000 C 
ATOM      5  C   UNL     1      70.504  79.088  49.788  0.00  0.00    +0.000 A 
ATOM      6  C   UNL     1      70.506  78.413  49.313  0.00  0.00    +0.000 A 
ATOM      7  C   UNL     1      71.135  78.271  48.799  0.00  0.00    +0.000 A 
ATOM      8  C   UNL     1      71.763  78.804  48.759  0.00  0.00    +0.000 A 
ATOM      9  C   UNL     1      71.762  79.479  49.233  0.00  0.00    +0.000 A 
ATOM     10  C   UNL     1      71.133  79.621  49.747  0.00  0.00    +0.000 A 
ENDROOT
TORSDOF 0
ENDMDL
