MODEL 1
REMARK VINA RESULT:    -7.363      0.000      0.000
REMARK INTER + INTRA:          -7.363
REMARK INTER:                  -7.363
REMARK INTRA:                   0.000
REMARK UNBOUND:                 0.000
ROOT
REMARK  Name = phenylephrine
REMARK                            x       y       z     vdW  Elec       q    Type
REMARK                         _______ _______ _______ _____ _____    ______ ____
ATOM      1  C   UNL     1      61.302  63.490  67.986  0.00  0.00    +0.000 C 
ATOM      2  N   UNL     1      60.918  63.006  67.439  0.00  0.00    +0.000 NA
ATOM      3  C   UNL     1      61.294  62.802  66.734  0.00  0.00    +0.000 C 
ATOM      4  C   UNL     1      60.911  62.318  66.186  0.00  0.00    +0.000 C 
ATOM      5  O   UNL     1      60.151  62.038  66.344  0.00  0.00    +0.000 OA
ATOM      6  C   UNL     1      61.287  62.115  65.481  0.00  0.00    +0.000 A 
ATOM      7  C   UNL     1      60.904  61.631  64.934  0.00  0.00    +0.000 A 
ATOM      8  C   UNL     1      61.281  61.427  64.229  0.00  0.00    +0.000 A 
ATOM      9  O   UNL     1      60.898  60.944  63.682  0.00  0.00    +0.000 OA
ATOM     10  C   UNL     1      62.040  61.707  64.071  0.00  0.00    +0.000 A 
ATOM     11  C   UNL     1      62.424  62.192  64.618  0.00  0.00    +0.000 A 
ATOM     12  C   UNL     1      62.047  62.395  65.323  0.00  0.00    +0.000 A 
ENDROOT
TORSDOF 0
ENDMDL
MODEL 2
REMARK VINA RESULT:    -6.423      1.382      2.888
REMARK INTER + INTRA:          -6.423
REMARK INTER:                  -6.423
REMARK INTRA:                   0.000
REMARK UNBOUND:                 0.000
ROOT
REMARK  Name = phenylephrine
REMARK                            x       y       z     vdW  Elec       q    Type
REMARK                         _______ _______ _______ _____ _____    ______ ____
ATOM      1  C   UNL     1      62.714  61.638  63.460  0.00  0.00    +0.000 C 
ATOM      2  N   UNL     1      61.980  61.549  63.827  0.00  0.00    +0.000 NA
ATOM      3  C   UNL     1      61.853  61.868  64.577  0.00  0.00    +0.000 C 
ATOM      4  C   UNL     1      61.119  61.779  64.945  0.00  0.00    +0.000 C 
ATOM      5  O   UNL     1      60.513  61.372  64.561  0.00  0.00    +0.000 OA
ATOM      6  C   UNL     1      60.993  62.098  65.694  0.00  0.00    +0.000 A 
ATOM      7  C   UNL     1      60.260  62.010  66.062  0.00  0.00    +0.000 A 
ATOM      8  C   UNL     1      60.133  62.329  66.812  0.00  0.00    +0.000 A 
ATOM      9  O   UNL     1      59.400  62.240  67.179  0.00  0.00    +0.000 OA
ATOM     10  C   UNL     1      60.739  62.736  67.194  0.00  0.00    +0.000 A 
ATOM     11  C   UNL     1      61.473  62.825  66.827  0.00  0.00    +0.000 A 
ATOM     12  C   UNL     1      61.600  62.506  66.077  0.00  0.00    +0.000 A 
ENDROOT
TORSDOF 0
ENDMDL
MODEL 3
REMARK VINA RESULT:    -6.351      5.916      7.634
REMARK INTER + INTRA:          -6.351
REMARK INTER:                  -6.351
REMARK INTRA:                   0.000
REMARK UNBOUND:                 0.000
ROOT
REMARK  Name = phenylephrine
REMARK                            x       y       z     vdW  Elec       q    Type
REMARK                         _______ _______ _______ _____ _____    ______ ____
ATOM      1  C   UNL     1      63.054  64.222  70.471  0.00  0.00    +0.000 C 
ATOM      2  N   UNL     1      63.454  64.793  70.029  0.00  0.00    +0.000 NA
ATOM      3  C   UNL     1      64.026  65.266  70.389  0.00  0.00    +0.000 C 
ATOM      4  C   UNL     1      64.427  65.837  69.947  0.00  0.00    +0.000 C 
ATOM      5  O   UNL     1      64.254  65.935  69.147  0.00  0.00    +0.000 OA
ATOM      6  C   UNL     1      64.999  66.309  70.307  0.00  0.00    +0.000 A 
ATOM      7  C   UNL     1      65.400  66.880  69.866  0.00  0.00    +0.000 A 
ATOM      8  C   UNL     1      65.972  67.353  70.226  0.00  0.00    +0.000 A 
ATOM      9  O   UNL     1      66.372  67.923  69.785  0.00  0.00    +0.000 OA
ATOM     10  C   UNL     1      66.144  67.254  71.026  0.00  0.00    +0.000 A 
ATOM     11  C   UNL     1      65.744  66.684  71.468  0.00  0.00    +0.000 A 
ATOM     12  C   UNL     1      65.172  66.211  71.108  0.00  0.00    +0.000 A 
ENDROOT
TORSDOF 0
ENDMDL
MODEL 4
REMARK VINA RESULT:    -6.155      3.922      6.263
REMARK INTER + INTRA:          -6.155
REMARK INTER:                  -6.155
REMARK INTRA:                   0.000
REMARK UNBOUND:                 0.000
ROOT
REMARK  Name = phenylephrine
REMARK                            x       y       z     vdW  Elec       q    Type
REMARK                         _______ _______ _______ _____ _____    ______ ____
ATOM      1  C   UNL     1      60.167  62.201  68.441  0.00  0.00    +0.000 C 
ATOM      2  N   UNL     1      60.555  61.924  69.114  0.00  0.00    +0.000 NA
ATOM      3  C   UNL     1      60.566  62.381  69.801  0.00  0.00    +0.000 C 
ATOM      4  C   UNL     1      60.954  62.104  70.475  0.00  0.00    +0.000 C 
ATOM      5  O   UNL     1      61.330  61.370  70.462  0.00  0.00    +0.000 OA
ATOM      6  C   UNL     1      60.965  62.561  71.161  0.00  0.00    +0.000 A 
ATOM      7  C   UNL     1      61.352  62.285  71.835  0.00  0.00    +0.000 A 
ATOM      8  C   UNL     1      61.363  62.742  72.522  0.00  0.00    +0.000 A 
ATOM      9  O   UNL     1      61.751  62.466  73.195  0.00  0.00    +0.000 OA
ATOM     10  C   UNL     1      60.987  63.476  72.534  0.00  0.00    +0.000 A 
ATOM     11  C   UNL     1      60.599  63.753  71.861  0.00  0.00    +0.000 A 
ATOM     12  C   UNL     1      60.588  63.296  71.174  0.00  0.00    +0.000 A 
ENDROOT
TORSDOF 0
ENDMDL
MODEL 5
REMARK VINA RESULT:    -6.154      6.233      6.957
REMARK INTER + INTRA:          -6.154
REMARK INTER:                  -6.154
REMARK INTRA:                   0.000
REMARK UNBOUND:                 0.000
ROOT
REMARK  Name = phenylephrine
REMARK                            x       y       z     vdW  Elec       q    Type
REMARK                         _______ _______ _______ _____ _____    ______ ____
ATOM      1  C   UNL     1      59.984  66.362  73.222  0.00  0.00    +0.000 C 
ATOM      2  N   UNL     1      59.792  65.772  72.678  0.00  0.00    +0.000 NA
ATOM      3  C   UNL     1      60.223  65.068  72.664  0.00  0.00    +0.000 C 
ATOM      4  C   UNL     1      60.031  64.477  72.120  0.00  0.00    +0.000 C 
ATOM      5  O   UNL     1      59.409  64.591  71.591  0.00  0.00    +0.000 OA
ATOM      6  C   UNL     1      60.462  63.775  72.106  0.00  0.00    +0.000 A 
ATOM      7  C   UNL     1      60.271  63.184  71.563  0.00  0.00    +0.000 A 
ATOM      8  C   UNL     1      60.702  62.481  71.549  0.00  0.00    +0.000 A 
ATOM      9  O   UNL     1      60.510  61.891  71.005  0.00  0.00    +0.000 OA
ATOM     10  C   UNL     1      61.324  62.368  72.078  0.00  0.00    +0.000 A 
ATOM     11  C   UNL     1      61.516  62.958  72.622  0.00  0.00    +0.000 A 
ATOM     12  C   UNL     1      61.085  63.661  72.636  0.00  0.00    +0.000 A 
ENDROOT
TORSDOF 0
ENDMDL
MODEL 6
REMARK VINA RESULT:    -6.025      1.450      3.389
REMARK INTER + INTRA:          -6.025
REMARK INTER:                  -6.025
REMARK INTRA:                   0.000
REMARK UNBOUND:                 0.000
ROOT
REMARK  Name = phenylephrine
REMARK                            x       y       z     vdW  Elec       q    Type
REMARK                         _______ _______ _______ _____ _____    ______ ____
ATOM      1  C   UNL     1      62.298  62.613  64.790  0.00  0.00    +0.000 C 
ATOM      2  N   UNL     1      61.899  62.177  65.365  0.00  0.00    +0.000 NA
ATOM      3  C   UNL     1      61.758  62.507  66.108  0.00  0.00    +0.000 C 
ATOM      4  C   UNL     1      61.358  62.072  66.685  0.00  0.00    +0.000 C 
ATOM      5  O   UNL     1      61.100  61.306  66.517  0.00  0.00    +0.000 OA
ATOM      6  C   UNL     1      61.217  62.401  67.427  0.00  0.00    +0.000 A 
ATOM      7  C   UNL     1      60.818  61.966  68.003  0.00  0.00    +0.000 A 
ATOM      8  C   UNL     1      60.677  62.296  68.746  0.00  0.00    +0.000 A 
ATOM      9  O   UNL     1      60.278  61.861  69.321  0.00  0.00    +0.000 OA
ATOM     10  C   UNL     1      60.935  63.061  68.912  0.00  0.00    +0.000 A 
ATOM     11  C   UNL     1      61.335  63.497  68.337  0.00  0.00    +0.000 A 
ATOM     12  C   UNL     1      61.476  63.167  67.594  0.00  0.00    +0.000 A 
ENDROOT
TORSDOF 0
ENDMDL
MODEL 7
REMARK VINA RESULT:    -5.877      5.392      6.298
REMARK INTER + INTRA:          -5.877
REMARK INTER:                  -5.877
REMARK INTRA:                   0.000
REMARK UNBOUND:                 0.000
ROOT
REMARK  Name = phenylephrine
REMARK                            x       y       z     vdW  Elec       q    Type
REMARK                         _______ _______ _______ _____ _____    ______ ____
ATOM      1  C   UNL     1      64.212  64.749  70.068  0.00  0.00    +0.000 C 
ATOM      2  N   UNL     1      63.487  64.370  69.959  0.00  0.00    +0.000 NA
ATOM      3  C   UNL     1      63.008  64.202  70.609  0.00  0.00    +0.000 C 
ATOM      4  C   UNL     1      62.283  63.823  70.501  0.00  0.00    +0.000 C 
ATOM      5  O   UNL     1      62.037  63.612  69.742  0.00  0.00    +0.000 OA
ATOM      6  C   UNL     1      61.804  63.655  71.151  0.00  0.00    +0.000 A 
ATOM      7  C   UNL     1      61.080  63.277  71.043  0.00  0.00    +0.000 A 
ATOM      8  C   UNL     1      60.601  63.109  71.694  0.00  0.00    +0.000 A 
ATOM      9  O   UNL     1      59.877  62.730  71.586  0.00  0.00    +0.000 OA
ATOM     10  C   UNL     1      60.847  63.320  72.452  0.00  0.00    +0.000 A 
ATOM     11  C   UNL     1      61.572  63.699  72.561  0.00  0.00    +0.000 A 
ATOM     12  C   UNL     1      62.051  63.866  71.910  0.00  0.00    +0.000 A 
ENDROOT
TORSDOF 0
ENDMDL
MODEL 8
REMARK VINA RESULT:    -5.706      6.156      7.055
REMARK INTER + INTRA:          -5.706
REMARK INTER:                  -5.706
REMARK INTRA:                   0.000
REMARK UNBOUND:                 0.000
ROOT
REMARK  Name = phenylephrine
REMARK                            x       y       z     vdW  Elec       q    Type
REMARK                         _______ _______ _______ _____ _____    ______ ____
ATOM      1  C   UNL     1      66.092  67.643  70.065  0.00  0.00    +0.000 C 
ATOM      2  N   UNL     1      65.745  66.935  69.819  0.00  0.00    +0.000 NA
ATOM      3  C   UNL     1      65.138  66.597  70.264  0.00  0.00    +0.000 C 
ATOM      4  C   UNL     1      64.791  65.889  70.019  0.00  0.00    +0.000 C 
ATOM      5  O   UNL     1      65.052  65.520  69.330  0.00  0.00    +0.000 OA
ATOM      6  C   UNL     1      64.184  65.552  70.464  0.00  0.00    +0.000 A 
ATOM      7  C   UNL     1      63.837  64.845  70.219  0.00  0.00    +0.000 A 
ATOM      8  C   UNL     1      63.230  64.508  70.664  0.00  0.00    +0.000 A 
ATOM      9  O   UNL     1      62.884  63.801  70.420  0.00  0.00    +0.000 OA
ATOM     10  C   UNL     1      62.970  64.877  71.354  0.00  0.00    +0.000 A 
ATOM     11  C   UNL     1      63.316  65.585  71.599  0.00  0.00    +0.000 A 
ATOM     12  C   UNL     1      63.924  65.922  71.154  0.00  0.00    +0.000 A 
ENDROOT
TORSDOF 0
ENDMDL
MODEL 9
REMARK VINA RESULT:    -5.325     12.303     12.771
REMARK INTER + INTRA:          -5.325
REMARK INTER:                  -5.325
REMARK INTRA:                   0.000
REMARK UNBOUND:                 0.000
ROOT
REMARK  Name = phenylephrine
REMARK                            x       y       z     vdW  Elec       q    Type
REMARK                         _______ _______ _______ _____ _____    ______ ____
ATOM      1  C   UNL     1      64.655  62.695  54.095  0.00  0.00    +0.000 C 
ATOM      2  N   UNL     1      64.651  62.079  53.546  0.00  0.00    +0.000 NA
ATOM      3  C   UNL     1      64.280  61.366  53.729  0.00  0.00    +0.000 C 
ATOM      4  C   UNL     1      64.276  60.749  53.180  0.00  0.00    +0.000 C 
ATOM      5  O   UNL     1      64.643  60.847  52.448  0.00  0.00    +0.000 OA
ATOM      6  C   UNL     1      63.905  60.036  53.363  0.00  0.00    +0.000 A 
ATOM      7  C   UNL     1      63.901  59.420  52.815  0.00  0.00    +0.000 A 
ATOM      8  C   UNL     1      63.529  58.707  52.998  0.00  0.00    +0.000 A 
ATOM      9  O   UNL     1      63.525  58.091  52.449  0.00  0.00    +0.000 OA
ATOM     10  C   UNL     1      63.162  58.609  53.730  0.00  0.00    +0.000 A 
ATOM     11  C   UNL     1      63.166  59.225  54.279  0.00  0.00    +0.000 A 
ATOM     12  C   UNL     1      63.537  59.938  54.096  0.00  0.00    +0.000 A 
ENDROOT
TORSDOF 0
ENDMDL
