MODEL 1
REMARK VINA RESULT:    -9.143      0.000      0.000
REMARK INTER + INTRA:          -9.143
REMARK INTER:                  -9.143
REMARK INTRA:                   0.000
REMARK UNBOUND:                 0.000
ROOT
REMARK  Name = phenamacide
REMARK                            x       y       z     vdW  Elec       q    Type
REMARK                         _______ _______ _______ _____ _____    ______ ____
ATOM      1  C   UNL     1      62.267  62.344  64.388  0.00  0.00    +0.000 C 
ATOM      2  C   UNL     1      62.006  62.078  65.123  0.00  0.00    +0.000 C 
ATOM      3  C   UNL     1      61.877  61.273  65.249  0.00  0.00    +0.000 C 
ATOM      4  C   UNL     1      61.872  62.618  65.732  0.00  0.00    +0.000 C 
ATOM      5  C   UNL     1      61.610  62.352  66.469  0.00  0.00    +0.000 C 
ATOM      6  O   UNL     1      61.477  62.891  67.078  0.00  0.00    +0.000 OA
ATOM      7  C   UNL     1      61.215  62.625  67.814  0.00  0.00    +0.000 C 
ATOM      8  O   UNL     1      61.086  61.820  67.941  0.00  0.00    +0.000 OA
ATOM      9  C   UNL     1      61.081  63.165  68.424  0.00  0.00    +0.000 C 
ATOM     10  N   UNL     1      61.209  63.969  68.298  0.00  0.00    +0.000 NA
ATOM     11  C   UNL     1      60.819  62.899  69.160  0.00  0.00    +0.000 A 
ATOM     12  C   UNL     1      60.686  63.439  69.769  0.00  0.00    +0.000 A 
ATOM     13  C   UNL     1      60.424  63.173  70.506  0.00  0.00    +0.000 A 
ATOM     14  C   UNL     1      60.295  62.367  70.632  0.00  0.00    +0.000 A 
ATOM     15  C   UNL     1      60.429  61.828  70.021  0.00  0.00    +0.000 A 
ATOM     16  C   UNL     1      60.691  62.094  69.286  0.00  0.00    +0.000 A 
ENDROOT
TORSDOF 0
ENDMDL
MODEL 2
REMARK VINA RESULT:    -8.957      1.189      4.358
REMARK INTER + INTRA:          -8.957
REMARK INTER:                  -8.957
REMARK INTRA:                   0.000
REMARK UNBOUND:                 0.000
ROOT
REMARK  Name = phenamacide
REMARK                            x       y       z     vdW  Elec       q    Type
REMARK                         _______ _______ _______ _____ _____    ______ ____
ATOM      1  C   UNL     1      60.476  63.708  70.033  0.00  0.00    +0.000 C 
ATOM      2  C   UNL     1      60.925  63.553  69.359  0.00  0.00    +0.000 C 
ATOM      3  C   UNL     1      61.715  63.788  69.325  0.00  0.00    +0.000 C 
ATOM      4  C   UNL     1      60.582  63.163  68.718  0.00  0.00    +0.000 C 
ATOM      5  C   UNL     1      61.031  63.007  68.042  0.00  0.00    +0.000 C 
ATOM      6  O   UNL     1      60.688  62.617  67.401  0.00  0.00    +0.000 OA
ATOM      7  C   UNL     1      61.137  62.462  66.725  0.00  0.00    +0.000 C 
ATOM      8  O   UNL     1      61.927  62.697  66.692  0.00  0.00    +0.000 OA
ATOM      9  C   UNL     1      60.794  62.072  66.085  0.00  0.00    +0.000 C 
ATOM     10  N   UNL     1      60.005  61.837  66.118  0.00  0.00    +0.000 NA
ATOM     11  C   UNL     1      61.243  61.917  65.409  0.00  0.00    +0.000 A 
ATOM     12  C   UNL     1      60.900  61.526  64.768  0.00  0.00    +0.000 A 
ATOM     13  C   UNL     1      61.349  61.371  64.092  0.00  0.00    +0.000 A 
ATOM     14  C   UNL     1      62.139  61.606  64.059  0.00  0.00    +0.000 A 
ATOM     15  C   UNL     1      62.480  61.997  64.700  0.00  0.00    +0.000 A 
ATOM     16  C   UNL     1      62.033  62.152  65.375  0.00  0.00    +0.000 A 
ENDROOT
TORSDOF 0
ENDMDL
MODEL 3
REMARK VINA RESULT:    -8.576      1.708      2.466
REMARK INTER + INTRA:          -8.576
REMARK INTER:                  -8.576
REMARK INTRA:                   0.000
REMARK UNBOUND:                 0.000
ROOT
REMARK  Name = phenamacide
REMARK                            x       y       z     vdW  Elec       q    Type
REMARK                         _______ _______ _______ _____ _____    ______ ____
ATOM      1  C   UNL     1      59.834  62.000  66.240  0.00  0.00    +0.000 C 
ATOM      2  C   UNL     1      60.213  62.381  66.866  0.00  0.00    +0.000 C 
ATOM      3  C   UNL     1      60.685  63.043  66.721  0.00  0.00    +0.000 C 
ATOM      4  C   UNL     1      60.120  62.101  67.636  0.00  0.00    +0.000 C 
ATOM      5  C   UNL     1      60.499  62.482  68.262  0.00  0.00    +0.000 C 
ATOM      6  O   UNL     1      60.406  62.202  69.032  0.00  0.00    +0.000 OA
ATOM      7  C   UNL     1      60.785  62.584  69.659  0.00  0.00    +0.000 C 
ATOM      8  O   UNL     1      61.257  63.245  69.514  0.00  0.00    +0.000 OA
ATOM      9  C   UNL     1      60.692  62.303  70.429  0.00  0.00    +0.000 C 
ATOM     10  N   UNL     1      60.221  61.643  70.573  0.00  0.00    +0.000 NA
ATOM     11  C   UNL     1      61.071  62.685  71.055  0.00  0.00    +0.000 A 
ATOM     12  C   UNL     1      60.978  62.404  71.825  0.00  0.00    +0.000 A 
ATOM     13  C   UNL     1      61.357  62.786  72.452  0.00  0.00    +0.000 A 
ATOM     14  C   UNL     1      61.828  63.447  72.307  0.00  0.00    +0.000 A 
ATOM     15  C   UNL     1      61.921  63.727  71.536  0.00  0.00    +0.000 A 
ATOM     16  C   UNL     1      61.543  63.346  70.911  0.00  0.00    +0.000 A 
ENDROOT
TORSDOF 0
ENDMDL
MODEL 4
REMARK VINA RESULT:    -8.464      4.587      6.183
REMARK INTER + INTRA:          -8.464
REMARK INTER:                  -8.464
REMARK INTRA:                   0.000
REMARK UNBOUND:                 0.000
ROOT
REMARK  Name = phenamacide
REMARK                            x       y       z     vdW  Elec       q    Type
REMARK                         _______ _______ _______ _____ _____    ______ ____
ATOM      1  C   UNL     1      61.061  63.200  71.829  0.00  0.00    +0.000 C 
ATOM      2  C   UNL     1      61.617  63.795  71.960  0.00  0.00    +0.000 C 
ATOM      3  C   UNL     1      61.693  64.133  72.709  0.00  0.00    +0.000 C 
ATOM      4  C   UNL     1      62.098  64.052  71.341  0.00  0.00    +0.000 C 
ATOM      5  C   UNL     1      62.655  64.648  71.471  0.00  0.00    +0.000 C 
ATOM      6  O   UNL     1      63.136  64.905  70.852  0.00  0.00    +0.000 OA
ATOM      7  C   UNL     1      63.693  65.500  70.982  0.00  0.00    +0.000 C 
ATOM      8  O   UNL     1      63.768  65.838  71.731  0.00  0.00    +0.000 OA
ATOM      9  C   UNL     1      64.173  65.757  70.363  0.00  0.00    +0.000 C 
ATOM     10  N   UNL     1      64.098  65.419  69.615  0.00  0.00    +0.000 NA
ATOM     11  C   UNL     1      64.730  66.353  70.494  0.00  0.00    +0.000 A 
ATOM     12  C   UNL     1      65.211  66.609  69.874  0.00  0.00    +0.000 A 
ATOM     13  C   UNL     1      65.768  67.205  70.005  0.00  0.00    +0.000 A 
ATOM     14  C   UNL     1      65.843  67.543  70.754  0.00  0.00    +0.000 A 
ATOM     15  C   UNL     1      65.361  67.285  71.372  0.00  0.00    +0.000 A 
ATOM     16  C   UNL     1      64.805  66.690  71.242  0.00  0.00    +0.000 A 
ENDROOT
TORSDOF 0
ENDMDL
MODEL 5
REMARK VINA RESULT:    -8.441      4.308      5.402
REMARK INTER + INTRA:          -8.441
REMARK INTER:                  -8.441
REMARK INTRA:                   0.000
REMARK UNBOUND:                 0.000
ROOT
REMARK  Name = phenamacide
REMARK                            x       y       z     vdW  Elec       q    Type
REMARK                         _______ _______ _______ _____ _____    ______ ____
ATOM      1  C   UNL     1      66.120  67.503  69.934  0.00  0.00    +0.000 C 
ATOM      2  C   UNL     1      65.549  67.192  70.442  0.00  0.00    +0.000 C 
ATOM      3  C   UNL     1      65.413  67.544  71.176  0.00  0.00    +0.000 C 
ATOM      4  C   UNL     1      65.114  66.529  70.216  0.00  0.00    +0.000 C 
ATOM      5  C   UNL     1      64.542  66.218  70.724  0.00  0.00    +0.000 C 
ATOM      6  O   UNL     1      64.107  65.555  70.497  0.00  0.00    +0.000 OA
ATOM      7  C   UNL     1      63.535  65.244  71.005  0.00  0.00    +0.000 C 
ATOM      8  O   UNL     1      63.399  65.596  71.739  0.00  0.00    +0.000 OA
ATOM      9  C   UNL     1      63.100  64.581  70.778  0.00  0.00    +0.000 C 
ATOM     10  N   UNL     1      63.235  64.229  70.046  0.00  0.00    +0.000 NA
ATOM     11  C   UNL     1      62.528  64.270  71.287  0.00  0.00    +0.000 A 
ATOM     12  C   UNL     1      62.093  63.607  71.060  0.00  0.00    +0.000 A 
ATOM     13  C   UNL     1      61.521  63.296  71.568  0.00  0.00    +0.000 A 
ATOM     14  C   UNL     1      61.385  63.648  72.302  0.00  0.00    +0.000 A 
ATOM     15  C   UNL     1      61.822  64.311  72.527  0.00  0.00    +0.000 A 
ATOM     16  C   UNL     1      62.392  64.622  72.020  0.00  0.00    +0.000 A 
ENDROOT
TORSDOF 0
ENDMDL
MODEL 6
REMARK VINA RESULT:    -8.223      2.889      4.049
REMARK INTER + INTRA:          -8.223
REMARK INTER:                  -8.223
REMARK INTRA:                   0.000
REMARK UNBOUND:                 0.000
ROOT
REMARK  Name = phenamacide
REMARK                            x       y       z     vdW  Elec       q    Type
REMARK                         _______ _______ _______ _____ _____    ______ ____
ATOM      1  C   UNL     1      64.999  66.526  69.844  0.00  0.00    +0.000 C 
ATOM      2  C   UNL     1      64.544  65.939  70.202  0.00  0.00    +0.000 C 
ATOM      3  C   UNL     1      64.668  65.745  70.994  0.00  0.00    +0.000 C 
ATOM      4  C   UNL     1      63.964  65.545  69.766  0.00  0.00    +0.000 C 
ATOM      5  C   UNL     1      63.509  64.957  70.124  0.00  0.00    +0.000 C 
ATOM      6  O   UNL     1      62.929  64.563  69.689  0.00  0.00    +0.000 OA
ATOM      7  C   UNL     1      62.473  63.974  70.047  0.00  0.00    +0.000 C 
ATOM      8  O   UNL     1      62.597  63.781  70.839  0.00  0.00    +0.000 OA
ATOM      9  C   UNL     1      61.894  63.580  69.611  0.00  0.00    +0.000 C 
ATOM     10  N   UNL     1      61.770  63.774  68.820  0.00  0.00    +0.000 NA
ATOM     11  C   UNL     1      61.438  62.992  69.969  0.00  0.00    +0.000 A 
ATOM     12  C   UNL     1      60.859  62.598  69.534  0.00  0.00    +0.000 A 
ATOM     13  C   UNL     1      60.403  62.010  69.892  0.00  0.00    +0.000 A 
ATOM     14  C   UNL     1      60.527  61.817  70.684  0.00  0.00    +0.000 A 
ATOM     15  C   UNL     1      61.107  62.212  71.118  0.00  0.00    +0.000 A 
ATOM     16  C   UNL     1      61.562  62.799  70.762  0.00  0.00    +0.000 A 
ENDROOT
TORSDOF 0
ENDMDL
MODEL 7
REMARK VINA RESULT:    -8.203      1.676      4.456
REMARK INTER + INTRA:          -8.203
REMARK INTER:                  -8.203
REMARK INTRA:                   0.000
REMARK UNBOUND:                 0.000
ROOT
REMARK  Name = phenamacide
REMARK                            x       y       z     vdW  Elec       q    Type
REMARK                         _______ _______ _______ _____ _____    ______ ____
ATOM      1  C   UNL     1      61.569  63.074  73.031  0.00  0.00    +0.000 C 
ATOM      2  C   UNL     1      61.618  63.276  72.232  0.00  0.00    +0.000 C 
ATOM      3  C   UNL     1      62.046  63.942  72.001  0.00  0.00    +0.000 C 
ATOM      4  C   UNL     1      61.239  62.811  71.667  0.00  0.00    +0.000 C 
ATOM      5  C   UNL     1      61.287  63.013  70.867  0.00  0.00    +0.000 C 
ATOM      6  O   UNL     1      60.908  62.548  70.301  0.00  0.00    +0.000 OA
ATOM      7  C   UNL     1      60.957  62.750  69.502  0.00  0.00    +0.000 C 
ATOM      8  O   UNL     1      61.385  63.416  69.270  0.00  0.00    +0.000 OA
ATOM      9  C   UNL     1      60.578  62.285  68.936  0.00  0.00    +0.000 C 
ATOM     10  N   UNL     1      60.151  61.620  69.168  0.00  0.00    +0.000 NA
ATOM     11  C   UNL     1      60.627  62.487  68.137  0.00  0.00    +0.000 A 
ATOM     12  C   UNL     1      60.248  62.022  67.571  0.00  0.00    +0.000 A 
ATOM     13  C   UNL     1      60.297  62.223  66.772  0.00  0.00    +0.000 A 
ATOM     14  C   UNL     1      60.724  62.890  66.540  0.00  0.00    +0.000 A 
ATOM     15  C   UNL     1      61.103  63.354  67.107  0.00  0.00    +0.000 A 
ATOM     16  C   UNL     1      61.055  63.153  67.905  0.00  0.00    +0.000 A 
ENDROOT
TORSDOF 0
ENDMDL
MODEL 8
REMARK VINA RESULT:    -7.717      3.752      4.439
REMARK INTER + INTRA:          -7.717
REMARK INTER:                  -7.717
REMARK INTRA:                   0.000
REMARK UNBOUND:                 0.000
ROOT
REMARK  Name = phenamacide
REMARK                            x       y       z     vdW  Elec       q    Type
REMARK                         _______ _______ _______ _____ _____    ______ ____
ATOM      1  C   UNL     1      59.412  67.064  68.827  0.00  0.00    +0.000 C 
ATOM      2  C   UNL     1      59.666  66.682  69.513  0.00  0.00    +0.000 C 
ATOM      3  C   UNL     1      59.676  67.087  70.232  0.00  0.00    +0.000 C 
ATOM      4  C   UNL     1      59.908  65.894  69.479  0.00  0.00    +0.000 C 
ATOM      5  C   UNL     1      60.162  65.511  70.165  0.00  0.00    +0.000 C 
ATOM      6  O   UNL     1      60.404  64.723  70.131  0.00  0.00    +0.000 OA
ATOM      7  C   UNL     1      60.658  64.340  70.817  0.00  0.00    +0.000 C 
ATOM      8  O   UNL     1      60.668  64.745  71.536  0.00  0.00    +0.000 OA
ATOM      9  C   UNL     1      60.900  63.553  70.783  0.00  0.00    +0.000 C 
ATOM     10  N   UNL     1      60.890  63.148  70.066  0.00  0.00    +0.000 NA
ATOM     11  C   UNL     1      61.154  63.170  71.470  0.00  0.00    +0.000 A 
ATOM     12  C   UNL     1      61.397  62.382  71.436  0.00  0.00    +0.000 A 
ATOM     13  C   UNL     1      61.650  61.999  72.122  0.00  0.00    +0.000 A 
ATOM     14  C   UNL     1      61.661  62.404  72.840  0.00  0.00    +0.000 A 
ATOM     15  C   UNL     1      61.418  63.192  72.873  0.00  0.00    +0.000 A 
ATOM     16  C   UNL     1      61.165  63.575  72.188  0.00  0.00    +0.000 A 
ENDROOT
TORSDOF 0
ENDMDL
MODEL 9
REMARK VINA RESULT:    -7.302     25.073     26.547
REMARK INTER + INTRA:          -7.302
REMARK INTER:                  -7.302
REMARK INTRA:                   0.000
REMARK UNBOUND:                 0.000
ROOT
REMARK  Name = phenamacide
REMARK                            x       y       z     vdW  Elec       q    Type
REMARK                         _______ _______ _______ _____ _____    ______ ____
ATOM      1  C   UNL     1      69.355  81.194  53.658  0.00  0.00    +0.000 C 
ATOM      2  C   UNL     1      69.892  81.070  53.044  0.00  0.00    +0.000 C 
ATOM      3  C   UNL     1      70.617  81.462  53.044  0.00  0.00    +0.000 C 
ATOM      4  C   UNL     1      69.702  80.553  52.430  0.00  0.00    +0.000 C 
ATOM      5  C   UNL     1      70.239  80.428  51.815  0.00  0.00    +0.000 C 
ATOM      6  O   UNL     1      70.049  79.911  51.201  0.00  0.00    +0.000 OA
ATOM      7  C   UNL     1      70.585  79.786  50.586  0.00  0.00    +0.000 C 
ATOM      8  O   UNL     1      71.311  80.178  50.586  0.00  0.00    +0.000 OA
ATOM      9  C   UNL     1      70.395  79.269  49.973  0.00  0.00    +0.000 C 
ATOM     10  N   UNL     1      69.670  78.877  49.973  0.00  0.00    +0.000 NA
ATOM     11  C   UNL     1      70.932  79.144  49.358  0.00  0.00    +0.000 A 
ATOM     12  C   UNL     1      70.742  78.627  48.744  0.00  0.00    +0.000 A 
ATOM     13  C   UNL     1      71.279  78.502  48.129  0.00  0.00    +0.000 A 
ATOM     14  C   UNL     1      72.005  78.895  48.129  0.00  0.00    +0.000 A 
ATOM     15  C   UNL     1      72.194  79.412  48.744  0.00  0.00    +0.000 A 
ATOM     16  C   UNL     1      71.658  79.537  49.358  0.00  0.00    +0.000 A 
ENDROOT
TORSDOF 0
ENDMDL
