MODEL 1
REMARK VINA RESULT:    -6.897      0.000      0.000
REMARK INTER + INTRA:          -6.897
REMARK INTER:                  -6.897
REMARK INTRA:                   0.000
REMARK UNBOUND:                 0.000
ROOT
REMARK  Name = phenelzine
REMARK                            x       y       z     vdW  Elec       q    Type
REMARK                         _______ _______ _______ _____ _____    ______ ____
ATOM      1  N   UNL     1      61.073  62.888  67.850  0.00  0.00    +0.000 NA
ATOM      2  N   UNL     1      61.608  62.904  67.221  0.00  0.00    +0.000 NA
ATOM      3  C   UNL     1      61.440  62.490  66.528  0.00  0.00    +0.000 C 
ATOM      4  C   UNL     1      61.975  62.506  65.898  0.00  0.00    +0.000 C 
ATOM      5  C   UNL     1      61.808  62.092  65.206  0.00  0.00    +0.000 A 
ATOM      6  C   UNL     1      62.341  62.108  64.577  0.00  0.00    +0.000 A 
ATOM      7  C   UNL     1      62.174  61.694  63.883  0.00  0.00    +0.000 A 
ATOM      8  C   UNL     1      61.474  61.264  63.818  0.00  0.00    +0.000 A 
ATOM      9  C   UNL     1      60.939  61.248  64.447  0.00  0.00    +0.000 A 
ATOM     10  C   UNL     1      61.106  61.662  65.140  0.00  0.00    +0.000 A 
ENDROOT
TORSDOF 0
ENDMDL
MODEL 2
REMARK VINA RESULT:    -6.444     17.723     18.153
REMARK INTER + INTRA:          -6.444
REMARK INTER:                  -6.444
REMARK INTRA:                   0.000
REMARK UNBOUND:                 0.000
ROOT
REMARK  Name = phenelzine
REMARK                            x       y       z     vdW  Elec       q    Type
REMARK                         _______ _______ _______ _____ _____    ______ ____
ATOM      1  N   UNL     1      63.569  79.739  58.033  0.00  0.00    +0.000 NA
ATOM      2  N   UNL     1      64.329  79.809  58.348  0.00  0.00    +0.000 NA
ATOM      3  C   UNL     1      64.687  79.158  58.708  0.00  0.00    +0.000 C 
ATOM      4  C   UNL     1      65.447  79.227  59.023  0.00  0.00    +0.000 C 
ATOM      5  C   UNL     1      65.804  78.578  59.383  0.00  0.00    +0.000 A 
ATOM      6  C   UNL     1      66.564  78.646  59.697  0.00  0.00    +0.000 A 
ATOM      7  C   UNL     1      66.922  77.996  60.057  0.00  0.00    +0.000 A 
ATOM      8  C   UNL     1      66.520  77.277  60.102  0.00  0.00    +0.000 A 
ATOM      9  C   UNL     1      65.761  77.207  59.788  0.00  0.00    +0.000 A 
ATOM     10  C   UNL     1      65.403  77.858  59.428  0.00  0.00    +0.000 A 
ENDROOT
TORSDOF 0
ENDMDL
MODEL 3
REMARK VINA RESULT:    -6.021      4.964      6.500
REMARK INTER + INTRA:          -6.021
REMARK INTER:                  -6.021
REMARK INTRA:                   0.000
REMARK UNBOUND:                 0.000
ROOT
REMARK  Name = phenelzine
REMARK                            x       y       z     vdW  Elec       q    Type
REMARK                         _______ _______ _______ _____ _____    ______ ____
ATOM      1  N   UNL     1      60.220  62.006  68.857  0.00  0.00    +0.000 NA
ATOM      2  N   UNL     1      60.505  61.720  69.576  0.00  0.00    +0.000 NA
ATOM      3  C   UNL     1      60.692  62.245  70.184  0.00  0.00    +0.000 C 
ATOM      4  C   UNL     1      60.977  61.960  70.904  0.00  0.00    +0.000 C 
ATOM      5  C   UNL     1      61.164  62.485  71.511  0.00  0.00    +0.000 A 
ATOM      6  C   UNL     1      61.449  62.200  72.231  0.00  0.00    +0.000 A 
ATOM      7  C   UNL     1      61.636  62.726  72.838  0.00  0.00    +0.000 A 
ATOM      8  C   UNL     1      61.538  63.537  72.726  0.00  0.00    +0.000 A 
ATOM      9  C   UNL     1      61.254  63.823  72.006  0.00  0.00    +0.000 A 
ATOM     10  C   UNL     1      61.066  63.297  71.399  0.00  0.00    +0.000 A 
ENDROOT
TORSDOF 0
ENDMDL
MODEL 4
REMARK VINA RESULT:    -6.010     15.820     16.723
REMARK INTER + INTRA:          -6.010
REMARK INTER:                  -6.010
REMARK INTRA:                   0.000
REMARK UNBOUND:                 0.000
ROOT
REMARK  Name = phenelzine
REMARK                            x       y       z     vdW  Elec       q    Type
REMARK                         _______ _______ _______ _____ _____    ______ ____
ATOM      1  N   UNL     1      59.955  79.045  73.222  0.00  0.00    +0.000 NA
ATOM      2  N   UNL     1      60.052  78.230  73.139  0.00  0.00    +0.000 NA
ATOM      3  C   UNL     1      59.401  77.752  72.971  0.00  0.00    +0.000 C 
ATOM      4  C   UNL     1      59.497  76.937  72.888  0.00  0.00    +0.000 C 
ATOM      5  C   UNL     1      58.846  76.460  72.719  0.00  0.00    +0.000 A 
ATOM      6  C   UNL     1      58.942  75.645  72.636  0.00  0.00    +0.000 A 
ATOM      7  C   UNL     1      58.291  75.167  72.467  0.00  0.00    +0.000 A 
ATOM      8  C   UNL     1      57.544  75.505  72.382  0.00  0.00    +0.000 A 
ATOM      9  C   UNL     1      57.446  76.320  72.465  0.00  0.00    +0.000 A 
ATOM     10  C   UNL     1      58.098  76.798  72.634  0.00  0.00    +0.000 A 
ENDROOT
TORSDOF 0
ENDMDL
MODEL 5
REMARK VINA RESULT:    -5.899      6.337      6.985
REMARK INTER + INTRA:          -5.899
REMARK INTER:                  -5.899
REMARK INTRA:                   0.000
REMARK UNBOUND:                 0.000
ROOT
REMARK  Name = phenelzine
REMARK                            x       y       z     vdW  Elec       q    Type
REMARK                         _______ _______ _______ _____ _____    ______ ____
ATOM      1  N   UNL     1      59.037  65.516  72.285  0.00  0.00    +0.000 NA
ATOM      2  N   UNL     1      59.182  64.846  71.826  0.00  0.00    +0.000 NA
ATOM      3  C   UNL     1      59.784  64.323  72.038  0.00  0.00    +0.000 C 
ATOM      4  C   UNL     1      59.930  63.652  71.579  0.00  0.00    +0.000 C 
ATOM      5  C   UNL     1      60.531  63.131  71.792  0.00  0.00    +0.000 A 
ATOM      6  C   UNL     1      60.677  62.460  71.334  0.00  0.00    +0.000 A 
ATOM      7  C   UNL     1      61.279  61.938  71.546  0.00  0.00    +0.000 A 
ATOM      8  C   UNL     1      61.736  62.086  72.216  0.00  0.00    +0.000 A 
ATOM      9  C   UNL     1      61.591  62.756  72.675  0.00  0.00    +0.000 A 
ATOM     10  C   UNL     1      60.988  63.279  72.463  0.00  0.00    +0.000 A 
ENDROOT
TORSDOF 0
ENDMDL
MODEL 6
REMARK VINA RESULT:    -5.869      6.471      7.661
REMARK INTER + INTRA:          -5.869
REMARK INTER:                  -5.869
REMARK INTRA:                   0.000
REMARK UNBOUND:                 0.000
ROOT
REMARK  Name = phenelzine
REMARK                            x       y       z     vdW  Elec       q    Type
REMARK                         _______ _______ _______ _____ _____    ______ ____
ATOM      1  N   UNL     1      63.095  64.587  69.631  0.00  0.00    +0.000 NA
ATOM      2  N   UNL     1      63.544  64.870  70.264  0.00  0.00    +0.000 NA
ATOM      3  C   UNL     1      64.105  65.461  70.139  0.00  0.00    +0.000 C 
ATOM      4  C   UNL     1      64.555  65.744  70.771  0.00  0.00    +0.000 C 
ATOM      5  C   UNL     1      65.116  66.335  70.646  0.00  0.00    +0.000 A 
ATOM      6  C   UNL     1      65.565  66.618  71.277  0.00  0.00    +0.000 A 
ATOM      7  C   UNL     1      66.126  67.209  71.152  0.00  0.00    +0.000 A 
ATOM      8  C   UNL     1      66.239  67.517  70.396  0.00  0.00    +0.000 A 
ATOM      9  C   UNL     1      65.791  67.234  69.763  0.00  0.00    +0.000 A 
ATOM     10  C   UNL     1      65.229  66.643  69.888  0.00  0.00    +0.000 A 
ENDROOT
TORSDOF 0
ENDMDL
MODEL 7
REMARK VINA RESULT:    -5.859      1.619      2.187
REMARK INTER + INTRA:          -5.859
REMARK INTER:                  -5.859
REMARK INTRA:                   0.000
REMARK UNBOUND:                 0.000
ROOT
REMARK  Name = phenelzine
REMARK                            x       y       z     vdW  Elec       q    Type
REMARK                         _______ _______ _______ _____ _____    ______ ____
ATOM      1  N   UNL     1      61.625  63.818  69.156  0.00  0.00    +0.000 NA
ATOM      2  N   UNL     1      61.785  63.449  68.435  0.00  0.00    +0.000 NA
ATOM      3  C   UNL     1      61.167  63.141  67.984  0.00  0.00    +0.000 C 
ATOM      4  C   UNL     1      61.326  62.772  67.263  0.00  0.00    +0.000 C 
ATOM      5  C   UNL     1      60.709  62.463  66.813  0.00  0.00    +0.000 A 
ATOM      6  C   UNL     1      60.867  62.095  66.092  0.00  0.00    +0.000 A 
ATOM      7  C   UNL     1      60.249  61.786  65.641  0.00  0.00    +0.000 A 
ATOM      8  C   UNL     1      59.472  61.846  65.911  0.00  0.00    +0.000 A 
ATOM      9  C   UNL     1      59.312  62.214  66.632  0.00  0.00    +0.000 A 
ATOM     10  C   UNL     1      59.931  62.523  67.083  0.00  0.00    +0.000 A 
ENDROOT
TORSDOF 0
ENDMDL
MODEL 8
REMARK VINA RESULT:    -5.832      3.357      4.982
REMARK INTER + INTRA:          -5.832
REMARK INTER:                  -5.832
REMARK INTRA:                   0.000
REMARK UNBOUND:                 0.000
ROOT
REMARK  Name = phenelzine
REMARK                            x       y       z     vdW  Elec       q    Type
REMARK                         _______ _______ _______ _____ _____    ______ ____
ATOM      1  N   UNL     1      60.654  63.142  66.898  0.00  0.00    +0.000 NA
ATOM      2  N   UNL     1      60.598  62.509  67.425  0.00  0.00    +0.000 NA
ATOM      3  C   UNL     1      60.570  62.651  68.237  0.00  0.00    +0.000 C 
ATOM      4  C   UNL     1      60.514  62.019  68.765  0.00  0.00    +0.000 C 
ATOM      5  C   UNL     1      60.486  62.160  69.576  0.00  0.00    +0.000 A 
ATOM      6  C   UNL     1      60.430  61.529  70.104  0.00  0.00    +0.000 A 
ATOM      7  C   UNL     1      60.403  61.671  70.916  0.00  0.00    +0.000 A 
ATOM      8  C   UNL     1      60.431  62.444  71.201  0.00  0.00    +0.000 A 
ATOM      9  C   UNL     1      60.487  63.076  70.674  0.00  0.00    +0.000 A 
ATOM     10  C   UNL     1      60.515  62.935  69.862  0.00  0.00    +0.000 A 
ENDROOT
TORSDOF 0
ENDMDL
MODEL 9
REMARK VINA RESULT:    -5.719     24.299     24.769
REMARK INTER + INTRA:          -5.719
REMARK INTER:                  -5.719
REMARK INTRA:                   0.000
REMARK UNBOUND:                 0.000
ROOT
REMARK  Name = phenelzine
REMARK                            x       y       z     vdW  Elec       q    Type
REMARK                         _______ _______ _______ _____ _____    ______ ____
ATOM      1  N   UNL     1      68.357  80.218  51.521  0.00  0.00    +0.000 NA
ATOM      2  N   UNL     1      69.110  80.371  51.221  0.00  0.00    +0.000 NA
ATOM      3  C   UNL     1      69.470  79.828  50.715  0.00  0.00    +0.000 C 
ATOM      4  C   UNL     1      70.224  79.981  50.414  0.00  0.00    +0.000 C 
ATOM      5  C   UNL     1      70.583  79.439  49.908  0.00  0.00    +0.000 A 
ATOM      6  C   UNL     1      71.336  79.591  49.607  0.00  0.00    +0.000 A 
ATOM      7  C   UNL     1      71.696  79.048  49.102  0.00  0.00    +0.000 A 
ATOM      8  C   UNL     1      71.304  78.353  48.896  0.00  0.00    +0.000 A 
ATOM      9  C   UNL     1      70.551  78.199  49.197  0.00  0.00    +0.000 A 
ATOM     10  C   UNL     1      70.191  78.742  49.703  0.00  0.00    +0.000 A 
ENDROOT
TORSDOF 0
ENDMDL
