MODEL 1
REMARK VINA RESULT:    -7.092      0.000      0.000
REMARK INTER + INTRA:          -7.092
REMARK INTER:                  -7.092
REMARK INTRA:                   0.000
REMARK UNBOUND:                 0.000
ROOT
REMARK  Name = phenylpropanol
REMARK                            x       y       z     vdW  Elec       q    Type
REMARK                         _______ _______ _______ _____ _____    ______ ____
ATOM      1  C   UNL     1      59.397  62.236  66.710  0.00  0.00    +0.000 C 
ATOM      2  C   UNL     1      59.885  62.010  66.085  0.00  0.00    +0.000 C 
ATOM      3  C   UNL     1      60.645  62.327  66.018  0.00  0.00    +0.000 C 
ATOM      4  O   UNL     1      60.914  62.871  66.576  0.00  0.00    +0.000 OA
ATOM      5  C   UNL     1      61.133  62.101  65.394  0.00  0.00    +0.000 A 
ATOM      6  C   UNL     1      61.891  62.418  65.326  0.00  0.00    +0.000 A 
ATOM      7  C   UNL     1      62.379  62.191  64.701  0.00  0.00    +0.000 A 
ATOM      8  C   UNL     1      62.109  61.647  64.144  0.00  0.00    +0.000 A 
ATOM      9  C   UNL     1      61.351  61.329  64.210  0.00  0.00    +0.000 A 
ATOM     10  C   UNL     1      60.862  61.556  64.835  0.00  0.00    +0.000 A 
ENDROOT
TORSDOF 0
ENDMDL
MODEL 2
REMARK VINA RESULT:    -6.738      0.985      2.706
REMARK INTER + INTRA:          -6.738
REMARK INTER:                  -6.738
REMARK INTRA:                   0.000
REMARK UNBOUND:                 0.000
ROOT
REMARK  Name = phenylpropanol
REMARK                            x       y       z     vdW  Elec       q    Type
REMARK                         _______ _______ _______ _____ _____    ______ ____
ATOM      1  C   UNL     1      62.362  61.704  64.525  0.00  0.00    +0.000 C 
ATOM      2  C   UNL     1      61.852  61.922  65.136  0.00  0.00    +0.000 C 
ATOM      3  C   UNL     1      61.049  61.736  65.090  0.00  0.00    +0.000 C 
ATOM      4  O   UNL     1      60.757  61.332  64.433  0.00  0.00    +0.000 OA
ATOM      5  C   UNL     1      60.540  61.953  65.700  0.00  0.00    +0.000 A 
ATOM      6  C   UNL     1      59.737  61.767  65.655  0.00  0.00    +0.000 A 
ATOM      7  C   UNL     1      59.228  61.985  66.266  0.00  0.00    +0.000 A 
ATOM      8  C   UNL     1      59.520  62.389  66.922  0.00  0.00    +0.000 A 
ATOM      9  C   UNL     1      60.323  62.576  66.969  0.00  0.00    +0.000 A 
ATOM     10  C   UNL     1      60.832  62.358  66.358  0.00  0.00    +0.000 A 
ENDROOT
TORSDOF 0
ENDMDL
MODEL 3
REMARK VINA RESULT:    -6.170      5.055      6.310
REMARK INTER + INTRA:          -6.170
REMARK INTER:                  -6.170
REMARK INTRA:                   0.000
REMARK UNBOUND:                 0.000
ROOT
REMARK  Name = phenylpropanol
REMARK                            x       y       z     vdW  Elec       q    Type
REMARK                         _______ _______ _______ _____ _____    ______ ____
ATOM      1  C   UNL     1      60.423  61.974  69.354  0.00  0.00    +0.000 C 
ATOM      2  C   UNL     1      60.754  61.981  70.110  0.00  0.00    +0.000 C 
ATOM      3  C   UNL     1      60.635  62.631  70.606  0.00  0.00    +0.000 C 
ATOM      4  O   UNL     1      60.186  63.271  70.346  0.00  0.00    +0.000 OA
ATOM      5  C   UNL     1      60.965  62.638  71.361  0.00  0.00    +0.000 A 
ATOM      6  C   UNL     1      60.847  63.287  71.857  0.00  0.00    +0.000 A 
ATOM      7  C   UNL     1      61.177  63.294  72.613  0.00  0.00    +0.000 A 
ATOM      8  C   UNL     1      61.626  62.653  72.873  0.00  0.00    +0.000 A 
ATOM      9  C   UNL     1      61.745  62.004  72.378  0.00  0.00    +0.000 A 
ATOM     10  C   UNL     1      61.415  61.997  71.622  0.00  0.00    +0.000 A 
ENDROOT
TORSDOF 0
ENDMDL
MODEL 4
REMARK VINA RESULT:    -6.103     17.777     18.407
REMARK INTER + INTRA:          -6.103
REMARK INTER:                  -6.103
REMARK INTRA:                   0.000
REMARK UNBOUND:                 0.000
ROOT
REMARK  Name = phenylpropanol
REMARK                            x       y       z     vdW  Elec       q    Type
REMARK                         _______ _______ _______ _____ _____    ______ ____
ATOM      1  C   UNL     1      64.628  80.491  58.575  0.00  0.00    +0.000 C 
ATOM      2  C   UNL     1      65.161  79.980  58.942  0.00  0.00    +0.000 C 
ATOM      3  C   UNL     1      65.023  79.166  58.935  0.00  0.00    +0.000 C 
ATOM      4  O   UNL     1      64.351  78.865  58.563  0.00  0.00    +0.000 OA
ATOM      5  C   UNL     1      65.555  78.654  59.301  0.00  0.00    +0.000 A 
ATOM      6  C   UNL     1      65.418  77.841  59.295  0.00  0.00    +0.000 A 
ATOM      7  C   UNL     1      65.951  77.329  59.662  0.00  0.00    +0.000 A 
ATOM      8  C   UNL     1      66.622  77.630  60.034  0.00  0.00    +0.000 A 
ATOM      9  C   UNL     1      66.761  78.444  60.041  0.00  0.00    +0.000 A 
ATOM     10  C   UNL     1      66.228  78.956  59.674  0.00  0.00    +0.000 A 
ENDROOT
TORSDOF 0
ENDMDL
MODEL 5
REMARK VINA RESULT:    -6.060      5.803      6.523
REMARK INTER + INTRA:          -6.060
REMARK INTER:                  -6.060
REMARK INTRA:                   0.000
REMARK UNBOUND:                 0.000
ROOT
REMARK  Name = phenylpropanol
REMARK                            x       y       z     vdW  Elec       q    Type
REMARK                         _______ _______ _______ _____ _____    ______ ____
ATOM      1  C   UNL     1      59.339  64.748  72.134  0.00  0.00    +0.000 C 
ATOM      2  C   UNL     1      59.634  64.049  71.811  0.00  0.00    +0.000 C 
ATOM      3  C   UNL     1      60.334  63.721  72.103  0.00  0.00    +0.000 C 
ATOM      4  O   UNL     1      60.737  64.094  72.718  0.00  0.00    +0.000 OA
ATOM      5  C   UNL     1      60.629  63.023  71.780  0.00  0.00    +0.000 A 
ATOM      6  C   UNL     1      61.328  62.696  72.072  0.00  0.00    +0.000 A 
ATOM      7  C   UNL     1      61.623  61.997  71.748  0.00  0.00    +0.000 A 
ATOM      8  C   UNL     1      61.219  61.625  71.133  0.00  0.00    +0.000 A 
ATOM      9  C   UNL     1      60.520  61.951  70.841  0.00  0.00    +0.000 A 
ATOM     10  C   UNL     1      60.225  62.650  71.164  0.00  0.00    +0.000 A 
ENDROOT
TORSDOF 0
ENDMDL
MODEL 6
REMARK VINA RESULT:    -6.039      7.248      7.924
REMARK INTER + INTRA:          -6.039
REMARK INTER:                  -6.039
REMARK INTRA:                   0.000
REMARK UNBOUND:                 0.000
ROOT
REMARK  Name = phenylpropanol
REMARK                            x       y       z     vdW  Elec       q    Type
REMARK                         _______ _______ _______ _____ _____    ______ ____
ATOM      1  C   UNL     1      63.902  64.643  69.796  0.00  0.00    +0.000 C 
ATOM      2  C   UNL     1      64.375  65.319  69.823  0.00  0.00    +0.000 C 
ATOM      3  C   UNL     1      64.648  65.603  70.548  0.00  0.00    +0.000 C 
ATOM      4  O   UNL     1      64.448  65.210  71.246  0.00  0.00    +0.000 OA
ATOM      5  C   UNL     1      65.120  66.278  70.575  0.00  0.00    +0.000 A 
ATOM      6  C   UNL     1      65.394  66.562  71.300  0.00  0.00    +0.000 A 
ATOM      7  C   UNL     1      65.866  67.237  71.327  0.00  0.00    +0.000 A 
ATOM      8  C   UNL     1      66.066  67.629  70.630  0.00  0.00    +0.000 A 
ATOM      9  C   UNL     1      65.793  67.346  69.904  0.00  0.00    +0.000 A 
ATOM     10  C   UNL     1      65.320  66.670  69.877  0.00  0.00    +0.000 A 
ENDROOT
TORSDOF 0
ENDMDL
MODEL 7
REMARK VINA RESULT:    -6.029      8.756      9.448
REMARK INTER + INTRA:          -6.029
REMARK INTER:                  -6.029
REMARK INTRA:                   0.000
REMARK UNBOUND:                 0.000
ROOT
REMARK  Name = phenylpropanol
REMARK                            x       y       z     vdW  Elec       q    Type
REMARK                         _______ _______ _______ _____ _____    ______ ____
ATOM      1  C   UNL     1      67.598  66.542  72.922  0.00  0.00    +0.000 C 
ATOM      2  C   UNL     1      66.941  66.565  72.424  0.00  0.00    +0.000 C 
ATOM      3  C   UNL     1      66.986  66.957  71.698  0.00  0.00    +0.000 C 
ATOM      4  O   UNL     1      67.689  67.324  71.471  0.00  0.00    +0.000 OA
ATOM      5  C   UNL     1      66.330  66.980  71.201  0.00  0.00    +0.000 A 
ATOM      6  C   UNL     1      66.374  67.371  70.476  0.00  0.00    +0.000 A 
ATOM      7  C   UNL     1      65.717  67.394  69.978  0.00  0.00    +0.000 A 
ATOM      8  C   UNL     1      65.015  67.027  70.205  0.00  0.00    +0.000 A 
ATOM      9  C   UNL     1      64.969  66.636  70.930  0.00  0.00    +0.000 A 
ATOM     10  C   UNL     1      65.626  66.612  71.428  0.00  0.00    +0.000 A 
ENDROOT
TORSDOF 0
ENDMDL
MODEL 8
REMARK VINA RESULT:    -5.837     24.518     25.112
REMARK INTER + INTRA:          -5.837
REMARK INTER:                  -5.837
REMARK INTRA:                   0.000
REMARK UNBOUND:                 0.000
ROOT
REMARK  Name = phenylpropanol
REMARK                            x       y       z     vdW  Elec       q    Type
REMARK                         _______ _______ _______ _____ _____    ______ ____
ATOM      1  C   UNL     1      69.087  80.164  51.208  0.00  0.00    +0.000 C 
ATOM      2  C   UNL     1      69.475  79.669  50.674  0.00  0.00    +0.000 C 
ATOM      3  C   UNL     1      70.209  79.888  50.367  0.00  0.00    +0.000 C 
ATOM      4  O   UNL     1      70.555  80.601  50.595  0.00  0.00    +0.000 OA
ATOM      5  C   UNL     1      70.596  79.394  49.833  0.00  0.00    +0.000 A 
ATOM      6  C   UNL     1      71.330  79.612  49.526  0.00  0.00    +0.000 A 
ATOM      7  C   UNL     1      71.718  79.117  48.992  0.00  0.00    +0.000 A 
ATOM      8  C   UNL     1      71.372  78.404  48.764  0.00  0.00    +0.000 A 
ATOM      9  C   UNL     1      70.637  78.185  49.071  0.00  0.00    +0.000 A 
ATOM     10  C   UNL     1      70.250  78.680  49.605  0.00  0.00    +0.000 A 
ENDROOT
TORSDOF 0
ENDMDL
MODEL 9
REMARK VINA RESULT:    -5.488      6.941      7.644
REMARK INTER + INTRA:          -5.488
REMARK INTER:                  -5.488
REMARK INTRA:                   0.000
REMARK UNBOUND:                 0.000
ROOT
REMARK  Name = phenylpropanol
REMARK                            x       y       z     vdW  Elec       q    Type
REMARK                         _______ _______ _______ _____ _____    ______ ____
ATOM      1  C   UNL     1      66.223  67.321  71.325  0.00  0.00    +0.000 C 
ATOM      2  C   UNL     1      65.694  66.704  71.181  0.00  0.00    +0.000 C 
ATOM      3  C   UNL     1      65.420  66.566  70.414  0.00  0.00    +0.000 C 
ATOM      4  O   UNL     1      65.675  67.046  69.793  0.00  0.00    +0.000 OA
ATOM      5  C   UNL     1      64.893  65.950  70.269  0.00  0.00    +0.000 A 
ATOM      6  C   UNL     1      64.619  65.812  69.504  0.00  0.00    +0.000 A 
ATOM      7  C   UNL     1      64.090  65.196  69.359  0.00  0.00    +0.000 A 
ATOM      8  C   UNL     1      63.836  64.717  69.980  0.00  0.00    +0.000 A 
ATOM      9  C   UNL     1      64.110  64.853  70.746  0.00  0.00    +0.000 A 
ATOM     10  C   UNL     1      64.638  65.470  70.891  0.00  0.00    +0.000 A 
ENDROOT
TORSDOF 0
ENDMDL
