MODEL 1
REMARK VINA RESULT:   -11.745      0.000      0.000
REMARK INTER + INTRA:         -11.745
REMARK INTER:                 -11.745
REMARK INTRA:                   0.000
REMARK UNBOUND:                 0.000
ROOT
REMARK  Name = phenglutarimide
REMARK                            x       y       z     vdW  Elec       q    Type
REMARK                         _______ _______ _______ _____ _____    ______ ____
ATOM      1  C   UNL     1      60.392  63.532  68.702  0.00  0.00    +0.000 C 
ATOM      2  C   UNL     1      60.286  63.129  67.989  0.00  0.00    +0.000 C 
ATOM      3  N   UNL     1      60.917  63.045  67.465  0.00  0.00    +0.000 NA
ATOM      4  C   UNL     1      61.654  63.365  67.652  0.00  0.00    +0.000 C 
ATOM      5  C   UNL     1      61.760  63.767  68.364  0.00  0.00    +0.000 C 
ATOM      6  C   UNL     1      60.810  62.642  66.752  0.00  0.00    +0.000 C 
ATOM      7  C   UNL     1      61.442  62.559  66.228  0.00  0.00    +0.000 C 
ATOM      8  C   UNL     1      61.335  62.156  65.515  0.00  0.00    +0.000 C 
ATOM      9  C   UNL     1      60.965  61.731  64.913  0.00  0.00    +0.000 C 
ATOM     10  C   UNL     1      61.391  61.510  64.241  0.00  0.00    +0.000 C 
ATOM     11  C   UNL     1      62.188  61.714  64.173  0.00  0.00    +0.000 C 
ATOM     12  O   UNL     1      62.614  61.493  63.503  0.00  0.00    +0.000 OA
ATOM     13  N   UNL     1      62.558  62.139  64.777  0.00  0.00    +0.000 NA
ATOM     14  C   UNL     1      62.131  62.360  65.447  0.00  0.00    +0.000 C 
ATOM     15  O   UNL     1      62.502  62.785  66.049  0.00  0.00    +0.000 OA
ATOM     16  C   UNL     1      60.575  62.092  65.831  0.00  0.00    +0.000 A 
ATOM     17  C   UNL     1      60.405  62.424  66.567  0.00  0.00    +0.000 A 
ATOM     18  C   UNL     1      59.646  62.360  66.882  0.00  0.00    +0.000 A 
ATOM     19  C   UNL     1      59.056  61.964  66.462  0.00  0.00    +0.000 A 
ATOM     20  C   UNL     1      59.227  61.632  65.727  0.00  0.00    +0.000 A 
ATOM     21  C   UNL     1      59.986  61.696  65.410  0.00  0.00    +0.000 A 
ENDROOT
TORSDOF 0
ENDMDL
MODEL 2
REMARK VINA RESULT:   -11.282      1.009      3.144
REMARK INTER + INTRA:         -11.282
REMARK INTER:                 -11.282
REMARK INTRA:                   0.000
REMARK UNBOUND:                 0.000
ROOT
REMARK  Name = phenglutarimide
REMARK                            x       y       z     vdW  Elec       q    Type
REMARK                         _______ _______ _______ _____ _____    ______ ____
ATOM      1  C   UNL     1      61.259  61.297  64.064  0.00  0.00    +0.000 C 
ATOM      2  C   UNL     1      60.860  61.556  64.739  0.00  0.00    +0.000 C 
ATOM      3  N   UNL     1      61.271  61.955  65.332  0.00  0.00    +0.000 NA
ATOM      4  C   UNL     1      62.080  62.095  65.251  0.00  0.00    +0.000 C 
ATOM      5  C   UNL     1      62.478  61.837  64.577  0.00  0.00    +0.000 C 
ATOM      6  C   UNL     1      60.872  62.214  66.007  0.00  0.00    +0.000 C 
ATOM      7  C   UNL     1      61.283  62.613  66.600  0.00  0.00    +0.000 C 
ATOM      8  C   UNL     1      60.884  62.872  67.275  0.00  0.00    +0.000 C 
ATOM      9  C   UNL     1      60.269  63.009  67.808  0.00  0.00    +0.000 C 
ATOM     10  C   UNL     1      60.416  63.408  68.515  0.00  0.00    +0.000 C 
ATOM     11  C   UNL     1      61.180  63.670  68.690  0.00  0.00    +0.000 C 
ATOM     12  O   UNL     1      61.327  64.068  69.397  0.00  0.00    +0.000 OA
ATOM     13  N   UNL     1      61.795  63.532  68.157  0.00  0.00    +0.000 NA
ATOM     14  C   UNL     1      61.647  63.134  67.450  0.00  0.00    +0.000 C 
ATOM     15  O   UNL     1      62.263  62.998  66.918  0.00  0.00    +0.000 OA
ATOM     16  C   UNL     1      60.260  62.520  66.866  0.00  0.00    +0.000 A 
ATOM     17  C   UNL     1      60.393  62.171  66.131  0.00  0.00    +0.000 A 
ATOM     18  C   UNL     1      59.770  61.819  65.722  0.00  0.00    +0.000 A 
ATOM     19  C   UNL     1      59.011  61.817  66.049  0.00  0.00    +0.000 A 
ATOM     20  C   UNL     1      58.878  62.167  66.783  0.00  0.00    +0.000 A 
ATOM     21  C   UNL     1      59.503  62.519  67.193  0.00  0.00    +0.000 A 
ENDROOT
TORSDOF 0
ENDMDL
MODEL 3
REMARK VINA RESULT:   -10.531      3.550      6.069
REMARK INTER + INTRA:         -10.531
REMARK INTER:                 -10.531
REMARK INTRA:                   0.000
REMARK UNBOUND:                 0.000
ROOT
REMARK  Name = phenglutarimide
REMARK                            x       y       z     vdW  Elec       q    Type
REMARK                         _______ _______ _______ _____ _____    ______ ____
ATOM      1  C   UNL     1      60.703  61.928  68.483  0.00  0.00    +0.000 C 
ATOM      2  C   UNL     1      60.805  62.079  69.288  0.00  0.00    +0.000 C 
ATOM      3  N   UNL     1      60.533  62.787  69.611  0.00  0.00    +0.000 NA
ATOM      4  C   UNL     1      60.158  63.343  69.131  0.00  0.00    +0.000 C 
ATOM      5  C   UNL     1      60.056  63.192  68.327  0.00  0.00    +0.000 C 
ATOM      6  C   UNL     1      60.635  62.939  70.416  0.00  0.00    +0.000 C 
ATOM      7  C   UNL     1      60.362  63.647  70.740  0.00  0.00    +0.000 C 
ATOM      8  C   UNL     1      60.464  63.798  71.545  0.00  0.00    +0.000 C 
ATOM      9  C   UNL     1      60.688  63.691  72.332  0.00  0.00    +0.000 C 
ATOM     10  C   UNL     1      60.526  64.276  72.891  0.00  0.00    +0.000 C 
ATOM     11  C   UNL     1      60.140  64.969  72.662  0.00  0.00    +0.000 C 
ATOM     12  O   UNL     1      59.978  65.554  73.220  0.00  0.00    +0.000 OA
ATOM     13  N   UNL     1      59.916  65.076  71.874  0.00  0.00    +0.000 NA
ATOM     14  C   UNL     1      60.079  64.491  71.317  0.00  0.00    +0.000 C 
ATOM     15  O   UNL     1      59.854  64.599  70.530  0.00  0.00    +0.000 OA
ATOM     16  C   UNL     1      60.815  63.053  71.494  0.00  0.00    +0.000 A 
ATOM     17  C   UNL     1      60.847  62.661  70.769  0.00  0.00    +0.000 A 
ATOM     18  C   UNL     1      61.197  61.916  70.718  0.00  0.00    +0.000 A 
ATOM     19  C   UNL     1      61.516  61.563  71.392  0.00  0.00    +0.000 A 
ATOM     20  C   UNL     1      61.484  61.955  72.117  0.00  0.00    +0.000 A 
ATOM     21  C   UNL     1      61.133  62.700  72.168  0.00  0.00    +0.000 A 
ENDROOT
TORSDOF 0
ENDMDL
MODEL 4
REMARK VINA RESULT:   -10.487      2.159      3.778
REMARK INTER + INTRA:         -10.487
REMARK INTER:                 -10.487
REMARK INTRA:                   0.000
REMARK UNBOUND:                 0.000
ROOT
REMARK  Name = phenglutarimide
REMARK                            x       y       z     vdW  Elec       q    Type
REMARK                         _______ _______ _______ _____ _____    ______ ____
ATOM      1  C   UNL     1      62.381  64.601  71.718  0.00  0.00    +0.000 C 
ATOM      2  C   UNL     1      61.968  64.007  71.320  0.00  0.00    +0.000 C 
ATOM      3  N   UNL     1      61.870  64.050  70.502  0.00  0.00    +0.000 NA
ATOM      4  C   UNL     1      62.186  64.686  70.082  0.00  0.00    +0.000 C 
ATOM      5  C   UNL     1      62.599  65.279  70.479  0.00  0.00    +0.000 C 
ATOM      6  C   UNL     1      61.457  63.457  70.104  0.00  0.00    +0.000 C 
ATOM      7  C   UNL     1      61.360  63.500  69.286  0.00  0.00    +0.000 C 
ATOM      8  C   UNL     1      60.947  62.906  68.888  0.00  0.00    +0.000 C 
ATOM      9  C   UNL     1      60.516  62.215  68.759  0.00  0.00    +0.000 C 
ATOM     10  C   UNL     1      60.280  62.012  67.994  0.00  0.00    +0.000 C 
ATOM     11  C   UNL     1      60.476  62.501  67.359  0.00  0.00    +0.000 C 
ATOM     12  O   UNL     1      60.241  62.299  66.595  0.00  0.00    +0.000 OA
ATOM     13  N   UNL     1      60.908  63.193  67.489  0.00  0.00    +0.000 NA
ATOM     14  C   UNL     1      61.142  63.395  68.253  0.00  0.00    +0.000 C 
ATOM     15  O   UNL     1      61.574  64.087  68.382  0.00  0.00    +0.000 OA
ATOM     16  C   UNL     1      60.895  62.623  69.662  0.00  0.00    +0.000 A 
ATOM     17  C   UNL     1      61.239  63.046  70.280  0.00  0.00    +0.000 A 
ATOM     18  C   UNL     1      61.187  62.764  71.052  0.00  0.00    +0.000 A 
ATOM     19  C   UNL     1      60.790  62.057  71.208  0.00  0.00    +0.000 A 
ATOM     20  C   UNL     1      60.445  61.634  70.589  0.00  0.00    +0.000 A 
ATOM     21  C   UNL     1      60.497  61.917  69.816  0.00  0.00    +0.000 A 
ENDROOT
TORSDOF 0
ENDMDL
MODEL 5
REMARK VINA RESULT:   -10.463      3.587      5.205
REMARK INTER + INTRA:         -10.463
REMARK INTER:                 -10.463
REMARK INTRA:                   0.000
REMARK UNBOUND:                 0.000
ROOT
REMARK  Name = phenglutarimide
REMARK                            x       y       z     vdW  Elec       q    Type
REMARK                         _______ _______ _______ _____ _____    ______ ____
ATOM      1  C   UNL     1      63.128  65.893  71.721  0.00  0.00    +0.000 C 
ATOM      2  C   UNL     1      62.694  65.191  71.730  0.00  0.00    +0.000 C 
ATOM      3  N   UNL     1      62.420  64.867  71.022  0.00  0.00    +0.000 NA
ATOM      4  C   UNL     1      62.580  65.245  70.306  0.00  0.00    +0.000 C 
ATOM      5  C   UNL     1      63.013  65.946  70.298  0.00  0.00    +0.000 C 
ATOM      6  C   UNL     1      61.986  64.165  71.031  0.00  0.00    +0.000 C 
ATOM      7  C   UNL     1      61.712  63.841  70.324  0.00  0.00    +0.000 C 
ATOM      8  C   UNL     1      61.278  63.138  70.332  0.00  0.00    +0.000 C 
ATOM      9  C   UNL     1      60.894  62.469  70.622  0.00  0.00    +0.000 C 
ATOM     10  C   UNL     1      60.519  61.950  70.100  0.00  0.00    +0.000 C 
ATOM     11  C   UNL     1      60.529  62.103  69.289  0.00  0.00    +0.000 C 
ATOM     12  O   UNL     1      60.155  61.585  68.768  0.00  0.00    +0.000 OA
ATOM     13  N   UNL     1      60.914  62.773  69.000  0.00  0.00    +0.000 NA
ATOM     14  C   UNL     1      61.289  63.291  69.522  0.00  0.00    +0.000 C 
ATOM     15  O   UNL     1      61.673  63.961  69.232  0.00  0.00    +0.000 OA
ATOM     16  C   UNL     1      61.419  63.230  71.141  0.00  0.00    +0.000 A 
ATOM     17  C   UNL     1      61.849  63.879  71.414  0.00  0.00    +0.000 A 
ATOM     18  C   UNL     1      61.990  63.971  72.220  0.00  0.00    +0.000 A 
ATOM     19  C   UNL     1      61.700  63.413  72.756  0.00  0.00    +0.000 A 
ATOM     20  C   UNL     1      61.270  62.765  72.483  0.00  0.00    +0.000 A 
ATOM     21  C   UNL     1      61.129  62.673  71.675  0.00  0.00    +0.000 A 
ENDROOT
TORSDOF 0
ENDMDL
MODEL 6
REMARK VINA RESULT:    -9.932      5.763      6.975
REMARK INTER + INTRA:          -9.932
REMARK INTER:                  -9.932
REMARK INTRA:                   0.000
REMARK UNBOUND:                 0.000
ROOT
REMARK  Name = phenglutarimide
REMARK                            x       y       z     vdW  Elec       q    Type
REMARK                         _______ _______ _______ _____ _____    ______ ____
ATOM      1  C   UNL     1      61.405  64.795  72.454  0.00  0.00    +0.000 C 
ATOM      2  C   UNL     1      62.019  64.859  71.906  0.00  0.00    +0.000 C 
ATOM      3  N   UNL     1      62.559  65.481  71.963  0.00  0.00    +0.000 NA
ATOM      4  C   UNL     1      62.485  66.038  72.567  0.00  0.00    +0.000 C 
ATOM      5  C   UNL     1      61.872  65.973  73.114  0.00  0.00    +0.000 C 
ATOM      6  C   UNL     1      63.173  65.545  71.414  0.00  0.00    +0.000 C 
ATOM      7  C   UNL     1      63.712  66.166  71.471  0.00  0.00    +0.000 C 
ATOM      8  C   UNL     1      64.326  66.230  70.923  0.00  0.00    +0.000 C 
ATOM      9  C   UNL     1      64.811  66.058  70.278  0.00  0.00    +0.000 C 
ATOM     10  C   UNL     1      65.454  66.544  70.104  0.00  0.00    +0.000 C 
ATOM     11  C   UNL     1      65.613  67.203  70.575  0.00  0.00    +0.000 C 
ATOM     12  O   UNL     1      66.256  67.689  70.400  0.00  0.00    +0.000 OA
ATOM     13  N   UNL     1      65.128  67.375  71.220  0.00  0.00    +0.000 NA
ATOM     14  C   UNL     1      64.485  66.889  71.394  0.00  0.00    +0.000 C 
ATOM     15  O   UNL     1      64.000  67.062  72.039  0.00  0.00    +0.000 OA
ATOM     16  C   UNL     1      63.954  65.549  70.643  0.00  0.00    +0.000 A 
ATOM     17  C   UNL     1      63.286  65.256  71.027  0.00  0.00    +0.000 A 
ATOM     18  C   UNL     1      62.914  64.576  70.747  0.00  0.00    +0.000 A 
ATOM     19  C   UNL     1      63.211  64.187  70.082  0.00  0.00    +0.000 A 
ATOM     20  C   UNL     1      63.880  64.480  69.698  0.00  0.00    +0.000 A 
ATOM     21  C   UNL     1      64.252  65.161  69.978  0.00  0.00    +0.000 A 
ENDROOT
TORSDOF 0
ENDMDL
MODEL 7
REMARK VINA RESULT:    -9.801      5.495      7.386
REMARK INTER + INTRA:          -9.801
REMARK INTER:                  -9.801
REMARK INTRA:                   0.000
REMARK UNBOUND:                 0.000
ROOT
REMARK  Name = phenglutarimide
REMARK                            x       y       z     vdW  Elec       q    Type
REMARK                         _______ _______ _______ _____ _____    ______ ____
ATOM      1  C   UNL     1      61.622  62.088  71.156  0.00  0.00    +0.000 C 
ATOM      2  C   UNL     1      61.510  62.812  71.537  0.00  0.00    +0.000 C 
ATOM      3  N   UNL     1      60.749  63.117  71.625  0.00  0.00    +0.000 NA
ATOM      4  C   UNL     1      60.100  62.699  71.333  0.00  0.00    +0.000 C 
ATOM      5  C   UNL     1      60.212  61.977  70.953  0.00  0.00    +0.000 C 
ATOM      6  C   UNL     1      60.637  63.841  72.006  0.00  0.00    +0.000 C 
ATOM      7  C   UNL     1      59.875  64.146  72.094  0.00  0.00    +0.000 C 
ATOM      8  C   UNL     1      59.763  64.870  72.475  0.00  0.00    +0.000 C 
ATOM      9  C   UNL     1      59.937  65.572  72.873  0.00  0.00    +0.000 C 
ATOM     10  C   UNL     1      59.327  66.085  73.089  0.00  0.00    +0.000 C 
ATOM     11  C   UNL     1      58.545  65.895  72.907  0.00  0.00    +0.000 C 
ATOM     12  O   UNL     1      57.936  66.408  73.123  0.00  0.00    +0.000 OA
ATOM     13  N   UNL     1      58.372  65.193  72.509  0.00  0.00    +0.000 NA
ATOM     14  C   UNL     1      58.981  64.681  72.294  0.00  0.00    +0.000 C 
ATOM     15  O   UNL     1      58.807  63.979  71.896  0.00  0.00    +0.000 OA
ATOM     16  C   UNL     1      60.585  64.808  72.524  0.00  0.00    +0.000 A 
ATOM     17  C   UNL     1      60.969  64.150  72.207  0.00  0.00    +0.000 A 
ATOM     18  C   UNL     1      61.789  64.088  72.256  0.00  0.00    +0.000 A 
ATOM     19  C   UNL     1      62.227  64.684  72.623  0.00  0.00    +0.000 A 
ATOM     20  C   UNL     1      61.843  65.341  72.940  0.00  0.00    +0.000 A 
ATOM     21  C   UNL     1      61.022  65.404  72.891  0.00  0.00    +0.000 A 
ENDROOT
TORSDOF 0
ENDMDL
MODEL 8
REMARK VINA RESULT:    -9.448     25.039     26.308
REMARK INTER + INTRA:          -9.448
REMARK INTER:                  -9.448
REMARK INTRA:                   0.000
REMARK UNBOUND:                 0.000
ROOT
REMARK  Name = phenglutarimide
REMARK                            x       y       z     vdW  Elec       q    Type
REMARK                         _______ _______ _______ _____ _____    ______ ____
ATOM      1  C   UNL     1      73.238  80.786  48.102  0.00  0.00    +0.000 C 
ATOM      2  C   UNL     1      72.616  80.349  48.425  0.00  0.00    +0.000 C 
ATOM      3  N   UNL     1      72.123  80.691  48.991  0.00  0.00    +0.000 NA
ATOM      4  C   UNL     1      72.250  81.468  49.235  0.00  0.00    +0.000 C 
ATOM      5  C   UNL     1      72.871  81.905  48.912  0.00  0.00    +0.000 C 
ATOM      6  C   UNL     1      71.501  80.254  49.314  0.00  0.00    +0.000 C 
ATOM      7  C   UNL     1      71.008  80.595  49.880  0.00  0.00    +0.000 C 
ATOM      8  C   UNL     1      70.386  80.158  50.202  0.00  0.00    +0.000 C 
ATOM      9  C   UNL     1      69.875  79.527  50.345  0.00  0.00    +0.000 C 
ATOM     10  C   UNL     1      69.262  79.607  50.893  0.00  0.00    +0.000 C 
ATOM     11  C   UNL     1      69.163  80.320  51.298  0.00  0.00    +0.000 C 
ATOM     12  O   UNL     1      68.551  80.401  51.845  0.00  0.00    +0.000 OA
ATOM     13  N   UNL     1      69.675  80.951  51.154  0.00  0.00    +0.000 NA
ATOM     14  C   UNL     1      70.286  80.870  50.607  0.00  0.00    +0.000 C 
ATOM     15  O   UNL     1      70.797  81.502  50.464  0.00  0.00    +0.000 OA
ATOM     16  C   UNL     1      70.702  79.598  49.685  0.00  0.00    +0.000 A 
ATOM     17  C   UNL     1      71.358  79.787  49.223  0.00  0.00    +0.000 A 
ATOM     18  C   UNL     1      71.674  79.227  48.707  0.00  0.00    +0.000 A 
ATOM     19  C   UNL     1      71.334  78.477  48.653  0.00  0.00    +0.000 A 
ATOM     20  C   UNL     1      70.678  78.288  49.115  0.00  0.00    +0.000 A 
ATOM     21  C   UNL     1      70.362  78.848  49.632  0.00  0.00    +0.000 A 
ENDROOT
TORSDOF 0
ENDMDL
MODEL 9
REMARK VINA RESULT:    -9.338      5.468      7.807
REMARK INTER + INTRA:          -9.338
REMARK INTER:                  -9.338
REMARK INTRA:                   0.000
REMARK UNBOUND:                 0.000
ROOT
REMARK  Name = phenglutarimide
REMARK                            x       y       z     vdW  Elec       q    Type
REMARK                         _______ _______ _______ _____ _____    ______ ____
ATOM      1  C   UNL     1      62.095  63.870  70.372  0.00  0.00    +0.000 C 
ATOM      2  C   UNL     1      62.616  64.465  70.609  0.00  0.00    +0.000 C 
ATOM      3  N   UNL     1      62.339  65.105  71.049  0.00  0.00    +0.000 NA
ATOM      4  C   UNL     1      61.540  65.152  71.251  0.00  0.00    +0.000 C 
ATOM      5  C   UNL     1      61.020  64.558  71.014  0.00  0.00    +0.000 C 
ATOM      6  C   UNL     1      62.860  65.700  71.286  0.00  0.00    +0.000 C 
ATOM      7  C   UNL     1      62.582  66.340  71.725  0.00  0.00    +0.000 C 
ATOM      8  C   UNL     1      63.104  66.934  71.963  0.00  0.00    +0.000 C 
ATOM      9  C   UNL     1      63.806  67.356  72.059  0.00  0.00    +0.000 C 
ATOM     10  C   UNL     1      63.806  68.067  72.479  0.00  0.00    +0.000 C 
ATOM     11  C   UNL     1      63.104  68.355  72.803  0.00  0.00    +0.000 C 
ATOM     12  O   UNL     1      63.104  69.064  73.222  0.00  0.00    +0.000 OA
ATOM     13  N   UNL     1      62.401  67.932  72.706  0.00  0.00    +0.000 NA
ATOM     14  C   UNL     1      62.402  67.222  72.287  0.00  0.00    +0.000 C 
ATOM     15  O   UNL     1      61.699  66.800  72.191  0.00  0.00    +0.000 OA
ATOM     16  C   UNL     1      63.625  66.440  71.556  0.00  0.00    +0.000 A 
ATOM     17  C   UNL     1      63.348  65.746  71.207  0.00  0.00    +0.000 A 
ATOM     18  C   UNL     1      63.868  65.253  70.801  0.00  0.00    +0.000 A 
ATOM     19  C   UNL     1      64.667  65.452  70.744  0.00  0.00    +0.000 A 
ATOM     20  C   UNL     1      64.944  66.146  71.093  0.00  0.00    +0.000 A 
ATOM     21  C   UNL     1      64.423  66.640  71.500  0.00  0.00    +0.000 A 
ENDROOT
TORSDOF 0
ENDMDL
