MODEL 1
REMARK VINA RESULT:   -12.075      0.000      0.000
REMARK INTER + INTRA:         -12.075
REMARK INTER:                 -12.075
REMARK INTRA:                   0.000
REMARK UNBOUND:                 0.000
ROOT
REMARK  Name = phenprocoumon
REMARK                            x       y       z     vdW  Elec       q    Type
REMARK                         _______ _______ _______ _____ _____    ______ ____
ATOM      1  C   UNL     1      59.262  61.973  66.347  0.00  0.00    +0.000 C 
ATOM      2  C   UNL     1      59.517  62.370  67.025  0.00  0.00    +0.000 C 
ATOM      3  C   UNL     1      60.306  62.600  67.097  0.00  0.00    +0.000 C 
ATOM      4  C   UNL     1      60.559  62.997  67.774  0.00  0.00    +0.000 A 
ATOM      5  C   UNL     1      61.350  63.226  67.846  0.00  0.00    +0.000 A 
ATOM      6  C   UNL     1      61.603  63.623  68.523  0.00  0.00    +0.000 A 
ATOM      7  C   UNL     1      61.069  63.790  69.128  0.00  0.00    +0.000 A 
ATOM      8  C   UNL     1      60.279  63.560  69.056  0.00  0.00    +0.000 A 
ATOM      9  C   UNL     1      60.025  63.163  68.380  0.00  0.00    +0.000 A 
ATOM     10  C   UNL     1      60.840  62.433  66.491  0.00  0.00    +0.000 A 
ATOM     11  C   UNL     1      60.586  62.036  65.814  0.00  0.00    +0.000 A 
ATOM     12  O   UNL     1      59.797  61.807  65.742  0.00  0.00    +0.000 OA
ATOM     13  C   UNL     1      61.121  61.869  65.209  0.00  0.00    +0.000 A 
ATOM     14  C   UNL     1      60.867  61.473  64.531  0.00  0.00    +0.000 A 
ATOM     15  C   UNL     1      61.401  61.306  63.926  0.00  0.00    +0.000 A 
ATOM     16  C   UNL     1      62.191  61.536  63.998  0.00  0.00    +0.000 A 
ATOM     17  C   UNL     1      62.445  61.932  64.674  0.00  0.00    +0.000 A 
ATOM     18  C   UNL     1      61.911  62.099  65.281  0.00  0.00    +0.000 A 
ATOM     19  O   UNL     1      62.165  62.496  65.957  0.00  0.00    +0.000 OA
ATOM     20  C   UNL     1      61.630  62.663  66.562  0.00  0.00    +0.000 A 
ATOM     21  O   UNL     1      61.884  63.059  67.240  0.00  0.00    +0.000 OA
ENDROOT
TORSDOF 0
ENDMDL
MODEL 2
REMARK VINA RESULT:   -12.058      0.377      3.444
REMARK INTER + INTRA:         -12.058
REMARK INTER:                 -12.058
REMARK INTRA:                   0.000
REMARK UNBOUND:                 0.000
ROOT
REMARK  Name = phenprocoumon
REMARK                            x       y       z     vdW  Elec       q    Type
REMARK                         _______ _______ _______ _____ _____    ______ ____
ATOM      1  C   UNL     1      59.245  62.015  66.446  0.00  0.00    +0.000 C 
ATOM      2  C   UNL     1      59.767  61.836  65.831  0.00  0.00    +0.000 C 
ATOM      3  C   UNL     1      60.559  62.059  65.885  0.00  0.00    +0.000 C 
ATOM      4  C   UNL     1      61.080  61.880  65.270  0.00  0.00    +0.000 A 
ATOM      5  C   UNL     1      61.873  62.104  65.324  0.00  0.00    +0.000 A 
ATOM      6  C   UNL     1      62.394  61.925  64.710  0.00  0.00    +0.000 A 
ATOM      7  C   UNL     1      62.123  61.524  64.043  0.00  0.00    +0.000 A 
ATOM      8  C   UNL     1      61.329  61.301  63.989  0.00  0.00    +0.000 A 
ATOM      9  C   UNL     1      60.809  61.479  64.603  0.00  0.00    +0.000 A 
ATOM     10  C   UNL     1      60.830  62.461  66.553  0.00  0.00    +0.000 A 
ATOM     11  C   UNL     1      60.309  62.640  67.167  0.00  0.00    +0.000 A 
ATOM     12  O   UNL     1      59.517  62.417  67.113  0.00  0.00    +0.000 OA
ATOM     13  C   UNL     1      60.580  63.041  67.834  0.00  0.00    +0.000 A 
ATOM     14  C   UNL     1      60.059  63.220  68.448  0.00  0.00    +0.000 A 
ATOM     15  C   UNL     1      60.330  63.621  69.115  0.00  0.00    +0.000 A 
ATOM     16  C   UNL     1      61.123  63.845  69.169  0.00  0.00    +0.000 A 
ATOM     17  C   UNL     1      61.644  63.666  68.555  0.00  0.00    +0.000 A 
ATOM     18  C   UNL     1      61.373  63.264  67.887  0.00  0.00    +0.000 A 
ATOM     19  O   UNL     1      61.894  63.086  67.274  0.00  0.00    +0.000 OA
ATOM     20  C   UNL     1      61.623  62.685  66.606  0.00  0.00    +0.000 A 
ATOM     21  O   UNL     1      62.144  62.506  65.992  0.00  0.00    +0.000 OA
ENDROOT
TORSDOF 0
ENDMDL
MODEL 3
REMARK VINA RESULT:   -10.872      2.238      3.686
REMARK INTER + INTRA:         -10.872
REMARK INTER:                 -10.872
REMARK INTRA:                   0.000
REMARK UNBOUND:                 0.000
ROOT
REMARK  Name = phenprocoumon
REMARK                            x       y       z     vdW  Elec       q    Type
REMARK                         _______ _______ _______ _____ _____    ______ ____
ATOM      1  C   UNL     1      60.159  61.591  70.589  0.00  0.00    +0.000 C 
ATOM      2  C   UNL     1      60.505  62.099  71.141  0.00  0.00    +0.000 C 
ATOM      3  C   UNL     1      60.957  62.740  70.884  0.00  0.00    +0.000 C 
ATOM      4  C   UNL     1      61.302  63.247  71.436  0.00  0.00    +0.000 A 
ATOM      5  C   UNL     1      61.755  63.889  71.179  0.00  0.00    +0.000 A 
ATOM      6  C   UNL     1      62.100  64.396  71.730  0.00  0.00    +0.000 A 
ATOM      7  C   UNL     1      61.995  64.262  72.536  0.00  0.00    +0.000 A 
ATOM      8  C   UNL     1      61.543  63.620  72.793  0.00  0.00    +0.000 A 
ATOM      9  C   UNL     1      61.197  63.113  72.242  0.00  0.00    +0.000 A 
ATOM     10  C   UNL     1      61.061  62.873  70.077  0.00  0.00    +0.000 A 
ATOM     11  C   UNL     1      60.716  62.367  69.526  0.00  0.00    +0.000 A 
ATOM     12  O   UNL     1      60.264  61.725  69.782  0.00  0.00    +0.000 OA
ATOM     13  C   UNL     1      60.821  62.500  68.719  0.00  0.00    +0.000 A 
ATOM     14  C   UNL     1      60.475  61.993  68.168  0.00  0.00    +0.000 A 
ATOM     15  C   UNL     1      60.580  62.127  67.361  0.00  0.00    +0.000 A 
ATOM     16  C   UNL     1      61.032  62.769  67.105  0.00  0.00    +0.000 A 
ATOM     17  C   UNL     1      61.378  63.276  67.655  0.00  0.00    +0.000 A 
ATOM     18  C   UNL     1      61.273  63.142  68.463  0.00  0.00    +0.000 A 
ATOM     19  O   UNL     1      61.619  63.649  69.013  0.00  0.00    +0.000 OA
ATOM     20  C   UNL     1      61.514  63.515  69.820  0.00  0.00    +0.000 A 
ATOM     21  O   UNL     1      61.859  64.022  70.372  0.00  0.00    +0.000 OA
ENDROOT
TORSDOF 0
ENDMDL
MODEL 4
REMARK VINA RESULT:   -10.767      2.352      5.030
REMARK INTER + INTRA:         -10.767
REMARK INTER:                 -10.767
REMARK INTRA:                   0.000
REMARK UNBOUND:                 0.000
ROOT
REMARK  Name = phenprocoumon
REMARK                            x       y       z     vdW  Elec       q    Type
REMARK                         _______ _______ _______ _____ _____    ______ ____
ATOM      1  C   UNL     1      60.339  61.474  70.637  0.00  0.00    +0.000 C 
ATOM      2  C   UNL     1      60.414  61.645  69.832  0.00  0.00    +0.000 C 
ATOM      3  C   UNL     1      60.771  62.348  69.592  0.00  0.00    +0.000 C 
ATOM      4  C   UNL     1      60.846  62.519  68.788  0.00  0.00    +0.000 A 
ATOM      5  C   UNL     1      61.204  63.223  68.547  0.00  0.00    +0.000 A 
ATOM      6  C   UNL     1      61.279  63.394  67.744  0.00  0.00    +0.000 A 
ATOM      7  C   UNL     1      60.997  62.862  67.181  0.00  0.00    +0.000 A 
ATOM      8  C   UNL     1      60.639  62.157  67.422  0.00  0.00    +0.000 A 
ATOM      9  C   UNL     1      60.564  61.987  68.225  0.00  0.00    +0.000 A 
ATOM     10  C   UNL     1      61.053  62.881  70.156  0.00  0.00    +0.000 A 
ATOM     11  C   UNL     1      60.978  62.710  70.959  0.00  0.00    +0.000 A 
ATOM     12  O   UNL     1      60.621  62.007  71.199  0.00  0.00    +0.000 OA
ATOM     13  C   UNL     1      61.260  63.242  71.522  0.00  0.00    +0.000 A 
ATOM     14  C   UNL     1      61.185  63.072  72.326  0.00  0.00    +0.000 A 
ATOM     15  C   UNL     1      61.467  63.604  72.889  0.00  0.00    +0.000 A 
ATOM     16  C   UNL     1      61.825  64.309  72.648  0.00  0.00    +0.000 A 
ATOM     17  C   UNL     1      61.900  64.479  71.845  0.00  0.00    +0.000 A 
ATOM     18  C   UNL     1      61.618  63.947  71.281  0.00  0.00    +0.000 A 
ATOM     19  O   UNL     1      61.693  64.117  70.478  0.00  0.00    +0.000 OA
ATOM     20  C   UNL     1      61.411  63.585  69.915  0.00  0.00    +0.000 A 
ATOM     21  O   UNL     1      61.486  63.756  69.111  0.00  0.00    +0.000 OA
ENDROOT
TORSDOF 0
ENDMDL
MODEL 5
REMARK VINA RESULT:   -10.704      4.953      6.736
REMARK INTER + INTRA:         -10.704
REMARK INTER:                 -10.704
REMARK INTRA:                   0.000
REMARK UNBOUND:                 0.000
ROOT
REMARK  Name = phenprocoumon
REMARK                            x       y       z     vdW  Elec       q    Type
REMARK                         _______ _______ _______ _____ _____    ______ ____
ATOM      1  C   UNL     1      63.935  64.619  69.492  0.00  0.00    +0.000 C 
ATOM      2  C   UNL     1      64.415  65.272  69.648  0.00  0.00    +0.000 C 
ATOM      3  C   UNL     1      64.310  65.704  70.343  0.00  0.00    +0.000 C 
ATOM      4  C   UNL     1      64.790  66.357  70.499  0.00  0.00    +0.000 A 
ATOM      5  C   UNL     1      64.685  66.790  71.194  0.00  0.00    +0.000 A 
ATOM      6  C   UNL     1      65.164  67.442  71.350  0.00  0.00    +0.000 A 
ATOM      7  C   UNL     1      65.748  67.663  70.812  0.00  0.00    +0.000 A 
ATOM      8  C   UNL     1      65.853  67.231  70.116  0.00  0.00    +0.000 A 
ATOM      9  C   UNL     1      65.374  66.578  69.960  0.00  0.00    +0.000 A 
ATOM     10  C   UNL     1      63.725  65.483  70.882  0.00  0.00    +0.000 A 
ATOM     11  C   UNL     1      63.246  64.831  70.726  0.00  0.00    +0.000 A 
ATOM     12  O   UNL     1      63.351  64.399  70.031  0.00  0.00    +0.000 OA
ATOM     13  C   UNL     1      62.662  64.610  71.264  0.00  0.00    +0.000 A 
ATOM     14  C   UNL     1      62.182  63.957  71.108  0.00  0.00    +0.000 A 
ATOM     15  C   UNL     1      61.598  63.736  71.647  0.00  0.00    +0.000 A 
ATOM     16  C   UNL     1      61.493  64.169  72.342  0.00  0.00    +0.000 A 
ATOM     17  C   UNL     1      61.972  64.821  72.498  0.00  0.00    +0.000 A 
ATOM     18  C   UNL     1      62.557  65.042  71.960  0.00  0.00    +0.000 A 
ATOM     19  O   UNL     1      63.036  65.695  72.116  0.00  0.00    +0.000 OA
ATOM     20  C   UNL     1      63.620  65.916  71.577  0.00  0.00    +0.000 A 
ATOM     21  O   UNL     1      64.100  66.569  71.733  0.00  0.00    +0.000 OA
ENDROOT
TORSDOF 0
ENDMDL
MODEL 6
REMARK VINA RESULT:   -10.638      5.182      6.395
REMARK INTER + INTRA:         -10.638
REMARK INTER:                 -10.638
REMARK INTRA:                   0.000
REMARK UNBOUND:                 0.000
ROOT
REMARK  Name = phenprocoumon
REMARK                            x       y       z     vdW  Elec       q    Type
REMARK                         _______ _______ _______ _____ _____    ______ ____
ATOM      1  C   UNL     1      62.697  66.076  72.480  0.00  0.00    +0.000 C 
ATOM      2  C   UNL     1      63.245  66.210  71.878  0.00  0.00    +0.000 C 
ATOM      3  C   UNL     1      63.372  65.636  71.300  0.00  0.00    +0.000 C 
ATOM      4  C   UNL     1      63.921  65.770  70.699  0.00  0.00    +0.000 A 
ATOM      5  C   UNL     1      64.048  65.195  70.120  0.00  0.00    +0.000 A 
ATOM      6  C   UNL     1      64.596  65.329  69.519  0.00  0.00    +0.000 A 
ATOM      7  C   UNL     1      65.017  66.037  69.495  0.00  0.00    +0.000 A 
ATOM      8  C   UNL     1      64.890  66.612  70.074  0.00  0.00    +0.000 A 
ATOM      9  C   UNL     1      64.342  66.478  70.675  0.00  0.00    +0.000 A 
ATOM     10  C   UNL     1      62.950  64.927  71.324  0.00  0.00    +0.000 A 
ATOM     11  C   UNL     1      62.402  64.793  71.925  0.00  0.00    +0.000 A 
ATOM     12  O   UNL     1      62.275  65.368  72.503  0.00  0.00    +0.000 OA
ATOM     13  C   UNL     1      61.980  64.085  71.949  0.00  0.00    +0.000 A 
ATOM     14  C   UNL     1      61.432  63.950  72.550  0.00  0.00    +0.000 A 
ATOM     15  C   UNL     1      61.010  63.242  72.574  0.00  0.00    +0.000 A 
ATOM     16  C   UNL     1      61.137  62.667  71.995  0.00  0.00    +0.000 A 
ATOM     17  C   UNL     1      61.685  62.801  71.394  0.00  0.00    +0.000 A 
ATOM     18  C   UNL     1      62.107  63.509  71.370  0.00  0.00    +0.000 A 
ATOM     19  O   UNL     1      62.655  63.643  70.769  0.00  0.00    +0.000 OA
ATOM     20  C   UNL     1      63.077  64.351  70.745  0.00  0.00    +0.000 A 
ATOM     21  O   UNL     1      63.625  64.486  70.144  0.00  0.00    +0.000 OA
ENDROOT
TORSDOF 0
ENDMDL
MODEL 7
REMARK VINA RESULT:   -10.634      1.452      2.452
REMARK INTER + INTRA:         -10.634
REMARK INTER:                 -10.634
REMARK INTRA:                   0.000
REMARK UNBOUND:                 0.000
ROOT
REMARK  Name = phenprocoumon
REMARK                            x       y       z     vdW  Elec       q    Type
REMARK                         _______ _______ _______ _____ _____    ______ ____
ATOM      1  C   UNL     1      60.873  64.440  68.370  0.00  0.00    +0.000 C 
ATOM      2  C   UNL     1      60.709  64.047  69.077  0.00  0.00    +0.000 C 
ATOM      3  C   UNL     1      60.710  63.222  69.101  0.00  0.00    +0.000 C 
ATOM      4  C   UNL     1      60.547  62.830  69.808  0.00  0.00    +0.000 A 
ATOM      5  C   UNL     1      60.548  62.004  69.832  0.00  0.00    +0.000 A 
ATOM      6  C   UNL     1      60.384  61.612  70.539  0.00  0.00    +0.000 A 
ATOM      7  C   UNL     1      60.219  62.044  71.221  0.00  0.00    +0.000 A 
ATOM      8  C   UNL     1      60.218  62.870  71.198  0.00  0.00    +0.000 A 
ATOM      9  C   UNL     1      60.382  63.262  70.491  0.00  0.00    +0.000 A 
ATOM     10  C   UNL     1      60.875  62.790  68.417  0.00  0.00    +0.000 A 
ATOM     11  C   UNL     1      61.039  63.182  67.711  0.00  0.00    +0.000 A 
ATOM     12  O   UNL     1      61.038  64.007  67.687  0.00  0.00    +0.000 OA
ATOM     13  C   UNL     1      61.204  62.751  67.028  0.00  0.00    +0.000 A 
ATOM     14  C   UNL     1      61.368  63.143  66.321  0.00  0.00    +0.000 A 
ATOM     15  C   UNL     1      61.532  62.711  65.638  0.00  0.00    +0.000 A 
ATOM     16  C   UNL     1      61.534  61.885  65.662  0.00  0.00    +0.000 A 
ATOM     17  C   UNL     1      61.370  61.493  66.368  0.00  0.00    +0.000 A 
ATOM     18  C   UNL     1      61.205  61.925  67.052  0.00  0.00    +0.000 A 
ATOM     19  O   UNL     1      61.041  61.533  67.759  0.00  0.00    +0.000 OA
ATOM     20  C   UNL     1      60.877  61.965  68.441  0.00  0.00    +0.000 A 
ATOM     21  O   UNL     1      60.713  61.573  69.149  0.00  0.00    +0.000 OA
ENDROOT
TORSDOF 0
ENDMDL
MODEL 8
REMARK VINA RESULT:   -10.584      5.037      6.612
REMARK INTER + INTRA:         -10.584
REMARK INTER:                 -10.584
REMARK INTRA:                   0.000
REMARK UNBOUND:                 0.000
ROOT
REMARK  Name = phenprocoumon
REMARK                            x       y       z     vdW  Elec       q    Type
REMARK                         _______ _______ _______ _____ _____    ______ ____
ATOM      1  C   UNL     1      63.898  64.631  69.497  0.00  0.00    +0.000 C 
ATOM      2  C   UNL     1      63.323  64.411  70.047  0.00  0.00    +0.000 C 
ATOM      3  C   UNL     1      63.236  64.838  70.747  0.00  0.00    +0.000 C 
ATOM      4  C   UNL     1      62.661  64.617  71.296  0.00  0.00    +0.000 A 
ATOM      5  C   UNL     1      62.574  65.045  71.997  0.00  0.00    +0.000 A 
ATOM      6  C   UNL     1      62.000  64.824  72.546  0.00  0.00    +0.000 A 
ATOM      7  C   UNL     1      61.513  64.177  72.395  0.00  0.00    +0.000 A 
ATOM      8  C   UNL     1      61.600  63.748  71.694  0.00  0.00    +0.000 A 
ATOM      9  C   UNL     1      62.174  63.969  71.146  0.00  0.00    +0.000 A 
ATOM     10  C   UNL     1      63.724  65.487  70.897  0.00  0.00    +0.000 A 
ATOM     11  C   UNL     1      64.298  65.707  70.348  0.00  0.00    +0.000 A 
ATOM     12  O   UNL     1      64.385  65.280  69.648  0.00  0.00    +0.000 OA
ATOM     13  C   UNL     1      64.785  66.355  70.499  0.00  0.00    +0.000 A 
ATOM     14  C   UNL     1      65.360  66.577  69.950  0.00  0.00    +0.000 A 
ATOM     15  C   UNL     1      65.847  67.224  70.100  0.00  0.00    +0.000 A 
ATOM     16  C   UNL     1      65.760  67.653  70.801  0.00  0.00    +0.000 A 
ATOM     17  C   UNL     1      65.185  67.432  71.350  0.00  0.00    +0.000 A 
ATOM     18  C   UNL     1      64.698  66.783  71.200  0.00  0.00    +0.000 A 
ATOM     19  O   UNL     1      64.123  66.563  71.748  0.00  0.00    +0.000 OA
ATOM     20  C   UNL     1      63.636  65.915  71.598  0.00  0.00    +0.000 A 
ATOM     21  O   UNL     1      63.062  65.694  72.147  0.00  0.00    +0.000 OA
ENDROOT
TORSDOF 0
ENDMDL
MODEL 9
REMARK VINA RESULT:   -10.474      4.926      6.034
REMARK INTER + INTRA:         -10.474
REMARK INTER:                 -10.474
REMARK INTRA:                   0.000
REMARK UNBOUND:                 0.000
ROOT
REMARK  Name = phenprocoumon
REMARK                            x       y       z     vdW  Elec       q    Type
REMARK                         _______ _______ _______ _____ _____    ______ ____
ATOM      1  C   UNL     1      62.402  65.751  72.538  0.00  0.00    +0.000 C 
ATOM      2  C   UNL     1      62.001  65.035  72.446  0.00  0.00    +0.000 C 
ATOM      3  C   UNL     1      62.198  64.529  71.825  0.00  0.00    +0.000 C 
ATOM      4  C   UNL     1      61.797  63.814  71.733  0.00  0.00    +0.000 A 
ATOM      5  C   UNL     1      61.994  63.307  71.112  0.00  0.00    +0.000 A 
ATOM      6  C   UNL     1      61.593  62.592  71.020  0.00  0.00    +0.000 A 
ATOM      7  C   UNL     1      60.996  62.384  71.548  0.00  0.00    +0.000 A 
ATOM      8  C   UNL     1      60.798  62.890  72.169  0.00  0.00    +0.000 A 
ATOM      9  C   UNL     1      61.199  63.605  72.261  0.00  0.00    +0.000 A 
ATOM     10  C   UNL     1      62.796  64.739  71.296  0.00  0.00    +0.000 A 
ATOM     11  C   UNL     1      63.197  65.453  71.388  0.00  0.00    +0.000 A 
ATOM     12  O   UNL     1      63.000  65.959  72.009  0.00  0.00    +0.000 OA
ATOM     13  C   UNL     1      63.794  65.662  70.860  0.00  0.00    +0.000 A 
ATOM     14  C   UNL     1      64.196  66.377  70.952  0.00  0.00    +0.000 A 
ATOM     15  C   UNL     1      64.793  66.586  70.424  0.00  0.00    +0.000 A 
ATOM     16  C   UNL     1      64.990  66.079  69.802  0.00  0.00    +0.000 A 
ATOM     17  C   UNL     1      64.590  65.365  69.710  0.00  0.00    +0.000 A 
ATOM     18  C   UNL     1      63.992  65.155  70.239  0.00  0.00    +0.000 A 
ATOM     19  O   UNL     1      63.591  64.440  70.147  0.00  0.00    +0.000 OA
ATOM     20  C   UNL     1      62.993  64.232  70.675  0.00  0.00    +0.000 A 
ATOM     21  O   UNL     1      62.592  63.516  70.583  0.00  0.00    +0.000 OA
ENDROOT
TORSDOF 0
ENDMDL
