MODEL 1
REMARK VINA RESULT:   -10.215      0.000      0.000
REMARK INTER + INTRA:         -10.215
REMARK INTER:                 -10.215
REMARK INTRA:                   0.000
REMARK UNBOUND:                 0.000
ROOT
REMARK  Name = phencyclidine
REMARK                            x       y       z     vdW  Elec       q    Type
REMARK                         _______ _______ _______ _____ _____    ______ ____
ATOM      1  C   UNL     1      61.296  63.366  67.905  0.00  0.00    +0.000 C 
ATOM      2  C   UNL     1      60.595  63.026  67.633  0.00  0.00    +0.000 C 
ATOM      3  C   UNL     1      60.580  62.636  66.906  0.00  0.00    +0.000 C 
ATOM      4  N   UNL     1      61.266  62.587  66.451  0.00  0.00    +0.000 NA
ATOM      5  C   UNL     1      61.967  62.927  66.722  0.00  0.00    +0.000 C 
ATOM      6  C   UNL     1      61.982  63.317  67.449  0.00  0.00    +0.000 C 
ATOM      7  C   UNL     1      61.251  62.197  65.724  0.00  0.00    +0.000 C 
ATOM      8  C   UNL     1      60.963  61.773  65.078  0.00  0.00    +0.000 C 
ATOM      9  C   UNL     1      61.467  61.582  64.452  0.00  0.00    +0.000 C 
ATOM     10  C   UNL     1      62.257  61.815  64.474  0.00  0.00    +0.000 C 
ATOM     11  C   UNL     1      62.545  62.239  65.120  0.00  0.00    +0.000 C 
ATOM     12  C   UNL     1      62.042  62.430  65.745  0.00  0.00    +0.000 C 
ATOM     13  C   UNL     1      60.465  62.099  65.955  0.00  0.00    +0.000 A 
ATOM     14  C   UNL     1      60.205  62.408  66.675  0.00  0.00    +0.000 A 
ATOM     15  C   UNL     1      59.419  62.311  66.906  0.00  0.00    +0.000 A 
ATOM     16  C   UNL     1      58.893  61.904  66.418  0.00  0.00    +0.000 A 
ATOM     17  C   UNL     1      59.153  61.595  65.698  0.00  0.00    +0.000 A 
ATOM     18  C   UNL     1      59.939  61.693  65.467  0.00  0.00    +0.000 A 
ENDROOT
TORSDOF 0
ENDMDL
MODEL 2
REMARK VINA RESULT:    -9.904      0.333      2.092
REMARK INTER + INTRA:          -9.904
REMARK INTER:                  -9.904
REMARK INTRA:                   0.000
REMARK UNBOUND:                 0.000
ROOT
REMARK  Name = phencyclidine
REMARK                            x       y       z     vdW  Elec       q    Type
REMARK                         _______ _______ _______ _____ _____    ______ ____
ATOM      1  C   UNL     1      58.824  61.986  66.489  0.00  0.00    +0.000 C 
ATOM      2  C   UNL     1      59.355  62.387  66.978  0.00  0.00    +0.000 C 
ATOM      3  C   UNL     1      60.150  62.445  66.764  0.00  0.00    +0.000 C 
ATOM      4  N   UNL     1      60.414  62.102  66.061  0.00  0.00    +0.000 NA
ATOM      5  C   UNL     1      59.884  61.702  65.573  0.00  0.00    +0.000 C 
ATOM      6  C   UNL     1      59.089  61.644  65.786  0.00  0.00    +0.000 C 
ATOM      7  C   UNL     1      61.208  62.160  65.847  0.00  0.00    +0.000 C 
ATOM      8  C   UNL     1      62.008  62.361  65.883  0.00  0.00    +0.000 C 
ATOM      9  C   UNL     1      62.518  62.130  65.276  0.00  0.00    +0.000 C 
ATOM     10  C   UNL     1      62.229  61.698  64.636  0.00  0.00    +0.000 C 
ATOM     11  C   UNL     1      61.429  61.497  64.602  0.00  0.00    +0.000 C 
ATOM     12  C   UNL     1      60.919  61.728  65.207  0.00  0.00    +0.000 C 
ATOM     13  C   UNL     1      61.222  62.572  66.562  0.00  0.00    +0.000 A 
ATOM     14  C   UNL     1      60.527  62.664  66.998  0.00  0.00    +0.000 A 
ATOM     15  C   UNL     1      60.541  63.077  67.713  0.00  0.00    +0.000 A 
ATOM     16  C   UNL     1      61.249  63.397  67.992  0.00  0.00    +0.000 A 
ATOM     17  C   UNL     1      61.943  63.304  67.556  0.00  0.00    +0.000 A 
ATOM     18  C   UNL     1      61.930  62.892  66.841  0.00  0.00    +0.000 A 
ENDROOT
TORSDOF 0
ENDMDL
MODEL 3
REMARK VINA RESULT:    -9.832      4.111      6.136
REMARK INTER + INTRA:          -9.832
REMARK INTER:                  -9.832
REMARK INTRA:                   0.000
REMARK UNBOUND:                 0.000
ROOT
REMARK  Name = phencyclidine
REMARK                            x       y       z     vdW  Elec       q    Type
REMARK                         _______ _______ _______ _____ _____    ______ ____
ATOM      1  C   UNL     1      60.594  61.949  69.759  0.00  0.00    +0.000 C 
ATOM      2  C   UNL     1      60.997  61.676  70.425  0.00  0.00    +0.000 C 
ATOM      3  C   UNL     1      61.060  62.154  71.095  0.00  0.00    +0.000 C 
ATOM      4  N   UNL     1      60.720  62.906  71.097  0.00  0.00    +0.000 NA
ATOM      5  C   UNL     1      60.317  63.179  70.432  0.00  0.00    +0.000 C 
ATOM      6  C   UNL     1      60.255  62.701  69.762  0.00  0.00    +0.000 C 
ATOM      7  C   UNL     1      60.782  63.384  71.767  0.00  0.00    +0.000 C 
ATOM      8  C   UNL     1      60.988  63.631  72.527  0.00  0.00    +0.000 C 
ATOM      9  C   UNL     1      60.760  64.378  72.793  0.00  0.00    +0.000 C 
ATOM     10  C   UNL     1      60.327  64.877  72.300  0.00  0.00    +0.000 C 
ATOM     11  C   UNL     1      60.122  64.630  71.541  0.00  0.00    +0.000 C 
ATOM     12  C   UNL     1      60.349  63.884  71.274  0.00  0.00    +0.000 C 
ATOM     13  C   UNL     1      61.194  62.718  72.028  0.00  0.00    +0.000 A 
ATOM     14  C   UNL     1      61.282  62.066  71.529  0.00  0.00    +0.000 A 
ATOM     15  C   UNL     1      61.694  61.400  71.790  0.00  0.00    +0.000 A 
ATOM     16  C   UNL     1      62.017  61.386  72.549  0.00  0.00    +0.000 A 
ATOM     17  C   UNL     1      61.929  62.038  73.047  0.00  0.00    +0.000 A 
ATOM     18  C   UNL     1      61.518  62.704  72.786  0.00  0.00    +0.000 A 
ENDROOT
TORSDOF 0
ENDMDL
MODEL 4
REMARK VINA RESULT:    -9.803      4.010      5.608
REMARK INTER + INTRA:          -9.803
REMARK INTER:                  -9.803
REMARK INTRA:                   0.000
REMARK UNBOUND:                 0.000
ROOT
REMARK  Name = phencyclidine
REMARK                            x       y       z     vdW  Elec       q    Type
REMARK                         _______ _______ _______ _____ _____    ______ ____
ATOM      1  C   UNL     1      60.560  64.554  72.558  0.00  0.00    +0.000 C 
ATOM      2  C   UNL     1      60.953  63.860  72.772  0.00  0.00    +0.000 C 
ATOM      3  C   UNL     1      61.039  63.249  72.225  0.00  0.00    +0.000 C 
ATOM      4  N   UNL     1      60.731  63.331  71.463  0.00  0.00    +0.000 NA
ATOM      5  C   UNL     1      60.338  64.024  71.249  0.00  0.00    +0.000 C 
ATOM      6  C   UNL     1      60.253  64.635  71.797  0.00  0.00    +0.000 C 
ATOM      7  C   UNL     1      60.817  62.720  70.916  0.00  0.00    +0.000 C 
ATOM      8  C   UNL     1      61.036  61.992  70.595  0.00  0.00    +0.000 C 
ATOM      9  C   UNL     1      60.841  61.812  69.814  0.00  0.00    +0.000 C 
ATOM     10  C   UNL     1      60.429  62.358  69.354  0.00  0.00    +0.000 C 
ATOM     11  C   UNL     1      60.210  63.085  69.676  0.00  0.00    +0.000 C 
ATOM     12  C   UNL     1      60.404  63.266  70.457  0.00  0.00    +0.000 C 
ATOM     13  C   UNL     1      61.200  62.385  71.566  0.00  0.00    +0.000 A 
ATOM     14  C   UNL     1      61.258  62.807  72.273  0.00  0.00    +0.000 A 
ATOM     15  C   UNL     1      61.641  62.472  72.923  0.00  0.00    +0.000 A 
ATOM     16  C   UNL     1      61.967  61.716  72.866  0.00  0.00    +0.000 A 
ATOM     17  C   UNL     1      61.909  61.295  72.159  0.00  0.00    +0.000 A 
ATOM     18  C   UNL     1      61.526  61.629  71.509  0.00  0.00    +0.000 A 
ENDROOT
TORSDOF 0
ENDMDL
MODEL 5
REMARK VINA RESULT:    -9.641      3.570      5.185
REMARK INTER + INTRA:          -9.641
REMARK INTER:                  -9.641
REMARK INTRA:                   0.000
REMARK UNBOUND:                 0.000
ROOT
REMARK  Name = phencyclidine
REMARK                            x       y       z     vdW  Elec       q    Type
REMARK                         _______ _______ _______ _____ _____    ______ ____
ATOM      1  C   UNL     1      62.028  64.414  69.099  0.00  0.00    +0.000 C 
ATOM      2  C   UNL     1      61.601  63.708  69.108  0.00  0.00    +0.000 C 
ATOM      3  C   UNL     1      61.411  63.349  69.827  0.00  0.00    +0.000 C 
ATOM      4  N   UNL     1      61.648  63.697  70.536  0.00  0.00    +0.000 NA
ATOM      5  C   UNL     1      62.075  64.403  70.527  0.00  0.00    +0.000 C 
ATOM      6  C   UNL     1      62.264  64.761  69.809  0.00  0.00    +0.000 C 
ATOM      7  C   UNL     1      61.459  63.339  71.254  0.00  0.00    +0.000 C 
ATOM      8  C   UNL     1      61.149  62.794  71.791  0.00  0.00    +0.000 C 
ATOM      9  C   UNL     1      61.250  62.911  72.601  0.00  0.00    +0.000 C 
ATOM     10  C   UNL     1      61.661  63.572  72.875  0.00  0.00    +0.000 C 
ATOM     11  C   UNL     1      61.970  64.116  72.338  0.00  0.00    +0.000 C 
ATOM     12  C   UNL     1      61.869  64.000  71.528  0.00  0.00    +0.000 C 
ATOM     13  C   UNL     1      61.114  62.802  70.731  0.00  0.00    +0.000 A 
ATOM     14  C   UNL     1      61.161  62.931  69.917  0.00  0.00    +0.000 A 
ATOM     15  C   UNL     1      60.816  62.393  69.394  0.00  0.00    +0.000 A 
ATOM     16  C   UNL     1      60.425  61.728  69.684  0.00  0.00    +0.000 A 
ATOM     17  C   UNL     1      60.378  61.599  70.498  0.00  0.00    +0.000 A 
ATOM     18  C   UNL     1      60.722  62.136  71.022  0.00  0.00    +0.000 A 
ENDROOT
TORSDOF 0
ENDMDL
MODEL 6
REMARK VINA RESULT:    -9.640      0.406      2.775
REMARK INTER + INTRA:          -9.640
REMARK INTER:                  -9.640
REMARK INTRA:                   0.000
REMARK UNBOUND:                 0.000
ROOT
REMARK  Name = phencyclidine
REMARK                            x       y       z     vdW  Elec       q    Type
REMARK                         _______ _______ _______ _____ _____    ______ ____
ATOM      1  C   UNL     1      59.022  61.651  65.783  0.00  0.00    +0.000 C 
ATOM      2  C   UNL     1      59.759  61.611  65.414  0.00  0.00    +0.000 C 
ATOM      3  C   UNL     1      60.418  61.958  65.770  0.00  0.00    +0.000 C 
ATOM      4  N   UNL     1      60.339  62.346  66.494  0.00  0.00    +0.000 NA
ATOM      5  C   UNL     1      59.602  62.386  66.862  0.00  0.00    +0.000 C 
ATOM      6  C   UNL     1      58.944  62.039  66.507  0.00  0.00    +0.000 C 
ATOM      7  C   UNL     1      60.997  62.694  66.849  0.00  0.00    +0.000 C 
ATOM      8  C   UNL     1      61.777  62.935  66.967  0.00  0.00    +0.000 C 
ATOM      9  C   UNL     1      61.979  63.360  67.645  0.00  0.00    +0.000 C 
ATOM     10  C   UNL     1      61.401  63.543  68.204  0.00  0.00    +0.000 C 
ATOM     11  C   UNL     1      60.622  63.302  68.086  0.00  0.00    +0.000 C 
ATOM     12  C   UNL     1      60.420  62.877  67.409  0.00  0.00    +0.000 C 
ATOM     13  C   UNL     1      61.347  62.390  66.166  0.00  0.00    +0.000 A 
ATOM     14  C   UNL     1      60.889  61.978  65.616  0.00  0.00    +0.000 A 
ATOM     15  C   UNL     1      61.238  61.675  64.933  0.00  0.00    +0.000 A 
ATOM     16  C   UNL     1      62.045  61.782  64.800  0.00  0.00    +0.000 A 
ATOM     17  C   UNL     1      62.503  62.193  65.350  0.00  0.00    +0.000 A 
ATOM     18  C   UNL     1      62.154  62.497  66.033  0.00  0.00    +0.000 A 
ENDROOT
TORSDOF 0
ENDMDL
MODEL 7
REMARK VINA RESULT:    -9.616      2.543      4.518
REMARK INTER + INTRA:          -9.616
REMARK INTER:                  -9.616
REMARK INTRA:                   0.000
REMARK UNBOUND:                 0.000
ROOT
REMARK  Name = phencyclidine
REMARK                            x       y       z     vdW  Elec       q    Type
REMARK                         _______ _______ _______ _____ _____    ______ ____
ATOM      1  C   UNL     1      60.400  62.166  67.874  0.00  0.00    +0.000 C 
ATOM      2  C   UNL     1      60.520  61.921  68.654  0.00  0.00    +0.000 C 
ATOM      3  C   UNL     1      60.454  62.464  69.272  0.00  0.00    +0.000 C 
ATOM      4  N   UNL     1      60.268  63.251  69.110  0.00  0.00    +0.000 NA
ATOM      5  C   UNL     1      60.148  63.496  68.332  0.00  0.00    +0.000 C 
ATOM      6  C   UNL     1      60.214  62.954  67.714  0.00  0.00    +0.000 C 
ATOM      7  C   UNL     1      60.202  63.794  69.728  0.00  0.00    +0.000 C 
ATOM      8  C   UNL     1      60.200  64.099  70.495  0.00  0.00    +0.000 C 
ATOM      9  C   UNL     1      60.036  64.899  70.619  0.00  0.00    +0.000 C 
ATOM     10  C   UNL     1      59.874  65.391  69.978  0.00  0.00    +0.000 C 
ATOM     11  C   UNL     1      59.875  65.085  69.212  0.00  0.00    +0.000 C 
ATOM     12  C   UNL     1      60.040  64.287  69.087  0.00  0.00    +0.000 C 
ATOM     13  C   UNL     1      60.387  63.113  70.155  0.00  0.00    +0.000 A 
ATOM     14  C   UNL     1      60.510  62.398  69.760  0.00  0.00    +0.000 A 
ATOM     15  C   UNL     1      60.696  61.717  70.187  0.00  0.00    +0.000 A 
ATOM     16  C   UNL     1      60.758  61.750  71.009  0.00  0.00    +0.000 A 
ATOM     17  C   UNL     1      60.636  62.463  71.404  0.00  0.00    +0.000 A 
ATOM     18  C   UNL     1      60.450  63.145  70.977  0.00  0.00    +0.000 A 
ENDROOT
TORSDOF 0
ENDMDL
MODEL 8
REMARK VINA RESULT:    -9.484      5.410      7.144
REMARK INTER + INTRA:          -9.484
REMARK INTER:                  -9.484
REMARK INTRA:                   0.000
REMARK UNBOUND:                 0.000
ROOT
REMARK  Name = phencyclidine
REMARK                            x       y       z     vdW  Elec       q    Type
REMARK                         _______ _______ _______ _____ _____    ______ ____
ATOM      1  C   UNL     1      62.671  66.065  72.384  0.00  0.00    +0.000 C 
ATOM      2  C   UNL     1      62.812  65.571  71.738  0.00  0.00    +0.000 C 
ATOM      3  C   UNL     1      63.452  65.718  71.238  0.00  0.00    +0.000 C 
ATOM      4  N   UNL     1      63.950  66.359  71.385  0.00  0.00    +0.000 NA
ATOM      5  C   UNL     1      63.810  66.852  72.030  0.00  0.00    +0.000 C 
ATOM      6  C   UNL     1      63.170  66.705  72.530  0.00  0.00    +0.000 C 
ATOM      7  C   UNL     1      64.590  66.506  70.885  0.00  0.00    +0.000 C 
ATOM      8  C   UNL     1      65.120  66.420  70.259  0.00  0.00    +0.000 C 
ATOM      9  C   UNL     1      65.743  66.955  70.170  0.00  0.00    +0.000 C 
ATOM     10  C   UNL     1      65.835  67.574  70.707  0.00  0.00    +0.000 C 
ATOM     11  C   UNL     1      65.305  67.659  71.332  0.00  0.00    +0.000 C 
ATOM     12  C   UNL     1      64.682  67.126  71.422  0.00  0.00    +0.000 C 
ATOM     13  C   UNL     1      64.276  65.836  70.521  0.00  0.00    +0.000 A 
ATOM     14  C   UNL     1      63.604  65.473  70.835  0.00  0.00    +0.000 A 
ATOM     15  C   UNL     1      63.289  64.802  70.471  0.00  0.00    +0.000 A 
ATOM     16  C   UNL     1      63.646  64.494  69.794  0.00  0.00    +0.000 A 
ATOM     17  C   UNL     1      64.318  64.857  69.481  0.00  0.00    +0.000 A 
ATOM     18  C   UNL     1      64.633  65.528  69.844  0.00  0.00    +0.000 A 
ENDROOT
TORSDOF 0
ENDMDL
MODEL 9
REMARK VINA RESULT:    -9.428      3.670      4.797
REMARK INTER + INTRA:          -9.428
REMARK INTER:                  -9.428
REMARK INTRA:                   0.000
REMARK UNBOUND:                 0.000
ROOT
REMARK  Name = phencyclidine
REMARK                            x       y       z     vdW  Elec       q    Type
REMARK                         _______ _______ _______ _____ _____    ______ ____
ATOM      1  C   UNL     1      61.462  63.179  72.771  0.00  0.00    +0.000 C 
ATOM      2  C   UNL     1      61.089  62.679  72.230  0.00  0.00    +0.000 C 
ATOM      3  C   UNL     1      61.182  62.806  71.420  0.00  0.00    +0.000 C 
ATOM      4  N   UNL     1      61.648  63.432  71.151  0.00  0.00    +0.000 NA
ATOM      5  C   UNL     1      62.020  63.931  71.691  0.00  0.00    +0.000 C 
ATOM      6  C   UNL     1      61.927  63.805  72.501  0.00  0.00    +0.000 C 
ATOM      7  C   UNL     1      61.741  63.558  70.341  0.00  0.00    +0.000 C 
ATOM      8  C   UNL     1      61.662  63.453  69.527  0.00  0.00    +0.000 C 
ATOM      9  C   UNL     1      62.045  63.968  69.007  0.00  0.00    +0.000 C 
ATOM     10  C   UNL     1      62.505  64.585  69.301  0.00  0.00    +0.000 C 
ATOM     11  C   UNL     1      62.583  64.689  70.116  0.00  0.00    +0.000 C 
ATOM     12  C   UNL     1      62.201  64.175  70.636  0.00  0.00    +0.000 C 
ATOM     13  C   UNL     1      61.248  62.896  70.327  0.00  0.00    +0.000 A 
ATOM     14  C   UNL     1      60.995  62.555  71.036  0.00  0.00    +0.000 A 
ATOM     15  C   UNL     1      60.503  61.893  71.022  0.00  0.00    +0.000 A 
ATOM     16  C   UNL     1      60.263  61.572  70.300  0.00  0.00    +0.000 A 
ATOM     17  C   UNL     1      60.516  61.913  69.593  0.00  0.00    +0.000 A 
ATOM     18  C   UNL     1      61.009  62.575  69.606  0.00  0.00    +0.000 A 
ENDROOT
TORSDOF 0
ENDMDL
