MODEL 1
REMARK VINA RESULT:   -10.493      0.000      0.000
REMARK INTER + INTRA:         -10.493
REMARK INTER:                 -10.493
REMARK INTRA:                   0.000
REMARK UNBOUND:                 0.000
ROOT
REMARK  Name = phetharbital
REMARK                            x       y       z     vdW  Elec       q    Type
REMARK                         _______ _______ _______ _____ _____    ______ ____
ATOM      1  C   UNL     1      61.183  61.213  63.975  0.00  0.00    +0.000 C 
ATOM      2  C   UNL     1      61.684  61.650  64.463  0.00  0.00    +0.000 C 
ATOM      3  C   UNL     1      61.406  61.946  65.181  0.00  0.00    +0.000 C 
ATOM      4  C   UNL     1      62.183  62.223  65.203  0.00  0.00    +0.000 C 
ATOM      5  C   UNL     1      62.698  62.059  64.579  0.00  0.00    +0.000 C 
ATOM      6  C   UNL     1      60.726  61.566  64.910  0.00  0.00    +0.000 C 
ATOM      7  O   UNL     1      60.734  61.174  64.185  0.00  0.00    +0.000 OA
ATOM      8  N   UNL     1      60.038  61.579  65.365  0.00  0.00    +0.000 NA
ATOM      9  C   UNL     1      60.030  61.971  66.090  0.00  0.00    +0.000 C 
ATOM     10  O   UNL     1      59.342  61.983  66.544  0.00  0.00    +0.000 OA
ATOM     11  N   UNL     1      60.711  62.351  66.361  0.00  0.00    +0.000 N 
ATOM     12  C   UNL     1      61.399  62.338  65.907  0.00  0.00    +0.000 C 
ATOM     13  O   UNL     1      62.079  62.718  66.178  0.00  0.00    +0.000 OA
ATOM     14  C   UNL     1      60.703  62.743  67.088  0.00  0.00    +0.000 A 
ATOM     15  C   UNL     1      60.015  62.756  67.542  0.00  0.00    +0.000 A 
ATOM     16  C   UNL     1      60.007  63.148  68.268  0.00  0.00    +0.000 A 
ATOM     17  C   UNL     1      60.687  63.528  68.538  0.00  0.00    +0.000 A 
ATOM     18  C   UNL     1      61.375  63.515  68.084  0.00  0.00    +0.000 A 
ATOM     19  C   UNL     1      61.383  63.123  67.358  0.00  0.00    +0.000 A 
ENDROOT
TORSDOF 0
ENDMDL
MODEL 2
REMARK VINA RESULT:   -10.364      0.941      3.566
REMARK INTER + INTRA:         -10.364
REMARK INTER:                 -10.364
REMARK INTRA:                   0.000
REMARK UNBOUND:                 0.000
ROOT
REMARK  Name = phetharbital
REMARK                            x       y       z     vdW  Elec       q    Type
REMARK                         _______ _______ _______ _____ _____    ______ ____
ATOM      1  C   UNL     1      60.569  63.097  67.681  0.00  0.00    +0.000 C 
ATOM      2  C   UNL     1      60.159  62.637  67.132  0.00  0.00    +0.000 C 
ATOM      3  C   UNL     1      60.535  62.385  66.443  0.00  0.00    +0.000 C 
ATOM      4  C   UNL     1      59.789  62.049  66.331  0.00  0.00    +0.000 C 
ATOM      5  C   UNL     1      59.199  62.155  66.899  0.00  0.00    +0.000 C 
ATOM      6  C   UNL     1      61.149  62.808  66.794  0.00  0.00    +0.000 C 
ATOM      7  O   UNL     1      61.033  63.176  67.522  0.00  0.00    +0.000 OA
ATOM      8  N   UNL     1      61.881  62.862  66.417  0.00  0.00    +0.000 NA
ATOM      9  C   UNL     1      61.998  62.493  65.688  0.00  0.00    +0.000 C 
ATOM     10  O   UNL     1      62.729  62.547  65.311  0.00  0.00    +0.000 OA
ATOM     11  N   UNL     1      61.382  62.070  65.337  0.00  0.00    +0.000 N 
ATOM     12  C   UNL     1      60.651  62.016  65.714  0.00  0.00    +0.000 C 
ATOM     13  O   UNL     1      60.036  61.593  65.362  0.00  0.00    +0.000 OA
ATOM     14  C   UNL     1      61.499  61.700  64.607  0.00  0.00    +0.000 A 
ATOM     15  C   UNL     1      62.230  61.754  64.231  0.00  0.00    +0.000 A 
ATOM     16  C   UNL     1      62.347  61.385  63.502  0.00  0.00    +0.000 A 
ATOM     17  C   UNL     1      61.731  60.963  63.151  0.00  0.00    +0.000 A 
ATOM     18  C   UNL     1      61.001  60.909  63.528  0.00  0.00    +0.000 A 
ATOM     19  C   UNL     1      60.884  61.278  64.257  0.00  0.00    +0.000 A 
ENDROOT
TORSDOF 0
ENDMDL
MODEL 3
REMARK VINA RESULT:    -9.761      0.830      3.209
REMARK INTER + INTRA:          -9.761
REMARK INTER:                  -9.761
REMARK INTRA:                   0.000
REMARK UNBOUND:                 0.000
ROOT
REMARK  Name = phetharbital
REMARK                            x       y       z     vdW  Elec       q    Type
REMARK                         _______ _______ _______ _____ _____    ______ ____
ATOM      1  C   UNL     1      60.308  63.447  68.944  0.00  0.00    +0.000 C 
ATOM      2  C   UNL     1      60.996  63.465  68.489  0.00  0.00    +0.000 C 
ATOM      3  C   UNL     1      61.014  63.092  67.754  0.00  0.00    +0.000 C 
ATOM      4  C   UNL     1      61.784  63.390  67.782  0.00  0.00    +0.000 C 
ATOM      5  C   UNL     1      62.035  63.822  68.440  0.00  0.00    +0.000 C 
ATOM      6  C   UNL     1      60.240  62.924  67.981  0.00  0.00    +0.000 C 
ATOM      7  O   UNL     1      59.954  63.193  68.706  0.00  0.00    +0.000 OA
ATOM      8  N   UNL     1      59.750  62.486  67.482  0.00  0.00    +0.000 NA
ATOM      9  C   UNL     1      60.035  62.216  66.756  0.00  0.00    +0.000 C 
ATOM     10  O   UNL     1      59.545  61.778  66.258  0.00  0.00    +0.000 OA
ATOM     11  N   UNL     1      60.810  62.384  66.530  0.00  0.00    +0.000 N 
ATOM     12  C   UNL     1      61.300  62.822  67.028  0.00  0.00    +0.000 C 
ATOM     13  O   UNL     1      62.076  62.990  66.801  0.00  0.00    +0.000 OA
ATOM     14  C   UNL     1      61.096  62.114  65.803  0.00  0.00    +0.000 A 
ATOM     15  C   UNL     1      60.607  61.677  65.305  0.00  0.00    +0.000 A 
ATOM     16  C   UNL     1      60.892  61.407  64.580  0.00  0.00    +0.000 A 
ATOM     17  C   UNL     1      61.667  61.575  64.353  0.00  0.00    +0.000 A 
ATOM     18  C   UNL     1      62.156  62.013  64.852  0.00  0.00    +0.000 A 
ATOM     19  C   UNL     1      61.871  62.283  65.577  0.00  0.00    +0.000 A 
ENDROOT
TORSDOF 0
ENDMDL
MODEL 4
REMARK VINA RESULT:    -9.358      2.685      4.171
REMARK INTER + INTRA:          -9.358
REMARK INTER:                  -9.358
REMARK INTRA:                   0.000
REMARK UNBOUND:                 0.000
ROOT
REMARK  Name = phetharbital
REMARK                            x       y       z     vdW  Elec       q    Type
REMARK                         _______ _______ _______ _____ _____    ______ ____
ATOM      1  C   UNL     1      61.263  63.108  67.379  0.00  0.00    +0.000 C 
ATOM      2  C   UNL     1      60.890  62.684  67.980  0.00  0.00    +0.000 C 
ATOM      3  C   UNL     1      61.062  62.849  68.769  0.00  0.00    +0.000 C 
ATOM      4  C   UNL     1      60.510  62.244  68.867  0.00  0.00    +0.000 C 
ATOM      5  C   UNL     1      60.166  61.888  68.206  0.00  0.00    +0.000 C 
ATOM      6  C   UNL     1      61.555  63.396  68.398  0.00  0.00    +0.000 C 
ATOM      7  O   UNL     1      61.574  63.441  67.575  0.00  0.00    +0.000 OA
ATOM      8  N   UNL     1      62.028  63.899  68.850  0.00  0.00    +0.000 NA
ATOM      9  C   UNL     1      62.008  63.854  69.673  0.00  0.00    +0.000 C 
ATOM     10  O   UNL     1      62.481  64.356  70.125  0.00  0.00    +0.000 OA
ATOM     11  N   UNL     1      61.515  63.306  70.045  0.00  0.00    +0.000 N 
ATOM     12  C   UNL     1      61.042  62.803  69.593  0.00  0.00    +0.000 C 
ATOM     13  O   UNL     1      60.550  62.255  69.965  0.00  0.00    +0.000 OA
ATOM     14  C   UNL     1      61.496  63.261  70.869  0.00  0.00    +0.000 A 
ATOM     15  C   UNL     1      61.968  63.763  71.321  0.00  0.00    +0.000 A 
ATOM     16  C   UNL     1      61.949  63.718  72.144  0.00  0.00    +0.000 A 
ATOM     17  C   UNL     1      61.456  63.170  72.515  0.00  0.00    +0.000 A 
ATOM     18  C   UNL     1      60.984  62.668  72.063  0.00  0.00    +0.000 A 
ATOM     19  C   UNL     1      61.003  62.713  71.240  0.00  0.00    +0.000 A 
ENDROOT
TORSDOF 0
ENDMDL
MODEL 5
REMARK VINA RESULT:    -9.312      2.354      4.552
REMARK INTER + INTRA:          -9.312
REMARK INTER:                  -9.312
REMARK INTRA:                   0.000
REMARK UNBOUND:                 0.000
ROOT
REMARK  Name = phetharbital
REMARK                            x       y       z     vdW  Elec       q    Type
REMARK                         _______ _______ _______ _____ _____    ______ ____
ATOM      1  C   UNL     1      61.601  62.931  71.411  0.00  0.00    +0.000 C 
ATOM      2  C   UNL     1      61.085  62.449  70.984  0.00  0.00    +0.000 C 
ATOM      3  C   UNL     1      61.012  62.544  70.168  0.00  0.00    +0.000 C 
ATOM      4  C   UNL     1      60.479  61.925  70.289  0.00  0.00    +0.000 C 
ATOM      5  C   UNL     1      60.359  61.626  71.049  0.00  0.00    +0.000 C 
ATOM      6  C   UNL     1      61.569  63.129  70.331  0.00  0.00    +0.000 C 
ATOM      7  O   UNL     1      61.827  63.249  71.105  0.00  0.00    +0.000 OA
ATOM      8  N   UNL     1      61.868  63.595  69.719  0.00  0.00    +0.000 NA
ATOM      9  C   UNL     1      61.610  63.476  68.945  0.00  0.00    +0.000 C 
ATOM     10  O   UNL     1      61.909  63.941  68.334  0.00  0.00    +0.000 OA
ATOM     11  N   UNL     1      61.052  62.890  68.783  0.00  0.00    +0.000 N 
ATOM     12  C   UNL     1      60.753  62.424  69.394  0.00  0.00    +0.000 C 
ATOM     13  O   UNL     1      60.195  61.838  69.231  0.00  0.00    +0.000 OA
ATOM     14  C   UNL     1      60.793  62.770  68.008  0.00  0.00    +0.000 A 
ATOM     15  C   UNL     1      61.092  63.235  67.397  0.00  0.00    +0.000 A 
ATOM     16  C   UNL     1      60.834  63.115  66.623  0.00  0.00    +0.000 A 
ATOM     17  C   UNL     1      60.276  62.530  66.461  0.00  0.00    +0.000 A 
ATOM     18  C   UNL     1      59.977  62.064  67.072  0.00  0.00    +0.000 A 
ATOM     19  C   UNL     1      60.235  62.184  67.846  0.00  0.00    +0.000 A 
ENDROOT
TORSDOF 0
ENDMDL
MODEL 6
REMARK VINA RESULT:    -9.227      3.660      5.871
REMARK INTER + INTRA:          -9.227
REMARK INTER:                  -9.227
REMARK INTRA:                   0.000
REMARK UNBOUND:                 0.000
ROOT
REMARK  Name = phetharbital
REMARK                            x       y       z     vdW  Elec       q    Type
REMARK                         _______ _______ _______ _____ _____    ______ ____
ATOM      1  C   UNL     1      61.595  64.425  72.861  0.00  0.00    +0.000 C 
ATOM      2  C   UNL     1      61.518  63.634  72.643  0.00  0.00    +0.000 C 
ATOM      3  C   UNL     1      61.284  63.438  71.877  0.00  0.00    +0.000 C 
ATOM      4  C   UNL     1      61.370  62.682  72.197  0.00  0.00    +0.000 C 
ATOM      5  C   UNL     1      61.606  62.592  72.983  0.00  0.00    +0.000 C 
ATOM      6  C   UNL     1      61.279  64.260  71.822  0.00  0.00    +0.000 C 
ATOM      7  O   UNL     1      61.483  64.718  72.476  0.00  0.00    +0.000 OA
ATOM      8  N   UNL     1      61.070  64.625  71.112  0.00  0.00    +0.000 NA
ATOM      9  C   UNL     1      60.866  64.168  70.457  0.00  0.00    +0.000 C 
ATOM     10  O   UNL     1      60.657  64.532  69.748  0.00  0.00    +0.000 OA
ATOM     11  N   UNL     1      60.871  63.344  70.512  0.00  0.00    +0.000 N 
ATOM     12  C   UNL     1      61.080  62.979  71.222  0.00  0.00    +0.000 C 
ATOM     13  O   UNL     1      61.085  62.155  71.276  0.00  0.00    +0.000 OA
ATOM     14  C   UNL     1      60.667  62.885  69.857  0.00  0.00    +0.000 A 
ATOM     15  C   UNL     1      60.458  63.250  69.148  0.00  0.00    +0.000 A 
ATOM     16  C   UNL     1      60.253  62.792  68.492  0.00  0.00    +0.000 A 
ATOM     17  C   UNL     1      60.259  61.969  68.548  0.00  0.00    +0.000 A 
ATOM     18  C   UNL     1      60.468  61.605  69.257  0.00  0.00    +0.000 A 
ATOM     19  C   UNL     1      60.672  62.062  69.912  0.00  0.00    +0.000 A 
ENDROOT
TORSDOF 0
ENDMDL
MODEL 7
REMARK VINA RESULT:    -9.203      5.161      6.718
REMARK INTER + INTRA:          -9.203
REMARK INTER:                  -9.203
REMARK INTRA:                   0.000
REMARK UNBOUND:                 0.000
ROOT
REMARK  Name = phetharbital
REMARK                            x       y       z     vdW  Elec       q    Type
REMARK                         _______ _______ _______ _____ _____    ______ ____
ATOM      1  C   UNL     1      62.192  63.628  70.613  0.00  0.00    +0.000 C 
ATOM      2  C   UNL     1      62.374  64.217  71.161  0.00  0.00    +0.000 C 
ATOM      3  C   UNL     1      62.988  64.746  71.008  0.00  0.00    +0.000 C 
ATOM      4  C   UNL     1      62.740  65.023  71.745  0.00  0.00    +0.000 C 
ATOM      5  C   UNL     1      62.113  64.654  72.135  0.00  0.00    +0.000 C 
ATOM      6  C   UNL     1      63.023  64.285  70.325  0.00  0.00    +0.000 C 
ATOM      7  O   UNL     1      62.496  63.660  70.222  0.00  0.00    +0.000 OA
ATOM      8  N   UNL     1      63.586  64.449  69.745  0.00  0.00    +0.000 NA
ATOM      9  C   UNL     1      64.115  65.074  69.848  0.00  0.00    +0.000 C 
ATOM     10  O   UNL     1      64.677  65.239  69.268  0.00  0.00    +0.000 OA
ATOM     11  N   UNL     1      64.079  65.536  70.532  0.00  0.00    +0.000 N 
ATOM     12  C   UNL     1      63.516  65.371  71.112  0.00  0.00    +0.000 C 
ATOM     13  O   UNL     1      63.482  65.833  71.795  0.00  0.00    +0.000 OA
ATOM     14  C   UNL     1      64.608  66.162  70.635  0.00  0.00    +0.000 A 
ATOM     15  C   UNL     1      65.170  66.326  70.056  0.00  0.00    +0.000 A 
ATOM     16  C   UNL     1      65.698  66.951  70.158  0.00  0.00    +0.000 A 
ATOM     17  C   UNL     1      65.663  67.412  70.842  0.00  0.00    +0.000 A 
ATOM     18  C   UNL     1      65.101  67.247  71.421  0.00  0.00    +0.000 A 
ATOM     19  C   UNL     1      64.572  66.622  71.318  0.00  0.00    +0.000 A 
ENDROOT
TORSDOF 0
ENDMDL
MODEL 8
REMARK VINA RESULT:    -8.967      5.499      7.062
REMARK INTER + INTRA:          -8.967
REMARK INTER:                  -8.967
REMARK INTRA:                   0.000
REMARK UNBOUND:                 0.000
ROOT
REMARK  Name = phetharbital
REMARK                            x       y       z     vdW  Elec       q    Type
REMARK                         _______ _______ _______ _____ _____    ______ ____
ATOM      1  C   UNL     1      65.876  67.295  70.169  0.00  0.00    +0.000 C 
ATOM      2  C   UNL     1      65.349  67.211  70.798  0.00  0.00    +0.000 C 
ATOM      3  C   UNL     1      64.804  66.592  70.799  0.00  0.00    +0.000 C 
ATOM      4  C   UNL     1      64.609  66.955  71.514  0.00  0.00    +0.000 C 
ATOM      5  C   UNL     1      65.021  67.626  71.761  0.00  0.00    +0.000 C 
ATOM      6  C   UNL     1      65.188  66.443  70.084  0.00  0.00    +0.000 C 
ATOM      7  O   UNL     1      65.800  66.935  69.835  0.00  0.00    +0.000 OA
ATOM      8  N   UNL     1      64.958  65.802  69.619  0.00  0.00    +0.000 NA
ATOM      9  C   UNL     1      64.346  65.309  69.867  0.00  0.00    +0.000 C 
ATOM     10  O   UNL     1      64.117  64.668  69.402  0.00  0.00    +0.000 OA
ATOM     11  N   UNL     1      63.962  65.458  70.583  0.00  0.00    +0.000 N 
ATOM     12  C   UNL     1      64.191  66.099  71.049  0.00  0.00    +0.000 C 
ATOM     13  O   UNL     1      63.806  66.247  71.764  0.00  0.00    +0.000 OA
ATOM     14  C   UNL     1      63.348  64.965  70.832  0.00  0.00    +0.000 A 
ATOM     15  C   UNL     1      63.119  64.324  70.367  0.00  0.00    +0.000 A 
ATOM     16  C   UNL     1      62.507  63.831  70.616  0.00  0.00    +0.000 A 
ATOM     17  C   UNL     1      62.123  63.980  71.331  0.00  0.00    +0.000 A 
ATOM     18  C   UNL     1      62.352  64.621  71.796  0.00  0.00    +0.000 A 
ATOM     19  C   UNL     1      62.965  65.114  71.547  0.00  0.00    +0.000 A 
ENDROOT
TORSDOF 0
ENDMDL
MODEL 9
REMARK VINA RESULT:    -8.955      5.676      6.538
REMARK INTER + INTRA:          -8.955
REMARK INTER:                  -8.955
REMARK INTRA:                   0.000
REMARK UNBOUND:                 0.000
ROOT
REMARK  Name = phetharbital
REMARK                            x       y       z     vdW  Elec       q    Type
REMARK                         _______ _______ _______ _____ _____    ______ ____
ATOM      1  C   UNL     1      64.316  66.456  70.805  0.00  0.00    +0.000 C 
ATOM      2  C   UNL     1      64.145  65.704  70.513  0.00  0.00    +0.000 C 
ATOM      3  C   UNL     1      63.567  65.242  70.878  0.00  0.00    +0.000 C 
ATOM      4  C   UNL     1      63.801  64.729  70.276  0.00  0.00    +0.000 C 
ATOM      5  C   UNL     1      64.392  64.957  69.745  0.00  0.00    +0.000 C 
ATOM      6  C   UNL     1      63.533  65.915  71.353  0.00  0.00    +0.000 C 
ATOM      7  O   UNL     1      64.029  66.555  71.198  0.00  0.00    +0.000 OA
ATOM      8  N   UNL     1      63.003  65.948  71.984  0.00  0.00    +0.000 NA
ATOM      9  C   UNL     1      62.506  65.308  72.140  0.00  0.00    +0.000 C 
ATOM     10  O   UNL     1      61.976  65.341  72.770  0.00  0.00    +0.000 OA
ATOM     11  N   UNL     1      62.540  64.635  71.664  0.00  0.00    +0.000 N 
ATOM     12  C   UNL     1      63.071  64.601  71.033  0.00  0.00    +0.000 C 
ATOM     13  O   UNL     1      63.104  63.928  70.558  0.00  0.00    +0.000 OA
ATOM     14  C   UNL     1      62.043  63.994  71.820  0.00  0.00    +0.000 A 
ATOM     15  C   UNL     1      61.513  64.027  72.450  0.00  0.00    +0.000 A 
ATOM     16  C   UNL     1      61.017  63.387  72.606  0.00  0.00    +0.000 A 
ATOM     17  C   UNL     1      61.051  62.714  72.130  0.00  0.00    +0.000 A 
ATOM     18  C   UNL     1      61.581  62.681  71.500  0.00  0.00    +0.000 A 
ATOM     19  C   UNL     1      62.077  63.321  71.344  0.00  0.00    +0.000 A 
ENDROOT
TORSDOF 0
ENDMDL
