MODEL 1
REMARK VINA RESULT:   -11.460      0.000      0.000
REMARK INTER + INTRA:         -11.460
REMARK INTER:                 -11.460
REMARK INTRA:                   0.000
REMARK UNBOUND:                 0.000
ROOT
REMARK  Name = picloxydine
REMARK                            x       y       z     vdW  Elec       q    Type
REMARK                         _______ _______ _______ _____ _____    ______ ____
ATOM      1 CL   UNL     1      63.062  57.566  51.841  0.00  0.00    +0.000 Cl
ATOM      2  C   UNL     1      62.926  58.298  52.196  0.00  0.00    +0.000 A 
ATOM      3  C   UNL     1      63.174  58.990  51.824  0.00  0.00    +0.000 A 
ATOM      4  C   UNL     1      63.037  59.722  52.179  0.00  0.00    +0.000 A 
ATOM      5  C   UNL     1      62.653  59.761  52.909  0.00  0.00    +0.000 A 
ATOM      6  N   UNL     1      62.516  60.492  53.265  0.00  0.00    +0.000 NA
ATOM      7  C   UNL     1      62.764  61.186  52.893  0.00  0.00    +0.000 C 
ATOM      8  N   UNL     1      63.149  61.147  52.163  0.00  0.00    +0.000 NA
ATOM      9  N   UNL     1      62.628  61.917  53.248  0.00  0.00    +0.000 NA
ATOM     10  C   UNL     1      62.875  62.610  52.876  0.00  0.00    +0.000 C 
ATOM     11  N   UNL     1      63.260  62.572  52.146  0.00  0.00    +0.000 NA
ATOM     12  N   UNL     1      62.739  63.341  53.231  0.00  0.00    +0.000 N 
ATOM     13  C   UNL     1      62.987  64.034  52.859  0.00  0.00    +0.000 C 
ATOM     14  C   UNL     1      62.850  64.766  53.215  0.00  0.00    +0.000 C 
ATOM     15  N   UNL     1      62.466  64.804  53.944  0.00  0.00    +0.000 N 
ATOM     16  C   UNL     1      62.218  64.111  54.317  0.00  0.00    +0.000 C 
ATOM     17  C   UNL     1      62.355  63.380  53.960  0.00  0.00    +0.000 C 
ATOM     18  C   UNL     1      62.329  65.537  54.300  0.00  0.00    +0.000 C 
ATOM     19  N   UNL     1      61.945  65.575  55.028  0.00  0.00    +0.000 NA
ATOM     20  N   UNL     1      62.577  66.229  53.927  0.00  0.00    +0.000 NA
ATOM     21  C   UNL     1      62.441  66.960  54.283  0.00  0.00    +0.000 C 
ATOM     22  N   UNL     1      62.057  66.999  55.012  0.00  0.00    +0.000 NA
ATOM     23  N   UNL     1      62.689  67.654  53.910  0.00  0.00    +0.000 NA
ATOM     24  C   UNL     1      62.552  68.385  54.267  0.00  0.00    +0.000 A 
ATOM     25  C   UNL     1      62.800  69.078  53.893  0.00  0.00    +0.000 A 
ATOM     26  C   UNL     1      62.663  69.809  54.250  0.00  0.00    +0.000 A 
ATOM     27  C   UNL     1      62.279  69.848  54.978  0.00  0.00    +0.000 A 
ATOM     28 CL   UNL     1      62.143  70.580  55.335  0.00  0.00    +0.000 Cl
ATOM     29  C   UNL     1      62.031  69.155  55.351  0.00  0.00    +0.000 A 
ATOM     30  C   UNL     1      62.168  68.423  54.995  0.00  0.00    +0.000 A 
ATOM     31  C   UNL     1      62.405  59.068  53.282  0.00  0.00    +0.000 A 
ATOM     32  C   UNL     1      62.541  58.337  52.926  0.00  0.00    +0.000 A 
ENDROOT
TORSDOF 0
ENDMDL
MODEL 2
REMARK VINA RESULT:   -11.317     13.572     15.972
REMARK INTER + INTRA:         -11.317
REMARK INTER:                 -11.317
REMARK INTRA:                   0.000
REMARK UNBOUND:                 0.000
ROOT
REMARK  Name = picloxydine
REMARK                            x       y       z     vdW  Elec       q    Type
REMARK                         _______ _______ _______ _____ _____    ______ ____
ATOM      1 CL   UNL     1      60.066  67.218  73.222  0.00  0.00    +0.000 Cl
ATOM      2  C   UNL     1      59.964  66.711  72.579  0.00  0.00    +0.000 A 
ATOM      3  C   UNL     1      60.567  66.623  72.024  0.00  0.00    +0.000 A 
ATOM      4  C   UNL     1      60.466  66.116  71.380  0.00  0.00    +0.000 A 
ATOM      5  C   UNL     1      59.760  65.696  71.293  0.00  0.00    +0.000 A 
ATOM      6  N   UNL     1      59.658  65.190  70.651  0.00  0.00    +0.000 NA
ATOM      7  C   UNL     1      60.261  65.102  70.094  0.00  0.00    +0.000 C 
ATOM      8  N   UNL     1      60.967  65.522  70.181  0.00  0.00    +0.000 NA
ATOM      9  N   UNL     1      60.160  64.596  69.452  0.00  0.00    +0.000 NA
ATOM     10  C   UNL     1      60.763  64.508  68.896  0.00  0.00    +0.000 C 
ATOM     11  N   UNL     1      61.469  64.927  68.983  0.00  0.00    +0.000 NA
ATOM     12  N   UNL     1      60.661  64.001  68.253  0.00  0.00    +0.000 N 
ATOM     13  C   UNL     1      61.264  63.914  67.698  0.00  0.00    +0.000 C 
ATOM     14  C   UNL     1      61.163  63.407  67.054  0.00  0.00    +0.000 C 
ATOM     15  N   UNL     1      60.457  62.987  66.967  0.00  0.00    +0.000 N 
ATOM     16  C   UNL     1      59.854  63.075  67.524  0.00  0.00    +0.000 C 
ATOM     17  C   UNL     1      59.956  63.582  68.166  0.00  0.00    +0.000 C 
ATOM     18  C   UNL     1      60.355  62.480  66.324  0.00  0.00    +0.000 C 
ATOM     19  N   UNL     1      59.651  62.061  66.237  0.00  0.00    +0.000 NA
ATOM     20  N   UNL     1      60.959  62.393  65.768  0.00  0.00    +0.000 NA
ATOM     21  C   UNL     1      60.856  61.886  65.126  0.00  0.00    +0.000 C 
ATOM     22  N   UNL     1      60.152  61.467  65.039  0.00  0.00    +0.000 NA
ATOM     23  N   UNL     1      61.460  61.798  64.570  0.00  0.00    +0.000 NA
ATOM     24  C   UNL     1      61.358  61.291  63.927  0.00  0.00    +0.000 A 
ATOM     25  C   UNL     1      61.962  61.204  63.371  0.00  0.00    +0.000 A 
ATOM     26  C   UNL     1      61.859  60.697  62.728  0.00  0.00    +0.000 A 
ATOM     27  C   UNL     1      61.155  60.278  62.641  0.00  0.00    +0.000 A 
ATOM     28 CL   UNL     1      61.053  59.771  61.998  0.00  0.00    +0.000 Cl
ATOM     29  C   UNL     1      60.552  60.365  63.197  0.00  0.00    +0.000 A 
ATOM     30  C   UNL     1      60.654  60.873  63.840  0.00  0.00    +0.000 A 
ATOM     31  C   UNL     1      59.157  65.784  71.850  0.00  0.00    +0.000 A 
ATOM     32  C   UNL     1      59.258  66.291  72.492  0.00  0.00    +0.000 A 
ENDROOT
TORSDOF 0
ENDMDL
MODEL 3
REMARK VINA RESULT:   -11.301      0.132      7.999
REMARK INTER + INTRA:         -11.301
REMARK INTER:                 -11.301
REMARK INTRA:                   0.000
REMARK UNBOUND:                 0.000
ROOT
REMARK  Name = picloxydine
REMARK                            x       y       z     vdW  Elec       q    Type
REMARK                         _______ _______ _______ _____ _____    ______ ____
ATOM      1 CL   UNL     1      62.060  70.542  55.226  0.00  0.00    +0.000 Cl
ATOM      2  C   UNL     1      62.182  69.807  54.870  0.00  0.00    +0.000 A 
ATOM      3  C   UNL     1      61.982  69.116  55.271  0.00  0.00    +0.000 A 
ATOM      4  C   UNL     1      62.105  68.381  54.915  0.00  0.00    +0.000 A 
ATOM      5  C   UNL     1      62.428  68.340  54.156  0.00  0.00    +0.000 A 
ATOM      6  N   UNL     1      62.550  67.606  53.800  0.00  0.00    +0.000 NA
ATOM      7  C   UNL     1      62.350  66.913  54.201  0.00  0.00    +0.000 C 
ATOM      8  N   UNL     1      62.027  66.955  54.960  0.00  0.00    +0.000 NA
ATOM      9  N   UNL     1      62.472  66.180  53.845  0.00  0.00    +0.000 NA
ATOM     10  C   UNL     1      62.272  65.487  54.246  0.00  0.00    +0.000 C 
ATOM     11  N   UNL     1      61.949  65.529  55.005  0.00  0.00    +0.000 NA
ATOM     12  N   UNL     1      62.395  64.754  53.890  0.00  0.00    +0.000 N 
ATOM     13  C   UNL     1      62.195  64.062  54.292  0.00  0.00    +0.000 C 
ATOM     14  C   UNL     1      62.317  63.328  53.936  0.00  0.00    +0.000 C 
ATOM     15  N   UNL     1      62.640  63.286  53.178  0.00  0.00    +0.000 N 
ATOM     16  C   UNL     1      62.840  63.979  52.775  0.00  0.00    +0.000 C 
ATOM     17  C   UNL     1      62.717  64.712  53.132  0.00  0.00    +0.000 C 
ATOM     18  C   UNL     1      62.763  62.552  52.821  0.00  0.00    +0.000 C 
ATOM     19  N   UNL     1      63.085  62.510  52.064  0.00  0.00    +0.000 NA
ATOM     20  N   UNL     1      62.562  61.860  53.223  0.00  0.00    +0.000 NA
ATOM     21  C   UNL     1      62.685  61.126  52.866  0.00  0.00    +0.000 C 
ATOM     22  N   UNL     1      63.007  61.085  52.109  0.00  0.00    +0.000 NA
ATOM     23  N   UNL     1      62.484  60.434  53.268  0.00  0.00    +0.000 NA
ATOM     24  C   UNL     1      62.607  59.700  52.911  0.00  0.00    +0.000 A 
ATOM     25  C   UNL     1      62.407  59.008  53.313  0.00  0.00    +0.000 A 
ATOM     26  C   UNL     1      62.530  58.274  52.956  0.00  0.00    +0.000 A 
ATOM     27  C   UNL     1      62.852  58.233  52.199  0.00  0.00    +0.000 A 
ATOM     28 CL   UNL     1      62.975  57.498  51.842  0.00  0.00    +0.000 Cl
ATOM     29  C   UNL     1      63.052  58.924  51.797  0.00  0.00    +0.000 A 
ATOM     30  C   UNL     1      62.930  59.659  52.154  0.00  0.00    +0.000 A 
ATOM     31  C   UNL     1      62.628  69.032  53.755  0.00  0.00    +0.000 A 
ATOM     32  C   UNL     1      62.505  69.766  54.111  0.00  0.00    +0.000 A 
ENDROOT
TORSDOF 0
ENDMDL
MODEL 4
REMARK VINA RESULT:   -10.789      2.241      8.293
REMARK INTER + INTRA:         -10.789
REMARK INTER:                 -10.789
REMARK INTRA:                   0.000
REMARK UNBOUND:                 0.000
ROOT
REMARK  Name = picloxydine
REMARK                            x       y       z     vdW  Elec       q    Type
REMARK                         _______ _______ _______ _____ _____    ______ ____
ATOM      1 CL   UNL     1      59.011  72.868  54.416  0.00  0.00    +0.000 Cl
ATOM      2  C   UNL     1      59.247  72.112  54.185  0.00  0.00    +0.000 A 
ATOM      3  C   UNL     1      59.788  71.690  54.643  0.00  0.00    +0.000 A 
ATOM      4  C   UNL     1      60.024  70.934  54.413  0.00  0.00    +0.000 A 
ATOM      5  C   UNL     1      59.718  70.599  53.723  0.00  0.00    +0.000 A 
ATOM      6  N   UNL     1      59.953  69.843  53.492  0.00  0.00    +0.000 NA
ATOM      7  C   UNL     1      60.494  69.421  53.950  0.00  0.00    +0.000 C 
ATOM      8  N   UNL     1      60.801  69.756  54.640  0.00  0.00    +0.000 NA
ATOM      9  N   UNL     1      60.730  68.665  53.720  0.00  0.00    +0.000 NA
ATOM     10  C   UNL     1      61.271  68.243  54.178  0.00  0.00    +0.000 C 
ATOM     11  N   UNL     1      61.577  68.578  54.868  0.00  0.00    +0.000 NA
ATOM     12  N   UNL     1      61.506  67.488  53.947  0.00  0.00    +0.000 N 
ATOM     13  C   UNL     1      62.047  67.066  54.405  0.00  0.00    +0.000 C 
ATOM     14  C   UNL     1      62.283  66.310  54.174  0.00  0.00    +0.000 C 
ATOM     15  N   UNL     1      61.977  65.975  53.485  0.00  0.00    +0.000 N 
ATOM     16  C   UNL     1      61.435  66.397  53.026  0.00  0.00    +0.000 C 
ATOM     17  C   UNL     1      61.200  67.153  53.258  0.00  0.00    +0.000 C 
ATOM     18  C   UNL     1      62.213  65.218  53.254  0.00  0.00    +0.000 C 
ATOM     19  N   UNL     1      61.907  64.884  52.565  0.00  0.00    +0.000 NA
ATOM     20  N   UNL     1      62.754  64.797  53.712  0.00  0.00    +0.000 NA
ATOM     21  C   UNL     1      62.989  64.041  53.481  0.00  0.00    +0.000 C 
ATOM     22  N   UNL     1      62.683  63.707  52.793  0.00  0.00    +0.000 NA
ATOM     23  N   UNL     1      63.530  63.619  53.940  0.00  0.00    +0.000 NA
ATOM     24  C   UNL     1      63.765  62.863  53.708  0.00  0.00    +0.000 A 
ATOM     25  C   UNL     1      64.307  62.442  54.167  0.00  0.00    +0.000 A 
ATOM     26  C   UNL     1      64.542  61.686  53.936  0.00  0.00    +0.000 A 
ATOM     27  C   UNL     1      64.237  61.351  53.247  0.00  0.00    +0.000 A 
ATOM     28 CL   UNL     1      64.472  60.594  53.016  0.00  0.00    +0.000 Cl
ATOM     29  C   UNL     1      63.695  61.772  52.789  0.00  0.00    +0.000 A 
ATOM     30  C   UNL     1      63.460  62.529  53.020  0.00  0.00    +0.000 A 
ATOM     31  C   UNL     1      59.176  71.021  53.265  0.00  0.00    +0.000 A 
ATOM     32  C   UNL     1      58.941  71.776  53.495  0.00  0.00    +0.000 A 
ENDROOT
TORSDOF 0
ENDMDL
MODEL 5
REMARK VINA RESULT:   -10.230      1.887      2.617
REMARK INTER + INTRA:         -10.230
REMARK INTER:                 -10.230
REMARK INTRA:                   0.000
REMARK UNBOUND:                 0.000
ROOT
REMARK  Name = picloxydine
REMARK                            x       y       z     vdW  Elec       q    Type
REMARK                         _______ _______ _______ _____ _____    ______ ____
ATOM      1 CL   UNL     1      64.199  59.476  53.354  0.00  0.00    +0.000 Cl
ATOM      2  C   UNL     1      63.884  60.222  53.194  0.00  0.00    +0.000 A 
ATOM      3  C   UNL     1      63.775  60.764  53.805  0.00  0.00    +0.000 A 
ATOM      4  C   UNL     1      63.460  61.510  53.645  0.00  0.00    +0.000 A 
ATOM      5  C   UNL     1      63.253  61.713  52.872  0.00  0.00    +0.000 A 
ATOM      6  N   UNL     1      62.939  62.458  52.711  0.00  0.00    +0.000 NA
ATOM      7  C   UNL     1      62.830  63.001  53.323  0.00  0.00    +0.000 C 
ATOM      8  N   UNL     1      63.037  62.798  54.096  0.00  0.00    +0.000 NA
ATOM      9  N   UNL     1      62.515  63.746  53.162  0.00  0.00    +0.000 NA
ATOM     10  C   UNL     1      62.406  64.289  53.774  0.00  0.00    +0.000 C 
ATOM     11  N   UNL     1      62.613  64.086  54.547  0.00  0.00    +0.000 NA
ATOM     12  N   UNL     1      62.091  65.034  53.614  0.00  0.00    +0.000 N 
ATOM     13  C   UNL     1      61.983  65.576  54.225  0.00  0.00    +0.000 C 
ATOM     14  C   UNL     1      61.668  66.322  54.065  0.00  0.00    +0.000 C 
ATOM     15  N   UNL     1      61.461  66.525  53.292  0.00  0.00    +0.000 N 
ATOM     16  C   UNL     1      61.570  65.982  52.680  0.00  0.00    +0.000 C 
ATOM     17  C   UNL     1      61.885  65.236  52.841  0.00  0.00    +0.000 C 
ATOM     18  C   UNL     1      61.146  67.270  53.131  0.00  0.00    +0.000 C 
ATOM     19  N   UNL     1      60.940  67.473  52.359  0.00  0.00    +0.000 NA
ATOM     20  N   UNL     1      61.038  67.813  53.743  0.00  0.00    +0.000 NA
ATOM     21  C   UNL     1      60.723  68.558  53.582  0.00  0.00    +0.000 C 
ATOM     22  N   UNL     1      60.516  68.760  52.810  0.00  0.00    +0.000 NA
ATOM     23  N   UNL     1      60.614  69.101  54.194  0.00  0.00    +0.000 NA
ATOM     24  C   UNL     1      60.299  69.846  54.033  0.00  0.00    +0.000 A 
ATOM     25  C   UNL     1      60.191  70.389  54.645  0.00  0.00    +0.000 A 
ATOM     26  C   UNL     1      59.876  71.134  54.484  0.00  0.00    +0.000 A 
ATOM     27  C   UNL     1      59.669  71.336  53.712  0.00  0.00    +0.000 A 
ATOM     28 CL   UNL     1      59.354  72.082  53.551  0.00  0.00    +0.000 Cl
ATOM     29  C   UNL     1      59.777  70.794  53.100  0.00  0.00    +0.000 A 
ATOM     30  C   UNL     1      60.093  70.048  53.261  0.00  0.00    +0.000 A 
ATOM     31  C   UNL     1      63.362  61.170  52.260  0.00  0.00    +0.000 A 
ATOM     32  C   UNL     1      63.677  60.425  52.421  0.00  0.00    +0.000 A 
ENDROOT
TORSDOF 0
ENDMDL
MODEL 6
REMARK VINA RESULT:    -9.664      2.350      2.766
REMARK INTER + INTRA:          -9.664
REMARK INTER:                  -9.664
REMARK INTRA:                   0.000
REMARK UNBOUND:                 0.000
ROOT
REMARK  Name = picloxydine
REMARK                            x       y       z     vdW  Elec       q    Type
REMARK                         _______ _______ _______ _____ _____    ______ ____
ATOM      1 CL   UNL     1      63.778  58.316  54.477  0.00  0.00    +0.000 Cl
ATOM      2  C   UNL     1      63.583  59.000  54.058  0.00  0.00    +0.000 A 
ATOM      3  C   UNL     1      63.519  59.721  54.452  0.00  0.00    +0.000 A 
ATOM      4  C   UNL     1      63.323  60.405  54.034  0.00  0.00    +0.000 A 
ATOM      5  C   UNL     1      63.192  60.366  53.219  0.00  0.00    +0.000 A 
ATOM      6  N   UNL     1      62.997  61.049  52.801  0.00  0.00    +0.000 NA
ATOM      7  C   UNL     1      62.932  61.771  53.195  0.00  0.00    +0.000 C 
ATOM      8  N   UNL     1      63.064  61.810  54.010  0.00  0.00    +0.000 NA
ATOM      9  N   UNL     1      62.737  62.454  52.777  0.00  0.00    +0.000 NA
ATOM     10  C   UNL     1      62.673  63.176  53.171  0.00  0.00    +0.000 C 
ATOM     11  N   UNL     1      62.804  63.215  53.986  0.00  0.00    +0.000 NA
ATOM     12  N   UNL     1      62.478  63.859  52.753  0.00  0.00    +0.000 N 
ATOM     13  C   UNL     1      62.414  64.580  53.147  0.00  0.00    +0.000 C 
ATOM     14  C   UNL     1      62.218  65.264  52.728  0.00  0.00    +0.000 C 
ATOM     15  N   UNL     1      62.087  65.226  51.915  0.00  0.00    +0.000 N 
ATOM     16  C   UNL     1      62.151  64.504  51.520  0.00  0.00    +0.000 C 
ATOM     17  C   UNL     1      62.346  63.821  51.939  0.00  0.00    +0.000 C 
ATOM     18  C   UNL     1      61.891  65.910  51.496  0.00  0.00    +0.000 C 
ATOM     19  N   UNL     1      61.760  65.872  50.683  0.00  0.00    +0.000 NA
ATOM     20  N   UNL     1      61.827  66.631  51.891  0.00  0.00    +0.000 NA
ATOM     21  C   UNL     1      61.632  67.314  51.471  0.00  0.00    +0.000 C 
ATOM     22  N   UNL     1      61.501  67.276  50.659  0.00  0.00    +0.000 NA
ATOM     23  N   UNL     1      61.568  68.036  51.867  0.00  0.00    +0.000 NA
ATOM     24  C   UNL     1      61.372  68.719  51.447  0.00  0.00    +0.000 A 
ATOM     25  C   UNL     1      61.308  69.441  51.842  0.00  0.00    +0.000 A 
ATOM     26  C   UNL     1      61.113  70.124  51.423  0.00  0.00    +0.000 A 
ATOM     27  C   UNL     1      60.982  70.086  50.610  0.00  0.00    +0.000 A 
ATOM     28 CL   UNL     1      60.786  70.770  50.191  0.00  0.00    +0.000 Cl
ATOM     29  C   UNL     1      61.046  69.365  50.215  0.00  0.00    +0.000 A 
ATOM     30  C   UNL     1      61.241  68.681  50.635  0.00  0.00    +0.000 A 
ATOM     31  C   UNL     1      63.256  59.644  52.825  0.00  0.00    +0.000 A 
ATOM     32  C   UNL     1      63.451  58.961  53.244  0.00  0.00    +0.000 A 
ENDROOT
TORSDOF 0
ENDMDL
MODEL 7
REMARK VINA RESULT:    -9.252      2.870      3.194
REMARK INTER + INTRA:          -9.252
REMARK INTER:                  -9.252
REMARK INTRA:                   0.000
REMARK UNBOUND:                 0.000
ROOT
REMARK  Name = picloxydine
REMARK                            x       y       z     vdW  Elec       q    Type
REMARK                         _______ _______ _______ _____ _____    ______ ____
ATOM      1 CL   UNL     1      63.111  57.917  52.445  0.00  0.00    +0.000 Cl
ATOM      2  C   UNL     1      62.964  58.729  52.448  0.00  0.00    +0.000 A 
ATOM      3  C   UNL     1      63.033  59.163  51.750  0.00  0.00    +0.000 A 
ATOM      4  C   UNL     1      62.886  59.975  51.753  0.00  0.00    +0.000 A 
ATOM      5  C   UNL     1      62.671  60.353  52.455  0.00  0.00    +0.000 A 
ATOM      6  N   UNL     1      62.524  61.164  52.458  0.00  0.00    +0.000 NA
ATOM      7  C   UNL     1      62.592  61.599  51.760  0.00  0.00    +0.000 C 
ATOM      8  N   UNL     1      62.808  61.221  51.058  0.00  0.00    +0.000 NA
ATOM      9  N   UNL     1      62.446  62.410  51.763  0.00  0.00    +0.000 NA
ATOM     10  C   UNL     1      62.514  62.845  51.065  0.00  0.00    +0.000 C 
ATOM     11  N   UNL     1      62.729  62.467  50.363  0.00  0.00    +0.000 NA
ATOM     12  N   UNL     1      62.368  63.656  51.068  0.00  0.00    +0.000 N 
ATOM     13  C   UNL     1      62.436  64.091  50.371  0.00  0.00    +0.000 C 
ATOM     14  C   UNL     1      62.289  64.903  50.374  0.00  0.00    +0.000 C 
ATOM     15  N   UNL     1      62.074  65.280  51.075  0.00  0.00    +0.000 N 
ATOM     16  C   UNL     1      62.006  64.846  51.774  0.00  0.00    +0.000 C 
ATOM     17  C   UNL     1      62.153  64.034  51.770  0.00  0.00    +0.000 C 
ATOM     18  C   UNL     1      61.928  66.093  51.078  0.00  0.00    +0.000 C 
ATOM     19  N   UNL     1      61.713  66.470  51.779  0.00  0.00    +0.000 NA
ATOM     20  N   UNL     1      61.996  66.526  50.380  0.00  0.00    +0.000 NA
ATOM     21  C   UNL     1      61.849  67.338  50.384  0.00  0.00    +0.000 C 
ATOM     22  N   UNL     1      61.635  67.715  51.084  0.00  0.00    +0.000 NA
ATOM     23  N   UNL     1      61.918  67.773  49.685  0.00  0.00    +0.000 NA
ATOM     24  C   UNL     1      61.771  68.584  49.689  0.00  0.00    +0.000 A 
ATOM     25  C   UNL     1      61.839  69.019  48.990  0.00  0.00    +0.000 A 
ATOM     26  C   UNL     1      61.693  69.831  48.994  0.00  0.00    +0.000 A 
ATOM     27  C   UNL     1      61.478  70.208  49.695  0.00  0.00    +0.000 A 
ATOM     28 CL   UNL     1      61.331  71.020  49.698  0.00  0.00    +0.000 Cl
ATOM     29  C   UNL     1      61.409  69.774  50.393  0.00  0.00    +0.000 A 
ATOM     30  C   UNL     1      61.556  68.961  50.390  0.00  0.00    +0.000 A 
ATOM     31  C   UNL     1      62.603  59.918  53.153  0.00  0.00    +0.000 A 
ATOM     32  C   UNL     1      62.749  59.107  53.150  0.00  0.00    +0.000 A 
ENDROOT
TORSDOF 0
ENDMDL
MODEL 8
REMARK VINA RESULT:    -8.678     19.392     20.750
REMARK INTER + INTRA:          -8.678
REMARK INTER:                  -8.678
REMARK INTRA:                   0.000
REMARK UNBOUND:                 0.000
ROOT
REMARK  Name = picloxydine
REMARK                            x       y       z     vdW  Elec       q    Type
REMARK                         _______ _______ _______ _____ _____    ______ ____
ATOM      1 CL   UNL     1      81.597  67.063  57.256  0.00  0.00    +0.000 Cl
ATOM      2  C   UNL     1      81.459  67.641  56.684  0.00  0.00    +0.000 A 
ATOM      3  C   UNL     1      81.760  68.402  56.785  0.00  0.00    +0.000 A 
ATOM      4  C   UNL     1      81.622  68.980  56.213  0.00  0.00    +0.000 A 
ATOM      5  C   UNL     1      81.181  68.797  55.539  0.00  0.00    +0.000 A 
ATOM      6  N   UNL     1      81.043  69.374  54.967  0.00  0.00    +0.000 NA
ATOM      7  C   UNL     1      81.344  70.136  55.068  0.00  0.00    +0.000 C 
ATOM      8  N   UNL     1      81.785  70.320  55.742  0.00  0.00    +0.000 NA
ATOM      9  N   UNL     1      81.206  70.714  54.496  0.00  0.00    +0.000 NA
ATOM     10  C   UNL     1      81.507  71.475  54.596  0.00  0.00    +0.000 C 
ATOM     11  N   UNL     1      81.948  71.659  55.270  0.00  0.00    +0.000 NA
ATOM     12  N   UNL     1      81.369  72.053  54.025  0.00  0.00    +0.000 N 
ATOM     13  C   UNL     1      81.670  72.813  54.125  0.00  0.00    +0.000 C 
ATOM     14  C   UNL     1      81.532  73.392  53.553  0.00  0.00    +0.000 C 
ATOM     15  N   UNL     1      81.092  73.208  52.880  0.00  0.00    +0.000 N 
ATOM     16  C   UNL     1      80.791  72.447  52.779  0.00  0.00    +0.000 C 
ATOM     17  C   UNL     1      80.929  71.869  53.351  0.00  0.00    +0.000 C 
ATOM     18  C   UNL     1      80.954  73.787  52.307  0.00  0.00    +0.000 C 
ATOM     19  N   UNL     1      80.514  73.604  51.634  0.00  0.00    +0.000 NA
ATOM     20  N   UNL     1      81.255  74.548  52.409  0.00  0.00    +0.000 NA
ATOM     21  C   UNL     1      81.117  75.125  51.836  0.00  0.00    +0.000 C 
ATOM     22  N   UNL     1      80.677  74.942  51.163  0.00  0.00    +0.000 NA
ATOM     23  N   UNL     1      81.419  75.887  51.937  0.00  0.00    +0.000 NA
ATOM     24  C   UNL     1      81.280  76.464  51.365  0.00  0.00    +0.000 A 
ATOM     25  C   UNL     1      81.582  77.226  51.466  0.00  0.00    +0.000 A 
ATOM     26  C   UNL     1      81.443  77.803  50.893  0.00  0.00    +0.000 A 
ATOM     27  C   UNL     1      81.003  77.620  50.221  0.00  0.00    +0.000 A 
ATOM     28 CL   UNL     1      80.865  78.198  49.648  0.00  0.00    +0.000 Cl
ATOM     29  C   UNL     1      80.702  76.859  50.119  0.00  0.00    +0.000 A 
ATOM     30  C   UNL     1      80.840  76.281  50.692  0.00  0.00    +0.000 A 
ATOM     31  C   UNL     1      80.880  68.035  55.438  0.00  0.00    +0.000 A 
ATOM     32  C   UNL     1      81.018  67.458  56.010  0.00  0.00    +0.000 A 
ENDROOT
TORSDOF 0
ENDMDL
