MODEL 1
REMARK VINA RESULT:   -16.379      0.000      0.000
REMARK INTER + INTRA:         -16.379
REMARK INTER:                 -16.379
REMARK INTRA:                   0.000
REMARK UNBOUND:                 0.000
ROOT
REMARK  Name = pimecrolimus
REMARK                            x       y       z     vdW  Elec       q    Type
REMARK                         _______ _______ _______ _____ _____    ______ ____
ATOM      1  C   UNL     1      61.358  68.491  48.156  0.00  0.00    +0.000 C 
ATOM      2  C   UNL     1      61.472  69.042  48.759  0.00  0.00    +0.000 C 
ATOM      3  C   UNL     1      61.582  68.787  49.536  0.00  0.00    +0.000 C 
ATOM      4  C   UNL     1      61.706  69.405  50.183  0.00  0.00    +0.000 C 
ATOM      5  C   UNL     1      61.752  70.222  50.281  0.00  0.00    +0.000 C 
ATOM      6  C   UNL     1      61.682  70.787  49.684  0.00  0.00    +0.000 C 
ATOM      7  C   UNL     1      61.882  70.376  51.081  0.00  0.00    +0.000 C 
ATOM      8  C   UNL     1      61.915  69.653  51.477  0.00  0.00    +0.000 C 
ATOM      9  C   UNL     1      61.808  69.036  50.940  0.00  0.00    +0.000 C 
ATOM     10  C   UNL     1      62.030  69.319  52.309  0.00  0.00    +0.000 C 
ATOM     11  C   UNL     1      62.022  68.509  52.465  0.00  0.00    +0.000 C 
ATOM     12  O   UNL     1      62.138  69.047  53.080  0.00  0.00    +0.000 OA
ATOM     13  C   UNL     1      62.145  69.857  52.923  0.00  0.00    +0.000 C 
ATOM     14  C   UNL     1      62.130  68.237  53.236  0.00  0.00    +0.000 C 
ATOM     15  O   UNL     1      62.123  67.427  53.392  0.00  0.00    +0.000 OA
ATOM     16  C   UNL     1      62.231  67.155  54.164  0.00  0.00    +0.000 C 
ATOM     17  O   UNL     1      62.339  66.884  54.936  0.00  0.00    +0.000 OA
ATOM     18  C   UNL     1      62.347  67.693  54.779  0.00  0.00    +0.000 C 
ATOM     19  C   UNL     1      62.455  67.421  55.550  0.00  0.00    +0.000 C 
ATOM     20  C   UNL     1      62.354  68.504  54.622  0.00  0.00    +0.000 C 
ATOM     21  C   UNL     1      62.246  68.775  53.851  0.00  0.00    +0.000 C 
ATOM     22  O   UNL     1      62.253  69.585  53.694  0.00  0.00    +0.000 OA
ATOM     23  C   UNL     1      62.369  70.123  54.309  0.00  0.00    +0.000 C 
ATOM     24  C   UNL     1      62.224  66.345  54.321  0.00  0.00    +0.000 C 
ATOM     25  O   UNL     1      62.332  66.074  55.092  0.00  0.00    +0.000 OA
ATOM     26  C   UNL     1      62.108  65.807  53.706  0.00  0.00    +0.000 C 
ATOM     27  O   UNL     1      62.000  66.079  52.935  0.00  0.00    +0.000 OA
ATOM     28  N   UNL     1      62.101  64.998  53.863  0.00  0.00    +0.000 N 
ATOM     29  C   UNL     1      62.209  64.726  54.634  0.00  0.00    +0.000 C 
ATOM     30  C   UNL     1      62.202  63.915  54.791  0.00  0.00    +0.000 C 
ATOM     31  C   UNL     1      62.086  63.377  54.176  0.00  0.00    +0.000 C 
ATOM     32  C   UNL     1      61.978  63.649  53.404  0.00  0.00    +0.000 C 
ATOM     33  C   UNL     1      61.986  64.459  53.248  0.00  0.00    +0.000 C 
ATOM     34  C   UNL     1      61.877  64.732  52.477  0.00  0.00    +0.000 C 
ATOM     35  O   UNL     1      61.762  64.193  51.862  0.00  0.00    +0.000 OA
ATOM     36  O   UNL     1      61.885  65.542  52.321  0.00  0.00    +0.000 OA
ATOM     37  C   UNL     1      61.776  65.813  51.549  0.00  0.00    +0.000 C 
ATOM     38  C   UNL     1      61.784  66.623  51.392  0.00  0.00    +0.000 C 
ATOM     39  C   UNL     1      61.899  67.162  52.007  0.00  0.00    +0.000 C 
ATOM     40  C   UNL     1      61.676  66.895  50.621  0.00  0.00    +0.000 C 
ATOM     41  O   UNL     1      61.560  66.357  50.006  0.00  0.00    +0.000 OA
ATOM     42  C   UNL     1      61.683  67.704  50.464  0.00  0.00    +0.000 C 
ATOM     43  C   UNL     1      61.575  67.977  49.692  0.00  0.00    +0.000 C 
ATOM     44  O   UNL     1      61.459  67.439  49.078  0.00  0.00    +0.000 OA
ATOM     45  C   UNL     1      61.661  65.276  50.934  0.00  0.00    +0.000 C 
ATOM     46  C   UNL     1      61.553  65.547  50.163  0.00  0.00    +0.000 C 
ATOM     47  C   UNL     1      61.654  64.465  51.091  0.00  0.00    +0.000 C 
ATOM     48  C   UNL     1      61.538  63.927  50.475  0.00  0.00    +0.000 C 
ATOM     49  C   UNL     1      61.531  63.117  50.633  0.00  0.00    +0.000 C 
ATOM     50  C   UNL     1      61.415  62.579  50.018  0.00  0.00    +0.000 C 
ATOM     51  C   UNL     1      61.307  62.851  49.246  0.00  0.00    +0.000 C 
ATOM     52 CL   UNL     1      61.192  62.314  48.632  0.00  0.00    +0.000 Cl
ATOM     53  C   UNL     1      61.315  63.661  49.090  0.00  0.00    +0.000 C 
ATOM     54  C   UNL     1      61.430  64.199  49.704  0.00  0.00    +0.000 C 
ATOM     55  O   UNL     1      61.206  63.934  48.319  0.00  0.00    +0.000 OA
ATOM     56  C   UNL     1      61.214  64.743  48.162  0.00  0.00    +0.000 C 
ENDROOT
TORSDOF 0
ENDMDL
MODEL 2
REMARK VINA RESULT:   -16.315      1.592      4.638
REMARK INTER + INTRA:         -16.315
REMARK INTER:                 -16.315
REMARK INTRA:                   0.000
REMARK UNBOUND:                 0.000
ROOT
REMARK  Name = pimecrolimus
REMARK                            x       y       z     vdW  Elec       q    Type
REMARK                         _______ _______ _______ _____ _____    ______ ____
ATOM      1  C   UNL     1      61.712  70.626  50.747  0.00  0.00    +0.000 C 
ATOM      2  C   UNL     1      61.613  70.113  50.109  0.00  0.00    +0.000 C 
ATOM      3  C   UNL     1      61.629  69.297  50.228  0.00  0.00    +0.000 C 
ATOM      4  C   UNL     1      61.519  68.751  49.518  0.00  0.00    +0.000 C 
ATOM      5  C   UNL     1      61.395  68.785  48.703  0.00  0.00    +0.000 C 
ATOM      6  C   UNL     1      61.328  69.471  48.250  0.00  0.00    +0.000 C 
ATOM      7  C   UNL     1      61.350  68.011  48.420  0.00  0.00    +0.000 C 
ATOM      8  C   UNL     1      61.445  67.500  49.060  0.00  0.00    +0.000 C 
ATOM      9  C   UNL     1      61.552  67.936  49.752  0.00  0.00    +0.000 C 
ATOM     10  C   UNL     1      61.471  66.617  49.248  0.00  0.00    +0.000 C 
ATOM     11  C   UNL     1      61.587  66.331  50.013  0.00  0.00    +0.000 C 
ATOM     12  O   UNL     1      61.489  65.803  49.386  0.00  0.00    +0.000 OA
ATOM     13  C   UNL     1      61.374  66.091  48.621  0.00  0.00    +0.000 C 
ATOM     14  C   UNL     1      61.605  65.517  50.151  0.00  0.00    +0.000 C 
ATOM     15  O   UNL     1      61.721  65.231  50.916  0.00  0.00    +0.000 OA
ATOM     16  C   UNL     1      61.739  64.418  51.054  0.00  0.00    +0.000 C 
ATOM     17  O   UNL     1      61.757  63.604  51.190  0.00  0.00    +0.000 OA
ATOM     18  C   UNL     1      61.642  63.891  50.426  0.00  0.00    +0.000 C 
ATOM     19  C   UNL     1      61.660  63.078  50.563  0.00  0.00    +0.000 C 
ATOM     20  C   UNL     1      61.526  64.177  49.660  0.00  0.00    +0.000 C 
ATOM     21  C   UNL     1      61.508  64.990  49.523  0.00  0.00    +0.000 C 
ATOM     22  O   UNL     1      61.392  65.277  48.759  0.00  0.00    +0.000 OA
ATOM     23  C   UNL     1      61.295  64.750  48.131  0.00  0.00    +0.000 C 
ATOM     24  C   UNL     1      61.854  64.131  51.818  0.00  0.00    +0.000 C 
ATOM     25  O   UNL     1      61.873  63.318  51.955  0.00  0.00    +0.000 OA
ATOM     26  C   UNL     1      61.952  64.658  52.446  0.00  0.00    +0.000 C 
ATOM     27  O   UNL     1      61.933  65.471  52.308  0.00  0.00    +0.000 OA
ATOM     28  N   UNL     1      62.067  64.371  53.210  0.00  0.00    +0.000 N 
ATOM     29  C   UNL     1      62.085  63.558  53.348  0.00  0.00    +0.000 C 
ATOM     30  C   UNL     1      62.201  63.271  54.113  0.00  0.00    +0.000 C 
ATOM     31  C   UNL     1      62.298  63.798  54.741  0.00  0.00    +0.000 C 
ATOM     32  C   UNL     1      62.280  64.612  54.603  0.00  0.00    +0.000 C 
ATOM     33  C   UNL     1      62.164  64.898  53.838  0.00  0.00    +0.000 C 
ATOM     34  C   UNL     1      62.146  65.711  53.700  0.00  0.00    +0.000 C 
ATOM     35  O   UNL     1      62.243  66.238  54.328  0.00  0.00    +0.000 OA
ATOM     36  O   UNL     1      62.030  65.997  52.935  0.00  0.00    +0.000 OA
ATOM     37  C   UNL     1      62.012  66.811  52.799  0.00  0.00    +0.000 C 
ATOM     38  C   UNL     1      61.897  67.098  52.033  0.00  0.00    +0.000 C 
ATOM     39  C   UNL     1      61.799  66.571  51.405  0.00  0.00    +0.000 C 
ATOM     40  C   UNL     1      61.878  67.911  51.896  0.00  0.00    +0.000 C 
ATOM     41  O   UNL     1      61.976  68.437  52.524  0.00  0.00    +0.000 OA
ATOM     42  C   UNL     1      61.763  68.197  51.131  0.00  0.00    +0.000 C 
ATOM     43  C   UNL     1      61.745  69.011  50.993  0.00  0.00    +0.000 C 
ATOM     44  O   UNL     1      61.842  69.537  51.621  0.00  0.00    +0.000 OA
ATOM     45  C   UNL     1      62.109  67.338  53.425  0.00  0.00    +0.000 C 
ATOM     46  C   UNL     1      62.091  68.151  53.288  0.00  0.00    +0.000 C 
ATOM     47  C   UNL     1      62.225  67.051  54.191  0.00  0.00    +0.000 C 
ATOM     48  C   UNL     1      62.322  67.579  54.818  0.00  0.00    +0.000 C 
ATOM     49  C   UNL     1      62.438  67.291  55.583  0.00  0.00    +0.000 C 
ATOM     50  C   UNL     1      62.535  67.818  56.211  0.00  0.00    +0.000 C 
ATOM     51  C   UNL     1      62.517  68.632  56.073  0.00  0.00    +0.000 C 
ATOM     52 CL   UNL     1      62.614  69.158  56.700  0.00  0.00    +0.000 Cl
ATOM     53  C   UNL     1      62.401  68.918  55.308  0.00  0.00    +0.000 C 
ATOM     54  C   UNL     1      62.304  68.392  54.681  0.00  0.00    +0.000 C 
ATOM     55  O   UNL     1      62.383  69.731  55.170  0.00  0.00    +0.000 OA
ATOM     56  C   UNL     1      62.267  70.018  54.406  0.00  0.00    +0.000 C 
ENDROOT
TORSDOF 0
ENDMDL
MODEL 3
REMARK VINA RESULT:   -15.861      1.797      6.197
REMARK INTER + INTRA:         -15.861
REMARK INTER:                 -15.861
REMARK INTRA:                   0.000
REMARK UNBOUND:                 0.000
ROOT
REMARK  Name = pimecrolimus
REMARK                            x       y       z     vdW  Elec       q    Type
REMARK                         _______ _______ _______ _____ _____    ______ ____
ATOM      1  C   UNL     1      62.242  63.699  54.888  0.00  0.00    +0.000 C 
ATOM      2  C   UNL     1      62.145  63.350  54.147  0.00  0.00    +0.000 C 
ATOM      3  C   UNL     1      62.062  63.821  53.475  0.00  0.00    +0.000 C 
ATOM      4  C   UNL     1      61.957  63.420  52.673  0.00  0.00    +0.000 C 
ATOM      5  C   UNL     1      61.910  62.667  52.339  0.00  0.00    +0.000 C 
ATOM      6  C   UNL     1      61.958  61.952  52.747  0.00  0.00    +0.000 C 
ATOM      7  C   UNL     1      61.807  62.756  51.526  0.00  0.00    +0.000 C 
ATOM      8  C   UNL     1      61.790  63.563  51.356  0.00  0.00    +0.000 C 
ATOM      9  C   UNL     1      61.882  63.996  52.053  0.00  0.00    +0.000 C 
ATOM     10  C   UNL     1      61.704  64.126  50.656  0.00  0.00    +0.000 C 
ATOM     11  C   UNL     1      61.720  64.946  50.743  0.00  0.00    +0.000 C 
ATOM     12  O   UNL     1      61.622  64.613  49.994  0.00  0.00    +0.000 OA
ATOM     13  C   UNL     1      61.606  63.792  49.908  0.00  0.00    +0.000 C 
ATOM     14  C   UNL     1      61.638  65.433  50.081  0.00  0.00    +0.000 C 
ATOM     15  O   UNL     1      61.654  66.253  50.169  0.00  0.00    +0.000 OA
ATOM     16  C   UNL     1      61.572  66.740  49.507  0.00  0.00    +0.000 C 
ATOM     17  O   UNL     1      61.491  67.225  48.845  0.00  0.00    +0.000 OA
ATOM     18  C   UNL     1      61.475  66.406  48.759  0.00  0.00    +0.000 C 
ATOM     19  C   UNL     1      61.393  66.892  48.098  0.00  0.00    +0.000 C 
ATOM     20  C   UNL     1      61.459  65.585  48.672  0.00  0.00    +0.000 C 
ATOM     21  C   UNL     1      61.540  65.099  49.333  0.00  0.00    +0.000 C 
ATOM     22  O   UNL     1      61.524  64.279  49.247  0.00  0.00    +0.000 OA
ATOM     23  C   UNL     1      61.427  63.945  48.499  0.00  0.00    +0.000 C 
ATOM     24  C   UNL     1      61.588  67.560  49.593  0.00  0.00    +0.000 C 
ATOM     25  O   UNL     1      61.507  68.046  48.932  0.00  0.00    +0.000 OA
ATOM     26  C   UNL     1      61.686  67.894  50.342  0.00  0.00    +0.000 C 
ATOM     27  O   UNL     1      61.768  67.407  51.003  0.00  0.00    +0.000 OA
ATOM     28  N   UNL     1      61.702  68.714  50.428  0.00  0.00    +0.000 N 
ATOM     29  C   UNL     1      61.620  69.200  49.767  0.00  0.00    +0.000 C 
ATOM     30  C   UNL     1      61.636  70.021  49.854  0.00  0.00    +0.000 C 
ATOM     31  C   UNL     1      61.734  70.355  50.602  0.00  0.00    +0.000 C 
ATOM     32  C   UNL     1      61.816  69.868  51.264  0.00  0.00    +0.000 C 
ATOM     33  C   UNL     1      61.800  69.048  51.176  0.00  0.00    +0.000 C 
ATOM     34  C   UNL     1      61.881  68.561  51.838  0.00  0.00    +0.000 C 
ATOM     35  O   UNL     1      61.979  68.895  52.586  0.00  0.00    +0.000 OA
ATOM     36  O   UNL     1      61.865  67.741  51.751  0.00  0.00    +0.000 OA
ATOM     37  C   UNL     1      61.947  67.255  52.413  0.00  0.00    +0.000 C 
ATOM     38  C   UNL     1      61.931  66.434  52.326  0.00  0.00    +0.000 C 
ATOM     39  C   UNL     1      61.833  66.100  51.577  0.00  0.00    +0.000 C 
ATOM     40  C   UNL     1      62.013  65.948  52.987  0.00  0.00    +0.000 C 
ATOM     41  O   UNL     1      62.110  66.282  53.735  0.00  0.00    +0.000 OA
ATOM     42  C   UNL     1      61.997  65.128  52.901  0.00  0.00    +0.000 C 
ATOM     43  C   UNL     1      62.078  64.641  53.562  0.00  0.00    +0.000 C 
ATOM     44  O   UNL     1      62.176  64.975  54.310  0.00  0.00    +0.000 OA
ATOM     45  C   UNL     1      62.045  67.588  53.160  0.00  0.00    +0.000 C 
ATOM     46  C   UNL     1      62.126  67.102  53.822  0.00  0.00    +0.000 C 
ATOM     47  C   UNL     1      62.061  68.409  53.247  0.00  0.00    +0.000 C 
ATOM     48  C   UNL     1      62.158  68.742  53.996  0.00  0.00    +0.000 C 
ATOM     49  C   UNL     1      62.174  69.563  54.082  0.00  0.00    +0.000 C 
ATOM     50  C   UNL     1      62.272  69.897  54.830  0.00  0.00    +0.000 C 
ATOM     51  C   UNL     1      62.354  69.410  55.492  0.00  0.00    +0.000 C 
ATOM     52 CL   UNL     1      62.451  69.744  56.239  0.00  0.00    +0.000 Cl
ATOM     53  C   UNL     1      62.338  68.590  55.404  0.00  0.00    +0.000 C 
ATOM     54  C   UNL     1      62.240  68.256  54.657  0.00  0.00    +0.000 C 
ATOM     55  O   UNL     1      62.419  68.103  56.066  0.00  0.00    +0.000 OA
ATOM     56  C   UNL     1      62.403  67.284  55.980  0.00  0.00    +0.000 C 
ENDROOT
TORSDOF 0
ENDMDL
MODEL 4
REMARK VINA RESULT:   -15.504      1.464      4.632
REMARK INTER + INTRA:         -15.504
REMARK INTER:                 -15.504
REMARK INTRA:                   0.000
REMARK UNBOUND:                 0.000
ROOT
REMARK  Name = pimecrolimus
REMARK                            x       y       z     vdW  Elec       q    Type
REMARK                         _______ _______ _______ _____ _____    ______ ____
ATOM      1  C   UNL     1      61.704  64.881  48.289  0.00  0.00    +0.000 C 
ATOM      2  C   UNL     1      61.757  64.330  48.901  0.00  0.00    +0.000 C 
ATOM      3  C   UNL     1      61.781  64.584  49.685  0.00  0.00    +0.000 C 
ATOM      4  C   UNL     1      61.839  63.966  50.341  0.00  0.00    +0.000 C 
ATOM      5  C   UNL     1      61.880  63.149  50.443  0.00  0.00    +0.000 C 
ATOM      6  C   UNL     1      61.878  62.584  49.842  0.00  0.00    +0.000 C 
ATOM      7  C   UNL     1      61.924  62.995  51.252  0.00  0.00    +0.000 C 
ATOM      8  C   UNL     1      61.909  63.717  51.650  0.00  0.00    +0.000 C 
ATOM      9  C   UNL     1      61.857  64.335  51.105  0.00  0.00    +0.000 C 
ATOM     10  C   UNL     1      61.933  64.051  52.489  0.00  0.00    +0.000 C 
ATOM     11  C   UNL     1      61.903  64.860  52.644  0.00  0.00    +0.000 C 
ATOM     12  O   UNL     1      61.956  64.323  53.268  0.00  0.00    +0.000 OA
ATOM     13  C   UNL     1      61.985  63.513  53.112  0.00  0.00    +0.000 C 
ATOM     14  C   UNL     1      61.926  65.132  53.423  0.00  0.00    +0.000 C 
ATOM     15  O   UNL     1      61.897  65.942  53.578  0.00  0.00    +0.000 OA
ATOM     16  C   UNL     1      61.920  66.214  54.357  0.00  0.00    +0.000 C 
ATOM     17  O   UNL     1      61.944  66.485  55.136  0.00  0.00    +0.000 OA
ATOM     18  C   UNL     1      61.973  65.676  54.980  0.00  0.00    +0.000 C 
ATOM     19  C   UNL     1      61.996  65.947  55.759  0.00  0.00    +0.000 C 
ATOM     20  C   UNL     1      62.002  64.865  54.825  0.00  0.00    +0.000 C 
ATOM     21  C   UNL     1      61.979  64.594  54.046  0.00  0.00    +0.000 C 
ATOM     22  O   UNL     1      62.008  63.785  53.891  0.00  0.00    +0.000 OA
ATOM     23  C   UNL     1      62.061  63.247  54.514  0.00  0.00    +0.000 C 
ATOM     24  C   UNL     1      61.891  67.023  54.513  0.00  0.00    +0.000 C 
ATOM     25  O   UNL     1      61.914  67.295  55.291  0.00  0.00    +0.000 OA
ATOM     26  C   UNL     1      61.838  67.562  53.889  0.00  0.00    +0.000 C 
ATOM     27  O   UNL     1      61.815  67.290  53.110  0.00  0.00    +0.000 OA
ATOM     28  N   UNL     1      61.809  68.371  54.045  0.00  0.00    +0.000 N 
ATOM     29  C   UNL     1      61.832  68.642  54.824  0.00  0.00    +0.000 C 
ATOM     30  C   UNL     1      61.803  69.453  54.979  0.00  0.00    +0.000 C 
ATOM     31  C   UNL     1      61.750  69.991  54.356  0.00  0.00    +0.000 C 
ATOM     32  C   UNL     1      61.727  69.719  53.577  0.00  0.00    +0.000 C 
ATOM     33  C   UNL     1      61.757  68.909  53.422  0.00  0.00    +0.000 C 
ATOM     34  C   UNL     1      61.733  68.637  52.643  0.00  0.00    +0.000 C 
ATOM     35  O   UNL     1      61.681  69.175  52.020  0.00  0.00    +0.000 OA
ATOM     36  O   UNL     1      61.763  67.827  52.488  0.00  0.00    +0.000 OA
ATOM     37  C   UNL     1      61.739  67.557  51.709  0.00  0.00    +0.000 C 
ATOM     38  C   UNL     1      61.769  66.746  51.553  0.00  0.00    +0.000 C 
ATOM     39  C   UNL     1      61.821  66.208  52.177  0.00  0.00    +0.000 C 
ATOM     40  C   UNL     1      61.746  66.475  50.775  0.00  0.00    +0.000 C 
ATOM     41  O   UNL     1      61.693  67.013  50.152  0.00  0.00    +0.000 OA
ATOM     42  C   UNL     1      61.775  65.666  50.619  0.00  0.00    +0.000 C 
ATOM     43  C   UNL     1      61.752  65.394  49.840  0.00  0.00    +0.000 C 
ATOM     44  O   UNL     1      61.699  65.932  49.218  0.00  0.00    +0.000 OA
ATOM     45  C   UNL     1      61.687  68.094  51.086  0.00  0.00    +0.000 C 
ATOM     46  C   UNL     1      61.664  67.822  50.307  0.00  0.00    +0.000 C 
ATOM     47  C   UNL     1      61.657  68.904  51.241  0.00  0.00    +0.000 C 
ATOM     48  C   UNL     1      61.605  69.442  50.617  0.00  0.00    +0.000 C 
ATOM     49  C   UNL     1      61.576  70.252  50.774  0.00  0.00    +0.000 C 
ATOM     50  C   UNL     1      61.523  70.790  50.150  0.00  0.00    +0.000 C 
ATOM     51  C   UNL     1      61.500  70.518  49.371  0.00  0.00    +0.000 C 
ATOM     52 CL   UNL     1      61.447  71.056  48.749  0.00  0.00    +0.000 Cl
ATOM     53  C   UNL     1      61.529  69.708  49.216  0.00  0.00    +0.000 C 
ATOM     54  C   UNL     1      61.582  69.170  49.839  0.00  0.00    +0.000 C 
ATOM     55  O   UNL     1      61.506  69.436  48.437  0.00  0.00    +0.000 OA
ATOM     56  C   UNL     1      61.535  68.627  48.282  0.00  0.00    +0.000 C 
ENDROOT
TORSDOF 0
ENDMDL
MODEL 5
REMARK VINA RESULT:   -15.322      1.287      4.161
REMARK INTER + INTRA:         -15.322
REMARK INTER:                 -15.322
REMARK INTRA:                   0.000
REMARK UNBOUND:                 0.000
ROOT
REMARK  Name = pimecrolimus
REMARK                            x       y       z     vdW  Elec       q    Type
REMARK                         _______ _______ _______ _____ _____    ______ ____
ATOM      1  C   UNL     1      62.418  67.262  55.766  0.00  0.00    +0.000 C 
ATOM      2  C   UNL     1      62.361  67.968  55.342  0.00  0.00    +0.000 C 
ATOM      3  C   UNL     1      62.254  67.952  54.525  0.00  0.00    +0.000 C 
ATOM      4  C   UNL     1      62.194  68.735  54.079  0.00  0.00    +0.000 C 
ATOM      5  C   UNL     1      62.210  69.548  54.216  0.00  0.00    +0.000 C 
ATOM      6  C   UNL     1      62.305  69.915  54.948  0.00  0.00    +0.000 C 
ATOM      7  C   UNL     1      62.114  69.930  53.491  0.00  0.00    +0.000 C 
ATOM      8  C   UNL     1      62.038  69.354  52.906  0.00  0.00    +0.000 C 
ATOM      9  C   UNL     1      62.085  68.603  53.247  0.00  0.00    +0.000 C 
ATOM     10  C   UNL     1      61.922  69.277  52.014  0.00  0.00    +0.000 C 
ATOM     11  C   UNL     1      61.874  68.546  51.635  0.00  0.00    +0.000 C 
ATOM     12  O   UNL     1      61.815  69.243  51.196  0.00  0.00    +0.000 OA
ATOM     13  C   UNL     1      61.863  69.974  51.577  0.00  0.00    +0.000 C 
ATOM     14  C   UNL     1      61.767  68.512  50.817  0.00  0.00    +0.000 C 
ATOM     15  O   UNL     1      61.719  67.780  50.438  0.00  0.00    +0.000 OA
ATOM     16  C   UNL     1      61.612  67.746  49.621  0.00  0.00    +0.000 C 
ATOM     17  O   UNL     1      61.505  67.712  48.803  0.00  0.00    +0.000 OA
ATOM     18  C   UNL     1      61.553  68.443  49.183  0.00  0.00    +0.000 C 
ATOM     19  C   UNL     1      61.446  68.409  48.366  0.00  0.00    +0.000 C 
ATOM     20  C   UNL     1      61.601  69.175  49.563  0.00  0.00    +0.000 C 
ATOM     21  C   UNL     1      61.708  69.209  50.379  0.00  0.00    +0.000 C 
ATOM     22  O   UNL     1      61.756  69.939  50.759  0.00  0.00    +0.000 OA
ATOM     23  C   UNL     1      61.697  70.636  50.321  0.00  0.00    +0.000 C 
ATOM     24  C   UNL     1      61.564  67.015  49.241  0.00  0.00    +0.000 C 
ATOM     25  O   UNL     1      61.457  66.981  48.424  0.00  0.00    +0.000 OA
ATOM     26  C   UNL     1      61.623  66.318  49.679  0.00  0.00    +0.000 C 
ATOM     27  O   UNL     1      61.730  66.353  50.497  0.00  0.00    +0.000 OA
ATOM     28  N   UNL     1      61.575  65.588  49.300  0.00  0.00    +0.000 N 
ATOM     29  C   UNL     1      61.468  65.554  48.483  0.00  0.00    +0.000 C 
ATOM     30  C   UNL     1      61.420  64.822  48.103  0.00  0.00    +0.000 C 
ATOM     31  C   UNL     1      61.479  64.125  48.541  0.00  0.00    +0.000 C 
ATOM     32  C   UNL     1      61.586  64.160  49.359  0.00  0.00    +0.000 C 
ATOM     33  C   UNL     1      61.634  64.891  49.738  0.00  0.00    +0.000 C 
ATOM     34  C   UNL     1      61.741  64.926  50.555  0.00  0.00    +0.000 C 
ATOM     35  O   UNL     1      61.800  64.228  50.993  0.00  0.00    +0.000 OA
ATOM     36  O   UNL     1      61.789  65.657  50.934  0.00  0.00    +0.000 OA
ATOM     37  C   UNL     1      61.896  65.690  51.752  0.00  0.00    +0.000 C 
ATOM     38  C   UNL     1      61.944  66.422  52.131  0.00  0.00    +0.000 C 
ATOM     39  C   UNL     1      61.885  67.119  51.693  0.00  0.00    +0.000 C 
ATOM     40  C   UNL     1      62.051  66.456  52.948  0.00  0.00    +0.000 C 
ATOM     41  O   UNL     1      62.110  65.759  53.386  0.00  0.00    +0.000 OA
ATOM     42  C   UNL     1      62.099  67.186  53.328  0.00  0.00    +0.000 C 
ATOM     43  C   UNL     1      62.206  67.221  54.146  0.00  0.00    +0.000 C 
ATOM     44  O   UNL     1      62.265  66.524  54.583  0.00  0.00    +0.000 OA
ATOM     45  C   UNL     1      61.955  64.994  52.190  0.00  0.00    +0.000 C 
ATOM     46  C   UNL     1      62.062  65.028  53.007  0.00  0.00    +0.000 C 
ATOM     47  C   UNL     1      61.907  64.263  51.810  0.00  0.00    +0.000 C 
ATOM     48  C   UNL     1      61.966  63.566  52.249  0.00  0.00    +0.000 C 
ATOM     49  C   UNL     1      61.918  62.835  51.869  0.00  0.00    +0.000 C 
ATOM     50  C   UNL     1      61.977  62.138  52.307  0.00  0.00    +0.000 C 
ATOM     51  C   UNL     1      62.084  62.173  53.124  0.00  0.00    +0.000 C 
ATOM     52 CL   UNL     1      62.143  61.476  53.561  0.00  0.00    +0.000 Cl
ATOM     53  C   UNL     1      62.132  62.904  53.503  0.00  0.00    +0.000 C 
ATOM     54  C   UNL     1      62.073  63.600  53.066  0.00  0.00    +0.000 C 
ATOM     55  O   UNL     1      62.239  62.938  54.321  0.00  0.00    +0.000 OA
ATOM     56  C   UNL     1      62.287  63.669  54.700  0.00  0.00    +0.000 C 
ENDROOT
TORSDOF 0
ENDMDL
MODEL 6
REMARK VINA RESULT:   -15.260      1.492      4.742
REMARK INTER + INTRA:         -15.260
REMARK INTER:                 -15.260
REMARK INTRA:                   0.000
REMARK UNBOUND:                 0.000
ROOT
REMARK  Name = pimecrolimus
REMARK                            x       y       z     vdW  Elec       q    Type
REMARK                         _______ _______ _______ _____ _____    ______ ____
ATOM      1  C   UNL     1      62.476  69.883  54.141  0.00  0.00    +0.000 C 
ATOM      2  C   UNL     1      62.522  69.197  54.597  0.00  0.00    +0.000 C 
ATOM      3  C   UNL     1      62.388  68.461  54.249  0.00  0.00    +0.000 C 
ATOM      4  C   UNL     1      62.443  67.721  54.763  0.00  0.00    +0.000 C 
ATOM      5  C   UNL     1      62.596  67.497  55.543  0.00  0.00    +0.000 C 
ATOM      6  C   UNL     1      62.773  68.006  56.167  0.00  0.00    +0.000 C 
ATOM      7  C   UNL     1      62.542  66.675  55.587  0.00  0.00    +0.000 C 
ATOM      8  C   UNL     1      62.355  66.391  54.836  0.00  0.00    +0.000 C 
ATOM      9  C   UNL     1      62.288  67.022  54.308  0.00  0.00    +0.000 C 
ATOM     10  C   UNL     1      62.199  65.613  54.405  0.00  0.00    +0.000 C 
ATOM     11  C   UNL     1      62.020  65.581  53.600  0.00  0.00    +0.000 C 
ATOM     12  O   UNL     1      62.062  64.885  54.041  0.00  0.00    +0.000 OA
ATOM     13  C   UNL     1      62.241  64.918  54.846  0.00  0.00    +0.000 C 
ATOM     14  C   UNL     1      61.883  64.853  53.236  0.00  0.00    +0.000 C 
ATOM     15  O   UNL     1      61.705  64.822  52.431  0.00  0.00    +0.000 OA
ATOM     16  C   UNL     1      61.568  64.094  52.067  0.00  0.00    +0.000 C 
ATOM     17  O   UNL     1      61.431  63.365  51.705  0.00  0.00    +0.000 OA
ATOM     18  C   UNL     1      61.610  63.398  52.509  0.00  0.00    +0.000 C 
ATOM     19  C   UNL     1      61.473  62.670  52.146  0.00  0.00    +0.000 C 
ATOM     20  C   UNL     1      61.789  63.430  53.314  0.00  0.00    +0.000 C 
ATOM     21  C   UNL     1      61.926  64.157  53.677  0.00  0.00    +0.000 C 
ATOM     22  O   UNL     1      62.104  64.190  54.482  0.00  0.00    +0.000 OA
ATOM     23  C   UNL     1      62.147  63.494  54.923  0.00  0.00    +0.000 C 
ATOM     24  C   UNL     1      61.389  64.062  51.263  0.00  0.00    +0.000 C 
ATOM     25  O   UNL     1      61.252  63.334  50.900  0.00  0.00    +0.000 OA
ATOM     26  C   UNL     1      61.347  64.758  50.822  0.00  0.00    +0.000 C 
ATOM     27  O   UNL     1      61.484  65.486  51.186  0.00  0.00    +0.000 OA
ATOM     28  N   UNL     1      61.168  64.725  50.017  0.00  0.00    +0.000 N 
ATOM     29  C   UNL     1      61.031  63.998  49.654  0.00  0.00    +0.000 C 
ATOM     30  C   UNL     1      60.852  63.966  48.849  0.00  0.00    +0.000 C 
ATOM     31  C   UNL     1      60.810  64.662  48.407  0.00  0.00    +0.000 C 
ATOM     32  C   UNL     1      60.947  65.390  48.771  0.00  0.00    +0.000 C 
ATOM     33  C   UNL     1      61.126  65.421  49.576  0.00  0.00    +0.000 C 
ATOM     34  C   UNL     1      61.263  66.149  49.940  0.00  0.00    +0.000 C 
ATOM     35  O   UNL     1      61.221  66.846  49.498  0.00  0.00    +0.000 OA
ATOM     36  O   UNL     1      61.442  66.181  50.745  0.00  0.00    +0.000 OA
ATOM     37  C   UNL     1      61.578  66.909  51.107  0.00  0.00    +0.000 C 
ATOM     38  C   UNL     1      61.757  66.941  51.913  0.00  0.00    +0.000 C 
ATOM     39  C   UNL     1      61.799  66.245  52.354  0.00  0.00    +0.000 C 
ATOM     40  C   UNL     1      61.894  67.669  52.276  0.00  0.00    +0.000 C 
ATOM     41  O   UNL     1      61.852  68.365  51.835  0.00  0.00    +0.000 OA
ATOM     42  C   UNL     1      62.073  67.701  53.080  0.00  0.00    +0.000 C 
ATOM     43  C   UNL     1      62.209  68.429  53.444  0.00  0.00    +0.000 C 
ATOM     44  O   UNL     1      62.167  69.124  53.003  0.00  0.00    +0.000 OA
ATOM     45  C   UNL     1      61.536  67.605  50.667  0.00  0.00    +0.000 C 
ATOM     46  C   UNL     1      61.673  68.333  51.030  0.00  0.00    +0.000 C 
ATOM     47  C   UNL     1      61.357  67.573  49.862  0.00  0.00    +0.000 C 
ATOM     48  C   UNL     1      61.315  68.270  49.421  0.00  0.00    +0.000 C 
ATOM     49  C   UNL     1      61.136  68.237  48.616  0.00  0.00    +0.000 C 
ATOM     50  C   UNL     1      61.094  68.933  48.175  0.00  0.00    +0.000 C 
ATOM     51  C   UNL     1      61.231  69.661  48.539  0.00  0.00    +0.000 C 
ATOM     52 CL   UNL     1      61.189  70.356  48.098  0.00  0.00    +0.000 Cl
ATOM     53  C   UNL     1      61.410  69.692  49.343  0.00  0.00    +0.000 C 
ATOM     54  C   UNL     1      61.452  68.997  49.784  0.00  0.00    +0.000 C 
ATOM     55  O   UNL     1      61.547  70.420  49.707  0.00  0.00    +0.000 OA
ATOM     56  C   UNL     1      61.725  70.453  50.512  0.00  0.00    +0.000 C 
ENDROOT
TORSDOF 0
ENDMDL
MODEL 7
REMARK VINA RESULT:   -14.496      1.923      4.229
REMARK INTER + INTRA:         -14.496
REMARK INTER:                 -14.496
REMARK INTRA:                   0.000
REMARK UNBOUND:                 0.000
ROOT
REMARK  Name = pimecrolimus
REMARK                            x       y       z     vdW  Elec       q    Type
REMARK                         _______ _______ _______ _____ _____    ______ ____
ATOM      1  C   UNL     1      63.292  66.936  55.851  0.00  0.00    +0.000 C 
ATOM      2  C   UNL     1      62.926  67.674  55.816  0.00  0.00    +0.000 C 
ATOM      3  C   UNL     1      62.439  67.864  55.177  0.00  0.00    +0.000 C 
ATOM      4  C   UNL     1      62.046  68.677  55.156  0.00  0.00    +0.000 C 
ATOM      5  C   UNL     1      61.998  69.371  55.599  0.00  0.00    +0.000 C 
ATOM      6  C   UNL     1      62.378  69.517  56.316  0.00  0.00    +0.000 C 
ATOM      7  C   UNL     1      61.503  69.895  55.197  0.00  0.00    +0.000 C 
ATOM      8  C   UNL     1      61.246  69.524  54.507  0.00  0.00    +0.000 C 
ATOM      9  C   UNL     1      61.570  68.767  54.460  0.00  0.00    +0.000 C 
ATOM     10  C   UNL     1      60.724  69.679  53.786  0.00  0.00    +0.000 C 
ATOM     11  C   UNL     1      60.614  69.118  53.191  0.00  0.00    +0.000 C 
ATOM     12  O   UNL     1      60.240  69.852  53.141  0.00  0.00    +0.000 OA
ATOM     13  C   UNL     1      60.350  70.412  53.737  0.00  0.00    +0.000 C 
ATOM     14  C   UNL     1      60.130  69.291  52.545  0.00  0.00    +0.000 C 
ATOM     15  O   UNL     1      60.021  68.731  51.950  0.00  0.00    +0.000 OA
ATOM     16  C   UNL     1      59.537  68.904  51.304  0.00  0.00    +0.000 C 
ATOM     17  O   UNL     1      59.053  69.078  50.659  0.00  0.00    +0.000 OA
ATOM     18  C   UNL     1      59.163  69.638  51.254  0.00  0.00    +0.000 C 
ATOM     19  C   UNL     1      58.680  69.812  50.609  0.00  0.00    +0.000 C 
ATOM     20  C   UNL     1      59.273  70.199  51.850  0.00  0.00    +0.000 C 
ATOM     21  C   UNL     1      59.756  70.025  52.495  0.00  0.00    +0.000 C 
ATOM     22  O   UNL     1      59.867  70.585  53.091  0.00  0.00    +0.000 OA
ATOM     23  C   UNL     1      59.493  71.319  53.041  0.00  0.00    +0.000 C 
ATOM     24  C   UNL     1      59.427  68.344  50.709  0.00  0.00    +0.000 C 
ATOM     25  O   UNL     1      58.943  68.518  50.064  0.00  0.00    +0.000 OA
ATOM     26  C   UNL     1      59.801  67.610  50.759  0.00  0.00    +0.000 C 
ATOM     27  O   UNL     1      60.285  67.437  51.405  0.00  0.00    +0.000 OA
ATOM     28  N   UNL     1      59.691  67.050  50.164  0.00  0.00    +0.000 N 
ATOM     29  C   UNL     1      59.207  67.224  49.519  0.00  0.00    +0.000 C 
ATOM     30  C   UNL     1      59.097  66.663  48.923  0.00  0.00    +0.000 C 
ATOM     31  C   UNL     1      59.471  65.929  48.973  0.00  0.00    +0.000 C 
ATOM     32  C   UNL     1      59.955  65.756  49.619  0.00  0.00    +0.000 C 
ATOM     33  C   UNL     1      60.065  66.316  50.214  0.00  0.00    +0.000 C 
ATOM     34  C   UNL     1      60.548  66.143  50.860  0.00  0.00    +0.000 C 
ATOM     35  O   UNL     1      60.922  65.409  50.909  0.00  0.00    +0.000 OA
ATOM     36  O   UNL     1      60.658  66.704  51.455  0.00  0.00    +0.000 OA
ATOM     37  C   UNL     1      61.142  66.529  52.100  0.00  0.00    +0.000 C 
ATOM     38  C   UNL     1      61.252  67.090  52.696  0.00  0.00    +0.000 C 
ATOM     39  C   UNL     1      60.878  67.824  52.646  0.00  0.00    +0.000 C 
ATOM     40  C   UNL     1      61.735  66.917  53.341  0.00  0.00    +0.000 C 
ATOM     41  O   UNL     1      62.109  66.183  53.391  0.00  0.00    +0.000 OA
ATOM     42  C   UNL     1      61.846  67.477  53.936  0.00  0.00    +0.000 C 
ATOM     43  C   UNL     1      62.329  67.303  54.582  0.00  0.00    +0.000 C 
ATOM     44  O   UNL     1      62.703  66.570  54.632  0.00  0.00    +0.000 OA
ATOM     45  C   UNL     1      61.516  65.796  52.151  0.00  0.00    +0.000 C 
ATOM     46  C   UNL     1      61.999  65.623  52.796  0.00  0.00    +0.000 C 
ATOM     47  C   UNL     1      61.406  65.235  51.555  0.00  0.00    +0.000 C 
ATOM     48  C   UNL     1      61.780  64.502  51.605  0.00  0.00    +0.000 C 
ATOM     49  C   UNL     1      61.670  63.942  51.009  0.00  0.00    +0.000 C 
ATOM     50  C   UNL     1      62.044  63.207  51.059  0.00  0.00    +0.000 C 
ATOM     51  C   UNL     1      62.527  63.034  51.705  0.00  0.00    +0.000 C 
ATOM     52 CL   UNL     1      62.901  62.301  51.755  0.00  0.00    +0.000 Cl
ATOM     53  C   UNL     1      62.637  63.595  52.300  0.00  0.00    +0.000 C 
ATOM     54  C   UNL     1      62.264  64.328  52.250  0.00  0.00    +0.000 C 
ATOM     55  O   UNL     1      63.121  63.422  52.946  0.00  0.00    +0.000 OA
ATOM     56  C   UNL     1      63.231  63.982  53.541  0.00  0.00    +0.000 C 
ENDROOT
TORSDOF 0
ENDMDL
MODEL 8
REMARK VINA RESULT:   -14.083      2.734      6.271
REMARK INTER + INTRA:         -14.083
REMARK INTER:                 -14.083
REMARK INTRA:                   0.000
REMARK UNBOUND:                 0.000
ROOT
REMARK  Name = pimecrolimus
REMARK                            x       y       z     vdW  Elec       q    Type
REMARK                         _______ _______ _______ _____ _____    ______ ____
ATOM      1  C   UNL     1      58.434  65.008  50.138  0.00  0.00    +0.000 C 
ATOM      2  C   UNL     1      58.446  64.234  49.851  0.00  0.00    +0.000 C 
ATOM      3  C   UNL     1      59.011  63.700  50.126  0.00  0.00    +0.000 C 
ATOM      4  C   UNL     1      59.009  62.858  49.801  0.00  0.00    +0.000 C 
ATOM      5  C   UNL     1      58.595  62.383  49.268  0.00  0.00    +0.000 C 
ATOM      6  C   UNL     1      57.950  62.617  48.809  0.00  0.00    +0.000 C 
ATOM      7  C   UNL     1      58.940  61.634  49.273  0.00  0.00    +0.000 C 
ATOM      8  C   UNL     1      59.566  61.645  49.809  0.00  0.00    +0.000 C 
ATOM      9  C   UNL     1      59.628  62.395  50.150  0.00  0.00    +0.000 C 
ATOM     10  C   UNL     1      60.206  61.103  50.145  0.00  0.00    +0.000 C 
ATOM     11  C   UNL     1      60.752  61.359  50.707  0.00  0.00    +0.000 C 
ATOM     12  O   UNL     1      60.778  60.582  50.431  0.00  0.00    +0.000 OA
ATOM     13  C   UNL     1      60.231  60.327  49.868  0.00  0.00    +0.000 C 
ATOM     14  C   UNL     1      61.325  60.838  50.994  0.00  0.00    +0.000 C 
ATOM     15  O   UNL     1      61.871  61.094  51.556  0.00  0.00    +0.000 OA
ATOM     16  C   UNL     1      62.444  60.573  51.843  0.00  0.00    +0.000 C 
ATOM     17  O   UNL     1      63.015  60.051  52.128  0.00  0.00    +0.000 OA
ATOM     18  C   UNL     1      62.469  59.796  51.566  0.00  0.00    +0.000 C 
ATOM     19  C   UNL     1      63.040  59.275  51.851  0.00  0.00    +0.000 C 
ATOM     20  C   UNL     1      61.922  59.540  51.003  0.00  0.00    +0.000 C 
ATOM     21  C   UNL     1      61.350  60.061  50.717  0.00  0.00    +0.000 C 
ATOM     22  O   UNL     1      60.803  59.806  50.155  0.00  0.00    +0.000 OA
ATOM     23  C   UNL     1      60.829  59.029  49.878  0.00  0.00    +0.000 C 
ATOM     24  C   UNL     1      62.990  60.828  52.405  0.00  0.00    +0.000 C 
ATOM     25  O   UNL     1      63.562  60.307  52.690  0.00  0.00    +0.000 OA
ATOM     26  C   UNL     1      62.965  61.605  52.681  0.00  0.00    +0.000 C 
ATOM     27  O   UNL     1      62.392  62.126  52.395  0.00  0.00    +0.000 OA
ATOM     28  N   UNL     1      63.511  61.860  53.244  0.00  0.00    +0.000 N 
ATOM     29  C   UNL     1      64.083  61.339  53.529  0.00  0.00    +0.000 C 
ATOM     30  C   UNL     1      64.630  61.595  54.092  0.00  0.00    +0.000 C 
ATOM     31  C   UNL     1      64.605  62.372  54.369  0.00  0.00    +0.000 C 
ATOM     32  C   UNL     1      64.032  62.894  54.083  0.00  0.00    +0.000 C 
ATOM     33  C   UNL     1      63.486  62.638  53.520  0.00  0.00    +0.000 C 
ATOM     34  C   UNL     1      62.914  63.159  53.234  0.00  0.00    +0.000 C 
ATOM     35  O   UNL     1      62.888  63.936  53.511  0.00  0.00    +0.000 OA
ATOM     36  O   UNL     1      62.367  62.903  52.672  0.00  0.00    +0.000 OA
ATOM     37  C   UNL     1      61.796  63.425  52.386  0.00  0.00    +0.000 C 
ATOM     38  C   UNL     1      61.248  63.169  51.823  0.00  0.00    +0.000 C 
ATOM     39  C   UNL     1      61.274  62.392  51.546  0.00  0.00    +0.000 C 
ATOM     40  C   UNL     1      60.677  63.690  51.537  0.00  0.00    +0.000 C 
ATOM     41  O   UNL     1      60.652  64.467  51.814  0.00  0.00    +0.000 OA
ATOM     42  C   UNL     1      60.130  63.435  50.975  0.00  0.00    +0.000 C 
ATOM     43  C   UNL     1      59.558  63.956  50.689  0.00  0.00    +0.000 C 
ATOM     44  O   UNL     1      59.533  64.732  50.965  0.00  0.00    +0.000 OA
ATOM     45  C   UNL     1      61.770  64.201  52.662  0.00  0.00    +0.000 C 
ATOM     46  C   UNL     1      61.198  64.722  52.376  0.00  0.00    +0.000 C 
ATOM     47  C   UNL     1      62.317  64.457  53.225  0.00  0.00    +0.000 C 
ATOM     48  C   UNL     1      62.291  65.234  53.501  0.00  0.00    +0.000 C 
ATOM     49  C   UNL     1      62.838  65.489  54.064  0.00  0.00    +0.000 C 
ATOM     50  C   UNL     1      62.813  66.266  54.341  0.00  0.00    +0.000 C 
ATOM     51  C   UNL     1      62.240  66.788  54.055  0.00  0.00    +0.000 C 
ATOM     52 CL   UNL     1      62.215  67.564  54.331  0.00  0.00    +0.000 Cl
ATOM     53  C   UNL     1      61.694  66.532  53.492  0.00  0.00    +0.000 C 
ATOM     54  C   UNL     1      61.719  65.755  53.216  0.00  0.00    +0.000 C 
ATOM     55  O   UNL     1      61.122  67.053  53.206  0.00  0.00    +0.000 OA
ATOM     56  C   UNL     1      60.575  66.798  52.644  0.00  0.00    +0.000 C 
ENDROOT
TORSDOF 0
ENDMDL
MODEL 9
REMARK VINA RESULT:   -13.894      3.655      7.077
REMARK INTER + INTRA:         -13.894
REMARK INTER:                 -13.894
REMARK INTRA:                   0.000
REMARK UNBOUND:                 0.000
ROOT
REMARK  Name = pimecrolimus
REMARK                            x       y       z     vdW  Elec       q    Type
REMARK                         _______ _______ _______ _____ _____    ______ ____
ATOM      1  C   UNL     1      62.582  64.867  53.315  0.00  0.00    +0.000 C 
ATOM      2  C   UNL     1      63.059  64.239  53.558  0.00  0.00    +0.000 C 
ATOM      3  C   UNL     1      62.876  63.469  53.327  0.00  0.00    +0.000 C 
ATOM      4  C   UNL     1      63.409  62.794  53.603  0.00  0.00    +0.000 C 
ATOM      5  C   UNL     1      64.088  62.663  54.054  0.00  0.00    +0.000 C 
ATOM      6  C   UNL     1      64.532  63.240  54.441  0.00  0.00    +0.000 C 
ATOM      7  C   UNL     1      64.243  61.853  54.050  0.00  0.00    +0.000 C 
ATOM      8  C   UNL     1      63.661  61.484  53.598  0.00  0.00    +0.000 C 
ATOM      9  C   UNL     1      63.132  62.048  53.309  0.00  0.00    +0.000 C 
ATOM     10  C   UNL     1      63.416  60.662  53.315  0.00  0.00    +0.000 C 
ATOM     11  C   UNL     1      62.753  60.537  52.840  0.00  0.00    +0.000 C 
ATOM     12  O   UNL     1      63.219  59.897  53.074  0.00  0.00    +0.000 OA
ATOM     13  C   UNL     1      63.882  60.023  53.550  0.00  0.00    +0.000 C 
ATOM     14  C   UNL     1      62.556  59.772  52.599  0.00  0.00    +0.000 C 
ATOM     15  O   UNL     1      61.894  59.648  52.124  0.00  0.00    +0.000 OA
ATOM     16  C   UNL     1      61.697  58.883  51.883  0.00  0.00    +0.000 C 
ATOM     17  O   UNL     1      61.501  58.118  51.643  0.00  0.00    +0.000 OA
ATOM     18  C   UNL     1      62.163  58.244  52.118  0.00  0.00    +0.000 C 
ATOM     19  C   UNL     1      61.967  57.480  51.877  0.00  0.00    +0.000 C 
ATOM     20  C   UNL     1      62.826  58.369  52.594  0.00  0.00    +0.000 C 
ATOM     21  C   UNL     1      63.023  59.133  52.834  0.00  0.00    +0.000 C 
ATOM     22  O   UNL     1      63.685  59.259  53.309  0.00  0.00    +0.000 OA
ATOM     23  C   UNL     1      64.151  58.620  53.544  0.00  0.00    +0.000 C 
ATOM     24  C   UNL     1      61.035  58.758  51.408  0.00  0.00    +0.000 C 
ATOM     25  O   UNL     1      60.839  57.994  51.167  0.00  0.00    +0.000 OA
ATOM     26  C   UNL     1      60.568  59.397  51.173  0.00  0.00    +0.000 C 
ATOM     27  O   UNL     1      60.765  60.161  51.414  0.00  0.00    +0.000 OA
ATOM     28  N   UNL     1      59.906  59.271  50.698  0.00  0.00    +0.000 N 
ATOM     29  C   UNL     1      59.710  58.507  50.458  0.00  0.00    +0.000 C 
ATOM     30  C   UNL     1      59.047  58.382  49.982  0.00  0.00    +0.000 C 
ATOM     31  C   UNL     1      58.581  59.021  49.747  0.00  0.00    +0.000 C 
ATOM     32  C   UNL     1      58.777  59.786  49.988  0.00  0.00    +0.000 C 
ATOM     33  C   UNL     1      59.440  59.910  50.463  0.00  0.00    +0.000 C 
ATOM     34  C   UNL     1      59.637  60.675  50.704  0.00  0.00    +0.000 C 
ATOM     35  O   UNL     1      59.171  61.314  50.469  0.00  0.00    +0.000 OA
ATOM     36  O   UNL     1      60.300  60.800  51.179  0.00  0.00    +0.000 OA
ATOM     37  C   UNL     1      60.495  61.565  51.419  0.00  0.00    +0.000 C 
ATOM     38  C   UNL     1      61.159  61.690  51.895  0.00  0.00    +0.000 C 
ATOM     39  C   UNL     1      61.625  61.051  52.130  0.00  0.00    +0.000 C 
ATOM     40  C   UNL     1      61.355  62.454  52.136  0.00  0.00    +0.000 C 
ATOM     41  O   UNL     1      60.888  63.093  51.901  0.00  0.00    +0.000 OA
ATOM     42  C   UNL     1      62.017  62.579  52.611  0.00  0.00    +0.000 C 
ATOM     43  C   UNL     1      62.214  63.344  52.852  0.00  0.00    +0.000 C 
ATOM     44  O   UNL     1      61.748  63.982  52.617  0.00  0.00    +0.000 OA
ATOM     45  C   UNL     1      60.030  62.203  51.185  0.00  0.00    +0.000 C 
ATOM     46  C   UNL     1      60.226  62.967  51.426  0.00  0.00    +0.000 C 
ATOM     47  C   UNL     1      59.367  62.078  50.709  0.00  0.00    +0.000 C 
ATOM     48  C   UNL     1      58.901  62.718  50.475  0.00  0.00    +0.000 C 
ATOM     49  C   UNL     1      58.238  62.592  49.999  0.00  0.00    +0.000 C 
ATOM     50  C   UNL     1      57.772  63.231  49.765  0.00  0.00    +0.000 C 
ATOM     51  C   UNL     1      57.969  63.995  50.006  0.00  0.00    +0.000 C 
ATOM     52 CL   UNL     1      57.503  64.634  49.771  0.00  0.00    +0.000 Cl
ATOM     53  C   UNL     1      58.632  64.120  50.481  0.00  0.00    +0.000 C 
ATOM     54  C   UNL     1      59.098  63.482  50.715  0.00  0.00    +0.000 C 
ATOM     55  O   UNL     1      58.829  64.885  50.722  0.00  0.00    +0.000 OA
ATOM     56  C   UNL     1      59.491  65.010  51.197  0.00  0.00    +0.000 C 
ENDROOT
TORSDOF 0
ENDMDL
