MODEL 1
REMARK VINA RESULT:   -10.876      0.000      0.000
REMARK INTER + INTRA:         -10.876
REMARK INTER:                 -10.876
REMARK INTRA:                   0.000
REMARK UNBOUND:                 0.000
ROOT
REMARK  Name = pimefylline
REMARK                            x       y       z     vdW  Elec       q    Type
REMARK                         _______ _______ _______ _____ _____    ______ ____
ATOM      1  C   UNL     1      60.783  63.792  71.371  0.00  0.00    +0.000 C 
ATOM      2  N   UNL     1      61.281  63.862  70.717  0.00  0.00    +0.000 N 
ATOM      3  C   UNL     1      61.095  63.472  70.014  0.00  0.00    +0.000 A 
ATOM      4  C   UNL     1      61.594  63.542  69.359  0.00  0.00    +0.000 A 
ATOM      5  N   UNL     1      61.271  63.098  68.745  0.00  0.00    +0.000 N 
ATOM      6  C   UNL     1      61.589  63.012  67.988  0.00  0.00    +0.000 C 
ATOM      7  C   UNL     1      61.203  62.547  67.428  0.00  0.00    +0.000 C 
ATOM      8  N   UNL     1      61.521  62.462  66.672  0.00  0.00    +0.000 NA
ATOM      9  C   UNL     1      61.135  61.997  66.111  0.00  0.00    +0.000 C 
ATOM     10  C   UNL     1      61.453  61.911  65.355  0.00  0.00    +0.000 A 
ATOM     11  C   UNL     1      61.066  61.446  64.794  0.00  0.00    +0.000 A 
ATOM     12  N   UNL     1      61.385  61.361  64.038  0.00  0.00    +0.000 NA
ATOM     13  C   UNL     1      62.090  61.741  63.842  0.00  0.00    +0.000 A 
ATOM     14  C   UNL     1      62.477  62.207  64.403  0.00  0.00    +0.000 A 
ATOM     15  C   UNL     1      62.158  62.291  65.159  0.00  0.00    +0.000 A 
ATOM     16  C   UNL     1      60.573  62.752  69.019  0.00  0.00    +0.000 A 
ATOM     17  N   UNL     1      60.465  62.984  69.803  0.00  0.00    +0.000 NA
ATOM     18  C   UNL     1      62.277  64.002  69.409  0.00  0.00    +0.000 A 
ATOM     19  O   UNL     1      62.775  64.072  68.755  0.00  0.00    +0.000 OA
ATOM     20  N   UNL     1      62.462  64.392  70.112  0.00  0.00    +0.000 N 
ATOM     21  C   UNL     1      63.145  64.852  70.161  0.00  0.00    +0.000 C 
ATOM     22  C   UNL     1      61.965  64.322  70.766  0.00  0.00    +0.000 A 
ATOM     23  O   UNL     1      62.149  64.712  71.469  0.00  0.00    +0.000 OA
ENDROOT
TORSDOF 0
ENDMDL
MODEL 2
REMARK VINA RESULT:   -10.436      1.696      5.058
REMARK INTER + INTRA:         -10.436
REMARK INTER:                 -10.436
REMARK INTRA:                   0.000
REMARK UNBOUND:                 0.000
ROOT
REMARK  Name = pimefylline
REMARK                            x       y       z     vdW  Elec       q    Type
REMARK                         _______ _______ _______ _____ _____    ______ ____
ATOM      1  C   UNL     1      59.072  61.992  66.234  0.00  0.00    +0.000 C 
ATOM      2  N   UNL     1      59.874  62.167  66.320  0.00  0.00    +0.000 N 
ATOM      3  C   UNL     1      60.139  62.564  66.993  0.00  0.00    +0.000 A 
ATOM      4  C   UNL     1      60.941  62.739  67.079  0.00  0.00    +0.000 A 
ATOM      5  N   UNL     1      61.040  63.132  67.797  0.00  0.00    +0.000 N 
ATOM      6  C   UNL     1      61.754  63.409  68.104  0.00  0.00    +0.000 C 
ATOM      7  C   UNL     1      61.768  63.794  68.833  0.00  0.00    +0.000 C 
ATOM      8  N   UNL     1      62.482  64.071  69.141  0.00  0.00    +0.000 NA
ATOM      9  C   UNL     1      62.496  64.456  69.870  0.00  0.00    +0.000 C 
ATOM     10  C   UNL     1      63.210  64.733  70.177  0.00  0.00    +0.000 A 
ATOM     11  C   UNL     1      63.224  65.118  70.906  0.00  0.00    +0.000 A 
ATOM     12  N   UNL     1      63.938  65.395  71.213  0.00  0.00    +0.000 NA
ATOM     13  C   UNL     1      64.638  65.286  70.791  0.00  0.00    +0.000 A 
ATOM     14  C   UNL     1      64.624  64.901  70.061  0.00  0.00    +0.000 A 
ATOM     15  C   UNL     1      63.910  64.625  69.754  0.00  0.00    +0.000 A 
ATOM     16  C   UNL     1      60.299  63.200  68.155  0.00  0.00    +0.000 A 
ATOM     17  N   UNL     1      59.743  62.848  67.658  0.00  0.00    +0.000 NA
ATOM     18  C   UNL     1      61.477  62.518  66.492  0.00  0.00    +0.000 A 
ATOM     19  O   UNL     1      62.278  62.693  66.578  0.00  0.00    +0.000 OA
ATOM     20  N   UNL     1      61.211  62.122  65.819  0.00  0.00    +0.000 N 
ATOM     21  C   UNL     1      61.747  61.901  65.232  0.00  0.00    +0.000 C 
ATOM     22  C   UNL     1      60.410  61.946  65.733  0.00  0.00    +0.000 A 
ATOM     23  O   UNL     1      60.144  61.550  65.060  0.00  0.00    +0.000 OA
ENDROOT
TORSDOF 0
ENDMDL
MODEL 3
REMARK VINA RESULT:   -10.387      2.268      5.347
REMARK INTER + INTRA:         -10.387
REMARK INTER:                 -10.387
REMARK INTRA:                   0.000
REMARK UNBOUND:                 0.000
ROOT
REMARK  Name = pimefylline
REMARK                            x       y       z     vdW  Elec       q    Type
REMARK                         _______ _______ _______ _____ _____    ______ ____
ATOM      1  C   UNL     1      60.494  62.151  70.593  0.00  0.00    +0.000 C 
ATOM      2  N   UNL     1      60.949  62.648  70.117  0.00  0.00    +0.000 N 
ATOM      3  C   UNL     1      61.519  63.137  70.458  0.00  0.00    +0.000 A 
ATOM      4  C   UNL     1      61.973  63.635  69.981  0.00  0.00    +0.000 A 
ATOM      5  N   UNL     1      62.490  64.052  70.470  0.00  0.00    +0.000 N 
ATOM      6  C   UNL     1      63.045  64.611  70.225  0.00  0.00    +0.000 C 
ATOM      7  C   UNL     1      63.527  64.986  70.779  0.00  0.00    +0.000 C 
ATOM      8  N   UNL     1      64.082  65.545  70.533  0.00  0.00    +0.000 NA
ATOM      9  C   UNL     1      64.563  65.920  71.087  0.00  0.00    +0.000 C 
ATOM     10  C   UNL     1      65.118  66.479  70.842  0.00  0.00    +0.000 A 
ATOM     11  C   UNL     1      65.600  66.854  71.396  0.00  0.00    +0.000 A 
ATOM     12  N   UNL     1      66.155  67.413  71.150  0.00  0.00    +0.000 NA
ATOM     13  C   UNL     1      66.228  67.597  70.350  0.00  0.00    +0.000 A 
ATOM     14  C   UNL     1      65.745  67.222  69.794  0.00  0.00    +0.000 A 
ATOM     15  C   UNL     1      65.191  66.663  70.041  0.00  0.00    +0.000 A 
ATOM     16  C   UNL     1      62.356  63.813  71.249  0.00  0.00    +0.000 A 
ATOM     17  N   UNL     1      61.755  63.247  71.240  0.00  0.00    +0.000 NA
ATOM     18  C   UNL     1      61.857  63.643  69.165  0.00  0.00    +0.000 A 
ATOM     19  O   UNL     1      62.312  64.141  68.689  0.00  0.00    +0.000 OA
ATOM     20  N   UNL     1      61.287  63.154  68.824  0.00  0.00    +0.000 N 
ATOM     21  C   UNL     1      61.171  63.163  68.008  0.00  0.00    +0.000 C 
ATOM     22  C   UNL     1      60.833  62.657  69.300  0.00  0.00    +0.000 A 
ATOM     23  O   UNL     1      60.262  62.168  68.960  0.00  0.00    +0.000 OA
ENDROOT
TORSDOF 0
ENDMDL
MODEL 4
REMARK VINA RESULT:    -9.848      1.374      2.235
REMARK INTER + INTRA:          -9.848
REMARK INTER:                  -9.848
REMARK INTRA:                   0.000
REMARK UNBOUND:                 0.000
ROOT
REMARK  Name = pimefylline
REMARK                            x       y       z     vdW  Elec       q    Type
REMARK                         _______ _______ _______ _____ _____    ______ ____
ATOM      1  C   UNL     1      63.116  65.423  71.718  0.00  0.00    +0.000 C 
ATOM      2  N   UNL     1      62.412  65.118  71.414  0.00  0.00    +0.000 N 
ATOM      3  C   UNL     1      62.403  64.767  70.668  0.00  0.00    +0.000 A 
ATOM      4  C   UNL     1      61.698  64.462  70.365  0.00  0.00    +0.000 A 
ATOM      5  N   UNL     1      61.857  64.150  69.618  0.00  0.00    +0.000 N 
ATOM      6  C   UNL     1      61.310  63.789  69.117  0.00  0.00    +0.000 C 
ATOM      7  C   UNL     1      61.550  63.501  68.382  0.00  0.00    +0.000 C 
ATOM      8  N   UNL     1      61.004  63.140  67.881  0.00  0.00    +0.000 NA
ATOM      9  C   UNL     1      61.244  62.853  67.147  0.00  0.00    +0.000 C 
ATOM     10  C   UNL     1      60.697  62.491  66.645  0.00  0.00    +0.000 A 
ATOM     11  C   UNL     1      60.937  62.204  65.911  0.00  0.00    +0.000 A 
ATOM     12  N   UNL     1      60.390  61.843  65.409  0.00  0.00    +0.000 NA
ATOM     13  C   UNL     1      59.602  61.769  65.644  0.00  0.00    +0.000 A 
ATOM     14  C   UNL     1      59.361  62.057  66.379  0.00  0.00    +0.000 A 
ATOM     15  C   UNL     1      59.909  62.418  66.879  0.00  0.00    +0.000 A 
ATOM     16  C   UNL     1      62.660  64.262  69.459  0.00  0.00    +0.000 A 
ATOM     17  N   UNL     1      62.996  64.644  70.109  0.00  0.00    +0.000 NA
ATOM     18  C   UNL     1      61.005  64.508  70.808  0.00  0.00    +0.000 A 
ATOM     19  O   UNL     1      60.301  64.202  70.504  0.00  0.00    +0.000 OA
ATOM     20  N   UNL     1      61.014  64.859  71.554  0.00  0.00    +0.000 N 
ATOM     21  C   UNL     1      60.320  64.904  71.997  0.00  0.00    +0.000 C 
ATOM     22  C   UNL     1      61.717  65.164  71.858  0.00  0.00    +0.000 A 
ATOM     23  O   UNL     1      61.727  65.515  72.604  0.00  0.00    +0.000 OA
ENDROOT
TORSDOF 0
ENDMDL
MODEL 5
REMARK VINA RESULT:    -9.647      1.789      5.629
REMARK INTER + INTRA:          -9.647
REMARK INTER:                  -9.647
REMARK INTRA:                   0.000
REMARK UNBOUND:                 0.000
ROOT
REMARK  Name = pimefylline
REMARK                            x       y       z     vdW  Elec       q    Type
REMARK                         _______ _______ _______ _____ _____    ______ ____
ATOM      1  C   UNL     1      61.833  62.362  65.589  0.00  0.00    +0.000 C 
ATOM      2  N   UNL     1      61.209  62.447  66.121  0.00  0.00    +0.000 N 
ATOM      3  C   UNL     1      61.339  62.800  66.856  0.00  0.00    +0.000 A 
ATOM      4  C   UNL     1      60.714  62.885  67.388  0.00  0.00    +0.000 A 
ATOM      5  N   UNL     1      61.006  63.251  68.066  0.00  0.00    +0.000 N 
ATOM      6  C   UNL     1      60.571  63.443  68.741  0.00  0.00    +0.000 C 
ATOM      7  C   UNL     1      60.939  63.811  69.380  0.00  0.00    +0.000 C 
ATOM      8  N   UNL     1      60.504  64.002  70.054  0.00  0.00    +0.000 NA
ATOM      9  C   UNL     1      60.872  64.370  70.693  0.00  0.00    +0.000 C 
ATOM     10  C   UNL     1      60.437  64.562  71.367  0.00  0.00    +0.000 A 
ATOM     11  C   UNL     1      60.805  64.929  72.006  0.00  0.00    +0.000 A 
ATOM     12  N   UNL     1      60.370  65.121  72.680  0.00  0.00    +0.000 NA
ATOM     13  C   UNL     1      59.564  64.945  72.714  0.00  0.00    +0.000 A 
ATOM     14  C   UNL     1      59.195  64.576  72.074  0.00  0.00    +0.000 A 
ATOM     15  C   UNL     1      59.631  64.385  71.401  0.00  0.00    +0.000 A 
ATOM     16  C   UNL     1      61.812  63.393  67.954  0.00  0.00    +0.000 A 
ATOM     17  N   UNL     1      62.017  63.114  67.205  0.00  0.00    +0.000 NA
ATOM     18  C   UNL     1      59.961  62.617  67.186  0.00  0.00    +0.000 A 
ATOM     19  O   UNL     1      59.337  62.702  67.719  0.00  0.00    +0.000 OA
ATOM     20  N   UNL     1      59.831  62.264  66.452  0.00  0.00    +0.000 N 
ATOM     21  C   UNL     1      59.077  61.997  66.250  0.00  0.00    +0.000 C 
ATOM     22  C   UNL     1      60.455  62.179  65.919  0.00  0.00    +0.000 A 
ATOM     23  O   UNL     1      60.326  61.827  65.185  0.00  0.00    +0.000 OA
ENDROOT
TORSDOF 0
ENDMDL
MODEL 6
REMARK VINA RESULT:    -9.525      4.290      5.969
REMARK INTER + INTRA:          -9.525
REMARK INTER:                  -9.525
REMARK INTRA:                   0.000
REMARK UNBOUND:                 0.000
ROOT
REMARK  Name = pimefylline
REMARK                            x       y       z     vdW  Elec       q    Type
REMARK                         _______ _______ _______ _____ _____    ______ ____
ATOM      1  C   UNL     1      66.437  67.726  69.671  0.00  0.00    +0.000 C 
ATOM      2  N   UNL     1      66.161  67.269  70.300  0.00  0.00    +0.000 N 
ATOM      3  C   UNL     1      65.451  66.854  70.227  0.00  0.00    +0.000 A 
ATOM      4  C   UNL     1      65.175  66.397  70.857  0.00  0.00    +0.000 A 
ATOM      5  N   UNL     1      64.463  66.051  70.626  0.00  0.00    +0.000 N 
ATOM      6  C   UNL     1      63.996  65.550  71.085  0.00  0.00    +0.000 C 
ATOM      7  C   UNL     1      63.294  65.244  70.780  0.00  0.00    +0.000 C 
ATOM      8  N   UNL     1      62.827  64.743  71.239  0.00  0.00    +0.000 NA
ATOM      9  C   UNL     1      62.125  64.437  70.934  0.00  0.00    +0.000 C 
ATOM     10  C   UNL     1      61.657  63.936  71.393  0.00  0.00    +0.000 A 
ATOM     11  C   UNL     1      60.956  63.630  71.088  0.00  0.00    +0.000 A 
ATOM     12  N   UNL     1      60.488  63.129  71.547  0.00  0.00    +0.000 NA
ATOM     13  C   UNL     1      60.724  62.933  72.313  0.00  0.00    +0.000 A 
ATOM     14  C   UNL     1      61.427  63.239  72.620  0.00  0.00    +0.000 A 
ATOM     15  C   UNL     1      61.893  63.740  72.159  0.00  0.00    +0.000 A 
ATOM     16  C   UNL     1      64.299  66.294  69.854  0.00  0.00    +0.000 A 
ATOM     17  N   UNL     1      64.910  66.790  69.608  0.00  0.00    +0.000 NA
ATOM     18  C   UNL     1      65.608  66.355  71.557  0.00  0.00    +0.000 A 
ATOM     19  O   UNL     1      65.331  65.898  72.186  0.00  0.00    +0.000 OA
ATOM     20  N   UNL     1      66.317  66.770  71.630  0.00  0.00    +0.000 N 
ATOM     21  C   UNL     1      66.750  66.728  72.331  0.00  0.00    +0.000 C 
ATOM     22  C   UNL     1      66.594  67.227  71.001  0.00  0.00    +0.000 A 
ATOM     23  O   UNL     1      67.303  67.642  71.073  0.00  0.00    +0.000 OA
ENDROOT
TORSDOF 0
ENDMDL
MODEL 7
REMARK VINA RESULT:    -9.524      1.816      5.644
REMARK INTER + INTRA:          -9.524
REMARK INTER:                  -9.524
REMARK INTRA:                   0.000
REMARK UNBOUND:                 0.000
ROOT
REMARK  Name = pimefylline
REMARK                            x       y       z     vdW  Elec       q    Type
REMARK                         _______ _______ _______ _____ _____    ______ ____
ATOM      1  C   UNL     1      62.375  61.677  63.687  0.00  0.00    +0.000 C 
ATOM      2  N   UNL     1      61.813  61.684  64.291  0.00  0.00    +0.000 N 
ATOM      3  C   UNL     1      61.968  62.085  64.995  0.00  0.00    +0.000 A 
ATOM      4  C   UNL     1      61.405  62.091  65.599  0.00  0.00    +0.000 A 
ATOM      5  N   UNL     1      61.711  62.530  66.226  0.00  0.00    +0.000 N 
ATOM      6  C   UNL     1      61.332  62.678  66.944  0.00  0.00    +0.000 C 
ATOM      7  C   UNL     1      61.707  63.128  67.524  0.00  0.00    +0.000 C 
ATOM      8  N   UNL     1      61.328  63.277  68.242  0.00  0.00    +0.000 NA
ATOM      9  C   UNL     1      61.703  63.727  68.821  0.00  0.00    +0.000 C 
ATOM     10  C   UNL     1      61.324  63.875  69.539  0.00  0.00    +0.000 A 
ATOM     11  C   UNL     1      61.700  64.326  70.119  0.00  0.00    +0.000 A 
ATOM     12  N   UNL     1      61.321  64.474  70.837  0.00  0.00    +0.000 NA
ATOM     13  C   UNL     1      60.566  64.171  70.974  0.00  0.00    +0.000 A 
ATOM     14  C   UNL     1      60.190  63.720  70.394  0.00  0.00    +0.000 A 
ATOM     15  C   UNL     1      60.569  63.573  69.677  0.00  0.00    +0.000 A 
ATOM     16  C   UNL     1      62.462  62.795  66.011  0.00  0.00    +0.000 A 
ATOM     17  N   UNL     1      62.621  62.519  65.250  0.00  0.00    +0.000 NA
ATOM     18  C   UNL     1      60.688  61.696  65.498  0.00  0.00    +0.000 A 
ATOM     19  O   UNL     1      60.126  61.702  66.101  0.00  0.00    +0.000 OA
ATOM     20  N   UNL     1      60.533  61.295  64.794  0.00  0.00    +0.000 N 
ATOM     21  C   UNL     1      59.816  60.900  64.693  0.00  0.00    +0.000 C 
ATOM     22  C   UNL     1      61.095  61.289  64.190  0.00  0.00    +0.000 A 
ATOM     23  O   UNL     1      60.941  60.888  63.486  0.00  0.00    +0.000 OA
ENDROOT
TORSDOF 0
ENDMDL
MODEL 8
REMARK VINA RESULT:    -9.493      5.368      6.252
REMARK INTER + INTRA:          -9.493
REMARK INTER:                  -9.493
REMARK INTRA:                   0.000
REMARK UNBOUND:                 0.000
ROOT
REMARK  Name = pimefylline
REMARK                            x       y       z     vdW  Elec       q    Type
REMARK                         _______ _______ _______ _____ _____    ______ ____
ATOM      1  C   UNL     1      59.628  65.562  73.067  0.00  0.00    +0.000 C 
ATOM      2  N   UNL     1      60.058  65.893  72.445  0.00  0.00    +0.000 N 
ATOM      3  C   UNL     1      60.879  65.952  72.497  0.00  0.00    +0.000 A 
ATOM      4  C   UNL     1      61.308  66.283  71.874  0.00  0.00    +0.000 A 
ATOM      5  N   UNL     1      62.106  66.268  72.080  0.00  0.00    +0.000 N 
ATOM      6  C   UNL     1      62.732  66.545  71.618  0.00  0.00    +0.000 C 
ATOM      7  C   UNL     1      63.506  66.494  71.898  0.00  0.00    +0.000 C 
ATOM      8  N   UNL     1      64.131  66.771  71.436  0.00  0.00    +0.000 NA
ATOM      9  C   UNL     1      64.905  66.720  71.715  0.00  0.00    +0.000 C 
ATOM     10  C   UNL     1      65.530  66.996  71.253  0.00  0.00    +0.000 A 
ATOM     11  C   UNL     1      66.304  66.945  71.533  0.00  0.00    +0.000 A 
ATOM     12  N   UNL     1      66.929  67.222  71.071  0.00  0.00    +0.000 NA
ATOM     13  C   UNL     1      66.780  67.550  70.329  0.00  0.00    +0.000 A 
ATOM     14  C   UNL     1      66.005  67.601  70.048  0.00  0.00    +0.000 A 
ATOM     15  C   UNL     1      65.381  67.324  70.511  0.00  0.00    +0.000 A 
ATOM     16  C   UNL     1      62.171  65.929  72.830  0.00  0.00    +0.000 A 
ATOM     17  N   UNL     1      61.412  65.734  73.087  0.00  0.00    +0.000 NA
ATOM     18  C   UNL     1      60.916  66.554  71.201  0.00  0.00    +0.000 A 
ATOM     19  O   UNL     1      61.346  66.885  70.579  0.00  0.00    +0.000 OA
ATOM     20  N   UNL     1      60.095  66.495  71.150  0.00  0.00    +0.000 N 
ATOM     21  C   UNL     1      59.703  66.766  70.477  0.00  0.00    +0.000 C 
ATOM     22  C   UNL     1      59.666  66.164  71.772  0.00  0.00    +0.000 A 
ATOM     23  O   UNL     1      58.844  66.105  71.721  0.00  0.00    +0.000 OA
ENDROOT
TORSDOF 0
ENDMDL
MODEL 9
REMARK VINA RESULT:    -9.283      1.955      3.370
REMARK INTER + INTRA:          -9.283
REMARK INTER:                  -9.283
REMARK INTRA:                   0.000
REMARK UNBOUND:                 0.000
ROOT
REMARK  Name = pimefylline
REMARK                            x       y       z     vdW  Elec       q    Type
REMARK                         _______ _______ _______ _____ _____    ______ ____
ATOM      1  C   UNL     1      63.921  67.020  72.297  0.00  0.00    +0.000 C 
ATOM      2  N   UNL     1      64.005  66.693  71.544  0.00  0.00    +0.000 N 
ATOM      3  C   UNL     1      63.438  66.167  71.257  0.00  0.00    +0.000 A 
ATOM      4  C   UNL     1      63.523  65.840  70.504  0.00  0.00    +0.000 A 
ATOM      5  N   UNL     1      62.880  65.341  70.370  0.00  0.00    +0.000 N 
ATOM      6  C   UNL     1      62.742  64.901  69.686  0.00  0.00    +0.000 C 
ATOM      7  C   UNL     1      62.072  64.424  69.630  0.00  0.00    +0.000 C 
ATOM      8  N   UNL     1      61.935  63.983  68.946  0.00  0.00    +0.000 NA
ATOM      9  C   UNL     1      61.265  63.506  68.890  0.00  0.00    +0.000 C 
ATOM     10  C   UNL     1      61.127  63.065  68.206  0.00  0.00    +0.000 A 
ATOM     11  C   UNL     1      60.457  62.588  68.150  0.00  0.00    +0.000 A 
ATOM     12  N   UNL     1      60.319  62.148  67.466  0.00  0.00    +0.000 NA
ATOM     13  C   UNL     1      60.853  62.185  66.837  0.00  0.00    +0.000 A 
ATOM     14  C   UNL     1      61.524  62.663  66.893  0.00  0.00    +0.000 A 
ATOM     15  C   UNL     1      61.660  63.103  67.577  0.00  0.00    +0.000 A 
ATOM     16  C   UNL     1      62.398  65.360  71.039  0.00  0.00    +0.000 A 
ATOM     17  N   UNL     1      62.743  65.870  71.588  0.00  0.00    +0.000 NA
ATOM     18  C   UNL     1      64.174  66.039  70.039  0.00  0.00    +0.000 A 
ATOM     19  O   UNL     1      64.258  65.713  69.286  0.00  0.00    +0.000 OA
ATOM     20  N   UNL     1      64.741  66.565  70.326  0.00  0.00    +0.000 N 
ATOM     21  C   UNL     1      65.392  66.765  69.861  0.00  0.00    +0.000 C 
ATOM     22  C   UNL     1      64.657  66.892  71.078  0.00  0.00    +0.000 A 
ATOM     23  O   UNL     1      65.223  67.418  71.366  0.00  0.00    +0.000 OA
ENDROOT
TORSDOF 0
ENDMDL
