MODEL 1
REMARK VINA RESULT:   -13.758      0.000      0.000
REMARK INTER + INTRA:         -13.758
REMARK INTER:                 -13.758
REMARK INTRA:                   0.000
REMARK UNBOUND:                 0.000
ROOT
REMARK  Name = piminodine
REMARK                            x       y       z     vdW  Elec       q    Type
REMARK                         _______ _______ _______ _____ _____    ______ ____
ATOM      1  C   UNL     1      61.630  65.029  72.685  0.00  0.00    +0.000 C 
ATOM      2  C   UNL     1      61.224  64.611  72.100  0.00  0.00    +0.000 C 
ATOM      3  O   UNL     1      61.580  64.472  71.370  0.00  0.00    +0.000 OA
ATOM      4  C   UNL     1      61.176  64.054  70.785  0.00  0.00    +0.000 C 
ATOM      5  O   UNL     1      60.412  63.775  70.932  0.00  0.00    +0.000 OA
ATOM      6  C   UNL     1      61.532  63.915  70.055  0.00  0.00    +0.000 C 
ATOM      7  C   UNL     1      62.097  63.922  69.455  0.00  0.00    +0.000 C 
ATOM      8  C   UNL     1      61.937  63.557  68.732  0.00  0.00    +0.000 C 
ATOM      9  N   UNL     1      61.211  63.185  68.610  0.00  0.00    +0.000 NA
ATOM     10  C   UNL     1      61.050  62.819  67.888  0.00  0.00    +0.000 C 
ATOM     11  C   UNL     1      61.617  62.826  67.288  0.00  0.00    +0.000 C 
ATOM     12  C   UNL     1      61.456  62.461  66.566  0.00  0.00    +0.000 C 
ATOM     13  N   UNL     1      62.022  62.468  65.965  0.00  0.00    +0.000 NA
ATOM     14  C   UNL     1      61.861  62.103  65.243  0.00  0.00    +0.000 A 
ATOM     15  C   UNL     1      62.427  62.110  64.643  0.00  0.00    +0.000 A 
ATOM     16  C   UNL     1      62.266  61.744  63.921  0.00  0.00    +0.000 A 
ATOM     17  C   UNL     1      61.540  61.372  63.799  0.00  0.00    +0.000 A 
ATOM     18  C   UNL     1      60.975  61.365  64.399  0.00  0.00    +0.000 A 
ATOM     19  C   UNL     1      61.135  61.731  65.122  0.00  0.00    +0.000 A 
ATOM     20  C   UNL     1      60.645  63.178  69.211  0.00  0.00    +0.000 C 
ATOM     21  C   UNL     1      60.806  63.543  69.933  0.00  0.00    +0.000 C 
ATOM     22  C   UNL     1      62.134  64.335  70.430  0.00  0.00    +0.000 A 
ATOM     23  C   UNL     1      62.029  64.604  71.204  0.00  0.00    +0.000 A 
ATOM     24  C   UNL     1      62.632  65.025  71.579  0.00  0.00    +0.000 A 
ATOM     25  C   UNL     1      63.339  65.177  71.182  0.00  0.00    +0.000 A 
ATOM     26  C   UNL     1      63.443  64.908  70.408  0.00  0.00    +0.000 A 
ATOM     27  C   UNL     1      62.841  64.488  70.033  0.00  0.00    +0.000 A 
ENDROOT
TORSDOF 0
ENDMDL
MODEL 2
REMARK VINA RESULT:   -13.751      2.108      6.113
REMARK INTER + INTRA:         -13.751
REMARK INTER:                 -13.751
REMARK INTRA:                   0.000
REMARK UNBOUND:                 0.000
ROOT
REMARK  Name = piminodine
REMARK                            x       y       z     vdW  Elec       q    Type
REMARK                         _______ _______ _______ _____ _____    ______ ____
ATOM      1  C   UNL     1      60.920  60.904  63.446  0.00  0.00    +0.000 C 
ATOM      2  C   UNL     1      60.465  61.070  64.114  0.00  0.00    +0.000 C 
ATOM      3  O   UNL     1      60.799  61.471  64.752  0.00  0.00    +0.000 OA
ATOM      4  C   UNL     1      60.344  61.637  65.420  0.00  0.00    +0.000 C 
ATOM      5  O   UNL     1      59.553  61.401  65.449  0.00  0.00    +0.000 OA
ATOM      6  C   UNL     1      60.678  62.039  66.058  0.00  0.00    +0.000 C 
ATOM      7  C   UNL     1      61.238  62.430  66.520  0.00  0.00    +0.000 C 
ATOM      8  C   UNL     1      61.032  62.712  67.268  0.00  0.00    +0.000 C 
ATOM      9  N   UNL     1      60.266  62.602  67.553  0.00  0.00    +0.000 NA
ATOM     10  C   UNL     1      60.060  62.883  68.301  0.00  0.00    +0.000 C 
ATOM     11  C   UNL     1      60.621  63.274  68.763  0.00  0.00    +0.000 C 
ATOM     12  C   UNL     1      60.414  63.556  69.510  0.00  0.00    +0.000 C 
ATOM     13  N   UNL     1      60.975  63.947  69.973  0.00  0.00    +0.000 NA
ATOM     14  C   UNL     1      60.768  64.228  70.720  0.00  0.00    +0.000 A 
ATOM     15  C   UNL     1      61.329  64.620  71.183  0.00  0.00    +0.000 A 
ATOM     16  C   UNL     1      61.122  64.901  71.930  0.00  0.00    +0.000 A 
ATOM     17  C   UNL     1      60.356  64.791  72.216  0.00  0.00    +0.000 A 
ATOM     18  C   UNL     1      59.797  64.400  71.754  0.00  0.00    +0.000 A 
ATOM     19  C   UNL     1      60.002  64.118  71.006  0.00  0.00    +0.000 A 
ATOM     20  C   UNL     1      59.706  62.210  67.091  0.00  0.00    +0.000 C 
ATOM     21  C   UNL     1      59.912  61.929  66.343  0.00  0.00    +0.000 C 
ATOM     22  C   UNL     1      61.328  62.009  65.551  0.00  0.00    +0.000 A 
ATOM     23  C   UNL     1      61.259  61.646  64.813  0.00  0.00    +0.000 A 
ATOM     24  C   UNL     1      61.910  61.616  64.306  0.00  0.00    +0.000 A 
ATOM     25  C   UNL     1      62.628  61.950  64.536  0.00  0.00    +0.000 A 
ATOM     26  C   UNL     1      62.696  62.314  65.274  0.00  0.00    +0.000 A 
ATOM     27  C   UNL     1      62.046  62.343  65.781  0.00  0.00    +0.000 A 
ENDROOT
TORSDOF 0
ENDMDL
MODEL 3
REMARK VINA RESULT:   -12.997      2.015      2.671
REMARK INTER + INTRA:         -12.997
REMARK INTER:                 -12.997
REMARK INTRA:                   0.000
REMARK UNBOUND:                 0.000
ROOT
REMARK  Name = piminodine
REMARK                            x       y       z     vdW  Elec       q    Type
REMARK                         _______ _______ _______ _____ _____    ______ ____
ATOM      1  C   UNL     1      58.884  67.134  72.433  0.00  0.00    +0.000 C 
ATOM      2  C   UNL     1      59.169  67.082  71.660  0.00  0.00    +0.000 C 
ATOM      3  O   UNL     1      59.362  66.347  71.340  0.00  0.00    +0.000 OA
ATOM      4  C   UNL     1      59.647  66.295  70.567  0.00  0.00    +0.000 C 
ATOM      5  O   UNL     1      59.739  66.980  70.115  0.00  0.00    +0.000 OA
ATOM      6  C   UNL     1      59.839  65.560  70.247  0.00  0.00    +0.000 C 
ATOM      7  C   UNL     1      59.945  64.745  70.187  0.00  0.00    +0.000 C 
ATOM      8  C   UNL     1      60.233  64.415  69.487  0.00  0.00    +0.000 C 
ATOM      9  N   UNL     1      60.414  64.902  68.847  0.00  0.00    +0.000 NA
ATOM     10  C   UNL     1      60.701  64.574  68.147  0.00  0.00    +0.000 C 
ATOM     11  C   UNL     1      60.808  63.758  68.087  0.00  0.00    +0.000 C 
ATOM     12  C   UNL     1      61.095  63.430  67.387  0.00  0.00    +0.000 C 
ATOM     13  N   UNL     1      61.201  62.613  67.328  0.00  0.00    +0.000 NA
ATOM     14  C   UNL     1      61.489  62.285  66.628  0.00  0.00    +0.000 A 
ATOM     15  C   UNL     1      61.595  61.468  66.569  0.00  0.00    +0.000 A 
ATOM     16  C   UNL     1      61.883  61.140  65.868  0.00  0.00    +0.000 A 
ATOM     17  C   UNL     1      62.064  61.628  65.228  0.00  0.00    +0.000 A 
ATOM     18  C   UNL     1      61.957  62.443  65.287  0.00  0.00    +0.000 A 
ATOM     19  C   UNL     1      61.670  62.772  65.987  0.00  0.00    +0.000 A 
ATOM     20  C   UNL     1      60.308  65.719  68.906  0.00  0.00    +0.000 C 
ATOM     21  C   UNL     1      60.020  66.047  69.606  0.00  0.00    +0.000 C 
ATOM     22  C   UNL     1      59.591  65.328  70.999  0.00  0.00    +0.000 A 
ATOM     23  C   UNL     1      59.336  65.895  71.542  0.00  0.00    +0.000 A 
ATOM     24  C   UNL     1      59.088  65.662  72.294  0.00  0.00    +0.000 A 
ATOM     25  C   UNL     1      59.095  64.864  72.503  0.00  0.00    +0.000 A 
ATOM     26  C   UNL     1      59.351  64.298  71.959  0.00  0.00    +0.000 A 
ATOM     27  C   UNL     1      59.598  64.530  71.208  0.00  0.00    +0.000 A 
ENDROOT
TORSDOF 0
ENDMDL
MODEL 4
REMARK VINA RESULT:   -12.848      1.755      5.639
REMARK INTER + INTRA:         -12.848
REMARK INTER:                 -12.848
REMARK INTRA:                   0.000
REMARK UNBOUND:                 0.000
ROOT
REMARK  Name = piminodine
REMARK                            x       y       z     vdW  Elec       q    Type
REMARK                         _______ _______ _______ _____ _____    ______ ____
ATOM      1  C   UNL     1      59.220  61.643  65.805  0.00  0.00    +0.000 C 
ATOM      2  C   UNL     1      59.300  62.094  66.491  0.00  0.00    +0.000 C 
ATOM      3  O   UNL     1      60.038  62.391  66.707  0.00  0.00    +0.000 OA
ATOM      4  C   UNL     1      60.118  62.842  67.393  0.00  0.00    +0.000 C 
ATOM      5  O   UNL     1      59.457  62.996  67.864  0.00  0.00    +0.000 OA
ATOM      6  C   UNL     1      60.856  63.139  67.609  0.00  0.00    +0.000 C 
ATOM      7  C   UNL     1      61.664  63.299  67.583  0.00  0.00    +0.000 C 
ATOM      8  C   UNL     1      62.015  63.751  68.178  0.00  0.00    +0.000 C 
ATOM      9  N   UNL     1      61.557  64.043  68.798  0.00  0.00    +0.000 NA
ATOM     10  C   UNL     1      61.906  64.495  69.393  0.00  0.00    +0.000 C 
ATOM     11  C   UNL     1      62.716  64.655  69.367  0.00  0.00    +0.000 C 
ATOM     12  C   UNL     1      63.066  65.107  69.962  0.00  0.00    +0.000 C 
ATOM     13  N   UNL     1      63.875  65.267  69.936  0.00  0.00    +0.000 NA
ATOM     14  C   UNL     1      64.225  65.719  70.531  0.00  0.00    +0.000 A 
ATOM     15  C   UNL     1      65.035  65.879  70.505  0.00  0.00    +0.000 A 
ATOM     16  C   UNL     1      65.384  66.331  71.099  0.00  0.00    +0.000 A 
ATOM     17  C   UNL     1      64.925  66.623  71.720  0.00  0.00    +0.000 A 
ATOM     18  C   UNL     1      64.117  66.463  71.745  0.00  0.00    +0.000 A 
ATOM     19  C   UNL     1      63.766  66.011  71.151  0.00  0.00    +0.000 A 
ATOM     20  C   UNL     1      60.747  63.883  68.824  0.00  0.00    +0.000 C 
ATOM     21  C   UNL     1      60.397  63.431  68.229  0.00  0.00    +0.000 C 
ATOM     22  C   UNL     1      61.058  62.744  66.914  0.00  0.00    +0.000 A 
ATOM     23  C   UNL     1      60.478  62.345  66.483  0.00  0.00    +0.000 A 
ATOM     24  C   UNL     1      60.681  61.949  65.787  0.00  0.00    +0.000 A 
ATOM     25  C   UNL     1      61.462  61.952  65.523  0.00  0.00    +0.000 A 
ATOM     26  C   UNL     1      62.042  62.351  65.955  0.00  0.00    +0.000 A 
ATOM     27  C   UNL     1      61.840  62.747  66.650  0.00  0.00    +0.000 A 
ENDROOT
TORSDOF 0
ENDMDL
MODEL 5
REMARK VINA RESULT:   -11.779      2.578      5.356
REMARK INTER + INTRA:         -11.779
REMARK INTER:                 -11.779
REMARK INTRA:                   0.000
REMARK UNBOUND:                 0.000
ROOT
REMARK  Name = piminodine
REMARK                            x       y       z     vdW  Elec       q    Type
REMARK                         _______ _______ _______ _____ _____    ______ ____
ATOM      1  C   UNL     1      59.751  61.260  70.662  0.00  0.00    +0.000 C 
ATOM      2  C   UNL     1      60.274  61.746  71.077  0.00  0.00    +0.000 C 
ATOM      3  O   UNL     1      60.766  62.266  70.669  0.00  0.00    +0.000 OA
ATOM      4  C   UNL     1      61.289  62.752  71.084  0.00  0.00    +0.000 C 
ATOM      5  O   UNL     1      61.318  62.715  71.908  0.00  0.00    +0.000 OA
ATOM      6  C   UNL     1      61.781  63.272  70.676  0.00  0.00    +0.000 C 
ATOM      7  C   UNL     1      62.135  63.673  70.048  0.00  0.00    +0.000 C 
ATOM      8  C   UNL     1      62.718  64.238  70.195  0.00  0.00    +0.000 C 
ATOM      9  N   UNL     1      62.946  64.403  70.970  0.00  0.00    +0.000 NA
ATOM     10  C   UNL     1      63.528  64.969  71.118  0.00  0.00    +0.000 C 
ATOM     11  C   UNL     1      63.882  65.370  70.489  0.00  0.00    +0.000 C 
ATOM     12  C   UNL     1      64.465  65.935  70.637  0.00  0.00    +0.000 C 
ATOM     13  N   UNL     1      64.819  66.336  70.008  0.00  0.00    +0.000 NA
ATOM     14  C   UNL     1      65.401  66.901  70.155  0.00  0.00    +0.000 A 
ATOM     15  C   UNL     1      65.755  67.302  69.526  0.00  0.00    +0.000 A 
ATOM     16  C   UNL     1      66.337  67.868  69.674  0.00  0.00    +0.000 A 
ATOM     17  C   UNL     1      66.566  68.033  70.450  0.00  0.00    +0.000 A 
ATOM     18  C   UNL     1      66.212  67.632  71.077  0.00  0.00    +0.000 A 
ATOM     19  C   UNL     1      65.629  67.066  70.931  0.00  0.00    +0.000 A 
ATOM     20  C   UNL     1      62.592  64.002  71.599  0.00  0.00    +0.000 C 
ATOM     21  C   UNL     1      62.010  63.437  71.451  0.00  0.00    +0.000 C 
ATOM     22  C   UNL     1      61.382  62.926  70.042  0.00  0.00    +0.000 A 
ATOM     23  C   UNL     1      60.810  62.348  70.182  0.00  0.00    +0.000 A 
ATOM     24  C   UNL     1      60.410  62.002  69.547  0.00  0.00    +0.000 A 
ATOM     25  C   UNL     1      60.583  62.234  68.775  0.00  0.00    +0.000 A 
ATOM     26  C   UNL     1      61.155  62.813  68.636  0.00  0.00    +0.000 A 
ATOM     27  C   UNL     1      61.555  63.158  69.270  0.00  0.00    +0.000 A 
ENDROOT
TORSDOF 0
ENDMDL
