MODEL 1
REMARK VINA RESULT:   -16.983      0.000      0.000
REMARK INTER + INTRA:         -16.983
REMARK INTER:                 -16.983
REMARK INTRA:                   0.000
REMARK UNBOUND:                 0.000
ROOT
REMARK  Name = pimozide
REMARK                            x       y       z     vdW  Elec       q    Type
REMARK                         _______ _______ _______ _____ _____    ______ ____
ATOM      1  F   UNL     1      62.528  61.378  63.150  0.00  0.00    +0.000 F 
ATOM      2  C   UNL     1      62.241  61.639  63.878  0.00  0.00    +0.000 A 
ATOM      3  C   UNL     1      62.751  62.002  64.416  0.00  0.00    +0.000 A 
ATOM      4  C   UNL     1      62.464  62.263  65.145  0.00  0.00    +0.000 A 
ATOM      5  C   UNL     1      61.668  62.163  65.335  0.00  0.00    +0.000 A 
ATOM      6  C   UNL     1      61.158  61.800  64.796  0.00  0.00    +0.000 A 
ATOM      7  C   UNL     1      61.444  61.539  64.068  0.00  0.00    +0.000 A 
ATOM      8  C   UNL     1      61.381  62.424  66.062  0.00  0.00    +0.000 C 
ATOM      9  C   UNL     1      61.891  62.786  66.601  0.00  0.00    +0.000 C 
ATOM     10  C   UNL     1      61.605  63.047  67.328  0.00  0.00    +0.000 C 
ATOM     11  C   UNL     1      62.114  63.410  67.867  0.00  0.00    +0.000 C 
ATOM     12  N   UNL     1      61.827  63.671  68.595  0.00  0.00    +0.000 NA
ATOM     13  C   UNL     1      62.337  64.033  69.133  0.00  0.00    +0.000 C 
ATOM     14  C   UNL     1      62.050  64.295  69.861  0.00  0.00    +0.000 C 
ATOM     15  C   UNL     1      61.254  64.194  70.051  0.00  0.00    +0.000 C 
ATOM     16  C   UNL     1      60.744  63.832  69.513  0.00  0.00    +0.000 C 
ATOM     17  C   UNL     1      61.031  63.571  68.785  0.00  0.00    +0.000 C 
ATOM     18  N   UNL     1      60.968  64.455  70.779  0.00  0.00    +0.000 N 
ATOM     19  C   UNL     1      60.189  64.393  71.044  0.00  0.00    +0.000 A 
ATOM     20  O   UNL     1      59.560  64.058  70.628  0.00  0.00    +0.000 OA
ATOM     21  N   UNL     1      60.149  64.724  71.799  0.00  0.00    +0.000 NA
ATOM     22  C   UNL     1      60.903  64.991  71.999  0.00  0.00    +0.000 A 
ATOM     23  C   UNL     1      61.409  64.825  71.369  0.00  0.00    +0.000 A 
ATOM     24  C   UNL     1      62.206  65.032  71.415  0.00  0.00    +0.000 A 
ATOM     25  C   UNL     1      62.498  65.405  72.090  0.00  0.00    +0.000 A 
ATOM     26  C   UNL     1      61.992  65.571  72.720  0.00  0.00    +0.000 A 
ATOM     27  C   UNL     1      61.195  65.364  72.676  0.00  0.00    +0.000 A 
ATOM     28  C   UNL     1      60.585  62.323  66.252  0.00  0.00    +0.000 A 
ATOM     29  C   UNL     1      60.298  62.585  66.980  0.00  0.00    +0.000 A 
ATOM     30  C   UNL     1      59.501  62.484  67.170  0.00  0.00    +0.000 A 
ATOM     31  C   UNL     1      58.991  62.122  66.632  0.00  0.00    +0.000 A 
ATOM     32  F   UNL     1      58.195  62.022  66.822  0.00  0.00    +0.000 F 
ATOM     33  C   UNL     1      59.278  61.861  65.904  0.00  0.00    +0.000 A 
ATOM     34  C   UNL     1      60.075  61.961  65.714  0.00  0.00    +0.000 A 
ENDROOT
TORSDOF 0
ENDMDL
MODEL 2
REMARK VINA RESULT:   -15.840      2.399      6.563
REMARK INTER + INTRA:         -15.840
REMARK INTER:                 -15.840
REMARK INTRA:                   0.000
REMARK UNBOUND:                 0.000
ROOT
REMARK  Name = pimozide
REMARK                            x       y       z     vdW  Elec       q    Type
REMARK                         _______ _______ _______ _____ _____    ______ ____
ATOM      1  F   UNL     1      59.696  64.681  73.222  0.00  0.00    +0.000 F 
ATOM      2  C   UNL     1      60.010  64.491  72.484  0.00  0.00    +0.000 A 
ATOM      3  C   UNL     1      59.567  64.044  71.950  0.00  0.00    +0.000 A 
ATOM      4  C   UNL     1      59.882  63.854  71.210  0.00  0.00    +0.000 A 
ATOM      5  C   UNL     1      60.638  64.111  71.006  0.00  0.00    +0.000 A 
ATOM      6  C   UNL     1      61.081  64.557  71.540  0.00  0.00    +0.000 A 
ATOM      7  C   UNL     1      60.767  64.747  72.278  0.00  0.00    +0.000 A 
ATOM      8  C   UNL     1      60.952  63.921  70.267  0.00  0.00    +0.000 C 
ATOM      9  C   UNL     1      60.510  63.474  69.733  0.00  0.00    +0.000 C 
ATOM     10  C   UNL     1      60.823  63.284  68.995  0.00  0.00    +0.000 C 
ATOM     11  C   UNL     1      60.381  62.838  68.460  0.00  0.00    +0.000 C 
ATOM     12  N   UNL     1      60.695  62.647  67.721  0.00  0.00    +0.000 NA
ATOM     13  C   UNL     1      60.252  62.201  67.187  0.00  0.00    +0.000 C 
ATOM     14  C   UNL     1      60.566  62.011  66.448  0.00  0.00    +0.000 C 
ATOM     15  C   UNL     1      61.323  62.267  66.243  0.00  0.00    +0.000 C 
ATOM     16  C   UNL     1      61.766  62.714  66.778  0.00  0.00    +0.000 C 
ATOM     17  C   UNL     1      61.452  62.904  67.516  0.00  0.00    +0.000 C 
ATOM     18  N   UNL     1      61.637  62.077  65.505  0.00  0.00    +0.000 N 
ATOM     19  C   UNL     1      62.382  62.294  65.224  0.00  0.00    +0.000 A 
ATOM     20  O   UNL     1      62.944  62.739  65.633  0.00  0.00    +0.000 OA
ATOM     21  N   UNL     1      62.466  61.988  64.463  0.00  0.00    +0.000 NA
ATOM     22  C   UNL     1      61.774  61.582  64.273  0.00  0.00    +0.000 A 
ATOM     23  C   UNL     1      61.261  61.638  64.917  0.00  0.00    +0.000 A 
ATOM     24  C   UNL     1      60.518  61.280  64.884  0.00  0.00    +0.000 A 
ATOM     25  C   UNL     1      60.288  60.867  64.209  0.00  0.00    +0.000 A 
ATOM     26  C   UNL     1      60.801  60.812  63.565  0.00  0.00    +0.000 A 
ATOM     27  C   UNL     1      61.544  61.169  63.596  0.00  0.00    +0.000 A 
ATOM     28  C   UNL     1      61.709  64.177  70.063  0.00  0.00    +0.000 A 
ATOM     29  C   UNL     1      62.023  63.987  69.323  0.00  0.00    +0.000 A 
ATOM     30  C   UNL     1      62.780  64.243  69.119  0.00  0.00    +0.000 A 
ATOM     31  C   UNL     1      63.223  64.690  69.652  0.00  0.00    +0.000 A 
ATOM     32  F   UNL     1      63.980  64.946  69.448  0.00  0.00    +0.000 F 
ATOM     33  C   UNL     1      62.909  64.880  70.392  0.00  0.00    +0.000 A 
ATOM     34  C   UNL     1      62.152  64.623  70.596  0.00  0.00    +0.000 A 
ENDROOT
TORSDOF 0
ENDMDL
MODEL 3
REMARK VINA RESULT:   -15.035      2.215      6.250
REMARK INTER + INTRA:         -15.035
REMARK INTER:                 -15.035
REMARK INTRA:                   0.000
REMARK UNBOUND:                 0.000
ROOT
REMARK  Name = pimozide
REMARK                            x       y       z     vdW  Elec       q    Type
REMARK                         _______ _______ _______ _____ _____    ______ ____
ATOM      1  F   UNL     1      63.456  66.953  73.222  0.00  0.00    +0.000 F 
ATOM      2  C   UNL     1      63.062  66.484  72.670  0.00  0.00    +0.000 A 
ATOM      3  C   UNL     1      63.415  66.314  71.945  0.00  0.00    +0.000 A 
ATOM      4  C   UNL     1      63.020  65.845  71.393  0.00  0.00    +0.000 A 
ATOM      5  C   UNL     1      62.272  65.545  71.566  0.00  0.00    +0.000 A 
ATOM      6  C   UNL     1      61.918  65.716  72.292  0.00  0.00    +0.000 A 
ATOM      7  C   UNL     1      62.312  66.185  72.844  0.00  0.00    +0.000 A 
ATOM      8  C   UNL     1      61.877  65.077  71.015  0.00  0.00    +0.000 C 
ATOM      9  C   UNL     1      62.231  64.906  70.289  0.00  0.00    +0.000 C 
ATOM     10  C   UNL     1      61.837  64.438  69.737  0.00  0.00    +0.000 C 
ATOM     11  C   UNL     1      62.191  64.267  69.011  0.00  0.00    +0.000 C 
ATOM     12  N   UNL     1      61.796  63.798  68.459  0.00  0.00    +0.000 NA
ATOM     13  C   UNL     1      62.150  63.628  67.734  0.00  0.00    +0.000 C 
ATOM     14  C   UNL     1      61.755  63.159  67.182  0.00  0.00    +0.000 C 
ATOM     15  C   UNL     1      61.006  62.860  67.355  0.00  0.00    +0.000 C 
ATOM     16  C   UNL     1      60.652  63.030  68.081  0.00  0.00    +0.000 C 
ATOM     17  C   UNL     1      61.047  63.499  68.633  0.00  0.00    +0.000 C 
ATOM     18  N   UNL     1      60.612  62.391  66.804  0.00  0.00    +0.000 N 
ATOM     19  C   UNL     1      59.864  62.054  66.899  0.00  0.00    +0.000 A 
ATOM     20  O   UNL     1      59.381  62.128  67.563  0.00  0.00    +0.000 OA
ATOM     21  N   UNL     1      59.686  61.631  66.214  0.00  0.00    +0.000 NA
ATOM     22  C   UNL     1      60.322  61.706  65.695  0.00  0.00    +0.000 A 
ATOM     23  C   UNL     1      60.895  62.176  66.060  0.00  0.00    +0.000 A 
ATOM     24  C   UNL     1      61.600  62.346  65.666  0.00  0.00    +0.000 A 
ATOM     25  C   UNL     1      61.733  62.048  64.909  0.00  0.00    +0.000 A 
ATOM     26  C   UNL     1      61.160  61.578  64.545  0.00  0.00    +0.000 A 
ATOM     27  C   UNL     1      60.455  61.407  64.937  0.00  0.00    +0.000 A 
ATOM     28  C   UNL     1      61.128  64.777  71.188  0.00  0.00    +0.000 A 
ATOM     29  C   UNL     1      60.733  64.308  70.636  0.00  0.00    +0.000 A 
ATOM     30  C   UNL     1      59.985  64.009  70.810  0.00  0.00    +0.000 A 
ATOM     31  C   UNL     1      59.630  64.178  71.535  0.00  0.00    +0.000 A 
ATOM     32  F   UNL     1      58.881  63.879  71.709  0.00  0.00    +0.000 F 
ATOM     33  C   UNL     1      60.025  64.648  72.087  0.00  0.00    +0.000 A 
ATOM     34  C   UNL     1      60.774  64.947  71.913  0.00  0.00    +0.000 A 
ENDROOT
TORSDOF 0
ENDMDL
MODEL 4
REMARK VINA RESULT:   -14.641      2.550      6.286
REMARK INTER + INTRA:         -14.641
REMARK INTER:                 -14.641
REMARK INTRA:                   0.000
REMARK UNBOUND:                 0.000
ROOT
REMARK  Name = pimozide
REMARK                            x       y       z     vdW  Elec       q    Type
REMARK                         _______ _______ _______ _____ _____    ______ ____
ATOM      1  F   UNL     1      59.059  66.224  72.713  0.00  0.00    +0.000 F 
ATOM      2  C   UNL     1      59.326  65.687  72.147  0.00  0.00    +0.000 A 
ATOM      3  C   UNL     1      59.484  65.942  71.378  0.00  0.00    +0.000 A 
ATOM      4  C   UNL     1      59.751  65.404  70.812  0.00  0.00    +0.000 A 
ATOM      5  C   UNL     1      59.862  64.612  71.015  0.00  0.00    +0.000 A 
ATOM      6  C   UNL     1      59.704  64.358  71.784  0.00  0.00    +0.000 A 
ATOM      7  C   UNL     1      59.437  64.894  72.349  0.00  0.00    +0.000 A 
ATOM      8  C   UNL     1      60.129  64.076  70.449  0.00  0.00    +0.000 C 
ATOM      9  C   UNL     1      60.286  64.330  69.680  0.00  0.00    +0.000 C 
ATOM     10  C   UNL     1      60.554  63.794  69.114  0.00  0.00    +0.000 C 
ATOM     11  C   UNL     1      60.711  64.048  68.345  0.00  0.00    +0.000 C 
ATOM     12  N   UNL     1      60.979  63.511  67.779  0.00  0.00    +0.000 NA
ATOM     13  C   UNL     1      61.136  63.766  67.010  0.00  0.00    +0.000 C 
ATOM     14  C   UNL     1      61.403  63.228  66.444  0.00  0.00    +0.000 C 
ATOM     15  C   UNL     1      61.514  62.436  66.646  0.00  0.00    +0.000 C 
ATOM     16  C   UNL     1      61.356  62.182  67.415  0.00  0.00    +0.000 C 
ATOM     17  C   UNL     1      61.089  62.719  67.981  0.00  0.00    +0.000 C 
ATOM     18  N   UNL     1      61.781  61.900  66.081  0.00  0.00    +0.000 N 
ATOM     19  C   UNL     1      61.916  61.095  66.201  0.00  0.00    +0.000 A 
ATOM     20  O   UNL     1      61.808  60.686  66.910  0.00  0.00    +0.000 OA
ATOM     21  N   UNL     1      62.179  60.771  65.490  0.00  0.00    +0.000 NA
ATOM     22  C   UNL     1      62.206  61.375  64.929  0.00  0.00    +0.000 A 
ATOM     23  C   UNL     1      61.960  62.073  65.295  0.00  0.00    +0.000 A 
ATOM     24  C   UNL     1      61.931  62.776  64.863  0.00  0.00    +0.000 A 
ATOM     25  C   UNL     1      62.148  62.781  64.068  0.00  0.00    +0.000 A 
ATOM     26  C   UNL     1      62.394  62.083  63.703  0.00  0.00    +0.000 A 
ATOM     27  C   UNL     1      62.423  61.380  64.133  0.00  0.00    +0.000 A 
ATOM     28  C   UNL     1      60.239  63.284  70.651  0.00  0.00    +0.000 A 
ATOM     29  C   UNL     1      60.507  62.746  70.085  0.00  0.00    +0.000 A 
ATOM     30  C   UNL     1      60.617  61.954  70.288  0.00  0.00    +0.000 A 
ATOM     31  C   UNL     1      60.460  61.699  71.056  0.00  0.00    +0.000 A 
ATOM     32  F   UNL     1      60.570  60.907  71.259  0.00  0.00    +0.000 F 
ATOM     33  C   UNL     1      60.192  62.236  71.622  0.00  0.00    +0.000 A 
ATOM     34  C   UNL     1      60.082  63.028  71.420  0.00  0.00    +0.000 A 
ENDROOT
TORSDOF 0
ENDMDL
MODEL 5
REMARK VINA RESULT:   -14.490      1.595      2.183
REMARK INTER + INTRA:         -14.490
REMARK INTER:                 -14.490
REMARK INTRA:                   0.000
REMARK UNBOUND:                 0.000
ROOT
REMARK  Name = pimozide
REMARK                            x       y       z     vdW  Elec       q    Type
REMARK                         _______ _______ _______ _____ _____    ______ ____
ATOM      1  F   UNL     1      61.615  61.717  64.611  0.00  0.00    +0.000 F 
ATOM      2  C   UNL     1      61.555  62.032  65.371  0.00  0.00    +0.000 A 
ATOM      3  C   UNL     1      61.867  62.778  65.535  0.00  0.00    +0.000 A 
ATOM      4  C   UNL     1      61.807  63.093  66.295  0.00  0.00    +0.000 A 
ATOM      5  C   UNL     1      61.435  62.662  66.892  0.00  0.00    +0.000 A 
ATOM      6  C   UNL     1      61.124  61.915  66.728  0.00  0.00    +0.000 A 
ATOM      7  C   UNL     1      61.183  61.601  65.969  0.00  0.00    +0.000 A 
ATOM      8  C   UNL     1      61.375  62.976  67.652  0.00  0.00    +0.000 C 
ATOM      9  C   UNL     1      61.687  63.722  67.816  0.00  0.00    +0.000 C 
ATOM     10  C   UNL     1      61.627  64.037  68.575  0.00  0.00    +0.000 C 
ATOM     11  C   UNL     1      61.939  64.783  68.739  0.00  0.00    +0.000 C 
ATOM     12  N   UNL     1      61.879  65.098  69.500  0.00  0.00    +0.000 NA
ATOM     13  C   UNL     1      62.191  65.844  69.663  0.00  0.00    +0.000 C 
ATOM     14  C   UNL     1      62.131  66.159  70.423  0.00  0.00    +0.000 C 
ATOM     15  C   UNL     1      61.759  65.728  71.020  0.00  0.00    +0.000 C 
ATOM     16  C   UNL     1      61.448  64.981  70.856  0.00  0.00    +0.000 C 
ATOM     17  C   UNL     1      61.507  64.667  70.097  0.00  0.00    +0.000 C 
ATOM     18  N   UNL     1      61.700  66.042  71.780  0.00  0.00    +0.000 N 
ATOM     19  C   UNL     1      61.345  65.677  72.430  0.00  0.00    +0.000 A 
ATOM     20  O   UNL     1      60.988  64.933  72.433  0.00  0.00    +0.000 OA
ATOM     21  N   UNL     1      61.410  66.187  73.075  0.00  0.00    +0.000 NA
ATOM     22  C   UNL     1      61.804  66.866  72.825  0.00  0.00    +0.000 A 
ATOM     23  C   UNL     1      61.983  66.777  72.024  0.00  0.00    +0.000 A 
ATOM     24  C   UNL     1      62.382  67.377  71.622  0.00  0.00    +0.000 A 
ATOM     25  C   UNL     1      62.601  68.065  72.019  0.00  0.00    +0.000 A 
ATOM     26  C   UNL     1      62.422  68.155  72.819  0.00  0.00    +0.000 A 
ATOM     27  C   UNL     1      62.024  67.555  73.222  0.00  0.00    +0.000 A 
ATOM     28  C   UNL     1      61.004  62.545  68.249  0.00  0.00    +0.000 A 
ATOM     29  C   UNL     1      60.944  62.860  69.009  0.00  0.00    +0.000 A 
ATOM     30  C   UNL     1      60.572  62.428  69.606  0.00  0.00    +0.000 A 
ATOM     31  C   UNL     1      60.260  61.682  69.443  0.00  0.00    +0.000 A 
ATOM     32  F   UNL     1      59.889  61.251  70.040  0.00  0.00    +0.000 F 
ATOM     33  C   UNL     1      60.320  61.367  68.683  0.00  0.00    +0.000 A 
ATOM     34  C   UNL     1      60.692  61.799  68.086  0.00  0.00    +0.000 A 
ENDROOT
TORSDOF 0
ENDMDL
MODEL 6
REMARK VINA RESULT:   -14.274      4.499      6.031
REMARK INTER + INTRA:         -14.274
REMARK INTER:                 -14.274
REMARK INTRA:                   0.000
REMARK UNBOUND:                 0.000
ROOT
REMARK  Name = pimozide
REMARK                            x       y       z     vdW  Elec       q    Type
REMARK                         _______ _______ _______ _____ _____    ______ ____
ATOM      1  F   UNL     1      67.018  68.090  70.228  0.00  0.00    +0.000 F 
ATOM      2  C   UNL     1      66.297  67.720  70.377  0.00  0.00    +0.000 A 
ATOM      3  C   UNL     1      65.677  68.145  70.718  0.00  0.00    +0.000 A 
ATOM      4  C   UNL     1      64.955  67.774  70.867  0.00  0.00    +0.000 A 
ATOM      5  C   UNL     1      64.853  66.978  70.676  0.00  0.00    +0.000 A 
ATOM      6  C   UNL     1      65.473  66.553  70.335  0.00  0.00    +0.000 A 
ATOM      7  C   UNL     1      66.194  66.923  70.186  0.00  0.00    +0.000 A 
ATOM      8  C   UNL     1      64.132  66.608  70.825  0.00  0.00    +0.000 C 
ATOM      9  C   UNL     1      63.512  67.032  71.166  0.00  0.00    +0.000 C 
ATOM     10  C   UNL     1      62.791  66.662  71.315  0.00  0.00    +0.000 C 
ATOM     11  C   UNL     1      62.171  67.087  71.656  0.00  0.00    +0.000 C 
ATOM     12  N   UNL     1      61.449  66.716  71.805  0.00  0.00    +0.000 NA
ATOM     13  C   UNL     1      60.830  67.142  72.146  0.00  0.00    +0.000 C 
ATOM     14  C   UNL     1      60.108  66.771  72.295  0.00  0.00    +0.000 C 
ATOM     15  C   UNL     1      60.005  65.975  72.104  0.00  0.00    +0.000 C 
ATOM     16  C   UNL     1      60.625  65.550  71.763  0.00  0.00    +0.000 C 
ATOM     17  C   UNL     1      61.347  65.920  71.614  0.00  0.00    +0.000 C 
ATOM     18  N   UNL     1      59.284  65.605  72.253  0.00  0.00    +0.000 N 
ATOM     19  C   UNL     1      59.101  64.816  72.092  0.00  0.00    +0.000 A 
ATOM     20  O   UNL     1      59.608  64.260  71.754  0.00  0.00    +0.000 OA
ATOM     21  N   UNL     1      58.323  64.682  72.329  0.00  0.00    +0.000 NA
ATOM     22  C   UNL     1      58.025  65.386  72.636  0.00  0.00    +0.000 A 
ATOM     23  C   UNL     1      58.619  65.957  72.589  0.00  0.00    +0.000 A 
ATOM     24  C   UNL     1      58.476  66.723  72.859  0.00  0.00    +0.000 A 
ATOM     25  C   UNL     1      57.740  66.920  73.175  0.00  0.00    +0.000 A 
ATOM     26  C   UNL     1      57.146  66.349  73.222  0.00  0.00    +0.000 A 
ATOM     27  C   UNL     1      57.288  65.582  72.953  0.00  0.00    +0.000 A 
ATOM     28  C   UNL     1      64.030  65.812  70.634  0.00  0.00    +0.000 A 
ATOM     29  C   UNL     1      63.308  65.441  70.783  0.00  0.00    +0.000 A 
ATOM     30  C   UNL     1      63.205  64.645  70.592  0.00  0.00    +0.000 A 
ATOM     31  C   UNL     1      63.824  64.219  70.251  0.00  0.00    +0.000 A 
ATOM     32  F   UNL     1      63.722  63.423  70.060  0.00  0.00    +0.000 F 
ATOM     33  C   UNL     1      64.547  64.590  70.102  0.00  0.00    +0.000 A 
ATOM     34  C   UNL     1      64.649  65.386  70.293  0.00  0.00    +0.000 A 
ENDROOT
TORSDOF 0
ENDMDL
