MODEL 1
REMARK VINA RESULT:   -12.648      0.000      0.000
REMARK INTER + INTRA:         -12.648
REMARK INTER:                 -12.648
REMARK INTRA:                   0.000
REMARK UNBOUND:                 0.000
ROOT
REMARK  Name = pioglitazone
REMARK                            x       y       z     vdW  Elec       q    Type
REMARK                         _______ _______ _______ _____ _____    ______ ____
ATOM      1  C   UNL     1      61.869  65.277  72.707  0.00  0.00    +0.000 C 
ATOM      2  C   UNL     1      61.298  64.694  72.833  0.00  0.00    +0.000 C 
ATOM      3  C   UNL     1      61.069  64.199  72.214  0.00  0.00    +0.000 A 
ATOM      4  C   UNL     1      60.499  63.617  72.340  0.00  0.00    +0.000 A 
ATOM      5  C   UNL     1      60.270  63.123  71.721  0.00  0.00    +0.000 A 
ATOM      6  C   UNL     1      60.611  63.211  70.975  0.00  0.00    +0.000 A 
ATOM      7  C   UNL     1      60.381  62.716  70.355  0.00  0.00    +0.000 C 
ATOM      8  C   UNL     1      60.723  62.806  69.609  0.00  0.00    +0.000 C 
ATOM      9  O   UNL     1      60.494  62.311  68.990  0.00  0.00    +0.000 OA
ATOM     10  C   UNL     1      60.834  62.399  68.244  0.00  0.00    +0.000 A 
ATOM     11  C   UNL     1      60.605  61.905  67.624  0.00  0.00    +0.000 A 
ATOM     12  C   UNL     1      60.946  61.994  66.878  0.00  0.00    +0.000 A 
ATOM     13  C   UNL     1      61.516  62.576  66.751  0.00  0.00    +0.000 A 
ATOM     14  C   UNL     1      61.857  62.665  66.005  0.00  0.00    +0.000 C 
ATOM     15  C   UNL     1      61.628  62.171  65.386  0.00  0.00    +0.000 C 
ATOM     16  S   UNL     1      61.067  61.567  65.430  0.00  0.00    +0.000 S 
ATOM     17  C   UNL     1      61.012  61.216  64.684  0.00  0.00    +0.000 C 
ATOM     18  O   UNL     1      60.517  60.589  64.480  0.00  0.00    +0.000 OA
ATOM     19  N   UNL     1      61.538  61.604  64.181  0.00  0.00    +0.000 NA
ATOM     20  C   UNL     1      61.918  62.194  64.614  0.00  0.00    +0.000 C 
ATOM     21  O   UNL     1      62.490  62.715  64.327  0.00  0.00    +0.000 OA
ATOM     22  C   UNL     1      61.745  63.071  67.371  0.00  0.00    +0.000 A 
ATOM     23  C   UNL     1      61.405  62.983  68.117  0.00  0.00    +0.000 A 
ATOM     24  N   UNL     1      61.181  63.794  70.848  0.00  0.00    +0.000 NA
ATOM     25  C   UNL     1      61.410  64.288  71.468  0.00  0.00    +0.000 A 
ENDROOT
TORSDOF 0
ENDMDL
MODEL 2
REMARK VINA RESULT:   -12.450      4.059      6.228
REMARK INTER + INTRA:         -12.450
REMARK INTER:                 -12.450
REMARK INTRA:                   0.000
REMARK UNBOUND:                 0.000
ROOT
REMARK  Name = pioglitazone
REMARK                            x       y       z     vdW  Elec       q    Type
REMARK                         _______ _______ _______ _____ _____    ______ ____
ATOM      1  C   UNL     1      59.845  62.541  66.608  0.00  0.00    +0.000 C 
ATOM      2  C   UNL     1      59.777  62.198  67.356  0.00  0.00    +0.000 C 
ATOM      3  C   UNL     1      60.259  62.456  67.974  0.00  0.00    +0.000 A 
ATOM      4  C   UNL     1      60.191  62.113  68.721  0.00  0.00    +0.000 A 
ATOM      5  C   UNL     1      60.674  62.370  69.338  0.00  0.00    +0.000 A 
ATOM      6  C   UNL     1      61.225  62.970  69.209  0.00  0.00    +0.000 A 
ATOM      7  C   UNL     1      61.708  63.227  69.826  0.00  0.00    +0.000 C 
ATOM      8  C   UNL     1      62.260  63.827  69.696  0.00  0.00    +0.000 C 
ATOM      9  O   UNL     1      62.743  64.084  70.313  0.00  0.00    +0.000 OA
ATOM     10  C   UNL     1      63.295  64.683  70.184  0.00  0.00    +0.000 A 
ATOM     11  C   UNL     1      63.777  64.940  70.801  0.00  0.00    +0.000 A 
ATOM     12  C   UNL     1      64.329  65.540  70.671  0.00  0.00    +0.000 A 
ATOM     13  C   UNL     1      64.398  65.882  69.924  0.00  0.00    +0.000 A 
ATOM     14  C   UNL     1      64.949  66.482  69.793  0.00  0.00    +0.000 C 
ATOM     15  C   UNL     1      65.432  66.739  70.411  0.00  0.00    +0.000 C 
ATOM     16  S   UNL     1      65.426  66.450  71.184  0.00  0.00    +0.000 S 
ATOM     17  C   UNL     1      65.997  66.863  71.615  0.00  0.00    +0.000 C 
ATOM     18  O   UNL     1      66.176  66.751  72.412  0.00  0.00    +0.000 OA
ATOM     19  N   UNL     1      66.355  67.406  71.108  0.00  0.00    +0.000 NA
ATOM     20  C   UNL     1      66.006  67.330  70.364  0.00  0.00    +0.000 C 
ATOM     21  O   UNL     1      66.197  67.768  69.691  0.00  0.00    +0.000 OA
ATOM     22  C   UNL     1      63.915  65.625  69.306  0.00  0.00    +0.000 A 
ATOM     23  C   UNL     1      63.363  65.026  69.436  0.00  0.00    +0.000 A 
ATOM     24  N   UNL     1      61.294  63.312  68.461  0.00  0.00    +0.000 NA
ATOM     25  C   UNL     1      60.811  63.055  67.843  0.00  0.00    +0.000 A 
ENDROOT
TORSDOF 0
ENDMDL
MODEL 3
REMARK VINA RESULT:   -12.351      2.575      6.174
REMARK INTER + INTRA:         -12.351
REMARK INTER:                 -12.351
REMARK INTRA:                   0.000
REMARK UNBOUND:                 0.000
ROOT
REMARK  Name = pioglitazone
REMARK                            x       y       z     vdW  Elec       q    Type
REMARK                         _______ _______ _______ _____ _____    ______ ____
ATOM      1  C   UNL     1      62.421  62.440  63.974  0.00  0.00    +0.000 C 
ATOM      2  C   UNL     1      62.329  61.760  64.433  0.00  0.00    +0.000 C 
ATOM      3  C   UNL     1      62.041  61.818  65.204  0.00  0.00    +0.000 A 
ATOM      4  C   UNL     1      61.949  61.139  65.662  0.00  0.00    +0.000 A 
ATOM      5  C   UNL     1      61.662  61.197  66.433  0.00  0.00    +0.000 A 
ATOM      6  C   UNL     1      61.466  61.935  66.747  0.00  0.00    +0.000 A 
ATOM      7  C   UNL     1      61.179  61.993  67.518  0.00  0.00    +0.000 C 
ATOM      8  C   UNL     1      60.983  62.732  67.830  0.00  0.00    +0.000 C 
ATOM      9  O   UNL     1      60.696  62.790  68.601  0.00  0.00    +0.000 OA
ATOM     10  C   UNL     1      60.500  63.528  68.914  0.00  0.00    +0.000 A 
ATOM     11  C   UNL     1      60.212  63.586  69.685  0.00  0.00    +0.000 A 
ATOM     12  C   UNL     1      60.017  64.324  69.997  0.00  0.00    +0.000 A 
ATOM     13  C   UNL     1      60.109  65.004  69.539  0.00  0.00    +0.000 A 
ATOM     14  C   UNL     1      59.913  65.742  69.851  0.00  0.00    +0.000 C 
ATOM     15  C   UNL     1      59.626  65.801  70.622  0.00  0.00    +0.000 C 
ATOM     16  S   UNL     1      59.505  65.172  71.144  0.00  0.00    +0.000 S 
ATOM     17  C   UNL     1      59.213  65.481  71.851  0.00  0.00    +0.000 C 
ATOM     18  O   UNL     1      59.016  65.047  72.524  0.00  0.00    +0.000 OA
ATOM     19  N   UNL     1      59.153  66.299  71.767  0.00  0.00    +0.000 NA
ATOM     20  C   UNL     1      59.408  66.497  71.007  0.00  0.00    +0.000 C 
ATOM     21  O   UNL     1      59.440  67.257  70.689  0.00  0.00    +0.000 OA
ATOM     22  C   UNL     1      60.396  64.945  68.768  0.00  0.00    +0.000 A 
ATOM     23  C   UNL     1      60.592  64.208  68.455  0.00  0.00    +0.000 A 
ATOM     24  N   UNL     1      61.558  62.615  66.288  0.00  0.00    +0.000 NA
ATOM     25  C   UNL     1      61.846  62.557  65.517  0.00  0.00    +0.000 A 
ENDROOT
TORSDOF 0
ENDMDL
MODEL 4
REMARK VINA RESULT:   -11.776      3.502      4.900
REMARK INTER + INTRA:         -11.776
REMARK INTER:                 -11.776
REMARK INTRA:                   0.000
REMARK UNBOUND:                 0.000
ROOT
REMARK  Name = pioglitazone
REMARK                            x       y       z     vdW  Elec       q    Type
REMARK                         _______ _______ _______ _____ _____    ______ ____
ATOM      1  C   UNL     1      66.644  68.325  69.422  0.00  0.00    +0.000 C 
ATOM      2  C   UNL     1      66.634  68.106  70.218  0.00  0.00    +0.000 C 
ATOM      3  C   UNL     1      66.118  67.517  70.478  0.00  0.00    +0.000 A 
ATOM      4  C   UNL     1      66.108  67.299  71.273  0.00  0.00    +0.000 A 
ATOM      5  C   UNL     1      65.592  66.709  71.532  0.00  0.00    +0.000 A 
ATOM      6  C   UNL     1      65.087  66.338  70.996  0.00  0.00    +0.000 A 
ATOM      7  C   UNL     1      64.571  65.749  71.255  0.00  0.00    +0.000 C 
ATOM      8  C   UNL     1      64.066  65.378  70.718  0.00  0.00    +0.000 C 
ATOM      9  O   UNL     1      63.550  64.788  70.978  0.00  0.00    +0.000 OA
ATOM     10  C   UNL     1      63.044  64.417  70.442  0.00  0.00    +0.000 A 
ATOM     11  C   UNL     1      62.529  63.828  70.701  0.00  0.00    +0.000 A 
ATOM     12  C   UNL     1      62.023  63.457  70.164  0.00  0.00    +0.000 A 
ATOM     13  C   UNL     1      62.034  63.675  69.370  0.00  0.00    +0.000 A 
ATOM     14  C   UNL     1      61.528  63.304  68.833  0.00  0.00    +0.000 C 
ATOM     15  C   UNL     1      61.013  62.715  69.092  0.00  0.00    +0.000 C 
ATOM     16  S   UNL     1      60.941  62.440  69.867  0.00  0.00    +0.000 S 
ATOM     17  C   UNL     1      60.362  61.852  69.876  0.00  0.00    +0.000 C 
ATOM     18  O   UNL     1      60.113  61.427  70.537  0.00  0.00    +0.000 OA
ATOM     19  N   UNL     1      60.076  61.763  69.107  0.00  0.00    +0.000 NA
ATOM     20  C   UNL     1      60.478  62.297  68.623  0.00  0.00    +0.000 C 
ATOM     21  O   UNL     1      60.366  62.395  67.811  0.00  0.00    +0.000 OA
ATOM     22  C   UNL     1      62.549  64.264  69.110  0.00  0.00    +0.000 A 
ATOM     23  C   UNL     1      63.055  64.636  69.646  0.00  0.00    +0.000 A 
ATOM     24  N   UNL     1      65.097  66.557  70.200  0.00  0.00    +0.000 NA
ATOM     25  C   UNL     1      65.613  67.146  69.941  0.00  0.00    +0.000 A 
ENDROOT
TORSDOF 0
ENDMDL
MODEL 5
REMARK VINA RESULT:    -9.785      5.454      6.795
REMARK INTER + INTRA:          -9.785
REMARK INTER:                  -9.785
REMARK INTRA:                   0.000
REMARK UNBOUND:                 0.000
ROOT
REMARK  Name = pioglitazone
REMARK                            x       y       z     vdW  Elec       q    Type
REMARK                         _______ _______ _______ _____ _____    ______ ____
ATOM      1  C   UNL     1      58.526  65.114  73.222  0.00  0.00    +0.000 C 
ATOM      2  C   UNL     1      58.439  65.350  72.436  0.00  0.00    +0.000 C 
ATOM      3  C   UNL     1      59.097  65.599  72.006  0.00  0.00    +0.000 A 
ATOM      4  C   UNL     1      59.011  65.836  71.221  0.00  0.00    +0.000 A 
ATOM      5  C   UNL     1      59.669  66.085  70.790  0.00  0.00    +0.000 A 
ATOM      6  C   UNL     1      60.414  66.098  71.145  0.00  0.00    +0.000 A 
ATOM      7  C   UNL     1      61.072  66.347  70.714  0.00  0.00    +0.000 C 
ATOM      8  C   UNL     1      61.816  66.360  71.070  0.00  0.00    +0.000 C 
ATOM      9  O   UNL     1      62.474  66.609  70.639  0.00  0.00    +0.000 OA
ATOM     10  C   UNL     1      63.219  66.622  70.994  0.00  0.00    +0.000 A 
ATOM     11  C   UNL     1      63.877  66.871  70.563  0.00  0.00    +0.000 A 
ATOM     12  C   UNL     1      64.622  66.883  70.919  0.00  0.00    +0.000 A 
ATOM     13  C   UNL     1      64.708  66.647  71.704  0.00  0.00    +0.000 A 
ATOM     14  C   UNL     1      65.453  66.660  72.060  0.00  0.00    +0.000 C 
ATOM     15  C   UNL     1      66.111  66.909  71.629  0.00  0.00    +0.000 C 
ATOM     16  S   UNL     1      66.109  67.160  70.843  0.00  0.00    +0.000 S 
ATOM     17  C   UNL     1      66.884  67.357  70.637  0.00  0.00    +0.000 C 
ATOM     18  O   UNL     1      67.134  67.635  69.902  0.00  0.00    +0.000 OA
ATOM     19  N   UNL     1      67.364  67.228  71.296  0.00  0.00    +0.000 NA
ATOM     20  C   UNL     1      66.886  66.951  71.909  0.00  0.00    +0.000 C 
ATOM     21  O   UNL     1      67.139  66.751  72.669  0.00  0.00    +0.000 OA
ATOM     22  C   UNL     1      64.050  66.398  72.135  0.00  0.00    +0.000 A 
ATOM     23  C   UNL     1      63.305  66.385  71.780  0.00  0.00    +0.000 A 
ATOM     24  N   UNL     1      60.500  65.861  71.931  0.00  0.00    +0.000 NA
ATOM     25  C   UNL     1      59.842  65.612  72.361  0.00  0.00    +0.000 A 
ENDROOT
TORSDOF 0
ENDMDL
