MODEL 1
REMARK VINA RESULT:   -13.761      0.000      0.000
REMARK INTER + INTRA:         -13.761
REMARK INTER:                 -13.761
REMARK INTRA:                   0.000
REMARK UNBOUND:                 0.000
ROOT
REMARK  Name = pipamperone
REMARK                            x       y       z     vdW  Elec       q    Type
REMARK                         _______ _______ _______ _____ _____    ______ ____
ATOM      1  N   UNL     1      62.701  64.427  70.017  0.00  0.00    +0.000 NA
ATOM      2  C   UNL     1      62.010  64.265  70.438  0.00  0.00    +0.000 C 
ATOM      3  O   UNL     1      61.927  64.537  71.212  0.00  0.00    +0.000 OA
ATOM      4  C   UNL     1      61.404  63.833  70.085  0.00  0.00    +0.000 C 
ATOM      5  C   UNL     1      60.680  63.448  69.989  0.00  0.00    +0.000 C 
ATOM      6  C   UNL     1      60.503  63.075  69.274  0.00  0.00    +0.000 C 
ATOM      7  N   UNL     1      61.049  63.088  68.656  0.00  0.00    +0.000 NA
ATOM      8  C   UNL     1      60.871  62.715  67.941  0.00  0.00    +0.000 C 
ATOM      9  C   UNL     1      61.417  62.728  67.323  0.00  0.00    +0.000 C 
ATOM     10  C   UNL     1      61.239  62.355  66.608  0.00  0.00    +0.000 C 
ATOM     11  C   UNL     1      61.785  62.368  65.990  0.00  0.00    +0.000 C 
ATOM     12  O   UNL     1      62.509  62.753  66.086  0.00  0.00    +0.000 OA
ATOM     13  C   UNL     1      61.607  61.995  65.275  0.00  0.00    +0.000 A 
ATOM     14  C   UNL     1      60.884  61.610  65.179  0.00  0.00    +0.000 A 
ATOM     15  C   UNL     1      60.707  61.238  64.465  0.00  0.00    +0.000 A 
ATOM     16  C   UNL     1      61.252  61.250  63.846  0.00  0.00    +0.000 A 
ATOM     17  F   UNL     1      61.075  60.877  63.132  0.00  0.00    +0.000 F 
ATOM     18  C   UNL     1      61.976  61.635  63.942  0.00  0.00    +0.000 A 
ATOM     19  C   UNL     1      62.154  62.008  64.657  0.00  0.00    +0.000 A 
ATOM     20  C   UNL     1      61.772  63.473  68.752  0.00  0.00    +0.000 C 
ATOM     21  C   UNL     1      61.949  63.845  69.466  0.00  0.00    +0.000 C 
ATOM     22  N   UNL     1      61.068  63.970  70.825  0.00  0.00    +0.000 NA
ATOM     23  C   UNL     1      61.486  64.399  71.393  0.00  0.00    +0.000 C 
ATOM     24  C   UNL     1      61.151  64.537  72.135  0.00  0.00    +0.000 C 
ATOM     25  C   UNL     1      60.399  64.246  72.308  0.00  0.00    +0.000 C 
ATOM     26  C   UNL     1      59.981  63.818  71.740  0.00  0.00    +0.000 C 
ATOM     27  C   UNL     1      60.316  63.680  70.998  0.00  0.00    +0.000 C 
ENDROOT
TORSDOF 0
ENDMDL
MODEL 2
REMARK VINA RESULT:   -13.517      1.206      1.525
REMARK INTER + INTRA:         -13.517
REMARK INTER:                 -13.517
REMARK INTRA:                   0.000
REMARK UNBOUND:                 0.000
ROOT
REMARK  Name = pipamperone
REMARK                            x       y       z     vdW  Elec       q    Type
REMARK                         _______ _______ _______ _____ _____    ______ ____
ATOM      1  N   UNL     1      60.240  62.034  70.852  0.00  0.00    +0.000 NA
ATOM      2  C   UNL     1      60.185  62.846  70.989  0.00  0.00    +0.000 C 
ATOM      3  O   UNL     1      59.945  63.124  71.727  0.00  0.00    +0.000 OA
ATOM      4  C   UNL     1      60.369  63.379  70.388  0.00  0.00    +0.000 C 
ATOM      5  C   UNL     1      60.485  64.096  69.995  0.00  0.00    +0.000 C 
ATOM      6  C   UNL     1      60.736  64.100  69.209  0.00  0.00    +0.000 C 
ATOM      7  N   UNL     1      60.872  63.387  68.816  0.00  0.00    +0.000 NA
ATOM      8  C   UNL     1      61.123  63.391  68.030  0.00  0.00    +0.000 C 
ATOM      9  C   UNL     1      61.259  62.679  67.637  0.00  0.00    +0.000 C 
ATOM     10  C   UNL     1      61.510  62.683  66.850  0.00  0.00    +0.000 C 
ATOM     11  C   UNL     1      61.646  61.970  66.458  0.00  0.00    +0.000 C 
ATOM     12  O   UNL     1      61.530  61.254  66.850  0.00  0.00    +0.000 OA
ATOM     13  C   UNL     1      61.897  61.975  65.671  0.00  0.00    +0.000 A 
ATOM     14  C   UNL     1      62.013  62.691  65.279  0.00  0.00    +0.000 A 
ATOM     15  C   UNL     1      62.264  62.695  64.493  0.00  0.00    +0.000 A 
ATOM     16  C   UNL     1      62.400  61.983  64.099  0.00  0.00    +0.000 A 
ATOM     17  F   UNL     1      62.651  61.987  63.314  0.00  0.00    +0.000 F 
ATOM     18  C   UNL     1      62.284  61.266  64.492  0.00  0.00    +0.000 A 
ATOM     19  C   UNL     1      62.033  61.262  65.278  0.00  0.00    +0.000 A 
ATOM     20  C   UNL     1      60.756  62.671  69.209  0.00  0.00    +0.000 C 
ATOM     21  C   UNL     1      60.505  62.667  69.994  0.00  0.00    +0.000 C 
ATOM     22  N   UNL     1      60.170  63.907  70.989  0.00  0.00    +0.000 NA
ATOM     23  C   UNL     1      59.938  63.621  71.727  0.00  0.00    +0.000 C 
ATOM     24  C   UNL     1      59.738  64.148  72.330  0.00  0.00    +0.000 C 
ATOM     25  C   UNL     1      59.770  64.961  72.194  0.00  0.00    +0.000 C 
ATOM     26  C   UNL     1      60.002  65.247  71.456  0.00  0.00    +0.000 C 
ATOM     27  C   UNL     1      60.202  64.720  70.853  0.00  0.00    +0.000 C 
ENDROOT
TORSDOF 0
ENDMDL
MODEL 3
REMARK VINA RESULT:   -13.300      2.464      6.237
REMARK INTER + INTRA:         -13.300
REMARK INTER:                 -13.300
REMARK INTRA:                   0.000
REMARK UNBOUND:                 0.000
ROOT
REMARK  Name = pipamperone
REMARK                            x       y       z     vdW  Elec       q    Type
REMARK                         _______ _______ _______ _____ _____    ______ ____
ATOM      1  N   UNL     1      59.311  61.991  66.387  0.00  0.00    +0.000 NA
ATOM      2  C   UNL     1      60.039  61.942  66.001  0.00  0.00    +0.000 C 
ATOM      3  O   UNL     1      60.082  61.619  65.244  0.00  0.00    +0.000 OA
ATOM      4  C   UNL     1      60.722  62.216  66.372  0.00  0.00    +0.000 C 
ATOM      5  C   UNL     1      61.517  62.400  66.495  0.00  0.00    +0.000 C 
ATOM      6  C   UNL     1      61.755  62.748  67.205  0.00  0.00    +0.000 C 
ATOM      7  N   UNL     1      61.198  62.912  67.791  0.00  0.00    +0.000 NA
ATOM      8  C   UNL     1      61.436  63.261  68.500  0.00  0.00    +0.000 C 
ATOM      9  C   UNL     1      60.878  63.425  69.086  0.00  0.00    +0.000 C 
ATOM     10  C   UNL     1      61.116  63.773  69.795  0.00  0.00    +0.000 C 
ATOM     11  C   UNL     1      60.559  63.937  70.381  0.00  0.00    +0.000 C 
ATOM     12  O   UNL     1      59.764  63.753  70.258  0.00  0.00    +0.000 OA
ATOM     13  C   UNL     1      60.797  64.286  71.091  0.00  0.00    +0.000 A 
ATOM     14  C   UNL     1      61.592  64.470  71.214  0.00  0.00    +0.000 A 
ATOM     15  C   UNL     1      61.829  64.817  71.922  0.00  0.00    +0.000 A 
ATOM     16  C   UNL     1      61.272  64.982  72.509  0.00  0.00    +0.000 A 
ATOM     17  F   UNL     1      61.510  65.330  73.218  0.00  0.00    +0.000 F 
ATOM     18  C   UNL     1      60.478  64.798  72.386  0.00  0.00    +0.000 A 
ATOM     19  C   UNL     1      60.240  64.450  71.676  0.00  0.00    +0.000 A 
ATOM     20  C   UNL     1      60.403  62.728  67.667  0.00  0.00    +0.000 C 
ATOM     21  C   UNL     1      60.165  62.381  66.959  0.00  0.00    +0.000 C 
ATOM     22  N   UNL     1      61.042  61.957  65.658  0.00  0.00    +0.000 NA
ATOM     23  C   UNL     1      60.552  61.626  65.083  0.00  0.00    +0.000 C 
ATOM     24  C   UNL     1      60.871  61.366  64.368  0.00  0.00    +0.000 C 
ATOM     25  C   UNL     1      61.681  61.438  64.228  0.00  0.00    +0.000 C 
ATOM     26  C   UNL     1      62.171  61.769  64.802  0.00  0.00    +0.000 C 
ATOM     27  C   UNL     1      61.852  62.028  65.518  0.00  0.00    +0.000 C 
ENDROOT
TORSDOF 0
ENDMDL
MODEL 4
REMARK VINA RESULT:   -12.635      2.040      2.981
REMARK INTER + INTRA:         -12.635
REMARK INTER:                 -12.635
REMARK INTRA:                   0.000
REMARK UNBOUND:                 0.000
ROOT
REMARK  Name = pipamperone
REMARK                            x       y       z     vdW  Elec       q    Type
REMARK                         _______ _______ _______ _____ _____    ______ ____
ATOM      1  N   UNL     1      61.824  65.713  71.467  0.00  0.00    +0.000 NA
ATOM      2  C   UNL     1      62.635  65.773  71.330  0.00  0.00    +0.000 C 
ATOM      3  O   UNL     1      63.113  66.190  71.856  0.00  0.00    +0.000 OA
ATOM      4  C   UNL     1      62.969  65.414  70.666  0.00  0.00    +0.000 C 
ATOM      5  C   UNL     1      63.537  65.171  70.119  0.00  0.00    +0.000 C 
ATOM      6  C   UNL     1      63.314  64.719  69.466  0.00  0.00    +0.000 C 
ATOM      7  N   UNL     1      62.523  64.510  69.360  0.00  0.00    +0.000 NA
ATOM      8  C   UNL     1      62.300  64.057  68.706  0.00  0.00    +0.000 C 
ATOM      9  C   UNL     1      61.509  63.848  68.601  0.00  0.00    +0.000 C 
ATOM     10  C   UNL     1      61.286  63.396  67.947  0.00  0.00    +0.000 C 
ATOM     11  C   UNL     1      60.495  63.187  67.841  0.00  0.00    +0.000 C 
ATOM     12  O   UNL     1      59.927  63.430  68.388  0.00  0.00    +0.000 OA
ATOM     13  C   UNL     1      60.272  62.734  67.188  0.00  0.00    +0.000 A 
ATOM     14  C   UNL     1      60.840  62.491  66.641  0.00  0.00    +0.000 A 
ATOM     15  C   UNL     1      60.617  62.040  65.988  0.00  0.00    +0.000 A 
ATOM     16  C   UNL     1      59.826  61.830  65.882  0.00  0.00    +0.000 A 
ATOM     17  F   UNL     1      59.603  61.378  65.229  0.00  0.00    +0.000 F 
ATOM     18  C   UNL     1      59.258  62.073  66.428  0.00  0.00    +0.000 A 
ATOM     19  C   UNL     1      59.481  62.525  67.082  0.00  0.00    +0.000 A 
ATOM     20  C   UNL     1      61.955  64.752  69.907  0.00  0.00    +0.000 C 
ATOM     21  C   UNL     1      62.178  65.204  70.559  0.00  0.00    +0.000 C 
ATOM     22  N   UNL     1      63.644  65.747  71.002  0.00  0.00    +0.000 NA
ATOM     23  C   UNL     1      63.585  66.179  71.703  0.00  0.00    +0.000 C 
ATOM     24  C   UNL     1      64.260  66.513  72.040  0.00  0.00    +0.000 C 
ATOM     25  C   UNL     1      64.994  66.415  71.676  0.00  0.00    +0.000 C 
ATOM     26  C   UNL     1      65.053  65.984  70.975  0.00  0.00    +0.000 C 
ATOM     27  C   UNL     1      64.378  65.650  70.638  0.00  0.00    +0.000 C 
ENDROOT
TORSDOF 0
ENDMDL
MODEL 5
REMARK VINA RESULT:   -12.482      3.843      5.838
REMARK INTER + INTRA:         -12.482
REMARK INTER:                 -12.482
REMARK INTRA:                   0.000
REMARK UNBOUND:                 0.000
ROOT
REMARK  Name = pipamperone
REMARK                            x       y       z     vdW  Elec       q    Type
REMARK                         _______ _______ _______ _____ _____    ______ ____
ATOM      1  N   UNL     1      61.653  63.271  72.423  0.00  0.00    +0.000 NA
ATOM      2  C   UNL     1      61.380  62.954  71.712  0.00  0.00    +0.000 C 
ATOM      3  O   UNL     1      60.797  62.372  71.717  0.00  0.00    +0.000 OA
ATOM      4  C   UNL     1      61.691  63.220  70.996  0.00  0.00    +0.000 C 
ATOM      5  C   UNL     1      61.813  63.293  70.183  0.00  0.00    +0.000 C 
ATOM      6  C   UNL     1      62.370  63.831  69.896  0.00  0.00    +0.000 C 
ATOM      7  N   UNL     1      62.803  64.296  70.422  0.00  0.00    +0.000 NA
ATOM      8  C   UNL     1      63.360  64.834  70.134  0.00  0.00    +0.000 C 
ATOM      9  C   UNL     1      63.793  65.299  70.660  0.00  0.00    +0.000 C 
ATOM     10  C   UNL     1      64.349  65.837  70.373  0.00  0.00    +0.000 C 
ATOM     11  C   UNL     1      64.782  66.302  70.899  0.00  0.00    +0.000 C 
ATOM     12  O   UNL     1      64.660  66.229  71.712  0.00  0.00    +0.000 OA
ATOM     13  C   UNL     1      65.339  66.840  70.612  0.00  0.00    +0.000 A 
ATOM     14  C   UNL     1      65.461  66.912  69.799  0.00  0.00    +0.000 A 
ATOM     15  C   UNL     1      66.017  67.449  69.512  0.00  0.00    +0.000 A 
ATOM     16  C   UNL     1      66.451  67.915  70.038  0.00  0.00    +0.000 A 
ATOM     17  F   UNL     1      67.007  68.452  69.751  0.00  0.00    +0.000 F 
ATOM     18  C   UNL     1      66.328  67.843  70.850  0.00  0.00    +0.000 A 
ATOM     19  C   UNL     1      65.772  67.304  71.138  0.00  0.00    +0.000 A 
ATOM     20  C   UNL     1      62.680  64.223  71.234  0.00  0.00    +0.000 C 
ATOM     21  C   UNL     1      62.125  63.686  71.521  0.00  0.00    +0.000 C 
ATOM     22  N   UNL     1      61.150  62.663  70.718  0.00  0.00    +0.000 NA
ATOM     23  C   UNL     1      60.689  62.236  71.252  0.00  0.00    +0.000 C 
ATOM     24  C   UNL     1      60.147  61.678  70.976  0.00  0.00    +0.000 C 
ATOM     25  C   UNL     1      60.067  61.548  70.165  0.00  0.00    +0.000 C 
ATOM     26  C   UNL     1      60.528  61.975  69.631  0.00  0.00    +0.000 C 
ATOM     27  C   UNL     1      61.070  62.533  69.908  0.00  0.00    +0.000 C 
ENDROOT
TORSDOF 0
ENDMDL
MODEL 6
REMARK VINA RESULT:   -11.999      3.654      5.552
REMARK INTER + INTRA:         -11.999
REMARK INTER:                 -11.999
REMARK INTRA:                   0.000
REMARK UNBOUND:                 0.000
ROOT
REMARK  Name = pipamperone
REMARK                            x       y       z     vdW  Elec       q    Type
REMARK                         _______ _______ _______ _____ _____    ______ ____
ATOM      1  N   UNL     1      65.600  66.129  72.143  0.00  0.00    +0.000 NA
ATOM      2  C   UNL     1      65.724  66.534  71.436  0.00  0.00    +0.000 C 
ATOM      3  O   UNL     1      66.305  67.117  71.391  0.00  0.00    +0.000 OA
ATOM      4  C   UNL     1      65.267  66.356  70.773  0.00  0.00    +0.000 C 
ATOM      5  C   UNL     1      64.976  66.384  70.001  0.00  0.00    +0.000 C 
ATOM      6  C   UNL     1      64.363  65.880  69.772  0.00  0.00    +0.000 C 
ATOM      7  N   UNL     1      64.042  65.349  70.316  0.00  0.00    +0.000 NA
ATOM      8  C   UNL     1      63.429  64.845  70.087  0.00  0.00    +0.000 C 
ATOM      9  C   UNL     1      63.108  64.314  70.630  0.00  0.00    +0.000 C 
ATOM     10  C   UNL     1      62.496  63.810  70.401  0.00  0.00    +0.000 C 
ATOM     11  C   UNL     1      62.175  63.279  70.944  0.00  0.00    +0.000 C 
ATOM     12  O   UNL     1      62.465  63.251  71.716  0.00  0.00    +0.000 OA
ATOM     13  C   UNL     1      61.562  62.775  70.715  0.00  0.00    +0.000 A 
ATOM     14  C   UNL     1      61.271  62.803  69.944  0.00  0.00    +0.000 A 
ATOM     15  C   UNL     1      60.659  62.300  69.715  0.00  0.00    +0.000 A 
ATOM     16  C   UNL     1      60.337  61.768  70.258  0.00  0.00    +0.000 A 
ATOM     17  F   UNL     1      59.726  61.264  70.030  0.00  0.00    +0.000 F 
ATOM     18  C   UNL     1      60.628  61.740  71.029  0.00  0.00    +0.000 A 
ATOM     19  C   UNL     1      61.241  62.244  71.258  0.00  0.00    +0.000 A 
ATOM     20  C   UNL     1      64.333  65.321  71.087  0.00  0.00    +0.000 C 
ATOM     21  C   UNL     1      64.945  65.824  71.315  0.00  0.00    +0.000 C 
ATOM     22  N   UNL     1      65.746  66.949  70.460  0.00  0.00    +0.000 NA
ATOM     23  C   UNL     1      66.316  67.311  70.934  0.00  0.00    +0.000 C 
ATOM     24  C   UNL     1      66.796  67.905  70.622  0.00  0.00    +0.000 C 
ATOM     25  C   UNL     1      66.708  68.136  69.835  0.00  0.00    +0.000 C 
ATOM     26  C   UNL     1      66.139  67.773  69.360  0.00  0.00    +0.000 C 
ATOM     27  C   UNL     1      65.658  67.179  69.673  0.00  0.00    +0.000 C 
ENDROOT
TORSDOF 0
ENDMDL
