MODEL 1
REMARK VINA RESULT:   -13.592      0.000      0.000
REMARK INTER + INTRA:         -13.592
REMARK INTER:                 -13.592
REMARK INTRA:                   0.000
REMARK UNBOUND:                 0.000
ROOT
REMARK  Name = piperacetazine
REMARK                            x       y       z     vdW  Elec       q    Type
REMARK                         _______ _______ _______ _____ _____    ______ ____
ATOM      1  C   UNL     1      62.515  66.366  72.999  0.00  0.00    +0.000 C 
ATOM      2  C   UNL     1      62.590  65.847  72.362  0.00  0.00    +0.000 C 
ATOM      3  O   UNL     1      63.186  65.962  71.805  0.00  0.00    +0.000 OA
ATOM      4  C   UNL     1      62.068  65.214  72.283  0.00  0.00    +0.000 A 
ATOM      5  C   UNL     1      61.471  65.099  72.841  0.00  0.00    +0.000 A 
ATOM      6  C   UNL     1      60.949  64.465  72.762  0.00  0.00    +0.000 A 
ATOM      7  C   UNL     1      61.023  63.946  72.125  0.00  0.00    +0.000 A 
ATOM      8  S   UNL     1      60.502  63.313  72.046  0.00  0.00    +0.000 S 
ATOM      9  C   UNL     1      60.576  62.793  71.409  0.00  0.00    +0.000 A 
ATOM     10  C   UNL     1      60.054  62.160  71.329  0.00  0.00    +0.000 A 
ATOM     11  C   UNL     1      60.128  61.640  70.692  0.00  0.00    +0.000 A 
ATOM     12  C   UNL     1      60.725  61.755  70.135  0.00  0.00    +0.000 A 
ATOM     13  C   UNL     1      61.248  62.390  70.214  0.00  0.00    +0.000 A 
ATOM     14  C   UNL     1      61.173  62.908  70.851  0.00  0.00    +0.000 A 
ATOM     15  N   UNL     1      61.695  63.543  70.930  0.00  0.00    +0.000 N 
ATOM     16  C   UNL     1      62.291  63.657  70.373  0.00  0.00    +0.000 C 
ATOM     17  C   UNL     1      62.814  64.291  70.451  0.00  0.00    +0.000 C 
ATOM     18  C   UNL     1      63.410  64.406  69.893  0.00  0.00    +0.000 C 
ATOM     19  N   UNL     1      63.932  65.040  69.973  0.00  0.00    +0.000 NA
ATOM     20  C   UNL     1      64.530  65.155  69.414  0.00  0.00    +0.000 C 
ATOM     21  C   UNL     1      65.051  65.789  69.494  0.00  0.00    +0.000 C 
ATOM     22  C   UNL     1      64.977  66.307  70.130  0.00  0.00    +0.000 C 
ATOM     23  C   UNL     1      65.499  66.941  70.210  0.00  0.00    +0.000 C 
ATOM     24  C   UNL     1      65.425  67.461  70.847  0.00  0.00    +0.000 C 
ATOM     25  O   UNL     1      65.946  68.094  70.926  0.00  0.00    +0.000 OA
ATOM     26  C   UNL     1      64.379  66.192  70.689  0.00  0.00    +0.000 C 
ATOM     27  C   UNL     1      63.858  65.559  70.609  0.00  0.00    +0.000 C 
ATOM     28  C   UNL     1      61.620  64.061  71.567  0.00  0.00    +0.000 A 
ATOM     29  C   UNL     1      62.143  64.695  71.646  0.00  0.00    +0.000 A 
ENDROOT
TORSDOF 0
ENDMDL
MODEL 2
REMARK VINA RESULT:   -13.224      3.488      4.285
REMARK INTER + INTRA:         -13.224
REMARK INTER:                 -13.224
REMARK INTRA:                   0.000
REMARK UNBOUND:                 0.000
ROOT
REMARK  Name = piperacetazine
REMARK                            x       y       z     vdW  Elec       q    Type
REMARK                         _______ _______ _______ _____ _____    ______ ____
ATOM      1  C   UNL     1      60.119  63.256  72.106  0.00  0.00    +0.000 C 
ATOM      2  C   UNL     1      60.120  63.621  71.365  0.00  0.00    +0.000 C 
ATOM      3  O   UNL     1      59.929  64.419  71.298  0.00  0.00    +0.000 OA
ATOM      4  C   UNL     1      60.313  63.184  70.692  0.00  0.00    +0.000 A 
ATOM      5  C   UNL     1      60.505  62.385  70.759  0.00  0.00    +0.000 A 
ATOM      6  C   UNL     1      60.698  61.950  70.086  0.00  0.00    +0.000 A 
ATOM      7  C   UNL     1      60.700  62.313  69.345  0.00  0.00    +0.000 A 
ATOM      8  S   UNL     1      60.893  61.878  68.672  0.00  0.00    +0.000 S 
ATOM      9  C   UNL     1      60.894  62.241  67.931  0.00  0.00    +0.000 A 
ATOM     10  C   UNL     1      61.087  61.806  67.258  0.00  0.00    +0.000 A 
ATOM     11  C   UNL     1      61.088  62.169  66.517  0.00  0.00    +0.000 A 
ATOM     12  C   UNL     1      60.897  62.969  66.450  0.00  0.00    +0.000 A 
ATOM     13  C   UNL     1      60.703  63.405  67.124  0.00  0.00    +0.000 A 
ATOM     14  C   UNL     1      60.702  63.041  67.864  0.00  0.00    +0.000 A 
ATOM     15  N   UNL     1      60.509  63.477  68.538  0.00  0.00    +0.000 N 
ATOM     16  C   UNL     1      60.317  64.276  68.471  0.00  0.00    +0.000 C 
ATOM     17  C   UNL     1      60.124  64.712  69.144  0.00  0.00    +0.000 C 
ATOM     18  C   UNL     1      59.932  65.511  69.077  0.00  0.00    +0.000 C 
ATOM     19  N   UNL     1      59.739  65.947  69.751  0.00  0.00    +0.000 NA
ATOM     20  C   UNL     1      59.547  66.747  69.684  0.00  0.00    +0.000 C 
ATOM     21  C   UNL     1      59.354  67.182  70.357  0.00  0.00    +0.000 C 
ATOM     22  C   UNL     1      59.353  66.819  71.096  0.00  0.00    +0.000 C 
ATOM     23  C   UNL     1      59.160  67.254  71.770  0.00  0.00    +0.000 C 
ATOM     24  C   UNL     1      59.158  66.891  72.511  0.00  0.00    +0.000 C 
ATOM     25  O   UNL     1      58.966  67.326  73.184  0.00  0.00    +0.000 OA
ATOM     26  C   UNL     1      59.545  66.018  71.164  0.00  0.00    +0.000 C 
ATOM     27  C   UNL     1      59.738  65.583  70.491  0.00  0.00    +0.000 C 
ATOM     28  C   UNL     1      60.508  63.113  69.278  0.00  0.00    +0.000 A 
ATOM     29  C   UNL     1      60.315  63.549  69.952  0.00  0.00    +0.000 A 
ENDROOT
TORSDOF 0
ENDMDL
MODEL 3
REMARK VINA RESULT:   -12.745      2.102      3.334
REMARK INTER + INTRA:         -12.745
REMARK INTER:                 -12.745
REMARK INTRA:                   0.000
REMARK UNBOUND:                 0.000
ROOT
REMARK  Name = piperacetazine
REMARK                            x       y       z     vdW  Elec       q    Type
REMARK                         _______ _______ _______ _____ _____    ______ ____
ATOM      1  C   UNL     1      62.546  63.929  71.415  0.00  0.00    +0.000 C 
ATOM      2  C   UNL     1      62.220  64.635  71.693  0.00  0.00    +0.000 C 
ATOM      3  O   UNL     1      62.700  65.298  71.794  0.00  0.00    +0.000 OA
ATOM      4  C   UNL     1      61.415  64.677  71.867  0.00  0.00    +0.000 A 
ATOM      5  C   UNL     1      60.936  64.014  71.765  0.00  0.00    +0.000 A 
ATOM      6  C   UNL     1      60.131  64.056  71.940  0.00  0.00    +0.000 A 
ATOM      7  C   UNL     1      59.805  64.762  72.217  0.00  0.00    +0.000 A 
ATOM      8  S   UNL     1      59.001  64.804  72.392  0.00  0.00    +0.000 S 
ATOM      9  C   UNL     1      58.675  65.510  72.669  0.00  0.00    +0.000 A 
ATOM     10  C   UNL     1      57.870  65.553  72.843  0.00  0.00    +0.000 A 
ATOM     11  C   UNL     1      57.544  66.258  73.120  0.00  0.00    +0.000 A 
ATOM     12  C   UNL     1      58.024  66.922  73.222  0.00  0.00    +0.000 A 
ATOM     13  C   UNL     1      58.830  66.879  73.047  0.00  0.00    +0.000 A 
ATOM     14  C   UNL     1      59.154  66.173  72.771  0.00  0.00    +0.000 A 
ATOM     15  N   UNL     1      59.960  66.131  72.596  0.00  0.00    +0.000 N 
ATOM     16  C   UNL     1      60.439  66.794  72.697  0.00  0.00    +0.000 C 
ATOM     17  C   UNL     1      61.244  66.752  72.523  0.00  0.00    +0.000 C 
ATOM     18  C   UNL     1      61.724  67.415  72.625  0.00  0.00    +0.000 C 
ATOM     19  N   UNL     1      62.529  67.372  72.450  0.00  0.00    +0.000 NA
ATOM     20  C   UNL     1      63.010  68.036  72.552  0.00  0.00    +0.000 C 
ATOM     21  C   UNL     1      63.814  67.994  72.377  0.00  0.00    +0.000 C 
ATOM     22  C   UNL     1      64.140  67.289  72.100  0.00  0.00    +0.000 C 
ATOM     23  C   UNL     1      64.945  67.245  71.925  0.00  0.00    +0.000 C 
ATOM     24  C   UNL     1      65.271  66.540  71.648  0.00  0.00    +0.000 C 
ATOM     25  O   UNL     1      66.075  66.497  71.474  0.00  0.00    +0.000 OA
ATOM     26  C   UNL     1      63.659  66.624  71.998  0.00  0.00    +0.000 C 
ATOM     27  C   UNL     1      62.855  66.667  72.173  0.00  0.00    +0.000 C 
ATOM     28  C   UNL     1      60.285  65.425  72.319  0.00  0.00    +0.000 A 
ATOM     29  C   UNL     1      61.091  65.383  72.144  0.00  0.00    +0.000 A 
ENDROOT
TORSDOF 0
ENDMDL
MODEL 4
REMARK VINA RESULT:   -12.650      2.130      5.108
REMARK INTER + INTRA:         -12.650
REMARK INTER:                 -12.650
REMARK INTRA:                   0.000
REMARK UNBOUND:                 0.000
ROOT
REMARK  Name = piperacetazine
REMARK                            x       y       z     vdW  Elec       q    Type
REMARK                         _______ _______ _______ _____ _____    ______ ____
ATOM      1  C   UNL     1      61.023  63.543  70.852  0.00  0.00    +0.000 C 
ATOM      2  C   UNL     1      61.292  64.259  71.164  0.00  0.00    +0.000 C 
ATOM      3  O   UNL     1      60.781  64.736  71.600  0.00  0.00    +0.000 OA
ATOM      4  C   UNL     1      62.071  64.496  71.038  0.00  0.00    +0.000 A 
ATOM      5  C   UNL     1      62.583  64.018  70.601  0.00  0.00    +0.000 A 
ATOM      6  C   UNL     1      63.362  64.256  70.476  0.00  0.00    +0.000 A 
ATOM      7  C   UNL     1      63.631  64.971  70.787  0.00  0.00    +0.000 A 
ATOM      8  S   UNL     1      64.411  65.209  70.661  0.00  0.00    +0.000 S 
ATOM      9  C   UNL     1      64.680  65.924  70.972  0.00  0.00    +0.000 A 
ATOM     10  C   UNL     1      65.459  66.162  70.846  0.00  0.00    +0.000 A 
ATOM     11  C   UNL     1      65.729  66.877  71.157  0.00  0.00    +0.000 A 
ATOM     12  C   UNL     1      65.217  67.355  71.594  0.00  0.00    +0.000 A 
ATOM     13  C   UNL     1      64.436  67.117  71.720  0.00  0.00    +0.000 A 
ATOM     14  C   UNL     1      64.169  66.402  71.409  0.00  0.00    +0.000 A 
ATOM     15  N   UNL     1      63.388  66.164  71.535  0.00  0.00    +0.000 N 
ATOM     16  C   UNL     1      62.877  66.642  71.971  0.00  0.00    +0.000 C 
ATOM     17  C   UNL     1      62.097  66.405  72.097  0.00  0.00    +0.000 C 
ATOM     18  C   UNL     1      61.586  66.882  72.534  0.00  0.00    +0.000 C 
ATOM     19  N   UNL     1      60.806  66.644  72.660  0.00  0.00    +0.000 NA
ATOM     20  C   UNL     1      60.294  67.122  73.097  0.00  0.00    +0.000 C 
ATOM     21  C   UNL     1      59.514  66.885  73.222  0.00  0.00    +0.000 C 
ATOM     22  C   UNL     1      59.246  66.170  72.912  0.00  0.00    +0.000 C 
ATOM     23  C   UNL     1      58.466  65.932  73.037  0.00  0.00    +0.000 C 
ATOM     24  C   UNL     1      58.197  65.216  72.726  0.00  0.00    +0.000 C 
ATOM     25  O   UNL     1      57.417  64.979  72.852  0.00  0.00    +0.000 OA
ATOM     26  C   UNL     1      59.758  65.692  72.474  0.00  0.00    +0.000 C 
ATOM     27  C   UNL     1      60.537  65.929  72.349  0.00  0.00    +0.000 C 
ATOM     28  C   UNL     1      63.120  65.449  71.223  0.00  0.00    +0.000 A 
ATOM     29  C   UNL     1      62.339  65.211  71.349  0.00  0.00    +0.000 A 
ENDROOT
TORSDOF 0
ENDMDL
MODEL 5
REMARK VINA RESULT:   -12.601      2.025      5.177
REMARK INTER + INTRA:         -12.601
REMARK INTER:                 -12.601
REMARK INTRA:                   0.000
REMARK UNBOUND:                 0.000
ROOT
REMARK  Name = piperacetazine
REMARK                            x       y       z     vdW  Elec       q    Type
REMARK                         _______ _______ _______ _____ _____    ______ ____
ATOM      1  C   UNL     1      63.798  64.024  70.190  0.00  0.00    +0.000 C 
ATOM      2  C   UNL     1      63.290  64.461  70.672  0.00  0.00    +0.000 C 
ATOM      3  O   UNL     1      62.553  64.156  70.879  0.00  0.00    +0.000 OA
ATOM      4  C   UNL     1      63.522  65.204  70.947  0.00  0.00    +0.000 A 
ATOM      5  C   UNL     1      64.259  65.509  70.741  0.00  0.00    +0.000 A 
ATOM      6  C   UNL     1      64.490  66.251  71.016  0.00  0.00    +0.000 A 
ATOM      7  C   UNL     1      63.983  66.689  71.498  0.00  0.00    +0.000 A 
ATOM      8  S   UNL     1      64.214  67.431  71.774  0.00  0.00    +0.000 S 
ATOM      9  C   UNL     1      63.707  67.869  72.256  0.00  0.00    +0.000 A 
ATOM     10  C   UNL     1      63.938  68.611  72.531  0.00  0.00    +0.000 A 
ATOM     11  C   UNL     1      63.431  69.048  73.014  0.00  0.00    +0.000 A 
ATOM     12  C   UNL     1      62.693  68.743  73.220  0.00  0.00    +0.000 A 
ATOM     13  C   UNL     1      62.462  67.999  72.945  0.00  0.00    +0.000 A 
ATOM     14  C   UNL     1      62.969  67.563  72.463  0.00  0.00    +0.000 A 
ATOM     15  N   UNL     1      62.738  66.820  72.187  0.00  0.00    +0.000 N 
ATOM     16  C   UNL     1      62.001  66.515  72.394  0.00  0.00    +0.000 C 
ATOM     17  C   UNL     1      61.770  65.772  72.119  0.00  0.00    +0.000 C 
ATOM     18  C   UNL     1      61.032  65.467  72.325  0.00  0.00    +0.000 C 
ATOM     19  N   UNL     1      60.801  64.724  72.050  0.00  0.00    +0.000 NA
ATOM     20  C   UNL     1      60.063  64.418  72.257  0.00  0.00    +0.000 C 
ATOM     21  C   UNL     1      59.832  63.676  71.981  0.00  0.00    +0.000 C 
ATOM     22  C   UNL     1      60.339  63.239  71.499  0.00  0.00    +0.000 C 
ATOM     23  C   UNL     1      60.108  62.496  71.223  0.00  0.00    +0.000 C 
ATOM     24  C   UNL     1      60.615  62.059  70.741  0.00  0.00    +0.000 C 
ATOM     25  O   UNL     1      60.384  61.317  70.466  0.00  0.00    +0.000 OA
ATOM     26  C   UNL     1      61.077  63.545  71.292  0.00  0.00    +0.000 C 
ATOM     27  C   UNL     1      61.308  64.287  71.568  0.00  0.00    +0.000 C 
ATOM     28  C   UNL     1      63.245  66.383  71.705  0.00  0.00    +0.000 A 
ATOM     29  C   UNL     1      63.014  65.640  71.429  0.00  0.00    +0.000 A 
ENDROOT
TORSDOF 0
ENDMDL
MODEL 6
REMARK VINA RESULT:   -12.365      1.705      4.741
REMARK INTER + INTRA:         -12.365
REMARK INTER:                 -12.365
REMARK INTRA:                   0.000
REMARK UNBOUND:                 0.000
ROOT
REMARK  Name = piperacetazine
REMARK                            x       y       z     vdW  Elec       q    Type
REMARK                         _______ _______ _______ _____ _____    ______ ____
ATOM      1  C   UNL     1      61.630  65.593  73.147  0.00  0.00    +0.000 C 
ATOM      2  C   UNL     1      62.054  65.493  72.445  0.00  0.00    +0.000 C 
ATOM      3  O   UNL     1      61.828  64.911  71.907  0.00  0.00    +0.000 OA
ATOM      4  C   UNL     1      62.703  65.976  72.284  0.00  0.00    +0.000 A 
ATOM      5  C   UNL     1      62.929  66.558  72.823  0.00  0.00    +0.000 A 
ATOM      6  C   UNL     1      63.578  67.040  72.661  0.00  0.00    +0.000 A 
ATOM      7  C   UNL     1      64.001  66.940  71.960  0.00  0.00    +0.000 A 
ATOM      8  S   UNL     1      64.650  67.422  71.798  0.00  0.00    +0.000 S 
ATOM      9  C   UNL     1      65.074  67.323  71.097  0.00  0.00    +0.000 A 
ATOM     10  C   UNL     1      65.723  67.805  70.935  0.00  0.00    +0.000 A 
ATOM     11  C   UNL     1      66.147  67.706  70.233  0.00  0.00    +0.000 A 
ATOM     12  C   UNL     1      65.921  67.124  69.694  0.00  0.00    +0.000 A 
ATOM     13  C   UNL     1      65.271  66.641  69.856  0.00  0.00    +0.000 A 
ATOM     14  C   UNL     1      64.848  66.741  70.558  0.00  0.00    +0.000 A 
ATOM     15  N   UNL     1      64.198  66.258  70.720  0.00  0.00    +0.000 N 
ATOM     16  C   UNL     1      63.972  65.676  70.181  0.00  0.00    +0.000 C 
ATOM     17  C   UNL     1      63.323  65.194  70.343  0.00  0.00    +0.000 C 
ATOM     18  C   UNL     1      63.097  64.612  69.804  0.00  0.00    +0.000 C 
ATOM     19  N   UNL     1      62.448  64.129  69.966  0.00  0.00    +0.000 NA
ATOM     20  C   UNL     1      62.221  63.546  69.427  0.00  0.00    +0.000 C 
ATOM     21  C   UNL     1      61.573  63.064  69.589  0.00  0.00    +0.000 C 
ATOM     22  C   UNL     1      61.150  63.164  70.289  0.00  0.00    +0.000 C 
ATOM     23  C   UNL     1      60.500  62.682  70.452  0.00  0.00    +0.000 C 
ATOM     24  C   UNL     1      60.076  62.781  71.153  0.00  0.00    +0.000 C 
ATOM     25  O   UNL     1      59.427  62.299  71.315  0.00  0.00    +0.000 OA
ATOM     26  C   UNL     1      61.376  63.747  70.829  0.00  0.00    +0.000 C 
ATOM     27  C   UNL     1      62.025  64.229  70.667  0.00  0.00    +0.000 C 
ATOM     28  C   UNL     1      63.775  66.358  71.421  0.00  0.00    +0.000 A 
ATOM     29  C   UNL     1      63.126  65.875  71.583  0.00  0.00    +0.000 A 
ENDROOT
TORSDOF 0
ENDMDL
MODEL 7
REMARK VINA RESULT:   -12.079      2.131      2.423
REMARK INTER + INTRA:         -12.079
REMARK INTER:                 -12.079
REMARK INTRA:                   0.000
REMARK UNBOUND:                 0.000
ROOT
REMARK  Name = piperacetazine
REMARK                            x       y       z     vdW  Elec       q    Type
REMARK                         _______ _______ _______ _____ _____    ______ ____
ATOM      1  C   UNL     1      60.790  66.821  70.680  0.00  0.00    +0.000 C 
ATOM      2  C   UNL     1      61.237  66.214  70.343  0.00  0.00    +0.000 C 
ATOM      3  O   UNL     1      62.045  66.164  70.494  0.00  0.00    +0.000 OA
ATOM      4  C   UNL     1      60.873  65.657  69.855  0.00  0.00    +0.000 A 
ATOM      5  C   UNL     1      60.063  65.707  69.704  0.00  0.00    +0.000 A 
ATOM      6  C   UNL     1      59.700  65.150  69.217  0.00  0.00    +0.000 A 
ATOM      7  C   UNL     1      60.146  64.542  68.880  0.00  0.00    +0.000 A 
ATOM      8  S   UNL     1      59.783  63.985  68.392  0.00  0.00    +0.000 S 
ATOM      9  C   UNL     1      60.228  63.378  68.056  0.00  0.00    +0.000 A 
ATOM     10  C   UNL     1      59.865  62.821  67.568  0.00  0.00    +0.000 A 
ATOM     11  C   UNL     1      60.310  62.213  67.231  0.00  0.00    +0.000 A 
ATOM     12  C   UNL     1      61.120  62.164  67.382  0.00  0.00    +0.000 A 
ATOM     13  C   UNL     1      61.484  62.721  67.870  0.00  0.00    +0.000 A 
ATOM     14  C   UNL     1      61.038  63.328  68.207  0.00  0.00    +0.000 A 
ATOM     15  N   UNL     1      61.402  63.886  68.695  0.00  0.00    +0.000 N 
ATOM     16  C   UNL     1      62.210  63.836  68.846  0.00  0.00    +0.000 C 
ATOM     17  C   UNL     1      62.574  64.393  69.333  0.00  0.00    +0.000 C 
ATOM     18  C   UNL     1      63.384  64.343  69.484  0.00  0.00    +0.000 C 
ATOM     19  N   UNL     1      63.747  64.901  69.972  0.00  0.00    +0.000 NA
ATOM     20  C   UNL     1      64.557  64.851  70.124  0.00  0.00    +0.000 C 
ATOM     21  C   UNL     1      64.920  65.408  70.611  0.00  0.00    +0.000 C 
ATOM     22  C   UNL     1      64.475  66.015  70.947  0.00  0.00    +0.000 C 
ATOM     23  C   UNL     1      64.838  66.573  71.435  0.00  0.00    +0.000 C 
ATOM     24  C   UNL     1      64.392  67.180  71.772  0.00  0.00    +0.000 C 
ATOM     25  O   UNL     1      64.755  67.737  72.260  0.00  0.00    +0.000 OA
ATOM     26  C   UNL     1      63.664  66.065  70.796  0.00  0.00    +0.000 C 
ATOM     27  C   UNL     1      63.301  65.508  70.309  0.00  0.00    +0.000 C 
ATOM     28  C   UNL     1      60.955  64.493  69.031  0.00  0.00    +0.000 A 
ATOM     29  C   UNL     1      61.319  65.050  69.519  0.00  0.00    +0.000 A 
ENDROOT
TORSDOF 0
ENDMDL
MODEL 8
REMARK VINA RESULT:   -11.911      3.352      4.522
REMARK INTER + INTRA:         -11.911
REMARK INTER:                 -11.911
REMARK INTRA:                   0.000
REMARK UNBOUND:                 0.000
ROOT
REMARK  Name = piperacetazine
REMARK                            x       y       z     vdW  Elec       q    Type
REMARK                         _______ _______ _______ _____ _____    ______ ____
ATOM      1  C   UNL     1      61.627  61.770  71.138  0.00  0.00    +0.000 C 
ATOM      2  C   UNL     1      61.248  62.448  70.857  0.00  0.00    +0.000 C 
ATOM      3  O   UNL     1      61.120  62.544  70.049  0.00  0.00    +0.000 OA
ATOM      4  C   UNL     1      60.997  63.029  71.387  0.00  0.00    +0.000 A 
ATOM      5  C   UNL     1      61.125  62.933  72.196  0.00  0.00    +0.000 A 
ATOM      6  C   UNL     1      60.874  63.513  72.725  0.00  0.00    +0.000 A 
ATOM      7  C   UNL     1      60.495  64.191  72.445  0.00  0.00    +0.000 A 
ATOM      8  S   UNL     1      60.245  64.772  72.974  0.00  0.00    +0.000 S 
ATOM      9  C   UNL     1      59.866  65.449  72.694  0.00  0.00    +0.000 A 
ATOM     10  C   UNL     1      59.615  66.030  73.222  0.00  0.00    +0.000 A 
ATOM     11  C   UNL     1      59.236  66.708  72.943  0.00  0.00    +0.000 A 
ATOM     12  C   UNL     1      59.108  66.804  72.134  0.00  0.00    +0.000 A 
ATOM     13  C   UNL     1      59.359  66.222  71.604  0.00  0.00    +0.000 A 
ATOM     14  C   UNL     1      59.738  65.545  71.885  0.00  0.00    +0.000 A 
ATOM     15  N   UNL     1      59.989  64.964  71.355  0.00  0.00    +0.000 N 
ATOM     16  C   UNL     1      59.861  65.060  70.547  0.00  0.00    +0.000 C 
ATOM     17  C   UNL     1      60.111  64.479  70.017  0.00  0.00    +0.000 C 
ATOM     18  C   UNL     1      59.983  64.575  69.208  0.00  0.00    +0.000 C 
ATOM     19  N   UNL     1      60.234  63.993  68.679  0.00  0.00    +0.000 NA
ATOM     20  C   UNL     1      60.106  64.090  67.869  0.00  0.00    +0.000 C 
ATOM     21  C   UNL     1      60.357  63.509  67.340  0.00  0.00    +0.000 C 
ATOM     22  C   UNL     1      60.735  62.832  67.620  0.00  0.00    +0.000 C 
ATOM     23  C   UNL     1      60.987  62.250  67.091  0.00  0.00    +0.000 C 
ATOM     24  C   UNL     1      61.365  61.573  67.371  0.00  0.00    +0.000 C 
ATOM     25  O   UNL     1      61.616  60.992  66.842  0.00  0.00    +0.000 OA
ATOM     26  C   UNL     1      60.864  62.736  68.430  0.00  0.00    +0.000 C 
ATOM     27  C   UNL     1      60.613  63.317  68.959  0.00  0.00    +0.000 C 
ATOM     28  C   UNL     1      60.367  64.287  71.636  0.00  0.00    +0.000 A 
ATOM     29  C   UNL     1      60.618  63.705  71.106  0.00  0.00    +0.000 A 
ENDROOT
TORSDOF 0
ENDMDL
MODEL 9
REMARK VINA RESULT:   -11.837      1.433      2.849
REMARK INTER + INTRA:         -11.837
REMARK INTER:                 -11.837
REMARK INTRA:                   0.000
REMARK UNBOUND:                 0.000
ROOT
REMARK  Name = piperacetazine
REMARK                            x       y       z     vdW  Elec       q    Type
REMARK                         _______ _______ _______ _____ _____    ______ ____
ATOM      1  C   UNL     1      63.960  66.233  69.739  0.00  0.00    +0.000 C 
ATOM      2  C   UNL     1      63.336  65.985  70.219  0.00  0.00    +0.000 C 
ATOM      3  O   UNL     1      63.088  66.455  70.849  0.00  0.00    +0.000 OA
ATOM      4  C   UNL     1      62.961  65.266  70.068  0.00  0.00    +0.000 A 
ATOM      5  C   UNL     1      63.208  64.796  69.437  0.00  0.00    +0.000 A 
ATOM      6  C   UNL     1      62.833  64.077  69.286  0.00  0.00    +0.000 A 
ATOM      7  C   UNL     1      62.209  63.828  69.766  0.00  0.00    +0.000 A 
ATOM      8  S   UNL     1      61.833  63.110  69.615  0.00  0.00    +0.000 S 
ATOM      9  C   UNL     1      61.210  62.861  70.094  0.00  0.00    +0.000 A 
ATOM     10  C   UNL     1      60.834  62.143  69.944  0.00  0.00    +0.000 A 
ATOM     11  C   UNL     1      60.210  61.894  70.423  0.00  0.00    +0.000 A 
ATOM     12  C   UNL     1      59.962  62.365  71.054  0.00  0.00    +0.000 A 
ATOM     13  C   UNL     1      60.338  63.084  71.205  0.00  0.00    +0.000 A 
ATOM     14  C   UNL     1      60.962  63.332  70.725  0.00  0.00    +0.000 A 
ATOM     15  N   UNL     1      61.338  64.051  70.876  0.00  0.00    +0.000 N 
ATOM     16  C   UNL     1      61.090  64.521  71.506  0.00  0.00    +0.000 C 
ATOM     17  C   UNL     1      61.465  65.240  71.658  0.00  0.00    +0.000 C 
ATOM     18  C   UNL     1      61.218  65.711  72.288  0.00  0.00    +0.000 C 
ATOM     19  N   UNL     1      61.594  66.429  72.439  0.00  0.00    +0.000 NA
ATOM     20  C   UNL     1      61.346  66.901  73.070  0.00  0.00    +0.000 C 
ATOM     21  C   UNL     1      61.721  67.619  73.221  0.00  0.00    +0.000 C 
ATOM     22  C   UNL     1      62.344  67.867  72.742  0.00  0.00    +0.000 C 
ATOM     23  C   UNL     1      62.721  68.586  72.892  0.00  0.00    +0.000 C 
ATOM     24  C   UNL     1      63.344  68.835  72.413  0.00  0.00    +0.000 C 
ATOM     25  O   UNL     1      63.720  69.553  72.564  0.00  0.00    +0.000 OA
ATOM     26  C   UNL     1      62.592  67.396  72.110  0.00  0.00    +0.000 C 
ATOM     27  C   UNL     1      62.217  66.678  71.960  0.00  0.00    +0.000 C 
ATOM     28  C   UNL     1      61.961  64.299  70.396  0.00  0.00    +0.000 A 
ATOM     29  C   UNL     1      62.337  65.018  70.548  0.00  0.00    +0.000 A 
ENDROOT
TORSDOF 0
ENDMDL
