MODEL 1
REMARK VINA RESULT:   -10.867      0.000      0.000
REMARK INTER + INTRA:         -10.867
REMARK INTER:                 -10.867
REMARK INTRA:                   0.000
REMARK UNBOUND:                 0.000
ROOT
REMARK  Name = piposulfan
REMARK                            x       y       z     vdW  Elec       q    Type
REMARK                         _______ _______ _______ _____ _____    ______ ____
ATOM      1  C   UNL     1      59.144  67.471  71.709  0.00  0.00    +0.000 C 
ATOM      2  S   UNL     1      59.415  66.993  71.093  0.00  0.00    +0.000 S 
ATOM      3  O   UNL     1      59.492  67.658  70.611  0.00  0.00    +0.000 OA
ATOM      4  O   UNL     1      59.338  66.328  71.577  0.00  0.00    +0.000 OA
ATOM      5  O   UNL     1      59.686  66.515  70.478  0.00  0.00    +0.000 OA
ATOM      6  C   UNL     1      59.755  65.700  70.589  0.00  0.00    +0.000 C 
ATOM      7  C   UNL     1      60.027  65.222  69.974  0.00  0.00    +0.000 C 
ATOM      8  C   UNL     1      60.096  64.407  70.085  0.00  0.00    +0.000 C 
ATOM      9  O   UNL     1      59.893  64.071  70.810  0.00  0.00    +0.000 OA
ATOM     10  N   UNL     1      60.367  63.929  69.470  0.00  0.00    +0.000 N 
ATOM     11  C   UNL     1      60.436  63.115  69.580  0.00  0.00    +0.000 C 
ATOM     12  C   UNL     1      60.707  62.637  68.965  0.00  0.00    +0.000 C 
ATOM     13  N   UNL     1      60.909  62.973  68.240  0.00  0.00    +0.000 N 
ATOM     14  C   UNL     1      60.840  63.788  68.129  0.00  0.00    +0.000 C 
ATOM     15  C   UNL     1      60.569  64.266  68.744  0.00  0.00    +0.000 C 
ATOM     16  C   UNL     1      61.181  62.494  67.624  0.00  0.00    +0.000 C 
ATOM     17  O   UNL     1      61.250  61.680  67.735  0.00  0.00    +0.000 OA
ATOM     18  C   UNL     1      61.383  62.831  66.899  0.00  0.00    +0.000 C 
ATOM     19  C   UNL     1      61.654  62.353  66.283  0.00  0.00    +0.000 C 
ATOM     20  O   UNL     1      61.857  62.690  65.557  0.00  0.00    +0.000 OA
ATOM     21  S   UNL     1      62.128  62.212  64.943  0.00  0.00    +0.000 S 
ATOM     22  C   UNL     1      62.399  61.734  64.328  0.00  0.00    +0.000 C 
ATOM     23  O   UNL     1      62.205  62.877  64.460  0.00  0.00    +0.000 OA
ATOM     24  O   UNL     1      62.051  61.547  65.426  0.00  0.00    +0.000 OA
ENDROOT
TORSDOF 0
ENDMDL
MODEL 2
REMARK VINA RESULT:   -10.844      0.076      5.973
REMARK INTER + INTRA:         -10.844
REMARK INTER:                 -10.844
REMARK INTRA:                   0.000
REMARK UNBOUND:                 0.000
ROOT
REMARK  Name = piposulfan
REMARK                            x       y       z     vdW  Elec       q    Type
REMARK                         _______ _______ _______ _____ _____    ______ ____
ATOM      1  C   UNL     1      62.348  61.651  64.365  0.00  0.00    +0.000 C 
ATOM      2  S   UNL     1      62.081  62.133  64.980  0.00  0.00    +0.000 S 
ATOM      3  O   UNL     1      62.148  62.794  64.490  0.00  0.00    +0.000 OA
ATOM      4  O   UNL     1      62.014  61.471  65.469  0.00  0.00    +0.000 OA
ATOM      5  O   UNL     1      61.814  62.615  65.594  0.00  0.00    +0.000 OA
ATOM      6  C   UNL     1      61.622  62.282  66.325  0.00  0.00    +0.000 C 
ATOM      7  C   UNL     1      61.355  62.764  66.939  0.00  0.00    +0.000 C 
ATOM      8  C   UNL     1      61.164  62.433  67.670  0.00  0.00    +0.000 C 
ATOM      9  O   UNL     1      61.239  61.619  67.786  0.00  0.00    +0.000 OA
ATOM     10  N   UNL     1      60.897  62.914  68.284  0.00  0.00    +0.000 N 
ATOM     11  C   UNL     1      60.705  62.583  69.015  0.00  0.00    +0.000 C 
ATOM     12  C   UNL     1      60.438  63.065  69.629  0.00  0.00    +0.000 C 
ATOM     13  N   UNL     1      60.363  63.877  69.512  0.00  0.00    +0.000 N 
ATOM     14  C   UNL     1      60.554  64.209  68.782  0.00  0.00    +0.000 C 
ATOM     15  C   UNL     1      60.821  63.728  68.167  0.00  0.00    +0.000 C 
ATOM     16  C   UNL     1      60.096  64.359  70.127  0.00  0.00    +0.000 C 
ATOM     17  O   UNL     1      59.904  64.028  70.857  0.00  0.00    +0.000 OA
ATOM     18  C   UNL     1      60.020  65.173  70.010  0.00  0.00    +0.000 C 
ATOM     19  C   UNL     1      59.753  65.655  70.624  0.00  0.00    +0.000 C 
ATOM     20  O   UNL     1      59.678  66.468  70.508  0.00  0.00    +0.000 OA
ATOM     21  S   UNL     1      59.411  66.950  71.121  0.00  0.00    +0.000 S 
ATOM     22  C   UNL     1      59.144  67.431  71.735  0.00  0.00    +0.000 C 
ATOM     23  O   UNL     1      59.478  67.611  70.632  0.00  0.00    +0.000 OA
ATOM     24  O   UNL     1      59.344  66.288  71.611  0.00  0.00    +0.000 OA
ENDROOT
TORSDOF 0
ENDMDL
MODEL 3
REMARK VINA RESULT:   -10.032      3.564      5.834
REMARK INTER + INTRA:         -10.032
REMARK INTER:                 -10.032
REMARK INTRA:                   0.000
REMARK UNBOUND:                 0.000
ROOT
REMARK  Name = piposulfan
REMARK                            x       y       z     vdW  Elec       q    Type
REMARK                         _______ _______ _______ _____ _____    ______ ____
ATOM      1  C   UNL     1      60.379  61.972  65.777  0.00  0.00    +0.000 C 
ATOM      2  S   UNL     1      60.867  62.406  66.281  0.00  0.00    +0.000 S 
ATOM      3  O   UNL     1      61.360  62.589  65.645  0.00  0.00    +0.000 OA
ATOM      4  O   UNL     1      60.374  62.223  66.917  0.00  0.00    +0.000 OA
ATOM      5  O   UNL     1      61.355  62.841  66.784  0.00  0.00    +0.000 OA
ATOM      6  C   UNL     1      61.172  62.899  67.587  0.00  0.00    +0.000 C 
ATOM      7  C   UNL     1      61.661  63.333  68.090  0.00  0.00    +0.000 C 
ATOM      8  C   UNL     1      61.478  63.392  68.893  0.00  0.00    +0.000 C 
ATOM      9  O   UNL     1      60.807  63.016  69.192  0.00  0.00    +0.000 OA
ATOM     10  N   UNL     1      61.966  63.826  69.396  0.00  0.00    +0.000 N 
ATOM     11  C   UNL     1      61.784  63.884  70.199  0.00  0.00    +0.000 C 
ATOM     12  C   UNL     1      62.272  64.319  70.702  0.00  0.00    +0.000 C 
ATOM     13  N   UNL     1      62.943  64.694  70.403  0.00  0.00    +0.000 N 
ATOM     14  C   UNL     1      63.126  64.636  69.601  0.00  0.00    +0.000 C 
ATOM     15  C   UNL     1      62.637  64.202  69.097  0.00  0.00    +0.000 C 
ATOM     16  C   UNL     1      63.431  65.129  70.907  0.00  0.00    +0.000 C 
ATOM     17  O   UNL     1      63.249  65.188  71.709  0.00  0.00    +0.000 OA
ATOM     18  C   UNL     1      64.102  65.505  70.608  0.00  0.00    +0.000 C 
ATOM     19  C   UNL     1      64.591  65.939  71.111  0.00  0.00    +0.000 C 
ATOM     20  O   UNL     1      65.262  66.316  70.812  0.00  0.00    +0.000 OA
ATOM     21  S   UNL     1      65.750  66.749  71.315  0.00  0.00    +0.000 S 
ATOM     22  C   UNL     1      66.238  67.184  71.818  0.00  0.00    +0.000 C 
ATOM     23  O   UNL     1      66.242  66.933  70.679  0.00  0.00    +0.000 OA
ATOM     24  O   UNL     1      65.257  66.566  71.951  0.00  0.00    +0.000 OA
ENDROOT
TORSDOF 0
ENDMDL
MODEL 4
REMARK VINA RESULT:    -8.526     14.429     15.698
REMARK INTER + INTRA:          -8.526
REMARK INTER:                  -8.526
REMARK INTRA:                   0.000
REMARK UNBOUND:                 0.000
ROOT
REMARK  Name = piposulfan
REMARK                            x       y       z     vdW  Elec       q    Type
REMARK                         _______ _______ _______ _____ _____    ______ ____
ATOM      1  C   UNL     1      63.771  60.304  53.749  0.00  0.00    +0.000 C 
ATOM      2  S   UNL     1      63.612  61.103  53.873  0.00  0.00    +0.000 S 
ATOM      3  O   UNL     1      64.226  61.140  54.423  0.00  0.00    +0.000 OA
ATOM      4  O   UNL     1      62.996  61.066  53.323  0.00  0.00    +0.000 OA
ATOM      5  O   UNL     1      63.452  61.903  53.998  0.00  0.00    +0.000 OA
ATOM      6  C   UNL     1      62.840  62.270  53.584  0.00  0.00    +0.000 C 
ATOM      7  C   UNL     1      62.680  63.070  53.709  0.00  0.00    +0.000 C 
ATOM      8  C   UNL     1      62.067  63.438  53.296  0.00  0.00    +0.000 C 
ATOM      9  O   UNL     1      61.616  63.006  52.758  0.00  0.00    +0.000 OA
ATOM     10  N   UNL     1      61.908  64.237  53.420  0.00  0.00    +0.000 N 
ATOM     11  C   UNL     1      61.296  64.605  53.007  0.00  0.00    +0.000 C 
ATOM     12  C   UNL     1      61.136  65.405  53.132  0.00  0.00    +0.000 C 
ATOM     13  N   UNL     1      61.588  65.836  53.670  0.00  0.00    +0.000 N 
ATOM     14  C   UNL     1      62.201  65.469  54.083  0.00  0.00    +0.000 C 
ATOM     15  C   UNL     1      62.360  64.669  53.959  0.00  0.00    +0.000 C 
ATOM     16  C   UNL     1      61.429  66.637  53.795  0.00  0.00    +0.000 C 
ATOM     17  O   UNL     1      60.817  67.004  53.382  0.00  0.00    +0.000 OA
ATOM     18  C   UNL     1      61.881  67.069  54.333  0.00  0.00    +0.000 C 
ATOM     19  C   UNL     1      61.722  67.868  54.458  0.00  0.00    +0.000 C 
ATOM     20  O   UNL     1      62.174  68.301  54.996  0.00  0.00    +0.000 OA
ATOM     21  S   UNL     1      62.015  69.100  55.121  0.00  0.00    +0.000 S 
ATOM     22  C   UNL     1      61.855  69.899  55.246  0.00  0.00    +0.000 C 
ATOM     23  O   UNL     1      62.629  69.137  55.670  0.00  0.00    +0.000 OA
ATOM     24  O   UNL     1      61.400  69.062  54.571  0.00  0.00    +0.000 OA
ENDROOT
TORSDOF 0
ENDMDL
MODEL 5
REMARK VINA RESULT:    -8.510     14.397     14.799
REMARK INTER + INTRA:          -8.510
REMARK INTER:                  -8.510
REMARK INTRA:                   0.000
REMARK UNBOUND:                 0.000
ROOT
REMARK  Name = piposulfan
REMARK                            x       y       z     vdW  Elec       q    Type
REMARK                         _______ _______ _______ _____ _____    ______ ____
ATOM      1  C   UNL     1      61.951  69.890  55.287  0.00  0.00    +0.000 C 
ATOM      2  S   UNL     1      62.103  69.089  55.162  0.00  0.00    +0.000 S 
ATOM      3  O   UNL     1      62.720  69.120  55.709  0.00  0.00    +0.000 OA
ATOM      4  O   UNL     1      61.486  69.057  54.615  0.00  0.00    +0.000 OA
ATOM      5  O   UNL     1      62.255  68.287  55.037  0.00  0.00    +0.000 OA
ATOM      6  C   UNL     1      61.797  67.860  54.501  0.00  0.00    +0.000 C 
ATOM      7  C   UNL     1      61.949  67.059  54.376  0.00  0.00    +0.000 C 
ATOM      8  C   UNL     1      61.490  66.630  53.840  0.00  0.00    +0.000 C 
ATOM      9  O   UNL     1      60.880  67.004  53.429  0.00  0.00    +0.000 OA
ATOM     10  N   UNL     1      61.642  65.830  53.715  0.00  0.00    +0.000 N 
ATOM     11  C   UNL     1      61.184  65.401  53.179  0.00  0.00    +0.000 C 
ATOM     12  C   UNL     1      61.336  64.600  53.054  0.00  0.00    +0.000 C 
ATOM     13  N   UNL     1      61.946  64.227  53.465  0.00  0.00    +0.000 N 
ATOM     14  C   UNL     1      62.405  64.655  54.002  0.00  0.00    +0.000 C 
ATOM     15  C   UNL     1      62.253  65.456  54.126  0.00  0.00    +0.000 C 
ATOM     16  C   UNL     1      62.098  63.425  53.340  0.00  0.00    +0.000 C 
ATOM     17  O   UNL     1      61.640  62.998  52.804  0.00  0.00    +0.000 OA
ATOM     18  C   UNL     1      62.708  63.053  53.752  0.00  0.00    +0.000 C 
ATOM     19  C   UNL     1      62.860  62.251  53.627  0.00  0.00    +0.000 C 
ATOM     20  O   UNL     1      63.471  61.878  54.038  0.00  0.00    +0.000 OA
ATOM     21  S   UNL     1      63.623  61.078  53.914  0.00  0.00    +0.000 S 
ATOM     22  C   UNL     1      63.775  60.276  53.789  0.00  0.00    +0.000 C 
ATOM     23  O   UNL     1      64.240  61.109  54.460  0.00  0.00    +0.000 OA
ATOM     24  O   UNL     1      63.005  61.046  53.366  0.00  0.00    +0.000 OA
ENDROOT
TORSDOF 0
ENDMDL
MODEL 6
REMARK VINA RESULT:    -8.208     14.639     14.886
REMARK INTER + INTRA:          -8.208
REMARK INTER:                  -8.208
REMARK INTRA:                   0.000
REMARK UNBOUND:                 0.000
ROOT
REMARK  Name = piposulfan
REMARK                            x       y       z     vdW  Elec       q    Type
REMARK                         _______ _______ _______ _____ _____    ______ ____
ATOM      1  C   UNL     1      59.015  72.249  54.524  0.00  0.00    +0.000 C 
ATOM      2  S   UNL     1      59.324  71.485  54.474  0.00  0.00    +0.000 S 
ATOM      3  O   UNL     1      58.575  71.195  54.285  0.00  0.00    +0.000 OA
ATOM      4  O   UNL     1      60.074  71.777  54.662  0.00  0.00    +0.000 OA
ATOM      5  O   UNL     1      59.633  70.722  54.424  0.00  0.00    +0.000 OA
ATOM      6  C   UNL     1      60.436  70.593  54.562  0.00  0.00    +0.000 C 
ATOM      7  C   UNL     1      60.745  69.830  54.512  0.00  0.00    +0.000 C 
ATOM      8  C   UNL     1      61.549  69.700  54.650  0.00  0.00    +0.000 C 
ATOM      9  O   UNL     1      62.042  70.334  54.838  0.00  0.00    +0.000 OA
ATOM     10  N   UNL     1      61.858  68.937  54.600  0.00  0.00    +0.000 N 
ATOM     11  C   UNL     1      62.660  68.807  54.737  0.00  0.00    +0.000 C 
ATOM     12  C   UNL     1      62.970  68.044  54.687  0.00  0.00    +0.000 C 
ATOM     13  N   UNL     1      62.476  67.411  54.500  0.00  0.00    +0.000 N 
ATOM     14  C   UNL     1      61.673  67.540  54.361  0.00  0.00    +0.000 C 
ATOM     15  C   UNL     1      61.364  68.303  54.411  0.00  0.00    +0.000 C 
ATOM     16  C   UNL     1      62.785  66.647  54.449  0.00  0.00    +0.000 C 
ATOM     17  O   UNL     1      63.588  66.517  54.587  0.00  0.00    +0.000 OA
ATOM     18  C   UNL     1      62.291  66.013  54.261  0.00  0.00    +0.000 C 
ATOM     19  C   UNL     1      62.600  65.250  54.211  0.00  0.00    +0.000 C 
ATOM     20  O   UNL     1      62.106  64.616  54.023  0.00  0.00    +0.000 OA
ATOM     21  S   UNL     1      62.415  63.854  53.973  0.00  0.00    +0.000 S 
ATOM     22  C   UNL     1      62.724  63.090  53.923  0.00  0.00    +0.000 C 
ATOM     23  O   UNL     1      61.666  63.563  53.785  0.00  0.00    +0.000 OA
ATOM     24  O   UNL     1      63.164  64.145  54.161  0.00  0.00    +0.000 OA
ENDROOT
TORSDOF 0
ENDMDL
MODEL 7
REMARK VINA RESULT:    -8.187     14.621     15.693
REMARK INTER + INTRA:          -8.187
REMARK INTER:                  -8.187
REMARK INTRA:                   0.000
REMARK UNBOUND:                 0.000
ROOT
REMARK  Name = piposulfan
REMARK                            x       y       z     vdW  Elec       q    Type
REMARK                         _______ _______ _______ _____ _____    ______ ____
ATOM      1  C   UNL     1      62.666  63.081  53.874  0.00  0.00    +0.000 C 
ATOM      2  S   UNL     1      62.358  63.844  53.932  0.00  0.00    +0.000 S 
ATOM      3  O   UNL     1      61.611  63.559  53.728  0.00  0.00    +0.000 OA
ATOM      4  O   UNL     1      63.105  64.130  54.137  0.00  0.00    +0.000 OA
ATOM      5  O   UNL     1      62.050  64.608  53.990  0.00  0.00    +0.000 OA
ATOM      6  C   UNL     1      62.543  65.236  54.195  0.00  0.00    +0.000 C 
ATOM      7  C   UNL     1      62.235  66.000  54.253  0.00  0.00    +0.000 C 
ATOM      8  C   UNL     1      62.728  66.629  54.459  0.00  0.00    +0.000 C 
ATOM      9  O   UNL     1      63.528  66.495  54.607  0.00  0.00    +0.000 OA
ATOM     10  N   UNL     1      62.421  67.392  54.516  0.00  0.00    +0.000 N 
ATOM     11  C   UNL     1      62.913  68.021  54.722  0.00  0.00    +0.000 C 
ATOM     12  C   UNL     1      62.605  68.784  54.779  0.00  0.00    +0.000 C 
ATOM     13  N   UNL     1      61.805  68.918  54.631  0.00  0.00    +0.000 N 
ATOM     14  C   UNL     1      61.312  68.289  54.426  0.00  0.00    +0.000 C 
ATOM     15  C   UNL     1      61.620  67.526  54.368  0.00  0.00    +0.000 C 
ATOM     16  C   UNL     1      61.497  69.682  54.689  0.00  0.00    +0.000 C 
ATOM     17  O   UNL     1      61.989  70.311  54.895  0.00  0.00    +0.000 OA
ATOM     18  C   UNL     1      60.696  69.816  54.541  0.00  0.00    +0.000 C 
ATOM     19  C   UNL     1      60.388  70.579  54.598  0.00  0.00    +0.000 C 
ATOM     20  O   UNL     1      59.587  70.713  54.450  0.00  0.00    +0.000 OA
ATOM     21  S   UNL     1      59.279  71.476  54.508  0.00  0.00    +0.000 S 
ATOM     22  C   UNL     1      58.971  72.239  54.565  0.00  0.00    +0.000 C 
ATOM     23  O   UNL     1      58.533  71.190  54.303  0.00  0.00    +0.000 OA
ATOM     24  O   UNL     1      60.027  71.762  54.712  0.00  0.00    +0.000 OA
ENDROOT
TORSDOF 0
ENDMDL
