MODEL 1
REMARK VINA RESULT:   -13.857      0.000      0.000
REMARK INTER + INTRA:         -13.857
REMARK INTER:                 -13.857
REMARK INTRA:                   0.000
REMARK UNBOUND:                 0.000
ROOT
REMARK  Name = pipoxolan
REMARK                            x       y       z     vdW  Elec       q    Type
REMARK                         _______ _______ _______ _____ _____    ______ ____
ATOM      1  O   UNL     1      60.293  64.980  69.052  0.00  0.00    +0.000 OA
ATOM      2  C   UNL     1      60.519  64.212  68.849  0.00  0.00    +0.000 C 
ATOM      3  O   UNL     1      60.780  63.964  68.107  0.00  0.00    +0.000 OA
ATOM      4  C   UNL     1      60.945  63.157  68.152  0.00  0.00    +0.000 C 
ATOM      5  C   UNL     1      61.221  62.683  67.536  0.00  0.00    +0.000 C 
ATOM      6  C   UNL     1      61.356  63.011  66.791  0.00  0.00    +0.000 C 
ATOM      7  N   UNL     1      61.632  62.537  66.175  0.00  0.00    +0.000 NA
ATOM      8  C   UNL     1      61.773  61.735  66.303  0.00  0.00    +0.000 C 
ATOM      9  C   UNL     1      62.049  61.261  65.687  0.00  0.00    +0.000 C 
ATOM     10  C   UNL     1      62.184  61.589  64.943  0.00  0.00    +0.000 C 
ATOM     11  C   UNL     1      62.043  62.393  64.815  0.00  0.00    +0.000 C 
ATOM     12  C   UNL     1      61.767  62.867  65.431  0.00  0.00    +0.000 C 
ATOM     13  O   UNL     1      60.785  62.907  68.922  0.00  0.00    +0.000 OA
ATOM     14  C   UNL     1      60.522  63.559  69.353  0.00  0.00    +0.000 C 
ATOM     15  C   UNL     1      60.494  62.965  69.924  0.00  0.00    +0.000 A 
ATOM     16  C   UNL     1      60.242  63.140  70.689  0.00  0.00    +0.000 A 
ATOM     17  C   UNL     1      60.213  62.545  71.261  0.00  0.00    +0.000 A 
ATOM     18  C   UNL     1      60.437  61.775  71.067  0.00  0.00    +0.000 A 
ATOM     19  C   UNL     1      60.689  61.600  70.301  0.00  0.00    +0.000 A 
ATOM     20  C   UNL     1      60.717  62.195  69.730  0.00  0.00    +0.000 A 
ATOM     21  C   UNL     1      60.248  63.955  70.023  0.00  0.00    +0.000 A 
ATOM     22  C   UNL     1      60.081  64.762  69.986  0.00  0.00    +0.000 A 
ATOM     23  C   UNL     1      59.807  65.158  70.656  0.00  0.00    +0.000 A 
ATOM     24  C   UNL     1      59.701  64.746  71.363  0.00  0.00    +0.000 A 
ATOM     25  C   UNL     1      59.868  63.939  71.400  0.00  0.00    +0.000 A 
ATOM     26  C   UNL     1      60.142  63.543  70.730  0.00  0.00    +0.000 A 
ENDROOT
TORSDOF 0
ENDMDL
MODEL 2
REMARK VINA RESULT:   -13.532      3.303      4.427
REMARK INTER + INTRA:         -13.532
REMARK INTER:                 -13.532
REMARK INTRA:                   0.000
REMARK UNBOUND:                 0.000
ROOT
REMARK  Name = pipoxolan
REMARK                            x       y       z     vdW  Elec       q    Type
REMARK                         _______ _______ _______ _____ _____    ______ ____
ATOM      1  O   UNL     1      61.959  63.493  69.017  0.00  0.00    +0.000 OA
ATOM      2  C   UNL     1      62.277  63.860  69.685  0.00  0.00    +0.000 C 
ATOM      3  O   UNL     1      62.867  64.437  69.685  0.00  0.00    +0.000 OA
ATOM      4  C   UNL     1      63.015  64.648  70.468  0.00  0.00    +0.000 C 
ATOM      5  C   UNL     1      63.565  65.207  70.724  0.00  0.00    +0.000 C 
ATOM      6  C   UNL     1      64.028  65.612  70.175  0.00  0.00    +0.000 C 
ATOM      7  N   UNL     1      64.578  66.171  70.431  0.00  0.00    +0.000 NA
ATOM      8  C   UNL     1      64.665  66.325  71.236  0.00  0.00    +0.000 C 
ATOM      9  C   UNL     1      65.215  66.884  71.492  0.00  0.00    +0.000 C 
ATOM     10  C   UNL     1      65.679  67.289  70.943  0.00  0.00    +0.000 C 
ATOM     11  C   UNL     1      65.591  67.134  70.137  0.00  0.00    +0.000 C 
ATOM     12  C   UNL     1      65.041  66.575  69.881  0.00  0.00    +0.000 C 
ATOM     13  O   UNL     1      62.516  64.203  70.952  0.00  0.00    +0.000 OA
ATOM     14  C   UNL     1      62.059  63.716  70.467  0.00  0.00    +0.000 C 
ATOM     15  C   UNL     1      61.781  63.508  71.215  0.00  0.00    +0.000 A 
ATOM     16  C   UNL     1      61.190  62.938  71.291  0.00  0.00    +0.000 A 
ATOM     17  C   UNL     1      60.911  62.730  72.040  0.00  0.00    +0.000 A 
ATOM     18  C   UNL     1      61.223  63.092  72.711  0.00  0.00    +0.000 A 
ATOM     19  C   UNL     1      61.814  63.663  72.635  0.00  0.00    +0.000 A 
ATOM     20  C   UNL     1      62.092  63.870  71.887  0.00  0.00    +0.000 A 
ATOM     21  C   UNL     1      61.488  63.144  70.303  0.00  0.00    +0.000 A 
ATOM     22  C   UNL     1      61.334  62.927  69.522  0.00  0.00    +0.000 A 
ATOM     23  C   UNL     1      60.763  62.355  69.358  0.00  0.00    +0.000 A 
ATOM     24  C   UNL     1      60.345  62.000  69.974  0.00  0.00    +0.000 A 
ATOM     25  C   UNL     1      60.499  62.218  70.755  0.00  0.00    +0.000 A 
ATOM     26  C   UNL     1      61.070  62.789  70.919  0.00  0.00    +0.000 A 
ENDROOT
TORSDOF 0
ENDMDL
MODEL 3
REMARK VINA RESULT:   -12.619      1.960      4.888
REMARK INTER + INTRA:         -12.619
REMARK INTER:                 -12.619
REMARK INTRA:                   0.000
REMARK UNBOUND:                 0.000
ROOT
REMARK  Name = pipoxolan
REMARK                            x       y       z     vdW  Elec       q    Type
REMARK                         _______ _______ _______ _____ _____    ______ ____
ATOM      1  O   UNL     1      60.266  64.542  68.438  0.00  0.00    +0.000 OA
ATOM      2  C   UNL     1      60.125  64.468  69.248  0.00  0.00    +0.000 C 
ATOM      3  O   UNL     1      59.881  65.072  69.754  0.00  0.00    +0.000 OA
ATOM      4  C   UNL     1      59.808  64.755  70.512  0.00  0.00    +0.000 C 
ATOM      5  C   UNL     1      59.578  65.164  71.189  0.00  0.00    +0.000 C 
ATOM      6  C   UNL     1      59.395  65.968  71.144  0.00  0.00    +0.000 C 
ATOM      7  N   UNL     1      59.164  66.377  71.821  0.00  0.00    +0.000 NA
ATOM      8  C   UNL     1      59.116  65.985  72.545  0.00  0.00    +0.000 C 
ATOM      9  C   UNL     1      58.885  66.394  73.222  0.00  0.00    +0.000 C 
ATOM     10  C   UNL     1      58.702  67.198  73.177  0.00  0.00    +0.000 C 
ATOM     11  C   UNL     1      58.751  67.591  72.453  0.00  0.00    +0.000 C 
ATOM     12  C   UNL     1      58.982  67.181  71.775  0.00  0.00    +0.000 C 
ATOM     13  O   UNL     1      60.007  63.954  70.473  0.00  0.00    +0.000 OA
ATOM     14  C   UNL     1      60.202  63.777  69.692  0.00  0.00    +0.000 C 
ATOM     15  C   UNL     1      60.306  63.045  70.055  0.00  0.00    +0.000 A 
ATOM     16  C   UNL     1      60.548  62.394  69.610  0.00  0.00    +0.000 A 
ATOM     17  C   UNL     1      60.652  61.660  69.974  0.00  0.00    +0.000 A 
ATOM     18  C   UNL     1      60.513  61.578  70.783  0.00  0.00    +0.000 A 
ATOM     19  C   UNL     1      60.270  62.228  71.228  0.00  0.00    +0.000 A 
ATOM     20  C   UNL     1      60.167  62.962  70.864  0.00  0.00    +0.000 A 
ATOM     21  C   UNL     1      60.441  63.290  69.070  0.00  0.00    +0.000 A 
ATOM     22  C   UNL     1      60.516  63.601  68.309  0.00  0.00    +0.000 A 
ATOM     23  C   UNL     1      60.754  63.114  67.687  0.00  0.00    +0.000 A 
ATOM     24  C   UNL     1      60.917  62.317  67.826  0.00  0.00    +0.000 A 
ATOM     25  C   UNL     1      60.841  62.008  68.587  0.00  0.00    +0.000 A 
ATOM     26  C   UNL     1      60.603  62.494  69.209  0.00  0.00    +0.000 A 
ENDROOT
TORSDOF 0
ENDMDL
MODEL 4
REMARK VINA RESULT:   -12.612      1.997      4.656
REMARK INTER + INTRA:         -12.612
REMARK INTER:                 -12.612
REMARK INTRA:                   0.000
REMARK UNBOUND:                 0.000
ROOT
REMARK  Name = pipoxolan
REMARK                            x       y       z     vdW  Elec       q    Type
REMARK                         _______ _______ _______ _____ _____    ______ ____
ATOM      1  O   UNL     1      59.493  62.553  67.508  0.00  0.00    +0.000 OA
ATOM      2  C   UNL     1      60.289  62.768  67.536  0.00  0.00    +0.000 C 
ATOM      3  O   UNL     1      60.664  63.155  68.161  0.00  0.00    +0.000 OA
ATOM      4  C   UNL     1      61.456  63.260  67.956  0.00  0.00    +0.000 C 
ATOM      5  C   UNL     1      62.033  63.624  68.420  0.00  0.00    +0.000 C 
ATOM      6  C   UNL     1      61.837  63.922  69.164  0.00  0.00    +0.000 C 
ATOM      7  N   UNL     1      62.414  64.285  69.628  0.00  0.00    +0.000 NA
ATOM      8  C   UNL     1      63.187  64.350  69.349  0.00  0.00    +0.000 C 
ATOM      9  C   UNL     1      63.764  64.714  69.813  0.00  0.00    +0.000 C 
ATOM     10  C   UNL     1      63.568  65.012  70.557  0.00  0.00    +0.000 C 
ATOM     11  C   UNL     1      62.794  64.946  70.836  0.00  0.00    +0.000 C 
ATOM     12  C   UNL     1      62.217  64.583  70.372  0.00  0.00    +0.000 C 
ATOM     13  O   UNL     1      61.570  62.938  67.204  0.00  0.00    +0.000 OA
ATOM     14  C   UNL     1      60.849  62.634  66.945  0.00  0.00    +0.000 C 
ATOM     15  C   UNL     1      61.338  62.459  66.305  0.00  0.00    +0.000 A 
ATOM     16  C   UNL     1      61.031  62.073  65.645  0.00  0.00    +0.000 A 
ATOM     17  C   UNL     1      61.522  61.898  65.004  0.00  0.00    +0.000 A 
ATOM     18  C   UNL     1      62.319  62.109  65.024  0.00  0.00    +0.000 A 
ATOM     19  C   UNL     1      62.626  62.496  65.685  0.00  0.00    +0.000 A 
ATOM     20  C   UNL     1      62.135  62.671  66.325  0.00  0.00    +0.000 A 
ATOM     21  C   UNL     1      60.340  62.258  66.416  0.00  0.00    +0.000 A 
ATOM     22  C   UNL     1      59.546  62.149  66.614  0.00  0.00    +0.000 A 
ATOM     23  C   UNL     1      59.037  61.772  66.084  0.00  0.00    +0.000 A 
ATOM     24  C   UNL     1      59.322  61.505  65.358  0.00  0.00    +0.000 A 
ATOM     25  C   UNL     1      60.116  61.614  65.160  0.00  0.00    +0.000 A 
ATOM     26  C   UNL     1      60.625  61.990  65.689  0.00  0.00    +0.000 A 
ENDROOT
TORSDOF 0
ENDMDL
MODEL 5
REMARK VINA RESULT:   -12.134      0.868      2.225
REMARK INTER + INTRA:         -12.134
REMARK INTER:                 -12.134
REMARK INTRA:                   0.000
REMARK UNBOUND:                 0.000
ROOT
REMARK  Name = pipoxolan
REMARK                            x       y       z     vdW  Elec       q    Type
REMARK                         _______ _______ _______ _____ _____    ______ ____
ATOM      1  O   UNL     1      60.260  63.087  70.901  0.00  0.00    +0.000 OA
ATOM      2  C   UNL     1      60.330  63.416  70.148  0.00  0.00    +0.000 C 
ATOM      3  O   UNL     1      60.580  63.020  69.468  0.00  0.00    +0.000 OA
ATOM      4  C   UNL     1      60.567  63.558  68.842  0.00  0.00    +0.000 C 
ATOM      5  C   UNL     1      60.775  63.397  68.061  0.00  0.00    +0.000 C 
ATOM      6  C   UNL     1      61.024  62.640  67.847  0.00  0.00    +0.000 C 
ATOM      7  N   UNL     1      61.232  62.479  67.066  0.00  0.00    +0.000 NA
ATOM      8  C   UNL     1      61.191  63.074  66.497  0.00  0.00    +0.000 C 
ATOM      9  C   UNL     1      61.399  62.914  65.715  0.00  0.00    +0.000 C 
ATOM     10  C   UNL     1      61.648  62.157  65.502  0.00  0.00    +0.000 C 
ATOM     11  C   UNL     1      61.689  61.560  66.071  0.00  0.00    +0.000 C 
ATOM     12  C   UNL     1      61.481  61.721  66.853  0.00  0.00    +0.000 C 
ATOM     13  O   UNL     1      60.309  64.285  69.136  0.00  0.00    +0.000 OA
ATOM     14  C   UNL     1      60.163  64.197  69.943  0.00  0.00    +0.000 C 
ATOM     15  C   UNL     1      59.973  64.991  69.828  0.00  0.00    +0.000 A 
ATOM     16  C   UNL     1      59.715  65.449  70.464  0.00  0.00    +0.000 A 
ATOM     17  C   UNL     1      59.525  66.245  70.349  0.00  0.00    +0.000 A 
ATOM     18  C   UNL     1      59.593  66.581  69.599  0.00  0.00    +0.000 A 
ATOM     19  C   UNL     1      59.850  66.123  68.963  0.00  0.00    +0.000 A 
ATOM     20  C   UNL     1      60.040  65.328  69.079  0.00  0.00    +0.000 A 
ATOM     21  C   UNL     1      59.936  64.447  70.696  0.00  0.00    +0.000 A 
ATOM     22  C   UNL     1      59.947  63.915  71.327  0.00  0.00    +0.000 A 
ATOM     23  C   UNL     1      59.721  64.165  72.080  0.00  0.00    +0.000 A 
ATOM     24  C   UNL     1      59.484  64.946  72.202  0.00  0.00    +0.000 A 
ATOM     25  C   UNL     1      59.474  65.477  71.570  0.00  0.00    +0.000 A 
ATOM     26  C   UNL     1      59.700  65.228  70.817  0.00  0.00    +0.000 A 
ENDROOT
TORSDOF 0
ENDMDL
MODEL 6
REMARK VINA RESULT:   -12.004      2.138      2.519
REMARK INTER + INTRA:         -12.004
REMARK INTER:                 -12.004
REMARK INTRA:                   0.000
REMARK UNBOUND:                 0.000
ROOT
REMARK  Name = pipoxolan
REMARK                            x       y       z     vdW  Elec       q    Type
REMARK                         _______ _______ _______ _____ _____    ______ ____
ATOM      1  O   UNL     1      63.038  65.636  70.097  0.00  0.00    +0.000 OA
ATOM      2  C   UNL     1      62.499  65.014  70.029  0.00  0.00    +0.000 C 
ATOM      3  O   UNL     1      62.278  64.640  69.328  0.00  0.00    +0.000 OA
ATOM      4  C   UNL     1      61.730  64.052  69.516  0.00  0.00    +0.000 C 
ATOM      5  C   UNL     1      61.363  63.543  68.981  0.00  0.00    +0.000 C 
ATOM      6  C   UNL     1      61.534  63.596  68.176  0.00  0.00    +0.000 C 
ATOM      7  N   UNL     1      61.167  63.086  67.641  0.00  0.00    +0.000 NA
ATOM      8  C   UNL     1      60.629  62.523  67.911  0.00  0.00    +0.000 C 
ATOM      9  C   UNL     1      60.261  62.014  67.377  0.00  0.00    +0.000 C 
ATOM     10  C   UNL     1      60.433  62.067  66.571  0.00  0.00    +0.000 C 
ATOM     11  C   UNL     1      60.972  62.630  66.301  0.00  0.00    +0.000 C 
ATOM     12  C   UNL     1      61.339  63.140  66.836  0.00  0.00    +0.000 C 
ATOM     13  O   UNL     1      61.614  64.064  70.333  0.00  0.00    +0.000 OA
ATOM     14  C   UNL     1      62.089  64.658  70.650  0.00  0.00    +0.000 C 
ATOM     15  C   UNL     1      61.724  64.363  71.327  0.00  0.00    +0.000 A 
ATOM     16  C   UNL     1      61.898  64.689  72.065  0.00  0.00    +0.000 A 
ATOM     17  C   UNL     1      61.533  64.394  72.744  0.00  0.00    +0.000 A 
ATOM     18  C   UNL     1      60.993  63.772  72.684  0.00  0.00    +0.000 A 
ATOM     19  C   UNL     1      60.819  63.446  71.947  0.00  0.00    +0.000 A 
ATOM     20  C   UNL     1      61.185  63.742  71.269  0.00  0.00    +0.000 A 
ATOM     21  C   UNL     1      62.407  65.123  71.253  0.00  0.00    +0.000 A 
ATOM     22  C   UNL     1      62.955  65.713  71.073  0.00  0.00    +0.000 A 
ATOM     23  C   UNL     1      63.273  66.179  71.675  0.00  0.00    +0.000 A 
ATOM     24  C   UNL     1      63.042  66.054  72.458  0.00  0.00    +0.000 A 
ATOM     25  C   UNL     1      62.494  65.464  72.637  0.00  0.00    +0.000 A 
ATOM     26  C   UNL     1      62.176  64.999  72.035  0.00  0.00    +0.000 A 
ENDROOT
TORSDOF 0
ENDMDL
