MODEL 1
REMARK VINA RESULT:   -11.358      0.000      0.000
REMARK INTER + INTRA:         -11.358
REMARK INTER:                 -11.358
REMARK INTRA:                   0.000
REMARK UNBOUND:                 0.000
ROOT
REMARK  Name = pirlimycin
REMARK                            x       y       z     vdW  Elec       q    Type
REMARK                         _______ _______ _______ _____ _____    ______ ____
ATOM      1  C   UNL     1      60.075  64.647  71.246  0.00  0.00    +0.000 C 
ATOM      2  N   UNL     1      60.126  64.176  70.571  0.00  0.00    +0.000 NA
ATOM      3  C   UNL     1      60.308  63.374  70.640  0.00  0.00    +0.000 C 
ATOM      4  O   UNL     1      60.438  63.043  71.384  0.00  0.00    +0.000 OA
ATOM      5  C   UNL     1      60.359  62.902  69.966  0.00  0.00    +0.000 C 
ATOM      6  C   UNL     1      60.228  63.233  69.221  0.00  0.00    +0.000 C 
ATOM      7  C   UNL     1      60.279  62.762  68.545  0.00  0.00    +0.000 C 
ATOM      8  C   UNL     1      60.149  63.093  67.801  0.00  0.00    +0.000 C 
ATOM      9  C   UNL     1      60.200  62.621  67.126  0.00  0.00    +0.000 C 
ATOM     10  C   UNL     1      60.460  61.961  68.614  0.00  0.00    +0.000 C 
ATOM     11  C   UNL     1      60.591  61.630  69.359  0.00  0.00    +0.000 C 
ATOM     12  N   UNL     1      60.540  62.102  70.035  0.00  0.00    +0.000 NA
ATOM     13  C   UNL     1      60.206  64.317  71.991  0.00  0.00    +0.000 C 
ATOM     14  C   UNL     1      60.387  63.515  72.060  0.00  0.00    +0.000 C 
ATOM     15 CL   UNL     1      60.155  64.787  72.666  0.00  0.00    +0.000 Cl
ATOM     16  C   UNL     1      59.894  65.449  71.176  0.00  0.00    +0.000 C 
ATOM     17  O   UNL     1      59.843  65.920  71.852  0.00  0.00    +0.000 OA
ATOM     18  C   UNL     1      59.661  66.722  71.783  0.00  0.00    +0.000 C 
ATOM     19  S   UNL     1      59.611  67.193  72.458  0.00  0.00    +0.000 S 
ATOM     20  C   UNL     1      59.741  66.863  73.203  0.00  0.00    +0.000 C 
ATOM     21  C   UNL     1      59.531  67.052  71.038  0.00  0.00    +0.000 C 
ATOM     22  O   UNL     1      59.350  67.854  70.969  0.00  0.00    +0.000 OA
ATOM     23  C   UNL     1      59.582  66.581  70.363  0.00  0.00    +0.000 C 
ATOM     24  O   UNL     1      59.451  66.911  69.619  0.00  0.00    +0.000 OA
ATOM     25  C   UNL     1      59.763  65.780  70.432  0.00  0.00    +0.000 C 
ATOM     26  O   UNL     1      59.814  65.309  69.758  0.00  0.00    +0.000 OA
ENDROOT
TORSDOF 0
ENDMDL
MODEL 2
REMARK VINA RESULT:   -11.252      3.666      4.852
REMARK INTER + INTRA:         -11.252
REMARK INTER:                 -11.252
REMARK INTRA:                   0.000
REMARK UNBOUND:                 0.000
ROOT
REMARK  Name = pirlimycin
REMARK                            x       y       z     vdW  Elec       q    Type
REMARK                         _______ _______ _______ _____ _____    ______ ____
ATOM      1  C   UNL     1      62.385  65.042  71.394  0.00  0.00    +0.000 C 
ATOM      2  N   UNL     1      63.033  65.519  71.214  0.00  0.00    +0.000 NA
ATOM      3  C   UNL     1      63.317  66.057  71.771  0.00  0.00    +0.000 C 
ATOM      4  O   UNL     1      62.954  66.117  72.509  0.00  0.00    +0.000 OA
ATOM      5  C   UNL     1      63.965  66.535  71.591  0.00  0.00    +0.000 C 
ATOM      6  C   UNL     1      64.328  66.475  70.852  0.00  0.00    +0.000 C 
ATOM      7  C   UNL     1      64.977  66.953  70.672  0.00  0.00    +0.000 C 
ATOM      8  C   UNL     1      65.340  66.893  69.933  0.00  0.00    +0.000 C 
ATOM      9  C   UNL     1      65.987  67.371  69.753  0.00  0.00    +0.000 C 
ATOM     10  C   UNL     1      65.261  67.490  71.229  0.00  0.00    +0.000 C 
ATOM     11  C   UNL     1      64.897  67.550  71.967  0.00  0.00    +0.000 C 
ATOM     12  N   UNL     1      64.249  67.071  72.148  0.00  0.00    +0.000 NA
ATOM     13  C   UNL     1      62.021  65.101  72.132  0.00  0.00    +0.000 C 
ATOM     14  C   UNL     1      62.306  65.638  72.690  0.00  0.00    +0.000 C 
ATOM     15 CL   UNL     1      61.374  64.624  72.313  0.00  0.00    +0.000 Cl
ATOM     16  C   UNL     1      62.101  64.504  70.836  0.00  0.00    +0.000 C 
ATOM     17  O   UNL     1      61.453  64.026  71.017  0.00  0.00    +0.000 OA
ATOM     18  C   UNL     1      61.168  63.489  70.460  0.00  0.00    +0.000 C 
ATOM     19  S   UNL     1      60.521  63.011  70.640  0.00  0.00    +0.000 S 
ATOM     20  C   UNL     1      60.157  63.070  71.378  0.00  0.00    +0.000 C 
ATOM     21  C   UNL     1      61.532  63.430  69.721  0.00  0.00    +0.000 C 
ATOM     22  O   UNL     1      61.248  62.892  69.164  0.00  0.00    +0.000 OA
ATOM     23  C   UNL     1      62.179  63.907  69.541  0.00  0.00    +0.000 C 
ATOM     24  O   UNL     1      62.543  63.848  68.803  0.00  0.00    +0.000 OA
ATOM     25  C   UNL     1      62.464  64.444  70.098  0.00  0.00    +0.000 C 
ATOM     26  O   UNL     1      63.111  64.922  69.918  0.00  0.00    +0.000 OA
ENDROOT
TORSDOF 0
ENDMDL
MODEL 3
REMARK VINA RESULT:   -11.146      1.941      2.527
REMARK INTER + INTRA:         -11.146
REMARK INTER:                 -11.146
REMARK INTRA:                   0.000
REMARK UNBOUND:                 0.000
ROOT
REMARK  Name = pirlimycin
REMARK                            x       y       z     vdW  Elec       q    Type
REMARK                         _______ _______ _______ _____ _____    ______ ____
ATOM      1  C   UNL     1      61.658  64.210  70.057  0.00  0.00    +0.000 C 
ATOM      2  N   UNL     1      61.325  63.854  69.393  0.00  0.00    +0.000 NA
ATOM      3  C   UNL     1      61.787  63.717  68.723  0.00  0.00    +0.000 C 
ATOM      4  O   UNL     1      62.582  63.936  68.718  0.00  0.00    +0.000 OA
ATOM      5  C   UNL     1      61.455  63.360  68.058  0.00  0.00    +0.000 C 
ATOM      6  C   UNL     1      60.659  63.140  68.062  0.00  0.00    +0.000 C 
ATOM      7  C   UNL     1      60.326  62.783  67.396  0.00  0.00    +0.000 C 
ATOM      8  C   UNL     1      59.531  62.564  67.401  0.00  0.00    +0.000 C 
ATOM      9  C   UNL     1      59.198  62.207  66.736  0.00  0.00    +0.000 C 
ATOM     10  C   UNL     1      60.788  62.646  66.728  0.00  0.00    +0.000 C 
ATOM     11  C   UNL     1      61.584  62.866  66.723  0.00  0.00    +0.000 C 
ATOM     12  N   UNL     1      61.917  63.223  67.389  0.00  0.00    +0.000 NA
ATOM     13  C   UNL     1      62.453  64.430  70.054  0.00  0.00    +0.000 C 
ATOM     14  C   UNL     1      62.915  64.293  69.384  0.00  0.00    +0.000 C 
ATOM     15 CL   UNL     1      62.786  64.787  70.718  0.00  0.00    +0.000 Cl
ATOM     16  C   UNL     1      61.195  64.348  70.727  0.00  0.00    +0.000 C 
ATOM     17  O   UNL     1      61.529  64.705  71.392  0.00  0.00    +0.000 OA
ATOM     18  C   UNL     1      61.066  64.842  72.062  0.00  0.00    +0.000 C 
ATOM     19  S   UNL     1      61.399  65.199  72.726  0.00  0.00    +0.000 S 
ATOM     20  C   UNL     1      62.195  65.419  72.723  0.00  0.00    +0.000 C 
ATOM     21  C   UNL     1      60.271  64.622  72.065  0.00  0.00    +0.000 C 
ATOM     22  O   UNL     1      59.809  64.760  72.735  0.00  0.00    +0.000 OA
ATOM     23  C   UNL     1      59.938  64.266  71.401  0.00  0.00    +0.000 C 
ATOM     24  O   UNL     1      59.143  64.046  71.405  0.00  0.00    +0.000 OA
ATOM     25  C   UNL     1      60.400  64.129  70.731  0.00  0.00    +0.000 C 
ATOM     26  O   UNL     1      60.067  63.772  70.067  0.00  0.00    +0.000 OA
ENDROOT
TORSDOF 0
ENDMDL
MODEL 4
REMARK VINA RESULT:   -11.075      2.460      3.116
REMARK INTER + INTRA:         -11.075
REMARK INTER:                 -11.075
REMARK INTRA:                   0.000
REMARK UNBOUND:                 0.000
ROOT
REMARK  Name = pirlimycin
REMARK                            x       y       z     vdW  Elec       q    Type
REMARK                         _______ _______ _______ _____ _____    ______ ____
ATOM      1  C   UNL     1      61.374  63.993  69.640  0.00  0.00    +0.000 C 
ATOM      2  N   UNL     1      61.356  63.666  68.883  0.00  0.00    +0.000 NA
ATOM      3  C   UNL     1      60.654  63.348  68.588  0.00  0.00    +0.000 C 
ATOM      4  O   UNL     1      59.971  63.357  69.050  0.00  0.00    +0.000 OA
ATOM      5  C   UNL     1      60.635  63.021  67.831  0.00  0.00    +0.000 C 
ATOM      6  C   UNL     1      61.319  63.012  67.369  0.00  0.00    +0.000 C 
ATOM      7  C   UNL     1      61.301  62.685  66.611  0.00  0.00    +0.000 C 
ATOM      8  C   UNL     1      61.984  62.676  66.149  0.00  0.00    +0.000 C 
ATOM      9  C   UNL     1      61.965  62.349  65.392  0.00  0.00    +0.000 C 
ATOM     10  C   UNL     1      60.600  62.367  66.316  0.00  0.00    +0.000 C 
ATOM     11  C   UNL     1      59.916  62.376  66.779  0.00  0.00    +0.000 C 
ATOM     12  N   UNL     1      59.934  62.704  67.536  0.00  0.00    +0.000 NA
ATOM     13  C   UNL     1      60.691  64.002  70.103  0.00  0.00    +0.000 C 
ATOM     14  C   UNL     1      59.989  63.684  69.808  0.00  0.00    +0.000 C 
ATOM     15 CL   UNL     1      60.709  64.329  70.859  0.00  0.00    +0.000 Cl
ATOM     16  C   UNL     1      62.077  64.311  69.935  0.00  0.00    +0.000 C 
ATOM     17  O   UNL     1      62.094  64.638  70.693  0.00  0.00    +0.000 OA
ATOM     18  C   UNL     1      62.796  64.956  70.988  0.00  0.00    +0.000 C 
ATOM     19  S   UNL     1      62.814  65.283  71.745  0.00  0.00    +0.000 S 
ATOM     20  C   UNL     1      62.131  65.292  72.207  0.00  0.00    +0.000 C 
ATOM     21  C   UNL     1      63.479  64.947  70.525  0.00  0.00    +0.000 C 
ATOM     22  O   UNL     1      64.181  65.265  70.820  0.00  0.00    +0.000 OA
ATOM     23  C   UNL     1      63.461  64.620  69.769  0.00  0.00    +0.000 C 
ATOM     24  O   UNL     1      64.144  64.611  69.307  0.00  0.00    +0.000 OA
ATOM     25  C   UNL     1      62.760  64.302  69.474  0.00  0.00    +0.000 C 
ATOM     26  O   UNL     1      62.741  63.975  68.717  0.00  0.00    +0.000 OA
ENDROOT
TORSDOF 0
ENDMDL
MODEL 5
REMARK VINA RESULT:   -10.948      3.291      3.696
REMARK INTER + INTRA:         -10.948
REMARK INTER:                 -10.948
REMARK INTRA:                   0.000
REMARK UNBOUND:                 0.000
ROOT
REMARK  Name = pirlimycin
REMARK                            x       y       z     vdW  Elec       q    Type
REMARK                         _______ _______ _______ _____ _____    ______ ____
ATOM      1  C   UNL     1      62.786  65.197  71.494  0.00  0.00    +0.000 C 
ATOM      2  N   UNL     1      62.300  64.574  71.259  0.00  0.00    +0.000 NA
ATOM      3  C   UNL     1      61.659  64.352  71.727  0.00  0.00    +0.000 C 
ATOM      4  O   UNL     1      61.503  64.752  72.431  0.00  0.00    +0.000 OA
ATOM      5  C   UNL     1      61.172  63.728  71.493  0.00  0.00    +0.000 C 
ATOM      6  C   UNL     1      61.327  63.327  70.788  0.00  0.00    +0.000 C 
ATOM      7  C   UNL     1      60.840  62.703  70.553  0.00  0.00    +0.000 C 
ATOM      8  C   UNL     1      60.996  62.302  69.849  0.00  0.00    +0.000 C 
ATOM      9  C   UNL     1      60.509  61.679  69.614  0.00  0.00    +0.000 C 
ATOM     10  C   UNL     1      60.200  62.481  71.021  0.00  0.00    +0.000 C 
ATOM     11  C   UNL     1      60.044  62.882  71.726  0.00  0.00    +0.000 C 
ATOM     12  N   UNL     1      60.531  63.506  71.961  0.00  0.00    +0.000 NA
ATOM     13  C   UNL     1      62.631  65.599  72.198  0.00  0.00    +0.000 C 
ATOM     14  C   UNL     1      61.990  65.376  72.667  0.00  0.00    +0.000 C 
ATOM     15 CL   UNL     1      63.117  66.222  72.433  0.00  0.00    +0.000 Cl
ATOM     16  C   UNL     1      63.428  65.419  71.025  0.00  0.00    +0.000 C 
ATOM     17  O   UNL     1      63.914  66.043  71.260  0.00  0.00    +0.000 OA
ATOM     18  C   UNL     1      64.556  66.265  70.792  0.00  0.00    +0.000 C 
ATOM     19  S   UNL     1      65.042  66.888  71.027  0.00  0.00    +0.000 S 
ATOM     20  C   UNL     1      64.887  67.290  71.731  0.00  0.00    +0.000 C 
ATOM     21  C   UNL     1      64.711  65.863  70.088  0.00  0.00    +0.000 C 
ATOM     22  O   UNL     1      65.352  66.086  69.619  0.00  0.00    +0.000 OA
ATOM     23  C   UNL     1      64.225  65.240  69.853  0.00  0.00    +0.000 C 
ATOM     24  O   UNL     1      64.380  64.839  69.149  0.00  0.00    +0.000 OA
ATOM     25  C   UNL     1      63.583  65.018  70.321  0.00  0.00    +0.000 C 
ATOM     26  O   UNL     1      63.097  64.395  70.086  0.00  0.00    +0.000 OA
ENDROOT
TORSDOF 0
ENDMDL
MODEL 6
REMARK VINA RESULT:   -10.664      2.981      3.590
REMARK INTER + INTRA:         -10.664
REMARK INTER:                 -10.664
REMARK INTRA:                   0.000
REMARK UNBOUND:                 0.000
ROOT
REMARK  Name = pirlimycin
REMARK                            x       y       z     vdW  Elec       q    Type
REMARK                         _______ _______ _______ _____ _____    ______ ____
ATOM      1  C   UNL     1      61.467  65.195  71.272  0.00  0.00    +0.000 C 
ATOM      2  N   UNL     1      62.226  65.415  71.037  0.00  0.00    +0.000 NA
ATOM      3  C   UNL     1      62.667  64.917  70.550  0.00  0.00    +0.000 C 
ATOM      4  O   UNL     1      62.349  64.199  70.297  0.00  0.00    +0.000 OA
ATOM      5  C   UNL     1      63.426  65.137  70.314  0.00  0.00    +0.000 C 
ATOM      6  C   UNL     1      63.745  65.855  70.567  0.00  0.00    +0.000 C 
ATOM      7  C   UNL     1      64.505  66.075  70.331  0.00  0.00    +0.000 C 
ATOM      8  C   UNL     1      64.823  66.794  70.584  0.00  0.00    +0.000 C 
ATOM      9  C   UNL     1      65.582  67.013  70.348  0.00  0.00    +0.000 C 
ATOM     10  C   UNL     1      64.946  65.578  69.844  0.00  0.00    +0.000 C 
ATOM     11  C   UNL     1      64.627  64.859  69.592  0.00  0.00    +0.000 C 
ATOM     12  N   UNL     1      63.867  64.639  69.827  0.00  0.00    +0.000 NA
ATOM     13  C   UNL     1      61.148  64.477  71.020  0.00  0.00    +0.000 C 
ATOM     14  C   UNL     1      61.589  63.979  70.533  0.00  0.00    +0.000 C 
ATOM     15 CL   UNL     1      60.389  64.257  71.255  0.00  0.00    +0.000 Cl
ATOM     16  C   UNL     1      61.025  65.694  71.760  0.00  0.00    +0.000 C 
ATOM     17  O   UNL     1      60.265  65.474  71.995  0.00  0.00    +0.000 OA
ATOM     18  C   UNL     1      59.824  65.972  72.483  0.00  0.00    +0.000 C 
ATOM     19  S   UNL     1      59.065  65.752  72.718  0.00  0.00    +0.000 S 
ATOM     20  C   UNL     1      58.746  65.034  72.466  0.00  0.00    +0.000 C 
ATOM     21  C   UNL     1      60.143  66.690  72.735  0.00  0.00    +0.000 C 
ATOM     22  O   UNL     1      59.702  67.188  73.222  0.00  0.00    +0.000 OA
ATOM     23  C   UNL     1      60.902  66.910  72.500  0.00  0.00    +0.000 C 
ATOM     24  O   UNL     1      61.220  67.627  72.752  0.00  0.00    +0.000 OA
ATOM     25  C   UNL     1      61.343  66.412  72.012  0.00  0.00    +0.000 C 
ATOM     26  O   UNL     1      62.102  66.632  71.777  0.00  0.00    +0.000 OA
ENDROOT
TORSDOF 0
ENDMDL
MODEL 7
REMARK VINA RESULT:   -10.572      3.659      4.872
REMARK INTER + INTRA:         -10.572
REMARK INTER:                 -10.572
REMARK INTRA:                   0.000
REMARK UNBOUND:                 0.000
ROOT
REMARK  Name = pirlimycin
REMARK                            x       y       z     vdW  Elec       q    Type
REMARK                         _______ _______ _______ _____ _____    ______ ____
ATOM      1  C   UNL     1      62.562  64.387  70.428  0.00  0.00    +0.000 C 
ATOM      2  N   UNL     1      63.144  64.958  70.549  0.00  0.00    +0.000 NA
ATOM      3  C   UNL     1      63.635  65.184  69.926  0.00  0.00    +0.000 C 
ATOM      4  O   UNL     1      63.545  64.839  69.182  0.00  0.00    +0.000 OA
ATOM      5  C   UNL     1      64.218  65.756  70.046  0.00  0.00    +0.000 C 
ATOM      6  C   UNL     1      64.309  66.101  70.790  0.00  0.00    +0.000 C 
ATOM      7  C   UNL     1      64.891  66.674  70.911  0.00  0.00    +0.000 C 
ATOM      8  C   UNL     1      64.982  67.019  71.654  0.00  0.00    +0.000 C 
ATOM      9  C   UNL     1      65.564  67.590  71.774  0.00  0.00    +0.000 C 
ATOM     10  C   UNL     1      65.382  66.900  70.289  0.00  0.00    +0.000 C 
ATOM     11  C   UNL     1      65.291  66.554  69.544  0.00  0.00    +0.000 C 
ATOM     12  N   UNL     1      64.709  65.981  69.424  0.00  0.00    +0.000 NA
ATOM     13  C   UNL     1      62.470  64.040  69.684  0.00  0.00    +0.000 C 
ATOM     14  C   UNL     1      62.962  64.267  69.061  0.00  0.00    +0.000 C 
ATOM     15 CL   UNL     1      61.889  63.469  69.564  0.00  0.00    +0.000 Cl
ATOM     16  C   UNL     1      62.070  64.160  71.052  0.00  0.00    +0.000 C 
ATOM     17  O   UNL     1      61.488  63.588  70.930  0.00  0.00    +0.000 OA
ATOM     18  C   UNL     1      60.996  63.362  71.553  0.00  0.00    +0.000 C 
ATOM     19  S   UNL     1      60.414  62.791  71.432  0.00  0.00    +0.000 S 
ATOM     20  C   UNL     1      60.323  62.445  70.689  0.00  0.00    +0.000 C 
ATOM     21  C   UNL     1      61.088  63.708  72.296  0.00  0.00    +0.000 C 
ATOM     22  O   UNL     1      60.596  63.482  72.919  0.00  0.00    +0.000 OA
ATOM     23  C   UNL     1      61.669  64.280  72.417  0.00  0.00    +0.000 C 
ATOM     24  O   UNL     1      61.760  64.625  73.160  0.00  0.00    +0.000 OA
ATOM     25  C   UNL     1      62.161  64.506  71.794  0.00  0.00    +0.000 C 
ATOM     26  O   UNL     1      62.743  65.077  71.915  0.00  0.00    +0.000 OA
ENDROOT
TORSDOF 0
ENDMDL
MODEL 8
REMARK VINA RESULT:   -10.492      1.607      2.475
REMARK INTER + INTRA:         -10.492
REMARK INTER:                 -10.492
REMARK INTRA:                   0.000
REMARK UNBOUND:                 0.000
ROOT
REMARK  Name = pirlimycin
REMARK                            x       y       z     vdW  Elec       q    Type
REMARK                         _______ _______ _______ _____ _____    ______ ____
ATOM      1  C   UNL     1      60.454  65.054  70.558  0.00  0.00    +0.000 C 
ATOM      2  N   UNL     1      60.633  64.262  70.701  0.00  0.00    +0.000 NA
ATOM      3  C   UNL     1      60.376  63.680  70.175  0.00  0.00    +0.000 C 
ATOM      4  O   UNL     1      59.940  63.890  69.508  0.00  0.00    +0.000 OA
ATOM      5  C   UNL     1      60.555  62.888  70.317  0.00  0.00    +0.000 C 
ATOM      6  C   UNL     1      60.992  62.677  70.986  0.00  0.00    +0.000 C 
ATOM      7  C   UNL     1      61.171  61.884  71.128  0.00  0.00    +0.000 C 
ATOM      8  C   UNL     1      61.608  61.674  71.796  0.00  0.00    +0.000 C 
ATOM      9  C   UNL     1      61.787  60.882  71.938  0.00  0.00    +0.000 C 
ATOM     10  C   UNL     1      60.915  61.303  70.604  0.00  0.00    +0.000 C 
ATOM     11  C   UNL     1      60.478  61.513  69.935  0.00  0.00    +0.000 C 
ATOM     12  N   UNL     1      60.299  62.306  69.793  0.00  0.00    +0.000 NA
ATOM     13  C   UNL     1      60.017  65.265  69.890  0.00  0.00    +0.000 C 
ATOM     14  C   UNL     1      59.760  64.683  69.365  0.00  0.00    +0.000 C 
ATOM     15 CL   UNL     1      59.838  66.057  69.748  0.00  0.00    +0.000 Cl
ATOM     16  C   UNL     1      60.711  65.637  71.084  0.00  0.00    +0.000 C 
ATOM     17  O   UNL     1      60.531  66.430  70.941  0.00  0.00    +0.000 OA
ATOM     18  C   UNL     1      60.788  67.012  71.466  0.00  0.00    +0.000 C 
ATOM     19  S   UNL     1      60.608  67.803  71.323  0.00  0.00    +0.000 S 
ATOM     20  C   UNL     1      60.172  68.015  70.655  0.00  0.00    +0.000 C 
ATOM     21  C   UNL     1      61.224  66.800  72.134  0.00  0.00    +0.000 C 
ATOM     22  O   UNL     1      61.481  67.382  72.659  0.00  0.00    +0.000 OA
ATOM     23  C   UNL     1      61.404  66.009  72.276  0.00  0.00    +0.000 C 
ATOM     24  O   UNL     1      61.839  65.798  72.944  0.00  0.00    +0.000 OA
ATOM     25  C   UNL     1      61.147  65.427  71.751  0.00  0.00    +0.000 C 
ATOM     26  O   UNL     1      61.326  64.635  71.894  0.00  0.00    +0.000 OA
ENDROOT
TORSDOF 0
ENDMDL
MODEL 9
REMARK VINA RESULT:   -10.058      3.270      4.869
REMARK INTER + INTRA:         -10.058
REMARK INTER:                 -10.058
REMARK INTRA:                   0.000
REMARK UNBOUND:                 0.000
ROOT
REMARK  Name = pirlimycin
REMARK                            x       y       z     vdW  Elec       q    Type
REMARK                         _______ _______ _______ _____ _____    ______ ____
ATOM      1  C   UNL     1      62.537  65.072  69.922  0.00  0.00    +0.000 C 
ATOM      2  N   UNL     1      62.698  65.646  70.492  0.00  0.00    +0.000 NA
ATOM      3  C   UNL     1      63.473  65.764  70.750  0.00  0.00    +0.000 C 
ATOM      4  O   UNL     1      64.086  65.309  70.439  0.00  0.00    +0.000 OA
ATOM      5  C   UNL     1      63.635  66.338  71.320  0.00  0.00    +0.000 C 
ATOM      6  C   UNL     1      63.021  66.794  71.632  0.00  0.00    +0.000 C 
ATOM      7  C   UNL     1      63.183  67.368  72.203  0.00  0.00    +0.000 C 
ATOM      8  C   UNL     1      62.570  67.823  72.515  0.00  0.00    +0.000 C 
ATOM      9  C   UNL     1      62.732  68.397  73.085  0.00  0.00    +0.000 C 
ATOM     10  C   UNL     1      63.957  67.486  72.461  0.00  0.00    +0.000 C 
ATOM     11  C   UNL     1      64.571  67.031  72.149  0.00  0.00    +0.000 C 
ATOM     12  N   UNL     1      64.409  66.456  71.578  0.00  0.00    +0.000 NA
ATOM     13  C   UNL     1      63.150  64.616  69.610  0.00  0.00    +0.000 C 
ATOM     14  C   UNL     1      63.924  64.735  69.868  0.00  0.00    +0.000 C 
ATOM     15 CL   UNL     1      62.988  64.043  69.040  0.00  0.00    +0.000 Cl
ATOM     16  C   UNL     1      61.761  64.954  69.664  0.00  0.00    +0.000 C 
ATOM     17  O   UNL     1      61.600  64.379  69.094  0.00  0.00    +0.000 OA
ATOM     18  C   UNL     1      60.826  64.261  68.835  0.00  0.00    +0.000 C 
ATOM     19  S   UNL     1      60.665  63.687  68.266  0.00  0.00    +0.000 S 
ATOM     20  C   UNL     1      61.277  63.232  67.953  0.00  0.00    +0.000 C 
ATOM     21  C   UNL     1      60.213  64.717  69.148  0.00  0.00    +0.000 C 
ATOM     22  O   UNL     1      59.439  64.599  68.890  0.00  0.00    +0.000 OA
ATOM     23  C   UNL     1      60.374  65.291  69.718  0.00  0.00    +0.000 C 
ATOM     24  O   UNL     1      59.762  65.746  70.030  0.00  0.00    +0.000 OA
ATOM     25  C   UNL     1      61.149  65.409  69.976  0.00  0.00    +0.000 C 
ATOM     26  O   UNL     1      61.310  65.983  70.546  0.00  0.00    +0.000 OA
ENDROOT
TORSDOF 0
ENDMDL
