MODEL 1
REMARK VINA RESULT:    -7.703      0.000      0.000
REMARK INTER + INTRA:          -7.703
REMARK INTER:                  -7.703
REMARK INTRA:                   0.000
REMARK UNBOUND:                 0.000
ROOT
REMARK  Name = pivagabine
REMARK                            x       y       z     vdW  Elec       q    Type
REMARK                         _______ _______ _______ _____ _____    ______ ____
ATOM      1  C   UNL     1      62.372  61.800  63.875  0.00  0.00    +0.000 C 
ATOM      2  C   UNL     1      61.840  61.747  64.504  0.00  0.00    +0.000 C 
ATOM      3  C   UNL     1      62.360  62.177  64.979  0.00  0.00    +0.000 C 
ATOM      4  C   UNL     1      61.321  61.318  64.028  0.00  0.00    +0.000 C 
ATOM      5  C   UNL     1      61.308  61.695  65.132  0.00  0.00    +0.000 C 
ATOM      6  O   UNL     1      60.592  61.296  65.034  0.00  0.00    +0.000 OA
ATOM      7  N   UNL     1      61.492  62.040  65.859  0.00  0.00    +0.000 NA
ATOM      8  C   UNL     1      60.960  61.988  66.487  0.00  0.00    +0.000 C 
ATOM      9  C   UNL     1      61.144  62.333  67.213  0.00  0.00    +0.000 C 
ATOM     10  C   UNL     1      60.612  62.281  67.842  0.00  0.00    +0.000 C 
ATOM     11  C   UNL     1      60.796  62.626  68.567  0.00  0.00    +0.000 C 
ATOM     12  O   UNL     1      60.264  62.574  69.196  0.00  0.00    +0.000 OA
ATOM     13  O   UNL     1      61.513  63.025  68.665  0.00  0.00    +0.000 OA
ENDROOT
TORSDOF 0
ENDMDL
MODEL 2
REMARK VINA RESULT:    -7.392      1.165      3.923
REMARK INTER + INTRA:          -7.392
REMARK INTER:                  -7.392
REMARK INTRA:                   0.000
REMARK UNBOUND:                 0.000
ROOT
REMARK  Name = pivagabine
REMARK                            x       y       z     vdW  Elec       q    Type
REMARK                         _______ _______ _______ _____ _____    ______ ____
ATOM      1  C   UNL     1      60.054  62.709  68.202  0.00  0.00    +0.000 C 
ATOM      2  C   UNL     1      60.667  62.720  67.649  0.00  0.00    +0.000 C 
ATOM      3  C   UNL     1      60.196  62.295  67.120  0.00  0.00    +0.000 C 
ATOM      4  C   UNL     1      61.137  63.144  68.178  0.00  0.00    +0.000 C 
ATOM      5  C   UNL     1      61.278  62.730  67.096  0.00  0.00    +0.000 C 
ATOM      6  O   UNL     1      61.992  63.102  67.277  0.00  0.00    +0.000 OA
ATOM      7  N   UNL     1      61.178  62.368  66.361  0.00  0.00    +0.000 NA
ATOM      8  C   UNL     1      61.789  62.378  65.809  0.00  0.00    +0.000 C 
ATOM      9  C   UNL     1      61.689  62.016  65.074  0.00  0.00    +0.000 C 
ATOM     10  C   UNL     1      62.300  62.026  64.521  0.00  0.00    +0.000 C 
ATOM     11  C   UNL     1      62.199  61.664  63.788  0.00  0.00    +0.000 C 
ATOM     12  O   UNL     1      62.811  61.674  63.234  0.00  0.00    +0.000 OA
ATOM     13  O   UNL     1      61.485  61.291  63.606  0.00  0.00    +0.000 OA
ENDROOT
TORSDOF 0
ENDMDL
MODEL 3
REMARK VINA RESULT:    -6.892      3.051      5.496
REMARK INTER + INTRA:          -6.892
REMARK INTER:                  -6.892
REMARK INTRA:                   0.000
REMARK UNBOUND:                 0.000
ROOT
REMARK  Name = pivagabine
REMARK                            x       y       z     vdW  Elec       q    Type
REMARK                         _______ _______ _______ _____ _____    ______ ____
ATOM      1  C   UNL     1      61.288  63.129  72.787  0.00  0.00    +0.000 C 
ATOM      2  C   UNL     1      61.270  62.701  72.082  0.00  0.00    +0.000 C 
ATOM      3  C   UNL     1      60.848  63.311  71.722  0.00  0.00    +0.000 C 
ATOM      4  C   UNL     1      61.693  62.091  72.442  0.00  0.00    +0.000 C 
ATOM      5  C   UNL     1      61.253  62.273  71.377  0.00  0.00    +0.000 C 
ATOM      6  O   UNL     1      61.610  61.531  71.336  0.00  0.00    +0.000 OA
ATOM      7  N   UNL     1      60.878  62.587  70.712  0.00  0.00    +0.000 NA
ATOM      8  C   UNL     1      60.861  62.160  70.008  0.00  0.00    +0.000 C 
ATOM      9  C   UNL     1      60.486  62.474  69.343  0.00  0.00    +0.000 C 
ATOM     10  C   UNL     1      60.469  62.046  68.638  0.00  0.00    +0.000 C 
ATOM     11  C   UNL     1      60.094  62.360  67.974  0.00  0.00    +0.000 C 
ATOM     12  O   UNL     1      60.077  61.932  67.269  0.00  0.00    +0.000 OA
ATOM     13  O   UNL     1      59.737  63.103  68.015  0.00  0.00    +0.000 OA
ENDROOT
TORSDOF 0
ENDMDL
MODEL 4
REMARK VINA RESULT:    -6.837      5.546      7.040
REMARK INTER + INTRA:          -6.837
REMARK INTER:                  -6.837
REMARK INTRA:                   0.000
REMARK UNBOUND:                 0.000
ROOT
REMARK  Name = pivagabine
REMARK                            x       y       z     vdW  Elec       q    Type
REMARK                         _______ _______ _______ _____ _____    ______ ____
ATOM      1  C   UNL     1      66.249  67.696  70.076  0.00  0.00    +0.000 C 
ATOM      2  C   UNL     1      65.801  67.096  70.424  0.00  0.00    +0.000 C 
ATOM      3  C   UNL     1      65.428  66.956  69.701  0.00  0.00    +0.000 C 
ATOM      4  C   UNL     1      66.174  67.237  71.146  0.00  0.00    +0.000 C 
ATOM      5  C   UNL     1      65.353  66.497  70.772  0.00  0.00    +0.000 C 
ATOM      6  O   UNL     1      65.452  66.320  71.571  0.00  0.00    +0.000 OA
ATOM      7  N   UNL     1      64.806  66.075  70.320  0.00  0.00    +0.000 NA
ATOM      8  C   UNL     1      64.359  65.477  70.668  0.00  0.00    +0.000 C 
ATOM      9  C   UNL     1      63.812  65.055  70.217  0.00  0.00    +0.000 C 
ATOM     10  C   UNL     1      63.364  64.456  70.564  0.00  0.00    +0.000 C 
ATOM     11  C   UNL     1      62.818  64.035  70.113  0.00  0.00    +0.000 C 
ATOM     12  O   UNL     1      62.369  63.435  70.460  0.00  0.00    +0.000 OA
ATOM     13  O   UNL     1      62.718  64.213  69.312  0.00  0.00    +0.000 OA
ENDROOT
TORSDOF 0
ENDMDL
MODEL 5
REMARK VINA RESULT:    -6.402     18.818     19.368
REMARK INTER + INTRA:          -6.402
REMARK INTER:                  -6.402
REMARK INTRA:                   0.000
REMARK UNBOUND:                 0.000
ROOT
REMARK  Name = pivagabine
REMARK                            x       y       z     vdW  Elec       q    Type
REMARK                         _______ _______ _______ _____ _____    ______ ____
ATOM      1  C   UNL     1      64.135  81.502  57.565  0.00  0.00    +0.000 C 
ATOM      2  C   UNL     1      64.168  80.779  57.963  0.00  0.00    +0.000 C 
ATOM      3  C   UNL     1      64.990  80.840  58.003  0.00  0.00    +0.000 C 
ATOM      4  C   UNL     1      63.346  80.720  57.922  0.00  0.00    +0.000 C 
ATOM      5  C   UNL     1      64.202  80.057  58.360  0.00  0.00    +0.000 C 
ATOM      6  O   UNL     1      63.507  79.644  58.523  0.00  0.00    +0.000 OA
ATOM      7  N   UNL     1      64.930  79.748  58.593  0.00  0.00    +0.000 NA
ATOM      8  C   UNL     1      64.964  79.026  58.990  0.00  0.00    +0.000 C 
ATOM      9  C   UNL     1      65.692  78.716  59.224  0.00  0.00    +0.000 C 
ATOM     10  C   UNL     1      65.726  77.995  59.621  0.00  0.00    +0.000 C 
ATOM     11  C   UNL     1      66.454  77.686  59.854  0.00  0.00    +0.000 C 
ATOM     12  O   UNL     1      66.488  76.963  60.252  0.00  0.00    +0.000 OA
ATOM     13  O   UNL     1      67.149  78.100  59.690  0.00  0.00    +0.000 OA
ENDROOT
TORSDOF 0
ENDMDL
MODEL 6
REMARK VINA RESULT:    -6.344     24.648     25.299
REMARK INTER + INTRA:          -6.344
REMARK INTER:                  -6.344
REMARK INTRA:                   0.000
REMARK UNBOUND:                 0.000
ROOT
REMARK  Name = pivagabine
REMARK                            x       y       z     vdW  Elec       q    Type
REMARK                         _______ _______ _______ _____ _____    ______ ____
ATOM      1  C   UNL     1      71.914  78.896  48.647  0.00  0.00    +0.000 C 
ATOM      2  C   UNL     1      71.234  78.902  49.116  0.00  0.00    +0.000 C 
ATOM      3  C   UNL     1      71.446  79.642  49.412  0.00  0.00    +0.000 C 
ATOM      4  C   UNL     1      71.024  78.162  48.819  0.00  0.00    +0.000 C 
ATOM      5  C   UNL     1      70.556  78.908  49.583  0.00  0.00    +0.000 C 
ATOM      6  O   UNL     1      70.033  78.270  49.561  0.00  0.00    +0.000 OA
ATOM      7  N   UNL     1      70.398  79.552  50.075  0.00  0.00    +0.000 NA
ATOM      8  C   UNL     1      69.720  79.558  50.543  0.00  0.00    +0.000 C 
ATOM      9  C   UNL     1      69.562  80.202  51.034  0.00  0.00    +0.000 C 
ATOM     10  C   UNL     1      68.883  80.208  51.502  0.00  0.00    +0.000 C 
ATOM     11  C   UNL     1      68.726  80.852  51.993  0.00  0.00    +0.000 C 
ATOM     12  O   UNL     1      68.047  80.859  52.461  0.00  0.00    +0.000 OA
ATOM     13  O   UNL     1      69.249  81.491  52.015  0.00  0.00    +0.000 OA
ENDROOT
TORSDOF 0
ENDMDL
MODEL 7
REMARK VINA RESULT:    -6.294      5.413      6.436
REMARK INTER + INTRA:          -6.294
REMARK INTER:                  -6.294
REMARK INTRA:                   0.000
REMARK UNBOUND:                 0.000
ROOT
REMARK  Name = pivagabine
REMARK                            x       y       z     vdW  Elec       q    Type
REMARK                         _______ _______ _______ _____ _____    ______ ____
ATOM      1  C   UNL     1      60.946  63.536  72.844  0.00  0.00    +0.000 C 
ATOM      2  C   UNL     1      61.462  63.511  72.200  0.00  0.00    +0.000 C 
ATOM      3  C   UNL     1      61.718  64.275  72.376  0.00  0.00    +0.000 C 
ATOM      4  C   UNL     1      61.206  62.746  72.025  0.00  0.00    +0.000 C 
ATOM      5  C   UNL     1      61.978  63.486  71.558  0.00  0.00    +0.000 C 
ATOM      6  O   UNL     1      62.015  62.811  71.084  0.00  0.00    +0.000 OA
ATOM      7  N   UNL     1      62.458  64.135  71.388  0.00  0.00    +0.000 NA
ATOM      8  C   UNL     1      62.974  64.110  70.745  0.00  0.00    +0.000 C 
ATOM      9  C   UNL     1      63.454  64.759  70.575  0.00  0.00    +0.000 C 
ATOM     10  C   UNL     1      63.970  64.735  69.933  0.00  0.00    +0.000 C 
ATOM     11  C   UNL     1      64.450  65.383  69.763  0.00  0.00    +0.000 C 
ATOM     12  O   UNL     1      64.966  65.359  69.120  0.00  0.00    +0.000 OA
ATOM     13  O   UNL     1      64.413  66.059  70.238  0.00  0.00    +0.000 OA
ENDROOT
TORSDOF 0
ENDMDL
MODEL 8
REMARK VINA RESULT:    -6.212      4.012      5.254
REMARK INTER + INTRA:          -6.212
REMARK INTER:                  -6.212
REMARK INTRA:                   0.000
REMARK UNBOUND:                 0.000
ROOT
REMARK  Name = pivagabine
REMARK                            x       y       z     vdW  Elec       q    Type
REMARK                         _______ _______ _______ _____ _____    ______ ____
ATOM      1  C   UNL     1      60.682  62.001  69.193  0.00  0.00    +0.000 C 
ATOM      2  C   UNL     1      60.503  62.558  69.775  0.00  0.00    +0.000 C 
ATOM      3  C   UNL     1      60.384  63.129  69.191  0.00  0.00    +0.000 C 
ATOM      4  C   UNL     1      60.623  61.987  70.358  0.00  0.00    +0.000 C 
ATOM      5  C   UNL     1      60.324  63.115  70.356  0.00  0.00    +0.000 C 
ATOM      6  O   UNL     1      60.338  62.900  71.152  0.00  0.00    +0.000 OA
ATOM      7  N   UNL     1      60.132  63.889  70.142  0.00  0.00    +0.000 NA
ATOM      8  C   UNL     1      59.953  64.446  70.723  0.00  0.00    +0.000 C 
ATOM      9  C   UNL     1      59.760  65.219  70.508  0.00  0.00    +0.000 C 
ATOM     10  C   UNL     1      59.581  65.776  71.089  0.00  0.00    +0.000 C 
ATOM     11  C   UNL     1      59.389  66.548  70.875  0.00  0.00    +0.000 C 
ATOM     12  O   UNL     1      59.209  67.106  71.456  0.00  0.00    +0.000 OA
ATOM     13  O   UNL     1      59.375  66.764  70.078  0.00  0.00    +0.000 OA
ENDROOT
TORSDOF 0
ENDMDL
MODEL 9
REMARK VINA RESULT:    -6.169      6.640      7.745
REMARK INTER + INTRA:          -6.169
REMARK INTER:                  -6.169
REMARK INTRA:                   0.000
REMARK UNBOUND:                 0.000
ROOT
REMARK  Name = pivagabine
REMARK                            x       y       z     vdW  Elec       q    Type
REMARK                         _______ _______ _______ _____ _____    ______ ____
ATOM      1  C   UNL     1      61.748  65.467  72.849  0.00  0.00    +0.000 C 
ATOM      2  C   UNL     1      62.334  65.459  72.268  0.00  0.00    +0.000 C 
ATOM      3  C   UNL     1      62.617  66.183  72.545  0.00  0.00    +0.000 C 
ATOM      4  C   UNL     1      62.049  64.736  71.991  0.00  0.00    +0.000 C 
ATOM      5  C   UNL     1      62.919  65.452  71.687  0.00  0.00    +0.000 C 
ATOM      6  O   UNL     1      62.966  64.821  71.157  0.00  0.00    +0.000 OA
ATOM      7  N   UNL     1      63.458  66.074  71.636  0.00  0.00    +0.000 NA
ATOM      8  C   UNL     1      64.043  66.066  71.055  0.00  0.00    +0.000 C 
ATOM      9  C   UNL     1      64.583  66.689  71.004  0.00  0.00    +0.000 C 
ATOM     10  C   UNL     1      65.168  66.681  70.423  0.00  0.00    +0.000 C 
ATOM     11  C   UNL     1      65.706  67.303  70.372  0.00  0.00    +0.000 C 
ATOM     12  O   UNL     1      66.292  67.296  69.791  0.00  0.00    +0.000 OA
ATOM     13  O   UNL     1      65.660  67.934  70.903  0.00  0.00    +0.000 OA
ENDROOT
TORSDOF 0
ENDMDL
