MODEL 1
REMARK VINA RESULT:   -13.470      0.000      0.000
REMARK INTER + INTRA:         -13.470
REMARK INTER:                 -13.470
REMARK INTRA:                   0.000
REMARK UNBOUND:                 0.000
ROOT
REMARK  Name = pivmecillinam
REMARK                            x       y       z     vdW  Elec       q    Type
REMARK                         _______ _______ _______ _____ _____    ______ ____
ATOM      1  C   UNL     1      60.896  60.696  63.661  0.00  0.00    +0.000 C 
ATOM      2  C   UNL     1      61.231  61.237  64.186  0.00  0.00    +0.000 C 
ATOM      3  C   UNL     1      60.705  60.993  64.772  0.00  0.00    +0.000 C 
ATOM      4  C   UNL     1      61.758  61.481  63.599  0.00  0.00    +0.000 C 
ATOM      5  C   UNL     1      61.566  61.778  64.711  0.00  0.00    +0.000 C 
ATOM      6  O   UNL     1      62.189  62.260  64.466  0.00  0.00    +0.000 OA
ATOM      7  O   UNL     1      61.277  61.837  65.482  0.00  0.00    +0.000 OA
ATOM      8  C   UNL     1      61.612  62.378  66.007  0.00  0.00    +0.000 C 
ATOM      9  O   UNL     1      61.324  62.437  66.778  0.00  0.00    +0.000 OA
ATOM     10  C   UNL     1      61.658  62.978  67.303  0.00  0.00    +0.000 C 
ATOM     11  O   UNL     1      62.281  63.460  67.058  0.00  0.00    +0.000 OA
ATOM     12  C   UNL     1      61.369  63.037  68.074  0.00  0.00    +0.000 C 
ATOM     13  N   UNL     1      61.647  63.550  68.658  0.00  0.00    +0.000 N 
ATOM     14  C   UNL     1      61.202  63.424  69.341  0.00  0.00    +0.000 C 
ATOM     15  S   UNL     1      60.649  62.833  69.179  0.00  0.00    +0.000 S 
ATOM     16  C   UNL     1      60.752  62.595  68.396  0.00  0.00    +0.000 C 
ATOM     17  C   UNL     1      60.153  62.027  68.390  0.00  0.00    +0.000 C 
ATOM     18  C   UNL     1      60.590  62.151  67.719  0.00  0.00    +0.000 C 
ATOM     19  C   UNL     1      61.639  64.004  69.733  0.00  0.00    +0.000 C 
ATOM     20  N   UNL     1      61.633  64.324  70.493  0.00  0.00    +0.000 NA
ATOM     21  C   UNL     1      62.170  64.917  70.694  0.00  0.00    +0.000 C 
ATOM     22  N   UNL     1      62.163  65.238  71.455  0.00  0.00    +0.000 N 
ATOM     23  C   UNL     1      62.723  65.827  71.599  0.00  0.00    +0.000 C 
ATOM     24  C   UNL     1      62.856  66.251  72.294  0.00  0.00    +0.000 C 
ATOM     25  C   UNL     1      62.462  66.190  73.017  0.00  0.00    +0.000 C 
ATOM     26  C   UNL     1      61.839  65.691  73.222  0.00  0.00    +0.000 C 
ATOM     27  C   UNL     1      61.455  65.129  72.757  0.00  0.00    +0.000 C 
ATOM     28  C   UNL     1      61.599  64.928  71.970  0.00  0.00    +0.000 C 
ATOM     29  C   UNL     1      62.084  64.130  69.050  0.00  0.00    +0.000 C 
ATOM     30  O   UNL     1      62.708  64.629  68.844  0.00  0.00    +0.000 OA
ENDROOT
TORSDOF 0
ENDMDL
MODEL 2
REMARK VINA RESULT:   -13.065      1.842      6.695
REMARK INTER + INTRA:         -13.065
REMARK INTER:                 -13.065
REMARK INTRA:                   0.000
REMARK UNBOUND:                 0.000
ROOT
REMARK  Name = pivmecillinam
REMARK                            x       y       z     vdW  Elec       q    Type
REMARK                         _______ _______ _______ _____ _____    ______ ____
ATOM      1  C   UNL     1      60.163  65.734  73.222  0.00  0.00    +0.000 C 
ATOM      2  C   UNL     1      59.975  65.286  72.555  0.00  0.00    +0.000 C 
ATOM      3  C   UNL     1      60.717  65.450  72.236  0.00  0.00    +0.000 C 
ATOM      4  C   UNL     1      59.231  65.123  72.874  0.00  0.00    +0.000 C 
ATOM      5  C   UNL     1      59.787  64.839  71.888  0.00  0.00    +0.000 C 
ATOM      6  O   UNL     1      59.050  64.474  71.830  0.00  0.00    +0.000 OA
ATOM      7  O   UNL     1      60.336  64.758  71.278  0.00  0.00    +0.000 OA
ATOM      8  C   UNL     1      60.148  64.310  70.610  0.00  0.00    +0.000 C 
ATOM      9  O   UNL     1      60.697  64.229  70.001  0.00  0.00    +0.000 OA
ATOM     10  C   UNL     1      60.510  63.782  69.333  0.00  0.00    +0.000 C 
ATOM     11  O   UNL     1      59.772  63.416  69.276  0.00  0.00    +0.000 OA
ATOM     12  C   UNL     1      61.060  63.700  68.723  0.00  0.00    +0.000 C 
ATOM     13  N   UNL     1      60.950  63.272  68.026  0.00  0.00    +0.000 N 
ATOM     14  C   UNL     1      61.638  63.339  67.575  0.00  0.00    +0.000 C 
ATOM     15  S   UNL     1      62.172  63.808  67.994  0.00  0.00    +0.000 S 
ATOM     16  C   UNL     1      61.814  64.031  68.703  0.00  0.00    +0.000 C 
ATOM     17  C   UNL     1      62.447  64.475  68.993  0.00  0.00    +0.000 C 
ATOM     18  C   UNL     1      61.772  64.409  69.436  0.00  0.00    +0.000 C 
ATOM     19  C   UNL     1      61.300  62.868  66.988  0.00  0.00    +0.000 C 
ATOM     20  N   UNL     1      61.546  62.582  66.255  0.00  0.00    +0.000 NA
ATOM     21  C   UNL     1      61.041  62.109  65.806  0.00  0.00    +0.000 C 
ATOM     22  N   UNL     1      61.289  61.824  65.072  0.00  0.00    +0.000 N 
ATOM     23  C   UNL     1      60.742  61.357  64.667  0.00  0.00    +0.000 C 
ATOM     24  C   UNL     1      60.821  60.993  63.931  0.00  0.00    +0.000 C 
ATOM     25  C   UNL     1      61.467  61.007  63.417  0.00  0.00    +0.000 C 
ATOM     26  C   UNL     1      62.192  61.388  63.513  0.00  0.00    +0.000 C 
ATOM     27  C   UNL     1      62.452  61.849  64.147  0.00  0.00    +0.000 C 
ATOM     28  C   UNL     1      62.049  62.043  64.841  0.00  0.00    +0.000 C 
ATOM     29  C   UNL     1      60.612  62.801  67.439  0.00  0.00    +0.000 C 
ATOM     30  O   UNL     1      59.886  62.420  67.344  0.00  0.00    +0.000 OA
ENDROOT
TORSDOF 0
ENDMDL
MODEL 3
REMARK VINA RESULT:   -10.560     14.693     15.224
REMARK INTER + INTRA:         -10.560
REMARK INTER:                 -10.560
REMARK INTRA:                   0.000
REMARK UNBOUND:                 0.000
ROOT
REMARK  Name = pivmecillinam
REMARK                            x       y       z     vdW  Elec       q    Type
REMARK                         _______ _______ _______ _____ _____    ______ ____
ATOM      1  C   UNL     1      62.837  57.833  52.221  0.00  0.00    +0.000 C 
ATOM      2  C   UNL     1      62.499  58.580  52.308  0.00  0.00    +0.000 C 
ATOM      3  C   UNL     1      63.213  58.868  52.607  0.00  0.00    +0.000 C 
ATOM      4  C   UNL     1      61.785  58.293  52.010  0.00  0.00    +0.000 C 
ATOM      5  C   UNL     1      62.162  59.328  52.397  0.00  0.00    +0.000 C 
ATOM      6  O   UNL     1      61.375  59.453  52.182  0.00  0.00    +0.000 OA
ATOM      7  O   UNL     1      62.611  59.950  52.699  0.00  0.00    +0.000 OA
ATOM      8  C   UNL     1      62.274  60.698  52.787  0.00  0.00    +0.000 C 
ATOM      9  O   UNL     1      62.723  61.320  53.089  0.00  0.00    +0.000 OA
ATOM     10  C   UNL     1      62.385  62.068  53.177  0.00  0.00    +0.000 C 
ATOM     11  O   UNL     1      61.599  62.193  52.963  0.00  0.00    +0.000 OA
ATOM     12  C   UNL     1      62.835  62.691  53.479  0.00  0.00    +0.000 C 
ATOM     13  N   UNL     1      62.574  63.465  53.598  0.00  0.00    +0.000 N 
ATOM     14  C   UNL     1      63.202  63.901  53.908  0.00  0.00    +0.000 C 
ATOM     15  S   UNL     1      63.850  63.396  53.980  0.00  0.00    +0.000 S 
ATOM     16  C   UNL     1      63.624  62.649  53.715  0.00  0.00    +0.000 C 
ATOM     17  C   UNL     1      64.349  62.278  53.847  0.00  0.00    +0.000 C 
ATOM     18  C   UNL     1      63.733  61.849  53.542  0.00  0.00    +0.000 C 
ATOM     19  C   UNL     1      62.723  64.573  53.932  0.00  0.00    +0.000 C 
ATOM     20  N   UNL     1      62.829  65.356  54.168  0.00  0.00    +0.000 NA
ATOM     21  C   UNL     1      62.203  65.891  54.111  0.00  0.00    +0.000 C 
ATOM     22  N   UNL     1      62.310  66.675  54.347  0.00  0.00    +0.000 N 
ATOM     23  C   UNL     1      61.650  67.165  54.267  0.00  0.00    +0.000 C 
ATOM     24  C   UNL     1      61.579  67.966  54.452  0.00  0.00    +0.000 C 
ATOM     25  C   UNL     1      62.150  68.474  54.763  0.00  0.00    +0.000 C 
ATOM     26  C   UNL     1      62.931  68.308  54.965  0.00  0.00    +0.000 C 
ATOM     27  C   UNL     1      63.337  67.592  54.907  0.00  0.00    +0.000 C 
ATOM     28  C   UNL     1      63.060  66.865  54.631  0.00  0.00    +0.000 C 
ATOM     29  C   UNL     1      62.095  64.137  53.622  0.00  0.00    +0.000 C 
ATOM     30  O   UNL     1      61.312  64.302  53.419  0.00  0.00    +0.000 OA
ENDROOT
TORSDOF 0
ENDMDL
