MODEL 1
REMARK VINA RESULT:   -12.689      0.000      0.000
REMARK INTER + INTRA:         -12.689
REMARK INTER:                 -12.689
REMARK INTRA:                   0.000
REMARK UNBOUND:                 0.000
ROOT
REMARK  Name = poldine
REMARK                            x       y       z     vdW  Elec       q    Type
REMARK                         _______ _______ _______ _____ _____    ______ ____
ATOM      1  C   UNL     1      62.857  64.256  69.163  0.00  0.00    +0.000 C 
ATOM      2  N   UNL     1      62.064  64.146  69.361  0.00  0.00    +0.000 N 
ATOM      3  C   UNL     1      62.020  63.780  68.623  0.00  0.00    +0.000 C 
ATOM      4  C   UNL     1      62.273  64.535  70.058  0.00  0.00    +0.000 C 
ATOM      5  C   UNL     1      61.600  64.589  70.532  0.00  0.00    +0.000 C 
ATOM      6  C   UNL     1      60.975  64.233  70.129  0.00  0.00    +0.000 C 
ATOM      7  C   UNL     1      61.261  63.959  69.405  0.00  0.00    +0.000 C 
ATOM      8  C   UNL     1      60.823  63.568  68.827  0.00  0.00    +0.000 C 
ATOM      9  O   UNL     1      61.185  63.325  68.126  0.00  0.00    +0.000 OA
ATOM     10  C   UNL     1      60.746  62.934  67.548  0.00  0.00    +0.000 C 
ATOM     11  O   UNL     1      59.944  62.784  67.670  0.00  0.00    +0.000 OA
ATOM     12  C   UNL     1      61.109  62.692  66.848  0.00  0.00    +0.000 C 
ATOM     13  O   UNL     1      61.826  63.004  67.112  0.00  0.00    +0.000 OA
ATOM     14  C   UNL     1      61.471  62.449  66.148  0.00  0.00    +0.000 A 
ATOM     15  C   UNL     1      61.033  62.058  65.570  0.00  0.00    +0.000 A 
ATOM     16  C   UNL     1      61.395  61.816  64.870  0.00  0.00    +0.000 A 
ATOM     17  C   UNL     1      62.197  61.965  64.748  0.00  0.00    +0.000 A 
ATOM     18  C   UNL     1      62.637  62.357  65.327  0.00  0.00    +0.000 A 
ATOM     19  C   UNL     1      62.273  62.599  66.027  0.00  0.00    +0.000 A 
ATOM     20  C   UNL     1      60.392  62.379  66.585  0.00  0.00    +0.000 A 
ATOM     21  C   UNL     1      59.719  62.433  67.060  0.00  0.00    +0.000 A 
ATOM     22  C   UNL     1      59.003  62.121  66.796  0.00  0.00    +0.000 A 
ATOM     23  C   UNL     1      58.959  61.755  66.058  0.00  0.00    +0.000 A 
ATOM     24  C   UNL     1      59.632  61.701  65.583  0.00  0.00    +0.000 A 
ATOM     25  C   UNL     1      60.348  62.013  65.847  0.00  0.00    +0.000 A 
ENDROOT
TORSDOF 0
ENDMDL
MODEL 2
REMARK VINA RESULT:   -12.474      1.599      4.134
REMARK INTER + INTRA:         -12.474
REMARK INTER:                 -12.474
REMARK INTRA:                   0.000
REMARK UNBOUND:                 0.000
ROOT
REMARK  Name = poldine
REMARK                            x       y       z     vdW  Elec       q    Type
REMARK                         _______ _______ _______ _____ _____    ______ ____
ATOM      1  C   UNL     1      61.841  60.889  66.134  0.00  0.00    +0.000 C 
ATOM      2  N   UNL     1      61.810  61.691  65.943  0.00  0.00    +0.000 N 
ATOM      3  C   UNL     1      61.552  61.778  66.721  0.00  0.00    +0.000 C 
ATOM      4  C   UNL     1      62.075  61.436  65.205  0.00  0.00    +0.000 C 
ATOM      5  C   UNL     1      62.154  62.099  64.719  0.00  0.00    +0.000 C 
ATOM      6  C   UNL     1      61.938  62.764  65.158  0.00  0.00    +0.000 C 
ATOM      7  C   UNL     1      61.725  62.511  65.915  0.00  0.00    +0.000 C 
ATOM      8  C   UNL     1      61.473  62.994  66.533  0.00  0.00    +0.000 C 
ATOM      9  O   UNL     1      61.278  62.662  67.263  0.00  0.00    +0.000 OA
ATOM     10  C   UNL     1      61.025  63.146  67.882  0.00  0.00    +0.000 C 
ATOM     11  O   UNL     1      60.967  63.961  67.772  0.00  0.00    +0.000 OA
ATOM     12  C   UNL     1      60.830  62.813  68.612  0.00  0.00    +0.000 C 
ATOM     13  O   UNL     1      61.010  62.063  68.318  0.00  0.00    +0.000 OA
ATOM     14  C   UNL     1      60.635  62.482  69.341  0.00  0.00    +0.000 A 
ATOM     15  C   UNL     1      60.383  62.964  69.960  0.00  0.00    +0.000 A 
ATOM     16  C   UNL     1      60.188  62.632  70.689  0.00  0.00    +0.000 A 
ATOM     17  C   UNL     1      60.245  61.817  70.800  0.00  0.00    +0.000 A 
ATOM     18  C   UNL     1      60.498  61.333  70.181  0.00  0.00    +0.000 A 
ATOM     19  C   UNL     1      60.693  61.666  69.451  0.00  0.00    +0.000 A 
ATOM     20  C   UNL     1      60.651  63.563  68.905  0.00  0.00    +0.000 A 
ATOM     21  C   UNL     1      60.730  64.226  68.420  0.00  0.00    +0.000 A 
ATOM     22  C   UNL     1      60.550  64.976  68.714  0.00  0.00    +0.000 A 
ATOM     23  C   UNL     1      60.292  65.063  69.492  0.00  0.00    +0.000 A 
ATOM     24  C   UNL     1      60.213  64.400  69.978  0.00  0.00    +0.000 A 
ATOM     25  C   UNL     1      60.392  63.650  69.684  0.00  0.00    +0.000 A 
ENDROOT
TORSDOF 0
ENDMDL
MODEL 3
REMARK VINA RESULT:   -12.249      2.224      3.612
REMARK INTER + INTRA:         -12.249
REMARK INTER:                 -12.249
REMARK INTRA:                   0.000
REMARK UNBOUND:                 0.000
ROOT
REMARK  Name = poldine
REMARK                            x       y       z     vdW  Elec       q    Type
REMARK                         _______ _______ _______ _____ _____    ______ ____
ATOM      1  C   UNL     1      59.537  66.881  69.431  0.00  0.00    +0.000 C 
ATOM      2  N   UNL     1      59.582  66.590  70.202  0.00  0.00    +0.000 N 
ATOM      3  C   UNL     1      59.751  65.874  69.830  0.00  0.00    +0.000 C 
ATOM      4  C   UNL     1      59.404  67.367  70.413  0.00  0.00    +0.000 C 
ATOM      5  C   UNL     1      59.374  67.408  71.237  0.00  0.00    +0.000 C 
ATOM      6  C   UNL     1      59.534  66.655  71.535  0.00  0.00    +0.000 C 
ATOM      7  C   UNL     1      59.663  66.150  70.895  0.00  0.00    +0.000 C 
ATOM      8  C   UNL     1      59.841  65.346  70.941  0.00  0.00    +0.000 C 
ATOM      9  O   UNL     1      59.956  64.908  70.251  0.00  0.00    +0.000 OA
ATOM     10  C   UNL     1      60.134  64.104  70.296  0.00  0.00    +0.000 C 
ATOM     11  O   UNL     1      60.197  63.737  71.032  0.00  0.00    +0.000 OA
ATOM     12  C   UNL     1      60.248  63.667  69.606  0.00  0.00    +0.000 C 
ATOM     13  O   UNL     1      60.109  64.344  69.155  0.00  0.00    +0.000 OA
ATOM     14  C   UNL     1      60.363  63.230  68.917  0.00  0.00    +0.000 A 
ATOM     15  C   UNL     1      60.541  62.426  68.962  0.00  0.00    +0.000 A 
ATOM     16  C   UNL     1      60.656  61.989  68.272  0.00  0.00    +0.000 A 
ATOM     17  C   UNL     1      60.592  62.356  67.536  0.00  0.00    +0.000 A 
ATOM     18  C   UNL     1      60.414  63.161  67.490  0.00  0.00    +0.000 A 
ATOM     19  C   UNL     1      60.300  63.597  68.181  0.00  0.00    +0.000 A 
ATOM     20  C   UNL     1      60.388  62.991  70.058  0.00  0.00    +0.000 A 
ATOM     21  C   UNL     1      60.358  63.031  70.882  0.00  0.00    +0.000 A 
ATOM     22  C   UNL     1      60.498  62.355  71.333  0.00  0.00    +0.000 A 
ATOM     23  C   UNL     1      60.667  61.638  70.961  0.00  0.00    +0.000 A 
ATOM     24  C   UNL     1      60.696  61.598  70.137  0.00  0.00    +0.000 A 
ATOM     25  C   UNL     1      60.557  62.274  69.686  0.00  0.00    +0.000 A 
ENDROOT
TORSDOF 0
ENDMDL
MODEL 4
REMARK VINA RESULT:   -12.142      1.844      3.586
REMARK INTER + INTRA:         -12.142
REMARK INTER:                 -12.142
REMARK INTRA:                   0.000
REMARK UNBOUND:                 0.000
ROOT
REMARK  Name = poldine
REMARK                            x       y       z     vdW  Elec       q    Type
REMARK                         _______ _______ _______ _____ _____    ______ ____
ATOM      1  C   UNL     1      63.681  65.378  71.423  0.00  0.00    +0.000 C 
ATOM      2  N   UNL     1      63.680  65.509  70.608  0.00  0.00    +0.000 N 
ATOM      3  C   UNL     1      63.137  64.889  70.596  0.00  0.00    +0.000 C 
ATOM      4  C   UNL     1      64.224  66.102  70.790  0.00  0.00    +0.000 C 
ATOM      5  C   UNL     1      64.445  66.471  70.086  0.00  0.00    +0.000 C 
ATOM      6  C   UNL     1      64.038  66.105  69.468  0.00  0.00    +0.000 C 
ATOM      7  C   UNL     1      63.565  65.511  69.791  0.00  0.00    +0.000 C 
ATOM      8  C   UNL     1      63.066  65.007  69.371  0.00  0.00    +0.000 C 
ATOM      9  O   UNL     1      62.624  64.436  69.770  0.00  0.00    +0.000 OA
ATOM     10  C   UNL     1      62.124  63.932  69.349  0.00  0.00    +0.000 C 
ATOM     11  O   UNL     1      62.066  63.999  68.529  0.00  0.00    +0.000 OA
ATOM     12  C   UNL     1      61.683  63.361  69.749  0.00  0.00    +0.000 C 
ATOM     13  O   UNL     1      62.005  63.614  70.465  0.00  0.00    +0.000 OA
ATOM     14  C   UNL     1      61.242  62.790  70.148  0.00  0.00    +0.000 A 
ATOM     15  C   UNL     1      60.742  62.287  69.727  0.00  0.00    +0.000 A 
ATOM     16  C   UNL     1      60.300  61.716  70.127  0.00  0.00    +0.000 A 
ATOM     17  C   UNL     1      60.358  61.648  70.947  0.00  0.00    +0.000 A 
ATOM     18  C   UNL     1      60.858  62.153  71.368  0.00  0.00    +0.000 A 
ATOM     19  C   UNL     1      61.300  62.723  70.968  0.00  0.00    +0.000 A 
ATOM     20  C   UNL     1      61.361  63.109  69.032  0.00  0.00    +0.000 A 
ATOM     21  C   UNL     1      61.582  63.478  68.328  0.00  0.00    +0.000 A 
ATOM     22  C   UNL     1      61.260  63.225  67.612  0.00  0.00    +0.000 A 
ATOM     23  C   UNL     1      60.717  62.605  67.599  0.00  0.00    +0.000 A 
ATOM     24  C   UNL     1      60.495  62.236  68.304  0.00  0.00    +0.000 A 
ATOM     25  C   UNL     1      60.818  62.489  69.020  0.00  0.00    +0.000 A 
ENDROOT
TORSDOF 0
ENDMDL
MODEL 5
REMARK VINA RESULT:   -12.050      2.999      4.593
REMARK INTER + INTRA:         -12.050
REMARK INTER:                 -12.050
REMARK INTRA:                   0.000
REMARK UNBOUND:                 0.000
ROOT
REMARK  Name = poldine
REMARK                            x       y       z     vdW  Elec       q    Type
REMARK                         _______ _______ _______ _____ _____    ______ ____
ATOM      1  C   UNL     1      60.661  67.013  71.060  0.00  0.00    +0.000 C 
ATOM      2  N   UNL     1      60.411  66.693  70.342  0.00  0.00    +0.000 N 
ATOM      3  C   UNL     1      60.597  65.972  70.697  0.00  0.00    +0.000 C 
ATOM      4  C   UNL     1      60.278  67.480  70.136  0.00  0.00    +0.000 C 
ATOM      5  C   UNL     1      59.984  67.497  69.365  0.00  0.00    +0.000 C 
ATOM      6  C   UNL     1      59.937  66.719  69.094  0.00  0.00    +0.000 C 
ATOM      7  C   UNL     1      60.201  66.222  69.697  0.00  0.00    +0.000 C 
ATOM      8  C   UNL     1      60.246  65.399  69.663  0.00  0.00    +0.000 C 
ATOM      9  O   UNL     1      60.522  64.973  70.314  0.00  0.00    +0.000 OA
ATOM     10  C   UNL     1      60.567  64.150  70.279  0.00  0.00    +0.000 C 
ATOM     11  O   UNL     1      60.336  63.752  69.594  0.00  0.00    +0.000 OA
ATOM     12  C   UNL     1      60.844  63.725  70.930  0.00  0.00    +0.000 C 
ATOM     13  O   UNL     1      60.951  64.430  71.344  0.00  0.00    +0.000 OA
ATOM     14  C   UNL     1      61.120  63.299  71.579  0.00  0.00    +0.000 A 
ATOM     15  C   UNL     1      61.165  62.477  71.545  0.00  0.00    +0.000 A 
ATOM     16  C   UNL     1      61.442  62.051  72.195  0.00  0.00    +0.000 A 
ATOM     17  C   UNL     1      61.674  62.448  72.880  0.00  0.00    +0.000 A 
ATOM     18  C   UNL     1      61.628  63.271  72.914  0.00  0.00    +0.000 A 
ATOM     19  C   UNL     1      61.352  63.696  72.264  0.00  0.00    +0.000 A 
ATOM     20  C   UNL     1      60.736  63.020  70.514  0.00  0.00    +0.000 A 
ATOM     21  C   UNL     1      60.443  63.036  69.743  0.00  0.00    +0.000 A 
ATOM     22  C   UNL     1      60.335  62.332  69.328  0.00  0.00    +0.000 A 
ATOM     23  C   UNL     1      60.521  61.611  69.683  0.00  0.00    +0.000 A 
ATOM     24  C   UNL     1      60.815  61.595  70.455  0.00  0.00    +0.000 A 
ATOM     25  C   UNL     1      60.922  62.299  70.869  0.00  0.00    +0.000 A 
ENDROOT
TORSDOF 0
ENDMDL
MODEL 6
REMARK VINA RESULT:   -12.019      1.318      4.482
REMARK INTER + INTRA:         -12.019
REMARK INTER:                 -12.019
REMARK INTRA:                   0.000
REMARK UNBOUND:                 0.000
ROOT
REMARK  Name = poldine
REMARK                            x       y       z     vdW  Elec       q    Type
REMARK                         _______ _______ _______ _____ _____    ______ ____
ATOM      1  C   UNL     1      61.421  63.141  66.642  0.00  0.00    +0.000 C 
ATOM      2  N   UNL     1      60.821  62.787  67.083  0.00  0.00    +0.000 N 
ATOM      3  C   UNL     1      61.224  63.108  67.727  0.00  0.00    +0.000 C 
ATOM      4  C   UNL     1      60.544  62.539  66.347  0.00  0.00    +0.000 C 
ATOM      5  C   UNL     1      59.856  62.099  66.468  0.00  0.00    +0.000 C 
ATOM      6  C   UNL     1      59.708  62.075  67.279  0.00  0.00    +0.000 C 
ATOM      7  C   UNL     1      60.305  62.500  67.660  0.00  0.00    +0.000 C 
ATOM      8  C   UNL     1      60.373  62.617  68.473  0.00  0.00    +0.000 C 
ATOM      9  O   UNL     1      61.002  63.056  68.776  0.00  0.00    +0.000 OA
ATOM     10  C   UNL     1      61.070  63.174  69.590  0.00  0.00    +0.000 C 
ATOM     11  O   UNL     1      60.509  62.851  70.101  0.00  0.00    +0.000 OA
ATOM     12  C   UNL     1      61.700  63.613  69.891  0.00  0.00    +0.000 C 
ATOM     13  O   UNL     1      61.984  63.731  69.126  0.00  0.00    +0.000 OA
ATOM     14  C   UNL     1      62.328  64.052  70.194  0.00  0.00    +0.000 A 
ATOM     15  C   UNL     1      62.397  64.169  71.007  0.00  0.00    +0.000 A 
ATOM     16  C   UNL     1      63.026  64.609  71.310  0.00  0.00    +0.000 A 
ATOM     17  C   UNL     1      63.587  64.931  70.798  0.00  0.00    +0.000 A 
ATOM     18  C   UNL     1      63.519  64.814  69.984  0.00  0.00    +0.000 A 
ATOM     19  C   UNL     1      62.890  64.374  69.682  0.00  0.00    +0.000 A 
ATOM     20  C   UNL     1      61.415  63.494  70.657  0.00  0.00    +0.000 A 
ATOM     21  C   UNL     1      60.727  63.054  70.777  0.00  0.00    +0.000 A 
ATOM     22  C   UNL     1      60.443  62.936  71.543  0.00  0.00    +0.000 A 
ATOM     23  C   UNL     1      60.845  63.258  72.187  0.00  0.00    +0.000 A 
ATOM     24  C   UNL     1      61.533  63.698  72.066  0.00  0.00    +0.000 A 
ATOM     25  C   UNL     1      61.817  63.816  71.301  0.00  0.00    +0.000 A 
ENDROOT
TORSDOF 0
ENDMDL
MODEL 7
REMARK VINA RESULT:   -12.014      1.464      5.078
REMARK INTER + INTRA:         -12.014
REMARK INTER:                 -12.014
REMARK INTRA:                   0.000
REMARK UNBOUND:                 0.000
ROOT
REMARK  Name = poldine
REMARK                            x       y       z     vdW  Elec       q    Type
REMARK                         _______ _______ _______ _____ _____    ______ ____
ATOM      1  C   UNL     1      60.118  62.001  68.103  0.00  0.00    +0.000 C 
ATOM      2  N   UNL     1      60.692  62.493  67.772  0.00  0.00    +0.000 N 
ATOM      3  C   UNL     1      60.847  62.695  68.557  0.00  0.00    +0.000 C 
ATOM      4  C   UNL     1      60.417  62.189  67.057  0.00  0.00    +0.000 C 
ATOM      5  C   UNL     1      60.852  62.535  66.447  0.00  0.00    +0.000 C 
ATOM      6  C   UNL     1      61.397  63.054  66.786  0.00  0.00    +0.000 C 
ATOM      7  C   UNL     1      61.298  63.028  67.605  0.00  0.00    +0.000 C 
ATOM      8  C   UNL     1      61.728  63.461  68.160  0.00  0.00    +0.000 C 
ATOM      9  O   UNL     1      61.567  63.377  68.965  0.00  0.00    +0.000 OA
ATOM     10  C   UNL     1      61.998  63.810  69.519  0.00  0.00    +0.000 C 
ATOM     11  O   UNL     1      62.591  64.327  69.269  0.00  0.00    +0.000 OA
ATOM     12  C   UNL     1      61.836  63.726  70.324  0.00  0.00    +0.000 C 
ATOM     13  O   UNL     1      61.245  63.178  70.148  0.00  0.00    +0.000 OA
ATOM     14  C   UNL     1      61.675  63.643  71.128  0.00  0.00    +0.000 A 
ATOM     15  C   UNL     1      62.106  64.076  71.682  0.00  0.00    +0.000 A 
ATOM     16  C   UNL     1      61.945  63.992  72.487  0.00  0.00    +0.000 A 
ATOM     17  C   UNL     1      61.352  63.476  72.737  0.00  0.00    +0.000 A 
ATOM     18  C   UNL     1      60.921  63.043  72.183  0.00  0.00    +0.000 A 
ATOM     19  C   UNL     1      61.083  63.127  71.378  0.00  0.00    +0.000 A 
ATOM     20  C   UNL     1      62.428  64.275  70.499  0.00  0.00    +0.000 A 
ATOM     21  C   UNL     1      62.863  64.621  69.890  0.00  0.00    +0.000 A 
ATOM     22  C   UNL     1      63.454  65.169  70.066  0.00  0.00    +0.000 A 
ATOM     23  C   UNL     1      63.610  65.371  70.851  0.00  0.00    +0.000 A 
ATOM     24  C   UNL     1      63.174  65.024  71.460  0.00  0.00    +0.000 A 
ATOM     25  C   UNL     1      62.583  64.476  71.284  0.00  0.00    +0.000 A 
ENDROOT
TORSDOF 0
ENDMDL
MODEL 8
REMARK VINA RESULT:   -11.994      1.817      3.288
REMARK INTER + INTRA:         -11.994
REMARK INTER:                 -11.994
REMARK INTRA:                   0.000
REMARK UNBOUND:                 0.000
ROOT
REMARK  Name = poldine
REMARK                            x       y       z     vdW  Elec       q    Type
REMARK                         _______ _______ _______ _____ _____    ______ ____
ATOM      1  C   UNL     1      63.461  66.127  69.562  0.00  0.00    +0.000 C 
ATOM      2  N   UNL     1      63.343  65.809  70.313  0.00  0.00    +0.000 N 
ATOM      3  C   UNL     1      62.881  65.255  69.912  0.00  0.00    +0.000 C 
ATOM      4  C   UNL     1      63.829  66.428  70.558  0.00  0.00    +0.000 C 
ATOM      5  C   UNL     1      63.915  66.377  71.377  0.00  0.00    +0.000 C 
ATOM      6  C   UNL     1      63.481  65.726  71.639  0.00  0.00    +0.000 C 
ATOM      7  C   UNL     1      63.127  65.374  70.982  0.00  0.00    +0.000 C 
ATOM      8  C   UNL     1      62.643  64.707  70.991  0.00  0.00    +0.000 C 
ATOM      9  O   UNL     1      62.327  64.416  70.286  0.00  0.00    +0.000 OA
ATOM     10  C   UNL     1      61.843  63.748  70.295  0.00  0.00    +0.000 C 
ATOM     11  O   UNL     1      61.675  63.370  71.009  0.00  0.00    +0.000 OA
ATOM     12  C   UNL     1      61.527  63.458  69.590  0.00  0.00    +0.000 C 
ATOM     13  O   UNL     1      61.904  64.062  69.173  0.00  0.00    +0.000 OA
ATOM     14  C   UNL     1      61.211  63.168  68.887  0.00  0.00    +0.000 A 
ATOM     15  C   UNL     1      60.728  62.500  68.896  0.00  0.00    +0.000 A 
ATOM     16  C   UNL     1      60.412  62.210  68.191  0.00  0.00    +0.000 A 
ATOM     17  C   UNL     1      60.579  62.587  67.477  0.00  0.00    +0.000 A 
ATOM     18  C   UNL     1      61.064  63.256  67.468  0.00  0.00    +0.000 A 
ATOM     19  C   UNL     1      61.379  63.546  68.173  0.00  0.00    +0.000 A 
ATOM     20  C   UNL     1      61.151  62.854  70.008  0.00  0.00    +0.000 A 
ATOM     21  C   UNL     1      61.237  62.804  70.828  0.00  0.00    +0.000 A 
ATOM     22  C   UNL     1      60.860  62.200  71.245  0.00  0.00    +0.000 A 
ATOM     23  C   UNL     1      60.398  61.646  70.843  0.00  0.00    +0.000 A 
ATOM     24  C   UNL     1      60.313  61.697  70.024  0.00  0.00    +0.000 A 
ATOM     25  C   UNL     1      60.689  62.301  69.607  0.00  0.00    +0.000 A 
ENDROOT
TORSDOF 0
ENDMDL
MODEL 9
REMARK VINA RESULT:   -11.932      2.173      5.079
REMARK INTER + INTRA:         -11.932
REMARK INTER:                 -11.932
REMARK INTRA:                   0.000
REMARK UNBOUND:                 0.000
ROOT
REMARK  Name = poldine
REMARK                            x       y       z     vdW  Elec       q    Type
REMARK                         _______ _______ _______ _____ _____    ______ ____
ATOM      1  C   UNL     1      60.879  61.608  67.968  0.00  0.00    +0.000 C 
ATOM      2  N   UNL     1      60.479  62.327  68.023  0.00  0.00    +0.000 N 
ATOM      3  C   UNL     1      60.695  62.288  68.818  0.00  0.00    +0.000 C 
ATOM      4  C   UNL     1      60.346  62.216  67.216  0.00  0.00    +0.000 C 
ATOM      5  C   UNL     1      59.909  62.859  66.939  0.00  0.00    +0.000 C 
ATOM      6  C   UNL     1      59.772  63.367  67.574  0.00  0.00    +0.000 C 
ATOM      7  C   UNL     1      60.123  63.038  68.244  0.00  0.00    +0.000 C 
ATOM      8  C   UNL     1      60.121  63.363  69.002  0.00  0.00    +0.000 C 
ATOM      9  O   UNL     1      60.498  62.970  69.622  0.00  0.00    +0.000 OA
ATOM     10  C   UNL     1      60.495  63.295  70.380  0.00  0.00    +0.000 C 
ATOM     11  O   UNL     1      60.115  64.015  70.519  0.00  0.00    +0.000 OA
ATOM     12  C   UNL     1      60.872  62.901  70.999  0.00  0.00    +0.000 C 
ATOM     13  O   UNL     1      61.092  62.299  70.481  0.00  0.00    +0.000 OA
ATOM     14  C   UNL     1      61.248  62.508  71.618  0.00  0.00    +0.000 A 
ATOM     15  C   UNL     1      61.245  62.833  72.376  0.00  0.00    +0.000 A 
ATOM     16  C   UNL     1      61.622  62.440  72.995  0.00  0.00    +0.000 A 
ATOM     17  C   UNL     1      62.002  61.721  72.857  0.00  0.00    +0.000 A 
ATOM     18  C   UNL     1      62.005  61.395  72.098  0.00  0.00    +0.000 A 
ATOM     19  C   UNL     1      61.628  61.789  71.479  0.00  0.00    +0.000 A 
ATOM     20  C   UNL     1      60.651  63.505  71.516  0.00  0.00    +0.000 A 
ATOM     21  C   UNL     1      60.214  64.148  71.239  0.00  0.00    +0.000 A 
ATOM     22  C   UNL     1      59.993  64.750  71.757  0.00  0.00    +0.000 A 
ATOM     23  C   UNL     1      60.209  64.711  72.552  0.00  0.00    +0.000 A 
ATOM     24  C   UNL     1      60.646  64.068  72.830  0.00  0.00    +0.000 A 
ATOM     25  C   UNL     1      60.867  63.465  72.312  0.00  0.00    +0.000 A 
ENDROOT
TORSDOF 0
ENDMDL
