MODEL 1
REMARK VINA RESULT:   -12.545      0.000      0.000
REMARK INTER + INTRA:         -12.545
REMARK INTER:                 -12.545
REMARK INTRA:                   0.000
REMARK UNBOUND:                 0.000
ROOT
REMARK  Name = posatirelin
REMARK                            x       y       z     vdW  Elec       q    Type
REMARK                         _______ _______ _______ _____ _____    ______ ____
ATOM      1  C   UNL     1      60.209  62.152  66.129  0.00  0.00    +0.000 C 
ATOM      2  C   UNL     1      59.802  62.377  66.810  0.00  0.00    +0.000 C 
ATOM      3  C   UNL     1      58.997  62.211  66.881  0.00  0.00    +0.000 C 
ATOM      4  C   UNL     1      60.198  62.768  67.418  0.00  0.00    +0.000 C 
ATOM      5  C   UNL     1      61.002  62.934  67.347  0.00  0.00    +0.000 C 
ATOM      6  N   UNL     1      61.412  62.708  66.666  0.00  0.00    +0.000 NA
ATOM      7  C   UNL     1      61.015  62.317  66.058  0.00  0.00    +0.000 C 
ATOM      8  O   UNL     1      60.367  61.974  65.678  0.00  0.00    +0.000 OA
ATOM      9  C   UNL     1      61.423  62.092  65.377  0.00  0.00    +0.000 C 
ATOM     10  C   UNL     1      62.229  62.257  65.306  0.00  0.00    +0.000 C 
ATOM     11  C   UNL     1      62.637  62.032  64.625  0.00  0.00    +0.000 C 
ATOM     12  C   UNL     1      62.241  61.641  64.017  0.00  0.00    +0.000 C 
ATOM     13  C   UNL     1      61.436  61.475  64.088  0.00  0.00    +0.000 C 
ATOM     14  O   UNL     1      61.039  61.084  63.479  0.00  0.00    +0.000 OA
ATOM     15  N   UNL     1      61.027  61.701  64.769  0.00  0.00    +0.000 NA
ATOM     16  C   UNL     1      61.399  63.325  67.956  0.00  0.00    +0.000 C 
ATOM     17  O   UNL     1      62.205  63.490  67.884  0.00  0.00    +0.000 OA
ATOM     18  N   UNL     1      60.991  63.550  68.636  0.00  0.00    +0.000 N 
ATOM     19  C   UNL     1      60.189  63.423  68.785  0.00  0.00    +0.000 C 
ATOM     20  C   UNL     1      60.016  63.737  69.528  0.00  0.00    +0.000 C 
ATOM     21  C   UNL     1      60.709  64.058  69.838  0.00  0.00    +0.000 C 
ATOM     22  C   UNL     1      61.313  63.943  69.287  0.00  0.00    +0.000 C 
ATOM     23  C   UNL     1      62.099  64.179  69.371  0.00  0.00    +0.000 C 
ATOM     24  N   UNL     1      62.340  64.568  70.057  0.00  0.00    +0.000 NA
ATOM     25  O   UNL     1      62.642  64.025  68.771  0.00  0.00    +0.000 OA
ENDROOT
TORSDOF 0
ENDMDL
MODEL 2
REMARK VINA RESULT:   -12.067      1.215      4.326
REMARK INTER + INTRA:         -12.067
REMARK INTER:                 -12.067
REMARK INTRA:                   0.000
REMARK UNBOUND:                 0.000
ROOT
REMARK  Name = posatirelin
REMARK                            x       y       z     vdW  Elec       q    Type
REMARK                         _______ _______ _______ _____ _____    ______ ____
ATOM      1  C   UNL     1      59.823  62.758  67.513  0.00  0.00    +0.000 C 
ATOM      2  C   UNL     1      59.597  62.280  66.880  0.00  0.00    +0.000 C 
ATOM      3  C   UNL     1      58.843  61.946  66.865  0.00  0.00    +0.000 C 
ATOM      4  C   UNL     1      60.125  62.135  66.263  0.00  0.00    +0.000 C 
ATOM      5  C   UNL     1      60.879  62.469  66.278  0.00  0.00    +0.000 C 
ATOM      6  N   UNL     1      61.106  62.948  66.911  0.00  0.00    +0.000 NA
ATOM      7  C   UNL     1      60.578  63.092  67.528  0.00  0.00    +0.000 C 
ATOM      8  O   UNL     1      59.865  63.033  67.940  0.00  0.00    +0.000 OA
ATOM      9  C   UNL     1      60.803  63.570  68.161  0.00  0.00    +0.000 C 
ATOM     10  C   UNL     1      61.558  63.905  68.177  0.00  0.00    +0.000 C 
ATOM     11  C   UNL     1      61.784  64.383  68.810  0.00  0.00    +0.000 C 
ATOM     12  C   UNL     1      61.256  64.527  69.427  0.00  0.00    +0.000 C 
ATOM     13  C   UNL     1      60.502  64.193  69.412  0.00  0.00    +0.000 C 
ATOM     14  O   UNL     1      59.974  64.338  70.029  0.00  0.00    +0.000 OA
ATOM     15  N   UNL     1      60.276  63.715  68.778  0.00  0.00    +0.000 NA
ATOM     16  C   UNL     1      61.407  62.325  65.660  0.00  0.00    +0.000 C 
ATOM     17  O   UNL     1      62.162  62.659  65.677  0.00  0.00    +0.000 OA
ATOM     18  N   UNL     1      61.181  61.847  65.028  0.00  0.00    +0.000 N 
ATOM     19  C   UNL     1      60.449  61.477  64.937  0.00  0.00    +0.000 C 
ATOM     20  C   UNL     1      60.463  61.055  64.227  0.00  0.00    +0.000 C 
ATOM     21  C   UNL     1      61.203  61.165  63.880  0.00  0.00    +0.000 C 
ATOM     22  C   UNL     1      61.648  61.654  64.375  0.00  0.00    +0.000 C 
ATOM     23  C   UNL     1      62.422  61.906  64.240  0.00  0.00    +0.000 C 
ATOM     24  N   UNL     1      62.819  61.667  63.559  0.00  0.00    +0.000 NA
ATOM     25  O   UNL     1      62.796  62.397  64.786  0.00  0.00    +0.000 OA
ENDROOT
TORSDOF 0
ENDMDL
MODEL 3
REMARK VINA RESULT:   -11.612      1.724      2.478
REMARK INTER + INTRA:         -11.612
REMARK INTER:                 -11.612
REMARK INTRA:                   0.000
REMARK UNBOUND:                 0.000
ROOT
REMARK  Name = posatirelin
REMARK                            x       y       z     vdW  Elec       q    Type
REMARK                         _______ _______ _______ _____ _____    ______ ____
ATOM      1  C   UNL     1      60.857  62.166  68.633  0.00  0.00    +0.000 C 
ATOM      2  C   UNL     1      60.630  62.328  69.409  0.00  0.00    +0.000 C 
ATOM      3  C   UNL     1      60.622  61.724  69.970  0.00  0.00    +0.000 C 
ATOM      4  C   UNL     1      60.410  63.094  69.623  0.00  0.00    +0.000 C 
ATOM      5  C   UNL     1      60.417  63.698  69.062  0.00  0.00    +0.000 C 
ATOM      6  N   UNL     1      60.645  63.537  68.285  0.00  0.00    +0.000 NA
ATOM      7  C   UNL     1      60.865  62.771  68.071  0.00  0.00    +0.000 C 
ATOM      8  O   UNL     1      61.011  61.967  68.189  0.00  0.00    +0.000 OA
ATOM      9  C   UNL     1      61.093  62.609  67.294  0.00  0.00    +0.000 C 
ATOM     10  C   UNL     1      61.100  63.214  66.732  0.00  0.00    +0.000 C 
ATOM     11  C   UNL     1      61.328  63.052  65.956  0.00  0.00    +0.000 C 
ATOM     12  C   UNL     1      61.548  62.287  65.742  0.00  0.00    +0.000 C 
ATOM     13  C   UNL     1      61.540  61.683  66.303  0.00  0.00    +0.000 C 
ATOM     14  O   UNL     1      61.760  60.917  66.089  0.00  0.00    +0.000 OA
ATOM     15  N   UNL     1      61.313  61.844  67.080  0.00  0.00    +0.000 NA
ATOM     16  C   UNL     1      60.197  64.464  69.277  0.00  0.00    +0.000 C 
ATOM     17  O   UNL     1      60.205  65.068  68.714  0.00  0.00    +0.000 OA
ATOM     18  N   UNL     1      59.970  64.625  70.053  0.00  0.00    +0.000 N 
ATOM     19  C   UNL     1      59.935  64.080  70.671  0.00  0.00    +0.000 C 
ATOM     20  C   UNL     1      59.681  64.479  71.348  0.00  0.00    +0.000 C 
ATOM     21  C   UNL     1      59.558  65.269  71.147  0.00  0.00    +0.000 C 
ATOM     22  C   UNL     1      59.737  65.360  70.347  0.00  0.00    +0.000 C 
ATOM     23  C   UNL     1      59.690  66.063  69.916  0.00  0.00    +0.000 C 
ATOM     24  N   UNL     1      59.447  66.757  70.287  0.00  0.00    +0.000 NA
ATOM     25  O   UNL     1      59.888  66.069  69.116  0.00  0.00    +0.000 OA
ENDROOT
TORSDOF 0
ENDMDL
MODEL 4
REMARK VINA RESULT:   -11.607      2.302      5.388
REMARK INTER + INTRA:         -11.607
REMARK INTER:                 -11.607
REMARK INTRA:                   0.000
REMARK UNBOUND:                 0.000
ROOT
REMARK  Name = posatirelin
REMARK                            x       y       z     vdW  Elec       q    Type
REMARK                         _______ _______ _______ _____ _____    ______ ____
ATOM      1  C   UNL     1      62.857  64.680  71.302  0.00  0.00    +0.000 C 
ATOM      2  C   UNL     1      62.265  64.113  71.396  0.00  0.00    +0.000 C 
ATOM      3  C   UNL     1      61.995  63.923  72.152  0.00  0.00    +0.000 C 
ATOM      4  C   UNL     1      61.944  63.737  70.736  0.00  0.00    +0.000 C 
ATOM      5  C   UNL     1      62.215  63.928  69.981  0.00  0.00    +0.000 C 
ATOM      6  N   UNL     1      62.807  64.495  69.885  0.00  0.00    +0.000 NA
ATOM      7  C   UNL     1      63.128  64.871  70.546  0.00  0.00    +0.000 C 
ATOM      8  O   UNL     1      63.219  65.036  71.350  0.00  0.00    +0.000 OA
ATOM      9  C   UNL     1      63.720  65.438  70.452  0.00  0.00    +0.000 C 
ATOM     10  C   UNL     1      63.991  65.629  69.695  0.00  0.00    +0.000 C 
ATOM     11  C   UNL     1      64.583  66.195  69.601  0.00  0.00    +0.000 C 
ATOM     12  C   UNL     1      64.903  66.571  70.261  0.00  0.00    +0.000 C 
ATOM     13  C   UNL     1      64.633  66.381  71.016  0.00  0.00    +0.000 C 
ATOM     14  O   UNL     1      64.954  66.757  71.677  0.00  0.00    +0.000 OA
ATOM     15  N   UNL     1      64.040  65.813  71.111  0.00  0.00    +0.000 NA
ATOM     16  C   UNL     1      61.894  63.551  69.320  0.00  0.00    +0.000 C 
ATOM     17  O   UNL     1      62.166  63.743  68.564  0.00  0.00    +0.000 OA
ATOM     18  N   UNL     1      61.303  62.985  69.415  0.00  0.00    +0.000 N 
ATOM     19  C   UNL     1      60.978  62.738  70.133  0.00  0.00    +0.000 C 
ATOM     20  C   UNL     1      60.406  62.166  69.970  0.00  0.00    +0.000 C 
ATOM     21  C   UNL     1      60.378  62.059  69.152  0.00  0.00    +0.000 C 
ATOM     22  C   UNL     1      60.931  62.565  68.809  0.00  0.00    +0.000 C 
ATOM     23  C   UNL     1      61.087  62.639  68.002  0.00  0.00    +0.000 C 
ATOM     24  N   UNL     1      60.669  62.180  67.459  0.00  0.00    +0.000 NA
ATOM     25  O   UNL     1      61.659  63.171  67.740  0.00  0.00    +0.000 OA
ENDROOT
TORSDOF 0
ENDMDL
MODEL 5
REMARK VINA RESULT:   -10.806      3.620      5.254
REMARK INTER + INTRA:         -10.806
REMARK INTER:                 -10.806
REMARK INTRA:                   0.000
REMARK UNBOUND:                 0.000
ROOT
REMARK  Name = posatirelin
REMARK                            x       y       z     vdW  Elec       q    Type
REMARK                         _______ _______ _______ _____ _____    ______ ____
ATOM      1  C   UNL     1      60.860  63.137  70.230  0.00  0.00    +0.000 C 
ATOM      2  C   UNL     1      60.566  63.661  69.665  0.00  0.00    +0.000 C 
ATOM      3  C   UNL     1      60.488  63.418  68.880  0.00  0.00    +0.000 C 
ATOM      4  C   UNL     1      60.350  64.426  69.883  0.00  0.00    +0.000 C 
ATOM      5  C   UNL     1      60.428  64.668  70.668  0.00  0.00    +0.000 C 
ATOM      6  N   UNL     1      60.722  64.145  71.234  0.00  0.00    +0.000 NA
ATOM      7  C   UNL     1      60.938  63.379  71.015  0.00  0.00    +0.000 C 
ATOM      8  O   UNL     1      61.047  62.746  70.498  0.00  0.00    +0.000 OA
ATOM      9  C   UNL     1      61.232  62.856  71.581  0.00  0.00    +0.000 C 
ATOM     10  C   UNL     1      61.310  63.098  72.366  0.00  0.00    +0.000 C 
ATOM     11  C   UNL     1      61.604  62.574  72.931  0.00  0.00    +0.000 C 
ATOM     12  C   UNL     1      61.819  61.810  72.713  0.00  0.00    +0.000 C 
ATOM     13  C   UNL     1      61.741  61.567  71.928  0.00  0.00    +0.000 C 
ATOM     14  O   UNL     1      61.957  60.801  71.709  0.00  0.00    +0.000 OA
ATOM     15  N   UNL     1      61.447  62.091  71.362  0.00  0.00    +0.000 NA
ATOM     16  C   UNL     1      60.212  65.435  70.887  0.00  0.00    +0.000 C 
ATOM     17  O   UNL     1      60.291  65.676  71.672  0.00  0.00    +0.000 OA
ATOM     18  N   UNL     1      59.918  65.958  70.321  0.00  0.00    +0.000 N 
ATOM     19  C   UNL     1      59.810  65.794  69.519  0.00  0.00    +0.000 C 
ATOM     20  C   UNL     1      59.505  66.473  69.161  0.00  0.00    +0.000 C 
ATOM     21  C   UNL     1      59.426  67.054  69.740  0.00  0.00    +0.000 C 
ATOM     22  C   UNL     1      59.681  66.736  70.458  0.00  0.00    +0.000 C 
ATOM     23  C   UNL     1      59.697  67.128  71.184  0.00  0.00    +0.000 C 
ATOM     24  N   UNL     1      59.441  67.910  71.235  0.00  0.00    +0.000 NA
ATOM     25  O   UNL     1      59.967  66.737  71.857  0.00  0.00    +0.000 OA
ENDROOT
TORSDOF 0
ENDMDL
MODEL 6
REMARK VINA RESULT:   -10.778      4.058      5.937
REMARK INTER + INTRA:         -10.778
REMARK INTER:                 -10.778
REMARK INTRA:                   0.000
REMARK UNBOUND:                 0.000
ROOT
REMARK  Name = posatirelin
REMARK                            x       y       z     vdW  Elec       q    Type
REMARK                         _______ _______ _______ _____ _____    ______ ____
ATOM      1  C   UNL     1      62.218  64.187  70.241  0.00  0.00    +0.000 C 
ATOM      2  C   UNL     1      62.757  64.516  69.711  0.00  0.00    +0.000 C 
ATOM      3  C   UNL     1      62.722  64.316  68.911  0.00  0.00    +0.000 C 
ATOM      4  C   UNL     1      63.330  65.045  69.979  0.00  0.00    +0.000 C 
ATOM      5  C   UNL     1      63.364  65.245  70.778  0.00  0.00    +0.000 C 
ATOM      6  N   UNL     1      62.826  64.916  71.310  0.00  0.00    +0.000 NA
ATOM      7  C   UNL     1      62.252  64.387  71.041  0.00  0.00    +0.000 C 
ATOM      8  O   UNL     1      61.847  63.934  70.483  0.00  0.00    +0.000 OA
ATOM      9  C   UNL     1      61.713  64.058  71.572  0.00  0.00    +0.000 C 
ATOM     10  C   UNL     1      61.748  64.259  72.372  0.00  0.00    +0.000 C 
ATOM     11  C   UNL     1      61.209  63.929  72.903  0.00  0.00    +0.000 C 
ATOM     12  C   UNL     1      60.636  63.401  72.634  0.00  0.00    +0.000 C 
ATOM     13  C   UNL     1      60.601  63.201  71.835  0.00  0.00    +0.000 C 
ATOM     14  O   UNL     1      60.028  62.672  71.566  0.00  0.00    +0.000 OA
ATOM     15  N   UNL     1      61.141  63.530  71.304  0.00  0.00    +0.000 NA
ATOM     16  C   UNL     1      63.939  65.775  71.047  0.00  0.00    +0.000 C 
ATOM     17  O   UNL     1      63.973  65.974  71.847  0.00  0.00    +0.000 OA
ATOM     18  N   UNL     1      64.477  66.103  70.516  0.00  0.00    +0.000 N 
ATOM     19  C   UNL     1      64.510  65.956  69.705  0.00  0.00    +0.000 C 
ATOM     20  C   UNL     1      65.131  66.399  69.390  0.00  0.00    +0.000 C 
ATOM     21  C   UNL     1      65.482  66.820  70.007  0.00  0.00    +0.000 C 
ATOM     22  C   UNL     1      65.078  66.637  70.703  0.00  0.00    +0.000 C 
ATOM     23  C   UNL     1      65.245  66.936  71.454  0.00  0.00    +0.000 C 
ATOM     24  N   UNL     1      65.866  67.468  71.556  0.00  0.00    +0.000 NA
ATOM     25  O   UNL     1      64.791  66.702  72.101  0.00  0.00    +0.000 OA
ENDROOT
TORSDOF 0
ENDMDL
MODEL 7
REMARK VINA RESULT:   -10.615      5.200      5.855
REMARK INTER + INTRA:         -10.615
REMARK INTER:                 -10.615
REMARK INTRA:                   0.000
REMARK UNBOUND:                 0.000
ROOT
REMARK  Name = posatirelin
REMARK                            x       y       z     vdW  Elec       q    Type
REMARK                         _______ _______ _______ _____ _____    ______ ____
ATOM      1  C   UNL     1      62.314  64.393  71.625  0.00  0.00    +0.000 C 
ATOM      2  C   UNL     1      61.672  64.256  72.125  0.00  0.00    +0.000 C 
ATOM      3  C   UNL     1      61.626  63.552  72.551  0.00  0.00    +0.000 C 
ATOM      4  C   UNL     1      61.078  64.824  72.198  0.00  0.00    +0.000 C 
ATOM      5  C   UNL     1      61.126  65.528  71.771  0.00  0.00    +0.000 C 
ATOM      6  N   UNL     1      61.767  65.665  71.271  0.00  0.00    +0.000 NA
ATOM      7  C   UNL     1      62.362  65.098  71.198  0.00  0.00    +0.000 C 
ATOM      8  O   UNL     1      62.743  64.381  71.349  0.00  0.00    +0.000 OA
ATOM      9  C   UNL     1      63.003  65.234  70.698  0.00  0.00    +0.000 C 
ATOM     10  C   UNL     1      63.051  65.940  70.271  0.00  0.00    +0.000 C 
ATOM     11  C   UNL     1      63.692  66.076  69.771  0.00  0.00    +0.000 C 
ATOM     12  C   UNL     1      64.286  65.509  69.698  0.00  0.00    +0.000 C 
ATOM     13  C   UNL     1      64.239  64.805  70.124  0.00  0.00    +0.000 C 
ATOM     14  O   UNL     1      64.834  64.237  70.051  0.00  0.00    +0.000 OA
ATOM     15  N   UNL     1      63.597  64.668  70.625  0.00  0.00    +0.000 NA
ATOM     16  C   UNL     1      60.530  66.096  71.845  0.00  0.00    +0.000 C 
ATOM     17  O   UNL     1      60.578  66.800  71.418  0.00  0.00    +0.000 OA
ATOM     18  N   UNL     1      59.889  65.959  72.345  0.00  0.00    +0.000 N 
ATOM     19  C   UNL     1      59.768  65.283  72.804  0.00  0.00    +0.000 C 
ATOM     20  C   UNL     1      59.059  65.381  73.216  0.00  0.00    +0.000 C 
ATOM     21  C   UNL     1      58.744  66.115  73.012  0.00  0.00    +0.000 C 
ATOM     22  C   UNL     1      59.256  66.473  72.473  0.00  0.00    +0.000 C 
ATOM     23  C   UNL     1      59.154  67.213  72.125  0.00  0.00    +0.000 C 
ATOM     24  N   UNL     1      58.491  67.666  72.308  0.00  0.00    +0.000 NA
ATOM     25  O   UNL     1      59.716  67.500  71.594  0.00  0.00    +0.000 OA
ENDROOT
TORSDOF 0
ENDMDL
MODEL 8
REMARK VINA RESULT:   -10.475      5.002      6.520
REMARK INTER + INTRA:         -10.475
REMARK INTER:                 -10.475
REMARK INTRA:                   0.000
REMARK UNBOUND:                 0.000
ROOT
REMARK  Name = posatirelin
REMARK                            x       y       z     vdW  Elec       q    Type
REMARK                         _______ _______ _______ _____ _____    ______ ____
ATOM      1  C   UNL     1      63.621  65.232  70.837  0.00  0.00    +0.000 C 
ATOM      2  C   UNL     1      63.025  64.670  70.737  0.00  0.00    +0.000 C 
ATOM      3  C   UNL     1      63.140  64.036  70.223  0.00  0.00    +0.000 C 
ATOM      4  C   UNL     1      62.315  64.744  71.150  0.00  0.00    +0.000 C 
ATOM      5  C   UNL     1      62.201  65.379  71.664  0.00  0.00    +0.000 C 
ATOM      6  N   UNL     1      62.796  65.941  71.764  0.00  0.00    +0.000 NA
ATOM      7  C   UNL     1      63.506  65.868  71.351  0.00  0.00    +0.000 C 
ATOM      8  O   UNL     1      64.042  65.519  70.828  0.00  0.00    +0.000 OA
ATOM      9  C   UNL     1      64.102  66.429  71.451  0.00  0.00    +0.000 C 
ATOM     10  C   UNL     1      63.988  67.065  71.965  0.00  0.00    +0.000 C 
ATOM     11  C   UNL     1      64.584  67.626  72.065  0.00  0.00    +0.000 C 
ATOM     12  C   UNL     1      65.293  67.553  71.652  0.00  0.00    +0.000 C 
ATOM     13  C   UNL     1      65.408  66.918  71.138  0.00  0.00    +0.000 C 
ATOM     14  O   UNL     1      66.118  66.845  70.724  0.00  0.00    +0.000 OA
ATOM     15  N   UNL     1      64.812  66.356  71.038  0.00  0.00    +0.000 NA
ATOM     16  C   UNL     1      61.490  65.452  72.078  0.00  0.00    +0.000 C 
ATOM     17  O   UNL     1      61.376  66.088  72.592  0.00  0.00    +0.000 OA
ATOM     18  N   UNL     1      60.895  64.890  71.977  0.00  0.00    +0.000 N 
ATOM     19  C   UNL     1      60.930  64.229  71.485  0.00  0.00    +0.000 C 
ATOM     20  C   UNL     1      60.216  63.821  71.555  0.00  0.00    +0.000 C 
ATOM     21  C   UNL     1      59.740  64.231  72.091  0.00  0.00    +0.000 C 
ATOM     22  C   UNL     1      60.159  64.891  72.352  0.00  0.00    +0.000 C 
ATOM     23  C   UNL     1      59.891  65.454  72.892  0.00  0.00    +0.000 C 
ATOM     24  N   UNL     1      59.139  65.382  73.222  0.00  0.00    +0.000 NA
ATOM     25  O   UNL     1      60.374  66.088  73.101  0.00  0.00    +0.000 OA
ENDROOT
TORSDOF 0
ENDMDL
