MODEL 1
REMARK VINA RESULT:    -9.524      0.000      0.000
REMARK INTER + INTRA:          -9.524
REMARK INTER:                  -9.524
REMARK INTRA:                   0.000
REMARK UNBOUND:                 0.000
ROOT
REMARK  Name = practolol
REMARK                            x       y       z     vdW  Elec       q    Type
REMARK                         _______ _______ _______ _____ _____    ______ ____
ATOM      1  C   UNL     1      63.022  65.016  71.057  0.00  0.00    +0.000 C 
ATOM      2  C   UNL     1      63.016  64.666  70.310  0.00  0.00    +0.000 C 
ATOM      3  C   UNL     1      63.713  64.621  69.870  0.00  0.00    +0.000 C 
ATOM      4  N   UNL     1      62.314  64.362  70.004  0.00  0.00    +0.000 NA
ATOM      5  C   UNL     1      62.308  64.012  69.256  0.00  0.00    +0.000 C 
ATOM      6  C   UNL     1      61.605  63.707  68.949  0.00  0.00    +0.000 C 
ATOM      7  O   UNL     1      60.910  63.752  69.389  0.00  0.00    +0.000 OA
ATOM      8  C   UNL     1      61.599  63.357  68.202  0.00  0.00    +0.000 C 
ATOM      9  O   UNL     1      60.897  63.053  67.895  0.00  0.00    +0.000 OA
ATOM     10  C   UNL     1      60.891  62.703  67.147  0.00  0.00    +0.000 A 
ATOM     11  C   UNL     1      60.188  62.398  66.841  0.00  0.00    +0.000 A 
ATOM     12  C   UNL     1      60.182  62.048  66.093  0.00  0.00    +0.000 A 
ATOM     13  C   UNL     1      60.879  62.003  65.653  0.00  0.00    +0.000 A 
ATOM     14  N   UNL     1      60.873  61.653  64.906  0.00  0.00    +0.000 NA
ATOM     15  C   UNL     1      61.570  61.608  64.466  0.00  0.00    +0.000 C 
ATOM     16  C   UNL     1      61.563  61.258  63.718  0.00  0.00    +0.000 C 
ATOM     17  O   UNL     1      62.272  61.913  64.773  0.00  0.00    +0.000 OA
ATOM     18  C   UNL     1      61.581  62.308  65.961  0.00  0.00    +0.000 A 
ATOM     19  C   UNL     1      61.587  62.658  66.707  0.00  0.00    +0.000 A 
ENDROOT
TORSDOF 0
ENDMDL
MODEL 2
REMARK VINA RESULT:    -9.457      1.629      1.996
REMARK INTER + INTRA:          -9.457
REMARK INTER:                  -9.457
REMARK INTRA:                   0.000
REMARK UNBOUND:                 0.000
ROOT
REMARK  Name = practolol
REMARK                            x       y       z     vdW  Elec       q    Type
REMARK                         _______ _______ _______ _____ _____    ______ ____
ATOM      1  C   UNL     1      60.784  62.924  71.168  0.00  0.00    +0.000 C 
ATOM      2  C   UNL     1      60.701  62.590  70.419  0.00  0.00    +0.000 C 
ATOM      3  C   UNL     1      60.208  61.937  70.310  0.00  0.00    +0.000 C 
ATOM      4  N   UNL     1      61.112  62.908  69.778  0.00  0.00    +0.000 NA
ATOM      5  C   UNL     1      61.030  62.573  69.028  0.00  0.00    +0.000 C 
ATOM      6  C   UNL     1      61.441  62.891  68.388  0.00  0.00    +0.000 C 
ATOM      7  O   UNL     1      61.934  63.542  68.497  0.00  0.00    +0.000 OA
ATOM      8  C   UNL     1      61.359  62.556  67.638  0.00  0.00    +0.000 C 
ATOM      9  O   UNL     1      61.770  62.874  66.997  0.00  0.00    +0.000 OA
ATOM     10  C   UNL     1      61.688  62.539  66.247  0.00  0.00    +0.000 A 
ATOM     11  C   UNL     1      62.099  62.857  65.607  0.00  0.00    +0.000 A 
ATOM     12  C   UNL     1      62.017  62.522  64.857  0.00  0.00    +0.000 A 
ATOM     13  C   UNL     1      61.524  61.869  64.748  0.00  0.00    +0.000 A 
ATOM     14  N   UNL     1      61.442  61.535  63.999  0.00  0.00    +0.000 NA
ATOM     15  C   UNL     1      60.948  60.882  63.890  0.00  0.00    +0.000 C 
ATOM     16  C   UNL     1      60.866  60.548  63.140  0.00  0.00    +0.000 C 
ATOM     17  O   UNL     1      60.537  60.565  64.530  0.00  0.00    +0.000 OA
ATOM     18  C   UNL     1      61.113  61.552  65.389  0.00  0.00    +0.000 A 
ATOM     19  C   UNL     1      61.195  61.886  66.138  0.00  0.00    +0.000 A 
ENDROOT
TORSDOF 0
ENDMDL
MODEL 3
REMARK VINA RESULT:    -9.231      1.633      2.275
REMARK INTER + INTRA:          -9.231
REMARK INTER:                  -9.231
REMARK INTRA:                   0.000
REMARK UNBOUND:                 0.000
ROOT
REMARK  Name = practolol
REMARK                            x       y       z     vdW  Elec       q    Type
REMARK                         _______ _______ _______ _____ _____    ______ ____
ATOM      1  C   UNL     1      64.983  65.894  70.971  0.00  0.00    +0.000 C 
ATOM      2  C   UNL     1      64.494  65.586  70.383  0.00  0.00    +0.000 C 
ATOM      3  C   UNL     1      64.589  65.825  69.599  0.00  0.00    +0.000 C 
ATOM      4  N   UNL     1      63.908  65.039  70.579  0.00  0.00    +0.000 NA
ATOM      5  C   UNL     1      63.418  64.730  69.991  0.00  0.00    +0.000 C 
ATOM      6  C   UNL     1      62.833  64.183  70.187  0.00  0.00    +0.000 C 
ATOM      7  O   UNL     1      62.738  63.944  70.970  0.00  0.00    +0.000 OA
ATOM      8  C   UNL     1      62.343  63.875  69.599  0.00  0.00    +0.000 C 
ATOM      9  O   UNL     1      61.758  63.327  69.795  0.00  0.00    +0.000 OA
ATOM     10  C   UNL     1      61.268  63.019  69.207  0.00  0.00    +0.000 A 
ATOM     11  C   UNL     1      60.683  62.472  69.403  0.00  0.00    +0.000 A 
ATOM     12  C   UNL     1      60.193  62.163  68.815  0.00  0.00    +0.000 A 
ATOM     13  C   UNL     1      60.288  62.402  68.031  0.00  0.00    +0.000 A 
ATOM     14  N   UNL     1      59.799  62.094  67.444  0.00  0.00    +0.000 NA
ATOM     15  C   UNL     1      59.894  62.333  66.659  0.00  0.00    +0.000 C 
ATOM     16  C   UNL     1      59.404  62.024  66.071  0.00  0.00    +0.000 C 
ATOM     17  O   UNL     1      60.479  62.880  66.463  0.00  0.00    +0.000 OA
ATOM     18  C   UNL     1      60.874  62.950  67.836  0.00  0.00    +0.000 A 
ATOM     19  C   UNL     1      61.363  63.258  68.423  0.00  0.00    +0.000 A 
ENDROOT
TORSDOF 0
ENDMDL
MODEL 4
REMARK VINA RESULT:    -9.063      0.954      5.011
REMARK INTER + INTRA:          -9.063
REMARK INTER:                  -9.063
REMARK INTRA:                   0.000
REMARK UNBOUND:                 0.000
ROOT
REMARK  Name = practolol
REMARK                            x       y       z     vdW  Elec       q    Type
REMARK                         _______ _______ _______ _____ _____    ______ ____
ATOM      1  C   UNL     1      61.254  61.252  63.989  0.00  0.00    +0.000 C 
ATOM      2  C   UNL     1      61.553  61.600  64.675  0.00  0.00    +0.000 C 
ATOM      3  C   UNL     1      62.366  61.699  64.767  0.00  0.00    +0.000 C 
ATOM      4  N   UNL     1      61.037  61.849  65.268  0.00  0.00    +0.000 NA
ATOM      5  C   UNL     1      61.335  62.197  65.954  0.00  0.00    +0.000 C 
ATOM      6  C   UNL     1      60.819  62.446  66.548  0.00  0.00    +0.000 C 
ATOM      7  O   UNL     1      60.006  62.348  66.456  0.00  0.00    +0.000 OA
ATOM      8  C   UNL     1      61.118  62.794  67.234  0.00  0.00    +0.000 C 
ATOM      9  O   UNL     1      60.601  63.043  67.828  0.00  0.00    +0.000 OA
ATOM     10  C   UNL     1      60.900  63.392  68.514  0.00  0.00    +0.000 A 
ATOM     11  C   UNL     1      60.384  63.641  69.107  0.00  0.00    +0.000 A 
ATOM     12  C   UNL     1      60.683  63.989  69.794  0.00  0.00    +0.000 A 
ATOM     13  C   UNL     1      61.496  64.088  69.886  0.00  0.00    +0.000 A 
ATOM     14  N   UNL     1      61.794  64.435  70.572  0.00  0.00    +0.000 NA
ATOM     15  C   UNL     1      62.609  64.534  70.664  0.00  0.00    +0.000 C 
ATOM     16  C   UNL     1      62.907  64.882  71.351  0.00  0.00    +0.000 C 
ATOM     17  O   UNL     1      63.124  64.285  70.071  0.00  0.00    +0.000 OA
ATOM     18  C   UNL     1      62.012  63.838  69.292  0.00  0.00    +0.000 A 
ATOM     19  C   UNL     1      61.714  63.490  68.606  0.00  0.00    +0.000 A 
ENDROOT
TORSDOF 0
ENDMDL
MODEL 5
REMARK VINA RESULT:    -8.584      1.710      5.538
REMARK INTER + INTRA:          -8.584
REMARK INTER:                  -8.584
REMARK INTRA:                   0.000
REMARK UNBOUND:                 0.000
ROOT
REMARK  Name = practolol
REMARK                            x       y       z     vdW  Elec       q    Type
REMARK                         _______ _______ _______ _____ _____    ______ ____
ATOM      1  C   UNL     1      60.311  61.699  65.157  0.00  0.00    +0.000 C 
ATOM      2  C   UNL     1      60.138  61.985  65.911  0.00  0.00    +0.000 C 
ATOM      3  C   UNL     1      59.361  61.973  66.189  0.00  0.00    +0.000 C 
ATOM      4  N   UNL     1      60.742  62.284  66.386  0.00  0.00    +0.000 NA
ATOM      5  C   UNL     1      60.570  62.570  67.141  0.00  0.00    +0.000 C 
ATOM      6  C   UNL     1      61.174  62.868  67.617  0.00  0.00    +0.000 C 
ATOM      7  O   UNL     1      61.950  62.881  67.338  0.00  0.00    +0.000 OA
ATOM      8  C   UNL     1      61.001  63.155  68.372  0.00  0.00    +0.000 C 
ATOM      9  O   UNL     1      61.606  63.453  68.847  0.00  0.00    +0.000 OA
ATOM     10  C   UNL     1      61.433  63.739  69.602  0.00  0.00    +0.000 A 
ATOM     11  C   UNL     1      62.038  64.038  70.077  0.00  0.00    +0.000 A 
ATOM     12  C   UNL     1      61.865  64.324  70.832  0.00  0.00    +0.000 A 
ATOM     13  C   UNL     1      61.088  64.311  71.111  0.00  0.00    +0.000 A 
ATOM     14  N   UNL     1      60.916  64.597  71.865  0.00  0.00    +0.000 NA
ATOM     15  C   UNL     1      60.139  64.584  72.143  0.00  0.00    +0.000 C 
ATOM     16  C   UNL     1      59.967  64.871  72.898  0.00  0.00    +0.000 C 
ATOM     17  O   UNL     1      59.535  64.286  71.668  0.00  0.00    +0.000 OA
ATOM     18  C   UNL     1      60.485  64.012  70.634  0.00  0.00    +0.000 A 
ATOM     19  C   UNL     1      60.657  63.727  69.880  0.00  0.00    +0.000 A 
ENDROOT
TORSDOF 0
ENDMDL
MODEL 6
REMARK VINA RESULT:    -7.671     13.681     14.149
REMARK INTER + INTRA:          -7.671
REMARK INTER:                  -7.671
REMARK INTRA:                   0.000
REMARK UNBOUND:                 0.000
ROOT
REMARK  Name = practolol
REMARK                            x       y       z     vdW  Elec       q    Type
REMARK                         _______ _______ _______ _____ _____    ______ ____
ATOM      1  C   UNL     1      63.834  60.824  53.918  0.00  0.00    +0.000 C 
ATOM      2  C   UNL     1      63.874  61.644  54.004  0.00  0.00    +0.000 C 
ATOM      3  C   UNL     1      64.598  62.009  54.155  0.00  0.00    +0.000 C 
ATOM      4  N   UNL     1      63.189  62.098  53.938  0.00  0.00    +0.000 NA
ATOM      5  C   UNL     1      63.228  62.918  54.024  0.00  0.00    +0.000 C 
ATOM      6  C   UNL     1      62.542  63.372  53.958  0.00  0.00    +0.000 C 
ATOM      7  O   UNL     1      61.819  63.008  53.807  0.00  0.00    +0.000 OA
ATOM      8  C   UNL     1      62.581  64.192  54.044  0.00  0.00    +0.000 C 
ATOM      9  O   UNL     1      61.896  64.646  53.978  0.00  0.00    +0.000 OA
ATOM     10  C   UNL     1      61.935  65.467  54.064  0.00  0.00    +0.000 A 
ATOM     11  C   UNL     1      61.250  65.921  53.998  0.00  0.00    +0.000 A 
ATOM     12  C   UNL     1      61.289  66.741  54.084  0.00  0.00    +0.000 A 
ATOM     13  C   UNL     1      62.013  67.106  54.235  0.00  0.00    +0.000 A 
ATOM     14  N   UNL     1      62.052  67.925  54.321  0.00  0.00    +0.000 NA
ATOM     15  C   UNL     1      62.777  68.290  54.472  0.00  0.00    +0.000 C 
ATOM     16  C   UNL     1      62.815  69.110  54.558  0.00  0.00    +0.000 C 
ATOM     17  O   UNL     1      63.462  67.836  54.538  0.00  0.00    +0.000 OA
ATOM     18  C   UNL     1      62.698  66.651  54.301  0.00  0.00    +0.000 A 
ATOM     19  C   UNL     1      62.659  65.832  54.215  0.00  0.00    +0.000 A 
ENDROOT
TORSDOF 0
ENDMDL
MODEL 7
REMARK VINA RESULT:    -7.480     24.656     25.643
REMARK INTER + INTRA:          -7.480
REMARK INTER:                  -7.480
REMARK INTRA:                   0.000
REMARK UNBOUND:                 0.000
ROOT
REMARK  Name = practolol
REMARK                            x       y       z     vdW  Elec       q    Type
REMARK                         _______ _______ _______ _____ _____    ______ ____
ATOM      1  C   UNL     1      70.879  78.516  48.098  0.00  0.00    +0.000 C 
ATOM      2  C   UNL     1      71.183  78.865  48.780  0.00  0.00    +0.000 C 
ATOM      3  C   UNL     1      71.999  78.941  48.877  0.00  0.00    +0.000 C 
ATOM      4  N   UNL     1      70.670  79.139  49.365  0.00  0.00    +0.000 NA
ATOM      5  C   UNL     1      70.974  79.489  50.049  0.00  0.00    +0.000 C 
ATOM      6  C   UNL     1      70.461  79.762  50.634  0.00  0.00    +0.000 C 
ATOM      7  O   UNL     1      69.647  79.686  50.537  0.00  0.00    +0.000 OA
ATOM      8  C   UNL     1      70.765  80.112  51.317  0.00  0.00    +0.000 C 
ATOM      9  O   UNL     1      70.252  80.386  51.903  0.00  0.00    +0.000 OA
ATOM     10  C   UNL     1      70.556  80.736  52.586  0.00  0.00    +0.000 A 
ATOM     11  C   UNL     1      70.043  81.009  53.171  0.00  0.00    +0.000 A 
ATOM     12  C   UNL     1      70.347  81.359  53.855  0.00  0.00    +0.000 A 
ATOM     13  C   UNL     1      71.163  81.435  53.952  0.00  0.00    +0.000 A 
ATOM     14  N   UNL     1      71.466  81.785  54.634  0.00  0.00    +0.000 NA
ATOM     15  C   UNL     1      72.282  81.861  54.731  0.00  0.00    +0.000 C 
ATOM     16  C   UNL     1      72.585  82.211  55.415  0.00  0.00    +0.000 C 
ATOM     17  O   UNL     1      72.794  81.587  54.146  0.00  0.00    +0.000 OA
ATOM     18  C   UNL     1      71.675  81.161  53.366  0.00  0.00    +0.000 A 
ATOM     19  C   UNL     1      71.372  80.812  52.683  0.00  0.00    +0.000 A 
ENDROOT
TORSDOF 0
ENDMDL
MODEL 8
REMARK VINA RESULT:    -7.388     13.204     13.553
REMARK INTER + INTRA:          -7.388
REMARK INTER:                  -7.388
REMARK INTRA:                   0.000
REMARK UNBOUND:                 0.000
ROOT
REMARK  Name = practolol
REMARK                            x       y       z     vdW  Elec       q    Type
REMARK                         _______ _______ _______ _____ _____    ______ ____
ATOM      1  C   UNL     1      62.099  68.866  55.306  0.00  0.00    +0.000 C 
ATOM      2  C   UNL     1      62.392  68.097  55.243  0.00  0.00    +0.000 C 
ATOM      3  C   UNL     1      63.105  67.896  55.606  0.00  0.00    +0.000 C 
ATOM      4  N   UNL     1      61.972  67.530  54.816  0.00  0.00    +0.000 NA
ATOM      5  C   UNL     1      62.265  66.761  54.753  0.00  0.00    +0.000 C 
ATOM      6  C   UNL     1      61.845  66.194  54.326  0.00  0.00    +0.000 C 
ATOM      7  O   UNL     1      61.133  66.395  53.963  0.00  0.00    +0.000 OA
ATOM      8  C   UNL     1      62.138  65.425  54.262  0.00  0.00    +0.000 C 
ATOM      9  O   UNL     1      61.718  64.858  53.835  0.00  0.00    +0.000 OA
ATOM     10  C   UNL     1      62.011  64.088  53.772  0.00  0.00    +0.000 A 
ATOM     11  C   UNL     1      61.591  63.521  53.345  0.00  0.00    +0.000 A 
ATOM     12  C   UNL     1      61.884  62.752  53.282  0.00  0.00    +0.000 A 
ATOM     13  C   UNL     1      62.597  62.551  53.645  0.00  0.00    +0.000 A 
ATOM     14  N   UNL     1      62.890  61.783  53.582  0.00  0.00    +0.000 NA
ATOM     15  C   UNL     1      63.603  61.582  53.946  0.00  0.00    +0.000 C 
ATOM     16  C   UNL     1      63.896  60.813  53.882  0.00  0.00    +0.000 C 
ATOM     17  O   UNL     1      64.023  62.149  54.372  0.00  0.00    +0.000 OA
ATOM     18  C   UNL     1      63.017  63.119  54.072  0.00  0.00    +0.000 A 
ATOM     19  C   UNL     1      62.724  63.887  54.135  0.00  0.00    +0.000 A 
ENDROOT
TORSDOF 0
ENDMDL
MODEL 9
REMARK VINA RESULT:    -7.272     14.199     15.148
REMARK INTER + INTRA:          -7.272
REMARK INTER:                  -7.272
REMARK INTRA:                   0.000
REMARK UNBOUND:                 0.000
ROOT
REMARK  Name = practolol
REMARK                            x       y       z     vdW  Elec       q    Type
REMARK                         _______ _______ _______ _____ _____    ______ ____
ATOM      1  C   UNL     1      66.110  63.913  53.741  0.00  0.00    +0.000 C 
ATOM      2  C   UNL     1      65.788  63.276  53.327  0.00  0.00    +0.000 C 
ATOM      3  C   UNL     1      65.979  63.161  52.533  0.00  0.00    +0.000 C 
ATOM      4  N   UNL     1      65.275  62.754  53.709  0.00  0.00    +0.000 NA
ATOM      5  C   UNL     1      64.953  62.117  53.295  0.00  0.00    +0.000 C 
ATOM      6  C   UNL     1      64.441  61.595  53.676  0.00  0.00    +0.000 C 
ATOM      7  O   UNL     1      64.250  61.710  54.470  0.00  0.00    +0.000 OA
ATOM      8  C   UNL     1      64.118  60.957  53.262  0.00  0.00    +0.000 C 
ATOM      9  O   UNL     1      63.606  60.436  53.643  0.00  0.00    +0.000 OA
ATOM     10  C   UNL     1      63.283  59.798  53.229  0.00  0.00    +0.000 A 
ATOM     11  C   UNL     1      62.771  59.276  53.611  0.00  0.00    +0.000 A 
ATOM     12  C   UNL     1      62.448  58.639  53.197  0.00  0.00    +0.000 A 
ATOM     13  C   UNL     1      62.639  58.524  52.402  0.00  0.00    +0.000 A 
ATOM     14  N   UNL     1      62.317  57.888  51.989  0.00  0.00    +0.000 NA
ATOM     15  C   UNL     1      62.508  57.773  51.194  0.00  0.00    +0.000 C 
ATOM     16  C   UNL     1      62.185  57.135  50.781  0.00  0.00    +0.000 C 
ATOM     17  O   UNL     1      63.020  58.295  50.813  0.00  0.00    +0.000 OA
ATOM     18  C   UNL     1      63.152  59.047  52.022  0.00  0.00    +0.000 A 
ATOM     19  C   UNL     1      63.474  59.683  52.435  0.00  0.00    +0.000 A 
ENDROOT
TORSDOF 0
ENDMDL
